<event>
 5    1  0.6308903E+000  0.9348786E+02  0.7546771E-02  0.1294619E+00
          2   -1    0    0  501    0  0.00000000000E+00  0.00000000000E+00  0.20946460058E+02  0.20946460058E+02  0.00000000000E+00 0. -1.
         -2   -1    0    0    0  501 -0.00000000000E+00 -0.00000000000E+00 -0.10431333073E+03  0.10431333073E+03  0.00000000000E+00 0.  1.
         23    2    1    2    0    0  0.00000000000E+00  0.00000000000E+00 -0.83366870673E+02  0.12525979079E+03  0.93487860510E+02 0.  0.
        -13    1    3    3    0    0 -0.43882049478E+02 -0.15975585799E+02 -0.44410091979E+02  0.64444626445E+02  0.00000000000E+00 0. -1.
         13    1    3    3    0    0  0.43882049478E+02  0.15975585799E+02 -0.38956778694E+02  0.60815164344E+02  0.00000000000E+00 0.  1.
<mgrwt>
<rscale>  0 0.93487861E+02</rscale>
<asrwt>0</asrwt>
<pdfrwt beam="1">  1        2 0.32225323E-02 0.93487861E+02</pdfrwt>
<pdfrwt beam="2">  1       -2 0.16048205E-01 0.93487861E+02</pdfrwt>
<totfact> 0.74027066E+04</totfact>
</mgrwt>
</event>
<event>
 5    1  0.6308903E+000  0.9128059E+02  0.7546771E-02  0.1299780E+00
          1   -1    0    0  501    0  0.00000000000E+00  0.00000000000E+00  0.40201168392E+02  0.40201168392E+02  0.00000000000E+00 0. -1.
         -1   -1    0    0    0  501 -0.00000000000E+00 -0.00000000000E+00 -0.51815321663E+02  0.51815321663E+02  0.00000000000E+00 0.  1.
         23    2    1    2    0    0  0.00000000000E+00  0.00000000000E+00 -0.11614153271E+02  0.92016490055E+02  0.91280588768E+02 0.  0.
        -13    1    3    3    0    0 -0.43760972387E+02 -0.44138178358E+01 -0.18092700498E+02  0.47558914027E+02  0.00000000000E+00 0.  1.
         13    1    3    3    0    0  0.43760972387E+02  0.44138178358E+01  0.64785472274E+01  0.44457576028E+02  0.00000000000E+00 0. -1.
<mgrwt>
<rscale>  0 0.91280589E+02</rscale>
<asrwt>0</asrwt>
<pdfrwt beam="1">  1        1 0.61847951E-02 0.91280589E+02</pdfrwt>
<pdfrwt beam="2">  1       -1 0.79715880E-02 0.91280589E+02</pdfrwt>
<totfact> 0.90441600E+04</totfact>
</mgrwt>
</event>
<event>
 5    1  0.6308903E+000  0.1079858E+03  0.7546771E-02  0.1264346E+00
         -2   -1    0    0    0  501 -0.00000000000E+00  0.00000000000E+00  0.31184239422E+02  0.31184239422E+02  0.00000000000E+00 0. -1.
          2   -1    0    0  501    0  0.00000000000E+00 -0.00000000000E+00 -0.93484207237E+02  0.93484207237E+02  0.00000000000E+00 0.  1.
         23    2    1    2    0    0  0.00000000000E+00  0.00000000000E+00 -0.62299967815E+02  0.12466844666E+03  0.10798581204E+03 0.  0.
        -13    1    3    3    0    0  0.49249851333E+02  0.74569815166E+01 -0.55203273132E+02  0.74354258749E+02  0.00000000000E+00 0.  1.
         13    1    3    3    0    0 -0.49249851333E+02 -0.74569815166E+01 -0.70966946833E+01  0.50314187910E+02  0.00000000000E+00 0. -1.
<mgrwt>
<rscale>  0 0.10798581E+03</rscale>
<asrwt>0</asrwt>
<pdfrwt beam="2">  1        2 0.14382186E-01 0.10798581E+03</pdfrwt>
<pdfrwt beam="1">  1       -2 0.47975753E-02 0.10798581E+03</pdfrwt>
<totfact> 0.74866956E+04</totfact>
</mgrwt>
</event>
<event>
 5    1  0.6308903E+000  0.9146616E+02  0.7546771E-02  0.1299340E+00
          2   -1    0    0  501    0  0.00000000000E+00  0.00000000000E+00  0.30943449137E+02  0.30943449137E+02  0.00000000000E+00 0. -1.
         -2   -1    0    0    0  501 -0.00000000000E+00 -0.00000000000E+00 -0.67591515098E+02  0.67591515098E+02  0.00000000000E+00 0.  1.
         23    2    1    2    0    0  0.00000000000E+00  0.00000000000E+00 -0.36648065961E+02  0.98534964235E+02  0.91466160071E+02 0.  0.
        -13    1    3    3    0    0 -0.18223620914E+02  0.17069150269E+02  0.22952344597E+02  0.33915577138E+02  0.00000000000E+00 0. -1.
         13    1    3    3    0    0  0.18223620914E+02 -0.17069150269E+02 -0.59600410558E+02  0.64619387097E+02  0.00000000000E+00 0.  1.
<mgrwt>
<rscale>  0 0.91466160E+02</rscale>
<asrwt>0</asrwt>
<pdfrwt beam="1">  1        2 0.47605306E-02 0.91466160E+02</pdfrwt>
<pdfrwt beam="2">  1       -2 0.10398695E-01 0.91466160E+02</pdfrwt>
<totfact> 0.88364887E+04</totfact>
</mgrwt>
</event>
<event>
 5    1  0.6308903E+000  0.9053355E+02  0.7546771E-02  0.1301565E+00
          1   -1    0    0  501    0  0.00000000000E+00  0.00000000000E+00  0.51663648062E+01  0.51663648062E+01  0.00000000000E+00 0. -1.
         -1   -1    0    0    0  501 -0.00000000000E+00 -0.00000000000E+00 -0.39661951036E+03  0.39661951036E+03  0.00000000000E+00 0.  1.
         23    2    1    2    0    0  0.00000000000E+00  0.00000000000E+00 -0.39145314555E+03  0.40178587516E+03  0.90533553554E+02 0.  0.
        -13    1    3    3    0    0 -0.10173676556E-01  0.45223517433E+02 -0.20450709451E+03  0.20944765059E+03  0.00000000000E+00 0.  1.
         13    1    3    3    0    0  0.10173676556E-01 -0.45223517433E+02 -0.18694605104E+03  0.19233822457E+03  0.00000000000E+00 0. -1.
<mgrwt>
<rscale>  0 0.90533554E+02</rscale>
<asrwt>0</asrwt>
<pdfrwt beam="1">  1        1 0.79482486E-03 0.90533554E+02</pdfrwt>
<pdfrwt beam="2">  1       -1 0.61018424E-01 0.90533554E+02</pdfrwt>
<totfact> 0.54519340E+04</totfact>
</mgrwt>
</event>
<event>
 5    1  0.6308903E+000  0.7130938E+02  0.7546771E-02  0.1355696E+00
          1   -1    0    0  501    0  0.00000000000E+00  0.00000000000E+00  0.17601314349E+03  0.17601314349E+03  0.00000000000E+00 0. -1.
         -1   -1    0    0    0  501 -0.00000000000E+00 -0.00000000000E+00 -0.72225121790E+01  0.72225121790E+01  0.00000000000E+00 0.  1.
         23    2    1    2    0    0  0.00000000000E+00  0.00000000000E+00  0.16879063131E+03  0.18323565567E+03  0.71309384306E+02 0.  0.
        -13    1    3    3    0    0  0.28385187723E+02 -0.52876047125E+01  0.13814695912E+03  0.14113206567E+03  0.00000000000E+00 0. -1.
         13    1    3    3    0    0 -0.28385187723E+02  0.52876047125E+01  0.30643672194E+02  0.42103590004E+02  0.00000000000E+00 0.  1.
<mgrwt>
<rscale>  0 0.71309384E+02</rscale>
<asrwt>0</asrwt>
<pdfrwt beam="1">  1        1 0.27078942E-01 0.71309384E+02</pdfrwt>
<pdfrwt beam="2">  1       -1 0.11111559E-02 0.71309384E+02</pdfrwt>
<totfact> 0.22160362E+05</totfact>
</mgrwt>
</event>
<event>
 5    1  0.6308903E+000  0.7663723E+02  0.7546771E-02  0.1338875E+00
          4   -1    0    0  501    0  0.00000000000E+00  0.00000000000E+00  0.85351559882E+02  0.85351559882E+02  0.00000000000E+00 0. -1.
         -4   -1    0    0    0  501 -0.00000000000E+00 -0.00000000000E+00 -0.17203157254E+02  0.17203157254E+02  0.00000000000E+00 0.  1.
         23    2    1    2    0    0  0.00000000000E+00  0.00000000000E+00  0.68148402628E+02  0.10255471714E+03  0.76637231330E+02 0.  0.
        -13    1    3    3    0    0 -0.26024331509E+02  0.17002997814E+02  0.40932483725E+01  0.31354783485E+02  0.00000000000E+00 0.  1.
         13    1    3    3    0    0  0.26024331509E+02 -0.17002997814E+02  0.64055154255E+02  0.71199933650E+02  0.00000000000E+00 0. -1.
<mgrwt>
<rscale>  0 0.76637231E+02</rscale>
<asrwt>0</asrwt>
<pdfrwt beam="1">  1        4 0.13131009E-01 0.76637231E+02</pdfrwt>
<pdfrwt beam="2">  1       -4 0.26466396E-02 0.76637231E+02</pdfrwt>
<totfact> 0.41848549E+04</totfact>
</mgrwt>
</event>
<event>
 5    1  0.6308903E+000  0.8878906E+02  0.7546771E-02  0.1305811E+00
          3   -1    0    0  501    0  0.00000000000E+00  0.00000000000E+00  0.10089982763E+02  0.10089982763E+02  0.00000000000E+00 0. -1.
         -3   -1    0    0    0  501 -0.00000000000E+00 -0.00000000000E+00 -0.19532981901E+03  0.19532981901E+03  0.00000000000E+00 0.  1.
         23    2    1    2    0    0  0.00000000000E+00  0.00000000000E+00 -0.18523983625E+03  0.20541980177E+03  0.88789064796E+02 0.  0.
        -13    1    3    3    0    0  0.14577480683E+02  0.35049991628E+02 -0.14587577131E+03  0.15073402241E+03  0.00000000000E+00 0.  1.
         13    1    3    3    0    0 -0.14577480683E+02 -0.35049991628E+02 -0.39364064934E+02  0.54685779361E+02  0.00000000000E+00 0. -1.
<mgrwt>
<rscale>  0 0.88789065E+02</rscale>
<asrwt>0</asrwt>
<pdfrwt beam="1">  1        3 0.15523051E-02 0.88789065E+02</pdfrwt>
<pdfrwt beam="2">  1       -3 0.30050741E-01 0.88789065E+02</pdfrwt>
<totfact> 0.30306677E+04</totfact>
</mgrwt>
</event>
<event>
 5    1  0.6308903E+000  0.9204621E+02  0.7546771E-02  0.1297971E+00
         -2   -1    0    0    0  501 -0.00000000000E+00  0.00000000000E+00  0.28678077551E+02  0.28678077551E+02  0.00000000000E+00 0.  1.
          2   -1    0    0  501    0  0.00000000000E+00 -0.00000000000E+00 -0.73858722461E+02  0.73858722461E+02  0.00000000000E+00 0. -1.
         23    2    1    2    0    0  0.00000000000E+00  0.00000000000E+00 -0.45180644911E+02  0.10253680001E+03  0.92046209494E+02 0.  0.
        -13    1    3    3    0    0  0.37979976091E+02  0.42307599340E+01  0.59792475524E+01  0.38679830852E+02  0.00000000000E+00 0.  1.
         13    1    3    3    0    0 -0.37979976091E+02 -0.42307599340E+01 -0.51159892463E+02  0.63856969160E+02  0.00000000000E+00 0. -1.
<mgrwt>
<rscale>  0 0.92046209E+02</rscale>
<asrwt>0</asrwt>
<pdfrwt beam="2">  1        2 0.11362880E-01 0.92046209E+02</pdfrwt>
<pdfrwt beam="1">  1       -2 0.44120119E-02 0.92046209E+02</pdfrwt>
<totfact> 0.10934750E+05</totfact>
</mgrwt>
</event>
<event>
 5    1  0.6308903E+000  0.9168777E+02  0.7546771E-02  0.1298815E+00
          1   -1    0    0  501    0  0.00000000000E+00  0.00000000000E+00  0.83540364623E+01  0.83540364623E+01  0.00000000000E+00 0. -1.
         -1   -1    0    0    0  501 -0.00000000000E+00 -0.00000000000E+00 -0.25157440674E+03  0.25157440674E+03  0.00000000000E+00 0.  1.
         23    2    1    2    0    0  0.00000000000E+00  0.00000000000E+00 -0.24322037028E+03  0.25992844320E+03  0.91687769454E+02 0.  0.
        -13    1    3    3    0    0 -0.43204097420E+02 -0.42013856982E+01 -0.16341133610E+03  0.16907841507E+03  0.00000000000E+00 0.  1.
         13    1    3    3    0    0  0.43204097420E+02  0.42013856982E+01 -0.79809034174E+02  0.90850028132E+02  0.00000000000E+00 0. -1.
<mgrwt>
<rscale>  0 0.91687769E+02</rscale>
<asrwt>0</asrwt>
<pdfrwt beam="1">  1        1 0.12852362E-02 0.91687769E+02</pdfrwt>
<pdfrwt beam="2">  1       -1 0.38703759E-01 0.91687769E+02</pdfrwt>
<totfact> 0.63689929E+04</totfact>
</mgrwt>
</event>
<event>
 5    1  0.6308903E+000  0.9191546E+02  0.7546771E-02  0.1298278E+00
         -2   -1    0    0    0  501 -0.00000000000E+00  0.00000000000E+00  0.58783055600E+02  0.58783055600E+02  0.00000000000E+00 0.  1.
          2   -1    0    0  501    0  0.00000000000E+00 -0.00000000000E+00 -0.35930642736E+02  0.35930642736E+02  0.00000000000E+00 0. -1.
         23    2    1    2    0    0  0.00000000000E+00  0.00000000000E+00  0.22852412864E+02  0.94713698337E+02  0.91915460500E+02 0.  0.
        -13    1    3    3    0    0 -0.33255770601E+02 -0.31121310584E+02  0.51050653150E+01  0.45831691465E+02  0.00000000000E+00 0.  1.
         13    1    3    3    0    0  0.33255770601E+02  0.31121310584E+02  0.17747347549E+02  0.48882006871E+02  0.00000000000E+00 0. -1.
<mgrwt>
<rscale>  0 0.91915460E+02</rscale>
<asrwt>0</asrwt>
<pdfrwt beam="2">  1        2 0.55277912E-02 0.91915460E+02</pdfrwt>
<pdfrwt beam="1">  1       -2 0.90435470E-02 0.91915460E+02</pdfrwt>
<totfact> 0.90605252E+04</totfact>
</mgrwt>
</event>
<event>
 5    1  0.6308903E+000  0.9255344E+02  0.7546771E-02  0.1296783E+00
          1   -1    0    0  501    0  0.00000000000E+00  0.00000000000E+00  0.21452101747E+03  0.21452101747E+03  0.00000000000E+00 0. -1.
         -1   -1    0    0    0  501 -0.00000000000E+00 -0.00000000000E+00 -0.99828677203E+01  0.99828677203E+01  0.00000000000E+00 0.  1.
         23    2    1    2    0    0  0.00000000000E+00  0.00000000000E+00  0.20453814975E+03  0.22450388519E+03  0.92553442736E+02 0.  0.
        -13    1    3    3    0    0  0.18079344535E+02  0.40857655415E+02  0.13151061932E+03  0.13889295770E+03  0.00000000000E+00 0. -1.
         13    1    3    3    0    0 -0.18079344535E+02 -0.40857655415E+02  0.73027530421E+02  0.85610927481E+02  0.00000000000E+00 0.  1.
<mgrwt>
<rscale>  0 0.92553443E+02</rscale>
<asrwt>0</asrwt>
<pdfrwt beam="1">  1        1 0.33003230E-01 0.92553443E+02</pdfrwt>
<pdfrwt beam="2">  1       -1 0.15358260E-02 0.92553443E+02</pdfrwt>
<totfact> 0.11530162E+05</totfact>
</mgrwt>
</event>
<event>
 5    1  0.6308903E+000  0.9117684E+02  0.7546771E-02  0.1300027E+00
         -1   -1    0    0    0  501 -0.00000000000E+00  0.00000000000E+00  0.19898675128E+03  0.19898675128E+03  0.00000000000E+00 0.  1.
          1   -1    0    0  501    0  0.00000000000E+00 -0.00000000000E+00 -0.10444434850E+02  0.10444434850E+02  0.00000000000E+00 0. -1.
         23    2    1    2    0    0  0.00000000000E+00  0.00000000000E+00  0.18854231643E+03  0.20943118613E+03  0.91176842670E+02 0.  0.
        -13    1    3    3    0    0 -0.30899842177E+02  0.22844180506E+02  0.15061257974E+03  0.15543746654E+03  0.00000000000E+00 0.  1.
         13    1    3    3    0    0  0.30899842177E+02 -0.22844180506E+02  0.37929736694E+02  0.53993719591E+02  0.00000000000E+00 0. -1.
<mgrwt>
<rscale>  0 0.91176843E+02</rscale>
<asrwt>0</asrwt>
<pdfrwt beam="2">  1        1 0.16068363E-02 0.91176843E+02</pdfrwt>
<pdfrwt beam="1">  1       -1 0.30613344E-01 0.91176843E+02</pdfrwt>
<totfact> 0.69525338E+04</totfact>
</mgrwt>
</event>
<event>
 5    1  0.6308903E+000  0.9169122E+02  0.7546771E-02  0.1298807E+00
         -2   -1    0    0    0  501 -0.00000000000E+00  0.00000000000E+00  0.24845048313E+02  0.24845048313E+02  0.00000000000E+00 0.  1.
          2   -1    0    0  501    0  0.00000000000E+00 -0.00000000000E+00 -0.84597141533E+02  0.84597141533E+02  0.00000000000E+00 0. -1.
         23    2    1    2    0    0  0.00000000000E+00  0.00000000000E+00 -0.59752093220E+02  0.10944218985E+03  0.91691222449E+02 0.  0.
        -13    1    3    3    0    0 -0.19526636960E+01 -0.26240350473E+02  0.14934684555E+02  0.30255804256E+02  0.00000000000E+00 0.  1.
         13    1    3    3    0    0  0.19526636960E+01  0.26240350473E+02 -0.74686777775E+02  0.79186385590E+02  0.00000000000E+00 0. -1.
<mgrwt>
<rscale>  0 0.91691222E+02</rscale>
<asrwt>0</asrwt>
<pdfrwt beam="2">  1        2 0.13014945E-01 0.91691222E+02</pdfrwt>
<pdfrwt beam="1">  1       -2 0.38223152E-02 0.91691222E+02</pdfrwt>
<totfact> 0.11491156E+05</totfact>
</mgrwt>
</event>
<event>
 5    1  0.6308903E+000  0.9175525E+02  0.7546771E-02  0.1298656E+00
          2   -1    0    0  501    0  0.00000000000E+00  0.00000000000E+00  0.39326529333E+02  0.39326529333E+02  0.00000000000E+00 0. -1.
         -2   -1    0    0    0  501 -0.00000000000E+00 -0.00000000000E+00 -0.53520012720E+02  0.53520012720E+02  0.00000000000E+00 0.  1.
         23    2    1    2    0    0  0.00000000000E+00  0.00000000000E+00 -0.14193483388E+02  0.92846542053E+02  0.91755247264E+02 0.  0.
        -13    1    3    3    0    0 -0.31398175397E+02  0.15951635149E+02  0.22654585045E+02  0.41875175292E+02  0.00000000000E+00 0. -1.
         13    1    3    3    0    0  0.31398175397E+02 -0.15951635149E+02 -0.36848068433E+02  0.50971366761E+02  0.00000000000E+00 0.  1.
<mgrwt>
<rscale>  0 0.91755247E+02</rscale>
<asrwt>0</asrwt>
<pdfrwt beam="1">  1        2 0.60502353E-02 0.91755247E+02</pdfrwt>
<pdfrwt beam="2">  1       -2 0.82338481E-02 0.91755247E+02</pdfrwt>
<totfact> 0.93241197E+04</totfact>
</mgrwt>
</event>
<event>
 5    1  0.6308903E+000  0.8471998E+02  0.7546771E-02  0.1316166E+00
         -1   -1    0    0    0  501 -0.00000000000E+00  0.00000000000E+00  0.44856549941E+01  0.44856549941E+01  0.00000000000E+00 0.  1.
          1   -1    0    0  501    0  0.00000000000E+00 -0.00000000000E+00 -0.40002377997E+03  0.40002377997E+03  0.00000000000E+00 0. -1.
         23    2    1    2    0    0  0.00000000000E+00  0.00000000000E+00 -0.39553812497E+03  0.40450943496E+03  0.84719977960E+02 0.  0.
        -13    1    3    3    0    0 -0.36676358161E+02 -0.21009472168E+02 -0.21111721439E+03  0.21530683078E+03  0.00000000000E+00 0.  1.
         13    1    3    3    0    0  0.36676358161E+02  0.21009472168E+02 -0.18442091059E+03  0.18920260418E+03  0.00000000000E+00 0. -1.
<mgrwt>
<rscale>  0 0.84719978E+02</rscale>
<asrwt>0</asrwt>
<pdfrwt beam="2">  1        1 0.61542127E-01 0.84719978E+02</pdfrwt>
<pdfrwt beam="1">  1       -1 0.69010069E-03 0.84719978E+02</pdfrwt>
<totfact> 0.16381330E+05</totfact>
</mgrwt>
</event>
<event>
 5    1  0.6308903E+000  0.9048843E+02  0.7546771E-02  0.1301673E+00
          1   -1    0    0  501    0  0.00000000000E+00  0.00000000000E+00  0.74240490058E+02  0.74240490058E+02  0.00000000000E+00 0. -1.
         -1   -1    0    0    0  501 -0.00000000000E+00 -0.00000000000E+00 -0.27573078420E+02  0.27573078420E+02  0.00000000000E+00 0.  1.
         23    2    1    2    0    0  0.00000000000E+00  0.00000000000E+00  0.46667411639E+02  0.10181356848E+03  0.90488426979E+02 0.  0.
        -13    1    3    3    0    0 -0.17509308605E+02 -0.34161444757E+02  0.50277805590E+02  0.63256920022E+02  0.00000000000E+00 0. -1.
         13    1    3    3    0    0  0.17509308605E+02  0.34161444757E+02 -0.36103939510E+01  0.38556648456E+02  0.00000000000E+00 0.  1.
<mgrwt>
<rscale>  0 0.90488427E+02</rscale>
<asrwt>0</asrwt>
<pdfrwt beam="1">  1        1 0.11421614E-01 0.90488427E+02</pdfrwt>
<pdfrwt beam="2">  1       -1 0.42420121E-02 0.90488427E+02</pdfrwt>
<totfact> 0.10166741E+05</totfact>
</mgrwt>
</event>
<event>
 5    1  0.6308903E+000  0.8363506E+02  0.7546771E-02  0.1319041E+00
          1   -1    0    0  501    0  0.00000000000E+00  0.00000000000E+00  0.76976043049E+02  0.76976043049E+02  0.00000000000E+00 0. -1.
         -1   -1    0    0    0  501 -0.00000000000E+00 -0.00000000000E+00 -0.22717534250E+02  0.22717534250E+02  0.00000000000E+00 0.  1.
         23    2    1    2    0    0  0.00000000000E+00  0.00000000000E+00  0.54258508799E+02  0.99693577300E+02  0.83635061892E+02 0.  0.
        -13    1    3    3    0    0  0.28635697625E+02 -0.29111032052E+02  0.16384613744E+02  0.43998987865E+02  0.00000000000E+00 0. -1.
         13    1    3    3    0    0 -0.28635697625E+02  0.29111032052E+02  0.37873895055E+02  0.55694589435E+02  0.00000000000E+00 0.  1.
<mgrwt>
<rscale>  0 0.83635062E+02</rscale>
<asrwt>0</asrwt>
<pdfrwt beam="1">  1        1 0.11842468E-01 0.83635062E+02</pdfrwt>
<pdfrwt beam="2">  1       -1 0.34950053E-02 0.83635062E+02</pdfrwt>
<totfact> 0.12675213E+05</totfact>
</mgrwt>
</event>
<event>
 5    1  0.6308903E+000  0.9098238E+02  0.7546771E-02  0.1300490E+00
         -2   -1    0    0    0  501 -0.00000000000E+00  0.00000000000E+00  0.46767555712E+02  0.46767555712E+02  0.00000000000E+00 0.  1.
          2   -1    0    0  501    0  0.00000000000E+00 -0.00000000000E+00 -0.44249654734E+02  0.44249654734E+02  0.00000000000E+00 0. -1.
         23    2    1    2    0    0  0.00000000000E+00  0.00000000000E+00  0.25179009776E+01  0.91017210446E+02  0.90982376161E+02 0.  0.
        -13    1    3    3    0    0  0.35331144414E+02  0.26012802883E+02 -0.10766155664E+02  0.45175942572E+02  0.00000000000E+00 0. -1.
         13    1    3    3    0    0 -0.35331144414E+02 -0.26012802883E+02  0.13284056642E+02  0.45841267874E+02  0.00000000000E+00 0.  1.
<mgrwt>
<rscale>  0 0.90982376E+02</rscale>
<asrwt>0</asrwt>
<pdfrwt beam="2">  1        2 0.68076392E-02 0.90982376E+02</pdfrwt>
<pdfrwt beam="1">  1       -2 0.71950086E-02 0.90982376E+02</pdfrwt>
<totfact> 0.98517917E+04</totfact>
</mgrwt>
</event>
<event>
 5    1  0.6308903E+000  0.9040184E+02  0.7546771E-02  0.1301881E+00
         -1   -1    0    0    0  501 -0.00000000000E+00  0.00000000000E+00  0.18846816685E+02  0.18846816685E+02  0.00000000000E+00 0.  1.
          1   -1    0    0  501    0  0.00000000000E+00 -0.00000000000E+00 -0.10840680447E+03  0.10840680447E+03  0.00000000000E+00 0. -1.
         23    2    1    2    0    0  0.00000000000E+00  0.00000000000E+00 -0.89559987784E+02  0.12725362115E+03  0.90401840052E+02 0.  0.
        -13    1    3    3    0    0 -0.25463315788E+02  0.19698951336E+01  0.77170605995E+01  0.26679841867E+02  0.00000000000E+00 0.  1.
         13    1    3    3    0    0  0.25463315788E+02 -0.19698951336E+01 -0.97277048384E+02  0.10057377929E+03  0.00000000000E+00 0. -1.
<mgrwt>
<rscale>  0 0.90401840E+02</rscale>
<asrwt>0</asrwt>
<pdfrwt beam="2">  1        1 0.16677970E-01 0.90401840E+02</pdfrwt>
<pdfrwt beam="1">  1       -1 0.28995103E-02 0.90401840E+02</pdfrwt>
<totfact> 0.10836107E+05</totfact>
</mgrwt>
</event>
<event>
 5    1  0.6308903E+000  0.9168640E+02  0.7546771E-02  0.1298818E+00
         -2   -1    0    0    0  501 -0.00000000000E+00  0.00000000000E+00  0.83313789155E+01  0.83313789155E+01  0.00000000000E+00 0.  1.
          2   -1    0    0  501    0  0.00000000000E+00 -0.00000000000E+00 -0.25225102856E+03  0.25225102856E+03  0.00000000000E+00 0. -1.
         23    2    1    2    0    0  0.00000000000E+00  0.00000000000E+00 -0.24391964965E+03  0.26058240748E+03  0.91686398136E+02 0.  0.
        -13    1    3    3    0    0  0.45404949159E+02 -0.61517733778E+01 -0.11779715716E+03  0.12639471491E+03  0.00000000000E+00 0. -1.
         13    1    3    3    0    0 -0.45404949159E+02  0.61517733778E+01 -0.12612249249E+03  0.13418769257E+03  0.00000000000E+00 0.  1.
<mgrwt>
<rscale>  0 0.91686398E+02</rscale>
<asrwt>0</asrwt>
<pdfrwt beam="2">  1        2 0.38807853E-01 0.91686398E+02</pdfrwt>
<pdfrwt beam="1">  1       -2 0.12817505E-02 0.91686398E+02</pdfrwt>
<totfact> 0.16592125E+05</totfact>
</mgrwt>
</event>
<event>
 5    1  0.6308903E+000  0.9002366E+02  0.7546771E-02  0.1302794E+00
          1   -1    0    0  501    0  0.00000000000E+00  0.00000000000E+00  0.17231289502E+03  0.17231289502E+03  0.00000000000E+00 0. -1.
         -1   -1    0    0    0  501 -0.00000000000E+00 -0.00000000000E+00 -0.11758056184E+02  0.11758056184E+02  0.00000000000E+00 0.  1.
         23    2    1    2    0    0  0.00000000000E+00  0.00000000000E+00  0.16055483884E+03  0.18407095121E+03  0.90023656913E+02 0.  0.
        -13    1    3    3    0    0 -0.37735415912E+02 -0.19499019515E+02  0.11073523604E+03  0.11860213268E+03  0.00000000000E+00 0. -1.
         13    1    3    3    0    0  0.37735415912E+02  0.19499019515E+02  0.49819602802E+02  0.65468818528E+02  0.00000000000E+00 0.  1.
<mgrwt>
<rscale>  0 0.90023657E+02</rscale>
<asrwt>0</asrwt>
<pdfrwt beam="1">  1        1 0.26509674E-01 0.90023657E+02</pdfrwt>
<pdfrwt beam="2">  1       -1 0.18089318E-02 0.90023657E+02</pdfrwt>
<totfact> 0.11907014E+05</totfact>
</mgrwt>
</event>
<event>
 5    1  0.6308903E+000  0.9268890E+02  0.7546771E-02  0.1296468E+00
         -1   -1    0    0    0  501 -0.00000000000E+00  0.00000000000E+00  0.91816943352E+01  0.91816943352E+01  0.00000000000E+00 0.  1.
          1   -1    0    0  501    0  0.00000000000E+00 -0.00000000000E+00 -0.23392284789E+03  0.23392284789E+03  0.00000000000E+00 0. -1.
         23    2    1    2    0    0  0.00000000000E+00  0.00000000000E+00 -0.22474115356E+03  0.24310454223E+03  0.92688900897E+02 0.  0.
        -13    1    3    3    0    0 -0.12862065439E+02 -0.44441409716E+02 -0.10526648291E+03  0.11498479921E+03  0.00000000000E+00 0. -1.
         13    1    3    3    0    0  0.12862065439E+02  0.44441409716E+02 -0.11947467065E+03  0.12811974302E+03  0.00000000000E+00 0.  1.
<mgrwt>
<rscale>  0 0.92688901E+02</rscale>
<asrwt>0</asrwt>
<pdfrwt beam="2">  1        1 0.35988130E-01 0.92688901E+02</pdfrwt>
<pdfrwt beam="1">  1       -1 0.14125684E-02 0.92688901E+02</pdfrwt>
<totfact> 0.11681543E+05</totfact>
</mgrwt>
</event>
<event>
 5    1  0.6308903E+000  0.9444586E+02  0.7546771E-02  0.1292429E+00
          2   -1    0    0  501    0  0.00000000000E+00  0.00000000000E+00  0.82478187808E+02  0.82478187808E+02  0.00000000000E+00 0. -1.
         -2   -1    0    0    0  501 -0.00000000000E+00 -0.00000000000E+00 -0.27037511301E+02  0.27037511301E+02  0.00000000000E+00 0.  1.
         23    2    1    2    0    0  0.00000000000E+00  0.00000000000E+00  0.55440676506E+02  0.10951569911E+03  0.94445856129E+02 0.  0.
        -13    1    3    3    0    0 -0.21060183632E+02 -0.20358162651E+02  0.70671360585E+02  0.76501158999E+02  0.00000000000E+00 0. -1.
         13    1    3    3    0    0  0.21060183632E+02  0.20358162651E+02 -0.15230684079E+02  0.33014540110E+02  0.00000000000E+00 0.  1.
<mgrwt>
<rscale>  0 0.94445856E+02</rscale>
<asrwt>0</asrwt>
<pdfrwt beam="1">  1        2 0.12688952E-01 0.94445856E+02</pdfrwt>
<pdfrwt beam="2">  1       -2 0.41596172E-02 0.94445856E+02</pdfrwt>
<totfact> 0.10503715E+05</totfact>
</mgrwt>
</event>
<event>
 5    1  0.6308903E+000  0.9119008E+02  0.7546771E-02  0.1299995E+00
          1   -1    0    0  501    0  0.00000000000E+00  0.00000000000E+00  0.43225165327E+03  0.43225165327E+03  0.00000000000E+00 0. -1.
         -1   -1    0    0    0  501 -0.00000000000E+00 -0.00000000000E+00 -0.48094844468E+01  0.48094844468E+01  0.00000000000E+00 0.  1.
         23    2    1    2    0    0  0.00000000000E+00  0.00000000000E+00  0.42744216882E+03  0.43706113772E+03  0.91190078484E+02 0.  0.
        -13    1    3    3    0    0 -0.43621094023E+02 -0.10327699549E+02  0.17378004026E+03  0.17946855885E+03  0.00000000000E+00 0. -1.
         13    1    3    3    0    0  0.43621094023E+02  0.10327699549E+02  0.25366212856E+03  0.25759257886E+03  0.00000000000E+00 0.  1.
<mgrwt>
<rscale>  0 0.91190078E+02</rscale>
<asrwt>0</asrwt>
<pdfrwt beam="1">  1        1 0.66500223E-01 0.91190078E+02</pdfrwt>
<pdfrwt beam="2">  1       -1 0.73992103E-03 0.91190078E+02</pdfrwt>
<totfact> 0.13649585E+05</totfact>
</mgrwt>
</event>
<event>
 5    1  0.6308903E+000  0.9125255E+02  0.7546771E-02  0.1299847E+00
         -2   -1    0    0    0  501 -0.00000000000E+00  0.00000000000E+00  0.21577336010E+03  0.21577336010E+03  0.00000000000E+00 0.  1.
          2   -1    0    0  501    0  0.00000000000E+00 -0.00000000000E+00 -0.96478864390E+01  0.96478864390E+01  0.00000000000E+00 0. -1.
         23    2    1    2    0    0  0.00000000000E+00  0.00000000000E+00  0.20612547367E+03  0.22542124654E+03  0.91252547906E+02 0.  0.
        -13    1    3    3    0    0 -0.33606971353E+02  0.24161284905E+02  0.15048740905E+03  0.15607580368E+03  0.00000000000E+00 0.  1.
         13    1    3    3    0    0  0.33606971353E+02 -0.24161284905E+02  0.55638064614E+02  0.69345442862E+02  0.00000000000E+00 0. -1.
<mgrwt>
<rscale>  0 0.91252548E+02</rscale>
<asrwt>0</asrwt>
<pdfrwt beam="2">  1        2 0.14842904E-02 0.91252548E+02</pdfrwt>
<pdfrwt beam="1">  1       -2 0.33195898E-01 0.91252548E+02</pdfrwt>
<totfact> 0.60128503E+04</totfact>
</mgrwt>
</event>
<event>
 5    1  0.6308903E+000  0.9292296E+02  0.7546771E-02  0.1295924E+00
          1   -1    0    0  501    0  0.00000000000E+00  0.00000000000E+00  0.17076406320E+02  0.17076406320E+02  0.00000000000E+00 0. -1.
         -1   -1    0    0    0  501 -0.00000000000E+00 -0.00000000000E+00 -0.12641238591E+03  0.12641238591E+03  0.00000000000E+00 0.  1.
         23    2    1    2    0    0  0.00000000000E+00  0.00000000000E+00 -0.10933597959E+03  0.14348879223E+03  0.92922963057E+02 0.  0.
        -13    1    3    3    0    0  0.27249216045E+02  0.18025448190E+01 -0.11271110223E+03  0.11597224456E+03  0.00000000000E+00 0.  1.
         13    1    3    3    0    0 -0.27249216045E+02 -0.18025448190E+01  0.33751226384E+01  0.27516547670E+02  0.00000000000E+00 0. -1.
<mgrwt>
<rscale>  0 0.92922963E+02</rscale>
<asrwt>0</asrwt>
<pdfrwt beam="1">  1        1 0.26271394E-02 0.92922963E+02</pdfrwt>
<pdfrwt beam="2">  1       -1 0.19448059E-01 0.92922963E+02</pdfrwt>
<totfact> 0.73959510E+04</totfact>
</mgrwt>
</event>
<event>
 5    1  0.6308903E+000  0.9135459E+02  0.7546771E-02  0.1299604E+00
          1   -1    0    0  501    0  0.00000000000E+00  0.00000000000E+00  0.52214222270E+02  0.52214222270E+02  0.00000000000E+00 0. -1.
         -1   -1    0    0    0  501 -0.00000000000E+00 -0.00000000000E+00 -0.39958754494E+02  0.39958754494E+02  0.00000000000E+00 0.  1.
         23    2    1    2    0    0  0.00000000000E+00  0.00000000000E+00  0.12255467776E+02  0.92172976764E+02  0.91354590224E+02 0.  0.
        -13    1    3    3    0    0 -0.12373240654E+02 -0.30839518668E+02  0.37749240231E+02  0.50290934908E+02  0.00000000000E+00 0. -1.
         13    1    3    3    0    0  0.12373240654E+02  0.30839518668E+02 -0.25493772455E+02  0.41882041855E+02  0.00000000000E+00 0.  1.
<mgrwt>
<rscale>  0 0.91354590E+02</rscale>
<asrwt>0</asrwt>
<pdfrwt beam="1">  1        1 0.80329572E-02 0.91354590E+02</pdfrwt>
<pdfrwt beam="2">  1       -1 0.61475007E-02 0.91354590E+02</pdfrwt>
<totfact> 0.93863812E+04</totfact>
</mgrwt>
</event>
<event>
 5    1  0.6308903E+000  0.9887547E+02  0.7546771E-02  0.1282679E+00
          1   -1    0    0  501    0  0.00000000000E+00  0.00000000000E+00  0.66842335062E+02  0.66842335062E+02  0.00000000000E+00 0.  1.
         -1   -1    0    0    0  501 -0.00000000000E+00 -0.00000000000E+00 -0.36564997570E+02  0.36564997570E+02  0.00000000000E+00 0. -1.
         23    2    1    2    0    0  0.00000000000E+00  0.00000000000E+00  0.30277337492E+02  0.10340733263E+03  0.98875473584E+02 0.  0.
        -13    1    3    3    0    0 -0.72710270102E+01  0.47709069037E+02  0.39200956962E+01  0.48418903874E+02  0.00000000000E+00 0.  1.
         13    1    3    3    0    0  0.72710270102E+01 -0.47709069037E+02  0.26357241796E+02  0.54988428758E+02  0.00000000000E+00 0. -1.
<mgrwt>
<rscale>  0 0.98875474E+02</rscale>
<asrwt>0</asrwt>
<pdfrwt beam="1">  1        1 0.10283436E-01 0.98875474E+02</pdfrwt>
<pdfrwt beam="2">  1       -1 0.56253842E-02 0.98875474E+02</pdfrwt>
<totfact> 0.78196412E+04</totfact>
</mgrwt>
</event>
<event>
 5    1  0.6308903E+000  0.9290236E+02  0.7546771E-02  0.1295972E+00
          4   -1    0    0  501    0  0.00000000000E+00  0.00000000000E+00  0.66257258825E+02  0.66257258825E+02  0.00000000000E+00 0.  1.
         -4   -1    0    0    0  501 -0.00000000000E+00 -0.00000000000E+00 -0.32565670944E+02  0.32565670944E+02  0.00000000000E+00 0. -1.
         23    2    1    2    0    0  0.00000000000E+00  0.00000000000E+00  0.33691587881E+02  0.98822929769E+02  0.92902359250E+02 0.  0.
        -13    1    3    3    0    0  0.24339611062E+02 -0.34433962735E+02  0.37570707581E+02  0.56477185875E+02  0.00000000000E+00 0.  1.
         13    1    3    3    0    0 -0.24339611062E+02  0.34433962735E+02 -0.38791196995E+01  0.42345743894E+02  0.00000000000E+00 0. -1.
<mgrwt>
<rscale>  0 0.92902359E+02</rscale>
<asrwt>0</asrwt>
<pdfrwt beam="1">  1        4 0.10193424E-01 0.92902359E+02</pdfrwt>
<pdfrwt beam="2">  1       -4 0.50101032E-02 0.92902359E+02</pdfrwt>
<totfact> 0.25212455E+04</totfact>
</mgrwt>
</event>
<event>
 5    1  0.6308903E+000  0.9177319E+02  0.7546771E-02  0.1298614E+00
          2   -1    0    0  501    0  0.00000000000E+00  0.00000000000E+00  0.26533813038E+02  0.26533813038E+02  0.00000000000E+00 0.  1.
         -2   -1    0    0    0  501 -0.00000000000E+00 -0.00000000000E+00 -0.79354578470E+02  0.79354578470E+02  0.00000000000E+00 0. -1.
         23    2    1    2    0    0  0.00000000000E+00  0.00000000000E+00 -0.52820765432E+02  0.10588839151E+03  0.91773188870E+02 0.  0.
        -13    1    3    3    0    0  0.96112551056E+01  0.99317772963E+01  0.24075200028E+02  0.27760253626E+02  0.00000000000E+00 0.  1.
         13    1    3    3    0    0 -0.96112551056E+01 -0.99317772963E+01 -0.76895965460E+02  0.78128137883E+02  0.00000000000E+00 0. -1.
<mgrwt>
<rscale>  0 0.91773189E+02</rscale>
<asrwt>0</asrwt>
<pdfrwt beam="1">  1        2 0.40821251E-02 0.91773189E+02</pdfrwt>
<pdfrwt beam="2">  1       -2 0.12208397E-01 0.91773189E+02</pdfrwt>
<totfact> 0.83913579E+04</totfact>
</mgrwt>
</event>
<event>
 5    1  0.6308903E+000  0.9062212E+02  0.7546771E-02  0.1301352E+00
          3   -1    0    0  501    0  0.00000000000E+00  0.00000000000E+00  0.28636851994E+02  0.28636851994E+02  0.00000000000E+00 0. -1.
         -3   -1    0    0    0  501 -0.00000000000E+00 -0.00000000000E+00 -0.71694057426E+02  0.71694057426E+02  0.00000000000E+00 0.  1.
         23    2    1    2    0    0  0.00000000000E+00  0.00000000000E+00 -0.43057205432E+02  0.10033090942E+03  0.90622118964E+02 0.  0.
        -13    1    3    3    0    0  0.15029337631E+02 -0.34129663628E+02 -0.50022589445E+02  0.62393704681E+02  0.00000000000E+00 0.  1.
         13    1    3    3    0    0 -0.15029337631E+02  0.34129663628E+02  0.69653840131E+01  0.37937204740E+02  0.00000000000E+00 0. -1.
<mgrwt>
<rscale>  0 0.90622119E+02</rscale>
<asrwt>0</asrwt>
<pdfrwt beam="1">  1        3 0.44056695E-02 0.90622119E+02</pdfrwt>
<pdfrwt beam="2">  1       -3 0.11029855E-01 0.90622119E+02</pdfrwt>
<totfact> 0.35227534E+04</totfact>
</mgrwt>
</event>
<event>
 5    1  0.6308903E+000  0.9057225E+02  0.7546771E-02  0.1301472E+00
          3   -1    0    0  501    0  0.00000000000E+00  0.00000000000E+00  0.15749292919E+02  0.15749292919E+02  0.00000000000E+00 0. -1.
         -3   -1    0    0    0  501 -0.00000000000E+00 -0.00000000000E+00 -0.13021747914E+03  0.13021747914E+03  0.00000000000E+00 0.  1.
         23    2    1    2    0    0  0.00000000000E+00  0.00000000000E+00 -0.11446818622E+03  0.14596677206E+03  0.90572252311E+02 0.  0.
        -13    1    3    3    0    0 -0.26685032782E+02 -0.58832584669E+01 -0.11543358576E+03  0.11862384425E+03  0.00000000000E+00 0.  1.
         13    1    3    3    0    0  0.26685032782E+02  0.58832584669E+01  0.96539953581E+00  0.27342927806E+02  0.00000000000E+00 0. -1.
<mgrwt>
<rscale>  0 0.90572252E+02</rscale>
<asrwt>0</asrwt>
<pdfrwt beam="1">  1        3 0.24229681E-02 0.90572252E+02</pdfrwt>
<pdfrwt beam="2">  1       -3 0.20033459E-01 0.90572252E+02</pdfrwt>
<totfact> 0.32129941E+04</totfact>
</mgrwt>
</event>
<event>
 5    1  0.6308903E+000  0.9166786E+02  0.7546771E-02  0.1298862E+00
          1   -1    0    0  501    0  0.00000000000E+00  0.00000000000E+00  0.37173546885E+03  0.37173546885E+03  0.00000000000E+00 0. -1.
         -1   -1    0    0    0  501 -0.00000000000E+00 -0.00000000000E+00 -0.56511931112E+01  0.56511931112E+01  0.00000000000E+00 0.  1.
         23    2    1    2    0    0  0.00000000000E+00  0.00000000000E+00  0.36608427574E+03  0.37738666196E+03  0.91667855233E+02 0.  0.
        -13    1    3    3    0    0 -0.31594906745E+01 -0.42588472351E+02  0.25155946213E+03  0.25515862389E+03  0.00000000000E+00 0.  1.
         13    1    3    3    0    0  0.31594906745E+01  0.42588472351E+02  0.11452481361E+03  0.12222803807E+03  0.00000000000E+00 0. -1.
<mgrwt>
<rscale>  0 0.91667855E+02</rscale>
<asrwt>0</asrwt>
<pdfrwt beam="1">  1        1 0.57190053E-01 0.91667855E+02</pdfrwt>
<pdfrwt beam="2">  1       -1 0.86941462E-03 0.91667855E+02</pdfrwt>
<totfact> 0.13134300E+05</totfact>
</mgrwt>
</event>
<event>
 5    1  0.6308903E+000  0.9314671E+02  0.7546771E-02  0.1295406E+00
          2   -1    0    0  501    0  0.00000000000E+00  0.00000000000E+00  0.19329238160E+02  0.19329238160E+02  0.00000000000E+00 0. -1.
         -2   -1    0    0    0  501 -0.00000000000E+00 -0.00000000000E+00 -0.11221741857E+03  0.11221741857E+03  0.00000000000E+00 0.  1.
         23    2    1    2    0    0  0.00000000000E+00  0.00000000000E+00 -0.92888180406E+02  0.13154665673E+03  0.93146705990E+02 0.  0.
        -13    1    3    3    0    0  0.25044077053E+02 -0.30563468333E+02 -0.81259643618E+02  0.90357407404E+02  0.00000000000E+00 0.  1.
         13    1    3    3    0    0 -0.25044077053E+02  0.30563468333E+02 -0.11628536789E+02  0.41189249323E+02  0.00000000000E+00 0. -1.
<mgrwt>
<rscale>  0 0.93146706E+02</rscale>
<asrwt>0</asrwt>
<pdfrwt beam="1">  1        2 0.29737290E-02 0.93146706E+02</pdfrwt>
<pdfrwt beam="2">  1       -2 0.17264218E-01 0.93146706E+02</pdfrwt>
<totfact> 0.73028107E+04</totfact>
</mgrwt>
</event>
<event>
 5    1  0.6308903E+000  0.9212851E+02  0.7546771E-02  0.1297778E+00
         -2   -1    0    0    0  501 -0.00000000000E+00  0.00000000000E+00  0.44767361495E+02  0.44767361495E+02  0.00000000000E+00 0.  1.
          2   -1    0    0  501    0  0.00000000000E+00 -0.00000000000E+00 -0.47398718415E+02  0.47398718415E+02  0.00000000000E+00 0. -1.
         23    2    1    2    0    0  0.00000000000E+00  0.00000000000E+00 -0.26313569195E+01  0.92166079910E+02  0.92128509413E+02 0.  0.
        -13    1    3    3    0    0  0.33097103681E+02  0.23686988123E+02 -0.22898161294E+02  0.46699223431E+02  0.00000000000E+00 0. -1.
         13    1    3    3    0    0 -0.33097103681E+02 -0.23686988123E+02  0.20266804375E+02  0.45466856478E+02  0.00000000000E+00 0.  1.
<mgrwt>
<rscale>  0 0.92128509E+02</rscale>
<asrwt>0</asrwt>
<pdfrwt beam="2">  1        2 0.72921105E-02 0.92128509E+02</pdfrwt>
<pdfrwt beam="1">  1       -2 0.68872864E-02 0.92128509E+02</pdfrwt>
<totfact> 0.96753674E+04</totfact>
</mgrwt>
</event>
<event>
 5    1  0.6308903E+000  0.9542462E+02  0.7546771E-02  0.1290223E+00
          3   -1    0    0  501    0  0.00000000000E+00  0.00000000000E+00  0.11859724638E+03  0.11859724638E+03  0.00000000000E+00 0. -1.
         -3   -1    0    0    0  501 -0.00000000000E+00 -0.00000000000E+00 -0.19194917857E+02  0.19194917857E+02  0.00000000000E+00 0.  1.
         23    2    1    2    0    0  0.00000000000E+00  0.00000000000E+00  0.99402328519E+02  0.13779216423E+03  0.95424617417E+02 0.  0.
        -13    1    3    3    0    0  0.38178416320E+02 -0.22253523277E+02  0.75679081930E+02  0.87636374941E+02  0.00000000000E+00 0. -1.
         13    1    3    3    0    0 -0.38178416320E+02  0.22253523277E+02  0.23723246589E+02  0.50155789293E+02  0.00000000000E+00 0.  1.
<mgrwt>
<rscale>  0 0.95424617E+02</rscale>
<asrwt>0</asrwt>
<pdfrwt beam="1">  1        3 0.18245730E-01 0.95424617E+02</pdfrwt>
<pdfrwt beam="2">  1       -3 0.29530644E-02 0.95424617E+02</pdfrwt>
<totfact> 0.28332140E+04</totfact>
</mgrwt>
</event>
<event>
 5    1  0.6308903E+000  0.9197930E+02  0.7546771E-02  0.1298128E+00
         -1   -1    0    0    0  501 -0.00000000000E+00  0.00000000000E+00  0.13246096486E+02  0.13246096486E+02  0.00000000000E+00 0.  1.
          1   -1    0    0  501    0  0.00000000000E+00 -0.00000000000E+00 -0.15967331224E+03  0.15967331224E+03  0.00000000000E+00 0. -1.
         23    2    1    2    0    0  0.00000000000E+00  0.00000000000E+00 -0.14642721575E+03  0.17291940873E+03  0.91979304197E+02 0.  0.
        -13    1    3    3    0    0  0.12130382770E+02  0.39331409773E+02 -0.11178495558E+03  0.11912171202E+03  0.00000000000E+00 0. -1.
         13    1    3    3    0    0 -0.12130382770E+02 -0.39331409773E+02 -0.34642260178E+02  0.53797696708E+02  0.00000000000E+00 0.  1.
<mgrwt>
<rscale>  0 0.91979304E+02</rscale>
<asrwt>0</asrwt>
<pdfrwt beam="2">  1        1 0.24565125E-01 0.91979304E+02</pdfrwt>
<pdfrwt beam="1">  1       -1 0.20378610E-02 0.91979304E+02</pdfrwt>
<totfact> 0.11078689E+05</totfact>
</mgrwt>
</event>
<event>
 5    1  0.6308903E+000  0.9375562E+02  0.7546771E-02  0.1294004E+00
         -2   -1    0    0    0  501 -0.00000000000E+00  0.00000000000E+00  0.18399204950E+03  0.18399204950E+03  0.00000000000E+00 0. -1.
          2   -1    0    0  501    0  0.00000000000E+00 -0.00000000000E+00 -0.11943607839E+02  0.11943607839E+02  0.00000000000E+00 0.  1.
         23    2    1    2    0    0  0.00000000000E+00  0.00000000000E+00  0.17204844167E+03  0.19593565734E+03  0.93755616040E+02 0.  0.
        -13    1    3    3    0    0  0.42610343978E+02  0.18595317334E+02  0.73467400603E+02  0.86941855237E+02  0.00000000000E+00 0.  1.
         13    1    3    3    0    0 -0.42610343978E+02 -0.18595317334E+02  0.98581041063E+02  0.10899380211E+03  0.00000000000E+00 0. -1.
<mgrwt>
<rscale>  0 0.93755616E+02</rscale>
<asrwt>0</asrwt>
<pdfrwt beam="2">  1        2 0.18374783E-02 0.93755616E+02</pdfrwt>
<pdfrwt beam="1">  1       -2 0.28306467E-01 0.93755616E+02</pdfrwt>
<totfact> 0.60119665E+04</totfact>
</mgrwt>
</event>
<event>
 5    1  0.6308903E+000  0.9822932E+02  0.7546771E-02  0.1284064E+00
         -1   -1    0    0    0  501 -0.00000000000E+00  0.00000000000E+00  0.97795039268E+02  0.97795039268E+02  0.00000000000E+00 0.  1.
          1   -1    0    0  501    0  0.00000000000E+00 -0.00000000000E+00 -0.24666383303E+02  0.24666383303E+02  0.00000000000E+00 0. -1.
         23    2    1    2    0    0  0.00000000000E+00  0.00000000000E+00  0.73128655965E+02  0.12246142257E+03  0.98229321970E+02 0.  0.
        -13    1    3    3    0    0  0.10119447208E+02 -0.34964412962E+02 -0.45449779808E+01  0.36682014809E+02  0.00000000000E+00 0. -1.
         13    1    3    3    0    0 -0.10119447208E+02  0.34964412962E+02  0.77673633946E+02  0.85779407762E+02  0.00000000000E+00 0.  1.
<mgrwt>
<rscale>  0 0.98229322E+02</rscale>
<asrwt>0</asrwt>
<pdfrwt beam="2">  1        1 0.37948283E-02 0.98229322E+02</pdfrwt>
<pdfrwt beam="1">  1       -1 0.15045390E-01 0.98229322E+02</pdfrwt>
<totfact> 0.67426423E+04</totfact>
</mgrwt>
</event>
<event>
 5    1  0.6308903E+000  0.8993610E+02  0.7546771E-02  0.1303007E+00
         -2   -1    0    0    0  501 -0.00000000000E+00  0.00000000000E+00  0.11416153729E+03  0.11416153729E+03  0.00000000000E+00 0.  1.
          2   -1    0    0  501    0  0.00000000000E+00 -0.00000000000E+00 -0.17712843428E+02  0.17712843428E+02  0.00000000000E+00 0. -1.
         23    2    1    2    0    0  0.00000000000E+00  0.00000000000E+00  0.96448693860E+02  0.13187438072E+03  0.89936098102E+02 0.  0.
        -13    1    3    3    0    0  0.31896212281E+02 -0.31695006491E+02  0.48852711035E+02  0.66396755717E+02  0.00000000000E+00 0. -1.
         13    1    3    3    0    0 -0.31896212281E+02  0.31695006491E+02  0.47595982825E+02  0.65477624998E+02  0.00000000000E+00 0.  1.
<mgrwt>
<rscale>  0 0.89936098E+02</rscale>
<asrwt>0</asrwt>
<pdfrwt beam="2">  1        2 0.27250529E-02 0.89936098E+02</pdfrwt>
<pdfrwt beam="1">  1       -2 0.17563313E-01 0.89936098E+02</pdfrwt>
<totfact> 0.79300999E+04</totfact>
</mgrwt>
</event>
<event>
 5    1  0.6308903E+000  0.9249059E+02  0.7546771E-02  0.1296930E+00
         -2   -1    0    0    0  501 -0.00000000000E+00  0.00000000000E+00  0.89243832161E+02  0.89243832161E+02  0.00000000000E+00 0.  1.
          2   -1    0    0  501    0  0.00000000000E+00 -0.00000000000E+00 -0.23963865970E+02  0.23963865970E+02  0.00000000000E+00 0. -1.
         23    2    1    2    0    0  0.00000000000E+00  0.00000000000E+00  0.65279966191E+02  0.11320769813E+03  0.92490588332E+02 0.  0.
        -13    1    3    3    0    0  0.15181904203E+02 -0.24069632254E+02  0.77257619919E+02  0.82332115530E+02  0.00000000000E+00 0.  1.
         13    1    3    3    0    0 -0.15181904203E+02  0.24069632254E+02 -0.11977653728E+02  0.30875582600E+02  0.00000000000E+00 0. -1.
<mgrwt>
<rscale>  0 0.92490588E+02</rscale>
<asrwt>0</asrwt>
<pdfrwt beam="2">  1        2 0.36867487E-02 0.92490588E+02</pdfrwt>
<pdfrwt beam="1">  1       -2 0.13729820E-01 0.92490588E+02</pdfrwt>
<totfact> 0.79633602E+04</totfact>
</mgrwt>
</event>
<event>
 5    1  0.6308903E+000  0.9091725E+02  0.7546771E-02  0.1300646E+00
          2   -1    0    0  501    0  0.00000000000E+00  0.00000000000E+00  0.33024644370E+02  0.33024644370E+02  0.00000000000E+00 0. -1.
         -2   -1    0    0    0  501 -0.00000000000E+00 -0.00000000000E+00 -0.62574078450E+02  0.62574078450E+02  0.00000000000E+00 0.  1.
         23    2    1    2    0    0  0.00000000000E+00  0.00000000000E+00 -0.29549434080E+02  0.95598722820E+02  0.90917252215E+02 0.  0.
        -13    1    3    3    0    0 -0.12521661970E+02 -0.31927203788E+01 -0.60602154710E+02  0.61964559527E+02  0.00000000000E+00 0.  1.
         13    1    3    3    0    0  0.12521661970E+02  0.31927203788E+01  0.31052720629E+02  0.33634163293E+02  0.00000000000E+00 0. -1.
<mgrwt>
<rscale>  0 0.90917252E+02</rscale>
<asrwt>0</asrwt>
<pdfrwt beam="1">  1        2 0.50807146E-02 0.90917252E+02</pdfrwt>
<pdfrwt beam="2">  1       -2 0.96267812E-02 0.90917252E+02</pdfrwt>
<totfact> 0.91509990E+04</totfact>
</mgrwt>
</event>
<event>
 5    1  0.6308903E+000  0.9108254E+02  0.7546771E-02  0.1300251E+00
          1   -1    0    0  501    0  0.00000000000E+00  0.00000000000E+00  0.20395002057E+03  0.20395002057E+03  0.00000000000E+00 0. -1.
         -1   -1    0    0    0  501 -0.00000000000E+00 -0.00000000000E+00 -0.10169194423E+02  0.10169194423E+02  0.00000000000E+00 0.  1.
         23    2    1    2    0    0  0.00000000000E+00  0.00000000000E+00  0.19378082615E+03  0.21411921499E+03  0.91082543040E+02 0.  0.
        -13    1    3    3    0    0  0.25882127862E+02 -0.14288971892E+02  0.15457169174E+02  0.33361404935E+02  0.00000000000E+00 0.  1.
         13    1    3    3    0    0 -0.25882127862E+02  0.14288971892E+02  0.17832365697E+03  0.18075781006E+03  0.00000000000E+00 0. -1.
<mgrwt>
<rscale>  0 0.91082543E+02</rscale>
<asrwt>0</asrwt>
<pdfrwt beam="1">  1        1 0.31376923E-01 0.91082543E+02</pdfrwt>
<pdfrwt beam="2">  1       -1 0.15644916E-02 0.91082543E+02</pdfrwt>
<totfact> 0.11918681E+05</totfact>
</mgrwt>
</event>
<event>
 5    1  0.6308903E+000  0.8835308E+02  0.7546771E-02  0.1306890E+00
         -3   -1    0    0    0  501 -0.00000000000E+00  0.00000000000E+00  0.48406313661E+02  0.48406313661E+02  0.00000000000E+00 0.  1.
          3   -1    0    0  501    0  0.00000000000E+00 -0.00000000000E+00 -0.40316368158E+02  0.40316368158E+02  0.00000000000E+00 0. -1.
         23    2    1    2    0    0  0.00000000000E+00  0.00000000000E+00  0.80899455033E+01  0.88722681820E+02  0.88353081729E+02 0.  0.
        -13    1    3    3    0    0  0.13325408525E+02 -0.15974937989E+02 -0.35089860035E+02  0.40792933621E+02  0.00000000000E+00 0. -1.
         13    1    3    3    0    0 -0.13325408525E+02  0.15974937989E+02  0.43179805538E+02  0.47929748199E+02  0.00000000000E+00 0.  1.
<mgrwt>
<rscale>  0 0.88353082E+02</rscale>
<asrwt>0</asrwt>
<pdfrwt beam="2">  1        3 0.62025182E-02 0.88353082E+02</pdfrwt>
<pdfrwt beam="1">  1       -3 0.74471252E-02 0.88353082E+02</pdfrwt>
<totfact> 0.38698791E+04</totfact>
</mgrwt>
</event>
<event>
 5    1  0.6308903E+000  0.9160408E+02  0.7546771E-02  0.1299013E+00
         -2   -1    0    0    0  501 -0.00000000000E+00  0.00000000000E+00  0.88606031412E+01  0.88606031412E+01  0.00000000000E+00 0.  1.
          2   -1    0    0  501    0  0.00000000000E+00 -0.00000000000E+00 -0.23675893484E+03  0.23675893484E+03  0.00000000000E+00 0. -1.
         23    2    1    2    0    0  0.00000000000E+00  0.00000000000E+00 -0.22789833170E+03  0.24561953798E+03  0.91604082043E+02 0.  0.
        -13    1    3    3    0    0 -0.39821896056E+02 -0.20630376552E+02 -0.13887691996E+03  0.14593901035E+03  0.00000000000E+00 0. -1.
         13    1    3    3    0    0  0.39821896056E+02  0.20630376552E+02 -0.89021411732E+02  0.99680527631E+02  0.00000000000E+00 0.  1.
<mgrwt>
<rscale>  0 0.91604082E+02</rscale>
<asrwt>0</asrwt>
<pdfrwt beam="2">  1        2 0.36424454E-01 0.91604082E+02</pdfrwt>
<pdfrwt beam="1">  1       -2 0.13631696E-02 0.91604082E+02</pdfrwt>
<totfact> 0.16246837E+05</totfact>
</mgrwt>
</event>
<event>
 5    1  0.6308903E+000  0.9100393E+02  0.7546771E-02  0.1300439E+00
         -2   -1    0    0    0  501 -0.00000000000E+00  0.00000000000E+00  0.11710613646E+03  0.11710613646E+03  0.00000000000E+00 0.  1.
          2   -1    0    0  501    0  0.00000000000E+00 -0.00000000000E+00 -0.17679933410E+02  0.17679933410E+02  0.00000000000E+00 0. -1.
         23    2    1    2    0    0  0.00000000000E+00  0.00000000000E+00  0.99426203050E+02  0.13478606987E+03  0.91003927269E+02 0.  0.
        -13    1    3    3    0    0  0.17063232441E+02 -0.42115008895E+02  0.46207918940E+02  0.64807404271E+02  0.00000000000E+00 0. -1.
         13    1    3    3    0    0 -0.17063232441E+02  0.42115008895E+02  0.53218284110E+02  0.69978665600E+02  0.00000000000E+00 0.  1.
<mgrwt>
<rscale>  0 0.91003927E+02</rscale>
<asrwt>0</asrwt>
<pdfrwt beam="2">  1        2 0.27199898E-02 0.91003927E+02</pdfrwt>
<pdfrwt beam="1">  1       -2 0.18016328E-01 0.91003927E+02</pdfrwt>
<totfact> 0.76373736E+04</totfact>
</mgrwt>
</event>
<event>
 5    1  0.6308903E+000  0.9196356E+02  0.7546771E-02  0.1298165E+00
         -1   -1    0    0    0  501 -0.00000000000E+00  0.00000000000E+00  0.10681247278E+02  0.10681247278E+02  0.00000000000E+00 0.  1.
          1   -1    0    0  501    0  0.00000000000E+00 -0.00000000000E+00 -0.19794728539E+03  0.19794728539E+03  0.00000000000E+00 0. -1.
         23    2    1    2    0    0  0.00000000000E+00  0.00000000000E+00 -0.18726603812E+03  0.20862853267E+03  0.91963555898E+02 0.  0.
        -13    1    3    3    0    0 -0.22069763361E+02  0.39313498389E+02 -0.73127798778E+02  0.85908675723E+02  0.00000000000E+00 0.  1.
         13    1    3    3    0    0  0.22069763361E+02 -0.39313498389E+02 -0.11413823934E+03  0.12271985695E+03  0.00000000000E+00 0. -1.
<mgrwt>
<rscale>  0 0.91963556E+02</rscale>
<asrwt>0</asrwt>
<pdfrwt beam="2">  1        1 0.30453429E-01 0.91963556E+02</pdfrwt>
<pdfrwt beam="1">  1       -1 0.16432688E-02 0.91963556E+02</pdfrwt>
<totfact> 0.11547402E+05</totfact>
</mgrwt>
</event>
<event>
 5    1  0.6308903E+000  0.9176648E+02  0.7546771E-02  0.1298629E+00
         -1   -1    0    0    0  501 -0.00000000000E+00  0.00000000000E+00  0.28695373333E+02  0.28695373333E+02  0.00000000000E+00 0.  1.
          1   -1    0    0  501    0  0.00000000000E+00 -0.00000000000E+00 -0.73366239854E+02  0.73366239854E+02  0.00000000000E+00 0. -1.
         23    2    1    2    0    0  0.00000000000E+00  0.00000000000E+00 -0.44670866521E+02  0.10206161319E+03  0.91766478469E+02 0.  0.
        -13    1    3    3    0    0 -0.27947817104E+00  0.43159060540E+02 -0.50163695917E+01  0.43450507231E+02  0.00000000000E+00 0.  1.
         13    1    3    3    0    0  0.27947817104E+00 -0.43159060540E+02 -0.39654496929E+02  0.58611105956E+02  0.00000000000E+00 0. -1.
<mgrwt>
<rscale>  0 0.91766478E+02</rscale>
<asrwt>0</asrwt>
<pdfrwt beam="2">  1        1 0.11287114E-01 0.91766478E+02</pdfrwt>
<pdfrwt beam="1">  1       -1 0.44146729E-02 0.91766478E+02</pdfrwt>
<totfact> 0.97636687E+04</totfact>
</mgrwt>
</event>
<event>
 5    1  0.6308903E+000  0.9243925E+02  0.7546771E-02  0.1297050E+00
          1   -1    0    0  501    0  0.00000000000E+00  0.00000000000E+00  0.29027513736E+03  0.29027513736E+03  0.00000000000E+00 0. -1.
         -1   -1    0    0    0  501 -0.00000000000E+00 -0.00000000000E+00 -0.73594101168E+01  0.73594101168E+01  0.00000000000E+00 0.  1.
         23    2    1    2    0    0  0.00000000000E+00  0.00000000000E+00  0.28291572724E+03  0.29763454747E+03  0.92439251025E+02 0.  0.
        -13    1    3    3    0    0  0.40540931068E+02  0.80743988784E+00  0.21287867861E+03  0.21670613941E+03  0.00000000000E+00 0.  1.
         13    1    3    3    0    0 -0.40540931068E+02 -0.80743988784E+00  0.70037048629E+02  0.80928408063E+02  0.00000000000E+00 0. -1.
<mgrwt>
<rscale>  0 0.92439251E+02</rscale>
<asrwt>0</asrwt>
<pdfrwt beam="1">  1        1 0.44657705E-01 0.92439251E+02</pdfrwt>
<pdfrwt beam="2">  1       -1 0.11322172E-02 0.92439251E+02</pdfrwt>
<totfact> 0.12272754E+05</totfact>
</mgrwt>
</event>
<event>
 5    1  0.6308903E+000  0.8950436E+02  0.7546771E-02  0.1304056E+00
         -2   -1    0    0    0  501 -0.00000000000E+00  0.00000000000E+00  0.11023748161E+03  0.11023748161E+03  0.00000000000E+00 0.  1.
          2   -1    0    0  501    0  0.00000000000E+00 -0.00000000000E+00 -0.18167664892E+02  0.18167664892E+02  0.00000000000E+00 0. -1.
         23    2    1    2    0    0  0.00000000000E+00  0.00000000000E+00  0.92069816720E+02  0.12840514650E+03  0.89504360217E+02 0.  0.
        -13    1    3    3    0    0  0.34150297089E+02 -0.15956636980E+02  0.11428013839E+02  0.39388533297E+02  0.00000000000E+00 0.  1.
         13    1    3    3    0    0 -0.34150297089E+02  0.15956636980E+02  0.80641802881E+02  0.89016613207E+02  0.00000000000E+00 0. -1.
<mgrwt>
<rscale>  0 0.89504360E+02</rscale>
<asrwt>0</asrwt>
<pdfrwt beam="2">  1        2 0.27950255E-02 0.89504360E+02</pdfrwt>
<pdfrwt beam="1">  1       -2 0.16959612E-01 0.89504360E+02</pdfrwt>
<totfact> 0.81140120E+04</totfact>
</mgrwt>
</event>
<event>
 5    1  0.6308903E+000  0.9095858E+02  0.7546771E-02  0.1300547E+00
         -2   -1    0    0    0  501 -0.00000000000E+00  0.00000000000E+00  0.41637994159E+02  0.41637994159E+02  0.00000000000E+00 0.  1.
          2   -1    0    0  501    0  0.00000000000E+00 -0.00000000000E+00 -0.49674958365E+02  0.49674958365E+02  0.00000000000E+00 0. -1.
         23    2    1    2    0    0  0.00000000000E+00  0.00000000000E+00 -0.80369642059E+01  0.91312952524E+02  0.90958575764E+02 0.  0.
        -13    1    3    3    0    0 -0.24222395338E+02  0.37119340032E+02  0.62092323612E+01  0.44756277848E+02  0.00000000000E+00 0.  1.
         13    1    3    3    0    0  0.24222395338E+02 -0.37119340032E+02 -0.14246196567E+02  0.46556674676E+02  0.00000000000E+00 0. -1.
<mgrwt>
<rscale>  0 0.90958576E+02</rscale>
<asrwt>0</asrwt>
<pdfrwt beam="2">  1        2 0.76423013E-02 0.90958576E+02</pdfrwt>
<pdfrwt beam="1">  1       -2 0.64058453E-02 0.90958576E+02</pdfrwt>
<totfact> 0.10159748E+05</totfact>
</mgrwt>
</event>
<event>
 5    1  0.6308903E+000  0.8958087E+02  0.7546771E-02  0.1303870E+00
         -2   -1    0    0    0  501 -0.00000000000E+00  0.00000000000E+00  0.14243840808E+02  0.14243840808E+02  0.00000000000E+00 0. -1.
          2   -1    0    0  501    0  0.00000000000E+00 -0.00000000000E+00 -0.14084563901E+03  0.14084563901E+03  0.00000000000E+00 0.  1.
         23    2    1    2    0    0  0.00000000000E+00  0.00000000000E+00 -0.12660179820E+03  0.15508947982E+03  0.89580865379E+02 0.  0.
        -13    1    3    3    0    0 -0.17081162427E+02  0.32853099788E+02 -0.10693086997E+03  0.11316051974E+03  0.00000000000E+00 0.  1.
         13    1    3    3    0    0  0.17081162427E+02 -0.32853099788E+02 -0.19670928229E+02  0.41928960074E+02  0.00000000000E+00 0. -1.
<mgrwt>
<rscale>  0 0.89580865E+02</rscale>
<asrwt>0</asrwt>
<pdfrwt beam="2">  1        2 0.21668559E-01 0.89580865E+02</pdfrwt>
<pdfrwt beam="1">  1       -2 0.21913602E-02 0.89580865E+02</pdfrwt>
<totfact> 0.14358950E+05</totfact>
</mgrwt>
</event>
<event>
 5    1  0.6308903E+000  0.9222904E+02  0.7546771E-02  0.1297542E+00
          1   -1    0    0  501    0  0.00000000000E+00  0.00000000000E+00  0.18512230863E+02  0.18512230863E+02  0.00000000000E+00 0. -1.
         -1   -1    0    0    0  501 -0.00000000000E+00 -0.00000000000E+00 -0.11487264092E+03  0.11487264092E+03  0.00000000000E+00 0.  1.
         23    2    1    2    0    0  0.00000000000E+00  0.00000000000E+00 -0.96360410052E+02  0.13338487178E+03  0.92229037694E+02 0.  0.
        -13    1    3    3    0    0 -0.44190142357E+02  0.82984026204E+01 -0.33366586052E+02  0.55990724521E+02  0.00000000000E+00 0.  1.
         13    1    3    3    0    0  0.44190142357E+02 -0.82984026204E+01 -0.62993824000E+02  0.77394147257E+02  0.00000000000E+00 0. -1.
<mgrwt>
<rscale>  0 0.92229038E+02</rscale>
<asrwt>0</asrwt>
<pdfrwt beam="1">  1        1 0.28480355E-02 0.92229038E+02</pdfrwt>
<pdfrwt beam="2">  1       -1 0.17672714E-01 0.92229038E+02</pdfrwt>
<totfact> 0.76910415E+04</totfact>
</mgrwt>
</event>
<event>
 5    1  0.6308903E+000  0.9092669E+02  0.7546771E-02  0.1300623E+00
          2   -1    0    0  501    0  0.00000000000E+00  0.00000000000E+00  0.20595067583E+03  0.20595067583E+03  0.00000000000E+00 0. -1.
         -2   -1    0    0    0  501 -0.00000000000E+00 -0.00000000000E+00 -0.10035975188E+02  0.10035975188E+02  0.00000000000E+00 0.  1.
         23    2    1    2    0    0  0.00000000000E+00  0.00000000000E+00  0.19591470064E+03  0.21598665102E+03  0.90926692948E+02 0.  0.
        -13    1    3    3    0    0 -0.38431331186E+02  0.22482629958E+02  0.11979030348E+03  0.12779731090E+03  0.00000000000E+00 0. -1.
         13    1    3    3    0    0  0.38431331186E+02 -0.22482629958E+02  0.76124397163E+02  0.88189340115E+02  0.00000000000E+00 0.  1.
<mgrwt>
<rscale>  0 0.90926693E+02</rscale>
<asrwt>0</asrwt>
<pdfrwt beam="1">  1        2 0.31684716E-01 0.90926693E+02</pdfrwt>
<pdfrwt beam="2">  1       -2 0.15439963E-02 0.90926693E+02</pdfrwt>
<totfact> 0.15749164E+05</totfact>
</mgrwt>
</event>
<event>
 5    1  0.6308903E+000  0.9413274E+02  0.7546771E-02  0.1293141E+00
          1   -1    0    0  501    0  0.00000000000E+00  0.00000000000E+00  0.15897321341E+03  0.15897321341E+03  0.00000000000E+00 0. -1.
         -1   -1    0    0    0  501 -0.00000000000E+00 -0.00000000000E+00 -0.13934694622E+02  0.13934694622E+02  0.00000000000E+00 0.  1.
         23    2    1    2    0    0  0.00000000000E+00  0.00000000000E+00  0.14503851878E+03  0.17290790803E+03  0.94132739933E+02 0.  0.
        -13    1    3    3    0    0 -0.42145630468E+02  0.82460726979E+00  0.34063236377E+02  0.54196293390E+02  0.00000000000E+00 0.  1.
         13    1    3    3    0    0  0.42145630468E+02 -0.82460726979E+00  0.11097528241E+03  0.11871161464E+03  0.00000000000E+00 0. -1.
<mgrwt>
<rscale>  0 0.94132740E+02</rscale>
<asrwt>0</asrwt>
<pdfrwt beam="1">  1        1 0.24457416E-01 0.94132740E+02</pdfrwt>
<pdfrwt beam="2">  1       -1 0.21437993E-02 0.94132740E+02</pdfrwt>
<totfact> 0.10398433E+05</totfact>
</mgrwt>
</event>
<event>
 5    1  0.6308903E+000  0.9088784E+02  0.7546771E-02  0.1300716E+00
         -1   -1    0    0    0  501 -0.00000000000E+00  0.00000000000E+00  0.26840009676E+02  0.26840009676E+02  0.00000000000E+00 0.  1.
          1   -1    0    0  501    0  0.00000000000E+00 -0.00000000000E+00 -0.76942968603E+02  0.76942968603E+02  0.00000000000E+00 0. -1.
         23    2    1    2    0    0  0.00000000000E+00  0.00000000000E+00 -0.50102958927E+02  0.10378297828E+03  0.90887843452E+02 0.  0.
        -13    1    3    3    0    0 -0.37430274003E+02 -0.10234757589E+02  0.19552257259E+01  0.38853553022E+02  0.00000000000E+00 0.  1.
         13    1    3    3    0    0  0.37430274003E+02  0.10234757589E+02 -0.52058184653E+02  0.64929425257E+02  0.00000000000E+00 0. -1.
<mgrwt>
<rscale>  0 0.90887843E+02</rscale>
<asrwt>0</asrwt>
<pdfrwt beam="2">  1        1 0.11837380E-01 0.90887843E+02</pdfrwt>
<pdfrwt beam="1">  1       -1 0.41292324E-02 0.90887843E+02</pdfrwt>
<totfact> 0.10100614E+05</totfact>
</mgrwt>
</event>
<event>
 5    1  0.6308903E+000  0.9092419E+02  0.7546771E-02  0.1300629E+00
          1   -1    0    0  501    0  0.00000000000E+00  0.00000000000E+00  0.53690244758E+01  0.53690244758E+01  0.00000000000E+00 0. -1.
         -1   -1    0    0    0  501 -0.00000000000E+00 -0.00000000000E+00 -0.38494927775E+03  0.38494927775E+03  0.00000000000E+00 0.  1.
         23    2    1    2    0    0  0.00000000000E+00  0.00000000000E+00 -0.37958025328E+03  0.39031830223E+03  0.90924190272E+02 0.  0.
        -13    1    3    3    0    0  0.63608330439E+01 -0.42642280042E+02 -0.25169830371E+03  0.25536417198E+03  0.00000000000E+00 0.  1.
         13    1    3    3    0    0 -0.63608330439E+01  0.42642280042E+02 -0.12788194957E+03  0.13495413024E+03  0.00000000000E+00 0. -1.
<mgrwt>
<rscale>  0 0.90924190E+02</rscale>
<asrwt>0</asrwt>
<pdfrwt beam="1">  1        1 0.82600354E-03 0.90924190E+02</pdfrwt>
<pdfrwt beam="2">  1       -1 0.59222982E-01 0.90924190E+02</pdfrwt>
<totfact> 0.54711040E+04</totfact>
</mgrwt>
</event>
<event>
 5    1  0.6308903E+000  0.9027005E+02  0.7546771E-02  0.1302199E+00
          2   -1    0    0  501    0  0.00000000000E+00  0.00000000000E+00  0.59622144273E+02  0.59622144273E+02  0.00000000000E+00 0. -1.
         -2   -1    0    0    0  501 -0.00000000000E+00 -0.00000000000E+00 -0.34168016329E+02  0.34168016329E+02  0.00000000000E+00 0.  1.
         23    2    1    2    0    0  0.00000000000E+00  0.00000000000E+00  0.25454127944E+02  0.93790160601E+02  0.90270048168E+02 0.  0.
        -13    1    3    3    0    0 -0.13871790524E+02  0.33527030082E+02  0.40619437155E+02  0.54464915250E+02  0.00000000000E+00 0. -1.
         13    1    3    3    0    0  0.13871790524E+02 -0.33527030082E+02 -0.15165309211E+02  0.39325245351E+02  0.00000000000E+00 0.  1.
<mgrwt>
<rscale>  0 0.90270048E+02</rscale>
<asrwt>0</asrwt>
<pdfrwt beam="1">  1        2 0.91726376E-02 0.90270048E+02</pdfrwt>
<pdfrwt beam="2">  1       -2 0.52566179E-02 0.90270048E+02</pdfrwt>
<totfact> 0.10891387E+05</totfact>
</mgrwt>
</event>
<event>
 5    1  0.6308903E+000  0.9184821E+02  0.7546771E-02  0.1298437E+00
          2   -1    0    0  501    0  0.00000000000E+00  0.00000000000E+00  0.90895566661E+02  0.90895566661E+02  0.00000000000E+00 0. -1.
         -2   -1    0    0    0  501 -0.00000000000E+00 -0.00000000000E+00 -0.23202708626E+02  0.23202708626E+02  0.00000000000E+00 0.  1.
         23    2    1    2    0    0  0.00000000000E+00  0.00000000000E+00  0.67692858035E+02  0.11409827529E+03  0.91848208444E+02 0.  0.
        -13    1    3    3    0    0 -0.40248158180E+02  0.10262211040E+01  0.64026944522E+01  0.40767166481E+02  0.00000000000E+00 0.  1.
         13    1    3    3    0    0  0.40248158180E+02 -0.10262211040E+01  0.61290163583E+02  0.73331108806E+02  0.00000000000E+00 0. -1.
<mgrwt>
<rscale>  0 0.91848208E+02</rscale>
<asrwt>0</asrwt>
<pdfrwt beam="1">  1        2 0.13983933E-01 0.91848208E+02</pdfrwt>
<pdfrwt beam="2">  1       -2 0.35696475E-02 0.91848208E+02</pdfrwt>
<totfact> 0.11681113E+05</totfact>
</mgrwt>
</event>
<event>
 5    1  0.6308903E+000  0.8991953E+02  0.7546771E-02  0.1303047E+00
         -1   -1    0    0    0  501 -0.00000000000E+00  0.00000000000E+00  0.10161421475E+03  0.10161421475E+03  0.00000000000E+00 0.  1.
          1   -1    0    0  501    0  0.00000000000E+00 -0.00000000000E+00 -0.19892693078E+02  0.19892693078E+02  0.00000000000E+00 0. -1.
         23    2    1    2    0    0  0.00000000000E+00  0.00000000000E+00  0.81721521671E+02  0.12150690783E+03  0.89919528166E+02 0.  0.
        -13    1    3    3    0    0  0.61310542242E+01  0.44461049015E+02  0.44437375291E+02  0.63158966333E+02  0.00000000000E+00 0.  1.
         13    1    3    3    0    0 -0.61310542242E+01 -0.44461049015E+02  0.37284146380E+02  0.58347941495E+02  0.00000000000E+00 0. -1.
<mgrwt>
<rscale>  0 0.89919528E+02</rscale>
<asrwt>0</asrwt>
<pdfrwt beam="2">  1        1 0.30604144E-02 0.89919528E+02</pdfrwt>
<pdfrwt beam="1">  1       -1 0.15632956E-01 0.89919528E+02</pdfrwt>
<totfact> 0.84079205E+04</totfact>
</mgrwt>
</event>
<event>
 5    1  0.6308903E+000  0.1013431E+03  0.7546771E-02  0.1277497E+00
         -1   -1    0    0    0  501 -0.00000000000E+00  0.00000000000E+00  0.11334838190E+02  0.11334838190E+02  0.00000000000E+00 0.  1.
          1   -1    0    0  501    0  0.00000000000E+00 -0.00000000000E+00 -0.22652343706E+03  0.22652343706E+03  0.00000000000E+00 0. -1.
         23    2    1    2    0    0  0.00000000000E+00  0.00000000000E+00 -0.21518859887E+03  0.23785827525E+03  0.10134311038E+03 0.  0.
        -13    1    3    3    0    0 -0.54287957119E+01  0.50063288871E+02 -0.94358510934E+02  0.10695481897E+03  0.00000000000E+00 0.  1.
         13    1    3    3    0    0  0.54287957119E+01 -0.50063288871E+02 -0.12083008794E+03  0.13090345628E+03  0.00000000000E+00 0. -1.
<mgrwt>
<rscale>  0 0.10134311E+03</rscale>
<asrwt>0</asrwt>
<pdfrwt beam="2">  1        1 0.34849755E-01 0.10134311E+03</pdfrwt>
<pdfrwt beam="1">  1       -1 0.17438215E-02 0.10134311E+03</pdfrwt>
<totfact> 0.91261657E+04</totfact>
</mgrwt>
</event>
<event>
 5    1  0.6308903E+000  0.9007204E+02  0.7546771E-02  0.1302677E+00
         -4   -1    0    0    0  501 -0.00000000000E+00  0.00000000000E+00  0.40167320175E+02  0.40167320175E+02  0.00000000000E+00 0.  1.
          4   -1    0    0  501    0  0.00000000000E+00 -0.00000000000E+00 -0.50494861444E+02  0.50494861444E+02  0.00000000000E+00 0. -1.
         23    2    1    2    0    0  0.00000000000E+00  0.00000000000E+00 -0.10327541269E+02  0.90662181618E+02  0.90072043760E+02 0.  0.
        -13    1    3    3    0    0  0.10283156732E+02 -0.40006013622E+02  0.12898684487E+02  0.43273554278E+02  0.00000000000E+00 0.  1.
         13    1    3    3    0    0 -0.10283156732E+02  0.40006013622E+02 -0.23226225756E+02  0.47388627340E+02  0.00000000000E+00 0. -1.
<mgrwt>
<rscale>  0 0.90072044E+02</rscale>
<asrwt>0</asrwt>
<pdfrwt beam="2">  1        4 0.77684402E-02 0.90072044E+02</pdfrwt>
<pdfrwt beam="1">  1       -4 0.61795878E-02 0.90072044E+02</pdfrwt>
<totfact> 0.27957807E+04</totfact>
</mgrwt>
</event>
<event>
 5    1  0.6308903E+000  0.8289657E+02  0.7546771E-02  0.1321027E+00
         -2   -1    0    0    0  501 -0.00000000000E+00  0.00000000000E+00  0.12556500109E+03  0.12556500109E+03  0.00000000000E+00 0.  1.
          2   -1    0    0  501    0  0.00000000000E+00 -0.00000000000E+00 -0.13681842217E+02  0.13681842217E+02  0.00000000000E+00 0. -1.
         23    2    1    2    0    0  0.00000000000E+00  0.00000000000E+00  0.11188315888E+03  0.13924684331E+03  0.82896574911E+02 0.  0.
        -13    1    3    3    0    0 -0.25811042781E+02 -0.12582942837E+02  0.10615000975E+03  0.10996528975E+03  0.00000000000E+00 0.  1.
         13    1    3    3    0    0  0.25811042781E+02  0.12582942837E+02  0.57331491237E+01  0.29281553558E+02  0.00000000000E+00 0. -1.
<mgrwt>
<rscale>  0 0.82896575E+02</rscale>
<asrwt>0</asrwt>
<pdfrwt beam="2">  1        2 0.21048989E-02 0.82896575E+02</pdfrwt>
<pdfrwt beam="1">  1       -2 0.19317692E-01 0.82896575E+02</pdfrwt>
<totfact> 0.94384592E+04</totfact>
</mgrwt>
</event>
<event>
 5    1  0.6308903E+000  0.9126871E+02  0.7546771E-02  0.1299808E+00
          4   -1    0    0  501    0  0.00000000000E+00  0.00000000000E+00  0.26210776296E+02  0.26210776296E+02  0.00000000000E+00 0. -1.
         -4   -1    0    0    0  501 -0.00000000000E+00 -0.00000000000E+00 -0.79451835219E+02  0.79451835219E+02  0.00000000000E+00 0.  1.
         23    2    1    2    0    0  0.00000000000E+00  0.00000000000E+00 -0.53241058923E+02  0.10566261151E+03  0.91268708311E+02 0.  0.
        -13    1    3    3    0    0 -0.21975349678E+02  0.13704448039E+02 -0.70119687940E+02  0.74749572081E+02  0.00000000000E+00 0.  1.
         13    1    3    3    0    0  0.21975349678E+02 -0.13704448039E+02  0.16878629017E+02  0.30913039434E+02  0.00000000000E+00 0. -1.
<mgrwt>
<rscale>  0 0.91268708E+02</rscale>
<asrwt>0</asrwt>
<pdfrwt beam="1">  1        4 0.40324272E-02 0.91268708E+02</pdfrwt>
<pdfrwt beam="2">  1       -4 0.12223359E-01 0.91268708E+02</pdfrwt>
<totfact> 0.26040928E+04</totfact>
</mgrwt>
</event>
<event>
 5    1  0.6308903E+000  0.7382712E+02  0.7546771E-02  0.1347542E+00
          1   -1    0    0  501    0  0.00000000000E+00  0.00000000000E+00  0.74284103806E+02  0.74284103806E+02  0.00000000000E+00 0. -1.
         -1   -1    0    0    0  501 -0.00000000000E+00 -0.00000000000E+00 -0.18343238880E+02  0.18343238880E+02  0.00000000000E+00 0.  1.
         23    2    1    2    0    0  0.00000000000E+00  0.00000000000E+00  0.55940864926E+02  0.92627342686E+02  0.73827124043E+02 0.  0.
        -13    1    3    3    0    0  0.12885883163E+02 -0.12019744793E+02 -0.12725393581E+02  0.21736050505E+02  0.00000000000E+00 0.  1.
         13    1    3    3    0    0 -0.12885883163E+02  0.12019744793E+02  0.68666258506E+02  0.70891292181E+02  0.00000000000E+00 0. -1.
<mgrwt>
<rscale>  0 0.73827124E+02</rscale>
<asrwt>0</asrwt>
<pdfrwt beam="1">  1        1 0.11428324E-01 0.73827124E+02</pdfrwt>
<pdfrwt beam="2">  1       -1 0.28220368E-02 0.73827124E+02</pdfrwt>
<totfact> 0.17646401E+05</totfact>
</mgrwt>
</event>
<event>
 5    1  0.6308903E+000  0.8890361E+02  0.7546771E-02  0.1305529E+00
          2   -1    0    0  501    0  0.00000000000E+00  0.00000000000E+00  0.77557876151E+02  0.77557876151E+02  0.00000000000E+00 0. -1.
         -2   -1    0    0    0  501 -0.00000000000E+00 -0.00000000000E+00 -0.25477272029E+02  0.25477272029E+02  0.00000000000E+00 0.  1.
         23    2    1    2    0    0  0.00000000000E+00  0.00000000000E+00  0.52080604123E+02  0.10303514818E+03  0.88903613170E+02 0.  0.
        -13    1    3    3    0    0 -0.11382041518E+02 -0.51169570552E+01  0.75486055827E+02  0.76510644639E+02  0.00000000000E+00 0. -1.
         13    1    3    3    0    0  0.11382041518E+02  0.51169570552E+01 -0.23405451705E+02  0.26524503541E+02  0.00000000000E+00 0.  1.
<mgrwt>
<rscale>  0 0.88903613E+02</rscale>
<asrwt>0</asrwt>
<pdfrwt beam="1">  1        2 0.11931981E-01 0.88903613E+02</pdfrwt>
<pdfrwt beam="2">  1       -2 0.39195804E-02 0.88903613E+02</pdfrwt>
<totfact> 0.12210925E+05</totfact>
</mgrwt>
</event>
<event>
 5    1  0.6308903E+000  0.9162279E+02  0.7546771E-02  0.1298969E+00
         -2   -1    0    0    0  501 -0.00000000000E+00  0.00000000000E+00  0.58323803296E+01  0.58323803296E+01  0.00000000000E+00 0.  1.
          2   -1    0    0  501    0  0.00000000000E+00 -0.00000000000E+00 -0.35983315773E+03  0.35983315773E+03  0.00000000000E+00 0. -1.
         23    2    1    2    0    0  0.00000000000E+00  0.00000000000E+00 -0.35400077740E+03  0.36566553806E+03  0.91622788238E+02 0.  0.
        -13    1    3    3    0    0 -0.39327761135E+02  0.21717228962E+02 -0.14122077709E+03  0.14819452997E+03  0.00000000000E+00 0.  1.
         13    1    3    3    0    0  0.39327761135E+02 -0.21717228962E+02 -0.21278000031E+03  0.21747100810E+03  0.00000000000E+00 0. -1.
<mgrwt>
<rscale>  0 0.91622788E+02</rscale>
<asrwt>0</asrwt>
<pdfrwt beam="2">  1        2 0.55358954E-01 0.91622788E+02</pdfrwt>
<pdfrwt beam="1">  1       -2 0.89728917E-03 0.91622788E+02</pdfrwt>
<totfact> 0.18965187E+05</totfact>
</mgrwt>
</event>
<event>
 5    1  0.6308903E+000  0.9092506E+02  0.7546771E-02  0.1300627E+00
          1   -1    0    0  501    0  0.00000000000E+00  0.00000000000E+00  0.15215793775E+02  0.15215793775E+02  0.00000000000E+00 0. -1.
         -1   -1    0    0    0  501 -0.00000000000E+00 -0.00000000000E+00 -0.13583528673E+03  0.13583528673E+03  0.00000000000E+00 0.  1.
         23    2    1    2    0    0  0.00000000000E+00  0.00000000000E+00 -0.12061949296E+03  0.15105108051E+03  0.90925061678E+02 0.  0.
        -13    1    3    3    0    0 -0.28978281328E+02  0.29561523682E+02 -0.91531779430E+02  0.10045740947E+03  0.00000000000E+00 0.  1.
         13    1    3    3    0    0  0.28978281328E+02 -0.29561523682E+02 -0.29087713527E+02  0.50593671041E+02  0.00000000000E+00 0. -1.
<mgrwt>
<rscale>  0 0.90925062E+02</rscale>
<asrwt>0</asrwt>
<pdfrwt beam="1">  1        1 0.23408914E-02 0.90925062E+02</pdfrwt>
<pdfrwt beam="2">  1       -1 0.20897736E-01 0.90925062E+02</pdfrwt>
<totfact> 0.77041688E+04</totfact>
</mgrwt>
</event>
<event>
 5    1  0.6308903E+000  0.8849668E+02  0.7546771E-02  0.1306534E+00
         -1   -1    0    0    0  501 -0.00000000000E+00  0.00000000000E+00  0.90307623624E+02  0.90307623624E+02  0.00000000000E+00 0.  1.
          1   -1    0    0  501    0  0.00000000000E+00 -0.00000000000E+00 -0.21680510401E+02  0.21680510401E+02  0.00000000000E+00 0. -1.
         23    2    1    2    0    0  0.00000000000E+00  0.00000000000E+00  0.68627113223E+02  0.11198813402E+03  0.88496675039E+02 0.  0.
        -13    1    3    3    0    0  0.35714314670E+02 -0.22498919216E+02  0.51111269147E+02  0.66287822954E+02  0.00000000000E+00 0.  1.
         13    1    3    3    0    0 -0.35714314670E+02  0.22498919216E+02  0.17515844076E+02  0.45700311070E+02  0.00000000000E+00 0. -1.
<mgrwt>
<rscale>  0 0.88496675E+02</rscale>
<asrwt>0</asrwt>
<pdfrwt beam="2">  1        1 0.33354632E-02 0.88496675E+02</pdfrwt>
<pdfrwt beam="1">  1       -1 0.13893480E-01 0.88496675E+02</pdfrwt>
<totfact> 0.89485038E+04</totfact>
</mgrwt>
</event>
<event>
 5    1  0.6308903E+000  0.9161958E+02  0.7546771E-02  0.1298976E+00
          1   -1    0    0  501    0  0.00000000000E+00  0.00000000000E+00  0.11612708302E+03  0.11612708302E+03  0.00000000000E+00 0. -1.
         -1   -1    0    0    0  501 -0.00000000000E+00 -0.00000000000E+00 -0.18071037358E+02  0.18071037358E+02  0.00000000000E+00 0.  1.
         23    2    1    2    0    0  0.00000000000E+00  0.00000000000E+00  0.98056045659E+02  0.13419812037E+03  0.91619579904E+02 0.  0.
        -13    1    3    3    0    0 -0.42058010849E+02  0.13752300703E+02  0.31664010582E+02  0.54411502620E+02  0.00000000000E+00 0. -1.
         13    1    3    3    0    0  0.42058010849E+02 -0.13752300703E+02  0.66392035077E+02  0.79786617755E+02  0.00000000000E+00 0.  1.
<mgrwt>
<rscale>  0 0.91619580E+02</rscale>
<asrwt>0</asrwt>
<pdfrwt beam="1">  1        1 0.17865705E-01 0.91619580E+02</pdfrwt>
<pdfrwt beam="2">  1       -1 0.27801597E-02 0.91619580E+02</pdfrwt>
<totfact> 0.10572782E+05</totfact>
</mgrwt>
</event>
<event>
 5    1  0.6308903E+000  0.9165972E+02  0.7546771E-02  0.1298882E+00
         -3   -1    0    0    0  501 -0.00000000000E+00  0.00000000000E+00  0.23342989539E+03  0.23342989539E+03  0.00000000000E+00 0.  1.
          3   -1    0    0  501    0  0.00000000000E+00 -0.00000000000E+00 -0.89978871651E+01  0.89978871651E+01  0.00000000000E+00 0. -1.
         23    2    1    2    0    0  0.00000000000E+00  0.00000000000E+00  0.22443200823E+03  0.24242778256E+03  0.91659715463E+02 0.  0.
        -13    1    3    3    0    0  0.43620678481E+02 -0.44323275395E+01  0.76932370132E+02  0.88549413847E+02  0.00000000000E+00 0.  1.
         13    1    3    3    0    0 -0.43620678481E+02  0.44323275395E+01  0.14749963809E+03  0.15387836871E+03  0.00000000000E+00 0. -1.
<mgrwt>
<rscale>  0 0.91659715E+02</rscale>
<asrwt>0</asrwt>
<pdfrwt beam="2">  1        3 0.13842905E-02 0.91659715E+02</pdfrwt>
<pdfrwt beam="1">  1       -3 0.35912287E-01 0.91659715E+02</pdfrwt>
<totfact> 0.26066219E+04</totfact>
</mgrwt>
</event>
<event>
 5    1  0.6308903E+000  0.9107164E+02  0.7546771E-02  0.1300277E+00
          2   -1    0    0  501    0  0.00000000000E+00  0.00000000000E+00  0.20009520161E+03  0.20009520161E+03  0.00000000000E+00 0. -1.
         -2   -1    0    0    0  501 -0.00000000000E+00 -0.00000000000E+00 -0.10362621733E+02  0.10362621733E+02  0.00000000000E+00 0.  1.
         23    2    1    2    0    0  0.00000000000E+00  0.00000000000E+00  0.18973257988E+03  0.21045782335E+03  0.91071639602E+02 0.  0.
        -13    1    3    3    0    0  0.45155014552E+02 -0.10715258118E+01  0.81513467396E+02  0.93191034298E+02  0.00000000000E+00 0.  1.
         13    1    3    3    0    0 -0.45155014552E+02  0.10715258118E+01  0.10821911249E+03  0.11726678905E+03  0.00000000000E+00 0. -1.
<mgrwt>
<rscale>  0 0.91071640E+02</rscale>
<asrwt>0</asrwt>
<pdfrwt beam="1">  1        2 0.30783874E-01 0.91071640E+02</pdfrwt>
<pdfrwt beam="2">  1       -2 0.15942496E-02 0.91071640E+02</pdfrwt>
<totfact> 0.15518821E+05</totfact>
</mgrwt>
</event>
<event>
 5    1  0.6308903E+000  0.9007922E+02  0.7546771E-02  0.1302660E+00
         -2   -1    0    0    0  501 -0.00000000000E+00  0.00000000000E+00  0.68796387464E+02  0.68796387464E+02  0.00000000000E+00 0.  1.
          2   -1    0    0  501    0  0.00000000000E+00 -0.00000000000E+00 -0.29486524298E+02  0.29486524298E+02  0.00000000000E+00 0. -1.
         23    2    1    2    0    0  0.00000000000E+00  0.00000000000E+00  0.39309863166E+02  0.98282911761E+02  0.90079217371E+02 0.  0.
        -13    1    3    3    0    0  0.26350234377E+02 -0.70421232915E+01 -0.19451134541E+02  0.33500343090E+02  0.00000000000E+00 0. -1.
         13    1    3    3    0    0 -0.26350234377E+02  0.70421232915E+01  0.58760997707E+02  0.64782568672E+02  0.00000000000E+00 0.  1.
<mgrwt>
<rscale>  0 0.90079217E+02</rscale>
<asrwt>0</asrwt>
<pdfrwt beam="2">  1        2 0.45363884E-02 0.90079217E+02</pdfrwt>
<pdfrwt beam="1">  1       -2 0.10584060E-01 0.90079217E+02</pdfrwt>
<totfact> 0.91279152E+04</totfact>
</mgrwt>
</event>
<event>
 5    1  0.6308903E+000  0.9060634E+02  0.7546771E-02  0.1301390E+00
          2   -1    0    0  501    0  0.00000000000E+00  0.00000000000E+00  0.54329308758E+01  0.54329308758E+01  0.00000000000E+00 0. -1.
         -2   -1    0    0    0  501 -0.00000000000E+00 -0.00000000000E+00 -0.37776611112E+03  0.37776611112E+03  0.00000000000E+00 0.  1.
         23    2    1    2    0    0  0.00000000000E+00  0.00000000000E+00 -0.37233318024E+03  0.38319904199E+03  0.90606339048E+02 0.  0.
        -13    1    3    3    0    0 -0.90034900287E+01  0.44277763173E+02 -0.20006155759E+03  0.20510048749E+03  0.00000000000E+00 0.  1.
         13    1    3    3    0    0  0.90034900287E+01 -0.44277763173E+02 -0.17227162265E+03  0.17809855450E+03  0.00000000000E+00 0. -1.
<mgrwt>
<rscale>  0 0.90606339E+02</rscale>
<asrwt>0</asrwt>
<pdfrwt beam="1">  1        2 0.83583552E-03 0.90606339E+02</pdfrwt>
<pdfrwt beam="2">  1       -2 0.58117863E-01 0.90606339E+02</pdfrwt>
<totfact> 0.45069897E+04</totfact>
</mgrwt>
</event>
<event>
 5    1  0.6308903E+000  0.9240464E+02  0.7546771E-02  0.1297131E+00
          2   -1    0    0  501    0  0.00000000000E+00  0.00000000000E+00  0.95855360608E+02  0.95855360608E+02  0.00000000000E+00 0. -1.
         -2   -1    0    0    0  501 -0.00000000000E+00 -0.00000000000E+00 -0.22269537523E+02  0.22269537523E+02  0.00000000000E+00 0.  1.
         23    2    1    2    0    0  0.00000000000E+00  0.00000000000E+00  0.73585823085E+02  0.11812489813E+03  0.92404643820E+02 0.  0.
        -13    1    3    3    0    0 -0.28259317627E+02 -0.35443521263E+02  0.25371762047E+02  0.51947651936E+02  0.00000000000E+00 0.  1.
         13    1    3    3    0    0  0.28259317627E+02  0.35443521263E+02  0.48214061038E+02  0.66177246196E+02  0.00000000000E+00 0. -1.
<mgrwt>
<rscale>  0 0.92404644E+02</rscale>
<asrwt>0</asrwt>
<pdfrwt beam="1">  1        2 0.14746978E-01 0.92404644E+02</pdfrwt>
<pdfrwt beam="2">  1       -2 0.34260828E-02 0.92404644E+02</pdfrwt>
<totfact> 0.11671985E+05</totfact>
</mgrwt>
</event>
<event>
 5    1  0.6308903E+000  0.9323756E+02  0.7546771E-02  0.1295196E+00
         -2   -1    0    0    0  501 -0.00000000000E+00  0.00000000000E+00  0.10740510566E+03  0.10740510566E+03  0.00000000000E+00 0.  1.
          2   -1    0    0  501    0  0.00000000000E+00 -0.00000000000E+00 -0.20234704266E+02  0.20234704266E+02  0.00000000000E+00 0. -1.
         23    2    1    2    0    0  0.00000000000E+00  0.00000000000E+00  0.87170401395E+02  0.12763980993E+03  0.93237557876E+02 0.  0.
        -13    1    3    3    0    0  0.34767826442E+02  0.11532854682E+02  0.83060635571E+02  0.90779279982E+02  0.00000000000E+00 0.  1.
         13    1    3    3    0    0 -0.34767826442E+02 -0.11532854682E+02  0.41097658236E+01  0.36860529944E+02  0.00000000000E+00 0. -1.
<mgrwt>
<rscale>  0 0.93237558E+02</rscale>
<asrwt>0</asrwt>
<pdfrwt beam="2">  1        2 0.31130315E-02 0.93237558E+02</pdfrwt>
<pdfrwt beam="1">  1       -2 0.16523862E-01 0.93237558E+02</pdfrwt>
<totfact> 0.73856074E+04</totfact>
</mgrwt>
</event>
<event>
 5    1  0.6308903E+000  0.9240296E+02  0.7546771E-02  0.1297135E+00
         -2   -1    0    0    0  501 -0.00000000000E+00  0.00000000000E+00  0.32426059396E+02  0.32426059396E+02  0.00000000000E+00 0.  1.
          2   -1    0    0  501    0  0.00000000000E+00 -0.00000000000E+00 -0.65829058500E+02  0.65829058500E+02  0.00000000000E+00 0. -1.
         23    2    1    2    0    0  0.00000000000E+00  0.00000000000E+00 -0.33402999104E+02  0.98255117897E+02  0.92402964475E+02 0.  0.
        -13    1    3    3    0    0  0.22993180966E+01 -0.38669159253E+02  0.10072249333E+02  0.40025503715E+02  0.00000000000E+00 0.  1.
         13    1    3    3    0    0 -0.22993180966E+01  0.38669159253E+02 -0.43475248438E+02  0.58229614181E+02  0.00000000000E+00 0. -1.
<mgrwt>
<rscale>  0 0.92402964E+02</rscale>
<asrwt>0</asrwt>
<pdfrwt beam="2">  1        2 0.10127547E-01 0.92402964E+02</pdfrwt>
<pdfrwt beam="1">  1       -2 0.49886246E-02 0.92402964E+02</pdfrwt>
<totfact> 0.10475507E+05</totfact>
</mgrwt>
</event>
<event>
 5    1  0.6308903E+000  0.8482750E+02  0.7546771E-02  0.1315884E+00
          2   -1    0    0  501    0  0.00000000000E+00  0.00000000000E+00  0.19504262197E+02  0.19504262197E+02  0.00000000000E+00 0. -1.
         -2   -1    0    0    0  501 -0.00000000000E+00 -0.00000000000E+00 -0.92232459328E+02  0.92232459328E+02  0.00000000000E+00 0.  1.
         23    2    1    2    0    0  0.00000000000E+00  0.00000000000E+00 -0.72728197131E+02  0.11173672153E+03  0.84827497189E+02 0.  0.
        -13    1    3    3    0    0 -0.10825991419E+02 -0.24049455492E+02 -0.80117866825E+02  0.84347204958E+02  0.00000000000E+00 0.  1.
         13    1    3    3    0    0  0.10825991419E+02  0.24049455492E+02  0.73896696937E+01  0.27389516568E+02  0.00000000000E+00 0. -1.
<mgrwt>
<rscale>  0 0.84827497E+02</rscale>
<asrwt>0</asrwt>
<pdfrwt beam="1">  1        2 0.30006558E-02 0.84827497E+02</pdfrwt>
<pdfrwt beam="2">  1       -2 0.14189609E-01 0.84827497E+02</pdfrwt>
<totfact> 0.97729823E+04</totfact>
</mgrwt>
</event>
<event>
 5    1  0.6308903E+000  0.9017918E+02  0.7546771E-02  0.1302418E+00
         -4   -1    0    0    0  501 -0.00000000000E+00  0.00000000000E+00  0.25224428994E+02  0.25224428994E+02  0.00000000000E+00 0.  1.
          4   -1    0    0  501    0  0.00000000000E+00 -0.00000000000E+00 -0.80599289052E+02  0.80599289052E+02  0.00000000000E+00 0. -1.
         23    2    1    2    0    0  0.00000000000E+00  0.00000000000E+00 -0.55374860058E+02  0.10582371805E+03  0.90179178165E+02 0.  0.
        -13    1    3    3    0    0  0.26781252386E+02 -0.35721063481E+02 -0.20280420845E+02  0.49035959511E+02  0.00000000000E+00 0.  1.
         13    1    3    3    0    0 -0.26781252386E+02  0.35721063481E+02 -0.35094439213E+02  0.56787758534E+02  0.00000000000E+00 0. -1.
<mgrwt>
<rscale>  0 0.90179178E+02</rscale>
<asrwt>0</asrwt>
<pdfrwt beam="2">  1        4 0.12399891E-01 0.90179178E+02</pdfrwt>
<pdfrwt beam="1">  1       -4 0.38806814E-02 0.90179178E+02</pdfrwt>
<totfact> 0.26889827E+04</totfact>
</mgrwt>
</event>
<event>
 5    1  0.6308903E+000  0.9130544E+02  0.7546771E-02  0.1299721E+00
         -1   -1    0    0    0  501 -0.00000000000E+00  0.00000000000E+00  0.47171483078E+02  0.47171483078E+02  0.00000000000E+00 0.  1.
          1   -1    0    0  501    0  0.00000000000E+00 -0.00000000000E+00 -0.44182859049E+02  0.44182859049E+02  0.00000000000E+00 0. -1.
         23    2    1    2    0    0  0.00000000000E+00  0.00000000000E+00  0.29886240290E+01  0.91354342127E+02  0.91305443166E+02 0.  0.
        -13    1    3    3    0    0  0.19736056097E+02  0.34959058507E+02 -0.20254930839E+02  0.44965652505E+02  0.00000000000E+00 0. -1.
         13    1    3    3    0    0 -0.19736056097E+02 -0.34959058507E+02  0.23243554868E+02  0.46388689622E+02  0.00000000000E+00 0.  1.
<mgrwt>
<rscale>  0 0.91305443E+02</rscale>
<asrwt>0</asrwt>
<pdfrwt beam="2">  1        1 0.67973629E-02 0.91305443E+02</pdfrwt>
<pdfrwt beam="1">  1       -1 0.72571513E-02 0.91305443E+02</pdfrwt>
<totfact> 0.91673181E+04</totfact>
</mgrwt>
</event>
<event>
 5    1  0.6308903E+000  0.1246093E+03  0.7546771E-02  0.1235681E+00
         -2   -1    0    0    0  501 -0.00000000000E+00  0.00000000000E+00  0.16235425363E+03  0.16235425363E+03  0.00000000000E+00 0.  1.
          2   -1    0    0  501    0  0.00000000000E+00 -0.00000000000E+00 -0.23909878088E+02  0.23909878088E+02  0.00000000000E+00 0. -1.
         23    2    1    2    0    0  0.00000000000E+00  0.00000000000E+00  0.13844437554E+03  0.18626413172E+03  0.12460931604E+03 0.  0.
        -13    1    3    3    0    0  0.56123595977E+02  0.19508212410E+01  0.10955941577E+03  0.12311348145E+03  0.00000000000E+00 0.  1.
         13    1    3    3    0    0 -0.56123595977E+02 -0.19508212410E+01  0.28884959766E+02  0.63150650271E+02  0.00000000000E+00 0. -1.
<mgrwt>
<rscale>  0 0.12460932E+03</rscale>
<asrwt>0</asrwt>
<pdfrwt beam="2">  1        2 0.36784429E-02 0.12460932E+03</pdfrwt>
<pdfrwt beam="1">  1       -2 0.24977577E-01 0.12460932E+03</pdfrwt>
<totfact> 0.30683759E+04</totfact>
</mgrwt>
</event>
<event>
 5    1  0.6308903E+000  0.9231208E+02  0.7546771E-02  0.1297347E+00
          4   -1    0    0  501    0  0.00000000000E+00  0.00000000000E+00  0.64205732302E+01  0.64205732302E+01  0.00000000000E+00 0. -1.
         -4   -1    0    0    0  501 -0.00000000000E+00 -0.00000000000E+00 -0.33180523798E+03  0.33180523798E+03  0.00000000000E+00 0.  1.
         23    2    1    2    0    0  0.00000000000E+00  0.00000000000E+00 -0.32538466475E+03  0.33822581121E+03  0.92312075670E+02 0.  0.
        -13    1    3    3    0    0  0.37189736496E+02  0.21511242213E+02 -0.10088462641E+03  0.10965180294E+03  0.00000000000E+00 0. -1.
         13    1    3    3    0    0 -0.37189736496E+02 -0.21511242213E+02 -0.22450003833E+03  0.22857400826E+03  0.00000000000E+00 0.  1.
<mgrwt>
<rscale>  0 0.92312076E+02</rscale>
<asrwt>0</asrwt>
<pdfrwt beam="1">  1        4 0.98778014E-03 0.92312076E+02</pdfrwt>
<pdfrwt beam="2">  1       -4 0.51046978E-01 0.92312076E+02</pdfrwt>
<totfact> 0.16173399E+04</totfact>
</mgrwt>
</event>
<event>
 5    1  0.6308903E+000  0.9053731E+02  0.7546771E-02  0.1301556E+00
          1   -1    0    0  501    0  0.00000000000E+00  0.00000000000E+00  0.30841664615E+02  0.30841664615E+02  0.00000000000E+00 0. -1.
         -1   -1    0    0    0  501 -0.00000000000E+00 -0.00000000000E+00 -0.66444247627E+02  0.66444247627E+02  0.00000000000E+00 0.  1.
         23    2    1    2    0    0  0.00000000000E+00  0.00000000000E+00 -0.35602583012E+02  0.97285912242E+02  0.90537311665E+02 0.  0.
        -13    1    3    3    0    0 -0.32378124239E+02  0.17441878378E+02  0.10561037098E+02  0.38263527741E+02  0.00000000000E+00 0. -1.
         13    1    3    3    0    0  0.32378124239E+02 -0.17441878378E+02 -0.46163620110E+02  0.59022384501E+02  0.00000000000E+00 0.  1.
<mgrwt>
<rscale>  0 0.90537312E+02</rscale>
<asrwt>0</asrwt>
<pdfrwt beam="1">  1        1 0.47448715E-02 0.90537312E+02</pdfrwt>
<pdfrwt beam="2">  1       -1 0.10222192E-01 0.90537312E+02</pdfrwt>
<totfact> 0.88843026E+04</totfact>
</mgrwt>
</event>
<event>
 5    1  0.6308903E+000  0.9298166E+02  0.7546771E-02  0.1295788E+00
          3   -1    0    0  501    0  0.00000000000E+00  0.00000000000E+00  0.30339906622E+02  0.30339906622E+02  0.00000000000E+00 0. -1.
         -3   -1    0    0    0  501 -0.00000000000E+00 -0.00000000000E+00 -0.71239418888E+02  0.71239418888E+02  0.00000000000E+00 0.  1.
         23    2    1    2    0    0  0.00000000000E+00  0.00000000000E+00 -0.40899512266E+02  0.10157932551E+03  0.92981660921E+02 0.  0.
        -13    1    3    3    0    0 -0.34165467026E+02 -0.38938336171E+01 -0.54631141804E+02  0.64552325536E+02  0.00000000000E+00 0.  1.
         13    1    3    3    0    0  0.34165467026E+02  0.38938336171E+01  0.13731629539E+02  0.37026999974E+02  0.00000000000E+00 0. -1.
<mgrwt>
<rscale>  0 0.92981661E+02</rscale>
<asrwt>0</asrwt>
<pdfrwt beam="1">  1        3 0.46676780E-02 0.92981661E+02</pdfrwt>
<pdfrwt beam="2">  1       -3 0.10959910E-01 0.92981661E+02</pdfrwt>
<totfact> 0.32755748E+04</totfact>
</mgrwt>
</event>
<event>
 5    1  0.6308903E+000  0.8896579E+02  0.7546771E-02  0.1305376E+00
         -1   -1    0    0    0  501 -0.00000000000E+00  0.00000000000E+00  0.22216028332E+02  0.22216028332E+02  0.00000000000E+00 0.  1.
          1   -1    0    0  501    0  0.00000000000E+00 -0.00000000000E+00 -0.89067574054E+02  0.89067574054E+02  0.00000000000E+00 0. -1.
         23    2    1    2    0    0  0.00000000000E+00  0.00000000000E+00 -0.66851545723E+02  0.11128360239E+03  0.88965785527E+02 0.  0.
        -13    1    3    3    0    0  0.36108159483E+02 -0.45169010597E+01 -0.14241747629E+01  0.36417438820E+02  0.00000000000E+00 0.  1.
         13    1    3    3    0    0 -0.36108159483E+02  0.45169010597E+01 -0.65427370960E+02  0.74866163566E+02  0.00000000000E+00 0. -1.
<mgrwt>
<rscale>  0 0.88965786E+02</rscale>
<asrwt>0</asrwt>
<pdfrwt beam="2">  1        1 0.13702703E-01 0.88965786E+02</pdfrwt>
<pdfrwt beam="1">  1       -1 0.34178506E-02 0.88965786E+02</pdfrwt>
<totfact> 0.10958798E+05</totfact>
</mgrwt>
</event>
<event>
 5    1  0.6308903E+000  0.9185510E+02  0.7546771E-02  0.1298420E+00
         -1   -1    0    0    0  501 -0.00000000000E+00  0.00000000000E+00  0.15267770411E+02  0.15267770411E+02  0.00000000000E+00 0.  1.
          1   -1    0    0  501    0  0.00000000000E+00 -0.00000000000E+00 -0.13815636474E+03  0.13815636474E+03  0.00000000000E+00 0. -1.
         23    2    1    2    0    0  0.00000000000E+00  0.00000000000E+00 -0.12288859433E+03  0.15342413516E+03  0.91855095835E+02 0.  0.
        -13    1    3    3    0    0 -0.98361781546E+01 -0.38707353664E+02 -0.23564175086E+02  0.46371111437E+02  0.00000000000E+00 0.  1.
         13    1    3    3    0    0  0.98361781546E+01  0.38707353664E+02 -0.99324419248E+02  0.10705302372E+03  0.00000000000E+00 0. -1.
<mgrwt>
<rscale>  0 0.91855096E+02</rscale>
<asrwt>0</asrwt>
<pdfrwt beam="2">  1        1 0.21254825E-01 0.91855096E+02</pdfrwt>
<pdfrwt beam="1">  1       -1 0.23488877E-02 0.91855096E+02</pdfrwt>
<totfact> 0.10827136E+05</totfact>
</mgrwt>
</event>
<event>
 5    1  0.6308903E+000  0.9080494E+02  0.7546771E-02  0.1300914E+00
          1   -1    0    0  501    0  0.00000000000E+00  0.00000000000E+00  0.15734233900E+02  0.15734233900E+02  0.00000000000E+00 0. -1.
         -1   -1    0    0    0  501 -0.00000000000E+00 -0.00000000000E+00 -0.13101267555E+03  0.13101267555E+03  0.00000000000E+00 0.  1.
         23    2    1    2    0    0  0.00000000000E+00  0.00000000000E+00 -0.11527844165E+03  0.14674690945E+03  0.90804935568E+02 0.  0.
        -13    1    3    3    0    0 -0.39514646130E+02  0.22026125615E+02 -0.51416497718E+02  0.68485134927E+02  0.00000000000E+00 0. -1.
         13    1    3    3    0    0  0.39514646130E+02 -0.22026125615E+02 -0.63861943928E+02  0.78261774518E+02  0.00000000000E+00 0.  1.
<mgrwt>
<rscale>  0 0.90804936E+02</rscale>
<asrwt>0</asrwt>
<pdfrwt beam="1">  1        1 0.24206512E-02 0.90804936E+02</pdfrwt>
<pdfrwt beam="2">  1       -1 0.20155797E-01 0.90804936E+02</pdfrwt>
<totfact> 0.77916174E+04</totfact>
</mgrwt>
</event>
<event>
 5    1  0.6308903E+000  0.8987968E+02  0.7546771E-02  0.1303143E+00
          1   -1    0    0  501    0  0.00000000000E+00  0.00000000000E+00  0.21804137820E+02  0.21804137820E+02  0.00000000000E+00 0. -1.
         -1   -1    0    0    0  501 -0.00000000000E+00 -0.00000000000E+00 -0.92624131449E+02  0.92624131449E+02  0.00000000000E+00 0.  1.
         23    2    1    2    0    0  0.00000000000E+00  0.00000000000E+00 -0.70819993628E+02  0.11442826927E+03  0.89879682412E+02 0.  0.
        -13    1    3    3    0    0 -0.14807508936E+01  0.44266272783E+02 -0.45096963852E+02  0.63209427129E+02  0.00000000000E+00 0.  1.
         13    1    3    3    0    0  0.14807508936E+01 -0.44266272783E+02 -0.25723029776E+02  0.51218842140E+02  0.00000000000E+00 0. -1.
<mgrwt>
<rscale>  0 0.89879682E+02</rscale>
<asrwt>0</asrwt>
<pdfrwt beam="1">  1        1 0.33544828E-02 0.89879682E+02</pdfrwt>
<pdfrwt beam="2">  1       -1 0.14249866E-01 0.89879682E+02</pdfrwt>
<totfact> 0.85610236E+04</totfact>
</mgrwt>
</event>
<event>
 5    1  0.6308903E+000  0.9207809E+02  0.7546771E-02  0.1297896E+00
         -2   -1    0    0    0  501 -0.00000000000E+00  0.00000000000E+00  0.58013080093E+02  0.58013080093E+02  0.00000000000E+00 0.  1.
          2   -1    0    0  501    0  0.00000000000E+00 -0.00000000000E+00 -0.36536476132E+02  0.36536476132E+02  0.00000000000E+00 0. -1.
         23    2    1    2    0    0  0.00000000000E+00  0.00000000000E+00  0.21476603961E+02  0.94549556225E+02  0.92078086778E+02 0.  0.
        -13    1    3    3    0    0  0.14481655943E+02 -0.43201411173E+02  0.39647905355E+01  0.45736198467E+02  0.00000000000E+00 0. -1.
         13    1    3    3    0    0 -0.14481655943E+02  0.43201411173E+02  0.17511813426E+02  0.48813357759E+02  0.00000000000E+00 0.  1.
<mgrwt>
<rscale>  0 0.92078087E+02</rscale>
<asrwt>0</asrwt>
<pdfrwt beam="2">  1        2 0.56209963E-02 0.92078087E+02</pdfrwt>
<pdfrwt beam="1">  1       -2 0.89250893E-02 0.92078087E+02</pdfrwt>
<totfact> 0.90534013E+04</totfact>
</mgrwt>
</event>
<event>
 5    1  0.6308903E+000  0.9059374E+02  0.7546771E-02  0.1301420E+00
         -2   -1    0    0    0  501 -0.00000000000E+00  0.00000000000E+00  0.13288734358E+02  0.13288734358E+02  0.00000000000E+00 0.  1.
          2   -1    0    0  501    0  0.00000000000E+00 -0.00000000000E+00 -0.15440193010E+03  0.15440193010E+03  0.00000000000E+00 0. -1.
         23    2    1    2    0    0  0.00000000000E+00  0.00000000000E+00 -0.14111319574E+03  0.16769066446E+03  0.90593735619E+02 0.  0.
        -13    1    3    3    0    0 -0.15761194298E+02  0.35615457365E+02 -0.27745213693E+02  0.47819169085E+02  0.00000000000E+00 0.  1.
         13    1    3    3    0    0  0.15761194298E+02 -0.35615457365E+02 -0.11336798205E+03  0.11987149537E+03  0.00000000000E+00 0. -1.
<mgrwt>
<rscale>  0 0.90593736E+02</rscale>
<asrwt>0</asrwt>
<pdfrwt beam="2">  1        2 0.23754144E-01 0.90593736E+02</pdfrwt>
<pdfrwt beam="1">  1       -2 0.20444206E-02 0.90593736E+02</pdfrwt>
<totfact> 0.14367271E+05</totfact>
</mgrwt>
</event>
<event>
 5    1  0.6308903E+000  0.9393487E+02  0.7546771E-02  0.1293593E+00
          1   -1    0    0  501    0  0.00000000000E+00  0.00000000000E+00  0.25654487074E+03  0.25654487074E+03  0.00000000000E+00 0. -1.
         -1   -1    0    0    0  501 -0.00000000000E+00 -0.00000000000E+00 -0.85986520379E+01  0.85986520379E+01  0.00000000000E+00 0.  1.
         23    2    1    2    0    0  0.00000000000E+00  0.00000000000E+00  0.24794621871E+03  0.26514352278E+03  0.93934872665E+02 0.  0.
        -13    1    3    3    0    0  0.33997890338E+02  0.30445446364E+02  0.92648471689E+02  0.10327885097E+03  0.00000000000E+00 0.  1.
         13    1    3    3    0    0 -0.33997890338E+02 -0.30445446364E+02  0.15529774702E+03  0.16186467181E+03  0.00000000000E+00 0. -1.
<mgrwt>
<rscale>  0 0.93934873E+02</rscale>
<asrwt>0</asrwt>
<pdfrwt beam="1">  1        1 0.39468436E-01 0.93934873E+02</pdfrwt>
<pdfrwt beam="2">  1       -1 0.13228697E-02 0.93934873E+02</pdfrwt>
<totfact> 0.11476517E+05</totfact>
</mgrwt>
</event>
<event>
 5    1  0.6308903E+000  0.9065541E+02  0.7546771E-02  0.1301272E+00
         -3   -1    0    0    0  501 -0.00000000000E+00  0.00000000000E+00  0.32601414063E+02  0.32601414063E+02  0.00000000000E+00 0.  1.
          3   -1    0    0  501    0  0.00000000000E+00 -0.00000000000E+00 -0.63021836505E+02  0.63021836505E+02  0.00000000000E+00 0. -1.
         23    2    1    2    0    0  0.00000000000E+00  0.00000000000E+00 -0.30420422442E+02  0.95623250568E+02  0.90655413229E+02 0.  0.
        -13    1    3    3    0    0  0.22537397983E+02 -0.37216164966E+02 -0.28620012524E+02  0.52077657009E+02  0.00000000000E+00 0. -1.
         13    1    3    3    0    0 -0.22537397983E+02  0.37216164966E+02 -0.18004099173E+01  0.43545593560E+02  0.00000000000E+00 0.  1.
<mgrwt>
<rscale>  0 0.90655413E+02</rscale>
<asrwt>0</asrwt>
<pdfrwt beam="2">  1        3 0.96956672E-02 0.90655413E+02</pdfrwt>
<pdfrwt beam="1">  1       -3 0.50156022E-02 0.90655413E+02</pdfrwt>
<totfact> 0.35549156E+04</totfact>
</mgrwt>
</event>
<event>
 5    1  0.6308903E+000  0.8985654E+02  0.7546771E-02  0.1303199E+00
          2   -1    0    0  501    0  0.00000000000E+00  0.00000000000E+00  0.33493512954E+03  0.33493512954E+03  0.00000000000E+00 0. -1.
         -2   -1    0    0    0  501 -0.00000000000E+00 -0.00000000000E+00 -0.60266880697E+01  0.60266880697E+01  0.00000000000E+00 0.  1.
         23    2    1    2    0    0  0.00000000000E+00  0.00000000000E+00  0.32890844147E+03  0.34096181761E+03  0.89856542318E+02 0.  0.
        -13    1    3    3    0    0 -0.39433229966E+02 -0.21090281626E+02  0.18089368048E+03  0.18633921552E+03  0.00000000000E+00 0.  1.
         13    1    3    3    0    0  0.39433229966E+02  0.21090281626E+02  0.14801476099E+03  0.15462260209E+03  0.00000000000E+00 0. -1.
<mgrwt>
<rscale>  0 0.89856542E+02</rscale>
<asrwt>0</asrwt>
<pdfrwt beam="1">  1        2 0.51528467E-01 0.89856542E+02</pdfrwt>
<pdfrwt beam="2">  1       -2 0.92718304E-03 0.89856542E+02</pdfrwt>
<totfact> 0.19455018E+05</totfact>
</mgrwt>
</event>
<event>
 5    1  0.6308903E+000  0.9523847E+02  0.7546771E-02  0.1290640E+00
          1   -1    0    0  501    0  0.00000000000E+00  0.00000000000E+00  0.36582917136E+02  0.36582917136E+02  0.00000000000E+00 0. -1.
         -1   -1    0    0    0  501 -0.00000000000E+00 -0.00000000000E+00 -0.61984981473E+02  0.61984981473E+02  0.00000000000E+00 0.  1.
         23    2    1    2    0    0  0.00000000000E+00  0.00000000000E+00 -0.25402064337E+02  0.98567898609E+02  0.95238467877E+02 0.  0.
        -13    1    3    3    0    0  0.28896195062E+01  0.45175758274E+02  0.25936995129E+01  0.45342323647E+02  0.00000000000E+00 0. -1.
         13    1    3    3    0    0 -0.28896195062E+01 -0.45175758274E+02 -0.27995763850E+02  0.53225574962E+02  0.00000000000E+00 0.  1.
<mgrwt>
<rscale>  0 0.95238468E+02</rscale>
<asrwt>0</asrwt>
<pdfrwt beam="1">  1        1 0.56281411E-02 0.95238468E+02</pdfrwt>
<pdfrwt beam="2">  1       -1 0.95361509E-02 0.95238468E+02</pdfrwt>
<totfact> 0.78980990E+04</totfact>
</mgrwt>
</event>
<event>
 5    1  0.6308903E+000  0.9870339E+02  0.7546771E-02  0.1283046E+00
         -4   -1    0    0    0  501 -0.00000000000E+00  0.00000000000E+00  0.23209581409E+03  0.23209581409E+03  0.00000000000E+00 0.  1.
          4   -1    0    0  501    0  0.00000000000E+00 -0.00000000000E+00 -0.10493898020E+02  0.10493898020E+02  0.00000000000E+00 0. -1.
         23    2    1    2    0    0  0.00000000000E+00  0.00000000000E+00  0.22160191607E+03  0.24258971211E+03  0.98703390090E+02 0.  0.
        -13    1    3    3    0    0  0.39804605556E+02  0.26178636706E+02  0.14245389180E+03  0.15020931706E+03  0.00000000000E+00 0.  1.
         13    1    3    3    0    0 -0.39804605556E+02 -0.26178636706E+02  0.79148024269E+02  0.92380395047E+02  0.00000000000E+00 0. -1.
<mgrwt>
<rscale>  0 0.98703390E+02</rscale>
<asrwt>0</asrwt>
<pdfrwt beam="2">  1        4 0.16144460E-02 0.98703390E+02</pdfrwt>
<pdfrwt beam="1">  1       -4 0.35707045E-01 0.98703390E+02</pdfrwt>
<totfact> 0.15943762E+04</totfact>
</mgrwt>
</event>
<event>
 5    1  0.6308903E+000  0.9143279E+02  0.7546771E-02  0.1299419E+00
          3   -1    0    0  501    0  0.00000000000E+00  0.00000000000E+00  0.40193314697E+02  0.40193314697E+02  0.00000000000E+00 0. -1.
         -3   -1    0    0    0  501 -0.00000000000E+00 -0.00000000000E+00 -0.51998422237E+02  0.51998422237E+02  0.00000000000E+00 0.  1.
         23    2    1    2    0    0  0.00000000000E+00  0.00000000000E+00 -0.11805107540E+02  0.92191736934E+02  0.91432793870E+02 0.  0.
        -13    1    3    3    0    0  0.15891806008E+01 -0.21063929729E+02 -0.46782574023E+02  0.51330535384E+02  0.00000000000E+00 0.  1.
         13    1    3    3    0    0 -0.15891806008E+01  0.21063929729E+02  0.34977466483E+02  0.40861201551E+02  0.00000000000E+00 0. -1.
<mgrwt>
<rscale>  0 0.91432794E+02</rscale>
<asrwt>0</asrwt>
<pdfrwt beam="1">  1        3 0.61835869E-02 0.91432794E+02</pdfrwt>
<pdfrwt beam="2">  1       -3 0.79997573E-02 0.91432794E+02</pdfrwt>
<totfact> 0.34992694E+04</totfact>
</mgrwt>
</event>
<event>
 5    1  0.6308903E+000  0.9087071E+02  0.7546771E-02  0.1300757E+00
          4   -1    0    0  501    0  0.00000000000E+00  0.00000000000E+00  0.15123191125E+03  0.15123191125E+03  0.00000000000E+00 0. -1.
         -4   -1    0    0    0  501 -0.00000000000E+00 -0.00000000000E+00 -0.13650368673E+02  0.13650368673E+02  0.00000000000E+00 0.  1.
         23    2    1    2    0    0  0.00000000000E+00  0.00000000000E+00  0.13758154258E+03  0.16488227992E+03  0.90870706911E+02 0.  0.
        -13    1    3    3    0    0  0.40219254075E+02 -0.19419169945E+02  0.83936855206E+02  0.95079378529E+02  0.00000000000E+00 0. -1.
         13    1    3    3    0    0 -0.40219254075E+02  0.19419169945E+02  0.53644687371E+02  0.69802901393E+02  0.00000000000E+00 0.  1.
<mgrwt>
<rscale>  0 0.90870707E+02</rscale>
<asrwt>0</asrwt>
<pdfrwt beam="1">  1        4 0.23266447E-01 0.90870707E+02</pdfrwt>
<pdfrwt beam="2">  1       -4 0.21000568E-02 0.90870707E+02</pdfrwt>
<totfact> 0.23155806E+04</totfact>
</mgrwt>
</event>
<event>
 5    1  0.6308903E+000  0.9168135E+02  0.7546771E-02  0.1298830E+00
         -4   -1    0    0    0  501 -0.00000000000E+00  0.00000000000E+00  0.59761670199E+02  0.59761670199E+02  0.00000000000E+00 0. -1.
          4   -1    0    0  501    0  0.00000000000E+00 -0.00000000000E+00 -0.35162459998E+02  0.35162459998E+02  0.00000000000E+00 0.  1.
         23    2    1    2    0    0  0.00000000000E+00  0.00000000000E+00  0.24599210201E+02  0.94924130197E+02  0.91681346800E+02 0.  0.
        -13    1    3    3    0    0 -0.14653256371E+02  0.43295923151E+02  0.15902998785E+02  0.48395870217E+02  0.00000000000E+00 0. -1.
         13    1    3    3    0    0  0.14653256371E+02 -0.43295923151E+02  0.86962114160E+01  0.46528259980E+02  0.00000000000E+00 0.  1.
<mgrwt>
<rscale>  0 0.91681347E+02</rscale>
<asrwt>0</asrwt>
<pdfrwt beam="2">  1        4 0.54096092E-02 0.91681347E+02</pdfrwt>
<pdfrwt beam="1">  1       -4 0.91941031E-02 0.91681347E+02</pdfrwt>
<totfact> 0.26377978E+04</totfact>
</mgrwt>
</event>
<event>
 5    1  0.6308903E+000  0.9073363E+02  0.7546771E-02  0.1301085E+00
          1   -1    0    0  501    0  0.00000000000E+00  0.00000000000E+00  0.92968459365E+02  0.92968459365E+02  0.00000000000E+00 0. -1.
         -1   -1    0    0    0  501 -0.00000000000E+00 -0.00000000000E+00 -0.22138128634E+02  0.22138128634E+02  0.00000000000E+00 0.  1.
         23    2    1    2    0    0  0.00000000000E+00  0.00000000000E+00  0.70830330731E+02  0.11510658800E+03  0.90733625792E+02 0.  0.
        -13    1    3    3    0    0 -0.31208586663E+01  0.40231486959E+02  0.61716816320E+02  0.73737898793E+02  0.00000000000E+00 0. -1.
         13    1    3    3    0    0  0.31208586663E+01 -0.40231486959E+02  0.91135144108E+01  0.41368689206E+02  0.00000000000E+00 0.  1.
<mgrwt>
<rscale>  0 0.90733626E+02</rscale>
<asrwt>0</asrwt>
<pdfrwt beam="1">  1        1 0.14302840E-01 0.90733626E+02</pdfrwt>
<pdfrwt beam="2">  1       -1 0.34058660E-02 0.90733626E+02</pdfrwt>
<totfact> 0.10458623E+05</totfact>
</mgrwt>
</event>
<event>
 5    1  0.6308903E+000  0.9019051E+02  0.7546771E-02  0.1302391E+00
          3   -1    0    0  501    0  0.00000000000E+00  0.00000000000E+00  0.38263669930E+03  0.38263669930E+03  0.00000000000E+00 0. -1.
         -3   -1    0    0    0  501 -0.00000000000E+00 -0.00000000000E+00 -0.53146543613E+01  0.53146543613E+01  0.00000000000E+00 0.  1.
         23    2    1    2    0    0  0.00000000000E+00  0.00000000000E+00  0.37732204494E+03  0.38795135366E+03  0.90190505104E+02 0.  0.
        -13    1    3    3    0    0  0.34189066324E+02 -0.29314502329E+02  0.19860987612E+03  0.20365194621E+03  0.00000000000E+00 0.  1.
         13    1    3    3    0    0 -0.34189066324E+02  0.29314502329E+02  0.17871216882E+03  0.18429940745E+03  0.00000000000E+00 0. -1.
<mgrwt>
<rscale>  0 0.90190505E+02</rscale>
<asrwt>0</asrwt>
<pdfrwt beam="1">  1        3 0.58867163E-01 0.90190505E+02</pdfrwt>
<pdfrwt beam="2">  1       -3 0.81763943E-03 0.90190505E+02</pdfrwt>
<totfact> 0.21602242E+04</totfact>
</mgrwt>
</event>
<event>
 5    1  0.6308903E+000  0.9152398E+02  0.7546771E-02  0.1299203E+00
          2   -1    0    0  501    0  0.00000000000E+00  0.00000000000E+00  0.56881409158E+02  0.56881409158E+02  0.00000000000E+00 0. -1.
         -2   -1    0    0    0  501 -0.00000000000E+00 -0.00000000000E+00 -0.36816242004E+02  0.36816242004E+02  0.00000000000E+00 0.  1.
         23    2    1    2    0    0  0.00000000000E+00  0.00000000000E+00  0.20065167154E+02  0.93697651161E+02  0.91523979919E+02 0.  0.
        -13    1    3    3    0    0 -0.22604722746E+02  0.35788160983E+02 -0.77698848922E+01  0.43036462078E+02  0.00000000000E+00 0.  1.
         13    1    3    3    0    0  0.22604722746E+02 -0.35788160983E+02  0.27835052046E+02  0.50661189083E+02  0.00000000000E+00 0. -1.
<mgrwt>
<rscale>  0 0.91523980E+02</rscale>
<asrwt>0</asrwt>
<pdfrwt beam="1">  1        2 0.87509861E-02 0.91523980E+02</pdfrwt>
<pdfrwt beam="2">  1       -2 0.56640372E-02 0.91523980E+02</pdfrwt>
<totfact> 0.10344870E+05</totfact>
</mgrwt>
</event>
<event>
 5    1  0.6308903E+000  0.9078441E+02  0.7546771E-02  0.1300963E+00
         -4   -1    0    0    0  501 -0.00000000000E+00  0.00000000000E+00  0.35323425548E+02  0.35323425548E+02  0.00000000000E+00 0.  1.
          4   -1    0    0  501    0  0.00000000000E+00 -0.00000000000E+00 -0.58331045094E+02  0.58331045094E+02  0.00000000000E+00 0. -1.
         23    2    1    2    0    0  0.00000000000E+00  0.00000000000E+00 -0.23007619546E+02  0.93654470642E+02  0.90784411184E+02 0.  0.
        -13    1    3    3    0    0  0.11010334507E+02  0.15311958941E+02  0.31090341946E+02  0.36363345760E+02  0.00000000000E+00 0.  1.
         13    1    3    3    0    0 -0.11010334507E+02 -0.15311958941E+02 -0.54097961492E+02  0.57291124882E+02  0.00000000000E+00 0. -1.
<mgrwt>
<rscale>  0 0.90784411E+02</rscale>
<asrwt>0</asrwt>
<pdfrwt beam="2">  1        4 0.89740070E-02 0.90784411E+02</pdfrwt>
<pdfrwt beam="1">  1       -4 0.54343731E-02 0.90784411E+02</pdfrwt>
<totfact> 0.27173511E+04</totfact>
</mgrwt>
</event>
<event>
 5    1  0.6308903E+000  0.9522472E+02  0.7546771E-02  0.1290671E+00
         -1   -1    0    0    0  501 -0.00000000000E+00  0.00000000000E+00  0.24942766151E+02  0.24942766151E+02  0.00000000000E+00 0.  1.
          1   -1    0    0  501    0  0.00000000000E+00 -0.00000000000E+00 -0.90885551178E+02  0.90885551178E+02  0.00000000000E+00 0. -1.
         23    2    1    2    0    0  0.00000000000E+00  0.00000000000E+00 -0.65942785027E+02  0.11582831733E+03  0.95224724720E+02 0.  0.
        -13    1    3    3    0    0  0.30338536530E+02 -0.29745920667E+02 -0.68353114100E+01  0.43034498686E+02  0.00000000000E+00 0.  1.
         13    1    3    3    0    0 -0.30338536530E+02  0.29745920667E+02 -0.59107473617E+02  0.72793818642E+02  0.00000000000E+00 0. -1.
<mgrwt>
<rscale>  0 0.95224725E+02</rscale>
<asrwt>0</asrwt>
<pdfrwt beam="2">  1        1 0.13982393E-01 0.95224725E+02</pdfrwt>
<pdfrwt beam="1">  1       -1 0.38373486E-02 0.95224725E+02</pdfrwt>
<totfact> 0.91269927E+04</totfact>
</mgrwt>
</event>
<event>
 5    1  0.6308903E+000  0.9377791E+02  0.7546771E-02  0.1293952E+00
         -2   -1    0    0    0  501 -0.00000000000E+00  0.00000000000E+00  0.31653731815E+02  0.31653731815E+02  0.00000000000E+00 0.  1.
          2   -1    0    0  501    0  0.00000000000E+00 -0.00000000000E+00 -0.69457026912E+02  0.69457026912E+02  0.00000000000E+00 0. -1.
         23    2    1    2    0    0  0.00000000000E+00  0.00000000000E+00 -0.37803295096E+02  0.10111075873E+03  0.93777910033E+02 0.  0.
        -13    1    3    3    0    0  0.18697363942E+02 -0.63731809592E+01 -0.64751706240E+02  0.67697801404E+02  0.00000000000E+00 0. -1.
         13    1    3    3    0    0 -0.18697363942E+02  0.63731809592E+01  0.26948411143E+02  0.33412957323E+02  0.00000000000E+00 0.  1.
<mgrwt>
<rscale>  0 0.93777910E+02</rscale>
<asrwt>0</asrwt>
<pdfrwt beam="2">  1        2 0.10685696E-01 0.93777910E+02</pdfrwt>
<pdfrwt beam="1">  1       -2 0.48698049E-02 0.93777910E+02</pdfrwt>
<totfact> 0.10199837E+05</totfact>
</mgrwt>
</event>
<event>
 5    1  0.6308903E+000  0.9160708E+02  0.7546771E-02  0.1299006E+00
         -2   -1    0    0    0  501 -0.00000000000E+00  0.00000000000E+00  0.34743593973E+02  0.34743593973E+02  0.00000000000E+00 0.  1.
          2   -1    0    0  501    0  0.00000000000E+00 -0.00000000000E+00 -0.60384200231E+02  0.60384200231E+02  0.00000000000E+00 0. -1.
         23    2    1    2    0    0  0.00000000000E+00  0.00000000000E+00 -0.25640606258E+02  0.95127794203E+02  0.91607076914E+02 0.  0.
        -13    1    3    3    0    0  0.94441924995E+01  0.36297980187E+02  0.14481357340E+02  0.40205047544E+02  0.00000000000E+00 0.  1.
         13    1    3    3    0    0 -0.94441924995E+01 -0.36297980187E+02 -0.40121963598E+02  0.54922746659E+02  0.00000000000E+00 0. -1.
<mgrwt>
<rscale>  0 0.91607077E+02</rscale>
<asrwt>0</asrwt>
<pdfrwt beam="2">  1        2 0.92898769E-02 0.91607077E+02</pdfrwt>
<pdfrwt beam="1">  1       -2 0.53451683E-02 0.91607077E+02</pdfrwt>
<totfact> 0.10484824E+05</totfact>
</mgrwt>
</event>
<event>
 4    1  0.6308903E+000  0.3252030E+02  0.7546771E-02  0.1571792E+00
          1   -1    0    0  501    0  0.00000000000E+00  0.00000000000E+00  0.27040037182E+02  0.27040037182E+02  0.00000000000E+00 0. -1.
         -1   -1    0    0    0  501 -0.00000000000E+00 -0.00000000000E+00 -0.97778125222E+01  0.97778125222E+01  0.00000000000E+00 0.  1.
        -13    1    1    2    0    0 -0.38805055208E+01 -0.14731307078E+02  0.21944958908E+01  0.15391086496E+02  0.00000000000E+00 0. -1.
         13    1    1    2    0    0  0.38805055208E+01  0.14731307078E+02  0.15067728769E+02  0.21426763208E+02  0.00000000000E+00 0.  1.
<mgrwt>
<rscale>  0 0.32520296E+02</rscale>
<asrwt>0</asrwt>
<pdfrwt beam="1">  1        1 0.41600057E-02 0.32520296E+02</pdfrwt>
<pdfrwt beam="2">  1       -1 0.15042789E-02 0.32520296E+02</pdfrwt>
<totfact> 0.12956765E+06</totfact>
</mgrwt>
</event>
<event>
 5    1  0.6308903E+000  0.7673811E+02  0.7546771E-02  0.1338572E+00
         -3   -1    0    0    0  501 -0.00000000000E+00  0.00000000000E+00  0.95587570661E+02  0.95587570661E+02  0.00000000000E+00 0.  1.
          3   -1    0    0  501    0  0.00000000000E+00 -0.00000000000E+00 -0.15401421837E+02  0.15401421837E+02  0.00000000000E+00 0. -1.
         23    2    1    2    0    0  0.00000000000E+00  0.00000000000E+00  0.80186148824E+02  0.11098899250E+03  0.76738113038E+02 0.  0.
        -13    1    3    3    0    0 -0.19270686657E+02 -0.30277576444E+02  0.20469052553E+02  0.41316741304E+02  0.00000000000E+00 0. -1.
         13    1    3    3    0    0  0.19270686657E+02  0.30277576444E+02  0.59717096270E+02  0.69672251195E+02  0.00000000000E+00 0.  1.
<mgrwt>
<rscale>  0 0.76738113E+02</rscale>
<asrwt>0</asrwt>
<pdfrwt beam="2">  1        3 0.23694496E-02 0.76738113E+02</pdfrwt>
<pdfrwt beam="1">  1       -3 0.14705780E-01 0.76738113E+02</pdfrwt>
<totfact> 0.53846455E+04</totfact>
</mgrwt>
</event>
<event>
 5    1  0.6308903E+000  0.9085456E+02  0.7546771E-02  0.1300795E+00
         -2   -1    0    0    0  501 -0.00000000000E+00  0.00000000000E+00  0.30431030647E+02  0.30431030647E+02  0.00000000000E+00 0. -1.
          2   -1    0    0  501    0  0.00000000000E+00 -0.00000000000E+00 -0.67813598492E+02  0.67813598492E+02  0.00000000000E+00 0.  1.
         23    2    1    2    0    0  0.00000000000E+00  0.00000000000E+00 -0.37382567845E+02  0.98244629139E+02  0.90854558367E+02 0.  0.
        -13    1    3    3    0    0  0.39002036056E+02  0.20135292944E+02 -0.60322721849E+01  0.44305497922E+02  0.00000000000E+00 0. -1.
         13    1    3    3    0    0 -0.39002036056E+02 -0.20135292944E+02 -0.31350295660E+02  0.53939131217E+02  0.00000000000E+00 0.  1.
<mgrwt>
<rscale>  0 0.90854558E+02</rscale>
<asrwt>0</asrwt>
<pdfrwt beam="2">  1        2 0.10432861E-01 0.90854558E+02</pdfrwt>
<pdfrwt beam="1">  1       -2 0.46816971E-02 0.90854558E+02</pdfrwt>
<totfact> 0.11074778E+05</totfact>
</mgrwt>
</event>
<event>
 5    1  0.6308903E+000  0.9227010E+02  0.7546771E-02  0.1297446E+00
          2   -1    0    0  501    0  0.00000000000E+00  0.00000000000E+00  0.31093550383E+03  0.31093550383E+03  0.00000000000E+00 0. -1.
         -2   -1    0    0    0  501 -0.00000000000E+00 -0.00000000000E+00 -0.68452879189E+01  0.68452879189E+01  0.00000000000E+00 0.  1.
         23    2    1    2    0    0  0.00000000000E+00  0.00000000000E+00  0.30409021591E+03  0.31778079175E+03  0.92270104540E+02 0.  0.
        -13    1    3    3    0    0 -0.20308798681E+02  0.40513882385E+02  0.12229439417E+03  0.13042139708E+03  0.00000000000E+00 0.  1.
         13    1    3    3    0    0  0.20308798681E+02 -0.40513882385E+02  0.18179582174E+03  0.18735939467E+03  0.00000000000E+00 0. -1.
<mgrwt>
<rscale>  0 0.92270105E+02</rscale>
<asrwt>0</asrwt>
<pdfrwt beam="1">  1        2 0.47836220E-01 0.92270105E+02</pdfrwt>
<pdfrwt beam="2">  1       -2 0.10531215E-02 0.92270105E+02</pdfrwt>
<totfact> 0.17636602E+05</totfact>
</mgrwt>
</event>
<event>
 5    1  0.6308903E+000  0.9160473E+02  0.7546771E-02  0.1299011E+00
          2   -1    0    0  501    0  0.00000000000E+00  0.00000000000E+00  0.26755312975E+02  0.26755312975E+02  0.00000000000E+00 0. -1.
         -2   -1    0    0    0  501 -0.00000000000E+00 -0.00000000000E+00 -0.78408980429E+02  0.78408980429E+02  0.00000000000E+00 0.  1.
         23    2    1    2    0    0  0.00000000000E+00  0.00000000000E+00 -0.51653667454E+02  0.10516429340E+03  0.91604733752E+02 0.  0.
        -13    1    3    3    0    0  0.23150705577E+02  0.29854301934E+02  0.39027882050E+01  0.37979813961E+02  0.00000000000E+00 0. -1.
         13    1    3    3    0    0 -0.23150705577E+02 -0.29854301934E+02 -0.55556455659E+02  0.67184479443E+02  0.00000000000E+00 0.  1.
<mgrwt>
<rscale>  0 0.91604734E+02</rscale>
<asrwt>0</asrwt>
<pdfrwt beam="1">  1        2 0.41162021E-02 0.91604734E+02</pdfrwt>
<pdfrwt beam="2">  1       -2 0.12062920E-01 0.91604734E+02</pdfrwt>
<totfact> 0.84572562E+04</totfact>
</mgrwt>
</event>
<event>
 5    1  0.6308903E+000  0.9314830E+02  0.7546771E-02  0.1295402E+00
          1   -1    0    0  501    0  0.00000000000E+00  0.00000000000E+00  0.52925089932E+02  0.52925089932E+02  0.00000000000E+00 0. -1.
         -1   -1    0    0    0  501 -0.00000000000E+00 -0.00000000000E+00 -0.40985311360E+02  0.40985311360E+02  0.00000000000E+00 0.  1.
         23    2    1    2    0    0  0.00000000000E+00  0.00000000000E+00  0.11939778573E+02  0.93910401292E+02  0.93148296594E+02 0.  0.
        -13    1    3    3    0    0  0.23640736353E+02 -0.55416253332E+01 -0.34098922730E+02  0.41860847554E+02  0.00000000000E+00 0.  1.
         13    1    3    3    0    0 -0.23640736353E+02  0.55416253332E+01  0.46038701303E+02  0.52049553737E+02  0.00000000000E+00 0. -1.
<mgrwt>
<rscale>  0 0.93148297E+02</rscale>
<asrwt>0</asrwt>
<pdfrwt beam="1">  1        1 0.81423216E-02 0.93148297E+02</pdfrwt>
<pdfrwt beam="2">  1       -1 0.63054325E-02 0.93148297E+02</pdfrwt>
<totfact> 0.89077914E+04</totfact>
</mgrwt>
</event>
<event>
 5    1  0.6308903E+000  0.9008989E+02  0.7546771E-02  0.1302634E+00
          2   -1    0    0  501    0  0.00000000000E+00  0.00000000000E+00  0.83820642636E+02  0.83820642636E+02  0.00000000000E+00 0. -1.
         -2   -1    0    0    0  501 -0.00000000000E+00 -0.00000000000E+00 -0.24207008308E+02  0.24207008308E+02  0.00000000000E+00 0.  1.
         23    2    1    2    0    0  0.00000000000E+00  0.00000000000E+00  0.59613634328E+02  0.10802765094E+03  0.90089888283E+02 0.  0.
        -13    1    3    3    0    0  0.20430628317E+02 -0.18863891382E+02  0.72299817622E+02  0.77463027308E+02  0.00000000000E+00 0. -1.
         13    1    3    3    0    0 -0.20430628317E+02  0.18863891382E+02 -0.12686183294E+02  0.30564623637E+02  0.00000000000E+00 0.  1.
<mgrwt>
<rscale>  0 0.90089888E+02</rscale>
<asrwt>0</asrwt>
<pdfrwt beam="1">  1        2 0.12895483E-01 0.90089888E+02</pdfrwt>
<pdfrwt beam="2">  1       -2 0.37241552E-02 0.90089888E+02</pdfrwt>
<totfact> 0.12033869E+05</totfact>
</mgrwt>
</event>
<event>
 5    1  0.6308903E+000  0.8941113E+02  0.7546771E-02  0.1304284E+00
         -2   -1    0    0    0  501 -0.00000000000E+00  0.00000000000E+00  0.46517727296E+02  0.46517727296E+02  0.00000000000E+00 0.  1.
          2   -1    0    0  501    0  0.00000000000E+00 -0.00000000000E+00 -0.42963999631E+02  0.42963999631E+02  0.00000000000E+00 0. -1.
         23    2    1    2    0    0  0.00000000000E+00  0.00000000000E+00  0.35537276650E+01  0.89481726927E+02  0.89411131709E+02 0.  0.
        -13    1    3    3    0    0  0.86454094307E+01 -0.17890277890E+02  0.41855736415E+02  0.46332578366E+02  0.00000000000E+00 0.  1.
         13    1    3    3    0    0 -0.86454094307E+01  0.17890277890E+02 -0.38302008750E+02  0.43149148560E+02  0.00000000000E+00 0. -1.
<mgrwt>
<rscale>  0 0.89411132E+02</rscale>
<asrwt>0</asrwt>
<pdfrwt beam="2">  1        2 0.66098461E-02 0.89411132E+02</pdfrwt>
<pdfrwt beam="1">  1       -2 0.71565734E-02 0.89411132E+02</pdfrwt>
<totfact> 0.10278618E+05</totfact>
</mgrwt>
</event>
<event>
 5    1  0.6308903E+000  0.9194838E+02  0.7546771E-02  0.1298201E+00
         -3   -1    0    0    0  501 -0.00000000000E+00  0.00000000000E+00  0.17265259230E+03  0.17265259230E+03  0.00000000000E+00 0.  1.
          3   -1    0    0  501    0  0.00000000000E+00 -0.00000000000E+00 -0.12242074944E+02  0.12242074944E+02  0.00000000000E+00 0. -1.
         23    2    1    2    0    0  0.00000000000E+00  0.00000000000E+00  0.16041051736E+03  0.18489466725E+03  0.91948376260E+02 0.  0.
        -13    1    3    3    0    0  0.60517772807E+01  0.45357379017E+02  0.89132661190E+02  0.10019255027E+03  0.00000000000E+00 0.  1.
         13    1    3    3    0    0 -0.60517772807E+01 -0.45357379017E+02  0.71277856168E+02  0.84702116972E+02  0.00000000000E+00 0. -1.
<mgrwt>
<rscale>  0 0.91948376E+02</rscale>
<asrwt>0</asrwt>
<pdfrwt beam="2">  1        3 0.18833963E-02 0.91948376E+02</pdfrwt>
<pdfrwt beam="1">  1       -3 0.26561936E-01 0.91948376E+02</pdfrwt>
<totfact> 0.28637650E+04</totfact>
</mgrwt>
</event>
<event>
 5    1  0.6308903E+000  0.9192846E+02  0.7546771E-02  0.1298248E+00
         -2   -1    0    0    0  501 -0.00000000000E+00  0.00000000000E+00  0.26712687418E+02  0.26712687418E+02  0.00000000000E+00 0.  1.
          2   -1    0    0  501    0  0.00000000000E+00 -0.00000000000E+00 -0.79090152160E+02  0.79090152160E+02  0.00000000000E+00 0. -1.
         23    2    1    2    0    0  0.00000000000E+00  0.00000000000E+00 -0.52377464742E+02  0.10580283958E+03  0.91928461588E+02 0.  0.
        -13    1    3    3    0    0  0.40644113327E+02  0.63306241779E+01 -0.49795053065E+02  0.64587677311E+02  0.00000000000E+00 0.  1.
         13    1    3    3    0    0 -0.40644113327E+02 -0.63306241779E+01 -0.25824116772E+01  0.41215162267E+02  0.00000000000E+00 0. -1.
<mgrwt>
<rscale>  0 0.91928462E+02</rscale>
<asrwt>0</asrwt>
<pdfrwt beam="2">  1        2 0.12167715E-01 0.91928462E+02</pdfrwt>
<pdfrwt beam="1">  1       -2 0.41096443E-02 0.91928462E+02</pdfrwt>
<totfact> 0.11189310E+05</totfact>
</mgrwt>
</event>
<event>
 5    1  0.6308903E+000  0.9179487E+02  0.7546771E-02  0.1298562E+00
          2   -1    0    0  501    0  0.00000000000E+00  0.00000000000E+00  0.10279883564E+03  0.10279883564E+03  0.00000000000E+00 0. -1.
         -2   -1    0    0    0  501 -0.00000000000E+00 -0.00000000000E+00 -0.20492202316E+02  0.20492202316E+02  0.00000000000E+00 0.  1.
         23    2    1    2    0    0  0.00000000000E+00  0.00000000000E+00  0.82306633320E+02  0.12329103795E+03  0.91794869959E+02 0.  0.
        -13    1    3    3    0    0 -0.22113217320E+02  0.40193593361E+02  0.43078806447E+02  0.62930937482E+02  0.00000000000E+00 0.  1.
         13    1    3    3    0    0  0.22113217320E+02 -0.40193593361E+02  0.39227826874E+02  0.60360100470E+02  0.00000000000E+00 0. -1.
<mgrwt>
<rscale>  0 0.91794870E+02</rscale>
<asrwt>0</asrwt>
<pdfrwt beam="1">  1        2 0.15815205E-01 0.91794870E+02</pdfrwt>
<pdfrwt beam="2">  1       -2 0.31526466E-02 0.91794870E+02</pdfrwt>
<totfact> 0.12143538E+05</totfact>
</mgrwt>
</event>
<event>
 5    1  0.6308903E+000  0.9056019E+02  0.7546771E-02  0.1301501E+00
         -3   -1    0    0    0  501 -0.00000000000E+00  0.00000000000E+00  0.45904568378E+03  0.45904568378E+03  0.00000000000E+00 0. -1.
          3   -1    0    0  501    0  0.00000000000E+00 -0.00000000000E+00 -0.44664121406E+01  0.44664121406E+01  0.00000000000E+00 0.  1.
         23    2    1    2    0    0  0.00000000000E+00  0.00000000000E+00  0.45457927164E+03  0.46351209592E+03  0.90560194680E+02 0.  0.
        -13    1    3    3    0    0  0.17613475092E+02 -0.41223767929E+02  0.25992388257E+03  0.26376136616E+03  0.00000000000E+00 0.  1.
         13    1    3    3    0    0 -0.17613475092E+02  0.41223767929E+02  0.19465538907E+03  0.19975072976E+03  0.00000000000E+00 0. -1.
<mgrwt>
<rscale>  0 0.90560195E+02</rscale>
<asrwt>0</asrwt>
<pdfrwt beam="2">  1        3 0.68714069E-03 0.90560195E+02</pdfrwt>
<pdfrwt beam="1">  1       -3 0.70622375E-01 0.90560195E+02</pdfrwt>
<totfact> 0.19154932E+04</totfact>
</mgrwt>
</event>
<event>
 5    1  0.6308903E+000  0.9469677E+02  0.7546771E-02  0.1291861E+00
         -1   -1    0    0    0  501 -0.00000000000E+00  0.00000000000E+00  0.21423966336E+02  0.21423966336E+02  0.00000000000E+00 0.  1.
          1   -1    0    0  501    0  0.00000000000E+00 -0.00000000000E+00 -0.10464306760E+03  0.10464306760E+03  0.00000000000E+00 0. -1.
         23    2    1    2    0    0  0.00000000000E+00  0.00000000000E+00 -0.83219101262E+02  0.12606703393E+03  0.94696769903E+02 0.  0.
        -13    1    3    3    0    0 -0.33380991378E+02  0.27500722149E+02 -0.15957472199E+02  0.46100121725E+02  0.00000000000E+00 0. -1.
         13    1    3    3    0    0  0.33380991378E+02 -0.27500722149E+02 -0.67261629063E+02  0.79966912209E+02  0.00000000000E+00 0.  1.
<mgrwt>
<rscale>  0 0.94696770E+02</rscale>
<asrwt>0</asrwt>
<pdfrwt beam="2">  1        1 0.16098934E-01 0.94696770E+02</pdfrwt>
<pdfrwt beam="1">  1       -1 0.32959948E-02 0.94696770E+02</pdfrwt>
<totfact> 0.94902220E+04</totfact>
</mgrwt>
</event>
<event>
 5    1  0.6308903E+000  0.9314833E+02  0.7546771E-02  0.1295402E+00
          2   -1    0    0  501    0  0.00000000000E+00  0.00000000000E+00  0.21101735170E+03  0.21101735170E+03  0.00000000000E+00 0.  1.
         -2   -1    0    0    0  501 -0.00000000000E+00 -0.00000000000E+00 -0.10279499923E+02  0.10279499923E+02  0.00000000000E+00 0. -1.
         23    2    1    2    0    0  0.00000000000E+00  0.00000000000E+00  0.20073785177E+03  0.22129685162E+03  0.93148330109E+02 0.  0.
        -13    1    3    3    0    0 -0.28787001492E+02  0.24880632492E+02  0.16417953687E+03  0.16853088042E+03  0.00000000000E+00 0.  1.
         13    1    3    3    0    0  0.28787001492E+02 -0.24880632492E+02  0.36558314900E+02  0.52765971198E+02  0.00000000000E+00 0. -1.
<mgrwt>
<rscale>  0 0.93148330E+02</rscale>
<asrwt>0</asrwt>
<pdfrwt beam="1">  1        2 0.32464205E-01 0.93148330E+02</pdfrwt>
<pdfrwt beam="2">  1       -2 0.15814617E-02 0.93148330E+02</pdfrwt>
<totfact> 0.14888696E+05</totfact>
</mgrwt>
</event>
<event>
 5    1  0.6308903E+000  0.9126308E+02  0.7546771E-02  0.1299821E+00
         -1   -1    0    0    0  501 -0.00000000000E+00  0.00000000000E+00  0.43868482941E+01  0.43868482941E+01  0.00000000000E+00 0.  1.
          1   -1    0    0  501    0  0.00000000000E+00 -0.00000000000E+00 -0.47465451239E+03  0.47465451239E+03  0.00000000000E+00 0. -1.
         23    2    1    2    0    0  0.00000000000E+00  0.00000000000E+00 -0.47026766409E+03  0.47904136068E+03  0.91263077703E+02 0.  0.
        -13    1    3    3    0    0  0.43223259248E+02  0.14012087985E+02 -0.21308259862E+03  0.21787331774E+03  0.00000000000E+00 0. -1.
         13    1    3    3    0    0 -0.43223259248E+02 -0.14012087985E+02 -0.25718506547E+03  0.26116804294E+03  0.00000000000E+00 0.  1.
<mgrwt>
<rscale>  0 0.91263078E+02</rscale>
<asrwt>0</asrwt>
<pdfrwt beam="2">  1        1 0.73023758E-01 0.91263078E+02</pdfrwt>
<pdfrwt beam="1">  1       -1 0.67489986E-03 0.91263078E+02</pdfrwt>
<totfact> 0.13801849E+05</totfact>
</mgrwt>
</event>
<event>
 5    1  0.6308903E+000  0.9039847E+02  0.7546771E-02  0.1301890E+00
          2   -1    0    0  501    0  0.00000000000E+00  0.00000000000E+00  0.77101789357E+02  0.77101789357E+02  0.00000000000E+00 0. -1.
         -2   -1    0    0    0  501 -0.00000000000E+00 -0.00000000000E+00 -0.26497059580E+02  0.26497059580E+02  0.00000000000E+00 0.  1.
         23    2    1    2    0    0  0.00000000000E+00  0.00000000000E+00  0.50604729777E+02  0.10359884894E+03  0.90398466941E+02 0.  0.
        -13    1    3    3    0    0  0.30959907358E+02  0.19081944232E+02 -0.54558336744E+01  0.36775026585E+02  0.00000000000E+00 0.  1.
         13    1    3    3    0    0 -0.30959907358E+02 -0.19081944232E+02  0.56060563451E+02  0.66823822352E+02  0.00000000000E+00 0. -1.
<mgrwt>
<rscale>  0 0.90398467E+02</rscale>
<asrwt>0</asrwt>
<pdfrwt beam="1">  1        2 0.11861814E-01 0.90398467E+02</pdfrwt>
<pdfrwt beam="2">  1       -2 0.40764707E-02 0.90398467E+02</pdfrwt>
<totfact> 0.11639733E+05</totfact>
</mgrwt>
</event>
<event>
 5    1  0.6308903E+000  0.8750652E+02  0.7546771E-02  0.1309005E+00
          4   -1    0    0  501    0  0.00000000000E+00  0.00000000000E+00  0.98671068166E+01  0.98671068166E+01  0.00000000000E+00 0. -1.
         -4   -1    0    0    0  501 -0.00000000000E+00 -0.00000000000E+00 -0.19401307920E+03  0.19401307920E+03  0.00000000000E+00 0.  1.
         23    2    1    2    0    0  0.00000000000E+00  0.00000000000E+00 -0.18414597238E+03  0.20388018601E+03  0.87506520357E+02 0.  0.
        -13    1    3    3    0    0 -0.28265671485E+02 -0.48210570841E+01 -0.16907057818E+03  0.17148484243E+03  0.00000000000E+00 0.  1.
         13    1    3    3    0    0  0.28265671485E+02  0.48210570841E+01 -0.15075394202E+02  0.32395343589E+02  0.00000000000E+00 0. -1.
<mgrwt>
<rscale>  0 0.87506520E+02</rscale>
<asrwt>0</asrwt>
<pdfrwt beam="1">  1        4 0.15180164E-02 0.87506520E+02</pdfrwt>
<pdfrwt beam="2">  1       -4 0.29848166E-01 0.87506520E+02</pdfrwt>
<totfact> 0.23680554E+04</totfact>
</mgrwt>
</event>
<event>
 5    1  0.6308903E+000  0.9201392E+02  0.7546771E-02  0.1298047E+00
         -3   -1    0    0    0  501 -0.00000000000E+00  0.00000000000E+00  0.26104698637E+03  0.26104698637E+03  0.00000000000E+00 0.  1.
          3   -1    0    0  501    0  0.00000000000E+00 -0.00000000000E+00 -0.81082736410E+01  0.81082736410E+01  0.00000000000E+00 0. -1.
         23    2    1    2    0    0  0.00000000000E+00  0.00000000000E+00  0.25293871273E+03  0.26915526001E+03  0.92013920657E+02 0.  0.
        -13    1    3    3    0    0  0.44789468578E+02  0.31310185681E+01  0.15582905935E+03  0.16216841712E+03  0.00000000000E+00 0. -1.
         13    1    3    3    0    0 -0.44789468578E+02 -0.31310185681E+01  0.97109653383E+02  0.10698684290E+03  0.00000000000E+00 0.  1.
<mgrwt>
<rscale>  0 0.92013921E+02</rscale>
<asrwt>0</asrwt>
<pdfrwt beam="2">  1        3 0.12474269E-02 0.92013921E+02</pdfrwt>
<pdfrwt beam="1">  1       -3 0.40161068E-01 0.92013921E+02</pdfrwt>
<totfact> 0.24655948E+04</totfact>
</mgrwt>
</event>
<event>
 5    1  0.6308903E+000  0.9064617E+02  0.7546771E-02  0.1301294E+00
          1   -1    0    0  501    0  0.00000000000E+00  0.00000000000E+00  0.20476349192E+03  0.20476349192E+03  0.00000000000E+00 0. -1.
         -1   -1    0    0    0  501 -0.00000000000E+00 -0.00000000000E+00 -0.10031974721E+02  0.10031974721E+02  0.00000000000E+00 0.  1.
         23    2    1    2    0    0  0.00000000000E+00  0.00000000000E+00  0.19473151720E+03  0.21479546664E+03  0.90646173107E+02 0.  0.
        -13    1    3    3    0    0  0.12495035470E+02  0.40631705497E+02  0.60115416711E+02  0.73626929376E+02  0.00000000000E+00 0.  1.
         13    1    3    3    0    0 -0.12495035470E+02 -0.40631705497E+02  0.13461610048E+03  0.14116853726E+03  0.00000000000E+00 0. -1.
<mgrwt>
<rscale>  0 0.90646173E+02</rscale>
<asrwt>0</asrwt>
<pdfrwt beam="1">  1        1 0.31502072E-01 0.90646173E+02</pdfrwt>
<pdfrwt beam="2">  1       -1 0.15433809E-02 0.90646173E+02</pdfrwt>
<totfact> 0.12082301E+05</totfact>
</mgrwt>
</event>
<event>
 5    1  0.6308903E+000  0.8898277E+02  0.7546771E-02  0.1305334E+00
         -3   -1    0    0    0  501 -0.00000000000E+00  0.00000000000E+00  0.31882182223E+02  0.31882182223E+02  0.00000000000E+00 0.  1.
          3   -1    0    0  501    0  0.00000000000E+00 -0.00000000000E+00 -0.62087443919E+02  0.62087443919E+02  0.00000000000E+00 0. -1.
         23    2    1    2    0    0  0.00000000000E+00  0.00000000000E+00 -0.30205261696E+02  0.93969626142E+02  0.88982766889E+02 0.  0.
        -13    1    3    3    0    0  0.26521166855E+01 -0.14407211193E+02  0.29262258073E+02  0.32724321304E+02  0.00000000000E+00 0.  1.
         13    1    3    3    0    0 -0.26521166855E+01  0.14407211193E+02 -0.59467519769E+02  0.61245304838E+02  0.00000000000E+00 0. -1.
<mgrwt>
<rscale>  0 0.88982767E+02</rscale>
<asrwt>0</asrwt>
<pdfrwt beam="2">  1        3 0.95519144E-02 0.88982767E+02</pdfrwt>
<pdfrwt beam="1">  1       -3 0.49049511E-02 0.88982767E+02</pdfrwt>
<totfact> 0.37526382E+04</totfact>
</mgrwt>
</event>
<event>
 5    1  0.6308903E+000  0.9059967E+02  0.7546771E-02  0.1301406E+00
          4   -1    0    0  501    0  0.00000000000E+00  0.00000000000E+00  0.34773462060E+02  0.34773462060E+02  0.00000000000E+00 0. -1.
         -4   -1    0    0    0  501 -0.00000000000E+00 -0.00000000000E+00 -0.59012673861E+02  0.59012673861E+02  0.00000000000E+00 0.  1.
         23    2    1    2    0    0  0.00000000000E+00  0.00000000000E+00 -0.24239211801E+02  0.93786135921E+02  0.90599668334E+02 0.  0.
        -13    1    3    3    0    0  0.10654712069E+02  0.44028967901E+02 -0.12166724082E+02  0.46905245747E+02  0.00000000000E+00 0.  1.
         13    1    3    3    0    0 -0.10654712069E+02 -0.44028967901E+02 -0.12072487718E+02  0.46880890173E+02  0.00000000000E+00 0. -1.
<mgrwt>
<rscale>  0 0.90599668E+02</rscale>
<asrwt>0</asrwt>
<pdfrwt beam="1">  1        4 0.53497634E-02 0.90599668E+02</pdfrwt>
<pdfrwt beam="2">  1       -4 0.90788729E-02 0.90599668E+02</pdfrwt>
<totfact> 0.27315029E+04</totfact>
</mgrwt>
</event>
<event>
 5    1  0.6308903E+000  0.8980811E+02  0.7546771E-02  0.1303317E+00
          1   -1    0    0  501    0  0.00000000000E+00  0.00000000000E+00  0.11972187189E+03  0.11972187189E+03  0.00000000000E+00 0. -1.
         -1   -1    0    0    0  501 -0.00000000000E+00 -0.00000000000E+00 -0.16842153381E+02  0.16842153381E+02  0.00000000000E+00 0.  1.
         23    2    1    2    0    0  0.00000000000E+00  0.00000000000E+00  0.10287971851E+03  0.13656402527E+03  0.89808109422E+02 0.  0.
        -13    1    3    3    0    0  0.31184019185E+02  0.24401875939E+02  0.83642542986E+02  0.92541718155E+02  0.00000000000E+00 0. -1.
         13    1    3    3    0    0 -0.31184019185E+02 -0.24401875939E+02  0.19237175524E+02  0.44022307118E+02  0.00000000000E+00 0.  1.
<mgrwt>
<rscale>  0 0.89808109E+02</rscale>
<asrwt>0</asrwt>
<pdfrwt beam="1">  1        1 0.18418749E-01 0.89808109E+02</pdfrwt>
<pdfrwt beam="2">  1       -1 0.25911006E-02 0.89808109E+02</pdfrwt>
<totfact> 0.11219781E+05</totfact>
</mgrwt>
</event>
<event>
 5    1  0.6308903E+000  0.8686928E+02  0.7546771E-02  0.1310615E+00
         -2   -1    0    0    0  501 -0.00000000000E+00  0.00000000000E+00  0.35983270087E+02  0.35983270087E+02  0.00000000000E+00 0.  1.
          2   -1    0    0  501    0  0.00000000000E+00 -0.00000000000E+00 -0.52429029236E+02  0.52429029236E+02  0.00000000000E+00 0. -1.
         23    2    1    2    0    0  0.00000000000E+00  0.00000000000E+00 -0.16445759149E+02  0.88412299324E+02  0.86869279252E+02 0.  0.
        -13    1    3    3    0    0 -0.73912996764E+01  0.16278234588E+02 -0.48510797587E+02  0.51700190664E+02  0.00000000000E+00 0. -1.
         13    1    3    3    0    0  0.73912996764E+01 -0.16278234588E+02  0.32065038438E+02  0.36712108659E+02  0.00000000000E+00 0.  1.
<mgrwt>
<rscale>  0 0.86869279E+02</rscale>
<asrwt>0</asrwt>
<pdfrwt beam="2">  1        2 0.80660044E-02 0.86869279E+02</pdfrwt>
<pdfrwt beam="1">  1       -2 0.55358877E-02 0.86869279E+02</pdfrwt>
<totfact> 0.11735180E+05</totfact>
</mgrwt>
</event>
<event>
 5    1  0.6308903E+000  0.9354763E+02  0.7546771E-02  0.1294481E+00
          2   -1    0    0  501    0  0.00000000000E+00  0.00000000000E+00  0.15232401850E+03  0.15232401850E+03  0.00000000000E+00 0.  1.
         -2   -1    0    0    0  501 -0.00000000000E+00 -0.00000000000E+00 -0.14362737608E+02  0.14362737608E+02  0.00000000000E+00 0. -1.
         23    2    1    2    0    0  0.00000000000E+00  0.00000000000E+00  0.13796128089E+03  0.16668675611E+03  0.93547632983E+02 0.  0.
        -13    1    3    3    0    0  0.11750032851E+02  0.45271785760E+02  0.68199773668E+02  0.82697079672E+02  0.00000000000E+00 0. -1.
         13    1    3    3    0    0 -0.11750032851E+02 -0.45271785760E+02  0.69761507227E+02  0.83989676440E+02  0.00000000000E+00 0.  1.
<mgrwt>
<rscale>  0 0.93547633E+02</rscale>
<asrwt>0</asrwt>
<pdfrwt beam="1">  1        2 0.23434463E-01 0.93547633E+02</pdfrwt>
<pdfrwt beam="2">  1       -2 0.22096520E-02 0.93547633E+02</pdfrwt>
<totfact> 0.13106713E+05</totfact>
</mgrwt>
</event>
<event>
 5    1  0.6308903E+000  0.8988135E+02  0.7546771E-02  0.1303139E+00
         -2   -1    0    0    0  501 -0.00000000000E+00  0.00000000000E+00  0.87876630629E+01  0.87876630629E+01  0.00000000000E+00 0.  1.
          2   -1    0    0  501    0  0.00000000000E+00 -0.00000000000E+00 -0.22982949670E+03  0.22982949670E+03  0.00000000000E+00 0. -1.
         23    2    1    2    0    0  0.00000000000E+00  0.00000000000E+00 -0.22104183364E+03  0.23861715977E+03  0.89881347986E+02 0.  0.
        -13    1    3    3    0    0  0.93790633741E+01 -0.36084705674E+02 -0.17713429775E+03  0.18101555804E+03  0.00000000000E+00 0. -1.
         13    1    3    3    0    0 -0.93790633741E+01  0.36084705674E+02 -0.43907535887E+02  0.57601601723E+02  0.00000000000E+00 0.  1.
<mgrwt>
<rscale>  0 0.89881348E+02</rscale>
<asrwt>0</asrwt>
<pdfrwt beam="2">  1        2 0.35358383E-01 0.89881348E+02</pdfrwt>
<pdfrwt beam="1">  1       -2 0.13519482E-02 0.89881348E+02</pdfrwt>
<totfact> 0.16909078E+05</totfact>
</mgrwt>
</event>
<event>
 5    1  0.6308903E+000  0.9324240E+02  0.7546771E-02  0.1295184E+00
         -2   -1    0    0    0  501 -0.00000000000E+00  0.00000000000E+00  0.24144656431E+02  0.24144656431E+02  0.00000000000E+00 0.  1.
          2   -1    0    0  501    0  0.00000000000E+00 -0.00000000000E+00 -0.90021428484E+02  0.90021428484E+02  0.00000000000E+00 0. -1.
         23    2    1    2    0    0  0.00000000000E+00  0.00000000000E+00 -0.65876772053E+02  0.11416608492E+03  0.93242403705E+02 0.  0.
        -13    1    3    3    0    0  0.26780154431E+00 -0.40053563334E+02 -0.37273308163E+01  0.40227511089E+02  0.00000000000E+00 0.  1.
         13    1    3    3    0    0 -0.26780154431E+00  0.40053563334E+02 -0.62149441237E+02  0.73938573826E+02  0.00000000000E+00 0. -1.
<mgrwt>
<rscale>  0 0.93242404E+02</rscale>
<asrwt>0</asrwt>
<pdfrwt beam="2">  1        2 0.13849450E-01 0.93242404E+02</pdfrwt>
<pdfrwt beam="1">  1       -2 0.37145626E-02 0.93242404E+02</pdfrwt>
<totfact> 0.11170978E+05</totfact>
</mgrwt>
</event>
<event>
 5    1  0.6308903E+000  0.9789896E+02  0.7546771E-02  0.1284777E+00
         -1   -1    0    0    0  501 -0.00000000000E+00  0.00000000000E+00  0.51145383304E+02  0.51145383304E+02  0.00000000000E+00 0.  1.
          1   -1    0    0  501    0  0.00000000000E+00 -0.00000000000E+00 -0.46847856193E+02  0.46847856193E+02  0.00000000000E+00 0. -1.
         23    2    1    2    0    0  0.00000000000E+00  0.00000000000E+00  0.42975271102E+01  0.97993239497E+02  0.97898959381E+02 0.  0.
        -13    1    3    3    0    0 -0.60797212007E+01 -0.94019225948E+01  0.49846436681E+02  0.51088417554E+02  0.00000000000E+00 0.  1.
         13    1    3    3    0    0  0.60797212007E+01  0.94019225948E+01 -0.45548909571E+02  0.46904821943E+02  0.00000000000E+00 0. -1.
<mgrwt>
<rscale>  0 0.97898959E+02</rscale>
<asrwt>0</asrwt>
<pdfrwt beam="2">  1        1 0.72073625E-02 0.97898959E+02</pdfrwt>
<pdfrwt beam="1">  1       -1 0.78685205E-02 0.97898959E+02</pdfrwt>
<totfact> 0.75963983E+04</totfact>
</mgrwt>
</event>
<event>
 5    1  0.6308903E+000  0.8968663E+02  0.7546771E-02  0.1303612E+00
          2   -1    0    0  501    0  0.00000000000E+00  0.00000000000E+00  0.12246535668E+03  0.12246535668E+03  0.00000000000E+00 0. -1.
         -2   -1    0    0    0  501 -0.00000000000E+00 -0.00000000000E+00 -0.16420339547E+02  0.16420339547E+02  0.00000000000E+00 0.  1.
         23    2    1    2    0    0  0.00000000000E+00  0.00000000000E+00  0.10604501714E+03  0.13888569623E+03  0.89686626416E+02 0.  0.
        -13    1    3    3    0    0 -0.17170439147E+02 -0.89475769976E+01 -0.96138845357E+01  0.21617351607E+02  0.00000000000E+00 0.  1.
         13    1    3    3    0    0  0.17170439147E+02  0.89475769976E+01  0.11565890167E+03  0.11726834462E+03  0.00000000000E+00 0. -1.
<mgrwt>
<rscale>  0 0.89686626E+02</rscale>
<asrwt>0</asrwt>
<pdfrwt beam="1">  1        2 0.18840824E-01 0.89686626E+02</pdfrwt>
<pdfrwt beam="2">  1       -2 0.25262062E-02 0.89686626E+02</pdfrwt>
<totfact> 0.13672371E+05</totfact>
</mgrwt>
</event>
<event>
 5    1  0.6308903E+000  0.9147936E+02  0.7546771E-02  0.1299308E+00
         -1   -1    0    0    0  501 -0.00000000000E+00  0.00000000000E+00  0.61417146156E+02  0.61417146156E+02  0.00000000000E+00 0.  1.
          1   -1    0    0  501    0  0.00000000000E+00 -0.00000000000E+00 -0.34064073442E+02  0.34064073442E+02  0.00000000000E+00 0. -1.
         23    2    1    2    0    0  0.00000000000E+00  0.00000000000E+00  0.27353072715E+02  0.95481219598E+02  0.91479356737E+02 0.  0.
        -13    1    3    3    0    0 -0.33484578732E+02  0.30249208416E+02  0.21479301292E+02  0.49975914265E+02  0.00000000000E+00 0.  1.
         13    1    3    3    0    0  0.33484578732E+02 -0.30249208416E+02  0.58737714230E+01  0.45505305333E+02  0.00000000000E+00 0. -1.
<mgrwt>
<rscale>  0 0.91479357E+02</rscale>
<asrwt>0</asrwt>
<pdfrwt beam="2">  1        1 0.52406267E-02 0.91479357E+02</pdfrwt>
<pdfrwt beam="1">  1       -1 0.94487917E-02 0.91479357E+02</pdfrwt>
<totfact> 0.87617509E+04</totfact>
</mgrwt>
</event>
<event>
 5    1  0.6308903E+000  0.9087918E+02  0.7546771E-02  0.1300737E+00
          1   -1    0    0  501    0  0.00000000000E+00  0.00000000000E+00  0.14373126664E+02  0.14373126664E+02  0.00000000000E+00 0. -1.
         -1   -1    0    0    0  501 -0.00000000000E+00 -0.00000000000E+00 -0.14365393089E+03  0.14365393089E+03  0.00000000000E+00 0.  1.
         23    2    1    2    0    0  0.00000000000E+00  0.00000000000E+00 -0.12928080422E+03  0.15802705755E+03  0.90879175711E+02 0.  0.
        -13    1    3    3    0    0  0.22882215427E+02 -0.11436551498E+02 -0.12994337242E+03  0.13243742118E+03  0.00000000000E+00 0.  1.
         13    1    3    3    0    0 -0.22882215427E+02  0.11436551498E+02  0.66256819622E+00  0.25589636372E+02  0.00000000000E+00 0. -1.
<mgrwt>
<rscale>  0 0.90879176E+02</rscale>
<asrwt>0</asrwt>
<pdfrwt beam="1">  1        1 0.22112503E-02 0.90879176E+02</pdfrwt>
<pdfrwt beam="2">  1       -1 0.22100604E-01 0.90879176E+02</pdfrwt>
<totfact> 0.76182261E+04</totfact>
</mgrwt>
</event>
<event>
 5    1  0.6308903E+000  0.9099864E+02  0.7546771E-02  0.1300451E+00
          1   -1    0    0  501    0  0.00000000000E+00  0.00000000000E+00  0.11430903959E+02  0.11430903959E+02  0.00000000000E+00 0.  1.
         -1   -1    0    0    0  501 -0.00000000000E+00 -0.00000000000E+00 -0.18110448425E+03  0.18110448425E+03  0.00000000000E+00 0. -1.
         23    2    1    2    0    0  0.00000000000E+00  0.00000000000E+00 -0.16967358029E+03  0.19253538821E+03  0.90998636606E+02 0.  0.
        -13    1    3    3    0    0 -0.19071690116E+02 -0.40336682807E+02 -0.10369128838E+03  0.11288339395E+03  0.00000000000E+00 0. -1.
         13    1    3    3    0    0  0.19071690116E+02  0.40336682807E+02 -0.65982291914E+02  0.79651994262E+02  0.00000000000E+00 0.  1.
<mgrwt>
<rscale>  0 0.90998637E+02</rscale>
<asrwt>0</asrwt>
<pdfrwt beam="1">  1        1 0.17586006E-02 0.90998637E+02</pdfrwt>
<pdfrwt beam="2">  1       -1 0.27862229E-01 0.90998637E+02</pdfrwt>
<totfact> 0.71717561E+04</totfact>
</mgrwt>
</event>
<event>
 5    1  0.6308903E+000  0.9241079E+02  0.7546771E-02  0.1297116E+00
         -1   -1    0    0    0  501 -0.00000000000E+00  0.00000000000E+00  0.13342865859E+03  0.13342865859E+03  0.00000000000E+00 0.  1.
          1   -1    0    0  501    0  0.00000000000E+00 -0.00000000000E+00 -0.16000600688E+02  0.16000600688E+02  0.00000000000E+00 0. -1.
         23    2    1    2    0    0  0.00000000000E+00  0.00000000000E+00  0.11742805790E+03  0.14942925928E+03  0.92410793450E+02 0.  0.
        -13    1    3    3    0    0 -0.53119129792E+01  0.45279613093E+02  0.46561796195E+02  0.65164872794E+02  0.00000000000E+00 0.  1.
         13    1    3    3    0    0  0.53119129792E+01 -0.45279613093E+02  0.70866261708E+02  0.84264386486E+02  0.00000000000E+00 0. -1.
<mgrwt>
<rscale>  0 0.92410793E+02</rscale>
<asrwt>0</asrwt>
<pdfrwt beam="2">  1        1 0.24616310E-02 0.92410793E+02</pdfrwt>
<pdfrwt beam="1">  1       -1 0.20527485E-01 0.92410793E+02</pdfrwt>
<totfact> 0.74160328E+04</totfact>
</mgrwt>
</event>
<event>
 5    1  0.6308903E+000  0.9117244E+02  0.7546771E-02  0.1300037E+00
          3   -1    0    0  501    0  0.00000000000E+00  0.00000000000E+00  0.19243805868E+02  0.19243805868E+02  0.00000000000E+00 0. -1.
         -3   -1    0    0    0  501 -0.00000000000E+00 -0.00000000000E+00 -0.10798818218E+03  0.10798818218E+03  0.00000000000E+00 0.  1.
         23    2    1    2    0    0  0.00000000000E+00  0.00000000000E+00 -0.88744376308E+02  0.12723198804E+03  0.91172443507E+02 0.  0.
        -13    1    3    3    0    0  0.29530742813E+02 -0.20637319664E+02 -0.53942413724E+01  0.36428856336E+02  0.00000000000E+00 0. -1.
         13    1    3    3    0    0 -0.29530742813E+02  0.20637319664E+02 -0.83350134936E+02  0.90803131707E+02  0.00000000000E+00 0.  1.
<mgrwt>
<rscale>  0 0.91172444E+02</rscale>
<asrwt>0</asrwt>
<pdfrwt beam="1">  1        3 0.29605855E-02 0.91172444E+02</pdfrwt>
<pdfrwt beam="2">  1       -3 0.16613567E-01 0.91172444E+02</pdfrwt>
<totfact> 0.32764816E+04</totfact>
</mgrwt>
</event>
<event>
 5    1  0.6308903E+000  0.9466902E+02  0.7546771E-02  0.1291923E+00
         -1   -1    0    0    0  501 -0.00000000000E+00  0.00000000000E+00  0.10153628713E+03  0.10153628713E+03  0.00000000000E+00 0.  1.
          1   -1    0    0  501    0  0.00000000000E+00 -0.00000000000E+00 -0.22066551180E+02  0.22066551180E+02  0.00000000000E+00 0. -1.
         23    2    1    2    0    0  0.00000000000E+00  0.00000000000E+00  0.79469735949E+02  0.12360283831E+03  0.94669016612E+02 0.  0.
        -13    1    3    3    0    0 -0.32213828448E+02  0.34288252405E+02  0.46536778930E+02  0.66174668790E+02  0.00000000000E+00 0.  1.
         13    1    3    3    0    0  0.32213828448E+02 -0.34288252405E+02  0.32932957018E+02  0.57428169519E+02  0.00000000000E+00 0. -1.
<mgrwt>
<rscale>  0 0.94669017E+02</rscale>
<asrwt>0</asrwt>
<pdfrwt beam="2">  1        1 0.33948541E-02 0.94669017E+02</pdfrwt>
<pdfrwt beam="1">  1       -1 0.15620967E-01 0.94669017E+02</pdfrwt>
<totfact> 0.73640756E+04</totfact>
</mgrwt>
</event>
<event>
 5    1  0.6308903E+000  0.9087198E+02  0.7546771E-02  0.1300754E+00
         -1   -1    0    0    0  501 -0.00000000000E+00  0.00000000000E+00  0.17391702449E+03  0.17391702449E+03  0.00000000000E+00 0.  1.
          1   -1    0    0  501    0  0.00000000000E+00 -0.00000000000E+00 -0.11870195992E+02  0.11870195992E+02  0.00000000000E+00 0. -1.
         23    2    1    2    0    0  0.00000000000E+00  0.00000000000E+00  0.16204682850E+03  0.18578722048E+03  0.90871979553E+02 0.  0.
        -13    1    3    3    0    0 -0.34410774758E+02  0.21492501736E+02  0.39203633936E+02  0.56417674218E+02  0.00000000000E+00 0.  1.
         13    1    3    3    0    0  0.34410774758E+02 -0.21492501736E+02  0.12284319456E+03  0.12936954626E+03  0.00000000000E+00 0. -1.
<mgrwt>
<rscale>  0 0.90871980E+02</rscale>
<asrwt>0</asrwt>
<pdfrwt beam="2">  1        1 0.18261841E-02 0.90871980E+02</pdfrwt>
<pdfrwt beam="1">  1       -1 0.26756464E-01 0.90871980E+02</pdfrwt>
<totfact> 0.72746614E+04</totfact>
</mgrwt>
</event>
<event>
 5    1  0.6308903E+000  0.9254636E+02  0.7546771E-02  0.1296800E+00
          4   -1    0    0  501    0  0.00000000000E+00  0.00000000000E+00  0.50310931805E+02  0.50310931805E+02  0.00000000000E+00 0. -1.
         -4   -1    0    0    0  501 -0.00000000000E+00 -0.00000000000E+00 -0.42559484278E+02  0.42559484278E+02  0.00000000000E+00 0.  1.
         23    2    1    2    0    0  0.00000000000E+00  0.00000000000E+00  0.77514475270E+01  0.92870416083E+02  0.92546362676E+02 0.  0.
        -13    1    3    3    0    0  0.43419862750E+02 -0.15489681133E+02  0.78888025649E+01  0.46770160452E+02  0.00000000000E+00 0. -1.
         13    1    3    3    0    0 -0.43419862750E+02  0.15489681133E+02 -0.13735503788E+00  0.46100255631E+02  0.00000000000E+00 0.  1.
<mgrwt>
<rscale>  0 0.92546363E+02</rscale>
<asrwt>0</asrwt>
<pdfrwt beam="1">  1        4 0.77401434E-02 0.92546363E+02</pdfrwt>
<pdfrwt beam="2">  1       -4 0.65476130E-02 0.92546363E+02</pdfrwt>
<totfact> 0.25837488E+04</totfact>
</mgrwt>
</event>
<event>
 5    1  0.6308903E+000  0.8849735E+02  0.7546771E-02  0.1306532E+00
          1   -1    0    0  501    0  0.00000000000E+00  0.00000000000E+00  0.11401789816E+03  0.11401789816E+03  0.00000000000E+00 0. -1.
         -1   -1    0    0    0  501 -0.00000000000E+00 -0.00000000000E+00 -0.17172260289E+02  0.17172260289E+02  0.00000000000E+00 0.  1.
         23    2    1    2    0    0  0.00000000000E+00  0.00000000000E+00  0.96845637872E+02  0.13119015845E+03  0.88497345155E+02 0.  0.
        -13    1    3    3    0    0 -0.16874958990E+02  0.39410048607E+02  0.64663859154E+02  0.77584346699E+02  0.00000000000E+00 0.  1.
         13    1    3    3    0    0  0.16874958990E+02 -0.39410048607E+02  0.32181778718E+02  0.53605811752E+02  0.00000000000E+00 0. -1.
<mgrwt>
<rscale>  0 0.88497345E+02</rscale>
<asrwt>0</asrwt>
<pdfrwt beam="1">  1        1 0.17541215E-01 0.88497345E+02</pdfrwt>
<pdfrwt beam="2">  1       -1 0.26418863E-02 0.88497345E+02</pdfrwt>
<totfact> 0.11577790E+05</totfact>
</mgrwt>
</event>
<event>
 5    1  0.6308903E+000  0.9210520E+02  0.7546771E-02  0.1297832E+00
         -1   -1    0    0    0  501 -0.00000000000E+00  0.00000000000E+00  0.27520367705E+02  0.27520367705E+02  0.00000000000E+00 0.  1.
          1   -1    0    0  501    0  0.00000000000E+00 -0.00000000000E+00 -0.77064441938E+02  0.77064441938E+02  0.00000000000E+00 0. -1.
         23    2    1    2    0    0  0.00000000000E+00  0.00000000000E+00 -0.49544074233E+02  0.10458480964E+03  0.92105195925E+02 0.  0.
        -13    1    3    3    0    0  0.61530509852E+01 -0.44906067162E+02 -0.15517464026E+02  0.47908314457E+02  0.00000000000E+00 0.  1.
         13    1    3    3    0    0 -0.61530509852E+01  0.44906067162E+02 -0.34026610207E+02  0.56676495186E+02  0.00000000000E+00 0. -1.
<mgrwt>
<rscale>  0 0.92105196E+02</rscale>
<asrwt>0</asrwt>
<pdfrwt beam="2">  1        1 0.11856068E-01 0.92105196E+02</pdfrwt>
<pdfrwt beam="1">  1       -1 0.42339027E-02 0.92105196E+02</pdfrwt>
<totfact> 0.97399195E+04</totfact>
</mgrwt>
</event>
<event>
 5    1  0.6308903E+000  0.9475097E+02  0.7546771E-02  0.1291738E+00
         -4   -1    0    0    0  501 -0.00000000000E+00  0.00000000000E+00  0.26352606687E+03  0.26352606687E+03  0.00000000000E+00 0.  1.
          4   -1    0    0  501    0  0.00000000000E+00 -0.00000000000E+00 -0.85169433897E+01  0.85169433897E+01  0.00000000000E+00 0. -1.
         23    2    1    2    0    0  0.00000000000E+00  0.00000000000E+00  0.25500912348E+03  0.27204301026E+03  0.94750970300E+02 0.  0.
        -13    1    3    3    0    0 -0.31504372044E+02  0.18949801975E+02  0.21329421691E+03  0.21643946826E+03  0.00000000000E+00 0.  1.
         13    1    3    3    0    0  0.31504372044E+02 -0.18949801975E+02  0.41714906566E+02  0.55603541996E+02  0.00000000000E+00 0. -1.
<mgrwt>
<rscale>  0 0.94750970E+02</rscale>
<asrwt>0</asrwt>
<pdfrwt beam="2">  1        4 0.13102992E-02 0.94750970E+02</pdfrwt>
<pdfrwt beam="1">  1       -4 0.40542465E-01 0.94750970E+02</pdfrwt>
<totfact> 0.16881065E+04</totfact>
</mgrwt>
</event>
<event>
 5    1  0.6308903E+000  0.9270012E+02  0.7546771E-02  0.1296442E+00
         -1   -1    0    0    0  501 -0.00000000000E+00  0.00000000000E+00  0.13133418242E+02  0.13133418242E+02  0.00000000000E+00 0.  1.
          1   -1    0    0  501    0  0.00000000000E+00 -0.00000000000E+00 -0.16357720595E+03  0.16357720595E+03  0.00000000000E+00 0. -1.
         23    2    1    2    0    0  0.00000000000E+00  0.00000000000E+00 -0.15044378771E+03  0.17671062419E+03  0.92700115655E+02 0.  0.
        -13    1    3    3    0    0 -0.96921796105E+01 -0.23207617713E+02 -0.14943878573E+03  0.15154036606E+03  0.00000000000E+00 0. -1.
         13    1    3    3    0    0  0.96921796105E+01  0.23207617713E+02 -0.10050019805E+01  0.25170258133E+02  0.00000000000E+00 0.  1.
<mgrwt>
<rscale>  0 0.92700116E+02</rscale>
<asrwt>0</asrwt>
<pdfrwt beam="2">  1        1 0.25165725E-01 0.92700116E+02</pdfrwt>
<pdfrwt beam="1">  1       -1 0.20205258E-02 0.92700116E+02</pdfrwt>
<totfact> 0.10896896E+05</totfact>
</mgrwt>
</event>
<event>
 5    1  0.6308903E+000  0.7130302E+02  0.7546771E-02  0.1355717E+00
          1   -1    0    0  501    0  0.00000000000E+00  0.00000000000E+00  0.11111285705E+02  0.11111285705E+02  0.00000000000E+00 0. -1.
         -1   -1    0    0    0  501 -0.00000000000E+00 -0.00000000000E+00 -0.11439091015E+03  0.11439091015E+03  0.00000000000E+00 0.  1.
         23    2    1    2    0    0  0.00000000000E+00  0.00000000000E+00 -0.10327962444E+03  0.12550219585E+03  0.71303017740E+02 0.  0.
        -13    1    3    3    0    0 -0.14046881246E+02  0.16572771453E+02 -0.10139434935E+03  0.10369563976E+03  0.00000000000E+00 0.  1.
         13    1    3    3    0    0  0.14046881246E+02 -0.16572771453E+02 -0.18852750979E+01  0.21806556092E+02  0.00000000000E+00 0. -1.
<mgrwt>
<rscale>  0 0.71303018E+02</rscale>
<asrwt>0</asrwt>
<pdfrwt beam="1">  1        1 0.17094284E-02 0.71303018E+02</pdfrwt>
<pdfrwt beam="2">  1       -1 0.17598603E-01 0.71303018E+02</pdfrwt>
<totfact> 0.14901840E+05</totfact>
</mgrwt>
</event>
<event>
 5    1  0.6308903E+000  0.8536962E+02  0.7546771E-02  0.1314469E+00
          1   -1    0    0  501    0  0.00000000000E+00  0.00000000000E+00  0.92830834870E+02  0.92830834870E+02  0.00000000000E+00 0. -1.
         -1   -1    0    0    0  501 -0.00000000000E+00 -0.00000000000E+00 -0.19627025084E+02  0.19627025084E+02  0.00000000000E+00 0.  1.
         23    2    1    2    0    0  0.00000000000E+00  0.00000000000E+00  0.73203809786E+02  0.11245785995E+03  0.85369622807E+02 0.  0.
        -13    1    3    3    0    0 -0.12215366040E+02 -0.14438603411E+02  0.87010219677E+02  0.89041938232E+02  0.00000000000E+00 0. -1.
         13    1    3    3    0    0  0.12215366040E+02  0.14438603411E+02 -0.13806409891E+02  0.23415921721E+02  0.00000000000E+00 0.  1.
<mgrwt>
<rscale>  0 0.85369623E+02</rscale>
<asrwt>0</asrwt>
<pdfrwt beam="1">  1        1 0.14281667E-01 0.85369623E+02</pdfrwt>
<pdfrwt beam="2">  1       -1 0.30195424E-02 0.85369623E+02</pdfrwt>
<totfact> 0.12339029E+05</totfact>
</mgrwt>
</event>
<event>
 5    1  0.6308903E+000  0.8986815E+02  0.7546771E-02  0.1303171E+00
         -1   -1    0    0    0  501 -0.00000000000E+00  0.00000000000E+00  0.19896058103E+02  0.19896058103E+02  0.00000000000E+00 0.  1.
          1   -1    0    0  501    0  0.00000000000E+00 -0.00000000000E+00 -0.10148096088E+03  0.10148096088E+03  0.00000000000E+00 0. -1.
         23    2    1    2    0    0  0.00000000000E+00  0.00000000000E+00 -0.81584902773E+02  0.12137701898E+03  0.89868149952E+02 0.  0.
        -13    1    3    3    0    0  0.15889064154E+02  0.74803748060E+01  0.15068919923E+02  0.23140672301E+02  0.00000000000E+00 0.  1.
         13    1    3    3    0    0 -0.15889064154E+02 -0.74803748060E+01 -0.96653822695E+02  0.98236346678E+02  0.00000000000E+00 0. -1.
<mgrwt>
<rscale>  0 0.89868150E+02</rscale>
<asrwt>0</asrwt>
<pdfrwt beam="2">  1        1 0.15612455E-01 0.89868150E+02</pdfrwt>
<pdfrwt beam="1">  1       -1 0.30609320E-02 0.89868150E+02</pdfrwt>
<totfact> 0.10890792E+05</totfact>
</mgrwt>
</event>
<event>
 5    1  0.6308903E+000  0.9253998E+02  0.7546771E-02  0.1296815E+00
          1   -1    0    0  501    0  0.00000000000E+00  0.00000000000E+00  0.55700259335E+02  0.55700259335E+02  0.00000000000E+00 0. -1.
         -1   -1    0    0    0  501 -0.00000000000E+00 -0.00000000000E+00 -0.38436304866E+02  0.38436304866E+02  0.00000000000E+00 0.  1.
         23    2    1    2    0    0  0.00000000000E+00  0.00000000000E+00  0.17263954470E+02  0.94136564201E+02  0.92539983767E+02 0.  0.
        -13    1    3    3    0    0  0.46060815253E+01  0.33980026352E+02 -0.22969306513E+02  0.41272838763E+02  0.00000000000E+00 0.  1.
         13    1    3    3    0    0 -0.46060815253E+01 -0.33980026352E+02  0.40233260983E+02  0.52863725438E+02  0.00000000000E+00 0. -1.
<mgrwt>
<rscale>  0 0.92539984E+02</rscale>
<asrwt>0</asrwt>
<pdfrwt beam="1">  1        1 0.85692706E-02 0.92539984E+02</pdfrwt>
<pdfrwt beam="2">  1       -1 0.59132777E-02 0.92539984E+02</pdfrwt>
<totfact> 0.91434091E+04</totfact>
</mgrwt>
</event>
<event>
 5    1  0.6308903E+000  0.9252523E+02  0.7546771E-02  0.1296849E+00
         -1   -1    0    0    0  501 -0.00000000000E+00  0.00000000000E+00  0.89135713600E+01  0.89135713600E+01  0.00000000000E+00 0.  1.
          1   -1    0    0  501    0  0.00000000000E+00 -0.00000000000E+00 -0.24010908464E+03  0.24010908464E+03  0.00000000000E+00 0. -1.
         23    2    1    2    0    0  0.00000000000E+00  0.00000000000E+00 -0.23119551328E+03  0.24902265600E+03  0.92525228130E+02 0.  0.
        -13    1    3    3    0    0 -0.78069408765E+01 -0.36634142121E+02 -0.18867421246E+03  0.19235635456E+03  0.00000000000E+00 0. -1.
         13    1    3    3    0    0  0.78069408765E+01  0.36634142121E+02 -0.42521300824E+02  0.56666301437E+02  0.00000000000E+00 0.  1.
<mgrwt>
<rscale>  0 0.92525228E+02</rscale>
<asrwt>0</asrwt>
<pdfrwt beam="2">  1        1 0.36939859E-01 0.92525228E+02</pdfrwt>
<pdfrwt beam="1">  1       -1 0.13713187E-02 0.92525228E+02</pdfrwt>
<totfact> 0.11797188E+05</totfact>
</mgrwt>
</event>
<event>
 5    1  0.6308903E+000  0.9635174E+02  0.7546771E-02  0.1288160E+00
         -3   -1    0    0    0  501 -0.00000000000E+00  0.00000000000E+00  0.32569231539E+03  0.32569231539E+03  0.00000000000E+00 0.  1.
          3   -1    0    0  501    0  0.00000000000E+00 -0.00000000000E+00 -0.71260955805E+01  0.71260955805E+01  0.00000000000E+00 0. -1.
         23    2    1    2    0    0  0.00000000000E+00  0.00000000000E+00  0.31856621981E+03  0.33281841097E+03  0.96351742471E+02 0.  0.
        -13    1    3    3    0    0  0.14419158384E+02  0.41810346800E+02  0.22526627123E+03  0.22956678806E+03  0.00000000000E+00 0. -1.
         13    1    3    3    0    0 -0.14419158384E+02 -0.41810346800E+02  0.93299948585E+02  0.10325162291E+03  0.00000000000E+00 0.  1.
<mgrwt>
<rscale>  0 0.96351742E+02</rscale>
<asrwt>0</asrwt>
<pdfrwt beam="2">  1        3 0.10963226E-02 0.96351742E+02</pdfrwt>
<pdfrwt beam="1">  1       -3 0.50106499E-01 0.96351742E+02</pdfrwt>
<totfact> 0.19655311E+04</totfact>
</mgrwt>
</event>
<event>
 5    1  0.6308903E+000  0.9150679E+02  0.7546771E-02  0.1299243E+00
         -2   -1    0    0    0  501 -0.00000000000E+00  0.00000000000E+00  0.40501306273E+02  0.40501306273E+02  0.00000000000E+00 0. -1.
          2   -1    0    0  501    0  0.00000000000E+00 -0.00000000000E+00 -0.51686560436E+02  0.51686560436E+02  0.00000000000E+00 0.  1.
         23    2    1    2    0    0  0.00000000000E+00  0.00000000000E+00 -0.11185254163E+02  0.92187866710E+02  0.91506791320E+02 0.  0.
        -13    1    3    3    0    0  0.45523869698E+02  0.33925062069E+00 -0.99407111847E+00  0.45535985557E+02  0.00000000000E+00 0.  1.
         13    1    3    3    0    0 -0.45523869698E+02 -0.33925062069E+00 -0.10191183044E+02  0.46651881153E+02  0.00000000000E+00 0. -1.
<mgrwt>
<rscale>  0 0.91506791E+02</rscale>
<asrwt>0</asrwt>
<pdfrwt beam="2">  1        2 0.79517785E-02 0.91506791E+02</pdfrwt>
<pdfrwt beam="1">  1       -2 0.62309702E-02 0.91506791E+02</pdfrwt>
<totfact> 0.10091503E+05</totfact>
</mgrwt>
</event>
<event>
 5    1  0.6308903E+000  0.9261397E+02  0.7546771E-02  0.1296642E+00
          1   -1    0    0  501    0  0.00000000000E+00  0.00000000000E+00  0.50401084125E+03  0.50401084125E+03  0.00000000000E+00 0. -1.
         -1   -1    0    0    0  501 -0.00000000000E+00 -0.00000000000E+00 -0.42545453465E+01  0.42545453465E+01  0.00000000000E+00 0.  1.
         23    2    1    2    0    0  0.00000000000E+00  0.00000000000E+00  0.49975629590E+03  0.50826538660E+03  0.92613972579E+02 0.  0.
        -13    1    3    3    0    0 -0.25480885072E+01 -0.46098016926E+02  0.26952568987E+03  0.27345130721E+03  0.00000000000E+00 0.  1.
         13    1    3    3    0    0  0.25480885072E+01  0.46098016926E+02  0.23023060604E+03  0.23481407938E+03  0.00000000000E+00 0. -1.
<mgrwt>
<rscale>  0 0.92613973E+02</rscale>
<asrwt>0</asrwt>
<pdfrwt beam="1">  1        1 0.77540082E-01 0.92613973E+02</pdfrwt>
<pdfrwt beam="2">  1       -1 0.65454584E-03 0.92613973E+02</pdfrwt>
<totfact> 0.13373059E+05</totfact>
</mgrwt>
</event>
<event>
 5    1  0.6308903E+000  0.8944934E+02  0.7546771E-02  0.1304191E+00
          2   -1    0    0  501    0  0.00000000000E+00  0.00000000000E+00  0.53588431400E+01  0.53588431400E+01  0.00000000000E+00 0.  1.
         -2   -1    0    0    0  501 -0.00000000000E+00 -0.00000000000E+00 -0.37327017633E+03  0.37327017633E+03  0.00000000000E+00 0. -1.
         23    2    1    2    0    0  0.00000000000E+00  0.00000000000E+00 -0.36791133319E+03  0.37862901947E+03  0.89449344856E+02 0.  0.
        -13    1    3    3    0    0  0.16051457054E+02 -0.41711375941E+02 -0.17686236827E+03  0.18242199831E+03  0.00000000000E+00 0. -1.
         13    1    3    3    0    0 -0.16051457054E+02  0.41711375941E+02 -0.19104896492E+03  0.19620702116E+03  0.00000000000E+00 0.  1.
<mgrwt>
<rscale>  0 0.89449345E+02</rscale>
<asrwt>0</asrwt>
<pdfrwt beam="1">  1        2 0.82443730E-03 0.89449345E+02</pdfrwt>
<pdfrwt beam="2">  1       -2 0.57426188E-01 0.89449345E+02</pdfrwt>
<totfact> 0.46952643E+04</totfact>
</mgrwt>
</event>
<event>
 5    1  0.6308903E+000  0.9245682E+02  0.7546771E-02  0.1297009E+00
         -4   -1    0    0    0  501 -0.00000000000E+00  0.00000000000E+00  0.12897826163E+03  0.12897826163E+03  0.00000000000E+00 0.  1.
          4   -1    0    0  501    0  0.00000000000E+00 -0.00000000000E+00 -0.16569192944E+02  0.16569192944E+02  0.00000000000E+00 0. -1.
         23    2    1    2    0    0  0.00000000000E+00  0.00000000000E+00  0.11240906869E+03  0.14554745458E+03  0.92456815922E+02 0.  0.
        -13    1    3    3    0    0 -0.38132579121E+02 -0.24819435542E+02  0.43322084045E+02  0.62824365791E+02  0.00000000000E+00 0. -1.
         13    1    3    3    0    0  0.38132579121E+02  0.24819435542E+02  0.69086984642E+02  0.82723088784E+02  0.00000000000E+00 0.  1.
<mgrwt>
<rscale>  0 0.92456816E+02</rscale>
<asrwt>0</asrwt>
<pdfrwt beam="2">  1        4 0.25491067E-02 0.92456816E+02</pdfrwt>
<pdfrwt beam="1">  1       -4 0.19842809E-01 0.92456816E+02</pdfrwt>
<totfact> 0.23015853E+04</totfact>
</mgrwt>
</event>
<event>
 5    1  0.6308903E+000  0.9038125E+02  0.7546771E-02  0.1301931E+00
         -3   -1    0    0    0  501 -0.00000000000E+00  0.00000000000E+00  0.12708903805E+02  0.12708903805E+02  0.00000000000E+00 0.  1.
          3   -1    0    0  501    0  0.00000000000E+00 -0.00000000000E+00 -0.16068991854E+03  0.16068991854E+03  0.00000000000E+00 0. -1.
         23    2    1    2    0    0  0.00000000000E+00  0.00000000000E+00 -0.14798101474E+03  0.17339882235E+03  0.90381252862E+02 0.  0.
        -13    1    3    3    0    0 -0.21524937801E+02 -0.38218518301E+02 -0.94849983526E+02  0.10450118403E+03  0.00000000000E+00 0. -1.
         13    1    3    3    0    0  0.21524937801E+02  0.38218518301E+02 -0.53131031213E+02  0.68897638321E+02  0.00000000000E+00 0.  1.
<mgrwt>
<rscale>  0 0.90381253E+02</rscale>
<asrwt>0</asrwt>
<pdfrwt beam="2">  1        3 0.24721524E-01 0.90381253E+02</pdfrwt>
<pdfrwt beam="1">  1       -3 0.19552161E-02 0.90381253E+02</pdfrwt>
<totfact> 0.30650310E+04</totfact>
</mgrwt>
</event>
<event>
 5    1  0.6308903E+000  0.8163863E+02  0.7546771E-02  0.1324465E+00
          3   -1    0    0  501    0  0.00000000000E+00  0.00000000000E+00  0.30013898341E+02  0.30013898341E+02  0.00000000000E+00 0. -1.
         -3   -1    0    0    0  501 -0.00000000000E+00 -0.00000000000E+00 -0.55514834399E+02  0.55514834399E+02  0.00000000000E+00 0.  1.
         23    2    1    2    0    0  0.00000000000E+00  0.00000000000E+00 -0.25500936058E+02  0.85528732740E+02  0.81638632915E+02 0.  0.
        -13    1    3    3    0    0  0.34695227807E+01 -0.39303142770E+02 -0.17905255024E+01  0.39496589745E+02  0.00000000000E+00 0. -1.
         13    1    3    3    0    0 -0.34695227807E+01  0.39303142770E+02 -0.23710410556E+02  0.46032142994E+02  0.00000000000E+00 0.  1.
<mgrwt>
<rscale>  0 0.81638633E+02</rscale>
<asrwt>0</asrwt>
<pdfrwt beam="1">  1        3 0.46175228E-02 0.81638633E+02</pdfrwt>
<pdfrwt beam="2">  1       -3 0.85407437E-02 0.81638633E+02</pdfrwt>
<totfact> 0.48246585E+04</totfact>
</mgrwt>
</event>
<event>
 5    1  0.6308903E+000  0.9150488E+02  0.7546771E-02  0.1299248E+00
         -3   -1    0    0    0  501 -0.00000000000E+00  0.00000000000E+00  0.21673077389E+03  0.21673077389E+03  0.00000000000E+00 0.  1.
          3   -1    0    0  501    0  0.00000000000E+00 -0.00000000000E+00 -0.96584617526E+01  0.96584617526E+01  0.00000000000E+00 0. -1.
         23    2    1    2    0    0  0.00000000000E+00  0.00000000000E+00  0.20707231213E+03  0.22638923564E+03  0.91504882715E+02 0.  0.
        -13    1    3    3    0    0  0.23756407087E+02  0.28227014049E+02  0.17048035189E+03  0.17442672267E+03  0.00000000000E+00 0.  1.
         13    1    3    3    0    0 -0.23756407087E+02 -0.28227014049E+02  0.36591960242E+02  0.51962512970E+02  0.00000000000E+00 0. -1.
<mgrwt>
<rscale>  0 0.91504883E+02</rscale>
<asrwt>0</asrwt>
<pdfrwt beam="2">  1        3 0.14859174E-02 0.91504883E+02</pdfrwt>
<pdfrwt beam="1">  1       -3 0.33343192E-01 0.91504883E+02</pdfrwt>
<totfact> 0.26924423E+04</totfact>
</mgrwt>
</event>
<event>
 5    1  0.6308903E+000  0.9667122E+02  0.7546771E-02  0.1287456E+00
          4   -1    0    0  501    0  0.00000000000E+00  0.00000000000E+00  0.25644477550E+03  0.25644477550E+03  0.00000000000E+00 0. -1.
         -4   -1    0    0    0  501 -0.00000000000E+00 -0.00000000000E+00 -0.91104644621E+01  0.91104644621E+01  0.00000000000E+00 0.  1.
         23    2    1    2    0    0  0.00000000000E+00  0.00000000000E+00  0.24733431104E+03  0.26555523996E+03  0.96671216268E+02 0.  0.
        -13    1    3    3    0    0  0.20221233152E+02  0.40352259721E+02  0.17117727673E+03  0.17702785996E+03  0.00000000000E+00 0. -1.
         13    1    3    3    0    0 -0.20221233152E+02 -0.40352259721E+02  0.76157034312E+02  0.88527380002E+02  0.00000000000E+00 0.  1.
<mgrwt>
<rscale>  0 0.96671216E+02</rscale>
<asrwt>0</asrwt>
<pdfrwt beam="1">  1        4 0.39453037E-01 0.96671216E+02</pdfrwt>
<pdfrwt beam="2">  1       -4 0.14016101E-02 0.96671216E+02</pdfrwt>
<totfact> 0.16180840E+04</totfact>
</mgrwt>
</event>
<event>
 5    1  0.6308903E+000  0.1046263E+03  0.7546771E-02  0.1270858E+00
          1   -1    0    0  501    0  0.00000000000E+00  0.00000000000E+00  0.18065324333E+03  0.18065324333E+03  0.00000000000E+00 0. -1.
         -1   -1    0    0    0  501 -0.00000000000E+00 -0.00000000000E+00 -0.15148729122E+02  0.15148729122E+02  0.00000000000E+00 0.  1.
         23    2    1    2    0    0  0.00000000000E+00  0.00000000000E+00  0.16550451421E+03  0.19580197245E+03  0.10462632648E+03 0.  0.
        -13    1    3    3    0    0 -0.27935257839E+02  0.36018343275E+02  0.13079281464E+03  0.13850797826E+03  0.00000000000E+00 0. -1.
         13    1    3    3    0    0  0.27935257839E+02 -0.36018343275E+02  0.34711699576E+02  0.57293994190E+02  0.00000000000E+00 0.  1.
<mgrwt>
<rscale>  0 0.10462633E+03</rscale>
<asrwt>0</asrwt>
<pdfrwt beam="1">  1        1 0.27792805E-01 0.10462633E+03</pdfrwt>
<pdfrwt beam="2">  1       -1 0.23305738E-02 0.10462633E+03</pdfrwt>
<totfact> 0.79974171E+04</totfact>
</mgrwt>
</event>
<event>
 5    1  0.6308903E+000  0.8616046E+02  0.7546771E-02  0.1312425E+00
         -1   -1    0    0    0  501 -0.00000000000E+00  0.00000000000E+00  0.26429419591E+02  0.26429419591E+02  0.00000000000E+00 0.  1.
          1   -1    0    0  501    0  0.00000000000E+00 -0.00000000000E+00 -0.70221226028E+02  0.70221226028E+02  0.00000000000E+00 0. -1.
         23    2    1    2    0    0  0.00000000000E+00  0.00000000000E+00 -0.43791806437E+02  0.96650645620E+02  0.86160460698E+02 0.  0.
        -13    1    3    3    0    0  0.28310526410E+02  0.18674670073E+02  0.79029629945E+01  0.34823641855E+02  0.00000000000E+00 0.  1.
         13    1    3    3    0    0 -0.28310526410E+02 -0.18674670073E+02 -0.51694769432E+02  0.61827003765E+02  0.00000000000E+00 0. -1.
<mgrwt>
<rscale>  0 0.86160461E+02</rscale>
<asrwt>0</asrwt>
<pdfrwt beam="2">  1        1 0.10803265E-01 0.86160461E+02</pdfrwt>
<pdfrwt beam="1">  1       -1 0.40660646E-02 0.86160461E+02</pdfrwt>
<totfact> 0.11529863E+05</totfact>
</mgrwt>
</event>
<event>
 5    1  0.6308903E+000  0.9173243E+02  0.7546771E-02  0.1298710E+00
         -1   -1    0    0    0  501 -0.00000000000E+00  0.00000000000E+00  0.19532105919E+02  0.19532105919E+02  0.00000000000E+00 0.  1.
          1   -1    0    0  501    0  0.00000000000E+00 -0.00000000000E+00 -0.10770522029E+03  0.10770522029E+03  0.00000000000E+00 0. -1.
         23    2    1    2    0    0  0.00000000000E+00  0.00000000000E+00 -0.88173114370E+02  0.12723732621E+03  0.91732432012E+02 0.  0.
        -13    1    3    3    0    0 -0.40597894801E+02 -0.18958767054E+02 -0.57682876880E+02  0.73040661248E+02  0.00000000000E+00 0.  1.
         13    1    3    3    0    0  0.40597894801E+02  0.18958767054E+02 -0.30490237491E+02  0.54196664959E+02  0.00000000000E+00 0. -1.
<mgrwt>
<rscale>  0 0.91732432E+02</rscale>
<asrwt>0</asrwt>
<pdfrwt beam="2">  1        1 0.16570034E-01 0.91732432E+02</pdfrwt>
<pdfrwt beam="1">  1       -1 0.30049394E-02 0.91732432E+02</pdfrwt>
<totfact> 0.10402491E+05</totfact>
</mgrwt>
</event>
<event>
 5    1  0.6308903E+000  0.9240219E+02  0.7546771E-02  0.1297137E+00
         -1   -1    0    0    0  501 -0.00000000000E+00  0.00000000000E+00  0.24615575152E+02  0.24615575152E+02  0.00000000000E+00 0.  1.
          1   -1    0    0  501    0  0.00000000000E+00 -0.00000000000E+00 -0.86715073296E+02  0.86715073296E+02  0.00000000000E+00 0. -1.
         23    2    1    2    0    0  0.00000000000E+00  0.00000000000E+00 -0.62099498144E+02  0.11133064845E+03  0.92402194856E+02 0.  0.
        -13    1    3    3    0    0 -0.55710676046E+00  0.45771613008E+02 -0.38592377839E+02  0.59872552581E+02  0.00000000000E+00 0. -1.
         13    1    3    3    0    0  0.55710676046E+00 -0.45771613008E+02 -0.23507120304E+02  0.51458095867E+02  0.00000000000E+00 0.  1.
<mgrwt>
<rscale>  0 0.92402195E+02</rscale>
<asrwt>0</asrwt>
<pdfrwt beam="2">  1        1 0.13340780E-01 0.92402195E+02</pdfrwt>
<pdfrwt beam="1">  1       -1 0.37870116E-02 0.92402195E+02</pdfrwt>
<totfact> 0.98376975E+04</totfact>
</mgrwt>
</event>
<event>
 5    1  0.6308903E+000  0.8862075E+02  0.7546771E-02  0.1306227E+00
          2   -1    0    0  501    0  0.00000000000E+00  0.00000000000E+00  0.71592105900E+02  0.71592105900E+02  0.00000000000E+00 0. -1.
         -2   -1    0    0    0  501 -0.00000000000E+00 -0.00000000000E+00 -0.27424939189E+02  0.27424939189E+02  0.00000000000E+00 0.  1.
         23    2    1    2    0    0  0.00000000000E+00  0.00000000000E+00  0.44167166712E+02  0.99017045089E+02  0.88620745894E+02 0.  0.
        -13    1    3    3    0    0 -0.37053778446E+02  0.23384217778E+02  0.29461653308E+02  0.52799556379E+02  0.00000000000E+00 0. -1.
         13    1    3    3    0    0  0.37053778446E+02 -0.23384217778E+02  0.14705513403E+02  0.46217488710E+02  0.00000000000E+00 0.  1.
<mgrwt>
<rscale>  0 0.88620746E+02</rscale>
<asrwt>0</asrwt>
<pdfrwt beam="1">  1        2 0.11014170E-01 0.88620746E+02</pdfrwt>
<pdfrwt beam="2">  1       -2 0.42192214E-02 0.88620746E+02</pdfrwt>
<totfact> 0.12048814E+05</totfact>
</mgrwt>
</event>
<event>
 5    1  0.6308903E+000  0.9397549E+02  0.7546771E-02  0.1293500E+00
          1   -1    0    0  501    0  0.00000000000E+00  0.00000000000E+00  0.17041612961E+03  0.17041612961E+03  0.00000000000E+00 0. -1.
         -1   -1    0    0    0  501 -0.00000000000E+00 -0.00000000000E+00 -0.12955628714E+02  0.12955628714E+02  0.00000000000E+00 0.  1.
         23    2    1    2    0    0  0.00000000000E+00  0.00000000000E+00  0.15746050090E+03  0.18337175833E+03  0.93975488337E+02 0.  0.
        -13    1    3    3    0    0 -0.78121837224E+01 -0.44966296725E+02  0.10053304750E+03  0.11040784254E+03  0.00000000000E+00 0. -1.
         13    1    3    3    0    0  0.78121837224E+01  0.44966296725E+02  0.56927453399E+02  0.72963915782E+02  0.00000000000E+00 0.  1.
<mgrwt>
<rscale>  0 0.93975488E+02</rscale>
<asrwt>0</asrwt>
<pdfrwt beam="1">  1        1 0.26217864E-01 0.93975488E+02</pdfrwt>
<pdfrwt beam="2">  1       -1 0.19931738E-02 0.93975488E+02</pdfrwt>
<totfact> 0.10583766E+05</totfact>
</mgrwt>
</event>
<event>
 5    1  0.6308903E+000  0.9099019E+02  0.7546771E-02  0.1300471E+00
          1   -1    0    0  501    0  0.00000000000E+00  0.00000000000E+00  0.16057248276E+03  0.16057248276E+03  0.00000000000E+00 0. -1.
         -1   -1    0    0    0  501 -0.00000000000E+00 -0.00000000000E+00 -0.12890151516E+02  0.12890151516E+02  0.00000000000E+00 0.  1.
         23    2    1    2    0    0  0.00000000000E+00  0.00000000000E+00  0.14768233124E+03  0.17346263427E+03  0.90990189187E+02 0.  0.
        -13    1    3    3    0    0 -0.22624344163E+02 -0.38797090554E+02  0.59998049468E+02  0.74945587757E+02  0.00000000000E+00 0.  1.
         13    1    3    3    0    0  0.22624344163E+02  0.38797090554E+02  0.87684281775E+02  0.98517046518E+02  0.00000000000E+00 0. -1.
<mgrwt>
<rscale>  0 0.90990189E+02</rscale>
<asrwt>0</asrwt>
<pdfrwt beam="1">  1        1 0.24703457E-01 0.90990189E+02</pdfrwt>
<pdfrwt beam="2">  1       -1 0.19831003E-02 0.90990189E+02</pdfrwt>
<totfact> 0.11418434E+05</totfact>
</mgrwt>
</event>
<event>
 5    1  0.6308903E+000  0.9012825E+02  0.7546771E-02  0.1302541E+00
         -1   -1    0    0    0  501 -0.00000000000E+00  0.00000000000E+00  0.10884695659E+03  0.10884695659E+03  0.00000000000E+00 0.  1.
          1   -1    0    0  501    0  0.00000000000E+00 -0.00000000000E+00 -0.18657160714E+02  0.18657160714E+02  0.00000000000E+00 0. -1.
         23    2    1    2    0    0  0.00000000000E+00  0.00000000000E+00  0.90189795881E+02  0.12750411731E+03  0.90128245570E+02 0.  0.
        -13    1    3    3    0    0  0.23349657682E+02  0.21912104608E+02  0.89952788684E+02  0.95482202710E+02  0.00000000000E+00 0.  1.
         13    1    3    3    0    0 -0.23349657682E+02 -0.21912104608E+02  0.23700719655E+00  0.32021914599E+02  0.00000000000E+00 0. -1.
<mgrwt>
<rscale>  0 0.90128246E+02</rscale>
<asrwt>0</asrwt>
<pdfrwt beam="2">  1        1 0.28703325E-02 0.90128246E+02</pdfrwt>
<pdfrwt beam="1">  1       -1 0.16745685E-01 0.90128246E+02</pdfrwt>
<totfact> 0.82494572E+04</totfact>
</mgrwt>
</event>
<event>
 5    1  0.6308903E+000  0.9056291E+02  0.7546771E-02  0.1301494E+00
          1   -1    0    0  501    0  0.00000000000E+00  0.00000000000E+00  0.69777386320E+01  0.69777386320E+01  0.00000000000E+00 0. -1.
         -1   -1    0    0    0  501 -0.00000000000E+00 -0.00000000000E+00 -0.29385025350E+03  0.29385025350E+03  0.00000000000E+00 0.  1.
         23    2    1    2    0    0  0.00000000000E+00  0.00000000000E+00 -0.28687251487E+03  0.30082799213E+03  0.90562912185E+02 0.  0.
        -13    1    3    3    0    0  0.54129037250E+01 -0.42111727332E+02 -0.19571707922E+03  0.20026949894E+03  0.00000000000E+00 0.  1.
         13    1    3    3    0    0 -0.54129037250E+01  0.42111727332E+02 -0.91155435643E+02  0.10055849319E+03  0.00000000000E+00 0. -1.
<mgrwt>
<rscale>  0 0.90562912E+02</rscale>
<asrwt>0</asrwt>
<pdfrwt beam="1">  1        1 0.10734982E-02 0.90562912E+02</pdfrwt>
<pdfrwt beam="2">  1       -1 0.45207735E-01 0.90562912E+02</pdfrwt>
<totfact> 0.62166145E+04</totfact>
</mgrwt>
</event>
<event>
 5    1  0.6308903E+000  0.9816204E+02  0.7546771E-02  0.1284209E+00
          2   -1    0    0  501    0  0.00000000000E+00  0.00000000000E+00  0.92905010944E+02  0.92905010944E+02  0.00000000000E+00 0. -1.
         -2   -1    0    0    0  501 -0.00000000000E+00 -0.00000000000E+00 -0.25929133360E+02  0.25929133360E+02  0.00000000000E+00 0.  1.
         23    2    1    2    0    0  0.00000000000E+00  0.00000000000E+00  0.66975877584E+02  0.11883414430E+03  0.98162037848E+02 0.  0.
        -13    1    3    3    0    0  0.31513535581E+02  0.39633499971E+01  0.78786320588E+02  0.84947603732E+02  0.00000000000E+00 0. -1.
         13    1    3    3    0    0 -0.31513535581E+02 -0.39633499971E+01 -0.11810443004E+02  0.33886540573E+02  0.00000000000E+00 0.  1.
<mgrwt>
<rscale>  0 0.98162038E+02</rscale>
<asrwt>0</asrwt>
<pdfrwt beam="1">  1        2 0.14293078E-01 0.98162038E+02</pdfrwt>
<pdfrwt beam="2">  1       -2 0.39890975E-02 0.98162038E+02</pdfrwt>
<totfact> 0.97732755E+04</totfact>
</mgrwt>
</event>
<event>
 5    1  0.6308903E+000  0.9134635E+02  0.7546771E-02  0.1299624E+00
          1   -1    0    0  501    0  0.00000000000E+00  0.00000000000E+00  0.25198701860E+02  0.25198701860E+02  0.00000000000E+00 0. -1.
         -1   -1    0    0    0  501 -0.00000000000E+00 -0.00000000000E+00 -0.82783578370E+02  0.82783578370E+02  0.00000000000E+00 0.  1.
         23    2    1    2    0    0  0.00000000000E+00  0.00000000000E+00 -0.57584876510E+02  0.10798228023E+03  0.91346345526E+02 0.  0.
        -13    1    3    3    0    0 -0.14016556408E+02  0.15449767915E+01 -0.80145801155E+02  0.81376902433E+02  0.00000000000E+00 0.  1.
         13    1    3    3    0    0  0.14016556408E+02 -0.15449767915E+01  0.22560924645E+02  0.26605377796E+02  0.00000000000E+00 0. -1.
<mgrwt>
<rscale>  0 0.91346346E+02</rscale>
<asrwt>0</asrwt>
<pdfrwt beam="1">  1        1 0.38767233E-02 0.91346346E+02</pdfrwt>
<pdfrwt beam="2">  1       -1 0.12735935E-01 0.91346346E+02</pdfrwt>
<totfact> 0.83759368E+04</totfact>
</mgrwt>
</event>
<event>
 5    1  0.6308903E+000  0.9300070E+02  0.7546771E-02  0.1295744E+00
          2   -1    0    0  501    0  0.00000000000E+00  0.00000000000E+00  0.36284568642E+02  0.36284568642E+02  0.00000000000E+00 0. -1.
         -2   -1    0    0    0  501 -0.00000000000E+00 -0.00000000000E+00 -0.59592342924E+02  0.59592342924E+02  0.00000000000E+00 0.  1.
         23    2    1    2    0    0  0.00000000000E+00  0.00000000000E+00 -0.23307774281E+02  0.95876911566E+02  0.93000698005E+02 0.  0.
        -13    1    3    3    0    0  0.43778912820E+02 -0.17144425559E+01  0.44084001762E+01  0.44033697472E+02  0.00000000000E+00 0. -1.
         13    1    3    3    0    0 -0.43778912820E+02  0.17144425559E+01 -0.27716174457E+02  0.51843214093E+02  0.00000000000E+00 0.  1.
<mgrwt>
<rscale>  0 0.93000698E+02</rscale>
<asrwt>0</asrwt>
<pdfrwt beam="1">  1        2 0.55822414E-02 0.93000698E+02</pdfrwt>
<pdfrwt beam="2">  1       -2 0.91680527E-02 0.93000698E+02</pdfrwt>
<totfact> 0.87766100E+04</totfact>
</mgrwt>
</event>
<event>
 5    1  0.6308903E+000  0.9687858E+02  0.7546771E-02  0.1287000E+00
         -1   -1    0    0    0  501 -0.00000000000E+00  0.00000000000E+00  0.86255888600E+01  0.86255888600E+01  0.00000000000E+00 0.  1.
          1   -1    0    0  501    0  0.00000000000E+00 -0.00000000000E+00 -0.27202372109E+03  0.27202372109E+03  0.00000000000E+00 0. -1.
         23    2    1    2    0    0  0.00000000000E+00  0.00000000000E+00 -0.26339813223E+03  0.28064930995E+03  0.96878579228E+02 0.  0.
        -13    1    3    3    0    0  0.28249899873E+02  0.33190881954E+02 -0.19292440671E+03  0.19778654704E+03  0.00000000000E+00 0. -1.
         13    1    3    3    0    0 -0.28249899873E+02 -0.33190881954E+02 -0.70473725526E+02  0.82862762911E+02  0.00000000000E+00 0.  1.
<mgrwt>
<rscale>  0 0.96878579E+02</rscale>
<asrwt>0</asrwt>
<pdfrwt beam="2">  1        1 0.41849804E-01 0.96878579E+02</pdfrwt>
<pdfrwt beam="1">  1       -1 0.13270136E-02 0.96878579E+02</pdfrwt>
<totfact> 0.10687420E+05</totfact>
</mgrwt>
</event>
<event>
 5    1  0.6308903E+000  0.9049270E+02  0.7546771E-02  0.1301663E+00
          1   -1    0    0  501    0  0.00000000000E+00  0.00000000000E+00  0.17743335064E+02  0.17743335064E+02  0.00000000000E+00 0. -1.
         -1   -1    0    0    0  501 -0.00000000000E+00 -0.00000000000E+00 -0.11538034246E+03  0.11538034246E+03  0.00000000000E+00 0.  1.
         23    2    1    2    0    0  0.00000000000E+00  0.00000000000E+00 -0.97637007401E+02  0.13312367753E+03  0.90492697520E+02 0.  0.
        -13    1    3    3    0    0 -0.44108830275E+02  0.31293669741E+01 -0.62917295477E+02  0.76902327118E+02  0.00000000000E+00 0.  1.
         13    1    3    3    0    0  0.44108830275E+02 -0.31293669741E+01 -0.34719711924E+02  0.56221350411E+02  0.00000000000E+00 0. -1.
<mgrwt>
<rscale>  0 0.90492698E+02</rscale>
<asrwt>0</asrwt>
<pdfrwt beam="1">  1        1 0.27297439E-02 0.90492698E+02</pdfrwt>
<pdfrwt beam="2">  1       -1 0.17750822E-01 0.90492698E+02</pdfrwt>
<totfact> 0.80710775E+04</totfact>
</mgrwt>
</event>
<event>
 5    1  0.6308903E+000  0.9363732E+02  0.7546771E-02  0.1294275E+00
          1   -1    0    0  501    0  0.00000000000E+00  0.00000000000E+00  0.10598964022E+03  0.10598964022E+03  0.00000000000E+00 0. -1.
         -1   -1    0    0    0  501 -0.00000000000E+00 -0.00000000000E+00 -0.20681143331E+02  0.20681143331E+02  0.00000000000E+00 0.  1.
         23    2    1    2    0    0  0.00000000000E+00  0.00000000000E+00  0.85308496890E+02  0.12667078355E+03  0.93637320358E+02 0.  0.
        -13    1    3    3    0    0  0.21626786618E+02  0.19910778089E+02  0.91948776315E+02  0.96533592336E+02  0.00000000000E+00 0. -1.
         13    1    3    3    0    0 -0.21626786618E+02 -0.19910778089E+02 -0.66402794246E+01  0.30137191215E+02  0.00000000000E+00 0.  1.
<mgrwt>
<rscale>  0 0.93637320E+02</rscale>
<asrwt>0</asrwt>
<pdfrwt beam="1">  1        1 0.16306098E-01 0.93637320E+02</pdfrwt>
<pdfrwt beam="2">  1       -1 0.31817144E-02 0.93637320E+02</pdfrwt>
<totfact> 0.98082403E+04</totfact>
</mgrwt>
</event>
<event>
 5    1  0.6308903E+000  0.9129262E+02  0.7546771E-02  0.1299751E+00
         -1   -1    0    0    0  501 -0.00000000000E+00  0.00000000000E+00  0.14168195632E+03  0.14168195632E+03  0.00000000000E+00 0.  1.
          1   -1    0    0  501    0  0.00000000000E+00 -0.00000000000E+00 -0.14706076856E+02  0.14706076856E+02  0.00000000000E+00 0. -1.
         23    2    1    2    0    0  0.00000000000E+00  0.00000000000E+00  0.12697587946E+03  0.15638803318E+03  0.91292622675E+02 0.  0.
        -13    1    3    3    0    0  0.20462967719E+02 -0.32102042994E+02  0.20344066061E+02  0.43164281948E+02  0.00000000000E+00 0. -1.
         13    1    3    3    0    0 -0.20462967719E+02  0.32102042994E+02  0.10663181340E+03  0.11322375123E+03  0.00000000000E+00 0.  1.
<mgrwt>
<rscale>  0 0.91292623E+02</rscale>
<asrwt>0</asrwt>
<pdfrwt beam="2">  1        1 0.22624735E-02 0.91292623E+02</pdfrwt>
<pdfrwt beam="1">  1       -1 0.21797223E-01 0.91292623E+02</pdfrwt>
<totfact> 0.75526950E+04</totfact>
</mgrwt>
</event>
<event>
 5    1  0.6308903E+000  0.8584669E+02  0.7546771E-02  0.1313233E+00
          2   -1    0    0  501    0  0.00000000000E+00  0.00000000000E+00  0.11734964656E+03  0.11734964656E+03  0.00000000000E+00 0. -1.
         -2   -1    0    0    0  501 -0.00000000000E+00 -0.00000000000E+00 -0.15700205463E+02  0.15700205463E+02  0.00000000000E+00 0.  1.
         23    2    1    2    0    0  0.00000000000E+00  0.00000000000E+00  0.10164944109E+03  0.13304985202E+03  0.85846690371E+02 0.  0.
        -13    1    3    3    0    0 -0.22104268819E+01 -0.38577878673E+02  0.21859656177E+02  0.44395757433E+02  0.00000000000E+00 0. -1.
         13    1    3    3    0    0  0.22104268819E+01  0.38577878673E+02  0.79789784916E+02  0.88654094586E+02  0.00000000000E+00 0.  1.
<mgrwt>
<rscale>  0 0.85846690E+02</rscale>
<asrwt>0</asrwt>
<pdfrwt beam="1">  1        2 0.18053791E-01 0.85846690E+02</pdfrwt>
<pdfrwt beam="2">  1       -2 0.24154163E-02 0.85846690E+02</pdfrwt>
<totfact> 0.15192298E+05</totfact>
</mgrwt>
</event>
<event>
 5    1  0.6308903E+000  0.8827235E+02  0.7546771E-02  0.1307090E+00
         -2   -1    0    0    0  501 -0.00000000000E+00  0.00000000000E+00  0.35605309109E+02  0.35605309109E+02  0.00000000000E+00 0.  1.
          2   -1    0    0  501    0  0.00000000000E+00 -0.00000000000E+00 -0.54710998348E+02  0.54710998348E+02  0.00000000000E+00 0. -1.
         23    2    1    2    0    0  0.00000000000E+00  0.00000000000E+00 -0.19105689239E+02  0.90316307457E+02  0.88272351455E+02 0.  0.
        -13    1    3    3    0    0  0.83897878858E+01  0.20329768633E+02 -0.48705261937E+02  0.53440533060E+02  0.00000000000E+00 0. -1.
         13    1    3    3    0    0 -0.83897878858E+01 -0.20329768633E+02  0.29599572698E+02  0.36875774397E+02  0.00000000000E+00 0.  1.
<mgrwt>
<rscale>  0 0.88272351E+02</rscale>
<asrwt>0</asrwt>
<pdfrwt beam="2">  1        2 0.84170767E-02 0.88272351E+02</pdfrwt>
<pdfrwt beam="1">  1       -2 0.54777398E-02 0.88272351E+02</pdfrwt>
<totfact> 0.11340776E+05</totfact>
</mgrwt>
</event>
<event>
 5    1  0.6308903E+000  0.9093778E+02  0.7546771E-02  0.1300596E+00
          1   -1    0    0  501    0  0.00000000000E+00  0.00000000000E+00  0.19429806010E+02  0.19429806010E+02  0.00000000000E+00 0. -1.
         -1   -1    0    0    0  501 -0.00000000000E+00 -0.00000000000E+00 -0.10640456699E+03  0.10640456699E+03  0.00000000000E+00 0.  1.
         23    2    1    2    0    0  0.00000000000E+00  0.00000000000E+00 -0.86974760979E+02  0.12583437300E+03  0.90937783020E+02 0.  0.
        -13    1    3    3    0    0 -0.25104602500E+02 -0.28058984520E+02 -0.78762539414E+02  0.87298827563E+02  0.00000000000E+00 0.  1.
         13    1    3    3    0    0  0.25104602500E+02  0.28058984520E+02 -0.82122215651E+01  0.38535545435E+02  0.00000000000E+00 0. -1.
<mgrwt>
<rscale>  0 0.90937783E+02</rscale>
<asrwt>0</asrwt>
<pdfrwt beam="1">  1        1 0.29892010E-02 0.90937783E+02</pdfrwt>
<pdfrwt beam="2">  1       -1 0.16369933E-01 0.90937783E+02</pdfrwt>
<totfact> 0.80968919E+04</totfact>
</mgrwt>
</event>
<event>
 5    1  0.6308903E+000  0.9321788E+02  0.7546771E-02  0.1295241E+00
         -1   -1    0    0    0  501 -0.00000000000E+00  0.00000000000E+00  0.36202700540E+02  0.36202700540E+02  0.00000000000E+00 0.  1.
          1   -1    0    0  501    0  0.00000000000E+00 -0.00000000000E+00 -0.60006387552E+02  0.60006387552E+02  0.00000000000E+00 0. -1.
         23    2    1    2    0    0  0.00000000000E+00  0.00000000000E+00 -0.23803687012E+02  0.96209088092E+02  0.93217879809E+02 0.  0.
        -13    1    3    3    0    0 -0.16860467087E+02  0.18995528265E+02  0.28432716482E+02  0.38125120472E+02  0.00000000000E+00 0.  1.
         13    1    3    3    0    0  0.16860467087E+02 -0.18995528265E+02 -0.52236403494E+02  0.58083967620E+02  0.00000000000E+00 0. -1.
<mgrwt>
<rscale>  0 0.93217880E+02</rscale>
<asrwt>0</asrwt>
<pdfrwt beam="2">  1        1 0.92317519E-02 0.93217880E+02</pdfrwt>
<pdfrwt beam="1">  1       -1 0.55696463E-02 0.93217880E+02</pdfrwt>
<totfact> 0.90618325E+04</totfact>
</mgrwt>
</event>
<event>
 5    1  0.6308903E+000  0.9028638E+02  0.7546771E-02  0.1302160E+00
         -3   -1    0    0    0  501 -0.00000000000E+00  0.00000000000E+00  0.41104305544E+02  0.41104305544E+02  0.00000000000E+00 0. -1.
          3   -1    0    0  501    0  0.00000000000E+00 -0.00000000000E+00 -0.49578935103E+02  0.49578935103E+02  0.00000000000E+00 0.  1.
         23    2    1    2    0    0  0.00000000000E+00  0.00000000000E+00 -0.84746295594E+01  0.90683240647E+02  0.90286382074E+02 0.  0.
        -13    1    3    3    0    0 -0.33178360346E+02 -0.63330035940E+01 -0.34318872171E+02  0.48152834983E+02  0.00000000000E+00 0.  1.
         13    1    3    3    0    0  0.33178360346E+02  0.63330035940E+01  0.25844242612E+02  0.42530405664E+02  0.00000000000E+00 0. -1.
<mgrwt>
<rscale>  0 0.90286382E+02</rscale>
<asrwt>0</asrwt>
<pdfrwt beam="2">  1        3 0.76275285E-02 0.90286382E+02</pdfrwt>
<pdfrwt beam="1">  1       -3 0.63237393E-02 0.90286382E+02</pdfrwt>
<totfact> 0.36333906E+04</totfact>
</mgrwt>
</event>
<event>
 5    1  0.6308903E+000  0.9045625E+02  0.7546771E-02  0.1301751E+00
         -2   -1    0    0    0  501 -0.00000000000E+00  0.00000000000E+00  0.42700547794E+02  0.42700547794E+02  0.00000000000E+00 0. -1.
          2   -1    0    0  501    0  0.00000000000E+00 -0.00000000000E+00 -0.47905321196E+02  0.47905321196E+02  0.00000000000E+00 0.  1.
         23    2    1    2    0    0  0.00000000000E+00  0.00000000000E+00 -0.52047734024E+01  0.90605868990E+02  0.90456253677E+02 0.  0.
        -13    1    3    3    0    0 -0.19779803307E+02  0.10464193368E+02  0.36767120370E+02  0.43041388245E+02  0.00000000000E+00 0. -1.
         13    1    3    3    0    0  0.19779803307E+02 -0.10464193368E+02 -0.41971893772E+02  0.47564480745E+02  0.00000000000E+00 0.  1.
<mgrwt>
<rscale>  0 0.90456254E+02</rscale>
<asrwt>0</asrwt>
<pdfrwt beam="2">  1        2 0.73700494E-02 0.90456254E+02</pdfrwt>
<pdfrwt beam="1">  1       -2 0.65693151E-02 0.90456254E+02</pdfrwt>
<totfact> 0.10224575E+05</totfact>
</mgrwt>
</event>
<event>
 5    1  0.6308903E+000  0.9084701E+02  0.7546771E-02  0.1300813E+00
          1   -1    0    0  501    0  0.00000000000E+00  0.00000000000E+00  0.64406212322E+02  0.64406212322E+02  0.00000000000E+00 0. -1.
         -1   -1    0    0    0  501 -0.00000000000E+00 -0.00000000000E+00 -0.32035650667E+02  0.32035650667E+02  0.00000000000E+00 0.  1.
         23    2    1    2    0    0  0.00000000000E+00  0.00000000000E+00  0.32370561656E+02  0.96441862989E+02  0.90847012471E+02 0.  0.
        -13    1    3    3    0    0 -0.38679821879E+02  0.20678523037E+02  0.28726598677E+02  0.52430405369E+02  0.00000000000E+00 0. -1.
         13    1    3    3    0    0  0.38679821879E+02 -0.20678523037E+02  0.36439629784E+01  0.44011457620E+02  0.00000000000E+00 0.  1.
<mgrwt>
<rscale>  0 0.90847012E+02</rscale>
<asrwt>0</asrwt>
<pdfrwt beam="1">  1        1 0.99086480E-02 0.90847012E+02</pdfrwt>
<pdfrwt beam="2">  1       -1 0.49285617E-02 0.90847012E+02</pdfrwt>
<totfact> 0.98395467E+04</totfact>
</mgrwt>
</event>
<event>
 5    1  0.6308903E+000  0.9191365E+02  0.7546771E-02  0.1298283E+00
         -1   -1    0    0    0  501 -0.00000000000E+00  0.00000000000E+00  0.27462963937E+02  0.27462963937E+02  0.00000000000E+00 0.  1.
          1   -1    0    0  501    0  0.00000000000E+00 -0.00000000000E+00 -0.76904662349E+02  0.76904662349E+02  0.00000000000E+00 0. -1.
         23    2    1    2    0    0  0.00000000000E+00  0.00000000000E+00 -0.49441698412E+02  0.10436762629E+03  0.91913654452E+02 0.  0.
        -13    1    3    3    0    0  0.33158885239E+02  0.27554818442E+02 -0.42790956801E+02  0.60744099908E+02  0.00000000000E+00 0. -1.
         13    1    3    3    0    0 -0.33158885239E+02 -0.27554818442E+02 -0.66507416106E+01  0.43623526378E+02  0.00000000000E+00 0.  1.
<mgrwt>
<rscale>  0 0.91913654E+02</rscale>
<asrwt>0</asrwt>
<pdfrwt beam="2">  1        1 0.11831486E-01 0.91913654E+02</pdfrwt>
<pdfrwt beam="1">  1       -1 0.42250714E-02 0.91913654E+02</pdfrwt>
<totfact> 0.97927285E+04</totfact>
</mgrwt>
</event>
<event>
 5    1  0.6308903E+000  0.9202547E+02  0.7546771E-02  0.1298020E+00
          2   -1    0    0  501    0  0.00000000000E+00  0.00000000000E+00  0.52206483040E+02  0.52206483040E+02  0.00000000000E+00 0. -1.
         -2   -1    0    0    0  501 -0.00000000000E+00 -0.00000000000E+00 -0.40553809503E+02  0.40553809503E+02  0.00000000000E+00 0.  1.
         23    2    1    2    0    0  0.00000000000E+00  0.00000000000E+00  0.11652673536E+02  0.92760292543E+02  0.92025469692E+02 0.  0.
        -13    1    3    3    0    0  0.20065307340E+02 -0.13362559080E+02 -0.33678410007E+02  0.41417506497E+02  0.00000000000E+00 0.  1.
         13    1    3    3    0    0 -0.20065307340E+02  0.13362559080E+02  0.45331083543E+02  0.51342786046E+02  0.00000000000E+00 0. -1.
<mgrwt>
<rscale>  0 0.92025470E+02</rscale>
<asrwt>0</asrwt>
<pdfrwt beam="1">  1        2 0.80317667E-02 0.92025470E+02</pdfrwt>
<pdfrwt beam="2">  1       -2 0.62390476E-02 0.92025470E+02</pdfrwt>
<totfact> 0.99563995E+04</totfact>
</mgrwt>
</event>
<event>
 5    1  0.6308903E+000  0.9074392E+02  0.7546771E-02  0.1301060E+00
          1   -1    0    0  501    0  0.00000000000E+00  0.00000000000E+00  0.32833204963E+02  0.32833204963E+02  0.00000000000E+00 0. -1.
         -1   -1    0    0    0  501 -0.00000000000E+00 -0.00000000000E+00 -0.62699167338E+02  0.62699167338E+02  0.00000000000E+00 0.  1.
         23    2    1    2    0    0  0.00000000000E+00  0.00000000000E+00 -0.29865962375E+02  0.95532372301E+02  0.90743916870E+02 0.  0.
        -13    1    3    3    0    0 -0.41488817015E+01 -0.22969695724E+02 -0.55893599010E+02  0.60571565534E+02  0.00000000000E+00 0.  1.
         13    1    3    3    0    0  0.41488817015E+01  0.22969695724E+02  0.26027636634E+02  0.34960806767E+02  0.00000000000E+00 0. -1.
<mgrwt>
<rscale>  0 0.90743917E+02</rscale>
<asrwt>0</asrwt>
<pdfrwt beam="1">  1        1 0.50512624E-02 0.90743917E+02</pdfrwt>
<pdfrwt beam="2">  1       -1 0.96460256E-02 0.90743917E+02</pdfrwt>
<totfact> 0.89142583E+04</totfact>
</mgrwt>
</event>
<event>
 5    1  0.6308903E+000  0.9161781E+02  0.7546771E-02  0.1298981E+00
          2   -1    0    0  501    0  0.00000000000E+00  0.00000000000E+00  0.25806492566E+03  0.25806492566E+03  0.00000000000E+00 0. -1.
         -2   -1    0    0    0  501 -0.00000000000E+00 -0.00000000000E+00 -0.81315026185E+01  0.81315026185E+01  0.00000000000E+00 0.  1.
         23    2    1    2    0    0  0.00000000000E+00  0.00000000000E+00  0.24993342304E+03  0.26619642828E+03  0.91617806539E+02 0.  0.
        -13    1    3    3    0    0 -0.32102565813E+02 -0.21882294597E+02  0.19548422099E+03  0.19930752671E+03  0.00000000000E+00 0. -1.
         13    1    3    3    0    0  0.32102565813E+02  0.21882294597E+02  0.54449202055E+02  0.66888901569E+02  0.00000000000E+00 0.  1.
<mgrwt>
<rscale>  0 0.91617807E+02</rscale>
<asrwt>0</asrwt>
<pdfrwt beam="1">  1        2 0.39702290E-01 0.91617807E+02</pdfrwt>
<pdfrwt beam="2">  1       -2 0.12510006E-02 0.91617807E+02</pdfrwt>
<totfact> 0.16766718E+05</totfact>
</mgrwt>
</event>
<event>
 5    1  0.6308903E+000  0.9121193E+02  0.7546771E-02  0.1299943E+00
          1   -1    0    0  501    0  0.00000000000E+00  0.00000000000E+00  0.62815329169E+02  0.62815329169E+02  0.00000000000E+00 0. -1.
         -1   -1    0    0    0  501 -0.00000000000E+00 -0.00000000000E+00 -0.33111411629E+02  0.33111411629E+02  0.00000000000E+00 0.  1.
         23    2    1    2    0    0  0.00000000000E+00  0.00000000000E+00  0.29703917540E+02  0.95926740798E+02  0.91211933885E+02 0.  0.
        -13    1    3    3    0    0  0.25734180199E+02  0.34951310388E+02  0.12595721490E+00  0.43403432969E+02  0.00000000000E+00 0. -1.
         13    1    3    3    0    0 -0.25734180199E+02 -0.34951310388E+02  0.29577960325E+02  0.52523307829E+02  0.00000000000E+00 0.  1.
<mgrwt>
<rscale>  0 0.91211934E+02</rscale>
<asrwt>0</asrwt>
<pdfrwt beam="1">  1        1 0.96638968E-02 0.91211934E+02</pdfrwt>
<pdfrwt beam="2">  1       -1 0.50940633E-02 0.91211934E+02</pdfrwt>
<totfact> 0.96940519E+04</totfact>
</mgrwt>
</event>
<event>
 5    1  0.6308903E+000  0.7893516E+02  0.7546771E-02  0.1332101E+00
         -1   -1    0    0    0  501 -0.00000000000E+00  0.00000000000E+00  0.58041240069E+01  0.58041240069E+01  0.00000000000E+00 0.  1.
          1   -1    0    0  501    0  0.00000000000E+00 -0.00000000000E+00 -0.26837636165E+03  0.26837636165E+03  0.00000000000E+00 0. -1.
         23    2    1    2    0    0  0.00000000000E+00  0.00000000000E+00 -0.26257223765E+03  0.27418048566E+03  0.78935155249E+02 0.  0.
        -13    1    3    3    0    0  0.24527807424E+02  0.27201666137E+02 -0.18235300530E+03  0.18599506047E+03  0.00000000000E+00 0.  1.
         13    1    3    3    0    0 -0.24527807424E+02 -0.27201666137E+02 -0.80219232352E+02  0.88185425195E+02  0.00000000000E+00 0. -1.
<mgrwt>
<rscale>  0 0.78935155E+02</rscale>
<asrwt>0</asrwt>
<pdfrwt beam="2">  1        1 0.41288673E-01 0.78935155E+02</pdfrwt>
<pdfrwt beam="1">  1       -1 0.89294211E-03 0.78935155E+02</pdfrwt>
<totfact> 0.18367989E+05</totfact>
</mgrwt>
</event>
<event>
 5    1  0.6308903E+000  0.9118303E+02  0.7546771E-02  0.1300012E+00
         -1   -1    0    0    0  501 -0.00000000000E+00  0.00000000000E+00  0.95227052719E+01  0.95227052719E+01  0.00000000000E+00 0.  1.
          1   -1    0    0  501    0  0.00000000000E+00 -0.00000000000E+00 -0.21827687029E+03  0.21827687029E+03  0.00000000000E+00 0. -1.
         23    2    1    2    0    0  0.00000000000E+00  0.00000000000E+00 -0.20875416501E+03  0.22779957556E+03  0.91183031391E+02 0.  0.
        -13    1    3    3    0    0 -0.26399853815E+02 -0.23289180459E+02 -0.17675133087E+03  0.18022311498E+03  0.00000000000E+00 0. -1.
         13    1    3    3    0    0  0.26399853815E+02  0.23289180459E+02 -0.32002834140E+02  0.47576460576E+02  0.00000000000E+00 0.  1.
<mgrwt>
<rscale>  0 0.91183031E+02</rscale>
<asrwt>0</asrwt>
<pdfrwt beam="2">  1        1 0.33581053E-01 0.91183031E+02</pdfrwt>
<pdfrwt beam="1">  1       -1 0.14650317E-02 0.91183031E+02</pdfrwt>
<totfact> 0.12041642E+05</totfact>
</mgrwt>
</event>
<event>
 5    1  0.6308903E+000  0.9202693E+02  0.7546771E-02  0.1298016E+00
         -2   -1    0    0    0  501 -0.00000000000E+00  0.00000000000E+00  0.87600342130E+01  0.87600342130E+01  0.00000000000E+00 0. -1.
          2   -1    0    0  501    0  0.00000000000E+00 -0.00000000000E+00 -0.24169300939E+03  0.24169300939E+03  0.00000000000E+00 0.  1.
         23    2    1    2    0    0  0.00000000000E+00  0.00000000000E+00 -0.23293297518E+03  0.25045304360E+03  0.92026931521E+02 0.  0.
        -13    1    3    3    0    0  0.44798564747E+02  0.66933706854E+01 -0.94436229640E+02  0.10473735763E+03  0.00000000000E+00 0.  1.
         13    1    3    3    0    0 -0.44798564747E+02 -0.66933706854E+01 -0.13849674554E+03  0.14571568598E+03  0.00000000000E+00 0. -1.
<mgrwt>
<rscale>  0 0.92026932E+02</rscale>
<asrwt>0</asrwt>
<pdfrwt beam="2">  1        2 0.37183539E-01 0.92026932E+02</pdfrwt>
<pdfrwt beam="1">  1       -2 0.13476976E-02 0.92026932E+02</pdfrwt>
<totfact> 0.16169919E+05</totfact>
</mgrwt>
</event>
<event>
 5    1  0.6308903E+000  0.9001407E+02  0.7546771E-02  0.1302818E+00
         -2   -1    0    0    0  501 -0.00000000000E+00  0.00000000000E+00  0.26367828349E+02  0.26367828349E+02  0.00000000000E+00 0.  1.
          2   -1    0    0  501    0  0.00000000000E+00 -0.00000000000E+00 -0.76822139386E+02  0.76822139386E+02  0.00000000000E+00 0. -1.
         23    2    1    2    0    0  0.00000000000E+00  0.00000000000E+00 -0.50454311037E+02  0.10318996774E+03  0.90014065229E+02 0.  0.
        -13    1    3    3    0    0 -0.41311805786E+02 -0.17683519863E+02 -0.28095573638E+02  0.52997485130E+02  0.00000000000E+00 0.  1.
         13    1    3    3    0    0  0.41311805786E+02  0.17683519863E+02 -0.22358737399E+02  0.50192482606E+02  0.00000000000E+00 0. -1.
<mgrwt>
<rscale>  0 0.90014065E+02</rscale>
<asrwt>0</asrwt>
<pdfrwt beam="2">  1        2 0.11818790E-01 0.90014065E+02</pdfrwt>
<pdfrwt beam="1">  1       -2 0.40565891E-02 0.90014065E+02</pdfrwt>
<totfact> 0.11766228E+05</totfact>
</mgrwt>
</event>
<event>
 5    1  0.6308903E+000  0.9565510E+02  0.7546771E-02  0.1289707E+00
          1   -1    0    0  501    0  0.00000000000E+00  0.00000000000E+00  0.23857394034E+03  0.23857394034E+03  0.00000000000E+00 0. -1.
         -1   -1    0    0    0  501 -0.00000000000E+00 -0.00000000000E+00 -0.95881163373E+01  0.95881163373E+01  0.00000000000E+00 0.  1.
         23    2    1    2    0    0  0.00000000000E+00  0.00000000000E+00  0.22898582400E+03  0.24816205667E+03  0.95655103261E+02 0.  0.
        -13    1    3    3    0    0  0.17848774307E+02 -0.35839742483E+02  0.18236403426E+03  0.18670754371E+03  0.00000000000E+00 0. -1.
         13    1    3    3    0    0 -0.17848774307E+02  0.35839742483E+02  0.46621789740E+02  0.61454512968E+02  0.00000000000E+00 0.  1.
<mgrwt>
<rscale>  0 0.95655103E+02</rscale>
<asrwt>0</asrwt>
<pdfrwt beam="1">  1        1 0.36703679E-01 0.95655103E+02</pdfrwt>
<pdfrwt beam="2">  1       -1 0.14750950E-02 0.95655103E+02</pdfrwt>
<totfact> 0.10775830E+05</totfact>
</mgrwt>
</event>
<event>
 5    1  0.6308903E+000  0.9118978E+02  0.7546771E-02  0.1299996E+00
          4   -1    0    0  501    0  0.00000000000E+00  0.00000000000E+00  0.26007521907E+02  0.26007521907E+02  0.00000000000E+00 0. -1.
         -4   -1    0    0    0  501 -0.00000000000E+00 -0.00000000000E+00 -0.79934327920E+02  0.79934327920E+02  0.00000000000E+00 0.  1.
         23    2    1    2    0    0  0.00000000000E+00  0.00000000000E+00 -0.53926806013E+02  0.10594184983E+03  0.91189775402E+02 0.  0.
        -13    1    3    3    0    0  0.56660608411E+01  0.45147425446E+02 -0.30350428515E+02  0.54694997769E+02  0.00000000000E+00 0. -1.
         13    1    3    3    0    0 -0.56660608411E+01 -0.45147425446E+02 -0.23576377498E+02  0.51246852058E+02  0.00000000000E+00 0.  1.
<mgrwt>
<rscale>  0 0.91189775E+02</rscale>
<asrwt>0</asrwt>
<pdfrwt beam="1">  1        4 0.40011573E-02 0.91189775E+02</pdfrwt>
<pdfrwt beam="2">  1       -4 0.12297589E-01 0.91189775E+02</pdfrwt>
<totfact> 0.26085286E+04</totfact>
</mgrwt>
</event>
<event>
 5    1  0.6308903E+000  0.8442059E+02  0.7546771E-02  0.1316955E+00
         -2   -1    0    0    0  501 -0.00000000000E+00  0.00000000000E+00  0.95439581619E+01  0.95439581619E+01  0.00000000000E+00 0.  1.
          2   -1    0    0  501    0  0.00000000000E+00 -0.00000000000E+00 -0.18668450222E+03  0.18668450222E+03  0.00000000000E+00 0. -1.
         23    2    1    2    0    0  0.00000000000E+00  0.00000000000E+00 -0.17714054406E+03  0.19622846038E+03  0.84420591769E+02 0.  0.
        -13    1    3    3    0    0 -0.40216033030E+02 -0.77420648364E+01 -0.64815687027E+02  0.76670347367E+02  0.00000000000E+00 0.  1.
         13    1    3    3    0    0  0.40216033030E+02  0.77420648364E+01 -0.11232485703E+03  0.11955811301E+03  0.00000000000E+00 0. -1.
<mgrwt>
<rscale>  0 0.84420592E+02</rscale>
<asrwt>0</asrwt>
<pdfrwt beam="2">  1        2 0.28720693E-01 0.84420592E+02</pdfrwt>
<pdfrwt beam="1">  1       -2 0.14683012E-02 0.84420592E+02</pdfrwt>
<totfact> 0.18551603E+05</totfact>
</mgrwt>
</event>
<event>
 5    1  0.6308903E+000  0.9196276E+02  0.7546771E-02  0.1298167E+00
         -3   -1    0    0    0  501 -0.00000000000E+00  0.00000000000E+00  0.70869351350E+02  0.70869351350E+02  0.00000000000E+00 0. -1.
          3   -1    0    0  501    0  0.00000000000E+00 -0.00000000000E+00 -0.29833590501E+02  0.29833590501E+02  0.00000000000E+00 0.  1.
         23    2    1    2    0    0  0.00000000000E+00  0.00000000000E+00  0.41035760849E+02  0.10070294185E+03  0.91962757836E+02 0.  0.
        -13    1    3    3    0    0  0.40384908366E+02  0.21663259540E+02  0.16413366996E+02  0.48678909743E+02  0.00000000000E+00 0.  1.
         13    1    3    3    0    0 -0.40384908366E+02 -0.21663259540E+02  0.24622393853E+02  0.52024032107E+02  0.00000000000E+00 0. -1.
<mgrwt>
<rscale>  0 0.91962758E+02</rscale>
<asrwt>0</asrwt>
<pdfrwt beam="2">  1        3 0.45897832E-02 0.91962758E+02</pdfrwt>
<pdfrwt beam="1">  1       -3 0.10902977E-01 0.91962758E+02</pdfrwt>
<totfact> 0.33819230E+04</totfact>
</mgrwt>
</event>
<event>
 5    1  0.6308903E+000  0.9492938E+02  0.7546771E-02  0.1291335E+00
          4   -1    0    0  501    0  0.00000000000E+00  0.00000000000E+00  0.13194787381E+02  0.13194787381E+02  0.00000000000E+00 0. -1.
         -4   -1    0    0    0  501 -0.00000000000E+00 -0.00000000000E+00 -0.17074142532E+03  0.17074142532E+03  0.00000000000E+00 0.  1.
         23    2    1    2    0    0  0.00000000000E+00  0.00000000000E+00 -0.15754663794E+03  0.18393621270E+03  0.94929380157E+02 0.  0.
        -13    1    3    3    0    0  0.31528467403E+02 -0.25946245770E+02 -0.31882937111E+02  0.51805150373E+02  0.00000000000E+00 0. -1.
         13    1    3    3    0    0 -0.31528467403E+02  0.25946245770E+02 -0.12566370082E+03  0.13213106233E+03  0.00000000000E+00 0.  1.
<mgrwt>
<rscale>  0 0.94929380E+02</rscale>
<asrwt>0</asrwt>
<pdfrwt beam="1">  1        4 0.20299674E-02 0.94929380E+02</pdfrwt>
<pdfrwt beam="2">  1       -4 0.26267910E-01 0.94929380E+02</pdfrwt>
<totfact> 0.19804335E+04</totfact>
</mgrwt>
</event>
<event>
 5    1  0.6308903E+000  0.8850153E+02  0.7546771E-02  0.1306522E+00
          3   -1    0    0  501    0  0.00000000000E+00  0.00000000000E+00  0.10068624134E+03  0.10068624134E+03  0.00000000000E+00 0. -1.
         -3   -1    0    0    0  501 -0.00000000000E+00 -0.00000000000E+00 -0.19447840769E+02  0.19447840769E+02  0.00000000000E+00 0.  1.
         23    2    1    2    0    0  0.00000000000E+00  0.00000000000E+00  0.81238400570E+02  0.12013408211E+03  0.88501525167E+02 0.  0.
        -13    1    3    3    0    0  0.20695095672E+02 -0.25739283406E+02  0.80596019664E+02  0.87100608958E+02  0.00000000000E+00 0.  1.
         13    1    3    3    0    0 -0.20695095672E+02  0.25739283406E+02  0.64238090595E+00  0.33033473151E+02  0.00000000000E+00 0. -1.
<mgrwt>
<rscale>  0 0.88501525E+02</rscale>
<asrwt>0</asrwt>
<pdfrwt beam="1">  1        3 0.15490191E-01 0.88501525E+02</pdfrwt>
<pdfrwt beam="2">  1       -3 0.29919756E-02 0.88501525E+02</pdfrwt>
<totfact> 0.36027648E+04</totfact>
</mgrwt>
</event>
<event>
 5    1  0.6308903E+000  0.9672781E+02  0.7546771E-02  0.1287331E+00
         -3   -1    0    0    0  501 -0.00000000000E+00  0.00000000000E+00  0.27311960452E+03  0.27311960452E+03  0.00000000000E+00 0.  1.
          3   -1    0    0  501    0  0.00000000000E+00 -0.00000000000E+00 -0.85642607281E+01  0.85642607281E+01  0.00000000000E+00 0. -1.
         23    2    1    2    0    0  0.00000000000E+00  0.00000000000E+00  0.26455534379E+03  0.28168386524E+03  0.96727814056E+02 0.  0.
        -13    1    3    3    0    0 -0.48070458659E+01  0.41666447295E+02  0.62152362772E+02  0.74980775658E+02  0.00000000000E+00 0. -1.
         13    1    3    3    0    0  0.48070458659E+01 -0.41666447295E+02  0.20240298102E+03  0.20670308959E+03  0.00000000000E+00 0.  1.
<mgrwt>
<rscale>  0 0.96727814E+02</rscale>
<asrwt>0</asrwt>
<pdfrwt beam="2">  1        3 0.13175788E-02 0.96727814E+02</pdfrwt>
<pdfrwt beam="1">  1       -3 0.42018394E-01 0.96727814E+02</pdfrwt>
<totfact> 0.21102769E+04</totfact>
</mgrwt>
</event>
<event>
 5    1  0.6308903E+000  0.8980252E+02  0.7546771E-02  0.1303331E+00
          2   -1    0    0  501    0  0.00000000000E+00  0.00000000000E+00  0.27226003536E+02  0.27226003536E+02  0.00000000000E+00 0. -1.
         -2   -1    0    0    0  501 -0.00000000000E+00 -0.00000000000E+00 -0.74051383620E+02  0.74051383620E+02  0.00000000000E+00 0.  1.
         23    2    1    2    0    0  0.00000000000E+00  0.00000000000E+00 -0.46825380084E+02  0.10127738716E+03  0.89802521841E+02 0.  0.
        -13    1    3    3    0    0  0.10929115656E+02 -0.26133378068E+02  0.15877485024E+02  0.32472966433E+02  0.00000000000E+00 0. -1.
         13    1    3    3    0    0 -0.10929115656E+02  0.26133378068E+02 -0.62702865108E+02  0.68804420723E+02  0.00000000000E+00 0.  1.
<mgrwt>
<rscale>  0 0.89802522E+02</rscale>
<asrwt>0</asrwt>
<pdfrwt beam="1">  1        2 0.41886159E-02 0.89802522E+02</pdfrwt>
<pdfrwt beam="2">  1       -2 0.11392521E-01 0.89802522E+02</pdfrwt>
<totfact> 0.90180639E+04</totfact>
</mgrwt>
</event>
<event>
 5    1  0.6308903E+000  0.9084473E+02  0.7546771E-02  0.1300819E+00
         -1   -1    0    0    0  501 -0.00000000000E+00  0.00000000000E+00  0.23568533238E+02  0.23568533238E+02  0.00000000000E+00 0.  1.
          1   -1    0    0  501    0  0.00000000000E+00 -0.00000000000E+00 -0.87540069378E+02  0.87540069378E+02  0.00000000000E+00 0. -1.
         23    2    1    2    0    0  0.00000000000E+00  0.00000000000E+00 -0.63971536140E+02  0.11110860262E+03  0.90844725435E+02 0.  0.
        -13    1    3    3    0    0  0.38435713902E+02  0.12163786713E+01 -0.61552668948E+02  0.72577646247E+02  0.00000000000E+00 0.  1.
         13    1    3    3    0    0 -0.38435713902E+02 -0.12163786713E+01 -0.24188671923E+01  0.38530956369E+02  0.00000000000E+00 0. -1.
<mgrwt>
<rscale>  0 0.90844725E+02</rscale>
<asrwt>0</asrwt>
<pdfrwt beam="2">  1        1 0.13467703E-01 0.90844725E+02</pdfrwt>
<pdfrwt beam="1">  1       -1 0.36259283E-02 0.90844725E+02</pdfrwt>
<totfact> 0.10322696E+05</totfact>
</mgrwt>
</event>
<event>
 5    1  0.6308903E+000  0.9113373E+02  0.7546771E-02  0.1300129E+00
          4   -1    0    0  501    0  0.00000000000E+00  0.00000000000E+00  0.23563007042E+03  0.23563007042E+03  0.00000000000E+00 0. -1.
         -4   -1    0    0    0  501 -0.00000000000E+00 -0.00000000000E+00 -0.88118591520E+01  0.88118591520E+01  0.00000000000E+00 0.  1.
         23    2    1    2    0    0  0.00000000000E+00  0.00000000000E+00  0.22681821127E+03  0.24444192957E+03  0.91133725756E+02 0.  0.
        -13    1    3    3    0    0  0.28203320623E+02  0.34068756195E+02  0.83998375912E+02  0.94930683126E+02  0.00000000000E+00 0. -1.
         13    1    3    3    0    0 -0.28203320623E+02 -0.34068756195E+02  0.14281983536E+03  0.14951124645E+03  0.00000000000E+00 0.  1.
<mgrwt>
<rscale>  0 0.91133726E+02</rscale>
<asrwt>0</asrwt>
<pdfrwt beam="1">  1        4 0.36250775E-01 0.91133726E+02</pdfrwt>
<pdfrwt beam="2">  1       -4 0.13556708E-02 0.91133726E+02</pdfrwt>
<totfact> 0.19687203E+04</totfact>
</mgrwt>
</event>
<event>
 5    1  0.6308903E+000  0.9085334E+02  0.7546771E-02  0.1300798E+00
         -1   -1    0    0    0  501 -0.00000000000E+00  0.00000000000E+00  0.11311435078E+02  0.11311435078E+02  0.00000000000E+00 0.  1.
          1   -1    0    0  501    0  0.00000000000E+00 -0.00000000000E+00 -0.18243327677E+03  0.18243327677E+03  0.00000000000E+00 0. -1.
         23    2    1    2    0    0  0.00000000000E+00  0.00000000000E+00 -0.17112184169E+03  0.19374471185E+03  0.90853336013E+02 0.  0.
        -13    1    3    3    0    0  0.19795394003E+02  0.19099774981E+02 -0.84680883891E+01  0.28781375037E+02  0.00000000000E+00 0.  1.
         13    1    3    3    0    0 -0.19795394003E+02 -0.19099774981E+02 -0.16265375330E+03  0.16496333681E+03  0.00000000000E+00 0. -1.
<mgrwt>
<rscale>  0 0.90853336E+02</rscale>
<asrwt>0</asrwt>
<pdfrwt beam="2">  1        1 0.28066656E-01 0.90853336E+02</pdfrwt>
<pdfrwt beam="1">  1       -1 0.17402209E-02 0.90853336E+02</pdfrwt>
<totfact> 0.11744061E+05</totfact>
</mgrwt>
</event>
<event>
 5    1  0.6308903E+000  0.7934833E+02  0.7546771E-02  0.1330911E+00
          1   -1    0    0  501    0  0.00000000000E+00  0.00000000000E+00  0.19891273453E+02  0.19891273453E+02  0.00000000000E+00 0. -1.
         -1   -1    0    0    0  501 -0.00000000000E+00 -0.00000000000E+00 -0.79132154986E+02  0.79132154986E+02  0.00000000000E+00 0.  1.
         23    2    1    2    0    0  0.00000000000E+00  0.00000000000E+00 -0.59240881533E+02  0.99023428440E+02  0.79348329126E+02 0.  0.
        -13    1    3    3    0    0 -0.27594686417E+02  0.28391499879E+02 -0.32800985081E+02  0.51414478565E+02  0.00000000000E+00 0. -1.
         13    1    3    3    0    0  0.27594686417E+02 -0.28391499879E+02 -0.26439896452E+02  0.47608949875E+02  0.00000000000E+00 0.  1.
<mgrwt>
<rscale>  0 0.79348329E+02</rscale>
<asrwt>0</asrwt>
<pdfrwt beam="1">  1        1 0.30601959E-02 0.79348329E+02</pdfrwt>
<pdfrwt beam="2">  1       -1 0.12174178E-01 0.79348329E+02</pdfrwt>
<totfact> 0.12091786E+05</totfact>
</mgrwt>
</event>
<event>
 5    1  0.6308903E+000  0.9044968E+02  0.7546771E-02  0.1301766E+00
         -1   -1    0    0    0  501 -0.00000000000E+00  0.00000000000E+00  0.21405284413E+02  0.21405284413E+02  0.00000000000E+00 0.  1.
          1   -1    0    0  501    0  0.00000000000E+00 -0.00000000000E+00 -0.95550514542E+02  0.95550514542E+02  0.00000000000E+00 0. -1.
         23    2    1    2    0    0  0.00000000000E+00  0.00000000000E+00 -0.74145230129E+02  0.11695579895E+03  0.90449675280E+02 0.  0.
        -13    1    3    3    0    0 -0.41967560018E+02  0.16749372440E+02 -0.39480730885E+02  0.60004547179E+02  0.00000000000E+00 0.  1.
         13    1    3    3    0    0  0.41967560018E+02 -0.16749372440E+02 -0.34664499245E+02  0.56951251776E+02  0.00000000000E+00 0. -1.
<mgrwt>
<rscale>  0 0.90449675E+02</rscale>
<asrwt>0</asrwt>
<pdfrwt beam="2">  1        1 0.14700079E-01 0.90449675E+02</pdfrwt>
<pdfrwt beam="1">  1       -1 0.32931207E-02 0.90449675E+02</pdfrwt>
<totfact> 0.10595686E+05</totfact>
</mgrwt>
</event>
<event>
 5    1  0.6308903E+000  0.9239537E+02  0.7546771E-02  0.1297152E+00
         -2   -1    0    0    0  501 -0.00000000000E+00  0.00000000000E+00  0.20811525127E+03  0.20811525127E+03  0.00000000000E+00 0.  1.
          2   -1    0    0  501    0  0.00000000000E+00 -0.00000000000E+00 -0.10255020312E+02  0.10255020312E+02  0.00000000000E+00 0. -1.
         23    2    1    2    0    0  0.00000000000E+00  0.00000000000E+00  0.19786023096E+03  0.21837027158E+03  0.92395370641E+02 0.  0.
        -13    1    3    3    0    0 -0.41340472948E+02 -0.46333990932E+01  0.14641824554E+03  0.15221302742E+03  0.00000000000E+00 0.  1.
         13    1    3    3    0    0  0.41340472948E+02  0.46333990932E+01  0.51441985416E+02  0.66157244156E+02  0.00000000000E+00 0. -1.
<mgrwt>
<rscale>  0 0.92395371E+02</rscale>
<asrwt>0</asrwt>
<pdfrwt beam="2">  1        2 0.15776956E-02 0.92395371E+02</pdfrwt>
<pdfrwt beam="1">  1       -2 0.32017728E-01 0.92395371E+02</pdfrwt>
<totfact> 0.59196403E+04</totfact>
</mgrwt>
</event>
<event>
 5    1  0.6308903E+000  0.8834933E+02  0.7546771E-02  0.1306899E+00
         -1   -1    0    0    0  501 -0.00000000000E+00  0.00000000000E+00  0.41625383713E+02  0.41625383713E+02  0.00000000000E+00 0.  1.
          1   -1    0    0  501    0  0.00000000000E+00 -0.00000000000E+00 -0.46880074545E+02  0.46880074545E+02  0.00000000000E+00 0. -1.
         23    2    1    2    0    0  0.00000000000E+00  0.00000000000E+00 -0.52546908318E+01  0.88505458258E+02  0.88349331439E+02 0.  0.
        -13    1    3    3    0    0 -0.31586060437E+01 -0.34992763428E+02 -0.29450225560E+02  0.45845240429E+02  0.00000000000E+00 0. -1.
         13    1    3    3    0    0  0.31586060437E+01  0.34992763428E+02  0.24195534728E+02  0.42660217829E+02  0.00000000000E+00 0.  1.
<mgrwt>
<rscale>  0 0.88349331E+02</rscale>
<asrwt>0</asrwt>
<pdfrwt beam="2">  1        1 0.72123191E-02 0.88349331E+02</pdfrwt>
<pdfrwt beam="1">  1       -1 0.64039052E-02 0.88349331E+02</pdfrwt>
<totfact> 0.10140454E+05</totfact>
</mgrwt>
</event>
<event>
 5    1  0.6308903E+000  0.9374696E+02  0.7546771E-02  0.1294023E+00
          1   -1    0    0  501    0  0.00000000000E+00  0.00000000000E+00  0.27713477159E+02  0.27713477159E+02  0.00000000000E+00 0. -1.
         -1   -1    0    0    0  501 -0.00000000000E+00 -0.00000000000E+00 -0.79279947272E+02  0.79279947272E+02  0.00000000000E+00 0.  1.
         23    2    1    2    0    0  0.00000000000E+00  0.00000000000E+00 -0.51566470113E+02  0.10699342443E+03  0.93746957452E+02 0.  0.
        -13    1    3    3    0    0  0.24843384953E+02 -0.89456229511E+01  0.18417734067E+02  0.32193646486E+02  0.00000000000E+00 0. -1.
         13    1    3    3    0    0 -0.24843384953E+02  0.89456229511E+01 -0.69984204180E+02  0.74799777945E+02  0.00000000000E+00 0.  1.
<mgrwt>
<rscale>  0 0.93746957E+02</rscale>
<asrwt>0</asrwt>
<pdfrwt beam="1">  1        1 0.42636119E-02 0.93746957E+02</pdfrwt>
<pdfrwt beam="2">  1       -1 0.12196915E-01 0.93746957E+02</pdfrwt>
<totfact> 0.78951188E+04</totfact>
</mgrwt>
</event>
<event>
 5    1  0.6308903E+000  0.9409077E+02  0.7546771E-02  0.1293237E+00
          1   -1    0    0  501    0  0.00000000000E+00  0.00000000000E+00  0.22616395752E+03  0.22616395752E+03  0.00000000000E+00 0. -1.
         -1   -1    0    0    0  501 -0.00000000000E+00 -0.00000000000E+00 -0.97861237496E+01  0.97861237496E+01  0.00000000000E+00 0.  1.
         23    2    1    2    0    0  0.00000000000E+00  0.00000000000E+00  0.21637783377E+03  0.23595008127E+03  0.94090774809E+02 0.  0.
        -13    1    3    3    0    0 -0.35409369033E+02  0.98475324417E+00  0.18582498889E+03  0.18917113852E+03  0.00000000000E+00 0. -1.
         13    1    3    3    0    0  0.35409369033E+02 -0.98475324417E+00  0.30552844882E+02  0.46778942748E+02  0.00000000000E+00 0.  1.
<mgrwt>
<rscale>  0 0.94090775E+02</rscale>
<asrwt>0</asrwt>
<pdfrwt beam="1">  1        1 0.34794451E-01 0.94090775E+02</pdfrwt>
<pdfrwt beam="2">  1       -1 0.15055577E-02 0.94090775E+02</pdfrwt>
<totfact> 0.11146153E+05</totfact>
</mgrwt>
</event>
<event>
 5    1  0.6308903E+000  0.9126332E+02  0.7546771E-02  0.1299821E+00
          2   -1    0    0  501    0  0.00000000000E+00  0.00000000000E+00  0.12029632401E+03  0.12029632401E+03  0.00000000000E+00 0.  1.
         -2   -1    0    0    0  501 -0.00000000000E+00 -0.00000000000E+00 -0.17309326789E+02  0.17309326789E+02  0.00000000000E+00 0. -1.
         23    2    1    2    0    0  0.00000000000E+00  0.00000000000E+00  0.10298699722E+03  0.13760565080E+03  0.91263319768E+02 0.  0.
        -13    1    3    3    0    0  0.12864634330E+02  0.37331035227E+02  0.17006899264E+02  0.42992320595E+02  0.00000000000E+00 0. -1.
         13    1    3    3    0    0 -0.12864634330E+02 -0.37331035227E+02  0.85980097958E+02  0.94613330205E+02  0.00000000000E+00 0.  1.
<mgrwt>
<rscale>  0 0.91263320E+02</rscale>
<asrwt>0</asrwt>
<pdfrwt beam="1">  1        2 0.18507126E-01 0.91263320E+02</pdfrwt>
<pdfrwt beam="2">  1       -2 0.26629734E-02 0.91263320E+02</pdfrwt>
<totfact> 0.12963004E+05</totfact>
</mgrwt>
</event>
<event>
 5    1  0.6308903E+000  0.9069693E+02  0.7546771E-02  0.1301173E+00
          1   -1    0    0  501    0  0.00000000000E+00  0.00000000000E+00  0.88082869176E+02  0.88082869176E+02  0.00000000000E+00 0. -1.
         -1   -1    0    0    0  501 -0.00000000000E+00 -0.00000000000E+00 -0.23347143852E+02  0.23347143852E+02  0.00000000000E+00 0.  1.
         23    2    1    2    0    0  0.00000000000E+00  0.00000000000E+00  0.64735725324E+02  0.11143001303E+03  0.90696933081E+02 0.  0.
        -13    1    3    3    0    0 -0.24877534391E+02 -0.18564157291E+02 -0.82495692883E+01  0.32118142019E+02  0.00000000000E+00 0.  1.
         13    1    3    3    0    0  0.24877534391E+02  0.18564157291E+02  0.72985294612E+02  0.79311871009E+02  0.00000000000E+00 0. -1.
<mgrwt>
<rscale>  0 0.90696933E+02</rscale>
<asrwt>0</asrwt>
<pdfrwt beam="1">  1        1 0.13551210E-01 0.90696933E+02</pdfrwt>
<pdfrwt beam="2">  1       -1 0.35918683E-02 0.90696933E+02</pdfrwt>
<totfact> 0.10379037E+05</totfact>
</mgrwt>
</event>
<event>
 5    1  0.6308903E+000  0.9104478E+02  0.7546771E-02  0.1300341E+00
          2   -1    0    0  501    0  0.00000000000E+00  0.00000000000E+00  0.88948509269E+02  0.88948509269E+02  0.00000000000E+00 0. -1.
         -2   -1    0    0    0  501 -0.00000000000E+00 -0.00000000000E+00 -0.23297614742E+02  0.23297614742E+02  0.00000000000E+00 0.  1.
         23    2    1    2    0    0  0.00000000000E+00  0.00000000000E+00  0.65650894527E+02  0.11224612401E+03  0.91044782405E+02 0.  0.
        -13    1    3    3    0    0 -0.17695502181E+02  0.20543140682E+02  0.77907552788E+02  0.82490837115E+02  0.00000000000E+00 0. -1.
         13    1    3    3    0    0  0.17695502181E+02 -0.20543140682E+02 -0.12256658261E+02  0.29755286895E+02  0.00000000000E+00 0.  1.
<mgrwt>
<rscale>  0 0.91044782E+02</rscale>
<asrwt>0</asrwt>
<pdfrwt beam="1">  1        2 0.13684386E-01 0.91044782E+02</pdfrwt>
<pdfrwt beam="2">  1       -2 0.35842485E-02 0.91044782E+02</pdfrwt>
<totfact> 0.11892296E+05</totfact>
</mgrwt>
</event>
<event>
 5    1  0.6308903E+000  0.9088232E+02  0.7546771E-02  0.1300729E+00
          1   -1    0    0  501    0  0.00000000000E+00  0.00000000000E+00  0.55769075828E+02  0.55769075828E+02  0.00000000000E+00 0. -1.
         -1   -1    0    0    0  501 -0.00000000000E+00 -0.00000000000E+00 -0.37025879513E+02  0.37025879513E+02  0.00000000000E+00 0.  1.
         23    2    1    2    0    0  0.00000000000E+00  0.00000000000E+00  0.18743196315E+02  0.92794955341E+02  0.90882321321E+02 0.  0.
        -13    1    3    3    0    0  0.24189838822E+02 -0.12184459402E+02  0.46626313255E+02  0.53922374215E+02  0.00000000000E+00 0. -1.
         13    1    3    3    0    0 -0.24189838822E+02  0.12184459402E+02 -0.27883116940E+02  0.38872581127E+02  0.00000000000E+00 0.  1.
<mgrwt>
<rscale>  0 0.90882321E+02</rscale>
<asrwt>0</asrwt>
<pdfrwt beam="1">  1        1 0.85798578E-02 0.90882321E+02</pdfrwt>
<pdfrwt beam="2">  1       -1 0.56962891E-02 0.90882321E+02</pdfrwt>
<totfact> 0.96175526E+04</totfact>
</mgrwt>
</event>
<event>
 5    1  0.6308903E+000  0.9066160E+02  0.7546771E-02  0.1301257E+00
          1   -1    0    0  501    0  0.00000000000E+00  0.00000000000E+00  0.36417153399E+02  0.36417153399E+02  0.00000000000E+00 0. -1.
         -1   -1    0    0    0  501 -0.00000000000E+00 -0.00000000000E+00 -0.56426196124E+02  0.56426196124E+02  0.00000000000E+00 0.  1.
         23    2    1    2    0    0  0.00000000000E+00  0.00000000000E+00 -0.20009042725E+02  0.92843349523E+02  0.90661600250E+02 0.  0.
        -13    1    3    3    0    0  0.46394666426E+01 -0.25425826067E+02  0.28132565276E+02  0.38202598222E+02  0.00000000000E+00 0. -1.
         13    1    3    3    0    0 -0.46394666426E+01  0.25425826067E+02 -0.48141608001E+02  0.54640751302E+02  0.00000000000E+00 0.  1.
<mgrwt>
<rscale>  0 0.90661600E+02</rscale>
<asrwt>0</asrwt>
<pdfrwt beam="1">  1        1 0.56026390E-02 0.90661600E+02</pdfrwt>
<pdfrwt beam="2">  1       -1 0.86809532E-02 0.90661600E+02</pdfrwt>
<totfact> 0.90819278E+04</totfact>
</mgrwt>
</event>
<event>
 5    1  0.6308903E+000  0.8572371E+02  0.7546771E-02  0.1313551E+00
          1   -1    0    0  501    0  0.00000000000E+00  0.00000000000E+00  0.22714751931E+03  0.22714751931E+03  0.00000000000E+00 0. -1.
         -1   -1    0    0    0  501 -0.00000000000E+00 -0.00000000000E+00 -0.80878657173E+01  0.80878657173E+01  0.00000000000E+00 0.  1.
         23    2    1    2    0    0  0.00000000000E+00  0.00000000000E+00  0.21905965359E+03  0.23523538502E+03  0.85723710470E+02 0.  0.
        -13    1    3    3    0    0 -0.89387654233E+01  0.36039839527E+02  0.16827989787E+03  0.17232787234E+03  0.00000000000E+00 0. -1.
         13    1    3    3    0    0  0.89387654233E+01 -0.36039839527E+02  0.50779755722E+02  0.62907512680E+02  0.00000000000E+00 0.  1.
<mgrwt>
<rscale>  0 0.85723710E+02</rscale>
<asrwt>0</asrwt>
<pdfrwt beam="1">  1        1 0.34945767E-01 0.85723710E+02</pdfrwt>
<pdfrwt beam="2">  1       -1 0.12442872E-02 0.85723710E+02</pdfrwt>
<totfact> 0.14306313E+05</totfact>
</mgrwt>
</event>
<event>
 5    1  0.6308903E+000  0.9169466E+02  0.7546771E-02  0.1298799E+00
         -1   -1    0    0    0  501 -0.00000000000E+00  0.00000000000E+00  0.13914777552E+03  0.13914777552E+03  0.00000000000E+00 0.  1.
          1   -1    0    0  501    0  0.00000000000E+00 -0.00000000000E+00 -0.15106080303E+02  0.15106080303E+02  0.00000000000E+00 0. -1.
         23    2    1    2    0    0  0.00000000000E+00  0.00000000000E+00  0.12404169522E+03  0.15425385582E+03  0.91694655700E+02 0.  0.
        -13    1    3    3    0    0 -0.10745031819E+02 -0.30496528737E+02  0.73414950777E+01  0.33157073510E+02  0.00000000000E+00 0. -1.
         13    1    3    3    0    0  0.10745031819E+02  0.30496528737E+02  0.11670020014E+03  0.12109678231E+03  0.00000000000E+00 0.  1.
<mgrwt>
<rscale>  0 0.91694656E+02</rscale>
<asrwt>0</asrwt>
<pdfrwt beam="2">  1        1 0.23240125E-02 0.91694656E+02</pdfrwt>
<pdfrwt beam="1">  1       -1 0.21407349E-01 0.91694656E+02</pdfrwt>
<totfact> 0.74973980E+04</totfact>
</mgrwt>
</event>
<event>
 5    1  0.6308903E+000  0.9588365E+02  0.7546771E-02  0.1289198E+00
          4   -1    0    0  501    0  0.00000000000E+00  0.00000000000E+00  0.14449196489E+02  0.14449196489E+02  0.00000000000E+00 0. -1.
         -4   -1    0    0    0  501 -0.00000000000E+00 -0.00000000000E+00 -0.15906894272E+03  0.15906894272E+03  0.00000000000E+00 0.  1.
         23    2    1    2    0    0  0.00000000000E+00  0.00000000000E+00 -0.14461974623E+03  0.17351813921E+03  0.95883646336E+02 0.  0.
        -13    1    3    3    0    0  0.45981521220E+02 -0.88025205889E+00 -0.96813638658E+02  0.10718188171E+03  0.00000000000E+00 0.  1.
         13    1    3    3    0    0 -0.45981521220E+02  0.88025205889E+00 -0.47806107577E+02  0.66336257499E+02  0.00000000000E+00 0. -1.
<mgrwt>
<rscale>  0 0.95883646E+02</rscale>
<asrwt>0</asrwt>
<pdfrwt beam="1">  1        4 0.22229532E-02 0.95883646E+02</pdfrwt>
<pdfrwt beam="2">  1       -4 0.24472146E-01 0.95883646E+02</pdfrwt>
<totfact> 0.19682713E+04</totfact>
</mgrwt>
</event>
<event>
 5    1  0.6308903E+000  0.9065183E+02  0.7546771E-02  0.1301281E+00
         -1   -1    0    0    0  501 -0.00000000000E+00  0.00000000000E+00  0.17603362474E+02  0.17603362474E+02  0.00000000000E+00 0.  1.
          1   -1    0    0  501    0  0.00000000000E+00 -0.00000000000E+00 -0.11670717258E+03  0.11670717258E+03  0.00000000000E+00 0. -1.
         23    2    1    2    0    0  0.00000000000E+00  0.00000000000E+00 -0.99103810104E+02  0.13431053505E+03  0.90651832023E+02 0.  0.
        -13    1    3    3    0    0  0.22055561992E+02 -0.93466708412E+01 -0.10656266799E+03  0.10922183976E+03  0.00000000000E+00 0. -1.
         13    1    3    3    0    0 -0.22055561992E+02  0.93466708412E+01  0.74588578878E+01  0.25088695295E+02  0.00000000000E+00 0.  1.
<mgrwt>
<rscale>  0 0.90651832E+02</rscale>
<asrwt>0</asrwt>
<pdfrwt beam="2">  1        1 0.17954949E-01 0.90651832E+02</pdfrwt>
<pdfrwt beam="1">  1       -1 0.27082097E-02 0.90651832E+02</pdfrwt>
<totfact> 0.10891339E+05</totfact>
</mgrwt>
</event>
<event>
 5    1  0.6308903E+000  0.8484910E+02  0.7546771E-02  0.1315828E+00
         -1   -1    0    0    0  501 -0.00000000000E+00  0.00000000000E+00  0.17637338246E+02  0.17637338246E+02  0.00000000000E+00 0.  1.
          1   -1    0    0  501    0  0.00000000000E+00 -0.00000000000E+00 -0.10204728923E+03  0.10204728923E+03  0.00000000000E+00 0. -1.
         23    2    1    2    0    0  0.00000000000E+00  0.00000000000E+00 -0.84409950983E+02  0.11968462748E+03  0.84849102700E+02 0.  0.
        -13    1    3    3    0    0 -0.30615707353E+02  0.21767207064E+02 -0.14394794379E+02  0.40228633401E+02  0.00000000000E+00 0.  1.
         13    1    3    3    0    0  0.30615707353E+02 -0.21767207064E+02 -0.70015156604E+02  0.79455994075E+02  0.00000000000E+00 0. -1.
<mgrwt>
<rscale>  0 0.84849103E+02</rscale>
<asrwt>0</asrwt>
<pdfrwt beam="2">  1        1 0.15699583E-01 0.84849103E+02</pdfrwt>
<pdfrwt beam="1">  1       -1 0.27134366E-02 0.84849103E+02</pdfrwt>
<totfact> 0.12735856E+05</totfact>
</mgrwt>
</event>
<event>
 5    1  0.6308903E+000  0.9017831E+02  0.7546771E-02  0.1302420E+00
          1   -1    0    0  501    0  0.00000000000E+00  0.00000000000E+00  0.14477444000E+02  0.14477444000E+02  0.00000000000E+00 0. -1.
         -1   -1    0    0    0  501 -0.00000000000E+00 -0.00000000000E+00 -0.14042755051E+03  0.14042755051E+03  0.00000000000E+00 0.  1.
         23    2    1    2    0    0  0.00000000000E+00  0.00000000000E+00 -0.12595010651E+03  0.15490499451E+03  0.90178312215E+02 0.  0.
        -13    1    3    3    0    0  0.16158864344E+02  0.36325565930E+02 -0.99510403034E+02  0.10715864850E+03  0.00000000000E+00 0.  1.
         13    1    3    3    0    0 -0.16158864344E+02 -0.36325565930E+02 -0.26439703474E+02  0.47746346004E+02  0.00000000000E+00 0. -1.
<mgrwt>
<rscale>  0 0.90178312E+02</rscale>
<asrwt>0</asrwt>
<pdfrwt beam="1">  1        1 0.22272991E-02 0.90178312E+02</pdfrwt>
<pdfrwt beam="2">  1       -1 0.21604238E-01 0.90178312E+02</pdfrwt>
<totfact> 0.78125045E+04</totfact>
</mgrwt>
</event>
<event>
 5    1  0.6308903E+000  0.9469156E+02  0.7546771E-02  0.1291872E+00
         -2   -1    0    0    0  501 -0.00000000000E+00  0.00000000000E+00  0.25321783186E+02  0.25321783186E+02  0.00000000000E+00 0.  1.
          2   -1    0    0  501    0  0.00000000000E+00 -0.00000000000E+00 -0.88525465653E+02  0.88525465653E+02  0.00000000000E+00 0. -1.
         23    2    1    2    0    0  0.00000000000E+00  0.00000000000E+00 -0.63203682467E+02  0.11384724884E+03  0.94691555014E+02 0.  0.
        -13    1    3    3    0    0 -0.24810012381E+02  0.60004648778E+01 -0.79544357868E+02  0.83539494622E+02  0.00000000000E+00 0. -1.
         13    1    3    3    0    0  0.24810012381E+02 -0.60004648778E+01  0.16340675401E+02  0.30307754217E+02  0.00000000000E+00 0.  1.
<mgrwt>
<rscale>  0 0.94691555E+02</rscale>
<asrwt>0</asrwt>
<pdfrwt beam="2">  1        2 0.13619302E-01 0.94691555E+02</pdfrwt>
<pdfrwt beam="1">  1       -2 0.38956590E-02 0.94691555E+02</pdfrwt>
<totfact> 0.10648586E+05</totfact>
</mgrwt>
</event>
<event>
 5    1  0.6308903E+000  0.9142878E+02  0.7546771E-02  0.1299428E+00
         -4   -1    0    0    0  501 -0.00000000000E+00  0.00000000000E+00  0.38501240314E+02  0.38501240314E+02  0.00000000000E+00 0.  1.
          4   -1    0    0  501    0  0.00000000000E+00 -0.00000000000E+00 -0.54278913153E+02  0.54278913153E+02  0.00000000000E+00 0. -1.
         23    2    1    2    0    0  0.00000000000E+00  0.00000000000E+00 -0.15777672838E+02  0.92780153467E+02  0.91428780573E+02 0.  0.
        -13    1    3    3    0    0 -0.32595669473E+02  0.31990716752E+02 -0.58791986169E+01  0.46048328993E+02  0.00000000000E+00 0.  1.
         13    1    3    3    0    0  0.32595669473E+02 -0.31990716752E+02 -0.98984742215E+01  0.46731824473E+02  0.00000000000E+00 0. -1.
<mgrwt>
<rscale>  0 0.91428781E+02</rscale>
<asrwt>0</asrwt>
<pdfrwt beam="2">  1        4 0.83506020E-02 0.91428781E+02</pdfrwt>
<pdfrwt beam="1">  1       -4 0.59232677E-02 0.91428781E+02</pdfrwt>
<totfact> 0.26712329E+04</totfact>
</mgrwt>
</event>
<event>
 5    1  0.6308903E+000  0.9199431E+02  0.7546771E-02  0.1298093E+00
         -2   -1    0    0    0  501 -0.00000000000E+00  0.00000000000E+00  0.72642685943E+01  0.72642685943E+01  0.00000000000E+00 0.  1.
          2   -1    0    0  501    0  0.00000000000E+00 -0.00000000000E+00 -0.29125277086E+03  0.29125277086E+03  0.00000000000E+00 0. -1.
         23    2    1    2    0    0  0.00000000000E+00  0.00000000000E+00 -0.28398850227E+03  0.29851703946E+03  0.91994311920E+02 0.  0.
        -13    1    3    3    0    0  0.37954591037E+02 -0.68422252736E+01 -0.60651973089E+02  0.71875092119E+02  0.00000000000E+00 0.  1.
         13    1    3    3    0    0 -0.37954591037E+02  0.68422252736E+01 -0.22333652918E+03  0.22664194734E+03  0.00000000000E+00 0. -1.
<mgrwt>
<rscale>  0 0.91994312E+02</rscale>
<asrwt>0</asrwt>
<pdfrwt beam="2">  1        2 0.44808112E-01 0.91994312E+02</pdfrwt>
<pdfrwt beam="1">  1       -2 0.11175799E-02 0.91994312E+02</pdfrwt>
<totfact> 0.17350099E+05</totfact>
</mgrwt>
</event>
<event>
 5    1  0.6308903E+000  0.8927491E+02  0.7546771E-02  0.1304617E+00
         -3   -1    0    0    0  501 -0.00000000000E+00  0.00000000000E+00  0.43992013401E+02  0.43992013401E+02  0.00000000000E+00 0. -1.
          3   -1    0    0  501    0  0.00000000000E+00 -0.00000000000E+00 -0.45292365567E+02  0.45292365567E+02  0.00000000000E+00 0.  1.
         23    2    1    2    0    0  0.00000000000E+00  0.00000000000E+00 -0.13003521655E+01  0.89284378968E+02  0.89274909196E+02 0.  0.
        -13    1    3    3    0    0 -0.40773532350E+02 -0.17811375736E+02 -0.42249512802E+01  0.44694253089E+02  0.00000000000E+00 0.  1.
         13    1    3    3    0    0  0.40773532350E+02  0.17811375736E+02  0.29245991147E+01  0.44590125879E+02  0.00000000000E+00 0. -1.
<mgrwt>
<rscale>  0 0.89274909E+02</rscale>
<asrwt>0</asrwt>
<pdfrwt beam="2">  1        3 0.69680563E-02 0.89274909E+02</pdfrwt>
<pdfrwt beam="1">  1       -3 0.67680020E-02 0.89274909E+02</pdfrwt>
<totfact> 0.37577412E+04</totfact>
</mgrwt>
</event>
<event>
 5    1  0.6308903E+000  0.9126737E+02  0.7546771E-02  0.1299811E+00
         -3   -1    0    0    0  501 -0.00000000000E+00  0.00000000000E+00  0.41604698645E+01  0.41604698645E+01  0.00000000000E+00 0.  1.
          3   -1    0    0  501    0  0.00000000000E+00 -0.00000000000E+00 -0.50052841591E+03  0.50052841591E+03  0.00000000000E+00 0. -1.
         23    2    1    2    0    0  0.00000000000E+00  0.00000000000E+00 -0.49636794605E+03  0.50468888578E+03  0.91267374033E+02 0.  0.
        -13    1    3    3    0    0  0.91605674119E+01 -0.44622384095E+02 -0.26318613916E+03  0.26709926433E+03  0.00000000000E+00 0.  1.
         13    1    3    3    0    0 -0.91605674119E+01  0.44622384095E+02 -0.23318180688E+03  0.23758962145E+03  0.00000000000E+00 0. -1.
<mgrwt>
<rscale>  0 0.91267374E+02</rscale>
<asrwt>0</asrwt>
<pdfrwt beam="2">  1        3 0.77004382E-01 0.91267374E+02</pdfrwt>
<pdfrwt beam="1">  1       -3 0.64007220E-03 0.91267374E+02</pdfrwt>
<totfact> 0.17752162E+04</totfact>
</mgrwt>
</event>
<event>
 5    1  0.6308903E+000  0.9179596E+02  0.7546771E-02  0.1298560E+00
         -1   -1    0    0    0  501 -0.00000000000E+00  0.00000000000E+00  0.16600343587E+02  0.16600343587E+02  0.00000000000E+00 0.  1.
          1   -1    0    0  501    0  0.00000000000E+00 -0.00000000000E+00 -0.12690246214E+03  0.12690246214E+03  0.00000000000E+00 0. -1.
         23    2    1    2    0    0  0.00000000000E+00  0.00000000000E+00 -0.11030211855E+03  0.14350280572E+03  0.91795957939E+02 0.  0.
        -13    1    3    3    0    0 -0.23847868479E+02 -0.19554364128E+02 -0.10829179196E+03  0.11259754079E+03  0.00000000000E+00 0. -1.
         13    1    3    3    0    0  0.23847868479E+02  0.19554364128E+02 -0.20103265931E+01  0.30905264931E+02  0.00000000000E+00 0.  1.
<mgrwt>
<rscale>  0 0.91795958E+02</rscale>
<asrwt>0</asrwt>
<pdfrwt beam="2">  1        1 0.19523456E-01 0.91795958E+02</pdfrwt>
<pdfrwt beam="1">  1       -1 0.25538990E-02 0.91795958E+02</pdfrwt>
<totfact> 0.10682234E+05</totfact>
</mgrwt>
</event>
<event>
 5    1  0.6308903E+000  0.9009274E+02  0.7546771E-02  0.1302627E+00
         -1   -1    0    0    0  501 -0.00000000000E+00  0.00000000000E+00  0.72220802319E+01  0.72220802319E+01  0.00000000000E+00 0.  1.
          1   -1    0    0  501    0  0.00000000000E+00 -0.00000000000E+00 -0.28096825879E+03  0.28096825879E+03  0.00000000000E+00 0. -1.
         23    2    1    2    0    0  0.00000000000E+00  0.00000000000E+00 -0.27374617855E+03  0.28819033902E+03  0.90092736834E+02 0.  0.
        -13    1    3    3    0    0  0.31204661307E+02 -0.31339679172E+02 -0.16425410543E+03  0.17010384337E+03  0.00000000000E+00 0. -1.
         13    1    3    3    0    0 -0.31204661307E+02  0.31339679172E+02 -0.10949207313E+03  0.11808649565E+03  0.00000000000E+00 0.  1.
<mgrwt>
<rscale>  0 0.90092737E+02</rscale>
<asrwt>0</asrwt>
<pdfrwt beam="2">  1        1 0.43225883E-01 0.90092737E+02</pdfrwt>
<pdfrwt beam="1">  1       -1 0.11110893E-02 0.90092737E+02</pdfrwt>
<totfact> 0.13061403E+05</totfact>
</mgrwt>
</event>
<event>
 5    1  0.6308903E+000  0.9642839E+02  0.7546771E-02  0.1287991E+00
          3   -1    0    0  501    0  0.00000000000E+00  0.00000000000E+00  0.14631632416E+02  0.14631632416E+02  0.00000000000E+00 0. -1.
         -3   -1    0    0    0  501 -0.00000000000E+00 -0.00000000000E+00 -0.15887553773E+03  0.15887553773E+03  0.00000000000E+00 0.  1.
         23    2    1    2    0    0  0.00000000000E+00  0.00000000000E+00 -0.14424390532E+03  0.17350717015E+03  0.96428387272E+02 0.  0.
        -13    1    3    3    0    0 -0.18221492253E+02 -0.30068984303E+02 -0.13148485735E+03  0.13610449776E+03  0.00000000000E+00 0.  1.
         13    1    3    3    0    0  0.18221492253E+02  0.30068984303E+02 -0.12759047962E+02  0.37402672389E+02  0.00000000000E+00 0. -1.
<mgrwt>
<rscale>  0 0.96428387E+02</rscale>
<asrwt>0</asrwt>
<pdfrwt beam="1">  1        3 0.22510203E-02 0.96428387E+02</pdfrwt>
<pdfrwt beam="2">  1       -3 0.24442391E-01 0.96428387E+02</pdfrwt>
<totfact> 0.25705875E+04</totfact>
</mgrwt>
</event>
<event>
 5    1  0.6308903E+000  0.9024952E+02  0.7546771E-02  0.1302249E+00
          3   -1    0    0  501    0  0.00000000000E+00  0.00000000000E+00  0.93380226558E+01  0.93380226558E+01  0.00000000000E+00 0. -1.
         -3   -1    0    0    0  501 -0.00000000000E+00 -0.00000000000E+00 -0.21805945993E+03  0.21805945993E+03  0.00000000000E+00 0.  1.
         23    2    1    2    0    0  0.00000000000E+00  0.00000000000E+00 -0.20872143727E+03  0.22739748258E+03  0.90249524700E+02 0.  0.
        -13    1    3    3    0    0 -0.25110793694E+02  0.23832792116E+02 -0.17728672922E+03  0.18063537388E+03  0.00000000000E+00 0.  1.
         13    1    3    3    0    0  0.25110793694E+02 -0.23832792116E+02 -0.31434708056E+02  0.46762108706E+02  0.00000000000E+00 0. -1.
<mgrwt>
<rscale>  0 0.90249525E+02</rscale>
<asrwt>0</asrwt>
<pdfrwt beam="1">  1        3 0.14366189E-02 0.90249525E+02</pdfrwt>
<pdfrwt beam="2">  1       -3 0.33547610E-01 0.90249525E+02</pdfrwt>
<totfact> 0.27894987E+04</totfact>
</mgrwt>
</event>
<event>
 5    1  0.6308903E+000  0.9466197E+02  0.7546771E-02  0.1291939E+00
          3   -1    0    0  501    0  0.00000000000E+00  0.00000000000E+00  0.42297297570E+02  0.42297297570E+02  0.00000000000E+00 0. -1.
         -3   -1    0    0    0  501 -0.00000000000E+00 -0.00000000000E+00 -0.52963716964E+02  0.52963716964E+02  0.00000000000E+00 0.  1.
         23    2    1    2    0    0  0.00000000000E+00  0.00000000000E+00 -0.10666419394E+02  0.95261014533E+02  0.94661969065E+02 0.  0.
        -13    1    3    3    0    0  0.28945049584E+02  0.36147127746E+02 -0.15182452220E+02  0.48733331460E+02  0.00000000000E+00 0.  1.
         13    1    3    3    0    0 -0.28945049584E+02 -0.36147127746E+02  0.45160328260E+01  0.46527683074E+02  0.00000000000E+00 0. -1.
<mgrwt>
<rscale>  0 0.94661969E+02</rscale>
<asrwt>0</asrwt>
<pdfrwt beam="1">  1        3 0.65072766E-02 0.94661969E+02</pdfrwt>
<pdfrwt beam="2">  1       -3 0.81482641E-02 0.94661969E+02</pdfrwt>
<totfact> 0.31613810E+04</totfact>
</mgrwt>
</event>
<event>
 5    1  0.6308903E+000  0.9444977E+02  0.7546771E-02  0.1292420E+00
         -2   -1    0    0    0  501 -0.00000000000E+00  0.00000000000E+00  0.12491926425E+02  0.12491926425E+02  0.00000000000E+00 0.  1.
          2   -1    0    0  501    0  0.00000000000E+00 -0.00000000000E+00 -0.17853049055E+03  0.17853049055E+03  0.00000000000E+00 0. -1.
         23    2    1    2    0    0  0.00000000000E+00  0.00000000000E+00 -0.16603856412E+03  0.19102241697E+03  0.94449769773E+02 0.  0.
        -13    1    3    3    0    0 -0.39727014093E+02  0.23009263346E+02 -0.10540654162E+03  0.11497043474E+03  0.00000000000E+00 0. -1.
         13    1    3    3    0    0  0.39727014093E+02 -0.23009263346E+02 -0.60632022501E+02  0.76051982229E+02  0.00000000000E+00 0.  1.
<mgrwt>
<rscale>  0 0.94449770E+02</rscale>
<asrwt>0</asrwt>
<pdfrwt beam="2">  1        2 0.27466227E-01 0.94449770E+02</pdfrwt>
<pdfrwt beam="1">  1       -2 0.19218350E-02 0.94449770E+02</pdfrwt>
<totfact> 0.13498560E+05</totfact>
</mgrwt>
</event>
<event>
 5    1  0.6308903E+000  0.9122870E+02  0.7546771E-02  0.1299903E+00
         -2   -1    0    0    0  501 -0.00000000000E+00  0.00000000000E+00  0.14373199667E+02  0.14373199667E+02  0.00000000000E+00 0. -1.
          2   -1    0    0  501    0  0.00000000000E+00 -0.00000000000E+00 -0.14476031583E+03  0.14476031583E+03  0.00000000000E+00 0.  1.
         23    2    1    2    0    0  0.00000000000E+00  0.00000000000E+00 -0.13038711617E+03  0.15913351550E+03  0.91228699943E+02 0.  0.
        -13    1    3    3    0    0  0.24779390463E+02 -0.19543491670E+02 -0.12264296171E+03  0.12663831298E+03  0.00000000000E+00 0.  1.
         13    1    3    3    0    0 -0.24779390463E+02  0.19543491670E+02 -0.77441544565E+01  0.32495202517E+02  0.00000000000E+00 0. -1.
<mgrwt>
<rscale>  0 0.91228700E+02</rscale>
<asrwt>0</asrwt>
<pdfrwt beam="2">  1        2 0.22270817E-01 0.91228700E+02</pdfrwt>
<pdfrwt beam="1">  1       -2 0.22112616E-02 0.91228700E+02</pdfrwt>
<totfact> 0.13792257E+05</totfact>
</mgrwt>
</event>
<event>
 5    1  0.6308903E+000  0.9154193E+02  0.7546771E-02  0.1299160E+00
          2   -1    0    0  501    0  0.00000000000E+00  0.00000000000E+00  0.27240790287E+03  0.27240790287E+03  0.00000000000E+00 0.  1.
         -2   -1    0    0    0  501 -0.00000000000E+00 -0.00000000000E+00 -0.76906034013E+01  0.76906034013E+01  0.00000000000E+00 0. -1.
         23    2    1    2    0    0  0.00000000000E+00  0.00000000000E+00  0.26471729947E+03  0.28009850628E+03  0.91541927976E+02 0.  0.
        -13    1    3    3    0    0  0.43234631668E+02 -0.15019423620E+02  0.13360034524E+03  0.14122276272E+03  0.00000000000E+00 0. -1.
         13    1    3    3    0    0 -0.43234631668E+02  0.15019423620E+02  0.13111695423E+03  0.13887574356E+03  0.00000000000E+00 0.  1.
<mgrwt>
<rscale>  0 0.91541928E+02</rscale>
<asrwt>0</asrwt>
<pdfrwt beam="1">  1        2 0.41908901E-01 0.91541928E+02</pdfrwt>
<pdfrwt beam="2">  1       -2 0.11831700E-02 0.91541928E+02</pdfrwt>
<totfact> 0.17146656E+05</totfact>
</mgrwt>
</event>
<event>
 5    1  0.6308903E+000  0.9222246E+02  0.7546771E-02  0.1297557E+00
         -1   -1    0    0    0  501 -0.00000000000E+00  0.00000000000E+00  0.73729842167E+02  0.73729842167E+02  0.00000000000E+00 0.  1.
          1   -1    0    0  501    0  0.00000000000E+00 -0.00000000000E+00 -0.28838328301E+02  0.28838328301E+02  0.00000000000E+00 0. -1.
         23    2    1    2    0    0  0.00000000000E+00  0.00000000000E+00  0.44891513866E+02  0.10256817047E+03  0.92222457005E+02 0.  0.
        -13    1    3    3    0    0  0.37764998122E+02 -0.25798531664E+02  0.15914484439E+02  0.48425511191E+02  0.00000000000E+00 0. -1.
         13    1    3    3    0    0 -0.37764998122E+02  0.25798531664E+02  0.28977029427E+02  0.54142659277E+02  0.00000000000E+00 0.  1.
<mgrwt>
<rscale>  0 0.92222457E+02</rscale>
<asrwt>0</asrwt>
<pdfrwt beam="2">  1        1 0.44366659E-02 0.92222457E+02</pdfrwt>
<pdfrwt beam="1">  1       -1 0.11343053E-01 0.92222457E+02</pdfrwt>
<totfact> 0.83344590E+04</totfact>
</mgrwt>
</event>
<event>
 5    1  0.6308903E+000  0.9152540E+02  0.7546771E-02  0.1299199E+00
         -3   -1    0    0    0  501 -0.00000000000E+00  0.00000000000E+00  0.25693238521E+02  0.25693238521E+02  0.00000000000E+00 0.  1.
          3   -1    0    0  501    0  0.00000000000E+00 -0.00000000000E+00 -0.81508783679E+02  0.81508783679E+02  0.00000000000E+00 0. -1.
         23    2    1    2    0    0  0.00000000000E+00  0.00000000000E+00 -0.55815545158E+02  0.10720202220E+03  0.91525398018E+02 0.  0.
        -13    1    3    3    0    0 -0.18932435951E+02 -0.40746773672E+02 -0.17731233724E+02  0.48302519034E+02  0.00000000000E+00 0. -1.
         13    1    3    3    0    0  0.18932435951E+02  0.40746773672E+02 -0.38084311434E+02  0.58899503165E+02  0.00000000000E+00 0.  1.
<mgrwt>
<rscale>  0 0.91525398E+02</rscale>
<asrwt>0</asrwt>
<pdfrwt beam="2">  1        3 0.12539813E-01 0.91525398E+02</pdfrwt>
<pdfrwt beam="1">  1       -3 0.39528060E-02 0.91525398E+02</pdfrwt>
<totfact> 0.33792034E+04</totfact>
</mgrwt>
</event>
<event>
 5    1  0.6308903E+000  0.8237830E+02  0.7546771E-02  0.1322435E+00
         -2   -1    0    0    0  501 -0.00000000000E+00  0.00000000000E+00  0.94419428487E+02  0.94419428487E+02  0.00000000000E+00 0.  1.
          2   -1    0    0  501    0  0.00000000000E+00 -0.00000000000E+00 -0.17968187925E+02  0.17968187925E+02  0.00000000000E+00 0. -1.
         23    2    1    2    0    0  0.00000000000E+00  0.00000000000E+00  0.76451240562E+02  0.11238761641E+03  0.82378298959E+02 0.  0.
        -13    1    3    3    0    0 -0.23200519884E+02  0.36161826860E+01 -0.79430412230E+01  0.24787755122E+02  0.00000000000E+00 0. -1.
         13    1    3    3    0    0  0.23200519884E+02 -0.36161826860E+01  0.84394281785E+02  0.87599861291E+02  0.00000000000E+00 0.  1.
<mgrwt>
<rscale>  0 0.82378299E+02</rscale>
<asrwt>0</asrwt>
<pdfrwt beam="2">  1        2 0.27643367E-02 0.82378299E+02</pdfrwt>
<pdfrwt beam="1">  1       -2 0.14526066E-01 0.82378299E+02</pdfrwt>
<totfact> 0.10441385E+05</totfact>
</mgrwt>
</event>
<event>
 5    1  0.6308903E+000  0.8518843E+02  0.7546771E-02  0.1314941E+00
          1   -1    0    0  501    0  0.00000000000E+00  0.00000000000E+00  0.32605904476E+02  0.32605904476E+02  0.00000000000E+00 0. -1.
         -1   -1    0    0    0  501 -0.00000000000E+00 -0.00000000000E+00 -0.55642282274E+02  0.55642282274E+02  0.00000000000E+00 0.  1.
         23    2    1    2    0    0  0.00000000000E+00  0.00000000000E+00 -0.23036377798E+02  0.88248186750E+02  0.85188425051E+02 0.  0.
        -13    1    3    3    0    0 -0.24284094172E+02  0.24837226967E+02 -0.37054384335E+02  0.50790082414E+02  0.00000000000E+00 0.  1.
         13    1    3    3    0    0  0.24284094172E+02 -0.24837226967E+02  0.14018006537E+02  0.37458104336E+02  0.00000000000E+00 0. -1.
<mgrwt>
<rscale>  0 0.85188425E+02</rscale>
<asrwt>0</asrwt>
<pdfrwt beam="1">  1        1 0.50162931E-02 0.85188425E+02</pdfrwt>
<pdfrwt beam="2">  1       -1 0.85603510E-02 0.85188425E+02</pdfrwt>
<totfact> 0.10651268E+05</totfact>
</mgrwt>
</event>
<event>
 5    1  0.6308903E+000  0.8620109E+02  0.7546771E-02  0.1312321E+00
          1   -1    0    0  501    0  0.00000000000E+00  0.00000000000E+00  0.93059942026E+01  0.93059942026E+01  0.00000000000E+00 0. -1.
         -1   -1    0    0    0  501 -0.00000000000E+00 -0.00000000000E+00 -0.19961939888E+03  0.19961939888E+03  0.00000000000E+00 0.  1.
         23    2    1    2    0    0  0.00000000000E+00  0.00000000000E+00 -0.19031340467E+03  0.20892539308E+03  0.86201089753E+02 0.  0.
        -13    1    3    3    0    0 -0.38318699411E+02  0.17270952001E+02 -0.72029943234E+02  0.83396170355E+02  0.00000000000E+00 0. -1.
         13    1    3    3    0    0  0.38318699411E+02 -0.17270952001E+02 -0.11828346144E+03  0.12552922272E+03  0.00000000000E+00 0.  1.
<mgrwt>
<rscale>  0 0.86201090E+02</rscale>
<asrwt>0</asrwt>
<pdfrwt beam="1">  1        1 0.14316915E-02 0.86201090E+02</pdfrwt>
<pdfrwt beam="2">  1       -1 0.30710675E-01 0.86201090E+02</pdfrwt>
<totfact> 0.80371009E+04</totfact>
</mgrwt>
</event>
<event>
 5    1  0.6308903E+000  0.8988481E+02  0.7546771E-02  0.1303131E+00
         -2   -1    0    0    0  501 -0.00000000000E+00  0.00000000000E+00  0.17444812179E+02  0.17444812179E+02  0.00000000000E+00 0.  1.
          2   -1    0    0  501    0  0.00000000000E+00 -0.00000000000E+00 -0.11578341726E+03  0.11578341726E+03  0.00000000000E+00 0. -1.
         23    2    1    2    0    0  0.00000000000E+00  0.00000000000E+00 -0.98338605080E+02  0.13322822944E+03  0.89884814456E+02 0.  0.
        -13    1    3    3    0    0  0.20400872604E+02 -0.29519693340E+02 -0.89277059234E+02  0.96218507592E+02  0.00000000000E+00 0. -1.
         13    1    3    3    0    0 -0.20400872604E+02  0.29519693340E+02 -0.90615458460E+01  0.37009721844E+02  0.00000000000E+00 0.  1.
<mgrwt>
<rscale>  0 0.89884814E+02</rscale>
<asrwt>0</asrwt>
<pdfrwt beam="2">  1        2 0.17812834E-01 0.89884814E+02</pdfrwt>
<pdfrwt beam="1">  1       -2 0.26838172E-02 0.89884814E+02</pdfrwt>
<totfact> 0.13349883E+05</totfact>
</mgrwt>
</event>
<event>
 5    1  0.6308903E+000  0.9293306E+02  0.7546771E-02  0.1295900E+00
          2   -1    0    0  501    0  0.00000000000E+00  0.00000000000E+00  0.92779685197E+02  0.92779685197E+02  0.00000000000E+00 0. -1.
         -2   -1    0    0    0  501 -0.00000000000E+00 -0.00000000000E+00 -0.23271673868E+02  0.23271673868E+02  0.00000000000E+00 0.  1.
         23    2    1    2    0    0  0.00000000000E+00  0.00000000000E+00  0.69508011329E+02  0.11605135906E+03  0.92933063555E+02 0.  0.
        -13    1    3    3    0    0 -0.40357209200E+02  0.17760175424E+02  0.16443104417E+02  0.47058515153E+02  0.00000000000E+00 0.  1.
         13    1    3    3    0    0  0.40357209200E+02 -0.17760175424E+02  0.53064906912E+02  0.68992843912E+02  0.00000000000E+00 0. -1.
<mgrwt>
<rscale>  0 0.92933064E+02</rscale>
<asrwt>0</asrwt>
<pdfrwt beam="1">  1        2 0.14273798E-01 0.92933064E+02</pdfrwt>
<pdfrwt beam="2">  1       -2 0.35802576E-02 0.92933064E+02</pdfrwt>
<totfact> 0.11376774E+05</totfact>
</mgrwt>
</event>
<event>
 5    1  0.6308903E+000  0.9221235E+02  0.7546771E-02  0.1297581E+00
          3   -1    0    0  501    0  0.00000000000E+00  0.00000000000E+00  0.18023553513E+02  0.18023553513E+02  0.00000000000E+00 0. -1.
         -3   -1    0    0    0  501 -0.00000000000E+00 -0.00000000000E+00 -0.11794451571E+03  0.11794451571E+03  0.00000000000E+00 0.  1.
         23    2    1    2    0    0  0.00000000000E+00  0.00000000000E+00 -0.99920962193E+02  0.13596806922E+03  0.92212348204E+02 0.  0.
        -13    1    3    3    0    0  0.12336253474E+02  0.43726303812E+02 -0.61533884769E+02  0.76489161124E+02  0.00000000000E+00 0.  1.
         13    1    3    3    0    0 -0.12336253474E+02 -0.43726303812E+02 -0.38387077425E+02  0.59478908094E+02  0.00000000000E+00 0. -1.
<mgrwt>
<rscale>  0 0.92212348E+02</rscale>
<asrwt>0</asrwt>
<pdfrwt beam="1">  1        3 0.27728545E-02 0.92212348E+02</pdfrwt>
<pdfrwt beam="2">  1       -3 0.18145310E-01 0.92212348E+02</pdfrwt>
<totfact> 0.31216308E+04</totfact>
</mgrwt>
</event>
<event>
 5    1  0.6308903E+000  0.9271585E+02  0.7546771E-02  0.1296405E+00
         -2   -1    0    0    0  501 -0.00000000000E+00  0.00000000000E+00  0.12079564888E+02  0.12079564888E+02  0.00000000000E+00 0.  1.
          2   -1    0    0  501    0  0.00000000000E+00 -0.00000000000E+00 -0.17790848487E+03  0.17790848487E+03  0.00000000000E+00 0. -1.
         23    2    1    2    0    0  0.00000000000E+00  0.00000000000E+00 -0.16582891998E+03  0.18998804976E+03  0.92715847342E+02 0.  0.
        -13    1    3    3    0    0  0.23792868151E+01  0.34437296187E+02 -0.19507839162E+02  0.39650273179E+02  0.00000000000E+00 0.  1.
         13    1    3    3    0    0 -0.23792868151E+01 -0.34437296187E+02 -0.14632108082E+03  0.15033777658E+03  0.00000000000E+00 0. -1.
<mgrwt>
<rscale>  0 0.92715847E+02</rscale>
<asrwt>0</asrwt>
<pdfrwt beam="2">  1        2 0.27370534E-01 0.92715847E+02</pdfrwt>
<pdfrwt beam="1">  1       -2 0.18583947E-02 0.92715847E+02</pdfrwt>
<totfact> 0.14176292E+05</totfact>
</mgrwt>
</event>
<event>
 5    1  0.6308903E+000  0.9164894E+02  0.7546771E-02  0.1298907E+00
          1   -1    0    0  501    0  0.00000000000E+00  0.00000000000E+00  0.67737346016E+02  0.67737346016E+02  0.00000000000E+00 0. -1.
         -1   -1    0    0    0  501 -0.00000000000E+00 -0.00000000000E+00 -0.31000356419E+02  0.31000356419E+02  0.00000000000E+00 0.  1.
         23    2    1    2    0    0  0.00000000000E+00  0.00000000000E+00  0.36736989597E+02  0.98737702435E+02  0.91648936041E+02 0.  0.
        -13    1    3    3    0    0  0.20819626633E+02  0.31541874136E+02 -0.95498700314E+01  0.38981363429E+02  0.00000000000E+00 0.  1.
         13    1    3    3    0    0 -0.20819626633E+02 -0.31541874136E+02  0.46286859629E+02  0.59756339006E+02  0.00000000000E+00 0. -1.
<mgrwt>
<rscale>  0 0.91648936E+02</rscale>
<asrwt>0</asrwt>
<pdfrwt beam="1">  1        1 0.10421130E-01 0.91648936E+02</pdfrwt>
<pdfrwt beam="2">  1       -1 0.47692856E-02 0.91648936E+02</pdfrwt>
<totfact> 0.96777269E+04</totfact>
</mgrwt>
</event>
<event>
 5    1  0.6308903E+000  0.9267701E+02  0.7546771E-02  0.1296495E+00
          2   -1    0    0  501    0  0.00000000000E+00  0.00000000000E+00  0.97151335959E+01  0.97151335959E+01  0.00000000000E+00 0. -1.
         -2   -1    0    0    0  501 -0.00000000000E+00 -0.00000000000E+00 -0.22102185873E+03  0.22102185873E+03  0.00000000000E+00 0.  1.
         23    2    1    2    0    0  0.00000000000E+00  0.00000000000E+00 -0.21130672513E+03  0.23073699232E+03  0.92677006537E+02 0.  0.
        -13    1    3    3    0    0  0.14629478396E+02  0.28729393680E+02 -0.22785312626E+02  0.39478730613E+02  0.00000000000E+00 0.  1.
         13    1    3    3    0    0 -0.14629478396E+02 -0.28729393680E+02 -0.18852141251E+03  0.19125826171E+03  0.00000000000E+00 0. -1.
<mgrwt>
<rscale>  0 0.92677007E+02</rscale>
<asrwt>0</asrwt>
<pdfrwt beam="1">  1        2 0.14946361E-02 0.92677007E+02</pdfrwt>
<pdfrwt beam="2">  1       -2 0.34003359E-01 0.92677007E+02</pdfrwt>
<totfact> 0.57156350E+04</totfact>
</mgrwt>
</event>
<event>
 5    1  0.6308903E+000  0.9158141E+02  0.7546771E-02  0.1299067E+00
         -1   -1    0    0    0  501 -0.00000000000E+00  0.00000000000E+00  0.13754889683E+02  0.13754889683E+02  0.00000000000E+00 0.  1.
          1   -1    0    0  501    0  0.00000000000E+00 -0.00000000000E+00 -0.15243950432E+03  0.15243950432E+03  0.00000000000E+00 0. -1.
         23    2    1    2    0    0  0.00000000000E+00  0.00000000000E+00 -0.13868461464E+03  0.16619439400E+03  0.91581407834E+02 0.  0.
        -13    1    3    3    0    0  0.38424095270E+02 -0.31215615679E+01 -0.24498827667E+02  0.45676556361E+02  0.00000000000E+00 0.  1.
         13    1    3    3    0    0 -0.38424095270E+02  0.31215615679E+01 -0.11418578697E+03  0.12051783764E+03  0.00000000000E+00 0. -1.
<mgrwt>
<rscale>  0 0.91581408E+02</rscale>
<asrwt>0</asrwt>
<pdfrwt beam="2">  1        1 0.23452232E-01 0.91581408E+02</pdfrwt>
<pdfrwt beam="1">  1       -1 0.21161368E-02 0.91581408E+02</pdfrwt>
<totfact> 0.11113001E+05</totfact>
</mgrwt>
</event>
<event>
 5    1  0.6308903E+000  0.9095566E+02  0.7546771E-02  0.1300554E+00
          2   -1    0    0  501    0  0.00000000000E+00  0.00000000000E+00  0.51574119534E+02  0.51574119534E+02  0.00000000000E+00 0. -1.
         -2   -1    0    0    0  501 -0.00000000000E+00 -0.00000000000E+00 -0.40102149558E+02  0.40102149558E+02  0.00000000000E+00 0.  1.
         23    2    1    2    0    0  0.00000000000E+00  0.00000000000E+00  0.11471969976E+02  0.91676269091E+02  0.90955660733E+02 0.  0.
        -13    1    3    3    0    0  0.28221704775E+02 -0.35578120775E+02  0.32741442059E+01  0.45530070487E+02  0.00000000000E+00 0. -1.
         13    1    3    3    0    0 -0.28221704775E+02  0.35578120775E+02  0.81978257700E+01  0.46146198604E+02  0.00000000000E+00 0.  1.
<mgrwt>
<rscale>  0 0.90955661E+02</rscale>
<asrwt>0</asrwt>
<pdfrwt beam="1">  1        2 0.79344800E-02 0.90955661E+02</pdfrwt>
<pdfrwt beam="2">  1       -2 0.61695615E-02 0.90955661E+02</pdfrwt>
<totfact> 0.10260814E+05</totfact>
</mgrwt>
</event>
<event>
 5    1  0.6308903E+000  0.9349626E+02  0.7546771E-02  0.1294599E+00
          2   -1    0    0  501    0  0.00000000000E+00  0.00000000000E+00  0.23267038199E+02  0.23267038199E+02  0.00000000000E+00 0. -1.
         -2   -1    0    0    0  501 -0.00000000000E+00 -0.00000000000E+00 -0.93926327050E+02  0.93926327050E+02  0.00000000000E+00 0.  1.
         23    2    1    2    0    0  0.00000000000E+00  0.00000000000E+00 -0.70659288852E+02  0.11719336525E+03  0.93496255312E+02 0.  0.
        -13    1    3    3    0    0  0.41544912443E+02  0.50867614449E+01 -0.92308971334E+01  0.42860988717E+02  0.00000000000E+00 0. -1.
         13    1    3    3    0    0 -0.41544912443E+02 -0.50867614449E+01 -0.61428391718E+02  0.74332376532E+02  0.00000000000E+00 0.  1.
<mgrwt>
<rscale>  0 0.93496255E+02</rscale>
<asrwt>0</asrwt>
<pdfrwt beam="1">  1        2 0.35795443E-02 0.93496255E+02</pdfrwt>
<pdfrwt beam="2">  1       -2 0.14450204E-01 0.93496255E+02</pdfrwt>
<totfact> 0.76381151E+04</totfact>
</mgrwt>
</event>
<event>
 5    1  0.6308903E+000  0.9016836E+02  0.7546771E-02  0.1302445E+00
         -1   -1    0    0    0  501 -0.00000000000E+00  0.00000000000E+00  0.35676861571E+02  0.35676861571E+02  0.00000000000E+00 0.  1.
          1   -1    0    0  501    0  0.00000000000E+00 -0.00000000000E+00 -0.56972026472E+02  0.56972026472E+02  0.00000000000E+00 0. -1.
         23    2    1    2    0    0  0.00000000000E+00  0.00000000000E+00 -0.21295164901E+02  0.92648888043E+02  0.90168355909E+02 0.  0.
        -13    1    3    3    0    0  0.38232503403E+01 -0.23128057633E+02  0.28922344336E+02  0.37229374087E+02  0.00000000000E+00 0.  1.
         13    1    3    3    0    0 -0.38232503403E+01  0.23128057633E+02 -0.50217509237E+02  0.55419513955E+02  0.00000000000E+00 0. -1.
<mgrwt>
<rscale>  0 0.90168356E+02</rscale>
<asrwt>0</asrwt>
<pdfrwt beam="2">  1        1 0.87649270E-02 0.90168356E+02</pdfrwt>
<pdfrwt beam="1">  1       -1 0.54887480E-02 0.90168356E+02</pdfrwt>
<totfact> 0.98618147E+04</totfact>
</mgrwt>
</event>
<event>
 5    1  0.6308903E+000  0.8921618E+02  0.7546771E-02  0.1304761E+00
         -4   -1    0    0    0  501 -0.00000000000E+00  0.00000000000E+00  0.84535066071E+01  0.84535066071E+01  0.00000000000E+00 0.  1.
          4   -1    0    0  501    0  0.00000000000E+00 -0.00000000000E+00 -0.23539128895E+03  0.23539128895E+03  0.00000000000E+00 0. -1.
         23    2    1    2    0    0  0.00000000000E+00  0.00000000000E+00 -0.22693778235E+03  0.24384479556E+03  0.89216182756E+02 0.  0.
        -13    1    3    3    0    0  0.28363124614E+02 -0.34420778590E+02 -0.11130814961E+03  0.11991147154E+03  0.00000000000E+00 0.  1.
         13    1    3    3    0    0 -0.28363124614E+02  0.34420778590E+02 -0.11562963274E+03  0.12393332402E+03  0.00000000000E+00 0. -1.
<mgrwt>
<rscale>  0 0.89216183E+02</rscale>
<asrwt>0</asrwt>
<pdfrwt beam="2">  1        4 0.36214044E-01 0.89216183E+02</pdfrwt>
<pdfrwt beam="1">  1       -4 0.13005395E-02 0.89216183E+02</pdfrwt>
<totfact> 0.20855267E+04</totfact>
</mgrwt>
</event>
<event>
 5    1  0.6308903E+000  0.9224034E+02  0.7546771E-02  0.1297515E+00
          3   -1    0    0  501    0  0.00000000000E+00  0.00000000000E+00  0.16971725684E+02  0.16971725684E+02  0.00000000000E+00 0. -1.
         -3   -1    0    0    0  501 -0.00000000000E+00 -0.00000000000E+00 -0.12533020495E+03  0.12533020495E+03  0.00000000000E+00 0.  1.
         23    2    1    2    0    0  0.00000000000E+00  0.00000000000E+00 -0.10835847926E+03  0.14230193063E+03  0.92240335176E+02 0.  0.
        -13    1    3    3    0    0 -0.22376963448E+02  0.11772978404E+02  0.53257245562E+01  0.25839792099E+02  0.00000000000E+00 0. -1.
         13    1    3    3    0    0  0.22376963448E+02 -0.11772978404E+02 -0.11368420382E+03  0.11646213853E+03  0.00000000000E+00 0.  1.
<mgrwt>
<rscale>  0 0.92240335E+02</rscale>
<asrwt>0</asrwt>
<pdfrwt beam="1">  1        3 0.26110349E-02 0.92240335E+02</pdfrwt>
<pdfrwt beam="2">  1       -3 0.19281569E-01 0.92240335E+02</pdfrwt>
<totfact> 0.30800515E+04</totfact>
</mgrwt>
</event>
<event>
 5    1  0.6308903E+000  0.9313664E+02  0.7546771E-02  0.1295429E+00
         -2   -1    0    0    0  501 -0.00000000000E+00  0.00000000000E+00  0.87895328272E+01  0.87895328272E+01  0.00000000000E+00 0.  1.
          2   -1    0    0  501    0  0.00000000000E+00 -0.00000000000E+00 -0.24672625981E+03  0.24672625981E+03  0.00000000000E+00 0. -1.
         23    2    1    2    0    0  0.00000000000E+00  0.00000000000E+00 -0.23793672698E+03  0.25551579264E+03  0.93136642841E+02 0.  0.
        -13    1    3    3    0    0 -0.24656364433E+02 -0.38502785439E+02 -0.14323011271E+03  0.15035047715E+03  0.00000000000E+00 0. -1.
         13    1    3    3    0    0  0.24656364433E+02  0.38502785439E+02 -0.94706614275E+02  0.10516531548E+03  0.00000000000E+00 0.  1.
<mgrwt>
<rscale>  0 0.93136643E+02</rscale>
<asrwt>0</asrwt>
<pdfrwt beam="2">  1        2 0.37957883E-01 0.93136643E+02</pdfrwt>
<pdfrwt beam="1">  1       -2 0.13522359E-02 0.93136643E+02</pdfrwt>
<totfact> 0.15777631E+05</totfact>
</mgrwt>
</event>
<event>
 5    1  0.6308903E+000  0.9446584E+02  0.7546771E-02  0.1292384E+00
          3   -1    0    0  501    0  0.00000000000E+00  0.00000000000E+00  0.16001358415E+03  0.16001358415E+03  0.00000000000E+00 0. -1.
         -3   -1    0    0    0  501 -0.00000000000E+00 -0.00000000000E+00 -0.13942245306E+02  0.13942245306E+02  0.00000000000E+00 0.  1.
         23    2    1    2    0    0  0.00000000000E+00  0.00000000000E+00  0.14607133884E+03  0.17395582945E+03  0.94465838110E+02 0.  0.
        -13    1    3    3    0    0 -0.26406456535E+02  0.31603867103E+02  0.30448627354E+02  0.51217421551E+02  0.00000000000E+00 0.  1.
         13    1    3    3    0    0  0.26406456535E+02 -0.31603867103E+02  0.11562271149E+03  0.12273840790E+03  0.00000000000E+00 0. -1.
<mgrwt>
<rscale>  0 0.94465838E+02</rscale>
<asrwt>0</asrwt>
<pdfrwt beam="1">  1        3 0.24617473E-01 0.94465838E+02</pdfrwt>
<pdfrwt beam="2">  1       -3 0.21449609E-02 0.94465838E+02</pdfrwt>
<totfact> 0.27162126E+04</totfact>
</mgrwt>
</event>
<event>
 5    1  0.6308903E+000  0.9114825E+02  0.7546771E-02  0.1300095E+00
         -1   -1    0    0    0  501 -0.00000000000E+00  0.00000000000E+00  0.35613175197E+03  0.35613175197E+03  0.00000000000E+00 0.  1.
          1   -1    0    0  501    0  0.00000000000E+00 -0.00000000000E+00 -0.58321139625E+01  0.58321139625E+01  0.00000000000E+00 0. -1.
         23    2    1    2    0    0  0.00000000000E+00  0.00000000000E+00  0.35029963801E+03  0.36196386593E+03  0.91148252055E+02 0.  0.
        -13    1    3    3    0    0  0.26808247375E+02  0.35641139582E+02  0.13789115284E+03  0.14492392138E+03  0.00000000000E+00 0.  1.
         13    1    3    3    0    0 -0.26808247375E+02 -0.35641139582E+02  0.21240848517E+03  0.21703994455E+03  0.00000000000E+00 0. -1.
<mgrwt>
<rscale>  0 0.91148252E+02</rscale>
<asrwt>0</asrwt>
<pdfrwt beam="2">  1        1 0.89724858E-03 0.91148252E+02</pdfrwt>
<pdfrwt beam="1">  1       -1 0.54789483E-01 0.91148252E+02</pdfrwt>
<totfact> 0.56389859E+04</totfact>
</mgrwt>
</event>
<event>
 5    1  0.6308903E+000  0.9163372E+02  0.7546771E-02  0.1298943E+00
          1   -1    0    0  501    0  0.00000000000E+00  0.00000000000E+00  0.17480830809E+03  0.17480830809E+03  0.00000000000E+00 0. -1.
         -1   -1    0    0    0  501 -0.00000000000E+00 -0.00000000000E+00 -0.12008495698E+02  0.12008495698E+02  0.00000000000E+00 0.  1.
         23    2    1    2    0    0  0.00000000000E+00  0.00000000000E+00  0.16279981239E+03  0.18681680379E+03  0.91633723394E+02 0.  0.
        -13    1    3    3    0    0  0.39497916994E+02  0.78437382787E+01  0.36846443918E+02  0.54582690539E+02  0.00000000000E+00 0.  1.
         13    1    3    3    0    0 -0.39497916994E+02 -0.78437382787E+01  0.12595336847E+03  0.13223411325E+03  0.00000000000E+00 0. -1.
<mgrwt>
<rscale>  0 0.91633723E+02</rscale>
<asrwt>0</asrwt>
<pdfrwt beam="1">  1        1 0.26893584E-01 0.91633723E+02</pdfrwt>
<pdfrwt beam="2">  1       -1 0.18474610E-02 0.91633723E+02</pdfrwt>
<totfact> 0.11383941E+05</totfact>
</mgrwt>
</event>
<event>
 5    1  0.6308903E+000  0.9384799E+02  0.7546771E-02  0.1293792E+00
          4   -1    0    0  501    0  0.00000000000E+00  0.00000000000E+00  0.38557350196E+03  0.38557350196E+03  0.00000000000E+00 0. -1.
         -4   -1    0    0    0  501 -0.00000000000E+00 -0.00000000000E+00 -0.57106131837E+01  0.57106131837E+01  0.00000000000E+00 0.  1.
         23    2    1    2    0    0  0.00000000000E+00  0.00000000000E+00  0.37986288877E+03  0.39128411514E+03  0.93847986096E+02 0.  0.
        -13    1    3    3    0    0 -0.45587140076E+02 -0.24184578360E+01  0.14467445102E+03  0.15170607455E+03  0.00000000000E+00 0.  1.
         13    1    3    3    0    0  0.45587140076E+02  0.24184578360E+01  0.23518843776E+03  0.23957804059E+03  0.00000000000E+00 0. -1.
<mgrwt>
<rscale>  0 0.93847986E+02</rscale>
<asrwt>0</asrwt>
<pdfrwt beam="1">  1        4 0.59318980E-01 0.93847986E+02</pdfrwt>
<pdfrwt beam="2">  1       -4 0.87855618E-03 0.93847986E+02</pdfrwt>
<totfact> 0.14222591E+04</totfact>
</mgrwt>
</event>
<event>
 5    1  0.6308903E+000  0.9325579E+02  0.7546771E-02  0.1295154E+00
         -3   -1    0    0    0  501 -0.00000000000E+00  0.00000000000E+00  0.32681247256E+02  0.32681247256E+02  0.00000000000E+00 0.  1.
          3   -1    0    0  501    0  0.00000000000E+00 -0.00000000000E+00 -0.66526241884E+02  0.66526241884E+02  0.00000000000E+00 0. -1.
         23    2    1    2    0    0  0.00000000000E+00  0.00000000000E+00 -0.33844994627E+02  0.99207489140E+02  0.93255789312E+02 0.  0.
        -13    1    3    3    0    0 -0.43580972354E+02 -0.14845914664E+02 -0.90719415491E+01  0.46925499006E+02  0.00000000000E+00 0. -1.
         13    1    3    3    0    0  0.43580972354E+02  0.14845914664E+02 -0.24773053078E+02  0.52281990134E+02  0.00000000000E+00 0.  1.
<mgrwt>
<rscale>  0 0.93255789E+02</rscale>
<asrwt>0</asrwt>
<pdfrwt beam="2">  1        3 0.10234806E-01 0.93255789E+02</pdfrwt>
<pdfrwt beam="1">  1       -3 0.50278842E-02 0.93255789E+02</pdfrwt>
<totfact> 0.32656786E+04</totfact>
</mgrwt>
</event>
<event>
 5    1  0.6308903E+000  0.9218016E+02  0.7546771E-02  0.1297656E+00
         -2   -1    0    0    0  501 -0.00000000000E+00  0.00000000000E+00  0.34916555719E+02  0.34916555719E+02  0.00000000000E+00 0.  1.
          2   -1    0    0  501    0  0.00000000000E+00 -0.00000000000E+00 -0.60839203287E+02  0.60839203287E+02  0.00000000000E+00 0. -1.
         23    2    1    2    0    0  0.00000000000E+00  0.00000000000E+00 -0.25922647568E+02  0.95755759006E+02  0.92180159068E+02 0.  0.
        -13    1    3    3    0    0 -0.40534699673E+02  0.21825826097E+02 -0.10669652731E+02  0.47257486728E+02  0.00000000000E+00 0.  1.
         13    1    3    3    0    0  0.40534699673E+02 -0.21825826097E+02 -0.15252994838E+02  0.48498272278E+02  0.00000000000E+00 0. -1.
<mgrwt>
<rscale>  0 0.92180159E+02</rscale>
<asrwt>0</asrwt>
<pdfrwt beam="2">  1        2 0.93598773E-02 0.92180159E+02</pdfrwt>
<pdfrwt beam="1">  1       -2 0.53717779E-02 0.92180159E+02</pdfrwt>
<totfact> 0.10322583E+05</totfact>
</mgrwt>
</event>
<event>
 5    1  0.6308903E+000  0.9099709E+02  0.7546771E-02  0.1300455E+00
         -1   -1    0    0    0  501 -0.00000000000E+00  0.00000000000E+00  0.55767496730E+02  0.55767496730E+02  0.00000000000E+00 0.  1.
          1   -1    0    0  501    0  0.00000000000E+00 -0.00000000000E+00 -0.37120508240E+02  0.37120508240E+02  0.00000000000E+00 0. -1.
         23    2    1    2    0    0  0.00000000000E+00  0.00000000000E+00  0.18646988490E+02  0.92888004970E+02  0.90997094940E+02 0.  0.
        -13    1    3    3    0    0  0.45480497018E+02  0.30238757251E+00  0.10594672486E+02  0.46699187705E+02  0.00000000000E+00 0.  1.
         13    1    3    3    0    0 -0.45480497018E+02 -0.30238757251E+00  0.80523160039E+01  0.46188817264E+02  0.00000000000E+00 0. -1.
<mgrwt>
<rscale>  0 0.90997095E+02</rscale>
<asrwt>0</asrwt>
<pdfrwt beam="2">  1        1 0.57108474E-02 0.90997095E+02</pdfrwt>
<pdfrwt beam="1">  1       -1 0.85796149E-02 0.90997095E+02</pdfrwt>
<totfact> 0.90138017E+04</totfact>
</mgrwt>
</event>
<event>
 5    1  0.6308903E+000  0.9254060E+02  0.7546771E-02  0.1296813E+00
         -1   -1    0    0    0  501 -0.00000000000E+00  0.00000000000E+00  0.10257646838E+02  0.10257646838E+02  0.00000000000E+00 0.  1.
          1   -1    0    0  501    0  0.00000000000E+00 -0.00000000000E+00 -0.20871653129E+03  0.20871653129E+03  0.00000000000E+00 0. -1.
         23    2    1    2    0    0  0.00000000000E+00  0.00000000000E+00 -0.19845888446E+03  0.21897417813E+03  0.92540595789E+02 0.  0.
        -13    1    3    3    0    0  0.32605743047E+02  0.22634263834E+02 -0.42959636422E+02  0.58489099330E+02  0.00000000000E+00 0.  1.
         13    1    3    3    0    0 -0.32605743047E+02 -0.22634263834E+02 -0.15549924803E+03  0.16048507880E+03  0.00000000000E+00 0. -1.
<mgrwt>
<rscale>  0 0.92540596E+02</rscale>
<asrwt>0</asrwt>
<pdfrwt beam="2">  1        1 0.32110236E-01 0.92540596E+02</pdfrwt>
<pdfrwt beam="1">  1       -1 0.15780995E-02 0.92540596E+02</pdfrwt>
<totfact> 0.11472761E+05</totfact>
</mgrwt>
</event>
<event>
 5    1  0.6308903E+000  0.8958069E+02  0.7546771E-02  0.1303870E+00
          3   -1    0    0  501    0  0.00000000000E+00  0.00000000000E+00  0.23103814252E+02  0.23103814252E+02  0.00000000000E+00 0. -1.
         -3   -1    0    0    0  501 -0.00000000000E+00 -0.00000000000E+00 -0.86833057663E+02  0.86833057663E+02  0.00000000000E+00 0.  1.
         23    2    1    2    0    0  0.00000000000E+00  0.00000000000E+00 -0.63729243411E+02  0.10993687192E+03  0.89580686204E+02 0.  0.
        -13    1    3    3    0    0 -0.31663759221E+02  0.87070500113E+01 -0.69245439177E+02  0.76637701001E+02  0.00000000000E+00 0.  1.
         13    1    3    3    0    0  0.31663759221E+02 -0.87070500113E+01  0.55161957660E+01  0.33299170915E+02  0.00000000000E+00 0. -1.
<mgrwt>
<rscale>  0 0.89580686E+02</rscale>
<asrwt>0</asrwt>
<pdfrwt beam="1">  1        3 0.35544329E-02 0.89580686E+02</pdfrwt>
<pdfrwt beam="2">  1       -3 0.13358932E-01 0.89580686E+02</pdfrwt>
<totfact> 0.35616471E+04</totfact>
</mgrwt>
</event>
<event>
 5    1  0.6308903E+000  0.9347049E+02  0.7546771E-02  0.1294659E+00
         -3   -1    0    0    0  501 -0.00000000000E+00  0.00000000000E+00  0.11154840848E+02  0.11154840848E+02  0.00000000000E+00 0.  1.
          3   -1    0    0  501    0  0.00000000000E+00 -0.00000000000E+00 -0.19580585833E+03  0.19580585833E+03  0.00000000000E+00 0. -1.
         23    2    1    2    0    0  0.00000000000E+00  0.00000000000E+00 -0.18465101748E+03  0.20696069917E+03  0.93470491317E+02 0.  0.
        -13    1    3    3    0    0 -0.20740150785E+02  0.22427655995E+02 -0.14010113076E+02  0.33607095626E+02  0.00000000000E+00 0.  1.
         13    1    3    3    0    0  0.20740150785E+02 -0.22427655995E+02 -0.17064090440E+03  0.17335360355E+03  0.00000000000E+00 0. -1.
<mgrwt>
<rscale>  0 0.93470491E+02</rscale>
<asrwt>0</asrwt>
<pdfrwt beam="2">  1        3 0.30123980E-01 0.93470491E+02</pdfrwt>
<pdfrwt beam="1">  1       -3 0.17161293E-02 0.93470491E+02</pdfrwt>
<totfact> 0.26313848E+04</totfact>
</mgrwt>
</event>
<event>
 5    1  0.6308903E+000  0.9066992E+02  0.7546771E-02  0.1301237E+00
          2   -1    0    0  501    0  0.00000000000E+00  0.00000000000E+00  0.19855669264E+02  0.19855669264E+02  0.00000000000E+00 0.  1.
         -2   -1    0    0    0  501 -0.00000000000E+00 -0.00000000000E+00 -0.10350992306E+03  0.10350992306E+03  0.00000000000E+00 0. -1.
         23    2    1    2    0    0  0.00000000000E+00  0.00000000000E+00 -0.83654253795E+02  0.12336559232E+03  0.90669924401E+02 0.  0.
        -13    1    3    3    0    0  0.19660488899E+02 -0.66168654834E+01 -0.96673713183E+02  0.98874286613E+02  0.00000000000E+00 0. -1.
         13    1    3    3    0    0 -0.19660488899E+02  0.66168654834E+01  0.13019459388E+02  0.24491305709E+02  0.00000000000E+00 0.  1.
<mgrwt>
<rscale>  0 0.90669924E+02</rscale>
<asrwt>0</asrwt>
<pdfrwt beam="1">  1        2 0.30547184E-02 0.90669924E+02</pdfrwt>
<pdfrwt beam="2">  1       -2 0.15924603E-01 0.90669924E+02</pdfrwt>
<totfact> 0.80088213E+04</totfact>
</mgrwt>
</event>
<event>
 5    1  0.6308903E+000  0.8704994E+02  0.7546771E-02  0.1310157E+00
         -1   -1    0    0    0  501 -0.00000000000E+00  0.00000000000E+00  0.46251108464E+02  0.46251108464E+02  0.00000000000E+00 0.  1.
          1   -1    0    0  501    0  0.00000000000E+00 -0.00000000000E+00 -0.40959517555E+02  0.40959517555E+02  0.00000000000E+00 0. -1.
         23    2    1    2    0    0  0.00000000000E+00  0.00000000000E+00  0.52915909088E+01  0.87210626018E+02  0.87049941736E+02 0.  0.
        -13    1    3    3    0    0 -0.28342449988E+02 -0.12735252929E+02 -0.27889013501E+02  0.41752583304E+02  0.00000000000E+00 0. -1.
         13    1    3    3    0    0  0.28342449988E+02  0.12735252929E+02  0.33180604409E+02  0.45458042715E+02  0.00000000000E+00 0.  1.
<mgrwt>
<rscale>  0 0.87049942E+02</rscale>
<asrwt>0</asrwt>
<pdfrwt beam="2">  1        1 0.63014643E-02 0.87049942E+02</pdfrwt>
<pdfrwt beam="1">  1       -1 0.71155551E-02 0.87049942E+02</pdfrwt>
<totfact> 0.10362921E+05</totfact>
</mgrwt>
</event>
<event>
 5    1  0.6308903E+000  0.9080964E+02  0.7546771E-02  0.1300903E+00
         -2   -1    0    0    0  501 -0.00000000000E+00  0.00000000000E+00  0.10002829519E+03  0.10002829519E+03  0.00000000000E+00 0.  1.
          2   -1    0    0  501    0  0.00000000000E+00 -0.00000000000E+00 -0.20610143769E+02  0.20610143769E+02  0.00000000000E+00 0. -1.
         23    2    1    2    0    0  0.00000000000E+00  0.00000000000E+00  0.79418151422E+02  0.12063843896E+03  0.90809637042E+02 0.  0.
        -13    1    3    3    0    0 -0.49457403098E+01  0.31065478441E+02  0.83206746129E+02  0.88954409106E+02  0.00000000000E+00 0.  1.
         13    1    3    3    0    0  0.49457403098E+01 -0.31065478441E+02 -0.37885947072E+01  0.31684029855E+02  0.00000000000E+00 0. -1.
<mgrwt>
<rscale>  0 0.90809637E+02</rscale>
<asrwt>0</asrwt>
<pdfrwt beam="2">  1        2 0.31707914E-02 0.90809637E+02</pdfrwt>
<pdfrwt beam="1">  1       -2 0.15388968E-01 0.90809637E+02</pdfrwt>
<totfact> 0.80604733E+04</totfact>
</mgrwt>
</event>
<event>
 5    1  0.6308903E+000  0.9368421E+02  0.7546771E-02  0.1294167E+00
         -3   -1    0    0    0  501 -0.00000000000E+00  0.00000000000E+00  0.23989809573E+02  0.23989809573E+02  0.00000000000E+00 0.  1.
          3   -1    0    0  501    0  0.00000000000E+00 -0.00000000000E+00 -0.91463115698E+02  0.91463115698E+02  0.00000000000E+00 0. -1.
         23    2    1    2    0    0  0.00000000000E+00  0.00000000000E+00 -0.67473306125E+02  0.11545292527E+03  0.93684208457E+02 0.  0.
        -13    1    3    3    0    0  0.41028783661E+02  0.22479217747E+02 -0.36628483298E+02  0.59416513765E+02  0.00000000000E+00 0.  1.
         13    1    3    3    0    0 -0.41028783661E+02 -0.22479217747E+02 -0.30844822827E+02  0.56036411506E+02  0.00000000000E+00 0. -1.
<mgrwt>
<rscale>  0 0.93684208E+02</rscale>
<asrwt>0</asrwt>
<pdfrwt beam="2">  1        3 0.14071248E-01 0.93684208E+02</pdfrwt>
<pdfrwt beam="1">  1       -3 0.36907400E-02 0.93684208E+02</pdfrwt>
<totfact> 0.31168397E+04</totfact>
</mgrwt>
</event>
<event>
 5    1  0.6308903E+000  0.9184021E+02  0.7546771E-02  0.1298456E+00
         -1   -1    0    0    0  501 -0.00000000000E+00  0.00000000000E+00  0.92114469913E+02  0.92114469913E+02  0.00000000000E+00 0.  1.
          1   -1    0    0  501    0  0.00000000000E+00 -0.00000000000E+00 -0.22891693531E+02  0.22891693531E+02  0.00000000000E+00 0. -1.
         23    2    1    2    0    0  0.00000000000E+00  0.00000000000E+00  0.69222776382E+02  0.11500616344E+03  0.91840213742E+02 0.  0.
        -13    1    3    3    0    0 -0.38503999778E+02  0.18488765536E+02  0.55724341245E+02  0.70211072183E+02  0.00000000000E+00 0.  1.
         13    1    3    3    0    0  0.38503999778E+02 -0.18488765536E+02  0.13498435137E+02  0.44795091261E+02  0.00000000000E+00 0. -1.
<mgrwt>
<rscale>  0 0.91840214E+02</rscale>
<asrwt>0</asrwt>
<pdfrwt beam="2">  1        1 0.35217991E-02 0.91840214E+02</pdfrwt>
<pdfrwt beam="1">  1       -1 0.14171457E-01 0.91840214E+02</pdfrwt>
<totfact> 0.81073159E+04</totfact>
</mgrwt>
</event>
<event>
 5    1  0.6308903E+000  0.9221546E+02  0.7546771E-02  0.1297574E+00
         -1   -1    0    0    0  501 -0.00000000000E+00  0.00000000000E+00  0.11305166498E+03  0.11305166498E+03  0.00000000000E+00 0.  1.
          1   -1    0    0  501    0  0.00000000000E+00 -0.00000000000E+00 -0.18804878192E+02  0.18804878192E+02  0.00000000000E+00 0. -1.
         23    2    1    2    0    0  0.00000000000E+00  0.00000000000E+00  0.94246786791E+02  0.13185654317E+03  0.92215460513E+02 0.  0.
        -13    1    3    3    0    0 -0.90657789117E+01 -0.17211047378E+02  0.10689684219E+03  0.10865239698E+03  0.00000000000E+00 0.  1.
         13    1    3    3    0    0  0.90657789117E+01  0.17211047378E+02 -0.12650055399E+02  0.23204146196E+02  0.00000000000E+00 0. -1.
<mgrwt>
<rscale>  0 0.92215461E+02</rscale>
<asrwt>0</asrwt>
<pdfrwt beam="2">  1        1 0.28930583E-02 0.92215461E+02</pdfrwt>
<pdfrwt beam="1">  1       -1 0.17392563E-01 0.92215461E+02</pdfrwt>
<totfact> 0.77185283E+04</totfact>
</mgrwt>
</event>
<event>
 5    1  0.6308903E+000  0.9788720E+02  0.7546771E-02  0.1284803E+00
          4   -1    0    0  501    0  0.00000000000E+00  0.00000000000E+00  0.33062111854E+03  0.33062111854E+03  0.00000000000E+00 0. -1.
         -4   -1    0    0    0  501 -0.00000000000E+00 -0.00000000000E+00 -0.72453804243E+01  0.72453804243E+01  0.00000000000E+00 0.  1.
         23    2    1    2    0    0  0.00000000000E+00  0.00000000000E+00  0.32337573812E+03  0.33786649896E+03  0.97887195897E+02 0.  0.
        -13    1    3    3    0    0  0.39348625129E+01  0.42956920639E+02  0.81875068228E+02  0.92543540947E+02  0.00000000000E+00 0.  1.
         13    1    3    3    0    0 -0.39348625129E+01 -0.42956920639E+02  0.24150066989E+03  0.24532295802E+03  0.00000000000E+00 0. -1.
<mgrwt>
<rscale>  0 0.97887196E+02</rscale>
<asrwt>0</asrwt>
<pdfrwt beam="1">  1        4 0.50864776E-01 0.97887196E+02</pdfrwt>
<pdfrwt beam="2">  1       -4 0.11146742E-02 0.97887196E+02</pdfrwt>
<totfact> 0.13836829E+04</totfact>
</mgrwt>
</event>
<event>
 4    1  0.6308903E+000  0.4756102E+02  0.7546771E-02  0.1458959E+00
         -2   -1    0    0    0  501 -0.00000000000E+00  0.00000000000E+00  0.54242018503E+02  0.54242018503E+02  0.00000000000E+00 0.  1.
          2   -1    0    0  501    0  0.00000000000E+00 -0.00000000000E+00 -0.10425728280E+02  0.10425728280E+02  0.00000000000E+00 0. -1.
        -13    1    1    2    0    0 -0.22247176667E+02 -0.33028705785E+01  0.11405402977E+02  0.25217633528E+02  0.00000000000E+00 0. -1.
         13    1    1    2    0    0  0.22247176667E+02  0.33028705785E+01  0.32410887246E+02  0.39450113255E+02  0.00000000000E+00 0.  1.
<mgrwt>
<rscale>  0 0.47561015E+02</rscale>
<asrwt>0</asrwt>
<pdfrwt beam="2">  1        2 0.16039582E-02 0.47561015E+02</pdfrwt>
<pdfrwt beam="1">  1       -2 0.83449258E-02 0.47561015E+02</pdfrwt>
<totfact> 0.45313705E+05</totfact>
</mgrwt>
</event>
<event>
 5    1  0.6308903E+000  0.9530216E+02  0.7546771E-02  0.1290497E+00
          1   -1    0    0  501    0  0.00000000000E+00  0.00000000000E+00  0.53873200333E+02  0.53873200333E+02  0.00000000000E+00 0. -1.
         -1   -1    0    0    0  501 -0.00000000000E+00 -0.00000000000E+00 -0.42147590363E+02  0.42147590363E+02  0.00000000000E+00 0.  1.
         23    2    1    2    0    0  0.00000000000E+00  0.00000000000E+00  0.11725609970E+02  0.96020790696E+02  0.95302163232E+02 0.  0.
        -13    1    3    3    0    0 -0.16806519032E+02 -0.27583550598E+02  0.41160017093E+02  0.52320725842E+02  0.00000000000E+00 0. -1.
         13    1    3    3    0    0  0.16806519032E+02  0.27583550598E+02 -0.29434407123E+02  0.43700064854E+02  0.00000000000E+00 0.  1.
<mgrwt>
<rscale>  0 0.95302163E+02</rscale>
<asrwt>0</asrwt>
<pdfrwt beam="1">  1        1 0.82881847E-02 0.95302163E+02</pdfrwt>
<pdfrwt beam="2">  1       -1 0.64842447E-02 0.95302163E+02</pdfrwt>
<totfact> 0.83776575E+04</totfact>
</mgrwt>
</event>
<event>
 5    1  0.6308903E+000  0.9067697E+02  0.7546771E-02  0.1301221E+00
          4   -1    0    0  501    0  0.00000000000E+00  0.00000000000E+00  0.18273587463E+02  0.18273587463E+02  0.00000000000E+00 0.  1.
         -4   -1    0    0    0  501 -0.00000000000E+00 -0.00000000000E+00 -0.11248904374E+03  0.11248904374E+03  0.00000000000E+00 0. -1.
         23    2    1    2    0    0  0.00000000000E+00  0.00000000000E+00 -0.94215456278E+02  0.13076263120E+03  0.90676973469E+02 0.  0.
        -13    1    3    3    0    0  0.12776770267E+02 -0.35559066405E+02 -0.10972833031E+02  0.39345852727E+02  0.00000000000E+00 0. -1.
         13    1    3    3    0    0 -0.12776770267E+02  0.35559066405E+02 -0.83242623247E+02  0.91416778477E+02  0.00000000000E+00 0.  1.
<mgrwt>
<rscale>  0 0.90676973E+02</rscale>
<asrwt>0</asrwt>
<pdfrwt beam="1">  1        4 0.28113212E-02 0.90676973E+02</pdfrwt>
<pdfrwt beam="2">  1       -4 0.17306007E-01 0.90676973E+02</pdfrwt>
<totfact> 0.25044567E+04</totfact>
</mgrwt>
</event>
<event>
 5    1  0.6308903E+000  0.9294530E+02  0.7546771E-02  0.1295872E+00
         -1   -1    0    0    0  501 -0.00000000000E+00  0.00000000000E+00  0.77010298594E+02  0.77010298594E+02  0.00000000000E+00 0.  1.
          1   -1    0    0  501    0  0.00000000000E+00 -0.00000000000E+00 -0.28044396219E+02  0.28044396219E+02  0.00000000000E+00 0. -1.
         23    2    1    2    0    0  0.00000000000E+00  0.00000000000E+00  0.48965902374E+02  0.10505469481E+03  0.92945302770E+02 0.  0.
        -13    1    3    3    0    0  0.22753128443E+02  0.38730213054E+02  0.11015326498E+02  0.46250099189E+02  0.00000000000E+00 0. -1.
         13    1    3    3    0    0 -0.22753128443E+02 -0.38730213054E+02  0.37950575876E+02  0.58804595624E+02  0.00000000000E+00 0.  1.
<mgrwt>
<rscale>  0 0.92945303E+02</rscale>
<asrwt>0</asrwt>
<pdfrwt beam="2">  1        1 0.43145225E-02 0.92945303E+02</pdfrwt>
<pdfrwt beam="1">  1       -1 0.11847738E-01 0.92945303E+02</pdfrwt>
<totfact> 0.81105415E+04</totfact>
</mgrwt>
</event>
<event>
 5    1  0.6308903E+000  0.8855146E+02  0.7546771E-02  0.1306398E+00
          2   -1    0    0  501    0  0.00000000000E+00  0.00000000000E+00  0.21555871380E+03  0.21555871380E+03  0.00000000000E+00 0. -1.
         -2   -1    0    0    0  501 -0.00000000000E+00 -0.00000000000E+00 -0.90942277951E+01  0.90942277951E+01  0.00000000000E+00 0.  1.
         23    2    1    2    0    0  0.00000000000E+00  0.00000000000E+00  0.20646448600E+03  0.22465294159E+03  0.88551455018E+02 0.  0.
        -13    1    3    3    0    0 -0.67484785197E+01  0.42861028732E+02  0.12559944090E+03  0.13288276525E+03  0.00000000000E+00 0. -1.
         13    1    3    3    0    0  0.67484785197E+01 -0.42861028732E+02  0.80865045101E+02  0.91770176340E+02  0.00000000000E+00 0.  1.
<mgrwt>
<rscale>  0 0.88551455E+02</rscale>
<asrwt>0</asrwt>
<pdfrwt beam="1">  1        2 0.33162875E-01 0.88551455E+02</pdfrwt>
<pdfrwt beam="2">  1       -2 0.13991121E-02 0.88551455E+02</pdfrwt>
<totfact> 0.17190186E+05</totfact>
</mgrwt>
</event>
<event>
 5    1  0.6308903E+000  0.9256101E+02  0.7546771E-02  0.1296766E+00
          1   -1    0    0  501    0  0.00000000000E+00  0.00000000000E+00  0.22874242345E+03  0.22874242345E+03  0.00000000000E+00 0. -1.
         -1   -1    0    0    0  501 -0.00000000000E+00 -0.00000000000E+00 -0.93637419168E+01  0.93637419168E+01  0.00000000000E+00 0.  1.
         23    2    1    2    0    0  0.00000000000E+00  0.00000000000E+00  0.21937868153E+03  0.23810616536E+03  0.92561007310E+02 0.  0.
        -13    1    3    3    0    0  0.31514394405E+02 -0.11371499764E+02  0.19182249378E+03  0.19472631354E+03  0.00000000000E+00 0. -1.
         13    1    3    3    0    0 -0.31514394405E+02  0.11371499764E+02  0.27556187747E+02  0.43379851829E+02  0.00000000000E+00 0.  1.
<mgrwt>
<rscale>  0 0.92561007E+02</rscale>
<asrwt>0</asrwt>
<pdfrwt beam="1">  1        1 0.35191138E-01 0.92561007E+02</pdfrwt>
<pdfrwt beam="2">  1       -1 0.14405758E-02 0.92561007E+02</pdfrwt>
<totfact> 0.11673507E+05</totfact>
</mgrwt>
</event>
<event>
 5    1  0.6308903E+000  0.9135719E+02  0.7546771E-02  0.1299598E+00
         -1   -1    0    0    0  501 -0.00000000000E+00  0.00000000000E+00  0.14048390170E+03  0.14048390170E+03  0.00000000000E+00 0.  1.
          1   -1    0    0  501    0  0.00000000000E+00 -0.00000000000E+00 -0.14852477444E+02  0.14852477444E+02  0.00000000000E+00 0. -1.
         23    2    1    2    0    0  0.00000000000E+00  0.00000000000E+00  0.12563142426E+03  0.15533637915E+03  0.91357188689E+02 0.  0.
        -13    1    3    3    0    0  0.34360378413E+02 -0.24608583378E+02  0.92281610516E+02  0.10149932817E+03  0.00000000000E+00 0.  1.
         13    1    3    3    0    0 -0.34360378413E+02  0.24608583378E+02  0.33349813742E+02  0.53837050971E+02  0.00000000000E+00 0. -1.
<mgrwt>
<rscale>  0 0.91357189E+02</rscale>
<asrwt>0</asrwt>
<pdfrwt beam="2">  1        1 0.22849966E-02 0.91357189E+02</pdfrwt>
<pdfrwt beam="1">  1       -1 0.21612907E-01 0.91357189E+02</pdfrwt>
<totfact> 0.75532891E+04</totfact>
</mgrwt>
</event>
<event>
 5    1  0.6308903E+000  0.9249724E+02  0.7546771E-02  0.1296915E+00
          1   -1    0    0  501    0  0.00000000000E+00  0.00000000000E+00  0.80895812582E+02  0.80895812582E+02  0.00000000000E+00 0. -1.
         -1   -1    0    0    0  501 -0.00000000000E+00 -0.00000000000E+00 -0.26440613123E+02  0.26440613123E+02  0.00000000000E+00 0.  1.
         23    2    1    2    0    0  0.00000000000E+00  0.00000000000E+00  0.54455199459E+02  0.10733642571E+03  0.92497240689E+02 0.  0.
        -13    1    3    3    0    0 -0.36710461358E+02 -0.14026330756E+02  0.55522522312E+02  0.68023131444E+02  0.00000000000E+00 0. -1.
         13    1    3    3    0    0  0.36710461358E+02  0.14026330756E+02 -0.10673228527E+01  0.39313294261E+02  0.00000000000E+00 0.  1.
<mgrwt>
<rscale>  0 0.92497241E+02</rscale>
<asrwt>0</asrwt>
<pdfrwt beam="1">  1        1 0.12445510E-01 0.92497241E+02</pdfrwt>
<pdfrwt beam="2">  1       -1 0.40677867E-02 0.92497241E+02</pdfrwt>
<totfact> 0.97010359E+04</totfact>
</mgrwt>
</event>
<event>
 5    1  0.6308903E+000  0.9167966E+02  0.7546771E-02  0.1298834E+00
          2   -1    0    0  501    0  0.00000000000E+00  0.00000000000E+00  0.24808845093E+02  0.24808845093E+02  0.00000000000E+00 0. -1.
         -2   -1    0    0    0  501 -0.00000000000E+00 -0.00000000000E+00 -0.84699231674E+02  0.84699231674E+02  0.00000000000E+00 0.  1.
         23    2    1    2    0    0  0.00000000000E+00  0.00000000000E+00 -0.59890386581E+02  0.10950807677E+03  0.91679662261E+02 0.  0.
        -13    1    3    3    0    0 -0.35076417832E+02 -0.24957608765E+02 -0.11132749757E+02  0.44465440966E+02  0.00000000000E+00 0. -1.
         13    1    3    3    0    0  0.35076417832E+02  0.24957608765E+02 -0.48757636824E+02  0.65042635800E+02  0.00000000000E+00 0.  1.
<mgrwt>
<rscale>  0 0.91679662E+02</rscale>
<asrwt>0</asrwt>
<pdfrwt beam="1">  1        2 0.38167455E-02 0.91679662E+02</pdfrwt>
<pdfrwt beam="2">  1       -2 0.13030651E-01 0.91679662E+02</pdfrwt>
<totfact> 0.82607811E+04</totfact>
</mgrwt>
</event>
<event>
 5    1  0.6308903E+000  0.9118070E+02  0.7546771E-02  0.1300017E+00
          2   -1    0    0  501    0  0.00000000000E+00  0.00000000000E+00  0.93617173829E+01  0.93617173829E+01  0.00000000000E+00 0.  1.
         -2   -1    0    0    0  501 -0.00000000000E+00 -0.00000000000E+00 -0.22201910761E+03  0.22201910761E+03  0.00000000000E+00 0. -1.
         23    2    1    2    0    0  0.00000000000E+00  0.00000000000E+00 -0.21265739023E+03  0.23138082499E+03  0.91180702762E+02 0.  0.
        -13    1    3    3    0    0 -0.25072320449E+02  0.33561624599E+02 -0.60688696382E+02  0.73743621873E+02  0.00000000000E+00 0.  1.
         13    1    3    3    0    0  0.25072320449E+02 -0.33561624599E+02 -0.15196869384E+03  0.15763720312E+03  0.00000000000E+00 0. -1.
<mgrwt>
<rscale>  0 0.91180703E+02</rscale>
<asrwt>0</asrwt>
<pdfrwt beam="1">  1        2 0.14402643E-02 0.91180703E+02</pdfrwt>
<pdfrwt beam="2">  1       -2 0.34156784E-01 0.91180703E+02</pdfrwt>
<totfact> 0.59467281E+04</totfact>
</mgrwt>
</event>
<event>
 5    1  0.6308903E+000  0.9086718E+02  0.7546771E-02  0.1300765E+00
         -3   -1    0    0    0  501 -0.00000000000E+00  0.00000000000E+00  0.46179433492E+02  0.46179433492E+02  0.00000000000E+00 0.  1.
          3   -1    0    0  501    0  0.00000000000E+00 -0.00000000000E+00 -0.44699788833E+02  0.44699788833E+02  0.00000000000E+00 0. -1.
         23    2    1    2    0    0  0.00000000000E+00  0.00000000000E+00  0.14796446593E+01  0.90879222325E+02  0.90867176154E+02 0.  0.
        -13    1    3    3    0    0  0.21014088423E+02  0.36791201530E+02 -0.15664379485E+02  0.45172527125E+02  0.00000000000E+00 0. -1.
         13    1    3    3    0    0 -0.21014088423E+02 -0.36791201530E+02  0.17144024144E+02  0.45706695200E+02  0.00000000000E+00 0.  1.
<mgrwt>
<rscale>  0 0.90867176E+02</rscale>
<asrwt>0</asrwt>
<pdfrwt beam="2">  1        3 0.68768905E-02 0.90867176E+02</pdfrwt>
<pdfrwt beam="1">  1       -3 0.71045283E-02 0.90867176E+02</pdfrwt>
<totfact> 0.35690747E+04</totfact>
</mgrwt>
</event>
<event>
 5    1  0.6308903E+000  0.9091691E+02  0.7546771E-02  0.1300646E+00
          2   -1    0    0  501    0  0.00000000000E+00  0.00000000000E+00  0.16768232845E+03  0.16768232845E+03  0.00000000000E+00 0. -1.
         -2   -1    0    0    0  501 -0.00000000000E+00 -0.00000000000E+00 -0.12323725644E+02  0.12323725644E+02  0.00000000000E+00 0.  1.
         23    2    1    2    0    0  0.00000000000E+00  0.00000000000E+00  0.15535860280E+03  0.18000605409E+03  0.90916907363E+02 0.  0.
        -13    1    3    3    0    0 -0.21454925221E+02 -0.14489401061E+02  0.36985867943E+01  0.26152172063E+02  0.00000000000E+00 0.  1.
         13    1    3    3    0    0  0.21454925221E+02  0.14489401061E+02  0.15166001601E+03  0.15385388203E+03  0.00000000000E+00 0. -1.
<mgrwt>
<rscale>  0 0.90916907E+02</rscale>
<asrwt>0</asrwt>
<pdfrwt beam="1">  1        2 0.25797280E-01 0.90916907E+02</pdfrwt>
<pdfrwt beam="2">  1       -2 0.18959579E-02 0.90916907E+02</pdfrwt>
<totfact> 0.14640672E+05</totfact>
</mgrwt>
</event>
<event>
 5    1  0.6308903E+000  0.9085151E+02  0.7546771E-02  0.1300803E+00
          1   -1    0    0  501    0  0.00000000000E+00  0.00000000000E+00  0.86709410054E+02  0.86709410054E+02  0.00000000000E+00 0. -1.
         -1   -1    0    0    0  501 -0.00000000000E+00 -0.00000000000E+00 -0.23797869402E+02  0.23797869402E+02  0.00000000000E+00 0.  1.
         23    2    1    2    0    0  0.00000000000E+00  0.00000000000E+00  0.62911540652E+02  0.11050727946E+03  0.90851509980E+02 0.  0.
        -13    1    3    3    0    0  0.10768399940E+02  0.26660924145E+02 -0.11319939185E+02  0.30901526446E+02  0.00000000000E+00 0.  1.
         13    1    3    3    0    0 -0.10768399940E+02 -0.26660924145E+02  0.74231479837E+02  0.79605753010E+02  0.00000000000E+00 0. -1.
<mgrwt>
<rscale>  0 0.90851510E+02</rscale>
<asrwt>0</asrwt>
<pdfrwt beam="1">  1        1 0.13339909E-01 0.90851510E+02</pdfrwt>
<pdfrwt beam="2">  1       -1 0.36612107E-02 0.90851510E+02</pdfrwt>
<totfact> 0.10304791E+05</totfact>
</mgrwt>
</event>
<event>
 5    1  0.6308903E+000  0.9118442E+02  0.7546771E-02  0.1300009E+00
         -1   -1    0    0    0  501 -0.00000000000E+00  0.00000000000E+00  0.52365190964E+02  0.52365190964E+02  0.00000000000E+00 0.  1.
          1   -1    0    0  501    0  0.00000000000E+00 -0.00000000000E+00 -0.39695257926E+02  0.39695257926E+02  0.00000000000E+00 0. -1.
         23    2    1    2    0    0  0.00000000000E+00  0.00000000000E+00  0.12669933038E+02  0.92060448890E+02  0.91184423267E+02 0.  0.
        -13    1    3    3    0    0  0.44486058682E+02  0.96155757594E+01  0.90404589832E+01  0.46402571188E+02  0.00000000000E+00 0. -1.
         13    1    3    3    0    0 -0.44486058682E+02 -0.96155757594E+01  0.36294740549E+01  0.45657877701E+02  0.00000000000E+00 0.  1.
<mgrwt>
<rscale>  0 0.91184423E+02</rscale>
<asrwt>0</asrwt>
<pdfrwt beam="2">  1        1 0.61069627E-02 0.91184423E+02</pdfrwt>
<pdfrwt beam="1">  1       -1 0.80561833E-02 0.91184423E+02</pdfrwt>
<totfact> 0.90537053E+04</totfact>
</mgrwt>
</event>
<event>
 5    1  0.6308903E+000  0.8898748E+02  0.7546771E-02  0.1305322E+00
         -4   -1    0    0    0  501 -0.00000000000E+00  0.00000000000E+00  0.51604716468E+02  0.51604716468E+02  0.00000000000E+00 0.  1.
          4   -1    0    0  501    0  0.00000000000E+00 -0.00000000000E+00 -0.38362636634E+02  0.38362636634E+02  0.00000000000E+00 0. -1.
         23    2    1    2    0    0  0.00000000000E+00  0.00000000000E+00  0.13242079833E+02  0.89967353102E+02  0.88987481962E+02 0.  0.
        -13    1    3    3    0    0  0.76681824410E+01  0.24448679413E+02  0.43396763716E+02  0.50396607505E+02  0.00000000000E+00 0.  1.
         13    1    3    3    0    0 -0.76681824410E+01 -0.24448679413E+02 -0.30154683883E+02  0.39570745597E+02  0.00000000000E+00 0. -1.
<mgrwt>
<rscale>  0 0.88987482E+02</rscale>
<asrwt>0</asrwt>
<pdfrwt beam="2">  1        4 0.59019441E-02 0.88987482E+02</pdfrwt>
<pdfrwt beam="1">  1       -4 0.79391872E-02 0.88987482E+02</pdfrwt>
<totfact> 0.28936439E+04</totfact>
</mgrwt>
</event>
<event>
 5    1  0.6308903E+000  0.9054062E+02  0.7546771E-02  0.1301548E+00
          1   -1    0    0  501    0  0.00000000000E+00  0.00000000000E+00  0.86103118233E+02  0.86103118233E+02  0.00000000000E+00 0. -1.
         -1   -1    0    0    0  501 -0.00000000000E+00 -0.00000000000E+00 -0.23801705117E+02  0.23801705117E+02  0.00000000000E+00 0.  1.
         23    2    1    2    0    0  0.00000000000E+00  0.00000000000E+00  0.62301413117E+02  0.10990482335E+03  0.90540621376E+02 0.  0.
        -13    1    3    3    0    0  0.18680201194E+02 -0.17153669392E+02  0.76670182314E+02  0.80755898524E+02  0.00000000000E+00 0. -1.
         13    1    3    3    0    0 -0.18680201194E+02  0.17153669392E+02 -0.14368769198E+02  0.29148924826E+02  0.00000000000E+00 0.  1.
<mgrwt>
<rscale>  0 0.90540621E+02</rscale>
<asrwt>0</asrwt>
<pdfrwt beam="1">  1        1 0.13246633E-01 0.90540621E+02</pdfrwt>
<pdfrwt beam="2">  1       -1 0.36618008E-02 0.90540621E+02</pdfrwt>
<totfact> 0.10390106E+05</totfact>
</mgrwt>
</event>
<event>
 5    1  0.6308903E+000  0.8970559E+02  0.7546771E-02  0.1303566E+00
         -2   -1    0    0    0  501 -0.00000000000E+00  0.00000000000E+00  0.18713799640E+02  0.18713799640E+02  0.00000000000E+00 0.  1.
          2   -1    0    0  501    0  0.00000000000E+00 -0.00000000000E+00 -0.10750211555E+03  0.10750211555E+03  0.00000000000E+00 0. -1.
         23    2    1    2    0    0  0.00000000000E+00  0.00000000000E+00 -0.88788315908E+02  0.12621591519E+03  0.89705586254E+02 0.  0.
        -13    1    3    3    0    0 -0.28046160521E+02 -0.26175396978E+02 -0.11697347139E+02  0.40106937767E+02  0.00000000000E+00 0.  1.
         13    1    3    3    0    0  0.28046160521E+02  0.26175396978E+02 -0.77090968769E+02  0.86108977422E+02  0.00000000000E+00 0. -1.
<mgrwt>
<rscale>  0 0.89705586E+02</rscale>
<asrwt>0</asrwt>
<pdfrwt beam="2">  1        2 0.16538787E-01 0.89705586E+02</pdfrwt>
<pdfrwt beam="1">  1       -2 0.28790461E-02 0.89705586E+02</pdfrwt>
<totfact> 0.13115420E+05</totfact>
</mgrwt>
</event>
<event>
 5    1  0.6308903E+000  0.9252346E+02  0.7546771E-02  0.1296853E+00
         -2   -1    0    0    0  501 -0.00000000000E+00  0.00000000000E+00  0.13520950723E+02  0.13520950723E+02  0.00000000000E+00 0.  1.
          2   -1    0    0  501    0  0.00000000000E+00 -0.00000000000E+00 -0.15828382701E+03  0.15828382701E+03  0.00000000000E+00 0. -1.
         23    2    1    2    0    0  0.00000000000E+00  0.00000000000E+00 -0.14476287629E+03  0.17180477773E+03  0.92523463515E+02 0.  0.
        -13    1    3    3    0    0  0.18708209859E+02 -0.39159191715E+02 -0.42630312196E+02  0.60834060606E+02  0.00000000000E+00 0.  1.
         13    1    3    3    0    0 -0.18708209859E+02  0.39159191715E+02 -0.10213256409E+03  0.11097071713E+03  0.00000000000E+00 0. -1.
<mgrwt>
<rscale>  0 0.92523464E+02</rscale>
<asrwt>0</asrwt>
<pdfrwt beam="2">  1        2 0.24351359E-01 0.92523464E+02</pdfrwt>
<pdfrwt beam="1">  1       -2 0.20801461E-02 0.92523464E+02</pdfrwt>
<totfact> 0.13684957E+05</totfact>
</mgrwt>
</event>
<event>
 5    1  0.6308903E+000  0.8923412E+02  0.7546771E-02  0.1304717E+00
         -1   -1    0    0    0  501 -0.00000000000E+00  0.00000000000E+00  0.12985654511E+03  0.12985654511E+03  0.00000000000E+00 0.  1.
          1   -1    0    0  501    0  0.00000000000E+00 -0.00000000000E+00 -0.15329854094E+02  0.15329854094E+02  0.00000000000E+00 0. -1.
         23    2    1    2    0    0  0.00000000000E+00  0.00000000000E+00  0.11452669101E+03  0.14518639920E+03  0.89234116561E+02 0.  0.
        -13    1    3    3    0    0  0.24011859051E+02  0.36743690212E+02  0.70280966436E+02  0.82861827090E+02  0.00000000000E+00 0.  1.
         13    1    3    3    0    0 -0.24011859051E+02 -0.36743690212E+02  0.44245724579E+02  0.62324572113E+02  0.00000000000E+00 0. -1.
<mgrwt>
<rscale>  0 0.89234117E+02</rscale>
<asrwt>0</asrwt>
<pdfrwt beam="2">  1        1 0.23584392E-02 0.89234117E+02</pdfrwt>
<pdfrwt beam="1">  1       -1 0.19977929E-01 0.89234117E+02</pdfrwt>
<totfact> 0.81666861E+04</totfact>
</mgrwt>
</event>
<event>
 5    1  0.6308903E+000  0.9614336E+02  0.7546771E-02  0.1288622E+00
          3   -1    0    0  501    0  0.00000000000E+00  0.00000000000E+00  0.35995767036E+02  0.35995767036E+02  0.00000000000E+00 0. -1.
         -3   -1    0    0    0  501 -0.00000000000E+00 -0.00000000000E+00 -0.64198840035E+02  0.64198840035E+02  0.00000000000E+00 0.  1.
         23    2    1    2    0    0  0.00000000000E+00  0.00000000000E+00 -0.28203073000E+02  0.10019460707E+03  0.96143361495E+02 0.  0.
        -13    1    3    3    0    0  0.23726708080E+02  0.39481745123E+02 -0.28433167858E+02  0.54131413327E+02  0.00000000000E+00 0.  1.
         13    1    3    3    0    0 -0.23726708080E+02 -0.39481745123E+02  0.23009485820E+00  0.46063193744E+02  0.00000000000E+00 0. -1.
<mgrwt>
<rscale>  0 0.96143361E+02</rscale>
<asrwt>0</asrwt>
<pdfrwt beam="1">  1        3 0.55378103E-02 0.96143361E+02</pdfrwt>
<pdfrwt beam="2">  1       -3 0.98767446E-02 0.96143361E+02</pdfrwt>
<totfact> 0.29979305E+04</totfact>
</mgrwt>
</event>
<event>
 5    1  0.6308903E+000  0.9791581E+02  0.7546771E-02  0.1284741E+00
          1   -1    0    0  501    0  0.00000000000E+00  0.00000000000E+00  0.13690252215E+03  0.13690252215E+03  0.00000000000E+00 0. -1.
         -1   -1    0    0    0  501 -0.00000000000E+00 -0.00000000000E+00 -0.17507904186E+02  0.17507904186E+02  0.00000000000E+00 0.  1.
         23    2    1    2    0    0  0.00000000000E+00  0.00000000000E+00  0.11939461797E+03  0.15441042634E+03  0.97915805479E+02 0.  0.
        -13    1    3    3    0    0  0.14624900306E+02  0.17047219488E+02 -0.89033191466E+01  0.24161218783E+02  0.00000000000E+00 0.  1.
         13    1    3    3    0    0 -0.14624900306E+02 -0.17047219488E+02  0.12829793711E+03  0.13024920756E+03  0.00000000000E+00 0. -1.
<mgrwt>
<rscale>  0 0.97915805E+02</rscale>
<asrwt>0</asrwt>
<pdfrwt beam="1">  1        1 0.21061926E-01 0.97915805E+02</pdfrwt>
<pdfrwt beam="2">  1       -1 0.26935238E-02 0.97915805E+02</pdfrwt>
<totfact> 0.90860238E+04</totfact>
</mgrwt>
</event>
<event>
 5    1  0.6308903E+000  0.9257842E+02  0.7546771E-02  0.1296725E+00
          1   -1    0    0  501    0  0.00000000000E+00  0.00000000000E+00  0.20254841447E+03  0.20254841447E+03  0.00000000000E+00 0. -1.
         -1   -1    0    0    0  501 -0.00000000000E+00 -0.00000000000E+00 -0.10578660784E+02  0.10578660784E+02  0.00000000000E+00 0.  1.
         23    2    1    2    0    0  0.00000000000E+00  0.00000000000E+00  0.19196975369E+03  0.21312707526E+03  0.92578420142E+02 0.  0.
        -13    1    3    3    0    0  0.41759861483E+02 -0.16868715912E+02  0.71377826836E+02  0.84399252197E+02  0.00000000000E+00 0.  1.
         13    1    3    3    0    0 -0.41759861483E+02  0.16868715912E+02  0.12059192685E+03  0.12872782306E+03  0.00000000000E+00 0. -1.
<mgrwt>
<rscale>  0 0.92578420E+02</rscale>
<asrwt>0</asrwt>
<pdfrwt beam="1">  1        1 0.31161292E-01 0.92578420E+02</pdfrwt>
<pdfrwt beam="2">  1       -1 0.16274864E-02 0.92578420E+02</pdfrwt>
<totfact> 0.11393277E+05</totfact>
</mgrwt>
</event>
<event>
 5    1  0.6308903E+000  0.7246296E+02  0.7546771E-02  0.1351912E+00
          2   -1    0    0  501    0  0.00000000000E+00  0.00000000000E+00  0.95901477919E+02  0.95901477919E+02  0.00000000000E+00 0. -1.
         -2   -1    0    0    0  501 -0.00000000000E+00 -0.00000000000E+00 -0.13688217549E+02  0.13688217549E+02  0.00000000000E+00 0.  1.
         23    2    1    2    0    0  0.00000000000E+00  0.00000000000E+00  0.82213260370E+02  0.10958969547E+03  0.72462964142E+02 0.  0.
        -13    1    3    3    0    0 -0.24974928283E+02  0.18845155102E+02  0.13474236710E+02  0.34065260435E+02  0.00000000000E+00 0.  1.
         13    1    3    3    0    0  0.24974928283E+02 -0.18845155102E+02  0.68739023660E+02  0.75524435034E+02  0.00000000000E+00 0. -1.
<mgrwt>
<rscale>  0 0.72462964E+02</rscale>
<asrwt>0</asrwt>
<pdfrwt beam="1">  1        2 0.14754073E-01 0.72462964E+02</pdfrwt>
<pdfrwt beam="2">  1       -2 0.21058797E-02 0.72462964E+02</pdfrwt>
<totfact> 0.22577783E+05</totfact>
</mgrwt>
</event>
<event>
 5    1  0.6308903E+000  0.8881402E+02  0.7546771E-02  0.1305749E+00
         -3   -1    0    0    0  501 -0.00000000000E+00  0.00000000000E+00  0.14326413288E+03  0.14326413288E+03  0.00000000000E+00 0.  1.
          3   -1    0    0  501    0  0.00000000000E+00 -0.00000000000E+00 -0.13764662607E+02  0.13764662607E+02  0.00000000000E+00 0. -1.
         23    2    1    2    0    0  0.00000000000E+00  0.00000000000E+00  0.12949947027E+03  0.15702879549E+03  0.88814018099E+02 0.  0.
        -13    1    3    3    0    0  0.37313547457E+01  0.39011335031E+02  0.27824075955E+02  0.48062318628E+02  0.00000000000E+00 0. -1.
         13    1    3    3    0    0 -0.37313547457E+01 -0.39011335031E+02  0.10167539432E+03  0.10896647686E+03  0.00000000000E+00 0.  1.
<mgrwt>
<rscale>  0 0.88814018E+02</rscale>
<asrwt>0</asrwt>
<pdfrwt beam="2">  1        3 0.21176405E-02 0.88814018E+02</pdfrwt>
<pdfrwt beam="1">  1       -3 0.22040635E-01 0.88814018E+02</pdfrwt>
<totfact> 0.33151026E+04</totfact>
</mgrwt>
</event>
<event>
 5    1  0.6308903E+000  0.8886872E+02  0.7546771E-02  0.1305615E+00
          1   -1    0    0  501    0  0.00000000000E+00  0.00000000000E+00  0.66946410933E+01  0.66946410933E+01  0.00000000000E+00 0. -1.
         -1   -1    0    0    0  501 -0.00000000000E+00 -0.00000000000E+00 -0.29492428050E+03  0.29492428050E+03  0.00000000000E+00 0.  1.
         23    2    1    2    0    0  0.00000000000E+00  0.00000000000E+00 -0.28822963941E+03  0.30161892160E+03  0.88868716828E+02 0.  0.
        -13    1    3    3    0    0  0.29119353417E+01  0.39576412360E+02 -0.21196396473E+03  0.21564668819E+03  0.00000000000E+00 0.  1.
         13    1    3    3    0    0 -0.29119353417E+01 -0.39576412360E+02 -0.76265674682E+02  0.85972233409E+02  0.00000000000E+00 0. -1.
<mgrwt>
<rscale>  0 0.88868717E+02</rscale>
<asrwt>0</asrwt>
<pdfrwt beam="1">  1        1 0.10299447E-02 0.88868717E+02</pdfrwt>
<pdfrwt beam="2">  1       -1 0.45372970E-01 0.88868717E+02</pdfrwt>
<totfact> 0.65215117E+04</totfact>
</mgrwt>
</event>
<event>
 5    1  0.6308903E+000  0.8954218E+02  0.7546771E-02  0.1303964E+00
         -2   -1    0    0    0  501 -0.00000000000E+00  0.00000000000E+00  0.39242805825E+02  0.39242805825E+02  0.00000000000E+00 0.  1.
          2   -1    0    0  501    0  0.00000000000E+00 -0.00000000000E+00 -0.51078170360E+02  0.51078170360E+02  0.00000000000E+00 0. -1.
         23    2    1    2    0    0  0.00000000000E+00  0.00000000000E+00 -0.11835364535E+02  0.90320976185E+02  0.89542184948E+02 0.  0.
        -13    1    3    3    0    0 -0.90923655028E+01  0.20444874422E+02  0.33198283552E+02  0.40034860202E+02  0.00000000000E+00 0.  1.
         13    1    3    3    0    0  0.90923655028E+01 -0.20444874422E+02 -0.45033648087E+02  0.50286115983E+02  0.00000000000E+00 0. -1.
<mgrwt>
<rscale>  0 0.89542185E+02</rscale>
<asrwt>0</asrwt>
<pdfrwt beam="2">  1        2 0.78581801E-02 0.89542185E+02</pdfrwt>
<pdfrwt beam="1">  1       -2 0.60373547E-02 0.89542185E+02</pdfrwt>
<totfact> 0.10700371E+05</totfact>
</mgrwt>
</event>
<event>
 5    1  0.6308903E+000  0.9040724E+02  0.7546771E-02  0.1301869E+00
         -2   -1    0    0    0  501 -0.00000000000E+00  0.00000000000E+00  0.81452623857E+02  0.81452623857E+02  0.00000000000E+00 0.  1.
          2   -1    0    0  501    0  0.00000000000E+00 -0.00000000000E+00 -0.25086571946E+02  0.25086571946E+02  0.00000000000E+00 0. -1.
         23    2    1    2    0    0  0.00000000000E+00  0.00000000000E+00  0.56366051911E+02  0.10653919580E+03  0.90407236626E+02 0.  0.
        -13    1    3    3    0    0 -0.22594321979E+02  0.22402617273E+02 -0.96553685343E+01  0.33250665977E+02  0.00000000000E+00 0. -1.
         13    1    3    3    0    0  0.22594321979E+02 -0.22402617273E+02  0.66021420446E+02  0.73288529826E+02  0.00000000000E+00 0.  1.
<mgrwt>
<rscale>  0 0.90407237E+02</rscale>
<asrwt>0</asrwt>
<pdfrwt beam="2">  1        2 0.38594726E-02 0.90407237E+02</pdfrwt>
<pdfrwt beam="1">  1       -2 0.12531173E-01 0.90407237E+02</pdfrwt>
<totfact> 0.86438401E+04</totfact>
</mgrwt>
</event>
<event>
 5    1  0.6308903E+000  0.7155847E+02  0.7546771E-02  0.1354872E+00
         -3   -1    0    0    0  501 -0.00000000000E+00  0.00000000000E+00  0.50785857246E+02  0.50785857246E+02  0.00000000000E+00 0.  1.
          3   -1    0    0  501    0  0.00000000000E+00 -0.00000000000E+00 -0.25206891210E+02  0.25206891210E+02  0.00000000000E+00 0. -1.
         23    2    1    2    0    0  0.00000000000E+00  0.00000000000E+00  0.25578966036E+02  0.75992748456E+02  0.71558467804E+02 0.  0.
        -13    1    3    3    0    0 -0.17691576077E+02 -0.42020906174E+00  0.45812824766E+02  0.49111947150E+02  0.00000000000E+00 0.  1.
         13    1    3    3    0    0  0.17691576077E+02  0.42020906174E+00 -0.20233858730E+02  0.26880801306E+02  0.00000000000E+00 0. -1.
<mgrwt>
<rscale>  0 0.71558468E+02</rscale>
<asrwt>0</asrwt>
<pdfrwt beam="2">  1        3 0.38779833E-02 0.71558468E+02</pdfrwt>
<pdfrwt beam="1">  1       -3 0.78132088E-02 0.71558468E+02</pdfrwt>
<totfact> 0.70082477E+04</totfact>
</mgrwt>
</event>
<event>
 5    1  0.6308903E+000  0.9056416E+02  0.7546771E-02  0.1301491E+00
          1   -1    0    0  501    0  0.00000000000E+00  0.00000000000E+00  0.18779969290E+02  0.18779969290E+02  0.00000000000E+00 0. -1.
         -1   -1    0    0    0  501 -0.00000000000E+00 -0.00000000000E+00 -0.10918371664E+03  0.10918371664E+03  0.00000000000E+00 0.  1.
         23    2    1    2    0    0  0.00000000000E+00  0.00000000000E+00 -0.90403747352E+02  0.12796368593E+03  0.90564161688E+02 0.  0.
        -13    1    3    3    0    0  0.27976824574E+02  0.29948402745E+02 -0.17991544916E+02  0.44758297875E+02  0.00000000000E+00 0. -1.
         13    1    3    3    0    0 -0.27976824574E+02 -0.29948402745E+02 -0.72412202436E+02  0.83205388058E+02  0.00000000000E+00 0.  1.
<mgrwt>
<rscale>  0 0.90564162E+02</rscale>
<asrwt>0</asrwt>
<pdfrwt beam="1">  1        1 0.28892261E-02 0.90564162E+02</pdfrwt>
<pdfrwt beam="2">  1       -1 0.16797495E-01 0.90564162E+02</pdfrwt>
<totfact> 0.81426659E+04</totfact>
</mgrwt>
</event>
<event>
 5    1  0.6308903E+000  0.8782079E+02  0.7546771E-02  0.1308216E+00
         -1   -1    0    0    0  501 -0.00000000000E+00  0.00000000000E+00  0.27018364192E+02  0.27018364192E+02  0.00000000000E+00 0.  1.
          1   -1    0    0  501    0  0.00000000000E+00 -0.00000000000E+00 -0.71363418552E+02  0.71363418552E+02  0.00000000000E+00 0. -1.
         23    2    1    2    0    0  0.00000000000E+00  0.00000000000E+00 -0.44345054360E+02  0.98381782744E+02  0.87820790988E+02 0.  0.
        -13    1    3    3    0    0 -0.29435210550E+01  0.32064979665E+02 -0.55617297957E+02  0.64265940195E+02  0.00000000000E+00 0. -1.
         13    1    3    3    0    0  0.29435210550E+01 -0.32064979665E+02  0.11272243597E+02  0.34115842549E+02  0.00000000000E+00 0.  1.
<mgrwt>
<rscale>  0 0.87820791E+02</rscale>
<asrwt>0</asrwt>
<pdfrwt beam="2">  1        1 0.10978987E-01 0.87820791E+02</pdfrwt>
<pdfrwt beam="1">  1       -1 0.41566715E-02 0.87820791E+02</pdfrwt>
<totfact> 0.10969716E+05</totfact>
</mgrwt>
</event>
<event>
 5    1  0.6308903E+000  0.9377600E+02  0.7546771E-02  0.1293957E+00
          1   -1    0    0  501    0  0.00000000000E+00  0.00000000000E+00  0.99109078210E+02  0.99109078210E+02  0.00000000000E+00 0.  1.
         -1   -1    0    0    0  501 -0.00000000000E+00 -0.00000000000E+00 -0.22182471842E+02  0.22182471842E+02  0.00000000000E+00 0. -1.
         23    2    1    2    0    0  0.00000000000E+00  0.00000000000E+00  0.76926606368E+02  0.12129155005E+03  0.93775995580E+02 0.  0.
        -13    1    3    3    0    0  0.24139881457E+02 -0.36156611675E+02  0.61179267301E+02  0.75052895960E+02  0.00000000000E+00 0.  1.
         13    1    3    3    0    0 -0.24139881457E+02  0.36156611675E+02  0.15747339067E+02  0.46238654092E+02  0.00000000000E+00 0. -1.
<mgrwt>
<rscale>  0 0.93775996E+02</rscale>
<asrwt>0</asrwt>
<pdfrwt beam="1">  1        1 0.15247550E-01 0.93775996E+02</pdfrwt>
<pdfrwt beam="2">  1       -1 0.34126880E-02 0.93775996E+02</pdfrwt>
<totfact> 0.96581512E+04</totfact>
</mgrwt>
</event>
<event>
 5    1  0.6308903E+000  0.9076817E+02  0.7546771E-02  0.1301002E+00
          1   -1    0    0  501    0  0.00000000000E+00  0.00000000000E+00  0.20641098519E+03  0.20641098519E+03  0.00000000000E+00 0. -1.
         -1   -1    0    0    0  501 -0.00000000000E+00 -0.00000000000E+00 -0.99787082548E+01  0.99787082548E+01  0.00000000000E+00 0.  1.
         23    2    1    2    0    0  0.00000000000E+00  0.00000000000E+00  0.19643227694E+03  0.21638969345E+03  0.90768166267E+02 0.  0.
        -13    1    3    3    0    0  0.35057430746E+02  0.24886353790E+02  0.63557190000E+02  0.76732460251E+02  0.00000000000E+00 0.  1.
         13    1    3    3    0    0 -0.35057430746E+02 -0.24886353790E+02  0.13287508694E+03  0.13965723320E+03  0.00000000000E+00 0. -1.
<mgrwt>
<rscale>  0 0.90768166E+02</rscale>
<asrwt>0</asrwt>
<pdfrwt beam="1">  1        1 0.31755533E-01 0.90768166E+02</pdfrwt>
<pdfrwt beam="2">  1       -1 0.15351860E-02 0.90768166E+02</pdfrwt>
<totfact> 0.12057628E+05</totfact>
</mgrwt>
</event>
<event>
 5    1  0.6308903E+000  0.9068528E+02  0.7546771E-02  0.1301201E+00
         -3   -1    0    0    0  501 -0.00000000000E+00  0.00000000000E+00  0.38751422208E+02  0.38751422208E+02  0.00000000000E+00 0.  1.
          3   -1    0    0  501    0  0.00000000000E+00 -0.00000000000E+00 -0.53054959901E+02  0.53054959901E+02  0.00000000000E+00 0. -1.
         23    2    1    2    0    0  0.00000000000E+00  0.00000000000E+00 -0.14303537693E+02  0.91806382108E+02  0.90685283289E+02 0.  0.
        -13    1    3    3    0    0 -0.10084703371E+02 -0.31331240065E+02  0.24420429514E+02  0.40984207004E+02  0.00000000000E+00 0.  1.
         13    1    3    3    0    0  0.10084703371E+02  0.31331240065E+02 -0.38723967207E+02  0.50822175104E+02  0.00000000000E+00 0. -1.
<mgrwt>
<rscale>  0 0.90685283E+02</rscale>
<asrwt>0</asrwt>
<pdfrwt beam="2">  1        3 0.81623015E-02 0.90685283E+02</pdfrwt>
<pdfrwt beam="1">  1       -3 0.59617572E-02 0.90685283E+02</pdfrwt>
<totfact> 0.35813500E+04</totfact>
</mgrwt>
</event>
<event>
 5    1  0.6308903E+000  0.9899541E+02  0.7546771E-02  0.1282423E+00
         -1   -1    0    0    0  501 -0.00000000000E+00  0.00000000000E+00  0.88298021894E+02  0.88298021894E+02  0.00000000000E+00 0.  1.
          1   -1    0    0  501    0  0.00000000000E+00 -0.00000000000E+00 -0.27747199592E+02  0.27747199592E+02  0.00000000000E+00 0. -1.
         23    2    1    2    0    0  0.00000000000E+00  0.00000000000E+00  0.60550822302E+02  0.11604522149E+03  0.98995410743E+02 0.  0.
        -13    1    3    3    0    0  0.24617850027E+02 -0.42742600010E+02  0.25434457207E+02  0.55496666647E+02  0.00000000000E+00 0.  1.
         13    1    3    3    0    0 -0.24617850027E+02  0.42742600010E+02  0.35116365095E+02  0.60548554838E+02  0.00000000000E+00 0. -1.
<mgrwt>
<rscale>  0 0.98995411E+02</rscale>
<asrwt>0</asrwt>
<pdfrwt beam="2">  1        1 0.42688000E-02 0.98995411E+02</pdfrwt>
<pdfrwt beam="1">  1       -1 0.13584311E-01 0.98995411E+02</pdfrwt>
<totfact> 0.67354536E+04</totfact>
</mgrwt>
</event>
<event>
 5    1  0.6308903E+000  0.9271607E+02  0.7546771E-02  0.1296405E+00
          2   -1    0    0  501    0  0.00000000000E+00  0.00000000000E+00  0.14968660139E+03  0.14968660139E+03  0.00000000000E+00 0. -1.
         -2   -1    0    0    0  501 -0.00000000000E+00 -0.00000000000E+00 -0.14357111609E+02  0.14357111609E+02  0.00000000000E+00 0.  1.
         23    2    1    2    0    0  0.00000000000E+00  0.00000000000E+00  0.13532948978E+03  0.16404371299E+03  0.92716066406E+02 0.  0.
        -13    1    3    3    0    0  0.35056309981E+02  0.30317665490E+02  0.65929796659E+02  0.80590593730E+02  0.00000000000E+00 0. -1.
         13    1    3    3    0    0 -0.35056309981E+02 -0.30317665490E+02  0.69399693118E+02  0.83453119265E+02  0.00000000000E+00 0.  1.
<mgrwt>
<rscale>  0 0.92716066E+02</rscale>
<asrwt>0</asrwt>
<pdfrwt beam="1">  1        2 0.23028707E-01 0.92716066E+02</pdfrwt>
<pdfrwt beam="2">  1       -2 0.22087865E-02 0.92716066E+02</pdfrwt>
<totfact> 0.13349220E+05</totfact>
</mgrwt>
</event>
<event>
 5    1  0.6308903E+000  0.9260043E+02  0.7546771E-02  0.1296674E+00
         -3   -1    0    0    0  501 -0.00000000000E+00  0.00000000000E+00  0.16573246866E+02  0.16573246866E+02  0.00000000000E+00 0.  1.
          3   -1    0    0  501    0  0.00000000000E+00 -0.00000000000E+00 -0.12934760360E+03  0.12934760360E+03  0.00000000000E+00 0. -1.
         23    2    1    2    0    0  0.00000000000E+00  0.00000000000E+00 -0.11277435673E+03  0.14592085046E+03  0.92600426909E+02 0.  0.
        -13    1    3    3    0    0 -0.11401812033E+02 -0.44701469181E+02 -0.50185782809E+02  0.68167701008E+02  0.00000000000E+00 0. -1.
         13    1    3    3    0    0  0.11401812033E+02  0.44701469181E+02 -0.62588573923E+02  0.77753149456E+02  0.00000000000E+00 0.  1.
<mgrwt>
<rscale>  0 0.92600427E+02</rscale>
<asrwt>0</asrwt>
<pdfrwt beam="2">  1        3 0.19899632E-01 0.92600427E+02</pdfrwt>
<pdfrwt beam="1">  1       -3 0.25497302E-02 0.92600427E+02</pdfrwt>
<totfact> 0.30258245E+04</totfact>
</mgrwt>
</event>
<event>
 5    1  0.6308903E+000  0.9040533E+02  0.7546771E-02  0.1301873E+00
          2   -1    0    0  501    0  0.00000000000E+00  0.00000000000E+00  0.80856999470E+01  0.80856999470E+01  0.00000000000E+00 0. -1.
         -2   -1    0    0    0  501 -0.00000000000E+00 -0.00000000000E+00 -0.25270303998E+03  0.25270303998E+03  0.00000000000E+00 0.  1.
         23    2    1    2    0    0  0.00000000000E+00  0.00000000000E+00 -0.24461734004E+03  0.26078873993E+03  0.90405330750E+02 0.  0.
        -13    1    3    3    0    0 -0.31301368851E+02  0.32051903755E+02 -0.10495731230E+03  0.11411896263E+03  0.00000000000E+00 0. -1.
         13    1    3    3    0    0  0.31301368851E+02 -0.32051903755E+02 -0.13966002773E+03  0.14666977730E+03  0.00000000000E+00 0.  1.
<mgrwt>
<rscale>  0 0.90405331E+02</rscale>
<asrwt>0</asrwt>
<pdfrwt beam="1">  1        2 0.12439540E-02 0.90405331E+02</pdfrwt>
<pdfrwt beam="2">  1       -2 0.38877386E-01 0.90405331E+02</pdfrwt>
<totfact> 0.57106703E+04</totfact>
</mgrwt>
</event>
<event>
 5    1  0.6308903E+000  0.9276486E+02  0.7546771E-02  0.1296291E+00
          1   -1    0    0  501    0  0.00000000000E+00  0.00000000000E+00  0.80470118164E+02  0.80470118164E+02  0.00000000000E+00 0. -1.
         -1   -1    0    0    0  501 -0.00000000000E+00 -0.00000000000E+00 -0.26734515920E+02  0.26734515920E+02  0.00000000000E+00 0.  1.
         23    2    1    2    0    0  0.00000000000E+00  0.00000000000E+00  0.53735602245E+02  0.10720463408E+03  0.92764856602E+02 0.  0.
        -13    1    3    3    0    0 -0.36257678319E+02 -0.25315764711E+02  0.43039712363E+02  0.61708378850E+02  0.00000000000E+00 0. -1.
         13    1    3    3    0    0  0.36257678319E+02  0.25315764711E+02  0.10695889881E+02  0.45496255234E+02  0.00000000000E+00 0.  1.
<mgrwt>
<rscale>  0 0.92764857E+02</rscale>
<asrwt>0</asrwt>
<pdfrwt beam="1">  1        1 0.12380018E-01 0.92764857E+02</pdfrwt>
<pdfrwt beam="2">  1       -1 0.41130025E-02 0.92764857E+02</pdfrwt>
<totfact> 0.96161012E+04</totfact>
</mgrwt>
</event>
<event>
 5    1  0.6308903E+000  0.9223147E+02  0.7546771E-02  0.1297536E+00
          1   -1    0    0  501    0  0.00000000000E+00  0.00000000000E+00  0.35167965060E+03  0.35167965060E+03  0.00000000000E+00 0. -1.
         -1   -1    0    0    0  501 -0.00000000000E+00 -0.00000000000E+00 -0.60471542081E+01  0.60471542081E+01  0.00000000000E+00 0.  1.
         23    2    1    2    0    0  0.00000000000E+00  0.00000000000E+00  0.34563249639E+03  0.35772680481E+03  0.92231471398E+02 0.  0.
        -13    1    3    3    0    0  0.24496762274E+02  0.38454775472E+02  0.14600073485E+03  0.15295448897E+03  0.00000000000E+00 0.  1.
         13    1    3    3    0    0 -0.24496762274E+02 -0.38454775472E+02  0.19963176154E+03  0.20477231584E+03  0.00000000000E+00 0. -1.
<mgrwt>
<rscale>  0 0.92231471E+02</rscale>
<asrwt>0</asrwt>
<pdfrwt beam="1">  1        1 0.54104546E-01 0.92231471E+02</pdfrwt>
<pdfrwt beam="2">  1       -1 0.93033169E-03 0.92231471E+02</pdfrwt>
<totfact> 0.12796683E+05</totfact>
</mgrwt>
</event>
<event>
 4    1  0.6308903E+000  0.1394844E+03  0.7546771E-02  0.1214024E+00
         -2   -1    0    0    0  501 -0.00000000000E+00  0.00000000000E+00  0.16632224619E+02  0.16632224619E+02  0.00000000000E+00 0.  1.
          2   -1    0    0  501    0  0.00000000000E+00 -0.00000000000E+00 -0.29244276690E+03  0.29244276690E+03  0.00000000000E+00 0. -1.
        -13    1    1    2    0    0  0.21433915466E+02  0.55387373410E+02 -0.56889146859E+02  0.82240798244E+02  0.00000000000E+00 0.  1.
         13    1    1    2    0    0 -0.21433915466E+02 -0.55387373410E+02 -0.21892139542E+03  0.22683419328E+03  0.00000000000E+00 0. -1.
<mgrwt>
<rscale>  0 0.13948439E+03</rscale>
<asrwt>0</asrwt>
<pdfrwt beam="2">  1        2 0.44991193E-01 0.13948439E+03</pdfrwt>
<pdfrwt beam="1">  1       -2 0.25588039E-02 0.13948439E+03</pdfrwt>
<totfact> 0.55579121E+04</totfact>
</mgrwt>
</event>
<event>
 5    1  0.6308903E+000  0.9123662E+02  0.7546771E-02  0.1299884E+00
         -2   -1    0    0    0  501 -0.00000000000E+00  0.00000000000E+00  0.59704834752E+01  0.59704834752E+01  0.00000000000E+00 0.  1.
          2   -1    0    0  501    0  0.00000000000E+00 -0.00000000000E+00 -0.34855302719E+03  0.34855302719E+03  0.00000000000E+00 0. -1.
         23    2    1    2    0    0  0.00000000000E+00  0.00000000000E+00 -0.34258254371E+03  0.35452351066E+03  0.91236617409E+02 0.  0.
        -13    1    3    3    0    0 -0.45280702256E+02 -0.32220789700E+01 -0.18880147798E+03  0.19418218733E+03  0.00000000000E+00 0. -1.
         13    1    3    3    0    0  0.45280702256E+02  0.32220789700E+01 -0.15378106573E+03  0.16034132333E+03  0.00000000000E+00 0.  1.
<mgrwt>
<rscale>  0 0.91236617E+02</rscale>
<asrwt>0</asrwt>
<pdfrwt beam="2">  1        2 0.53623541E-01 0.91236617E+02</pdfrwt>
<pdfrwt beam="1">  1       -2 0.91853595E-03 0.91236617E+02</pdfrwt>
<totfact> 0.18957750E+05</totfact>
</mgrwt>
</event>
<event>
 5    1  0.6308903E+000  0.8206586E+02  0.7546771E-02  0.1323289E+00
          2   -1    0    0  501    0  0.00000000000E+00  0.00000000000E+00  0.25668698191E+02  0.25668698191E+02  0.00000000000E+00 0.  1.
         -2   -1    0    0    0  501 -0.00000000000E+00 -0.00000000000E+00 -0.65593567682E+02  0.65593567682E+02  0.00000000000E+00 0. -1.
         23    2    1    2    0    0  0.00000000000E+00  0.00000000000E+00 -0.39924869491E+02  0.91262265874E+02  0.82065863601E+02 0.  0.
        -13    1    3    3    0    0  0.71531372346E+01  0.36926746619E+02 -0.38199883186E+02  0.53609542654E+02  0.00000000000E+00 0. -1.
         13    1    3    3    0    0 -0.71531372346E+01 -0.36926746619E+02 -0.17249863056E+01  0.37652723220E+02  0.00000000000E+00 0.  1.
<mgrwt>
<rscale>  0 0.82065864E+02</rscale>
<asrwt>0</asrwt>
<pdfrwt beam="1">  1        2 0.39490305E-02 0.82065864E+02</pdfrwt>
<pdfrwt beam="2">  1       -2 0.10091318E-01 0.82065864E+02</pdfrwt>
<totfact> 0.11592105E+05</totfact>
</mgrwt>
</event>
<event>
 5    1  0.6308903E+000  0.9256279E+02  0.7546771E-02  0.1296762E+00
          3   -1    0    0  501    0  0.00000000000E+00  0.00000000000E+00  0.86931011238E+02  0.86931011238E+02  0.00000000000E+00 0. -1.
         -3   -1    0    0    0  501 -0.00000000000E+00 -0.00000000000E+00 -0.24639854733E+02  0.24639854733E+02  0.00000000000E+00 0.  1.
         23    2    1    2    0    0  0.00000000000E+00  0.00000000000E+00  0.62291156506E+02  0.11157086597E+03  0.92562789256E+02 0.  0.
        -13    1    3    3    0    0 -0.31750138299E+02 -0.72317758746E+01  0.70786818459E+02  0.77917543159E+02  0.00000000000E+00 0. -1.
         13    1    3    3    0    0  0.31750138299E+02  0.72317758746E+01 -0.84956619537E+01  0.33653322813E+02  0.00000000000E+00 0.  1.
<mgrwt>
<rscale>  0 0.92562789E+02</rscale>
<asrwt>0</asrwt>
<pdfrwt beam="1">  1        3 0.13374002E-01 0.92562789E+02</pdfrwt>
<pdfrwt beam="2">  1       -3 0.37907469E-02 0.92562789E+02</pdfrwt>
<totfact> 0.32470559E+04</totfact>
</mgrwt>
</event>
<event>
 5    1  0.6308903E+000  0.9176664E+02  0.7546771E-02  0.1298629E+00
         -2   -1    0    0    0  501 -0.00000000000E+00  0.00000000000E+00  0.41441394032E+02  0.41441394032E+02  0.00000000000E+00 0.  1.
          2   -1    0    0  501    0  0.00000000000E+00 -0.00000000000E+00 -0.50801358595E+02  0.50801358595E+02  0.00000000000E+00 0. -1.
         23    2    1    2    0    0  0.00000000000E+00  0.00000000000E+00 -0.93599645621E+01  0.92242752627E+02  0.91766641409E+02 0.  0.
        -13    1    3    3    0    0  0.96609390955E+01 -0.34248302265E+01 -0.49635795293E+02  0.50683087718E+02  0.00000000000E+00 0. -1.
         13    1    3    3    0    0 -0.96609390955E+01  0.34248302265E+01  0.40275830731E+02  0.41559664909E+02  0.00000000000E+00 0.  1.
<mgrwt>
<rscale>  0 0.91766641E+02</rscale>
<asrwt>0</asrwt>
<pdfrwt beam="2">  1        2 0.78155936E-02 0.91766641E+02</pdfrwt>
<pdfrwt beam="1">  1       -2 0.63755991E-02 0.91766641E+02</pdfrwt>
<totfact> 0.99647893E+04</totfact>
</mgrwt>
</event>
<event>
 5    1  0.6308903E+000  0.8870870E+02  0.7546771E-02  0.1306009E+00
          3   -1    0    0  501    0  0.00000000000E+00  0.00000000000E+00  0.13344120258E+03  0.13344120258E+03  0.00000000000E+00 0. -1.
         -3   -1    0    0    0  501 -0.00000000000E+00 -0.00000000000E+00 -0.14742885541E+02  0.14742885541E+02  0.00000000000E+00 0.  1.
         23    2    1    2    0    0  0.00000000000E+00  0.00000000000E+00  0.11869831704E+03  0.14818408812E+03  0.88708700274E+02 0.  0.
        -13    1    3    3    0    0  0.38194563753E+02 -0.33371129437E+01  0.22095814648E+02  0.44251396001E+02  0.00000000000E+00 0.  1.
         13    1    3    3    0    0 -0.38194563753E+02  0.33371129437E+01  0.96602502388E+02  0.10393269212E+03  0.00000000000E+00 0. -1.
<mgrwt>
<rscale>  0 0.88708700E+02</rscale>
<asrwt>0</asrwt>
<pdfrwt beam="1">  1        3 0.20529415E-01 0.88708700E+02</pdfrwt>
<pdfrwt beam="2">  1       -3 0.22681363E-02 0.88708700E+02</pdfrwt>
<totfact> 0.33835045E+04</totfact>
</mgrwt>
</event>
<event>
 5    1  0.6308903E+000  0.9158574E+02  0.7546771E-02  0.1299056E+00
         -2   -1    0    0    0  501 -0.00000000000E+00  0.00000000000E+00  0.19761233487E+02  0.19761233487E+02  0.00000000000E+00 0. -1.
          2   -1    0    0  501    0  0.00000000000E+00 -0.00000000000E+00 -0.10611619617E+03  0.10611619617E+03  0.00000000000E+00 0.  1.
         23    2    1    2    0    0  0.00000000000E+00  0.00000000000E+00 -0.86354962688E+02  0.12587742966E+03  0.91585739705E+02 0.  0.
        -13    1    3    3    0    0  0.37840494931E+02 -0.21634164055E+02 -0.23884261089E+02  0.49703098885E+02  0.00000000000E+00 0.  1.
         13    1    3    3    0    0 -0.37840494931E+02  0.21634164055E+02 -0.62470701599E+02  0.76174330776E+02  0.00000000000E+00 0. -1.
<mgrwt>
<rscale>  0 0.91585740E+02</rscale>
<asrwt>0</asrwt>
<pdfrwt beam="2">  1        2 0.16325569E-01 0.91585740E+02</pdfrwt>
<pdfrwt beam="1">  1       -2 0.30401897E-02 0.91585740E+02</pdfrwt>
<totfact> 0.12340486E+05</totfact>
</mgrwt>
</event>
<event>
 5    1  0.6308903E+000  0.8880032E+02  0.7546771E-02  0.1305783E+00
         -2   -1    0    0    0  501 -0.00000000000E+00  0.00000000000E+00  0.62712674747E+02  0.62712674747E+02  0.00000000000E+00 0.  1.
          2   -1    0    0  501    0  0.00000000000E+00 -0.00000000000E+00 -0.31435022297E+02  0.31435022297E+02  0.00000000000E+00 0. -1.
         23    2    1    2    0    0  0.00000000000E+00  0.00000000000E+00  0.31277652450E+02  0.94147697043E+02  0.88800322723E+02 0.  0.
        -13    1    3    3    0    0  0.27188827431E+02  0.29497201000E+02 -0.45347877505E+01  0.40371790942E+02  0.00000000000E+00 0. -1.
         13    1    3    3    0    0 -0.27188827431E+02 -0.29497201000E+02  0.35812440201E+02  0.53775906101E+02  0.00000000000E+00 0.  1.
<mgrwt>
<rscale>  0 0.88800323E+02</rscale>
<asrwt>0</asrwt>
<pdfrwt beam="2">  1        2 0.48361573E-02 0.88800323E+02</pdfrwt>
<pdfrwt beam="1">  1       -2 0.96481038E-02 0.88800323E+02</pdfrwt>
<totfact> 0.96812988E+04</totfact>
</mgrwt>
</event>
<event>
 5    1  0.6308903E+000  0.8220010E+02  0.7546771E-02  0.1322921E+00
          2   -1    0    0  501    0  0.00000000000E+00  0.00000000000E+00  0.66854020285E+01  0.66854020285E+01  0.00000000000E+00 0. -1.
         -2   -1    0    0    0  501 -0.00000000000E+00 -0.00000000000E+00 -0.25267205251E+03  0.25267205251E+03  0.00000000000E+00 0.  1.
         23    2    1    2    0    0  0.00000000000E+00  0.00000000000E+00 -0.24598665048E+03  0.25935745454E+03  0.82200103465E+02 0.  0.
        -13    1    3    3    0    0 -0.30765528159E+01  0.40615542386E+02 -0.10567512271E+03  0.11325333999E+03  0.00000000000E+00 0. -1.
         13    1    3    3    0    0  0.30765528159E+01 -0.40615542386E+02 -0.14031152777E+03  0.14610411454E+03  0.00000000000E+00 0.  1.
<mgrwt>
<rscale>  0 0.82200103E+02</rscale>
<asrwt>0</asrwt>
<pdfrwt beam="1">  1        2 0.10285233E-02 0.82200103E+02</pdfrwt>
<pdfrwt beam="2">  1       -2 0.38872628E-01 0.82200103E+02</pdfrwt>
<totfact> 0.72858783E+04</totfact>
</mgrwt>
</event>
<event>
 5    1  0.6308903E+000  0.9162137E+02  0.7546771E-02  0.1298972E+00
          3   -1    0    0  501    0  0.00000000000E+00  0.00000000000E+00  0.52464227338E+02  0.52464227338E+02  0.00000000000E+00 0. -1.
         -3   -1    0    0    0  501 -0.00000000000E+00 -0.00000000000E+00 -0.40000949616E+02  0.40000949616E+02  0.00000000000E+00 0.  1.
         23    2    1    2    0    0  0.00000000000E+00  0.00000000000E+00  0.12463277723E+02  0.92465176954E+02  0.91621371183E+02 0.  0.
        -13    1    3    3    0    0  0.41496507518E+02 -0.13358205887E+02 -0.79769841671E+01  0.44317424080E+02  0.00000000000E+00 0.  1.
         13    1    3    3    0    0 -0.41496507518E+02  0.13358205887E+02  0.20440261890E+02  0.48147752874E+02  0.00000000000E+00 0. -1.
<mgrwt>
<rscale>  0 0.91621371E+02</rscale>
<asrwt>0</asrwt>
<pdfrwt beam="1">  1        3 0.80714196E-02 0.91621371E+02</pdfrwt>
<pdfrwt beam="2">  1       -3 0.61539923E-02 0.91621371E+02</pdfrwt>
<totfact> 0.34775375E+04</totfact>
</mgrwt>
</event>
<event>
 5    1  0.6308903E+000  0.9074640E+02  0.7546771E-02  0.1301054E+00
         -1   -1    0    0    0  501 -0.00000000000E+00  0.00000000000E+00  0.20452539621E+03  0.20452539621E+03  0.00000000000E+00 0.  1.
          1   -1    0    0  501    0  0.00000000000E+00 -0.00000000000E+00 -0.10065876226E+02  0.10065876226E+02  0.00000000000E+00 0. -1.
         23    2    1    2    0    0  0.00000000000E+00  0.00000000000E+00  0.19445951998E+03  0.21459127244E+03  0.90746400994E+02 0.  0.
        -13    1    3    3    0    0 -0.39675251618E+02  0.76148702921E+01  0.14607260485E+03  0.15155631867E+03  0.00000000000E+00 0.  1.
         13    1    3    3    0    0  0.39675251618E+02 -0.76148702921E+01  0.48386915138E+02  0.63034953772E+02  0.00000000000E+00 0. -1.
<mgrwt>
<rscale>  0 0.90746401E+02</rscale>
<asrwt>0</asrwt>
<pdfrwt beam="2">  1        1 0.15485965E-02 0.90746401E+02</pdfrwt>
<pdfrwt beam="1">  1       -1 0.31465442E-01 0.90746401E+02</pdfrwt>
<totfact> 0.69833590E+04</totfact>
</mgrwt>
</event>
<event>
 5    1  0.6308903E+000  0.9127972E+02  0.7546771E-02  0.1299782E+00
          2   -1    0    0  501    0  0.00000000000E+00  0.00000000000E+00  0.65733097676E+02  0.65733097676E+02  0.00000000000E+00 0. -1.
         -2   -1    0    0    0  501 -0.00000000000E+00 -0.00000000000E+00 -0.31688704852E+02  0.31688704852E+02  0.00000000000E+00 0.  1.
         23    2    1    2    0    0  0.00000000000E+00  0.00000000000E+00  0.34044392823E+02  0.97421802528E+02  0.91279718038E+02 0.  0.
        -13    1    3    3    0    0 -0.19053702378E+02  0.27918276952E+02 -0.15709353752E+02  0.37272745507E+02  0.00000000000E+00 0.  1.
         13    1    3    3    0    0  0.19053702378E+02 -0.27918276952E+02  0.49753746576E+02  0.60149057022E+02  0.00000000000E+00 0. -1.
<mgrwt>
<rscale>  0 0.91279718E+02</rscale>
<asrwt>0</asrwt>
<pdfrwt beam="1">  1        2 0.10112784E-01 0.91279718E+02</pdfrwt>
<pdfrwt beam="2">  1       -2 0.48751854E-02 0.91279718E+02</pdfrwt>
<totfact> 0.10837816E+05</totfact>
</mgrwt>
</event>
<event>
 5    1  0.6308903E+000  0.8352369E+02  0.7546771E-02  0.1319339E+00
          1   -1    0    0  501    0  0.00000000000E+00  0.00000000000E+00  0.13753418133E+02  0.13753418133E+02  0.00000000000E+00 0. -1.
         -1   -1    0    0    0  501 -0.00000000000E+00 -0.00000000000E+00 -0.12680860982E+03  0.12680860982E+03  0.00000000000E+00 0.  1.
         23    2    1    2    0    0  0.00000000000E+00  0.00000000000E+00 -0.11305519169E+03  0.14056202796E+03  0.83523693256E+02 0.  0.
        -13    1    3    3    0    0  0.35824628836E+02  0.17940025754E+02 -0.76354649719E+02  0.86228075991E+02  0.00000000000E+00 0. -1.
         13    1    3    3    0    0 -0.35824628836E+02 -0.17940025754E+02 -0.36700541972E+02  0.54333951966E+02  0.00000000000E+00 0.  1.
<mgrwt>
<rscale>  0 0.83523693E+02</rscale>
<asrwt>0</asrwt>
<pdfrwt beam="1">  1        1 0.21159105E-02 0.83523693E+02</pdfrwt>
<pdfrwt beam="2">  1       -1 0.19509017E-01 0.83523693E+02</pdfrwt>
<totfact> 0.97348094E+04</totfact>
</mgrwt>
</event>
<event>
 5    1  0.6308903E+000  0.9179884E+02  0.7546771E-02  0.1298553E+00
         -2   -1    0    0    0  501 -0.00000000000E+00  0.00000000000E+00  0.64861089664E+02  0.64861089664E+02  0.00000000000E+00 0. -1.
          2   -1    0    0  501    0  0.00000000000E+00 -0.00000000000E+00 -0.32481056064E+02  0.32481056064E+02  0.00000000000E+00 0.  1.
         23    2    1    2    0    0  0.00000000000E+00  0.00000000000E+00  0.32380033600E+02  0.97342145728E+02  0.91798838550E+02 0.  0.
        -13    1    3    3    0    0 -0.17665874441E+02 -0.30532120154E+02 -0.14951088118E+02  0.38312250218E+02  0.00000000000E+00 0.  1.
         13    1    3    3    0    0  0.17665874441E+02  0.30532120154E+02  0.47331121718E+02  0.59029895510E+02  0.00000000000E+00 0. -1.
<mgrwt>
<rscale>  0 0.91798839E+02</rscale>
<asrwt>0</asrwt>
<pdfrwt beam="2">  1        2 0.49970856E-02 0.91798839E+02</pdfrwt>
<pdfrwt beam="1">  1       -2 0.99786291E-02 0.91798839E+02</pdfrwt>
<totfact> 0.88554786E+04</totfact>
</mgrwt>
</event>
<event>
 5    1  0.6308903E+000  0.9088954E+02  0.7546771E-02  0.1300712E+00
         -2   -1    0    0    0  501 -0.00000000000E+00  0.00000000000E+00  0.12711458054E+02  0.12711458054E+02  0.00000000000E+00 0.  1.
          2   -1    0    0  501    0  0.00000000000E+00 -0.00000000000E+00 -0.16246972509E+03  0.16246972509E+03  0.00000000000E+00 0. -1.
         23    2    1    2    0    0  0.00000000000E+00  0.00000000000E+00 -0.14975826704E+03  0.17518118315E+03  0.90889539455E+02 0.  0.
        -13    1    3    3    0    0  0.12595709126E+02 -0.28314707038E+02 -0.10813412537E+02  0.32822315789E+02  0.00000000000E+00 0.  1.
         13    1    3    3    0    0 -0.12595709126E+02  0.28314707038E+02 -0.13894485450E+03  0.14235886736E+03  0.00000000000E+00 0. -1.
<mgrwt>
<rscale>  0 0.90889539E+02</rscale>
<asrwt>0</asrwt>
<pdfrwt beam="2">  1        2 0.24995340E-01 0.90889539E+02</pdfrwt>
<pdfrwt beam="1">  1       -2 0.19556091E-02 0.90889539E+02</pdfrwt>
<totfact> 0.14492805E+05</totfact>
</mgrwt>
</event>
<event>
 5    1  0.6308903E+000  0.9042052E+02  0.7546771E-02  0.1301837E+00
          3   -1    0    0  501    0  0.00000000000E+00  0.00000000000E+00  0.49405203261E+02  0.49405203261E+02  0.00000000000E+00 0. -1.
         -3   -1    0    0    0  501 -0.00000000000E+00 -0.00000000000E+00 -0.41371500734E+02  0.41371500734E+02  0.00000000000E+00 0.  1.
         23    2    1    2    0    0  0.00000000000E+00  0.00000000000E+00  0.80337025268E+01  0.90776703995E+02  0.90420515437E+02 0.  0.
        -13    1    3    3    0    0  0.82890252412E+01 -0.99092138632E+01 -0.39478947669E+02  0.41538990935E+02  0.00000000000E+00 0.  1.
         13    1    3    3    0    0 -0.82890252412E+01  0.99092138632E+01  0.47512650196E+02  0.49237713061E+02  0.00000000000E+00 0. -1.
<mgrwt>
<rscale>  0 0.90420515E+02</rscale>
<asrwt>0</asrwt>
<pdfrwt beam="1">  1        3 0.76008005E-02 0.90420515E+02</pdfrwt>
<pdfrwt beam="2">  1       -3 0.63648463E-02 0.90420515E+02</pdfrwt>
<totfact> 0.36180225E+04</totfact>
</mgrwt>
</event>
<event>
 5    1  0.6308903E+000  0.9080997E+02  0.7546771E-02  0.1300902E+00
         -1   -1    0    0    0  501 -0.00000000000E+00  0.00000000000E+00  0.28925841143E+02  0.28925841143E+02  0.00000000000E+00 0.  1.
          1   -1    0    0  501    0  0.00000000000E+00 -0.00000000000E+00 -0.71272349186E+02  0.71272349186E+02  0.00000000000E+00 0. -1.
         23    2    1    2    0    0  0.00000000000E+00  0.00000000000E+00 -0.42346508043E+02  0.10019819033E+03  0.90809969727E+02 0.  0.
        -13    1    3    3    0    0 -0.20373450304E+02 -0.40231419608E+02 -0.27008476744E+02  0.52565220602E+02  0.00000000000E+00 0.  1.
         13    1    3    3    0    0  0.20373450304E+02  0.40231419608E+02 -0.15338031298E+02  0.47632969727E+02  0.00000000000E+00 0. -1.
<mgrwt>
<rscale>  0 0.90809970E+02</rscale>
<asrwt>0</asrwt>
<pdfrwt beam="2">  1        1 0.10964977E-01 0.90809970E+02</pdfrwt>
<pdfrwt beam="1">  1       -1 0.44501294E-02 0.90809970E+02</pdfrwt>
<totfact> 0.10004710E+05</totfact>
</mgrwt>
</event>
<event>
 5    1  0.6308903E+000  0.8880655E+02  0.7546771E-02  0.1305768E+00
          2   -1    0    0  501    0  0.00000000000E+00  0.00000000000E+00  0.42718501654E+02  0.42718501654E+02  0.00000000000E+00 0. -1.
         -2   -1    0    0    0  501 -0.00000000000E+00 -0.00000000000E+00 -0.46154491858E+02  0.46154491858E+02  0.00000000000E+00 0.  1.
         23    2    1    2    0    0  0.00000000000E+00  0.00000000000E+00 -0.34359902038E+01  0.88872993513E+02  0.88806547885E+02 0.  0.
        -13    1    3    3    0    0 -0.41173004772E+02 -0.16624266206E+02 -0.14566714293E+01  0.44426393512E+02  0.00000000000E+00 0. -1.
         13    1    3    3    0    0  0.41173004772E+02  0.16624266206E+02 -0.19793187745E+01  0.44446600001E+02  0.00000000000E+00 0.  1.
<mgrwt>
<rscale>  0 0.88806548E+02</rscale>
<asrwt>0</asrwt>
<pdfrwt beam="1">  1        2 0.65720772E-02 0.88806548E+02</pdfrwt>
<pdfrwt beam="2">  1       -2 0.71006911E-02 0.88806548E+02</pdfrwt>
<totfact> 0.10465177E+05</totfact>
</mgrwt>
</event>
<event>
 5    1  0.6308903E+000  0.9058933E+02  0.7546771E-02  0.1301431E+00
         -1   -1    0    0    0  501 -0.00000000000E+00  0.00000000000E+00  0.49045490335E+01  0.49045490335E+01  0.00000000000E+00 0.  1.
          1   -1    0    0  501    0  0.00000000000E+00 -0.00000000000E+00 -0.41830689563E+03  0.41830689563E+03  0.00000000000E+00 0. -1.
         23    2    1    2    0    0  0.00000000000E+00  0.00000000000E+00 -0.41340234660E+03  0.42321144466E+03  0.90589330071E+02 0.  0.
        -13    1    3    3    0    0  0.20418125559E+02 -0.39259784563E+02 -0.16155735113E+03  0.16750823335E+03  0.00000000000E+00 0.  1.
         13    1    3    3    0    0 -0.20418125559E+02  0.39259784563E+02 -0.25184499547E+03  0.25570321132E+03  0.00000000000E+00 0. -1.
<mgrwt>
<rscale>  0 0.90589330E+02</rscale>
<asrwt>0</asrwt>
<pdfrwt beam="2">  1        1 0.64354905E-01 0.90589330E+02</pdfrwt>
<pdfrwt beam="1">  1       -1 0.75454603E-03 0.90589330E+02</pdfrwt>
<totfact> 0.13821201E+05</totfact>
</mgrwt>
</event>
<event>
 5    1  0.6308903E+000  0.7381950E+02  0.7546771E-02  0.1347566E+00
         -2   -1    0    0    0  501 -0.00000000000E+00  0.00000000000E+00  0.12355012770E+02  0.12355012770E+02  0.00000000000E+00 0.  1.
          2   -1    0    0  501    0  0.00000000000E+00 -0.00000000000E+00 -0.11026534076E+03  0.11026534076E+03  0.00000000000E+00 0. -1.
         23    2    1    2    0    0  0.00000000000E+00  0.00000000000E+00 -0.97910327987E+02  0.12262035353E+03  0.73819501304E+02 0.  0.
        -13    1    3    3    0    0  0.27301494622E+02  0.13078104732E+02 -0.13878317125E+02  0.33301893613E+02  0.00000000000E+00 0.  1.
         13    1    3    3    0    0 -0.27301494622E+02 -0.13078104732E+02 -0.84032010862E+02  0.89318459914E+02  0.00000000000E+00 0. -1.
<mgrwt>
<rscale>  0 0.73819501E+02</rscale>
<asrwt>0</asrwt>
<pdfrwt beam="2">  1        2 0.16963899E-01 0.73819501E+02</pdfrwt>
<pdfrwt beam="1">  1       -2 0.19007712E-02 0.73819501E+02</pdfrwt>
<totfact> 0.22366916E+05</totfact>
</mgrwt>
</event>
<event>
 5    1  0.6308903E+000  0.9187841E+02  0.7546771E-02  0.1298366E+00
         -1   -1    0    0    0  501 -0.00000000000E+00  0.00000000000E+00  0.20732819912E+02  0.20732819912E+02  0.00000000000E+00 0.  1.
          1   -1    0    0  501    0  0.00000000000E+00 -0.00000000000E+00 -0.10179080825E+03  0.10179080825E+03  0.00000000000E+00 0. -1.
         23    2    1    2    0    0  0.00000000000E+00  0.00000000000E+00 -0.81057988336E+02  0.12252362816E+03  0.91878408694E+02 0.  0.
        -13    1    3    3    0    0 -0.24579103737E+02  0.35112634042E+02 -0.62578081427E+02  0.75848834434E+02  0.00000000000E+00 0.  1.
         13    1    3    3    0    0  0.24579103737E+02 -0.35112634042E+02 -0.18479906909E+02  0.46674793725E+02  0.00000000000E+00 0. -1.
<mgrwt>
<rscale>  0 0.91878409E+02</rscale>
<asrwt>0</asrwt>
<pdfrwt beam="2">  1        1 0.15660125E-01 0.91878409E+02</pdfrwt>
<pdfrwt beam="1">  1       -1 0.31896646E-02 0.91878409E+02</pdfrwt>
<totfact> 0.10259277E+05</totfact>
</mgrwt>
</event>
<event>
 5    1  0.6308903E+000  0.9167113E+02  0.7546771E-02  0.1298855E+00
          2   -1    0    0  501    0  0.00000000000E+00  0.00000000000E+00  0.20748917258E+02  0.20748917258E+02  0.00000000000E+00 0. -1.
         -2   -1    0    0    0  501 -0.00000000000E+00 -0.00000000000E+00 -0.10125342629E+03  0.10125342629E+03  0.00000000000E+00 0.  1.
         23    2    1    2    0    0  0.00000000000E+00  0.00000000000E+00 -0.80504509035E+02  0.12200234355E+03  0.91671128808E+02 0.  0.
        -13    1    3    3    0    0 -0.48127119365E+01  0.38601621782E+02 -0.72514570625E+02  0.82289794952E+02  0.00000000000E+00 0.  1.
         13    1    3    3    0    0  0.48127119365E+01 -0.38601621782E+02 -0.79899384104E+01  0.39712548598E+02  0.00000000000E+00 0. -1.
<mgrwt>
<rscale>  0 0.91671129E+02</rscale>
<asrwt>0</asrwt>
<pdfrwt beam="1">  1        2 0.31921411E-02 0.91671129E+02</pdfrwt>
<pdfrwt beam="2">  1       -2 0.15577450E-01 0.91671129E+02</pdfrwt>
<totfact> 0.78445214E+04</totfact>
</mgrwt>
</event>
<event>
 5    1  0.6308903E+000  0.9163490E+02  0.7546771E-02  0.1298940E+00
          2   -1    0    0  501    0  0.00000000000E+00  0.00000000000E+00  0.44234237932E+02  0.44234237932E+02  0.00000000000E+00 0. -1.
         -2   -1    0    0    0  501 -0.00000000000E+00 -0.00000000000E+00 -0.47457330278E+02  0.47457330278E+02  0.00000000000E+00 0.  1.
         23    2    1    2    0    0  0.00000000000E+00  0.00000000000E+00 -0.32230923469E+01  0.91691568210E+02  0.91634902502E+02 0.  0.
        -13    1    3    3    0    0  0.11938497303E+02 -0.42519216968E+02 -0.13818570052E+02  0.46274878797E+02  0.00000000000E+00 0.  1.
         13    1    3    3    0    0 -0.11938497303E+02  0.42519216968E+02  0.10595477705E+02  0.45416689413E+02  0.00000000000E+00 0. -1.
<mgrwt>
<rscale>  0 0.91634903E+02</rscale>
<asrwt>0</asrwt>
<pdfrwt beam="1">  1        2 0.68052674E-02 0.91634903E+02</pdfrwt>
<pdfrwt beam="2">  1       -2 0.73011277E-02 0.91634903E+02</pdfrwt>
<totfact> 0.96502982E+04</totfact>
</mgrwt>
</event>
<event>
 5    1  0.6308903E+000  0.9083606E+02  0.7546771E-02  0.1300840E+00
         -1   -1    0    0    0  501 -0.00000000000E+00  0.00000000000E+00  0.21651118129E+02  0.21651118129E+02  0.00000000000E+00 0.  1.
          1   -1    0    0  501    0  0.00000000000E+00 -0.00000000000E+00 -0.95274398078E+02  0.95274398078E+02  0.00000000000E+00 0. -1.
         23    2    1    2    0    0  0.00000000000E+00  0.00000000000E+00 -0.73623279949E+02  0.11692551621E+03  0.90836055560E+02 0.  0.
        -13    1    3    3    0    0 -0.32598820536E+02  0.23311547733E+02 -0.93035887017E+01  0.41142048087E+02  0.00000000000E+00 0.  1.
         13    1    3    3    0    0  0.32598820536E+02 -0.23311547733E+02 -0.64319691247E+02  0.75783468119E+02  0.00000000000E+00 0. -1.
<mgrwt>
<rscale>  0 0.90836056E+02</rscale>
<asrwt>0</asrwt>
<pdfrwt beam="2">  1        1 0.14657600E-01 0.90836056E+02</pdfrwt>
<pdfrwt beam="1">  1       -1 0.33309413E-02 0.90836056E+02</pdfrwt>
<totfact> 0.10468353E+05</totfact>
</mgrwt>
</event>
<event>
 5    1  0.6308903E+000  0.9104601E+02  0.7546771E-02  0.1300338E+00
         -3   -1    0    0    0  501 -0.00000000000E+00  0.00000000000E+00  0.12806953459E+02  0.12806953459E+02  0.00000000000E+00 0.  1.
          3   -1    0    0  501    0  0.00000000000E+00 -0.00000000000E+00 -0.16181398554E+03  0.16181398554E+03  0.00000000000E+00 0. -1.
         23    2    1    2    0    0  0.00000000000E+00  0.00000000000E+00 -0.14900703208E+03  0.17462093900E+03  0.91046014340E+02 0.  0.
        -13    1    3    3    0    0 -0.41406146397E+02  0.10742581045E+02 -0.10436877841E+03  0.11279500838E+03  0.00000000000E+00 0. -1.
         13    1    3    3    0    0  0.41406146397E+02 -0.10742581045E+02 -0.44638253670E+02  0.61825930625E+02  0.00000000000E+00 0.  1.
<mgrwt>
<rscale>  0 0.91046014E+02</rscale>
<asrwt>0</asrwt>
<pdfrwt beam="2">  1        3 0.24894461E-01 0.91046014E+02</pdfrwt>
<pdfrwt beam="1">  1       -3 0.19703004E-02 0.91046014E+02</pdfrwt>
<totfact> 0.29981530E+04</totfact>
</mgrwt>
</event>
<event>
 5    1  0.6308903E+000  0.9122100E+02  0.7546771E-02  0.1299922E+00
         -1   -1    0    0    0  501 -0.00000000000E+00  0.00000000000E+00  0.10516846309E+03  0.10516846309E+03  0.00000000000E+00 0.  1.
          1   -1    0    0  501    0  0.00000000000E+00 -0.00000000000E+00 -0.19780813016E+02  0.19780813016E+02  0.00000000000E+00 0. -1.
         23    2    1    2    0    0  0.00000000000E+00  0.00000000000E+00  0.85387650075E+02  0.12494927611E+03  0.91220999853E+02 0.  0.
        -13    1    3    3    0    0 -0.31608723453E+01  0.25256046339E+02 -0.91479631026E+01  0.27047074141E+02  0.00000000000E+00 0. -1.
         13    1    3    3    0    0  0.31608723453E+01 -0.25256046339E+02  0.94535613178E+02  0.97902201965E+02  0.00000000000E+00 0.  1.
<mgrwt>
<rscale>  0 0.91221000E+02</rscale>
<asrwt>0</asrwt>
<pdfrwt beam="2">  1        1 0.30432021E-02 0.91221000E+02</pdfrwt>
<pdfrwt beam="1">  1       -1 0.16179763E-01 0.91221000E+02</pdfrwt>
<totfact> 0.80501637E+04</totfact>
</mgrwt>
</event>
<event>
 5    1  0.6308903E+000  0.9080645E+02  0.7546771E-02  0.1300910E+00
          1   -1    0    0  501    0  0.00000000000E+00  0.00000000000E+00  0.12256121427E+03  0.12256121427E+03  0.00000000000E+00 0. -1.
         -1   -1    0    0    0  501 -0.00000000000E+00 -0.00000000000E+00 -0.16819782338E+02  0.16819782338E+02  0.00000000000E+00 0.  1.
         23    2    1    2    0    0  0.00000000000E+00  0.00000000000E+00  0.10574143193E+03  0.13938099661E+03  0.90806452350E+02 0.  0.
        -13    1    3    3    0    0  0.41056378689E+02 -0.14831604548E+02  0.33708727694E+02  0.55153250559E+02  0.00000000000E+00 0. -1.
         13    1    3    3    0    0 -0.41056378689E+02  0.14831604548E+02  0.72032704236E+02  0.84227746046E+02  0.00000000000E+00 0.  1.
<mgrwt>
<rscale>  0 0.90806452E+02</rscale>
<asrwt>0</asrwt>
<pdfrwt beam="1">  1        1 0.18855571E-01 0.90806452E+02</pdfrwt>
<pdfrwt beam="2">  1       -1 0.25876589E-02 0.90806452E+02</pdfrwt>
<totfact> 0.10933550E+05</totfact>
</mgrwt>
</event>
<event>
 5    1  0.6308903E+000  0.9235748E+02  0.7546771E-02  0.1297241E+00
         -2   -1    0    0    0  501 -0.00000000000E+00  0.00000000000E+00  0.17465819913E+02  0.17465819913E+02  0.00000000000E+00 0.  1.
          2   -1    0    0  501    0  0.00000000000E+00 -0.00000000000E+00 -0.12209425284E+03  0.12209425284E+03  0.00000000000E+00 0. -1.
         23    2    1    2    0    0  0.00000000000E+00  0.00000000000E+00 -0.10462843292E+03  0.13956007275E+03  0.92357484427E+02 0.  0.
        -13    1    3    3    0    0 -0.23166610802E+01  0.24744765343E+02  0.64980052884E+01  0.25688409899E+02  0.00000000000E+00 0.  1.
         13    1    3    3    0    0  0.23166610802E+01 -0.24744765343E+02 -0.11112643821E+03  0.11387166285E+03  0.00000000000E+00 0. -1.
<mgrwt>
<rscale>  0 0.92357484E+02</rscale>
<asrwt>0</asrwt>
<pdfrwt beam="2">  1        2 0.18783731E-01 0.92357484E+02</pdfrwt>
<pdfrwt beam="1">  1       -2 0.26870492E-02 0.92357484E+02</pdfrwt>
<totfact> 0.12606894E+05</totfact>
</mgrwt>
</event>
<event>
 5    1  0.6308903E+000  0.8963585E+02  0.7546771E-02  0.1303736E+00
         -2   -1    0    0    0  501 -0.00000000000E+00  0.00000000000E+00  0.23463905670E+02  0.23463905670E+02  0.00000000000E+00 0. -1.
          2   -1    0    0  501    0  0.00000000000E+00 -0.00000000000E+00 -0.85605799219E+02  0.85605799219E+02  0.00000000000E+00 0.  1.
         23    2    1    2    0    0  0.00000000000E+00  0.00000000000E+00 -0.62141893549E+02  0.10906970489E+03  0.89635849919E+02 0.  0.
        -13    1    3    3    0    0 -0.20232545769E+02  0.52421041991E+01 -0.79312639275E+02  0.82020304276E+02  0.00000000000E+00 0.  1.
         13    1    3    3    0    0  0.20232545769E+02 -0.52421041991E+01  0.17170745726E+02  0.27049400613E+02  0.00000000000E+00 0. -1.
<mgrwt>
<rscale>  0 0.89635850E+02</rscale>
<asrwt>0</asrwt>
<pdfrwt beam="2">  1        2 0.13170123E-01 0.89635850E+02</pdfrwt>
<pdfrwt beam="1">  1       -2 0.36098316E-02 0.89635850E+02</pdfrwt>
<totfact> 0.12277625E+05</totfact>
</mgrwt>
</event>
<event>
 5    1  0.6308903E+000  0.9389128E+02  0.7546771E-02  0.1293693E+00
         -1   -1    0    0    0  501 -0.00000000000E+00  0.00000000000E+00  0.10805356018E+03  0.10805356018E+03  0.00000000000E+00 0.  1.
          1   -1    0    0  501    0  0.00000000000E+00 -0.00000000000E+00 -0.20396300524E+02  0.20396300524E+02  0.00000000000E+00 0. -1.
         23    2    1    2    0    0  0.00000000000E+00  0.00000000000E+00  0.87657259661E+02  0.12844986071E+03  0.93891275126E+02 0.  0.
        -13    1    3    3    0    0 -0.13561301377E+02  0.21116841431E+02  0.98106082284E+02  0.10126516315E+03  0.00000000000E+00 0.  1.
         13    1    3    3    0    0  0.13561301377E+02 -0.21116841431E+02 -0.10448822623E+02  0.27184697557E+02  0.00000000000E+00 0. -1.
<mgrwt>
<rscale>  0 0.93891275E+02</rscale>
<asrwt>0</asrwt>
<pdfrwt beam="2">  1        1 0.31378925E-02 0.93891275E+02</pdfrwt>
<pdfrwt beam="1">  1       -1 0.16623624E-01 0.93891275E+02</pdfrwt>
<totfact> 0.74332179E+04</totfact>
</mgrwt>
</event>
<event>
 5    1  0.6308903E+000  0.8981502E+02  0.7546771E-02  0.1303300E+00
         -2   -1    0    0    0  501 -0.00000000000E+00  0.00000000000E+00  0.73663221277E+01  0.73663221277E+01  0.00000000000E+00 0.  1.
          2   -1    0    0  501    0  0.00000000000E+00 -0.00000000000E+00 -0.27377090276E+03  0.27377090276E+03  0.00000000000E+00 0. -1.
         23    2    1    2    0    0  0.00000000000E+00  0.00000000000E+00 -0.26640458063E+03  0.28113722489E+03  0.89815024554E+02 0.  0.
        -13    1    3    3    0    0  0.10542203554E+02 -0.41818153756E+02 -0.94007654914E+02  0.10342792283E+03  0.00000000000E+00 0.  1.
         13    1    3    3    0    0 -0.10542203554E+02  0.41818153756E+02 -0.17239692572E+03  0.17770930206E+03  0.00000000000E+00 0. -1.
<mgrwt>
<rscale>  0 0.89815025E+02</rscale>
<asrwt>0</asrwt>
<pdfrwt beam="2">  1        2 0.42118602E-01 0.89815025E+02</pdfrwt>
<pdfrwt beam="1">  1       -2 0.11332803E-02 0.89815025E+02</pdfrwt>
<totfact> 0.18074956E+05</totfact>
</mgrwt>
</event>
<event>
 5    1  0.6308903E+000  0.9200408E+02  0.7546771E-02  0.1298070E+00
          2   -1    0    0  501    0  0.00000000000E+00  0.00000000000E+00  0.80631974664E+02  0.80631974664E+02  0.00000000000E+00 0.  1.
         -2   -1    0    0    0  501 -0.00000000000E+00 -0.00000000000E+00 -0.26245018216E+02  0.26245018216E+02  0.00000000000E+00 0. -1.
         23    2    1    2    0    0  0.00000000000E+00  0.00000000000E+00  0.54386956448E+02  0.10687699288E+03  0.92004079124E+02 0.  0.
        -13    1    3    3    0    0  0.26911440609E+02  0.52986453027E+01 -0.15707405372E+02  0.31607338724E+02  0.00000000000E+00 0. -1.
         13    1    3    3    0    0 -0.26911440609E+02 -0.52986453027E+01  0.70094361820E+02  0.75269654155E+02  0.00000000000E+00 0.  1.
<mgrwt>
<rscale>  0 0.92004079E+02</rscale>
<asrwt>0</asrwt>
<pdfrwt beam="1">  1        2 0.12404919E-01 0.92004079E+02</pdfrwt>
<pdfrwt beam="2">  1       -2 0.40376951E-02 0.92004079E+02</pdfrwt>
<totfact> 0.11225744E+05</totfact>
</mgrwt>
</event>
<event>
 5    1  0.6308903E+000  0.9044204E+02  0.7546771E-02  0.1301785E+00
          2   -1    0    0  501    0  0.00000000000E+00  0.00000000000E+00  0.39577104436E+03  0.39577104436E+03  0.00000000000E+00 0. -1.
         -2   -1    0    0    0  501 -0.00000000000E+00 -0.00000000000E+00 -0.51669786193E+01  0.51669786193E+01  0.00000000000E+00 0.  1.
         23    2    1    2    0    0  0.00000000000E+00  0.00000000000E+00  0.39060406574E+03  0.40093802298E+03  0.90442037225E+02 0.  0.
        -13    1    3    3    0    0 -0.30318019901E+02 -0.30743102521E+02  0.25488054263E+03  0.25851191790E+03  0.00000000000E+00 0. -1.
         13    1    3    3    0    0  0.30318019901E+02  0.30743102521E+02  0.13572352311E+03  0.14242610509E+03  0.00000000000E+00 0.  1.
<mgrwt>
<rscale>  0 0.90442037E+02</rscale>
<asrwt>0</asrwt>
<pdfrwt beam="1">  1        2 0.60887829E-01 0.90442037E+02</pdfrwt>
<pdfrwt beam="2">  1       -2 0.79492010E-03 0.90442037E+02</pdfrwt>
<totfact> 0.20318236E+05</totfact>
</mgrwt>
</event>
<event>
 5    1  0.6308903E+000  0.8993463E+02  0.7546771E-02  0.1303010E+00
          2   -1    0    0  501    0  0.00000000000E+00  0.00000000000E+00  0.12297421454E+03  0.12297421454E+03  0.00000000000E+00 0. -1.
         -2   -1    0    0    0  501 -0.00000000000E+00 -0.00000000000E+00 -0.16442954494E+02  0.16442954494E+02  0.00000000000E+00 0.  1.
         23    2    1    2    0    0  0.00000000000E+00  0.00000000000E+00  0.10653126005E+03  0.13941716903E+03  0.89934629896E+02 0.  0.
        -13    1    3    3    0    0  0.34074688893E+02 -0.11313674393E+02  0.11296099134E+02  0.37638882915E+02  0.00000000000E+00 0.  1.
         13    1    3    3    0    0 -0.34074688893E+02  0.11313674393E+02  0.95235160913E+02  0.10177828612E+03  0.00000000000E+00 0. -1.
<mgrwt>
<rscale>  0 0.89934630E+02</rscale>
<asrwt>0</asrwt>
<pdfrwt beam="1">  1        2 0.18919109E-01 0.89934630E+02</pdfrwt>
<pdfrwt beam="2">  1       -2 0.25296854E-02 0.89934630E+02</pdfrwt>
<totfact> 0.13588028E+05</totfact>
</mgrwt>
</event>
<event>
 5    1  0.6308903E+000  0.9180758E+02  0.7546771E-02  0.1298532E+00
          1   -1    0    0  501    0  0.00000000000E+00  0.00000000000E+00  0.32821654782E+02  0.32821654782E+02  0.00000000000E+00 0. -1.
         -1   -1    0    0    0  501 -0.00000000000E+00 -0.00000000000E+00 -0.64200237986E+02  0.64200237986E+02  0.00000000000E+00 0.  1.
         23    2    1    2    0    0  0.00000000000E+00  0.00000000000E+00 -0.31378583205E+02  0.97021892768E+02  0.91807582434E+02 0.  0.
        -13    1    3    3    0    0 -0.17793436071E+02 -0.39441576062E+02  0.50811254010E+00  0.43272421561E+02  0.00000000000E+00 0. -1.
         13    1    3    3    0    0  0.17793436071E+02  0.39441576062E+02 -0.31886695745E+02  0.53749471206E+02  0.00000000000E+00 0.  1.
<mgrwt>
<rscale>  0 0.91807582E+02</rscale>
<asrwt>0</asrwt>
<pdfrwt beam="1">  1        1 0.50494853E-02 0.91807582E+02</pdfrwt>
<pdfrwt beam="2">  1       -1 0.98769597E-02 0.91807582E+02</pdfrwt>
<totfact> 0.86218338E+04</totfact>
</mgrwt>
</event>
<event>
 5    1  0.6308903E+000  0.8590286E+02  0.7546771E-02  0.1313088E+00
          3   -1    0    0  501    0  0.00000000000E+00  0.00000000000E+00  0.30388189488E+02  0.30388189488E+02  0.00000000000E+00 0. -1.
         -3   -1    0    0    0  501 -0.00000000000E+00 -0.00000000000E+00 -0.60708635466E+02  0.60708635466E+02  0.00000000000E+00 0.  1.
         23    2    1    2    0    0  0.00000000000E+00  0.00000000000E+00 -0.30320445978E+02  0.91096824954E+02  0.85902864169E+02 0.  0.
        -13    1    3    3    0    0  0.40612565409E+02  0.13944642665E+02 -0.16216430467E+02  0.45899958009E+02  0.00000000000E+00 0. -1.
         13    1    3    3    0    0 -0.40612565409E+02 -0.13944642665E+02 -0.14104015512E+02  0.45196866945E+02  0.00000000000E+00 0.  1.
<mgrwt>
<rscale>  0 0.85902864E+02</rscale>
<asrwt>0</asrwt>
<pdfrwt beam="1">  1        3 0.46751061E-02 0.85902864E+02</pdfrwt>
<pdfrwt beam="2">  1       -3 0.93397901E-02 0.85902864E+02</pdfrwt>
<totfact> 0.41542334E+04</totfact>
</mgrwt>
</event>
<event>
 5    1  0.6308903E+000  0.7485811E+02  0.7546771E-02  0.1344311E+00
         -4   -1    0    0    0  501 -0.00000000000E+00  0.00000000000E+00  0.20322749907E+02  0.20322749907E+02  0.00000000000E+00 0.  1.
          4   -1    0    0  501    0  0.00000000000E+00 -0.00000000000E+00 -0.68934288596E+02  0.68934288596E+02  0.00000000000E+00 0. -1.
         23    2    1    2    0    0  0.00000000000E+00  0.00000000000E+00 -0.48611538688E+02  0.89257038503E+02  0.74858113980E+02 0.  0.
        -13    1    3    3    0    0  0.87793282545E+01  0.29432028764E+02  0.12008529836E+01  0.30736996757E+02  0.00000000000E+00 0. -1.
         13    1    3    3    0    0 -0.87793282545E+01 -0.29432028764E+02 -0.49812391672E+02  0.58520041745E+02  0.00000000000E+00 0.  1.
<mgrwt>
<rscale>  0 0.74858114E+02</rscale>
<asrwt>0</asrwt>
<pdfrwt beam="2">  1        4 0.10605275E-01 0.74858114E+02</pdfrwt>
<pdfrwt beam="1">  1       -4 0.31265769E-02 0.74858114E+02</pdfrwt>
<totfact> 0.45998828E+04</totfact>
</mgrwt>
</event>
<event>
 5    1  0.6308903E+000  0.9179197E+02  0.7546771E-02  0.1298569E+00
         -2   -1    0    0    0  501 -0.00000000000E+00  0.00000000000E+00  0.32452092140E+02  0.32452092140E+02  0.00000000000E+00 0. -1.
          2   -1    0    0  501    0  0.00000000000E+00 -0.00000000000E+00 -0.64909265495E+02  0.64909265495E+02  0.00000000000E+00 0.  1.
         23    2    1    2    0    0  0.00000000000E+00  0.00000000000E+00 -0.32457173355E+02  0.97361357634E+02  0.91791970554E+02 0.  0.
        -13    1    3    3    0    0  0.34960574514E+02 -0.13291814937E+02 -0.44441864416E+02  0.58086086350E+02  0.00000000000E+00 0.  1.
         13    1    3    3    0    0 -0.34960574514E+02  0.13291814937E+02  0.11984691061E+02  0.39275271284E+02  0.00000000000E+00 0. -1.
<mgrwt>
<rscale>  0 0.91791971E+02</rscale>
<asrwt>0</asrwt>
<pdfrwt beam="2">  1        2 0.99860408E-02 0.91791971E+02</pdfrwt>
<pdfrwt beam="1">  1       -2 0.49926296E-02 0.91791971E+02</pdfrwt>
<totfact> 0.10631856E+05</totfact>
</mgrwt>
</event>
<event>
 5    1  0.6308903E+000  0.9070102E+02  0.7546771E-02  0.1301163E+00
          1   -1    0    0  501    0  0.00000000000E+00  0.00000000000E+00  0.14473363127E+02  0.14473363127E+02  0.00000000000E+00 0.  1.
         -1   -1    0    0    0  501 -0.00000000000E+00 -0.00000000000E+00 -0.14210027566E+03  0.14210027566E+03  0.00000000000E+00 0. -1.
         23    2    1    2    0    0  0.00000000000E+00  0.00000000000E+00 -0.12762691254E+03  0.15657363879E+03  0.90701022930E+02 0.  0.
        -13    1    3    3    0    0 -0.28008063578E+02  0.26864164568E+02 -0.23309401325E+02  0.45270996825E+02  0.00000000000E+00 0. -1.
         13    1    3    3    0    0  0.28008063578E+02 -0.26864164568E+02 -0.10431751121E+03  0.11130264197E+03  0.00000000000E+00 0.  1.
<mgrwt>
<rscale>  0 0.90701023E+02</rscale>
<asrwt>0</asrwt>
<pdfrwt beam="1">  1        1 0.22266712E-02 0.90701023E+02</pdfrwt>
<pdfrwt beam="2">  1       -1 0.21861581E-01 0.90701023E+02</pdfrwt>
<totfact> 0.76759619E+04</totfact>
</mgrwt>
</event>
<event>
 5    1  0.6308903E+000  0.9084667E+02  0.7546771E-02  0.1300814E+00
          1   -1    0    0  501    0  0.00000000000E+00  0.00000000000E+00  0.72350331016E+02  0.72350331016E+02  0.00000000000E+00 0. -1.
         -1   -1    0    0    0  501 -0.00000000000E+00 -0.00000000000E+00 -0.28517899843E+02  0.28517899843E+02  0.00000000000E+00 0.  1.
         23    2    1    2    0    0  0.00000000000E+00  0.00000000000E+00  0.43832431173E+02  0.10086823086E+03  0.90846672885E+02 0.  0.
        -13    1    3    3    0    0 -0.74821162251E+01 -0.44796614132E+02  0.21084745647E+02  0.50072799002E+02  0.00000000000E+00 0.  1.
         13    1    3    3    0    0  0.74821162251E+01  0.44796614132E+02  0.22747685526E+02  0.50795431858E+02  0.00000000000E+00 0. -1.
<mgrwt>
<rscale>  0 0.90846673E+02</rscale>
<asrwt>0</asrwt>
<pdfrwt beam="1">  1        1 0.11130820E-01 0.90846673E+02</pdfrwt>
<pdfrwt beam="2">  1       -1 0.43873692E-02 0.90846673E+02</pdfrwt>
<totfact> 0.10016815E+05</totfact>
</mgrwt>
</event>
<event>
 5    1  0.6308903E+000  0.8276737E+02  0.7546771E-02  0.1321377E+00
          1   -1    0    0  501    0  0.00000000000E+00  0.00000000000E+00  0.61912749113E+02  0.61912749113E+02  0.00000000000E+00 0. -1.
         -1   -1    0    0    0  501 -0.00000000000E+00 -0.00000000000E+00 -0.27661661136E+02  0.27661661136E+02  0.00000000000E+00 0.  1.
         23    2    1    2    0    0  0.00000000000E+00  0.00000000000E+00  0.34251087977E+02  0.89574410248E+02  0.82767372459E+02 0.  0.
        -13    1    3    3    0    0 -0.77646343897E+01 -0.36960753338E+02  0.35435056839E+02  0.51788319993E+02  0.00000000000E+00 0. -1.
         13    1    3    3    0    0  0.77646343897E+01  0.36960753338E+02 -0.11839688615E+01  0.37786090255E+02  0.00000000000E+00 0.  1.
<mgrwt>
<rscale>  0 0.82767372E+02</rscale>
<asrwt>0</asrwt>
<pdfrwt beam="1">  1        1 0.95250383E-02 0.82767372E+02</pdfrwt>
<pdfrwt beam="2">  1       -1 0.42556402E-02 0.82767372E+02</pdfrwt>
<totfact> 0.12633937E+05</totfact>
</mgrwt>
</event>
<event>
 5    1  0.6308903E+000  0.9217591E+02  0.7546771E-02  0.1297666E+00
         -4   -1    0    0    0  501 -0.00000000000E+00  0.00000000000E+00  0.10033150845E+02  0.10033150845E+02  0.00000000000E+00 0.  1.
          4   -1    0    0  501    0  0.00000000000E+00 -0.00000000000E+00 -0.21170813479E+03  0.21170813479E+03  0.00000000000E+00 0. -1.
         23    2    1    2    0    0  0.00000000000E+00  0.00000000000E+00 -0.20167498394E+03  0.22174128563E+03  0.92175911203E+02 0.  0.
        -13    1    3    3    0    0  0.26163778322E+02 -0.34691369210E+02 -0.63876368841E+02  0.77254287195E+02  0.00000000000E+00 0.  1.
         13    1    3    3    0    0 -0.26163778322E+02  0.34691369210E+02 -0.13779861510E+03  0.14448699844E+03  0.00000000000E+00 0. -1.
<mgrwt>
<rscale>  0 0.92175911E+02</rscale>
<asrwt>0</asrwt>
<pdfrwt beam="2">  1        4 0.32570482E-01 0.92175911E+02</pdfrwt>
<pdfrwt beam="1">  1       -4 0.15435617E-02 0.92175911E+02</pdfrwt>
<totfact> 0.19920919E+04</totfact>
</mgrwt>
</event>
<event>
 5    1  0.6308903E+000  0.8880986E+02  0.7546771E-02  0.1305760E+00
          2   -1    0    0  501    0  0.00000000000E+00  0.00000000000E+00  0.31454179999E+03  0.31454179999E+03  0.00000000000E+00 0. -1.
         -2   -1    0    0    0  501 -0.00000000000E+00 -0.00000000000E+00 -0.62687945566E+01  0.62687945566E+01  0.00000000000E+00 0.  1.
         23    2    1    2    0    0  0.00000000000E+00  0.00000000000E+00  0.30827300543E+03  0.32081059455E+03  0.88809862596E+02 0.  0.
        -13    1    3    3    0    0 -0.43956335578E+02 -0.57394458092E+01  0.16348486840E+03  0.16938831976E+03  0.00000000000E+00 0.  1.
         13    1    3    3    0    0  0.43956335578E+02  0.57394458092E+01  0.14478813703E+03  0.15142227479E+03  0.00000000000E+00 0. -1.
<mgrwt>
<rscale>  0 0.88809863E+02</rscale>
<asrwt>0</asrwt>
<pdfrwt beam="1">  1        2 0.48391034E-01 0.88809863E+02</pdfrwt>
<pdfrwt beam="2">  1       -2 0.96443018E-03 0.88809863E+02</pdfrwt>
<totfact> 0.19610418E+05</totfact>
</mgrwt>
</event>
<event>
 5    1  0.6308903E+000  0.9519848E+02  0.7546771E-02  0.1290730E+00
         -2   -1    0    0    0  501 -0.00000000000E+00  0.00000000000E+00  0.14495071155E+03  0.14495071155E+03  0.00000000000E+00 0.  1.
          2   -1    0    0  501    0  0.00000000000E+00 -0.00000000000E+00 -0.15630745411E+02  0.15630745411E+02  0.00000000000E+00 0. -1.
         23    2    1    2    0    0  0.00000000000E+00  0.00000000000E+00  0.12931996614E+03  0.16058145697E+03  0.95198480439E+02 0.  0.
        -13    1    3    3    0    0 -0.32384529381E+02 -0.88840028048E+00  0.58356131398E+01  0.32918101084E+02  0.00000000000E+00 0. -1.
         13    1    3    3    0    0  0.32384529381E+02  0.88840028048E+00  0.12348435300E+03  0.12766335588E+03  0.00000000000E+00 0.  1.
<mgrwt>
<rscale>  0 0.95198480E+02</rscale>
<asrwt>0</asrwt>
<pdfrwt beam="2">  1        2 0.24047302E-02 0.95198480E+02</pdfrwt>
<pdfrwt beam="1">  1       -2 0.22300109E-01 0.95198480E+02</pdfrwt>
<totfact> 0.63405301E+04</totfact>
</mgrwt>
</event>
<event>
 5    1  0.6308903E+000  0.9107989E+02  0.7546771E-02  0.1300257E+00
         -3   -1    0    0    0  501 -0.00000000000E+00  0.00000000000E+00  0.14525554182E+03  0.14525554182E+03  0.00000000000E+00 0.  1.
          3   -1    0    0  501    0  0.00000000000E+00 -0.00000000000E+00 -0.14277505538E+02  0.14277505538E+02  0.00000000000E+00 0. -1.
         23    2    1    2    0    0  0.00000000000E+00  0.00000000000E+00  0.13097803628E+03  0.15953304736E+03  0.91079894660E+02 0.  0.
        -13    1    3    3    0    0  0.40400565296E+02  0.37552393226E+01  0.10170802015E+03  0.10950264317E+03  0.00000000000E+00 0.  1.
         13    1    3    3    0    0 -0.40400565296E+02 -0.37552393226E+01  0.29270016127E+02  0.50030404183E+02  0.00000000000E+00 0. -1.
<mgrwt>
<rscale>  0 0.91079895E+02</rscale>
<asrwt>0</asrwt>
<pdfrwt beam="2">  1        3 0.21965394E-02 0.91079895E+02</pdfrwt>
<pdfrwt beam="1">  1       -3 0.22347005E-01 0.91079895E+02</pdfrwt>
<totfact> 0.30823322E+04</totfact>
</mgrwt>
</event>
<event>
 5    1  0.6308903E+000  0.9257077E+02  0.7546771E-02  0.1296743E+00
         -2   -1    0    0    0  501 -0.00000000000E+00  0.00000000000E+00  0.19491365551E+02  0.19491365551E+02  0.00000000000E+00 0. -1.
          2   -1    0    0  501    0  0.00000000000E+00 -0.00000000000E+00 -0.10991209087E+03  0.10991209087E+03  0.00000000000E+00 0.  1.
         23    2    1    2    0    0  0.00000000000E+00  0.00000000000E+00 -0.90420725319E+02  0.12940345642E+03  0.92570767343E+02 0.  0.
        -13    1    3    3    0    0  0.26655690449E+02 -0.33974932309E+02 -0.68497448948E+02  0.80973590578E+02  0.00000000000E+00 0.  1.
         13    1    3    3    0    0 -0.26655690449E+02  0.33974932309E+02 -0.21923276371E+02  0.48429865843E+02  0.00000000000E+00 0. -1.
<mgrwt>
<rscale>  0 0.92570767E+02</rscale>
<asrwt>0</asrwt>
<pdfrwt beam="2">  1        2 0.16909552E-01 0.92570767E+02</pdfrwt>
<pdfrwt beam="1">  1       -2 0.29986717E-02 0.92570767E+02</pdfrwt>
<totfact> 0.12114776E+05</totfact>
</mgrwt>
</event>
<event>
 5    1  0.6308903E+000  0.9177788E+02  0.7546771E-02  0.1298603E+00
         -1   -1    0    0    0  501 -0.00000000000E+00  0.00000000000E+00  0.68333155533E+02  0.68333155533E+02  0.00000000000E+00 0.  1.
          1   -1    0    0  501    0  0.00000000000E+00 -0.00000000000E+00 -0.30816589972E+02  0.30816589972E+02  0.00000000000E+00 0. -1.
         23    2    1    2    0    0  0.00000000000E+00  0.00000000000E+00  0.37516565561E+02  0.99149745505E+02  0.91777880462E+02 0.  0.
        -13    1    3    3    0    0  0.23836021105E+02  0.24084654269E+02  0.52188444256E+02  0.62224273296E+02  0.00000000000E+00 0. -1.
         13    1    3    3    0    0 -0.23836021105E+02 -0.24084654269E+02 -0.14671878696E+02  0.36925472208E+02  0.00000000000E+00 0.  1.
<mgrwt>
<rscale>  0 0.91777880E+02</rscale>
<asrwt>0</asrwt>
<pdfrwt beam="2">  1        1 0.47410138E-02 0.91777880E+02</pdfrwt>
<pdfrwt beam="1">  1       -1 0.10512793E-01 0.91777880E+02</pdfrwt>
<totfact> 0.85432633E+04</totfact>
</mgrwt>
</event>
<event>
 5    1  0.6308903E+000  0.9063482E+02  0.7546771E-02  0.1301322E+00
         -1   -1    0    0    0  501 -0.00000000000E+00  0.00000000000E+00  0.67174519132E+01  0.67174519132E+01  0.00000000000E+00 0.  1.
          1   -1    0    0  501    0  0.00000000000E+00 -0.00000000000E+00 -0.30572124053E+03  0.30572124053E+03  0.00000000000E+00 0. -1.
         23    2    1    2    0    0  0.00000000000E+00  0.00000000000E+00 -0.29900378862E+03  0.31243869244E+03  0.90634821831E+02 0.  0.
        -13    1    3    3    0    0 -0.26428397587E+02 -0.29877441813E+02 -0.22364097436E+03  0.22717043633E+03  0.00000000000E+00 0. -1.
         13    1    3    3    0    0  0.26428397587E+02  0.29877441813E+02 -0.75362814252E+02  0.85268256112E+02  0.00000000000E+00 0.  1.
<mgrwt>
<rscale>  0 0.90634822E+02</rscale>
<asrwt>0</asrwt>
<pdfrwt beam="2">  1        1 0.47034030E-01 0.90634822E+02</pdfrwt>
<pdfrwt beam="1">  1       -1 0.10334543E-02 0.90634822E+02</pdfrwt>
<totfact> 0.13064016E+05</totfact>
</mgrwt>
</event>
<event>
 5    1  0.6308903E+000  0.9057880E+02  0.7546771E-02  0.1301456E+00
         -4   -1    0    0    0  501 -0.00000000000E+00  0.00000000000E+00  0.13303359945E+03  0.13303359945E+03  0.00000000000E+00 0.  1.
          4   -1    0    0  501    0  0.00000000000E+00 -0.00000000000E+00 -0.15418134542E+02  0.15418134542E+02  0.00000000000E+00 0. -1.
         23    2    1    2    0    0  0.00000000000E+00  0.00000000000E+00  0.11761546491E+03  0.14845173399E+03  0.90578804031E+02 0.  0.
        -13    1    3    3    0    0 -0.17723186113E+01  0.44537439985E+02  0.71960567265E+02  0.84646606044E+02  0.00000000000E+00 0.  1.
         13    1    3    3    0    0  0.17723186113E+01 -0.44537439985E+02  0.45654897646E+02  0.63805127950E+02  0.00000000000E+00 0. -1.
<mgrwt>
<rscale>  0 0.90578804E+02</rscale>
<asrwt>0</asrwt>
<pdfrwt beam="2">  1        4 0.23720208E-02 0.90578804E+02</pdfrwt>
<pdfrwt beam="1">  1       -4 0.20466707E-01 0.90578804E+02</pdfrwt>
<totfact> 0.24174801E+04</totfact>
</mgrwt>
</event>
<event>
 5    1  0.6308903E+000  0.9083538E+02  0.7546771E-02  0.1300841E+00
          1   -1    0    0  501    0  0.00000000000E+00  0.00000000000E+00  0.78891611005E+01  0.78891611005E+01  0.00000000000E+00 0. -1.
         -1   -1    0    0    0  501 -0.00000000000E+00 -0.00000000000E+00 -0.26146842244E+03  0.26146842244E+03  0.00000000000E+00 0.  1.
         23    2    1    2    0    0  0.00000000000E+00  0.00000000000E+00 -0.25357926134E+03  0.26935758354E+03  0.90835378732E+02 0.  0.
        -13    1    3    3    0    0  0.10937385756E+02  0.43635268222E+02 -0.10824655330E+03  0.11722192346E+03  0.00000000000E+00 0. -1.
         13    1    3    3    0    0 -0.10937385756E+02 -0.43635268222E+02 -0.14533270805E+03  0.15213566008E+03  0.00000000000E+00 0.  1.
<mgrwt>
<rscale>  0 0.90835379E+02</rscale>
<asrwt>0</asrwt>
<pdfrwt beam="1">  1        1 0.12137170E-02 0.90835379E+02</pdfrwt>
<pdfrwt beam="2">  1       -1 0.40225914E-01 0.90835379E+02</pdfrwt>
<totfact> 0.64397316E+04</totfact>
</mgrwt>
</event>
<event>
 5    1  0.6308903E+000  0.8903669E+02  0.7546771E-02  0.1305201E+00
         -2   -1    0    0    0  501 -0.00000000000E+00  0.00000000000E+00  0.16671669867E+02  0.16671669867E+02  0.00000000000E+00 0.  1.
          2   -1    0    0  501    0  0.00000000000E+00 -0.00000000000E+00 -0.11887728594E+03  0.11887728594E+03  0.00000000000E+00 0. -1.
         23    2    1    2    0    0  0.00000000000E+00  0.00000000000E+00 -0.10220561607E+03  0.13554895581E+03  0.89036686055E+02 0.  0.
        -13    1    3    3    0    0 -0.21159759391E+01  0.39910283449E+02 -0.80957843618E+02  0.90285549910E+02  0.00000000000E+00 0. -1.
         13    1    3    3    0    0  0.21159759391E+01 -0.39910283449E+02 -0.21247772454E+02  0.45263405897E+02  0.00000000000E+00 0.  1.
<mgrwt>
<rscale>  0 0.89036686E+02</rscale>
<asrwt>0</asrwt>
<pdfrwt beam="2">  1        2 0.18288813E-01 0.89036686E+02</pdfrwt>
<pdfrwt beam="1">  1       -2 0.25648723E-02 0.89036686E+02</pdfrwt>
<totfact> 0.13814257E+05</totfact>
</mgrwt>
</event>
<event>
 5    1  0.6308903E+000  0.8907460E+02  0.7546771E-02  0.1305108E+00
          2   -1    0    0  501    0  0.00000000000E+00  0.00000000000E+00  0.13325323234E+02  0.13325323234E+02  0.00000000000E+00 0. -1.
         -2   -1    0    0    0  501 -0.00000000000E+00 -0.00000000000E+00 -0.14885726866E+03  0.14885726866E+03  0.00000000000E+00 0.  1.
         23    2    1    2    0    0  0.00000000000E+00  0.00000000000E+00 -0.13553194543E+03  0.16218259190E+03  0.89074602906E+02 0.  0.
        -13    1    3    3    0    0 -0.10310435690E+02  0.27738787877E+02 -0.71640956352E+01  0.30447819352E+02  0.00000000000E+00 0. -1.
         13    1    3    3    0    0  0.10310435690E+02 -0.27738787877E+02 -0.12836784980E+03  0.13173477255E+03  0.00000000000E+00 0.  1.
<mgrwt>
<rscale>  0 0.89074603E+02</rscale>
<asrwt>0</asrwt>
<pdfrwt beam="1">  1        2 0.20500498E-02 0.89074603E+02</pdfrwt>
<pdfrwt beam="2">  1       -2 0.22901118E-01 0.89074603E+02</pdfrwt>
<totfact> 0.74307009E+04</totfact>
</mgrwt>
</event>
<event>
 5    1  0.6308903E+000  0.8947809E+02  0.7546771E-02  0.1304121E+00
         -2   -1    0    0    0  501 -0.00000000000E+00  0.00000000000E+00  0.12844640297E+03  0.12844640297E+03  0.00000000000E+00 0.  1.
          2   -1    0    0  501    0  0.00000000000E+00 -0.00000000000E+00 -0.15583014982E+02  0.15583014982E+02  0.00000000000E+00 0. -1.
         23    2    1    2    0    0  0.00000000000E+00  0.00000000000E+00  0.11286338798E+03  0.14402941795E+03  0.89478091660E+02 0.  0.
        -13    1    3    3    0    0 -0.10195094496E+02 -0.38410529031E+02  0.23354289689E+02  0.46094810327E+02  0.00000000000E+00 0. -1.
         13    1    3    3    0    0  0.10195094496E+02  0.38410529031E+02  0.89509098295E+02  0.97934607621E+02  0.00000000000E+00 0.  1.
<mgrwt>
<rscale>  0 0.89478092E+02</rscale>
<asrwt>0</asrwt>
<pdfrwt beam="2">  1        2 0.23973870E-02 0.89478092E+02</pdfrwt>
<pdfrwt beam="1">  1       -2 0.19760984E-01 0.89478092E+02</pdfrwt>
<totfact> 0.77316921E+04</totfact>
</mgrwt>
</event>
<event>
 5    1  0.6308903E+000  0.9230421E+02  0.7546771E-02  0.1297366E+00
          1   -1    0    0  501    0  0.00000000000E+00  0.00000000000E+00  0.32008404444E+03  0.32008404444E+03  0.00000000000E+00 0. -1.
         -1   -1    0    0    0  501 -0.00000000000E+00 -0.00000000000E+00 -0.66545546351E+01  0.66545546351E+01  0.00000000000E+00 0.  1.
         23    2    1    2    0    0  0.00000000000E+00  0.00000000000E+00  0.31342948980E+03  0.32673859907E+03  0.92304209255E+02 0.  0.
        -13    1    3    3    0    0 -0.41952880140E+02  0.16273678761E+02  0.19301109040E+03  0.19818717867E+03  0.00000000000E+00 0.  1.
         13    1    3    3    0    0  0.41952880140E+02 -0.16273678761E+02  0.12041839940E+03  0.12855142040E+03  0.00000000000E+00 0. -1.
<mgrwt>
<rscale>  0 0.92304209E+02</rscale>
<asrwt>0</asrwt>
<pdfrwt beam="1">  1        1 0.49243687E-01 0.92304209E+02</pdfrwt>
<pdfrwt beam="2">  1       -1 0.10237779E-02 0.92304209E+02</pdfrwt>
<totfact> 0.12551810E+05</totfact>
</mgrwt>
</event>
<event>
 5    1  0.6308903E+000  0.9311855E+02  0.7546771E-02  0.1295471E+00
         -2   -1    0    0    0  501 -0.00000000000E+00  0.00000000000E+00  0.11333666306E+02  0.11333666306E+02  0.00000000000E+00 0. -1.
          2   -1    0    0  501    0  0.00000000000E+00 -0.00000000000E+00 -0.19126786859E+03  0.19126786859E+03  0.00000000000E+00 0.  1.
         23    2    1    2    0    0  0.00000000000E+00  0.00000000000E+00 -0.17993420229E+03  0.20260153490E+03  0.93118552344E+02 0.  0.
        -13    1    3    3    0    0  0.23821366529E+02  0.32460505979E+02 -0.14083583889E+03  0.14647824230E+03  0.00000000000E+00 0.  1.
         13    1    3    3    0    0 -0.23821366529E+02 -0.32460505979E+02 -0.39098363399E+02  0.56123292600E+02  0.00000000000E+00 0. -1.
<mgrwt>
<rscale>  0 0.93118552E+02</rscale>
<asrwt>0</asrwt>
<pdfrwt beam="2">  1        2 0.29425827E-01 0.93118552E+02</pdfrwt>
<pdfrwt beam="1">  1       -2 0.17436409E-02 0.93118552E+02</pdfrwt>
<totfact> 0.14379009E+05</totfact>
</mgrwt>
</event>
<event>
 5    1  0.6308903E+000  0.9294154E+02  0.7546771E-02  0.1295881E+00
          3   -1    0    0  501    0  0.00000000000E+00  0.00000000000E+00  0.40000958514E+02  0.40000958514E+02  0.00000000000E+00 0. -1.
         -3   -1    0    0    0  501 -0.00000000000E+00 -0.00000000000E+00 -0.53987013354E+02  0.53987013354E+02  0.00000000000E+00 0.  1.
         23    2    1    2    0    0  0.00000000000E+00  0.00000000000E+00 -0.13986054840E+02  0.93987971869E+02  0.92941536064E+02 0.  0.
        -13    1    3    3    0    0 -0.31502931075E+02  0.34018523256E+02 -0.10164850927E+02  0.47465975026E+02  0.00000000000E+00 0. -1.
         13    1    3    3    0    0  0.31502931075E+02 -0.34018523256E+02 -0.38212039134E+01  0.46521996842E+02  0.00000000000E+00 0.  1.
<mgrwt>
<rscale>  0 0.92941536E+02</rscale>
<asrwt>0</asrwt>
<pdfrwt beam="1">  1        3 0.61539936E-02 0.92941536E+02</pdfrwt>
<pdfrwt beam="2">  1       -3 0.83056944E-02 0.92941536E+02</pdfrwt>
<totfact> 0.33332821E+04</totfact>
</mgrwt>
</event>
<event>
 5    1  0.6308903E+000  0.9161938E+02  0.7546771E-02  0.1298977E+00
          1   -1    0    0  501    0  0.00000000000E+00  0.00000000000E+00  0.89840244798E+01  0.89840244798E+01  0.00000000000E+00 0. -1.
         -1   -1    0    0    0  501 -0.00000000000E+00 -0.00000000000E+00 -0.23358439441E+03  0.23358439441E+03  0.00000000000E+00 0.  1.
         23    2    1    2    0    0  0.00000000000E+00  0.00000000000E+00 -0.22460036993E+03  0.24256841889E+03  0.91619384794E+02 0.  0.
        -13    1    3    3    0    0  0.21228456814E+02  0.26439379839E+02 -0.30746551051E+02  0.45771591479E+02  0.00000000000E+00 0. -1.
         13    1    3    3    0    0 -0.21228456814E+02 -0.26439379839E+02 -0.19385381888E+03  0.19679682741E+03  0.00000000000E+00 0.  1.
<mgrwt>
<rscale>  0 0.91619385E+02</rscale>
<asrwt>0</asrwt>
<pdfrwt beam="1">  1        1 0.13821576E-02 0.91619385E+02</pdfrwt>
<pdfrwt beam="2">  1       -1 0.35936060E-01 0.91619385E+02</pdfrwt>
<totfact> 0.65400663E+04</totfact>
</mgrwt>
</event>
<event>
 5    1  0.6308903E+000  0.9198696E+02  0.7546771E-02  0.1298110E+00
         -2   -1    0    0    0  501 -0.00000000000E+00  0.00000000000E+00  0.59162784668E+02  0.59162784668E+02  0.00000000000E+00 0.  1.
          2   -1    0    0  501    0  0.00000000000E+00 -0.00000000000E+00 -0.35755585697E+02  0.35755585697E+02  0.00000000000E+00 0. -1.
         23    2    1    2    0    0  0.00000000000E+00  0.00000000000E+00  0.23407198971E+02  0.94918370365E+02  0.91986955972E+02 0.  0.
        -13    1    3    3    0    0 -0.19009123384E+02 -0.27498513907E+02  0.44299596425E+02  0.55497470955E+02  0.00000000000E+00 0.  1.
         13    1    3    3    0    0  0.19009123384E+02  0.27498513907E+02 -0.20892397454E+02  0.39420899410E+02  0.00000000000E+00 0. -1.
<mgrwt>
<rscale>  0 0.91986956E+02</rscale>
<asrwt>0</asrwt>
<pdfrwt beam="2">  1        2 0.55008593E-02 0.91986956E+02</pdfrwt>
<pdfrwt beam="1">  1       -2 0.91019669E-02 0.91986956E+02</pdfrwt>
<totfact> 0.90283104E+04</totfact>
</mgrwt>
</event>
<event>
 5    1  0.6308903E+000  0.9104757E+02  0.7546771E-02  0.1300334E+00
         -4   -1    0    0    0  501 -0.00000000000E+00  0.00000000000E+00  0.68145085028E+02  0.68145085028E+02  0.00000000000E+00 0.  1.
          4   -1    0    0  501    0  0.00000000000E+00 -0.00000000000E+00 -0.30411806810E+02  0.30411806810E+02  0.00000000000E+00 0. -1.
         23    2    1    2    0    0  0.00000000000E+00  0.00000000000E+00  0.37733278218E+02  0.98556891837E+02  0.91047573518E+02 0.  0.
        -13    1    3    3    0    0 -0.39908060112E+02  0.21298651527E+02  0.24399921824E+02  0.51396906559E+02  0.00000000000E+00 0. -1.
         13    1    3    3    0    0  0.39908060112E+02 -0.21298651527E+02  0.13333356393E+02  0.47159985279E+02  0.00000000000E+00 0.  1.
<mgrwt>
<rscale>  0 0.91047574E+02</rscale>
<asrwt>0</asrwt>
<pdfrwt beam="2">  1        4 0.46787395E-02 0.91047574E+02</pdfrwt>
<pdfrwt beam="1">  1       -4 0.10483859E-01 0.91047574E+02</pdfrwt>
<totfact> 0.26650360E+04</totfact>
</mgrwt>
</event>
<event>
 5    1  0.6308903E+000  0.9221312E+02  0.7546771E-02  0.1297579E+00
         -1   -1    0    0    0  501 -0.00000000000E+00  0.00000000000E+00  0.49251612719E+02  0.49251612719E+02  0.00000000000E+00 0.  1.
          1   -1    0    0  501    0  0.00000000000E+00 -0.00000000000E+00 -0.43162342549E+02  0.43162342549E+02  0.00000000000E+00 0. -1.
         23    2    1    2    0    0  0.00000000000E+00  0.00000000000E+00  0.60892701705E+01  0.92413955268E+02  0.92213122261E+02 0.  0.
        -13    1    3    3    0    0  0.19820293297E+02 -0.18801819005E+02  0.40266642320E+02  0.48659581872E+02  0.00000000000E+00 0.  1.
         13    1    3    3    0    0 -0.19820293297E+02  0.18801819005E+02 -0.34177372149E+02  0.43754373396E+02  0.00000000000E+00 0. -1.
<mgrwt>
<rscale>  0 0.92213122E+02</rscale>
<asrwt>0</asrwt>
<pdfrwt beam="2">  1        1 0.66403604E-02 0.92213122E+02</pdfrwt>
<pdfrwt beam="1">  1       -1 0.75771712E-02 0.92213122E+02</pdfrwt>
<totfact> 0.88837459E+04</totfact>
</mgrwt>
</event>
<event>
 5    1  0.6308903E+000  0.9268740E+02  0.7546771E-02  0.1296471E+00
         -1   -1    0    0    0  501 -0.00000000000E+00  0.00000000000E+00  0.58626229470E+01  0.58626229470E+01  0.00000000000E+00 0.  1.
          1   -1    0    0  501    0  0.00000000000E+00 -0.00000000000E+00 -0.36634434172E+03  0.36634434172E+03  0.00000000000E+00 0. -1.
         23    2    1    2    0    0  0.00000000000E+00  0.00000000000E+00 -0.36048171878E+03  0.37220696467E+03  0.92687404631E+02 0.  0.
        -13    1    3    3    0    0 -0.45582954110E+02 -0.26967094902E+01 -0.14845296726E+03  0.15531697086E+03  0.00000000000E+00 0. -1.
         13    1    3    3    0    0  0.45582954110E+02  0.26967094902E+01 -0.21202875151E+03  0.21688999381E+03  0.00000000000E+00 0.  1.
<mgrwt>
<rscale>  0 0.92687405E+02</rscale>
<asrwt>0</asrwt>
<pdfrwt beam="2">  1        1 0.56360678E-01 0.92687405E+02</pdfrwt>
<pdfrwt beam="1">  1       -1 0.90194184E-03 0.92687405E+02</pdfrwt>
<totfact> 0.12721024E+05</totfact>
</mgrwt>
</event>
<event>
 5    1  0.6308903E+000  0.9510922E+02  0.7546771E-02  0.1290930E+00
          1   -1    0    0  501    0  0.00000000000E+00  0.00000000000E+00  0.76105804876E+02  0.76105804876E+02  0.00000000000E+00 0. -1.
         -1   -1    0    0    0  501 -0.00000000000E+00 -0.00000000000E+00 -0.29714437235E+02  0.29714437235E+02  0.00000000000E+00 0.  1.
         23    2    1    2    0    0  0.00000000000E+00  0.00000000000E+00  0.46391367640E+02  0.10582024211E+03  0.95109224836E+02 0.  0.
        -13    1    3    3    0    0 -0.41961821002E+02 -0.22306562766E+02  0.25143241566E+02  0.53763926202E+02  0.00000000000E+00 0.  1.
         13    1    3    3    0    0  0.41961821002E+02  0.22306562766E+02  0.21248126075E+02  0.52056315908E+02  0.00000000000E+00 0. -1.
<mgrwt>
<rscale>  0 0.95109225E+02</rscale>
<asrwt>0</asrwt>
<pdfrwt beam="1">  1        1 0.11708585E-01 0.95109225E+02</pdfrwt>
<pdfrwt beam="2">  1       -1 0.45714519E-02 0.95109225E+02</pdfrwt>
<totfact> 0.88960345E+04</totfact>
</mgrwt>
</event>
<event>
 5    1  0.6308903E+000  0.9127549E+02  0.7546771E-02  0.1299792E+00
         -2   -1    0    0    0  501 -0.00000000000E+00  0.00000000000E+00  0.23448790243E+02  0.23448790243E+02  0.00000000000E+00 0. -1.
          2   -1    0    0  501    0  0.00000000000E+00 -0.00000000000E+00 -0.88823498443E+02  0.88823498443E+02  0.00000000000E+00 0.  1.
         23    2    1    2    0    0  0.00000000000E+00  0.00000000000E+00 -0.65374708200E+02  0.11227228869E+03  0.91275485946E+02 0.  0.
        -13    1    3    3    0    0  0.31134262140E+02  0.26175127818E+02 -0.72305065943E+01  0.41312949797E+02  0.00000000000E+00 0.  1.
         13    1    3    3    0    0 -0.31134262140E+02 -0.26175127818E+02 -0.58144201606E+02  0.70959338890E+02  0.00000000000E+00 0. -1.
<mgrwt>
<rscale>  0 0.91275486E+02</rscale>
<asrwt>0</asrwt>
<pdfrwt beam="2">  1        2 0.13665154E-01 0.91275486E+02</pdfrwt>
<pdfrwt beam="1">  1       -2 0.36075062E-02 0.91275486E+02</pdfrwt>
<totfact> 0.11804360E+05</totfact>
</mgrwt>
</event>
<event>
 5    1  0.6308903E+000  0.9391482E+02  0.7546771E-02  0.1293639E+00
         -4   -1    0    0    0  501 -0.00000000000E+00  0.00000000000E+00  0.66896295143E+02  0.66896295143E+02  0.00000000000E+00 0. -1.
          4   -1    0    0  501    0  0.00000000000E+00 -0.00000000000E+00 -0.32961439787E+02  0.32961439787E+02  0.00000000000E+00 0.  1.
         23    2    1    2    0    0  0.00000000000E+00  0.00000000000E+00  0.33934855356E+02  0.99857734929E+02  0.93914816814E+02 0.  0.
        -13    1    3    3    0    0 -0.10658539298E+02 -0.58434255933E+01 -0.31259648404E+02  0.33539762983E+02  0.00000000000E+00 0.  1.
         13    1    3    3    0    0  0.10658539298E+02  0.58434255933E+01  0.65194503759E+02  0.66317971946E+02  0.00000000000E+00 0. -1.
<mgrwt>
<rscale>  0 0.93914817E+02</rscale>
<asrwt>0</asrwt>
<pdfrwt beam="2">  1        4 0.50709908E-02 0.93914817E+02</pdfrwt>
<pdfrwt beam="1">  1       -4 0.10291738E-01 0.93914817E+02</pdfrwt>
<totfact> 0.24419796E+04</totfact>
</mgrwt>
</event>
<event>
 5    1  0.6308903E+000  0.9246667E+02  0.7546771E-02  0.1296986E+00
         -2   -1    0    0    0  501 -0.00000000000E+00  0.00000000000E+00  0.54075036341E+01  0.54075036341E+01  0.00000000000E+00 0.  1.
          2   -1    0    0  501    0  0.00000000000E+00 -0.00000000000E+00 -0.39528800732E+03  0.39528800732E+03  0.00000000000E+00 0. -1.
         23    2    1    2    0    0  0.00000000000E+00  0.00000000000E+00 -0.38988050369E+03  0.40069551095E+03  0.92466671533E+02 0.  0.
        -13    1    3    3    0    0  0.33069756311E+02 -0.29992547755E+02 -0.14287450093E+03  0.14968728977E+03  0.00000000000E+00 0.  1.
         13    1    3    3    0    0 -0.33069756311E+02  0.29992547755E+02 -0.24700600276E+03  0.25100822119E+03  0.00000000000E+00 0. -1.
<mgrwt>
<rscale>  0 0.92466672E+02</rscale>
<asrwt>0</asrwt>
<pdfrwt beam="2">  1        2 0.60813563E-01 0.92466672E+02</pdfrwt>
<pdfrwt beam="1">  1       -2 0.83192331E-03 0.92466672E+02</pdfrwt>
<totfact> 0.19149254E+05</totfact>
</mgrwt>
</event>
<event>
 5    1  0.6308903E+000  0.9104739E+02  0.7546771E-02  0.1300335E+00
          2   -1    0    0  501    0  0.00000000000E+00  0.00000000000E+00  0.48065899577E+02  0.48065899577E+02  0.00000000000E+00 0. -1.
         -2   -1    0    0    0  501 -0.00000000000E+00 -0.00000000000E+00 -0.43115944869E+02  0.43115944869E+02  0.00000000000E+00 0.  1.
         23    2    1    2    0    0  0.00000000000E+00  0.00000000000E+00  0.49499547086E+01  0.91181844446E+02  0.91047387140E+02 0.  0.
        -13    1    3    3    0    0 -0.33276454215E+02  0.31046626832E+02  0.35680256005E+01  0.45650260125E+02  0.00000000000E+00 0.  1.
         13    1    3    3    0    0  0.33276454215E+02 -0.31046626832E+02  0.13819291081E+01  0.45531584322E+02  0.00000000000E+00 0. -1.
<mgrwt>
<rscale>  0 0.91047387E+02</rscale>
<asrwt>0</asrwt>
<pdfrwt beam="1">  1        2 0.73947538E-02 0.91047387E+02</pdfrwt>
<pdfrwt beam="2">  1       -2 0.66332223E-02 0.91047387E+02</pdfrwt>
<totfact> 0.10044940E+05</totfact>
</mgrwt>
</event>
<event>
 5    1  0.6308903E+000  0.8667447E+02  0.7546771E-02  0.1311111E+00
          1   -1    0    0  501    0  0.00000000000E+00  0.00000000000E+00  0.11544939305E+02  0.11544939305E+02  0.00000000000E+00 0. -1.
         -1   -1    0    0    0  501 -0.00000000000E+00 -0.00000000000E+00 -0.16267871796E+03  0.16267871796E+03  0.00000000000E+00 0.  1.
         23    2    1    2    0    0  0.00000000000E+00  0.00000000000E+00 -0.15113377866E+03  0.17422365727E+03  0.86674469713E+02 0.  0.
        -13    1    3    3    0    0 -0.27957217354E+02  0.31692570994E+02 -0.56277245321E+02  0.70378643063E+02  0.00000000000E+00 0. -1.
         13    1    3    3    0    0  0.27957217354E+02 -0.31692570994E+02 -0.94856533335E+02  0.10384501420E+03  0.00000000000E+00 0.  1.
<mgrwt>
<rscale>  0 0.86674470E+02</rscale>
<asrwt>0</asrwt>
<pdfrwt beam="1">  1        1 0.17761445E-02 0.86674470E+02</pdfrwt>
<pdfrwt beam="2">  1       -1 0.25027495E-01 0.86674470E+02</pdfrwt>
<totfact> 0.83635280E+04</totfact>
</mgrwt>
</event>
<event>
 5    1  0.6308903E+000  0.9187991E+02  0.7546771E-02  0.1298362E+00
         -2   -1    0    0    0  501 -0.00000000000E+00  0.00000000000E+00  0.76093889827E+02  0.76093889827E+02  0.00000000000E+00 0.  1.
          2   -1    0    0  501    0  0.00000000000E+00 -0.00000000000E+00 -0.27735200297E+02  0.27735200297E+02  0.00000000000E+00 0. -1.
         23    2    1    2    0    0  0.00000000000E+00  0.00000000000E+00  0.48358689530E+02  0.10382909012E+03  0.91879905872E+02 0.  0.
        -13    1    3    3    0    0  0.12936544999E+02 -0.39698926988E+02  0.25271117710E+01  0.41829956902E+02  0.00000000000E+00 0. -1.
         13    1    3    3    0    0 -0.12936544999E+02  0.39698926988E+02  0.45831577759E+02  0.61999133223E+02  0.00000000000E+00 0.  1.
<mgrwt>
<rscale>  0 0.91879906E+02</rscale>
<asrwt>0</asrwt>
<pdfrwt beam="2">  1        2 0.42669539E-02 0.91879906E+02</pdfrwt>
<pdfrwt beam="1">  1       -2 0.11706752E-01 0.91879906E+02</pdfrwt>
<totfact> 0.84646281E+04</totfact>
</mgrwt>
</event>
<event>
 5    1  0.6308903E+000  0.9125814E+02  0.7546771E-02  0.1299833E+00
         -2   -1    0    0    0  501 -0.00000000000E+00  0.00000000000E+00  0.40444905072E+02  0.40444905072E+02  0.00000000000E+00 0.  1.
          2   -1    0    0  501    0  0.00000000000E+00 -0.00000000000E+00 -0.51477736232E+02  0.51477736232E+02  0.00000000000E+00 0. -1.
         23    2    1    2    0    0  0.00000000000E+00  0.00000000000E+00 -0.11032831160E+02  0.91922641304E+02  0.91258142765E+02 0.  0.
        -13    1    3    3    0    0 -0.15237105682E+02  0.25487323145E+02  0.29380316456E+02  0.41772910190E+02  0.00000000000E+00 0.  1.
         13    1    3    3    0    0  0.15237105682E+02 -0.25487323145E+02 -0.40413147616E+02  0.50149731115E+02  0.00000000000E+00 0. -1.
<mgrwt>
<rscale>  0 0.91258143E+02</rscale>
<asrwt>0</asrwt>
<pdfrwt beam="2">  1        2 0.79196517E-02 0.91258143E+02</pdfrwt>
<pdfrwt beam="1">  1       -2 0.62222931E-02 0.91258143E+02</pdfrwt>
<totfact> 0.10159270E+05</totfact>
</mgrwt>
</event>
<event>
 5    1  0.6308903E+000  0.9130352E+02  0.7546771E-02  0.1299725E+00
         -1   -1    0    0    0  501 -0.00000000000E+00  0.00000000000E+00  0.46747231910E+02  0.46747231910E+02  0.00000000000E+00 0.  1.
          1   -1    0    0  501    0  0.00000000000E+00 -0.00000000000E+00 -0.44581961972E+02  0.44581961972E+02  0.00000000000E+00 0. -1.
         23    2    1    2    0    0  0.00000000000E+00  0.00000000000E+00  0.21652699380E+01  0.91329193881E+02  0.91303522720E+02 0.  0.
        -13    1    3    3    0    0 -0.15040213976E+01 -0.35526287376E+02 -0.27555890583E+02  0.44985623046E+02  0.00000000000E+00 0. -1.
         13    1    3    3    0    0  0.15040213976E+01  0.35526287376E+02  0.29721160521E+02  0.46343570835E+02  0.00000000000E+00 0.  1.
<mgrwt>
<rscale>  0 0.91303523E+02</rscale>
<asrwt>0</asrwt>
<pdfrwt beam="2">  1        1 0.68587633E-02 0.91303523E+02</pdfrwt>
<pdfrwt beam="1">  1       -1 0.71918819E-02 0.91303523E+02</pdfrwt>
<totfact> 0.91802976E+04</totfact>
</mgrwt>
</event>
<event>
 5    1  0.6308903E+000  0.9489541E+02  0.7546771E-02  0.1291412E+00
          1   -1    0    0  501    0  0.00000000000E+00  0.00000000000E+00  0.39228492060E+03  0.39228492060E+03  0.00000000000E+00 0. -1.
         -1   -1    0    0    0  501 -0.00000000000E+00 -0.00000000000E+00 -0.57389016206E+01  0.57389016206E+01  0.00000000000E+00 0.  1.
         23    2    1    2    0    0  0.00000000000E+00  0.00000000000E+00  0.38654601898E+03  0.39802382222E+03  0.94895406982E+02 0.  0.
        -13    1    3    3    0    0  0.46226859240E+02  0.94911764116E+01  0.21394036124E+03  0.21908327895E+03  0.00000000000E+00 0. -1.
         13    1    3    3    0    0 -0.46226859240E+02 -0.94911764116E+01  0.17260565773E+03  0.17894054327E+03  0.00000000000E+00 0.  1.
<mgrwt>
<rscale>  0 0.94895407E+02</rscale>
<asrwt>0</asrwt>
<pdfrwt beam="1">  1        1 0.60351505E-01 0.94895407E+02</pdfrwt>
<pdfrwt beam="2">  1       -1 0.88290825E-03 0.94895407E+02</pdfrwt>
<totfact> 0.12088359E+05</totfact>
</mgrwt>
</event>
<event>
 5    1  0.6308903E+000  0.9438904E+02  0.7546771E-02  0.1292558E+00
         -2   -1    0    0    0  501 -0.00000000000E+00  0.00000000000E+00  0.89045378167E+01  0.89045378167E+01  0.00000000000E+00 0.  1.
          2   -1    0    0  501    0  0.00000000000E+00 -0.00000000000E+00 -0.25013346861E+03  0.25013346861E+03  0.00000000000E+00 0. -1.
         23    2    1    2    0    0  0.00000000000E+00  0.00000000000E+00 -0.24122893079E+03  0.25903800642E+03  0.94389044501E+02 0.  0.
        -13    1    3    3    0    0  0.40965346237E+02 -0.17241921475E+02 -0.16416949317E+03  0.17007958706E+03  0.00000000000E+00 0. -1.
         13    1    3    3    0    0 -0.40965346237E+02  0.17241921475E+02 -0.77059437622E+02  0.88958419361E+02  0.00000000000E+00 0.  1.
<mgrwt>
<rscale>  0 0.94389045E+02</rscale>
<asrwt>0</asrwt>
<pdfrwt beam="2">  1        2 0.38482081E-01 0.94389045E+02</pdfrwt>
<pdfrwt beam="1">  1       -2 0.13699286E-02 0.94389045E+02</pdfrwt>
<totfact> 0.15298846E+05</totfact>
</mgrwt>
</event>
<event>
 5    1  0.6308903E+000  0.8802180E+02  0.7546771E-02  0.1307714E+00
          2   -1    0    0  501    0  0.00000000000E+00  0.00000000000E+00  0.14020175137E+03  0.14020175137E+03  0.00000000000E+00 0. -1.
         -2   -1    0    0    0  501 -0.00000000000E+00 -0.00000000000E+00 -0.13815515789E+02  0.13815515789E+02  0.00000000000E+00 0.  1.
         23    2    1    2    0    0  0.00000000000E+00  0.00000000000E+00  0.12638623558E+03  0.15401726716E+03  0.88021804338E+02 0.  0.
        -13    1    3    3    0    0  0.93224099673E+01 -0.27522232451E+02  0.12103009028E+03  0.12446952784E+03  0.00000000000E+00 0. -1.
         13    1    3    3    0    0 -0.93224099673E+01  0.27522232451E+02  0.53561453029E+01  0.29547739324E+02  0.00000000000E+00 0.  1.
<mgrwt>
<rscale>  0 0.88021804E+02</rscale>
<asrwt>0</asrwt>
<pdfrwt beam="1">  1        2 0.21569499E-01 0.88021804E+02</pdfrwt>
<pdfrwt beam="2">  1       -2 0.21254641E-02 0.88021804E+02</pdfrwt>
<totfact> 0.15035253E+05</totfact>
</mgrwt>
</event>
<event>
 5    1  0.6308903E+000  0.9224807E+02  0.7546771E-02  0.1297497E+00
         -2   -1    0    0    0  501 -0.00000000000E+00  0.00000000000E+00  0.36248527062E+02  0.36248527062E+02  0.00000000000E+00 0.  1.
          2   -1    0    0  501    0  0.00000000000E+00 -0.00000000000E+00 -0.58690021166E+02  0.58690021166E+02  0.00000000000E+00 0. -1.
         23    2    1    2    0    0  0.00000000000E+00  0.00000000000E+00 -0.22441494105E+02  0.94938548228E+02  0.92248074679E+02 0.  0.
        -13    1    3    3    0    0  0.57186297397E+01 -0.16916110071E+02 -0.54988359340E+02  0.57815025460E+02  0.00000000000E+00 0. -1.
         13    1    3    3    0    0 -0.57186297397E+01  0.16916110071E+02  0.32546865236E+02  0.37123522768E+02  0.00000000000E+00 0.  1.
<mgrwt>
<rscale>  0 0.92248075E+02</rscale>
<asrwt>0</asrwt>
<pdfrwt beam="2">  1        2 0.90292341E-02 0.92248075E+02</pdfrwt>
<pdfrwt beam="1">  1       -2 0.55766964E-02 0.92248075E+02</pdfrwt>
<totfact> 0.10201576E+05</totfact>
</mgrwt>
</event>
<event>
 5    1  0.6308903E+000  0.9104631E+02  0.7546771E-02  0.1300338E+00
          2   -1    0    0  501    0  0.00000000000E+00  0.00000000000E+00  0.89927917463E+02  0.89927917463E+02  0.00000000000E+00 0. -1.
         -2   -1    0    0    0  501 -0.00000000000E+00 -0.00000000000E+00 -0.23044652314E+02  0.23044652314E+02  0.00000000000E+00 0.  1.
         23    2    1    2    0    0  0.00000000000E+00  0.00000000000E+00  0.66883265149E+02  0.11297256978E+03  0.91046308904E+02 0.  0.
        -13    1    3    3    0    0  0.27717585480E+02  0.21675045684E+02 -0.23983670420E+01  0.35267893539E+02  0.00000000000E+00 0.  1.
         13    1    3    3    0    0 -0.27717585480E+02 -0.21675045684E+02  0.69281632191E+02  0.77704676238E+02  0.00000000000E+00 0. -1.
<mgrwt>
<rscale>  0 0.91046309E+02</rscale>
<asrwt>0</asrwt>
<pdfrwt beam="1">  1        2 0.13835064E-01 0.91046309E+02</pdfrwt>
<pdfrwt beam="2">  1       -2 0.35453312E-02 0.91046309E+02</pdfrwt>
<totfact> 0.11930225E+05</totfact>
</mgrwt>
</event>
<event>
 5    1  0.6308903E+000  0.8063758E+02  0.7546771E-02  0.1327252E+00
          2   -1    0    0  501    0  0.00000000000E+00  0.00000000000E+00  0.23127743368E+02  0.23127743368E+02  0.00000000000E+00 0.  1.
         -2   -1    0    0    0  501 -0.00000000000E+00 -0.00000000000E+00 -0.70288085355E+02  0.70288085355E+02  0.00000000000E+00 0. -1.
         23    2    1    2    0    0  0.00000000000E+00  0.00000000000E+00 -0.47160341986E+02  0.93415828723E+02  0.80637579327E+02 0.  0.
        -13    1    3    3    0    0  0.22680858909E+02 -0.12297080030E+02 -0.59473252699E+02  0.64828291083E+02  0.00000000000E+00 0. -1.
         13    1    3    3    0    0 -0.22680858909E+02  0.12297080030E+02  0.12312910712E+02  0.28587537640E+02  0.00000000000E+00 0.  1.
<mgrwt>
<rscale>  0 0.80637579E+02</rscale>
<asrwt>0</asrwt>
<pdfrwt beam="1">  1        2 0.35581145E-02 0.80637579E+02</pdfrwt>
<pdfrwt beam="2">  1       -2 0.10813551E-01 0.80637579E+02</pdfrwt>
<totfact> 0.11894378E+05</totfact>
</mgrwt>
</event>
<event>
 5    1  0.6308903E+000  0.9220025E+02  0.7546771E-02  0.1297609E+00
          1   -1    0    0  501    0  0.00000000000E+00  0.00000000000E+00  0.33296566487E+03  0.33296566487E+03  0.00000000000E+00 0. -1.
         -1   -1    0    0    0  501 -0.00000000000E+00 -0.00000000000E+00 -0.63827047583E+01  0.63827047583E+01  0.00000000000E+00 0.  1.
         23    2    1    2    0    0  0.00000000000E+00  0.00000000000E+00  0.32658296011E+03  0.33934836963E+03  0.92200250184E+02 0.  0.
        -13    1    3    3    0    0  0.39119310101E+02 -0.20810044124E+02  0.21011465530E+03  0.21473599309E+03  0.00000000000E+00 0. -1.
         13    1    3    3    0    0 -0.39119310101E+02  0.20810044124E+02  0.11646830482E+03  0.12461237654E+03  0.00000000000E+00 0.  1.
<mgrwt>
<rscale>  0 0.92200250E+02</rscale>
<asrwt>0</asrwt>
<pdfrwt beam="1">  1        1 0.51225473E-01 0.92200250E+02</pdfrwt>
<pdfrwt beam="2">  1       -1 0.98195484E-03 0.92200250E+02</pdfrwt>
<totfact> 0.12681981E+05</totfact>
</mgrwt>
</event>
<event>
 5    1  0.6308903E+000  0.9215725E+02  0.7546771E-02  0.1297710E+00
         -1   -1    0    0    0  501 -0.00000000000E+00  0.00000000000E+00  0.41523166994E+01  0.41523166994E+01  0.00000000000E+00 0.  1.
          1   -1    0    0  501    0  0.00000000000E+00 -0.00000000000E+00 -0.51133854233E+03  0.51133854233E+03  0.00000000000E+00 0. -1.
         23    2    1    2    0    0  0.00000000000E+00  0.00000000000E+00 -0.50718622563E+03  0.51549085903E+03  0.92157247535E+02 0.  0.
        -13    1    3    3    0    0 -0.41130726676E+02 -0.20626996609E+02 -0.26732868046E+03  0.27125971515E+03  0.00000000000E+00 0.  1.
         13    1    3    3    0    0  0.41130726676E+02  0.20626996609E+02 -0.23985754516E+03  0.24423114387E+03  0.00000000000E+00 0. -1.
<mgrwt>
<rscale>  0 0.92157248E+02</rscale>
<asrwt>0</asrwt>
<pdfrwt beam="2">  1        1 0.78667422E-01 0.92157248E+02</pdfrwt>
<pdfrwt beam="1">  1       -1 0.63881833E-03 0.92157248E+02</pdfrwt>
<totfact> 0.13572033E+05</totfact>
</mgrwt>
</event>
<event>
 5    1  0.6308903E+000  0.8873304E+02  0.7546771E-02  0.1305949E+00
         -3   -1    0    0    0  501 -0.00000000000E+00  0.00000000000E+00  0.14986224477E+03  0.14986224477E+03  0.00000000000E+00 0.  1.
          3   -1    0    0  501    0  0.00000000000E+00 -0.00000000000E+00 -0.13134650044E+02  0.13134650044E+02  0.00000000000E+00 0. -1.
         23    2    1    2    0    0  0.00000000000E+00  0.00000000000E+00  0.13672759473E+03  0.16299689482E+03  0.88733040969E+02 0.  0.
        -13    1    3    3    0    0 -0.31295250075E+02  0.11020024135E+02  0.14258180038E+02  0.36112730542E+02  0.00000000000E+00 0. -1.
         13    1    3    3    0    0  0.31295250075E+02 -0.11020024135E+02  0.12246941469E+03  0.12688416427E+03  0.00000000000E+00 0.  1.
<mgrwt>
<rscale>  0 0.88733041E+02</rscale>
<asrwt>0</asrwt>
<pdfrwt beam="2">  1        3 0.20207155E-02 0.88733041E+02</pdfrwt>
<pdfrwt beam="1">  1       -3 0.23055729E-01 0.88733041E+02</pdfrwt>
<totfact> 0.32852351E+04</totfact>
</mgrwt>
</event>
<event>
 5    1  0.6308903E+000  0.9130483E+02  0.7546771E-02  0.1299722E+00
          3   -1    0    0  501    0  0.00000000000E+00  0.00000000000E+00  0.43584665914E+02  0.43584665914E+02  0.00000000000E+00 0. -1.
         -3   -1    0    0    0  501 -0.00000000000E+00 -0.00000000000E+00 -0.47818263664E+02  0.47818263664E+02  0.00000000000E+00 0.  1.
         23    2    1    2    0    0  0.00000000000E+00  0.00000000000E+00 -0.42335977500E+01  0.91402929578E+02  0.91304831119E+02 0.  0.
        -13    1    3    3    0    0  0.96325428940E+01 -0.40520413729E+02  0.16596954029E+02  0.44834681825E+02  0.00000000000E+00 0. -1.
         13    1    3    3    0    0 -0.96325428940E+01  0.40520413729E+02 -0.20830551779E+02  0.46568247753E+02  0.00000000000E+00 0.  1.
<mgrwt>
<rscale>  0 0.91304831E+02</rscale>
<asrwt>0</asrwt>
<pdfrwt beam="1">  1        3 0.67053332E-02 0.91304831E+02</pdfrwt>
<pdfrwt beam="2">  1       -3 0.73566560E-02 0.91304831E+02</pdfrwt>
<totfact> 0.35186333E+04</totfact>
</mgrwt>
</event>
<event>
 5    1  0.6308903E+000  0.1001427E+03  0.7546771E-02  0.1279996E+00
          1   -1    0    0  501    0  0.00000000000E+00  0.00000000000E+00  0.15398674427E+03  0.15398674427E+03  0.00000000000E+00 0. -1.
         -1   -1    0    0    0  501 -0.00000000000E+00 -0.00000000000E+00 -0.16281542308E+02  0.16281542308E+02  0.00000000000E+00 0.  1.
         23    2    1    2    0    0  0.00000000000E+00  0.00000000000E+00  0.13770520196E+03  0.17026828657E+03  0.10014273197E+03 0.  0.
        -13    1    3    3    0    0  0.23205403349E+02  0.29297471132E+02  0.12197856319E+02  0.39314377244E+02  0.00000000000E+00 0.  1.
         13    1    3    3    0    0 -0.23205403349E+02 -0.29297471132E+02  0.12550734564E+03  0.13095390933E+03  0.00000000000E+00 0. -1.
<mgrwt>
<rscale>  0 0.10014273E+03</rscale>
<asrwt>0</asrwt>
<pdfrwt beam="1">  1        1 0.23690267E-01 0.10014273E+03</pdfrwt>
<pdfrwt beam="2">  1       -1 0.25048528E-02 0.10014273E+03</pdfrwt>
<totfact> 0.87363519E+04</totfact>
</mgrwt>
</event>
<event>
 5    1  0.6308903E+000  0.9058435E+02  0.7546771E-02  0.1301443E+00
         -2   -1    0    0    0  501 -0.00000000000E+00  0.00000000000E+00  0.15543096518E+02  0.15543096518E+02  0.00000000000E+00 0.  1.
          2   -1    0    0  501    0  0.00000000000E+00 -0.00000000000E+00 -0.13198020264E+03  0.13198020264E+03  0.00000000000E+00 0. -1.
         23    2    1    2    0    0  0.00000000000E+00  0.00000000000E+00 -0.11643710612E+03  0.14752329916E+03  0.90584348055E+02 0.  0.
        -13    1    3    3    0    0 -0.24917247812E+02 -0.36522093988E+02 -0.74229052445E+02  0.86398407477E+02  0.00000000000E+00 0.  1.
         13    1    3    3    0    0  0.24917247812E+02  0.36522093988E+02 -0.42208053675E+02  0.61124891679E+02  0.00000000000E+00 0. -1.
<mgrwt>
<rscale>  0 0.90584348E+02</rscale>
<asrwt>0</asrwt>
<pdfrwt beam="2">  1        2 0.20304647E-01 0.90584348E+02</pdfrwt>
<pdfrwt beam="1">  1       -2 0.23912456E-02 0.90584348E+02</pdfrwt>
<totfact> 0.13634350E+05</totfact>
</mgrwt>
</event>
<event>
 5    1  0.6308903E+000  0.8715661E+02  0.7546771E-02  0.1309887E+00
         -1   -1    0    0    0  501 -0.00000000000E+00  0.00000000000E+00  0.18144813917E+02  0.18144813917E+02  0.00000000000E+00 0.  1.
          1   -1    0    0  501    0  0.00000000000E+00 -0.00000000000E+00 -0.10466177683E+03  0.10466177683E+03  0.00000000000E+00 0. -1.
         23    2    1    2    0    0  0.00000000000E+00  0.00000000000E+00 -0.86516962917E+02  0.12280659075E+03  0.87156605368E+02 0.  0.
        -13    1    3    3    0    0  0.21971926585E+02  0.88523054657E+00 -0.96271100644E+02  0.98750564607E+02  0.00000000000E+00 0. -1.
         13    1    3    3    0    0 -0.21971926585E+02 -0.88523054657E+00  0.97541377275E+01  0.24056026143E+02  0.00000000000E+00 0.  1.
<mgrwt>
<rscale>  0 0.87156605E+02</rscale>
<asrwt>0</asrwt>
<pdfrwt beam="2">  1        1 0.16101812E-01 0.87156605E+02</pdfrwt>
<pdfrwt beam="1">  1       -1 0.27915098E-02 0.87156605E+02</pdfrwt>
<totfact> 0.11894424E+05</totfact>
</mgrwt>
</event>
<event>
 5    1  0.6308903E+000  0.9140622E+02  0.7546771E-02  0.1299482E+00
          1   -1    0    0  501    0  0.00000000000E+00  0.00000000000E+00  0.61237818274E+02  0.61237818274E+02  0.00000000000E+00 0. -1.
         -1   -1    0    0    0  501 -0.00000000000E+00 -0.00000000000E+00 -0.34109223401E+02  0.34109223401E+02  0.00000000000E+00 0.  1.
         23    2    1    2    0    0  0.00000000000E+00  0.00000000000E+00  0.27128594873E+02  0.95347041676E+02  0.91406223511E+02 0.  0.
        -13    1    3    3    0    0 -0.38765344638E+01 -0.13783491157E+02 -0.31709247819E+02  0.34792075896E+02  0.00000000000E+00 0.  1.
         13    1    3    3    0    0  0.38765344638E+01  0.13783491157E+02  0.58837842692E+02  0.60554965780E+02  0.00000000000E+00 0. -1.
<mgrwt>
<rscale>  0 0.91406224E+02</rscale>
<asrwt>0</asrwt>
<pdfrwt beam="1">  1        1 0.94212028E-02 0.91406224E+02</pdfrwt>
<pdfrwt beam="2">  1       -1 0.52475728E-02 0.91406224E+02</pdfrwt>
<totfact> 0.95998187E+04</totfact>
</mgrwt>
</event>
<event>
 5    1  0.6308903E+000  0.9269914E+02  0.7546771E-02  0.1296444E+00
         -2   -1    0    0    0  501 -0.00000000000E+00  0.00000000000E+00  0.21475849830E+02  0.21475849830E+02  0.00000000000E+00 0.  1.
          2   -1    0    0  501    0  0.00000000000E+00 -0.00000000000E+00 -0.10003248525E+03  0.10003248525E+03  0.00000000000E+00 0. -1.
         23    2    1    2    0    0  0.00000000000E+00  0.00000000000E+00 -0.78556635417E+02  0.12150833508E+03  0.92699139831E+02 0.  0.
        -13    1    3    3    0    0  0.42586024466E+02  0.13159198087E+02 -0.22618047451E+02  0.49983097589E+02  0.00000000000E+00 0.  1.
         13    1    3    3    0    0 -0.42586024466E+02 -0.13159198087E+02 -0.55938587966E+02  0.71525237489E+02  0.00000000000E+00 0. -1.
<mgrwt>
<rscale>  0 0.92699140E+02</rscale>
<asrwt>0</asrwt>
<pdfrwt beam="2">  1        2 0.15389613E-01 0.92699140E+02</pdfrwt>
<pdfrwt beam="1">  1       -2 0.33039769E-02 0.92699140E+02</pdfrwt>
<totfact> 0.11720990E+05</totfact>
</mgrwt>
</event>
<event>
 5    1  0.6308903E+000  0.9452840E+02  0.7546771E-02  0.1292242E+00
         -2   -1    0    0    0  501 -0.00000000000E+00  0.00000000000E+00  0.10674606451E+03  0.10674606451E+03  0.00000000000E+00 0.  1.
          2   -1    0    0  501    0  0.00000000000E+00 -0.00000000000E+00 -0.20927278481E+02  0.20927278481E+02  0.00000000000E+00 0. -1.
         23    2    1    2    0    0  0.00000000000E+00  0.00000000000E+00  0.85818786026E+02  0.12767334299E+03  0.94528400361E+02 0.  0.
        -13    1    3    3    0    0  0.19774491708E+02 -0.13072021924E+02 -0.12318132185E+02  0.26714128472E+02  0.00000000000E+00 0. -1.
         13    1    3    3    0    0 -0.19774491708E+02  0.13072021924E+02  0.98136918212E+02  0.10095921452E+03  0.00000000000E+00 0.  1.
<mgrwt>
<rscale>  0 0.94528400E+02</rscale>
<asrwt>0</asrwt>
<pdfrwt beam="2">  1        2 0.32195814E-02 0.94528400E+02</pdfrwt>
<pdfrwt beam="1">  1       -2 0.16422471E-01 0.94528400E+02</pdfrwt>
<totfact> 0.71499344E+04</totfact>
</mgrwt>
</event>
<event>
 5    1  0.6308903E+000  0.8814594E+02  0.7546771E-02  0.1307405E+00
         -2   -1    0    0    0  501 -0.00000000000E+00  0.00000000000E+00  0.25822618925E+02  0.25822618925E+02  0.00000000000E+00 0.  1.
          2   -1    0    0  501    0  0.00000000000E+00 -0.00000000000E+00 -0.75221911675E+02  0.75221911675E+02  0.00000000000E+00 0. -1.
         23    2    1    2    0    0  0.00000000000E+00  0.00000000000E+00 -0.49399292750E+02  0.10104453060E+03  0.88145941710E+02 0.  0.
        -13    1    3    3    0    0  0.44496608448E+01  0.40380341058E+02 -0.44290035403E+02  0.60099739280E+02  0.00000000000E+00 0. -1.
         13    1    3    3    0    0 -0.44496608448E+01 -0.40380341058E+02 -0.51092573471E+01  0.40944791319E+02  0.00000000000E+00 0.  1.
<mgrwt>
<rscale>  0 0.88145942E+02</rscale>
<asrwt>0</asrwt>
<pdfrwt beam="2">  1        2 0.11572602E-01 0.88145942E+02</pdfrwt>
<pdfrwt beam="1">  1       -2 0.39727106E-02 0.88145942E+02</pdfrwt>
<totfact> 0.12397667E+05</totfact>
</mgrwt>
</event>
<event>
 5    1  0.6308903E+000  0.9071475E+02  0.7546771E-02  0.1301130E+00
         -2   -1    0    0    0  501 -0.00000000000E+00  0.00000000000E+00  0.39627577151E+02  0.39627577151E+02  0.00000000000E+00 0. -1.
          2   -1    0    0  501    0  0.00000000000E+00 -0.00000000000E+00 -0.51915654564E+02  0.51915654564E+02  0.00000000000E+00 0.  1.
         23    2    1    2    0    0  0.00000000000E+00  0.00000000000E+00 -0.12288077412E+02  0.91543231715E+02  0.90714753080E+02 0.  0.
        -13    1    3    3    0    0 -0.31110014346E+02 -0.87606146592E+01 -0.38257781080E+02  0.50082323977E+02  0.00000000000E+00 0.  1.
         13    1    3    3    0    0  0.31110014346E+02  0.87606146592E+01  0.25969703668E+02  0.41460907737E+02  0.00000000000E+00 0. -1.
<mgrwt>
<rscale>  0 0.90714753E+02</rscale>
<asrwt>0</asrwt>
<pdfrwt beam="2">  1        2 0.79870237E-02 0.90714753E+02</pdfrwt>
<pdfrwt beam="1">  1       -2 0.60965504E-02 0.90714753E+02</pdfrwt>
<totfact> 0.10356282E+05</totfact>
</mgrwt>
</event>
<event>
 5    1  0.6308903E+000  0.9005923E+02  0.7546771E-02  0.1302708E+00
          1   -1    0    0  501    0  0.00000000000E+00  0.00000000000E+00  0.42301366653E+02  0.42301366653E+02  0.00000000000E+00 0. -1.
         -1   -1    0    0    0  501 -0.00000000000E+00 -0.00000000000E+00 -0.47933828283E+02  0.47933828283E+02  0.00000000000E+00 0.  1.
         23    2    1    2    0    0  0.00000000000E+00  0.00000000000E+00 -0.56324616297E+01  0.90235194936E+02  0.90059234847E+02 0.  0.
        -13    1    3    3    0    0  0.32077933841E+02  0.85048913737E+01 -0.33311521880E+02  0.47021107035E+02  0.00000000000E+00 0.  1.
         13    1    3    3    0    0 -0.32077933841E+02 -0.85048913737E+01  0.27679060250E+02  0.43214087901E+02  0.00000000000E+00 0. -1.
<mgrwt>
<rscale>  0 0.90059235E+02</rscale>
<asrwt>0</asrwt>
<pdfrwt beam="1">  1        1 0.65079026E-02 0.90059235E+02</pdfrwt>
<pdfrwt beam="2">  1       -1 0.73744351E-02 0.90059235E+02</pdfrwt>
<totfact> 0.94661974E+04</totfact>
</mgrwt>
</event>
<event>
 5    1  0.6308903E+000  0.9151513E+02  0.7546771E-02  0.1299224E+00
          2   -1    0    0  501    0  0.00000000000E+00  0.00000000000E+00  0.13211965779E+02  0.13211965779E+02  0.00000000000E+00 0. -1.
         -2   -1    0    0    0  501 -0.00000000000E+00 -0.00000000000E+00 -0.15847413309E+03  0.15847413309E+03  0.00000000000E+00 0.  1.
         23    2    1    2    0    0  0.00000000000E+00  0.00000000000E+00 -0.14526216731E+03  0.17168609887E+03  0.91515131496E+02 0.  0.
        -13    1    3    3    0    0  0.28433266171E+02  0.35145646441E+02 -0.59353840230E+02  0.74609285206E+02  0.00000000000E+00 0. -1.
         13    1    3    3    0    0 -0.28433266171E+02 -0.35145646441E+02 -0.85908327081E+02  0.97076813662E+02  0.00000000000E+00 0.  1.
<mgrwt>
<rscale>  0 0.91515131E+02</rscale>
<asrwt>0</asrwt>
<pdfrwt beam="1">  1        2 0.20326101E-02 0.91515131E+02</pdfrwt>
<pdfrwt beam="2">  1       -2 0.24380636E-01 0.91515131E+02</pdfrwt>
<totfact> 0.67810920E+04</totfact>
</mgrwt>
</event>
<event>
 5    1  0.6308903E+000  0.8372568E+02  0.7546771E-02  0.1318799E+00
         -3   -1    0    0    0  501 -0.00000000000E+00  0.00000000000E+00  0.49271806046E+01  0.49271806046E+01  0.00000000000E+00 0.  1.
          3   -1    0    0  501    0  0.00000000000E+00 -0.00000000000E+00 -0.35567953081E+03  0.35567953081E+03  0.00000000000E+00 0. -1.
         23    2    1    2    0    0  0.00000000000E+00  0.00000000000E+00 -0.35075235020E+03  0.36060671141E+03  0.83725677916E+02 0.  0.
        -13    1    3    3    0    0 -0.40595262964E+02  0.10633627219E+01 -0.13158194881E+03  0.13770590171E+03  0.00000000000E+00 0.  1.
         13    1    3    3    0    0  0.40595262964E+02 -0.10633627219E+01 -0.21917040140E+03  0.22290080970E+03  0.00000000000E+00 0. -1.
<mgrwt>
<rscale>  0 0.83725678E+02</rscale>
<asrwt>0</asrwt>
<pdfrwt beam="2">  1        3 0.54719920E-01 0.83725678E+02</pdfrwt>
<pdfrwt beam="1">  1       -3 0.75802789E-03 0.83725678E+02</pdfrwt>
<totfact> 0.27430603E+04</totfact>
</mgrwt>
</event>
<event>
 5    1  0.6308903E+000  0.9483530E+02  0.7546771E-02  0.1291547E+00
         -1   -1    0    0    0  501 -0.00000000000E+00  0.00000000000E+00  0.59238900964E+02  0.59238900964E+02  0.00000000000E+00 0.  1.
          1   -1    0    0  501    0  0.00000000000E+00 -0.00000000000E+00 -0.37955352846E+02  0.37955352846E+02  0.00000000000E+00 0. -1.
         23    2    1    2    0    0  0.00000000000E+00  0.00000000000E+00  0.21283548118E+02  0.97194253810E+02  0.94835296980E+02 0.  0.
        -13    1    3    3    0    0 -0.26242022427E+02  0.21928957593E+02  0.44305585410E+02  0.55968811142E+02  0.00000000000E+00 0.  1.
         13    1    3    3    0    0  0.26242022427E+02 -0.21928957593E+02 -0.23022037292E+02  0.41225442668E+02  0.00000000000E+00 0. -1.
<mgrwt>
<rscale>  0 0.94835297E+02</rscale>
<asrwt>0</asrwt>
<pdfrwt beam="2">  1        1 0.58392851E-02 0.94835297E+02</pdfrwt>
<pdfrwt beam="1">  1       -1 0.91136771E-02 0.94835297E+02</pdfrwt>
<totfact> 0.80417676E+04</totfact>
</mgrwt>
</event>
<event>
 5    1  0.6308903E+000  0.9247523E+02  0.7546771E-02  0.1296966E+00
         -1   -1    0    0    0  501 -0.00000000000E+00  0.00000000000E+00  0.55011633499E+02  0.55011633499E+02  0.00000000000E+00 0.  1.
          1   -1    0    0  501    0  0.00000000000E+00 -0.00000000000E+00 -0.38862997900E+02  0.38862997900E+02  0.00000000000E+00 0. -1.
         23    2    1    2    0    0  0.00000000000E+00  0.00000000000E+00  0.16148635599E+02  0.93874631399E+02  0.92475229054E+02 0.  0.
        -13    1    3    3    0    0 -0.20893781878E+02  0.22087693372E+02 -0.27288172441E+02  0.40854139017E+02  0.00000000000E+00 0. -1.
         13    1    3    3    0    0  0.20893781878E+02 -0.22087693372E+02  0.43436808040E+02  0.53020492382E+02  0.00000000000E+00 0.  1.
<mgrwt>
<rscale>  0 0.92475229E+02</rscale>
<asrwt>0</asrwt>
<pdfrwt beam="2">  1        1 0.59789227E-02 0.92475229E+02</pdfrwt>
<pdfrwt beam="1">  1       -1 0.84633283E-02 0.92475229E+02</pdfrwt>
<totfact> 0.86719360E+04</totfact>
</mgrwt>
</event>
<event>
 5    1  0.6308903E+000  0.8549151E+02  0.7546771E-02  0.1314152E+00
          2   -1    0    0  501    0  0.00000000000E+00  0.00000000000E+00  0.13932004347E+02  0.13932004347E+02  0.00000000000E+00 0. -1.
         -2   -1    0    0    0  501 -0.00000000000E+00 -0.00000000000E+00 -0.13115123052E+03  0.13115123052E+03  0.00000000000E+00 0.  1.
         23    2    1    2    0    0  0.00000000000E+00  0.00000000000E+00 -0.11721922617E+03  0.14508323486E+03  0.85491508668E+02 0.  0.
        -13    1    3    3    0    0  0.39593876886E+02  0.15679213462E+02 -0.64887933783E+02  0.77614153170E+02  0.00000000000E+00 0.  1.
         13    1    3    3    0    0 -0.39593876886E+02 -0.15679213462E+02 -0.52331292386E+02  0.67469081692E+02  0.00000000000E+00 0. -1.
<mgrwt>
<rscale>  0 0.85491509E+02</rscale>
<asrwt>0</asrwt>
<pdfrwt beam="1">  1        2 0.21433853E-02 0.85491509E+02</pdfrwt>
<pdfrwt beam="2">  1       -2 0.20177112E-01 0.85491509E+02</pdfrwt>
<totfact> 0.86109823E+04</totfact>
</mgrwt>
</event>
<event>
 5    1  0.6308903E+000  0.8996754E+02  0.7546771E-02  0.1302930E+00
         -1   -1    0    0    0  501 -0.00000000000E+00  0.00000000000E+00  0.80401805990E+02  0.80401805990E+02  0.00000000000E+00 0.  1.
          1   -1    0    0  501    0  0.00000000000E+00 -0.00000000000E+00 -0.25167837806E+02  0.25167837806E+02  0.00000000000E+00 0. -1.
         23    2    1    2    0    0  0.00000000000E+00  0.00000000000E+00  0.55233968184E+02  0.10556964380E+03  0.89967541090E+02 0.  0.
        -13    1    3    3    0    0  0.41653807624E+02  0.12857550803E+02  0.14593441328E+02  0.45970912891E+02  0.00000000000E+00 0. -1.
         13    1    3    3    0    0 -0.41653807624E+02 -0.12857550803E+02  0.40640526856E+02  0.59598730904E+02  0.00000000000E+00 0.  1.
<mgrwt>
<rscale>  0 0.89967541E+02</rscale>
<asrwt>0</asrwt>
<pdfrwt beam="2">  1        1 0.38719751E-02 0.89967541E+02</pdfrwt>
<pdfrwt beam="1">  1       -1 0.12369508E-01 0.89967541E+02</pdfrwt>
<totfact> 0.87517181E+04</totfact>
</mgrwt>
</event>
<event>
 5    1  0.6308903E+000  0.9207245E+02  0.7546771E-02  0.1297909E+00
          4   -1    0    0  501    0  0.00000000000E+00  0.00000000000E+00  0.10255539038E+03  0.10255539038E+03  0.00000000000E+00 0. -1.
         -4   -1    0    0    0  501 -0.00000000000E+00 -0.00000000000E+00 -0.20665260236E+02  0.20665260236E+02  0.00000000000E+00 0.  1.
         23    2    1    2    0    0  0.00000000000E+00  0.00000000000E+00  0.81890130144E+02  0.12322065062E+03  0.92072446058E+02 0.  0.
        -13    1    3    3    0    0  0.19028718083E+02 -0.41655813662E+02  0.47227231366E+02  0.65785335039E+02  0.00000000000E+00 0.  1.
         13    1    3    3    0    0 -0.19028718083E+02  0.41655813662E+02  0.34662898778E+02  0.57435315577E+02  0.00000000000E+00 0. -1.
<mgrwt>
<rscale>  0 0.92072446E+02</rscale>
<asrwt>0</asrwt>
<pdfrwt beam="1">  1        4 0.15777752E-01 0.92072446E+02</pdfrwt>
<pdfrwt beam="2">  1       -4 0.31792709E-02 0.92072446E+02</pdfrwt>
<totfact> 0.24436031E+04</totfact>
</mgrwt>
</event>
<event>
 5    1  0.6308903E+000  0.9011366E+02  0.7546771E-02  0.1302577E+00
          1   -1    0    0  501    0  0.00000000000E+00  0.00000000000E+00  0.68365854494E+01  0.68365854494E+01  0.00000000000E+00 0. -1.
         -1   -1    0    0    0  501 -0.00000000000E+00 -0.00000000000E+00 -0.29694912414E+03  0.29694912414E+03  0.00000000000E+00 0.  1.
         23    2    1    2    0    0  0.00000000000E+00  0.00000000000E+00 -0.29011253869E+03  0.30378570959E+03  0.90113662922E+02 0.  0.
        -13    1    3    3    0    0 -0.98876558684E+01 -0.43926334078E+02 -0.15072689962E+03  0.15730825418E+03  0.00000000000E+00 0. -1.
         13    1    3    3    0    0  0.98876558684E+01  0.43926334078E+02 -0.13938563906E+03  0.14647745540E+03  0.00000000000E+00 0.  1.
<mgrwt>
<rscale>  0 0.90113663E+02</rscale>
<asrwt>0</asrwt>
<pdfrwt beam="1">  1        1 0.10517828E-02 0.90113663E+02</pdfrwt>
<pdfrwt beam="2">  1       -1 0.45684463E-01 0.90113663E+02</pdfrwt>
<totfact> 0.62722581E+04</totfact>
</mgrwt>
</event>
<event>
 5    1  0.6308903E+000  0.9067243E+02  0.7546771E-02  0.1301231E+00
         -2   -1    0    0    0  501 -0.00000000000E+00  0.00000000000E+00  0.32667980874E+03  0.32667980874E+03  0.00000000000E+00 0.  1.
          2   -1    0    0  501    0  0.00000000000E+00 -0.00000000000E+00 -0.62917029905E+01  0.62917029905E+01  0.00000000000E+00 0. -1.
         23    2    1    2    0    0  0.00000000000E+00  0.00000000000E+00  0.32038810575E+03  0.33297151173E+03  0.90672428657E+02 0.  0.
        -13    1    3    3    0    0  0.37801465167E+02 -0.24611143193E+02  0.17690708858E+03  0.18256718524E+03  0.00000000000E+00 0. -1.
         13    1    3    3    0    0 -0.37801465167E+02  0.24611143193E+02  0.14348101717E+03  0.15040432649E+03  0.00000000000E+00 0.  1.
<mgrwt>
<rscale>  0 0.90672429E+02</rscale>
<asrwt>0</asrwt>
<pdfrwt beam="2">  1        2 0.96795456E-03 0.90672429E+02</pdfrwt>
<pdfrwt beam="1">  1       -2 0.50258419E-01 0.90672429E+02</pdfrwt>
<totfact> 0.49248729E+04</totfact>
</mgrwt>
</event>
<event>
 5    1  0.6308903E+000  0.9099879E+02  0.7546771E-02  0.1300451E+00
         -2   -1    0    0    0  501 -0.00000000000E+00  0.00000000000E+00  0.53264843724E+02  0.53264843724E+02  0.00000000000E+00 0.  1.
          2   -1    0    0  501    0  0.00000000000E+00 -0.00000000000E+00 -0.38866063653E+02  0.38866063653E+02  0.00000000000E+00 0. -1.
         23    2    1    2    0    0  0.00000000000E+00  0.00000000000E+00  0.14398780070E+02  0.92130907377E+02  0.90998786951E+02 0.  0.
        -13    1    3    3    0    0  0.23206739433E+02  0.37136532217E+01  0.46643693539E+02  0.52230049993E+02  0.00000000000E+00 0.  1.
         13    1    3    3    0    0 -0.23206739433E+02 -0.37136532217E+01 -0.32244913468E+02  0.39900857384E+02  0.00000000000E+00 0. -1.
<mgrwt>
<rscale>  0 0.90998787E+02</rscale>
<asrwt>0</asrwt>
<pdfrwt beam="2">  1        2 0.59793944E-02 0.90998787E+02</pdfrwt>
<pdfrwt beam="1">  1       -2 0.81945914E-02 0.90998787E+02</pdfrwt>
<totfact> 0.95219812E+04</totfact>
</mgrwt>
</event>
<event>
 5    1  0.6308903E+000  0.7355785E+02  0.7546771E-02  0.1348396E+00
          4   -1    0    0  501    0  0.00000000000E+00  0.00000000000E+00  0.67517777196E+01  0.67517777196E+01  0.00000000000E+00 0. -1.
         -4   -1    0    0    0  501 -0.00000000000E+00 -0.00000000000E+00 -0.20034566383E+03  0.20034566383E+03  0.00000000000E+00 0.  1.
         23    2    1    2    0    0  0.00000000000E+00  0.00000000000E+00 -0.19359388611E+03  0.20709744155E+03  0.73557851769E+02 0.  0.
        -13    1    3    3    0    0 -0.26213446588E+02 -0.25499325049E+02 -0.85773861428E+02  0.93244386771E+02  0.00000000000E+00 0.  1.
         13    1    3    3    0    0  0.26213446588E+02  0.25499325049E+02 -0.10782002468E+03  0.11385305477E+03  0.00000000000E+00 0. -1.
<mgrwt>
<rscale>  0 0.73557852E+02</rscale>
<asrwt>0</asrwt>
<pdfrwt beam="1">  1        4 0.10387352E-02 0.73557852E+02</pdfrwt>
<pdfrwt beam="2">  1       -4 0.30822406E-01 0.73557852E+02</pdfrwt>
<totfact> 0.37128291E+04</totfact>
</mgrwt>
</event>
<event>
 5    1  0.6308903E+000  0.9137059E+02  0.7546771E-02  0.1299566E+00
          1   -1    0    0  501    0  0.00000000000E+00  0.00000000000E+00  0.10476965882E+03  0.10476965882E+03  0.00000000000E+00 0. -1.
         -1   -1    0    0    0  501 -0.00000000000E+00 -0.00000000000E+00 -0.19921283789E+02  0.19921283789E+02  0.00000000000E+00 0.  1.
         23    2    1    2    0    0  0.00000000000E+00  0.00000000000E+00  0.84848375033E+02  0.12469094261E+03  0.91370588393E+02 0.  0.
        -13    1    3    3    0    0  0.38859325167E+02 -0.11194652462E+02  0.71430422888E+02  0.82083327845E+02  0.00000000000E+00 0. -1.
         13    1    3    3    0    0 -0.38859325167E+02  0.11194652462E+02  0.13417952145E+02  0.42607614765E+02  0.00000000000E+00 0.  1.
<mgrwt>
<rscale>  0 0.91370588E+02</rscale>
<asrwt>0</asrwt>
<pdfrwt beam="1">  1        1 0.16118409E-01 0.91370588E+02</pdfrwt>
<pdfrwt beam="2">  1       -1 0.30648130E-02 0.91370588E+02</pdfrwt>
<totfact> 0.10466142E+05</totfact>
</mgrwt>
</event>
<event>
 5    1  0.6308903E+000  0.9139860E+02  0.7546771E-02  0.1299500E+00
         -2   -1    0    0    0  501 -0.00000000000E+00  0.00000000000E+00  0.12030761111E+03  0.12030761111E+03  0.00000000000E+00 0. -1.
          2   -1    0    0  501    0  0.00000000000E+00 -0.00000000000E+00 -0.17359053316E+02  0.17359053316E+02  0.00000000000E+00 0.  1.
         23    2    1    2    0    0  0.00000000000E+00  0.00000000000E+00  0.10294855779E+03  0.13766666443E+03  0.91398604707E+02 0.  0.
        -13    1    3    3    0    0 -0.95037293024E+00  0.19449273721E+02 -0.10797584728E+02  0.22265787499E+02  0.00000000000E+00 0.  1.
         13    1    3    3    0    0  0.95037293024E+00 -0.19449273721E+02  0.11374614252E+03  0.11540087693E+03  0.00000000000E+00 0. -1.
<mgrwt>
<rscale>  0 0.91398605E+02</rscale>
<asrwt>0</asrwt>
<pdfrwt beam="2">  1        2 0.26706237E-02 0.91398605E+02</pdfrwt>
<pdfrwt beam="1">  1       -2 0.18508863E-01 0.91398605E+02</pdfrwt>
<totfact> 0.74895775E+04</totfact>
</mgrwt>
</event>
<event>
 5    1  0.6308903E+000  0.8761546E+02  0.7546771E-02  0.1308731E+00
          3   -1    0    0  501    0  0.00000000000E+00  0.00000000000E+00  0.32108892225E+02  0.32108892225E+02  0.00000000000E+00 0. -1.
         -3   -1    0    0    0  501 -0.00000000000E+00 -0.00000000000E+00 -0.59769020527E+02  0.59769020527E+02  0.00000000000E+00 0.  1.
         23    2    1    2    0    0  0.00000000000E+00  0.00000000000E+00 -0.27660128303E+02  0.91877912752E+02  0.87615456137E+02 0.  0.
        -13    1    3    3    0    0 -0.18820724131E+02  0.29790684794E+02  0.13463295076E+02  0.37722206611E+02  0.00000000000E+00 0. -1.
         13    1    3    3    0    0  0.18820724131E+02 -0.29790684794E+02 -0.41123423379E+02  0.54155706141E+02  0.00000000000E+00 0.  1.
<mgrwt>
<rscale>  0 0.87615456E+02</rscale>
<asrwt>0</asrwt>
<pdfrwt beam="1">  1        3 0.49398296E-02 0.87615456E+02</pdfrwt>
<pdfrwt beam="2">  1       -3 0.91952338E-02 0.87615456E+02</pdfrwt>
<totfact> 0.39314893E+04</totfact>
</mgrwt>
</event>
<event>
 5    1  0.6308903E+000  0.8728323E+02  0.7546771E-02  0.1309567E+00
          1   -1    0    0  501    0  0.00000000000E+00  0.00000000000E+00  0.16794668135E+02  0.16794668135E+02  0.00000000000E+00 0. -1.
         -1   -1    0    0    0  501 -0.00000000000E+00 -0.00000000000E+00 -0.11340446807E+03  0.11340446807E+03  0.00000000000E+00 0.  1.
         23    2    1    2    0    0  0.00000000000E+00  0.00000000000E+00 -0.96609799936E+02  0.13019913621E+03  0.87283226482E+02 0.  0.
        -13    1    3    3    0    0 -0.38610205840E+02  0.12697770157E+02 -0.72013273390E+02  0.82691552811E+02  0.00000000000E+00 0.  1.
         13    1    3    3    0    0  0.38610205840E+02 -0.12697770157E+02 -0.24596526546E+02  0.47507583395E+02  0.00000000000E+00 0. -1.
<mgrwt>
<rscale>  0 0.87283226E+02</rscale>
<asrwt>0</asrwt>
<pdfrwt beam="1">  1        1 0.25837950E-02 0.87283226E+02</pdfrwt>
<pdfrwt beam="2">  1       -1 0.17446842E-01 0.87283226E+02</pdfrwt>
<totfact> 0.88887676E+04</totfact>
</mgrwt>
</event>
<event>
 5    1  0.6308903E+000  0.9073829E+02  0.7546771E-02  0.1301074E+00
         -1   -1    0    0    0  501 -0.00000000000E+00  0.00000000000E+00  0.45927450367E+01  0.45927450367E+01  0.00000000000E+00 0.  1.
          1   -1    0    0  501    0  0.00000000000E+00 -0.00000000000E+00 -0.44817630469E+03  0.44817630469E+03  0.00000000000E+00 0. -1.
         23    2    1    2    0    0  0.00000000000E+00  0.00000000000E+00 -0.44358355965E+03  0.45276904973E+03  0.90738293987E+02 0.  0.
        -13    1    3    3    0    0 -0.10192808405E+02 -0.43344886945E+02 -0.26520245807E+03  0.26891451492E+03  0.00000000000E+00 0.  1.
         13    1    3    3    0    0  0.10192808405E+02  0.43344886945E+02 -0.17838110158E+03  0.18385453481E+03  0.00000000000E+00 0. -1.
<mgrwt>
<rscale>  0 0.90738294E+02</rscale>
<asrwt>0</asrwt>
<pdfrwt beam="2">  1        1 0.68950187E-01 0.90738294E+02</pdfrwt>
<pdfrwt beam="1">  1       -1 0.70657630E-03 0.90738294E+02</pdfrwt>
<totfact> 0.13904375E+05</totfact>
</mgrwt>
</event>
<event>
 5    1  0.6308903E+000  0.1058684E+03  0.7546771E-02  0.1268418E+00
          1   -1    0    0  501    0  0.00000000000E+00  0.00000000000E+00  0.45782586929E+03  0.45782586929E+03  0.00000000000E+00 0. -1.
         -1   -1    0    0    0  501 -0.00000000000E+00 -0.00000000000E+00 -0.61203004912E+01  0.61203004912E+01  0.00000000000E+00 0.  1.
         23    2    1    2    0    0  0.00000000000E+00  0.00000000000E+00  0.45170556879E+03  0.46394616978E+03  0.10586844464E+03 0.  0.
        -13    1    3    3    0    0  0.15820418095E+01  0.52558382612E+02  0.19914401405E+03  0.20596898983E+03  0.00000000000E+00 0.  1.
         13    1    3    3    0    0 -0.15820418095E+01 -0.52558382612E+02  0.25256155474E+03  0.25797717995E+03  0.00000000000E+00 0. -1.
<mgrwt>
<rscale>  0 0.10586844E+03</rscale>
<asrwt>0</asrwt>
<pdfrwt beam="1">  1        1 0.70434722E-01 0.10586844E+03</pdfrwt>
<pdfrwt beam="2">  1       -1 0.94158505E-03 0.10586844E+03</pdfrwt>
<totfact> 0.92372362E+04</totfact>
</mgrwt>
</event>
<event>
 5    1  0.6308903E+000  0.9103078E+02  0.7546771E-02  0.1300375E+00
          4   -1    0    0  501    0  0.00000000000E+00  0.00000000000E+00  0.73035923496E+02  0.73035923496E+02  0.00000000000E+00 0. -1.
         -4   -1    0    0    0  501 -0.00000000000E+00 -0.00000000000E+00 -0.28364817122E+02  0.28364817122E+02  0.00000000000E+00 0.  1.
         23    2    1    2    0    0  0.00000000000E+00  0.00000000000E+00  0.44671106374E+02  0.10140074062E+03  0.91030777505E+02 0.  0.
        -13    1    3    3    0    0  0.27715541119E+02  0.26715439489E+02 -0.47164619059E+01  0.38782869150E+02  0.00000000000E+00 0.  1.
         13    1    3    3    0    0 -0.27715541119E+02 -0.26715439489E+02  0.49387568280E+02  0.62617871468E+02  0.00000000000E+00 0. -1.
<mgrwt>
<rscale>  0 0.91030778E+02</rscale>
<asrwt>0</asrwt>
<pdfrwt beam="1">  1        4 0.11236296E-01 0.91030778E+02</pdfrwt>
<pdfrwt beam="2">  1       -4 0.43638180E-02 0.91030778E+02</pdfrwt>
<totfact> 0.26486894E+04</totfact>
</mgrwt>
</event>
<event>
 5    1  0.6308903E+000  0.9933864E+02  0.7546771E-02  0.1281693E+00
         -2   -1    0    0    0  501 -0.00000000000E+00  0.00000000000E+00  0.30793237716E+02  0.30793237716E+02  0.00000000000E+00 0.  1.
          2   -1    0    0  501    0  0.00000000000E+00 -0.00000000000E+00 -0.80116341086E+02  0.80116341086E+02  0.00000000000E+00 0. -1.
         23    2    1    2    0    0  0.00000000000E+00  0.00000000000E+00 -0.49323103370E+02  0.11090957880E+03  0.99338643759E+02 0.  0.
        -13    1    3    3    0    0  0.45291113774E+02 -0.52280911833E+01 -0.26574501324E+01  0.45669245292E+02  0.00000000000E+00 0.  1.
         13    1    3    3    0    0 -0.45291113774E+02  0.52280911833E+01 -0.46665653237E+02  0.65240333509E+02  0.00000000000E+00 0. -1.
<mgrwt>
<rscale>  0 0.99338644E+02</rscale>
<asrwt>0</asrwt>
<pdfrwt beam="2">  1        2 0.12325591E-01 0.99338644E+02</pdfrwt>
<pdfrwt beam="1">  1       -2 0.47374212E-02 0.99338644E+02</pdfrwt>
<totfact> 0.90375044E+04</totfact>
</mgrwt>
</event>
<event>
 5    1  0.6308903E+000  0.1020555E+03  0.7546771E-02  0.1276032E+00
          2   -1    0    0  501    0  0.00000000000E+00  0.00000000000E+00  0.28727313828E+03  0.28727313828E+03  0.00000000000E+00 0. -1.
         -2   -1    0    0    0  501 -0.00000000000E+00 -0.00000000000E+00 -0.90639510791E+01  0.90639510791E+01  0.00000000000E+00 0.  1.
         23    2    1    2    0    0  0.00000000000E+00  0.00000000000E+00  0.27820918720E+03  0.29633708935E+03  0.10205546868E+03 0.  0.
        -13    1    3    3    0    0 -0.14346125696E+02  0.39711034780E+02  0.55902342137E+02  0.70056045151E+02  0.00000000000E+00 0.  1.
         13    1    3    3    0    0  0.14346125696E+02 -0.39711034780E+02  0.22230684506E+03  0.22628104420E+03  0.00000000000E+00 0. -1.
<mgrwt>
<rscale>  0 0.10205547E+03</rscale>
<asrwt>0</asrwt>
<pdfrwt beam="1">  1        2 0.44195860E-01 0.10205547E+03</pdfrwt>
<pdfrwt beam="2">  1       -2 0.13944542E-02 0.10205547E+03</pdfrwt>
<totfact> 0.13056644E+05</totfact>
</mgrwt>
</event>
<event>
 5    1  0.6308903E+000  0.9095579E+02  0.7546771E-02  0.1300553E+00
          2   -1    0    0  501    0  0.00000000000E+00  0.00000000000E+00  0.10798777812E+02  0.10798777812E+02  0.00000000000E+00 0. -1.
         -2   -1    0    0    0  501 -0.00000000000E+00 -0.00000000000E+00 -0.19152529655E+03  0.19152529655E+03  0.00000000000E+00 0.  1.
         23    2    1    2    0    0  0.00000000000E+00  0.00000000000E+00 -0.18072651874E+03  0.20232407436E+03  0.90955794160E+02 0.  0.
        -13    1    3    3    0    0 -0.35328356898E+02 -0.31128450353E+01 -0.15368925864E+03  0.15772815483E+03  0.00000000000E+00 0. -1.
         13    1    3    3    0    0  0.35328356898E+02  0.31128450353E+01 -0.27037260105E+02  0.44595919536E+02  0.00000000000E+00 0.  1.
<mgrwt>
<rscale>  0 0.90955794E+02</rscale>
<asrwt>0</asrwt>
<pdfrwt beam="1">  1        2 0.16613505E-02 0.90955794E+02</pdfrwt>
<pdfrwt beam="2">  1       -2 0.29465429E-01 0.90955794E+02</pdfrwt>
<totfact> 0.63877104E+04</totfact>
</mgrwt>
</event>
<event>
 5    1  0.6308903E+000  0.9006880E+02  0.7546771E-02  0.1302685E+00
         -1   -1    0    0    0  501 -0.00000000000E+00  0.00000000000E+00  0.37109187455E+02  0.37109187455E+02  0.00000000000E+00 0.  1.
          1   -1    0    0  501    0  0.00000000000E+00 -0.00000000000E+00 -0.54652161628E+02  0.54652161628E+02  0.00000000000E+00 0. -1.
         23    2    1    2    0    0  0.00000000000E+00  0.00000000000E+00 -0.17542974173E+02  0.91761349082E+02  0.90068802827E+02 0.  0.
        -13    1    3    3    0    0 -0.34139225573E+02 -0.28195950360E+02 -0.17147849182E+02  0.47482071048E+02  0.00000000000E+00 0. -1.
         13    1    3    3    0    0  0.34139225573E+02  0.28195950360E+02 -0.39512499020E+00  0.44279278034E+02  0.00000000000E+00 0.  1.
<mgrwt>
<rscale>  0 0.90068803E+02</rscale>
<asrwt>0</asrwt>
<pdfrwt beam="2">  1        1 0.84080248E-02 0.90068803E+02</pdfrwt>
<pdfrwt beam="1">  1       -1 0.57091058E-02 0.90068803E+02</pdfrwt>
<totfact> 0.98309471E+04</totfact>
</mgrwt>
</event>
<event>
 5    1  0.6308903E+000  0.9148562E+02  0.7546771E-02  0.1299293E+00
          1   -1    0    0  501    0  0.00000000000E+00  0.00000000000E+00  0.56318216612E+02  0.56318216612E+02  0.00000000000E+00 0. -1.
         -1   -1    0    0    0  501 -0.00000000000E+00 -0.00000000000E+00 -0.37153247389E+02  0.37153247389E+02  0.00000000000E+00 0.  1.
         23    2    1    2    0    0  0.00000000000E+00  0.00000000000E+00  0.19164969223E+02  0.93471464000E+02  0.91485619291E+02 0.  0.
        -13    1    3    3    0    0  0.42839731379E+02  0.12420278290E+02 -0.78160678908E+00  0.44610725242E+02  0.00000000000E+00 0.  1.
         13    1    3    3    0    0 -0.42839731379E+02 -0.12420278290E+02  0.19946576012E+02  0.48860738758E+02  0.00000000000E+00 0. -1.
<mgrwt>
<rscale>  0 0.91485619E+02</rscale>
<asrwt>0</asrwt>
<pdfrwt beam="1">  1        1 0.86643410E-02 0.91485619E+02</pdfrwt>
<pdfrwt beam="2">  1       -1 0.57158842E-02 0.91485619E+02</pdfrwt>
<totfact> 0.94560292E+04</totfact>
</mgrwt>
</event>
<event>
 5    1  0.6308903E+000  0.8872513E+02  0.7546771E-02  0.1305969E+00
          2   -1    0    0  501    0  0.00000000000E+00  0.00000000000E+00  0.75010002971E+02  0.75010002971E+02  0.00000000000E+00 0.  1.
         -2   -1    0    0    0  501 -0.00000000000E+00 -0.00000000000E+00 -0.26236994344E+02  0.26236994344E+02  0.00000000000E+00 0. -1.
         23    2    1    2    0    0  0.00000000000E+00  0.00000000000E+00  0.48773008626E+02  0.10124699732E+03  0.88725126627E+02 0.  0.
        -13    1    3    3    0    0  0.39689682047E+02  0.17311345756E+02  0.13376897512E+02  0.45319917695E+02  0.00000000000E+00 0.  1.
         13    1    3    3    0    0 -0.39689682047E+02 -0.17311345756E+02  0.35396111115E+02  0.55927079620E+02  0.00000000000E+00 0. -1.
<mgrwt>
<rscale>  0 0.88725127E+02</rscale>
<asrwt>0</asrwt>
<pdfrwt beam="1">  1        2 0.11540000E-01 0.88725127E+02</pdfrwt>
<pdfrwt beam="2">  1       -2 0.40364607E-02 0.88725127E+02</pdfrwt>
<totfact> 0.12165147E+05</totfact>
</mgrwt>
</event>
<event>
 5    1  0.6308903E+000  0.5648028E+02  0.7546771E-02  0.1413225E+00
         -1   -1    0    0    0  501 -0.00000000000E+00  0.00000000000E+00  0.28771316140E+02  0.28771316140E+02  0.00000000000E+00 0.  1.
          1   -1    0    0  501    0  0.00000000000E+00 -0.00000000000E+00 -0.27718766267E+02  0.27718766267E+02  0.00000000000E+00 0. -1.
         23    2    1    2    0    0  0.00000000000E+00  0.00000000000E+00  0.10525498730E+01  0.56490082408E+02  0.56480275753E+02 0.  0.
        -13    1    3    3    0    0 -0.15746524547E+02  0.25961423134E-01 -0.22920313975E+02  0.27808173295E+02  0.00000000000E+00 0. -1.
         13    1    3    3    0    0  0.15746524547E+02 -0.25961423134E-01  0.23972863848E+02  0.28681909113E+02  0.00000000000E+00 0.  1.
<mgrwt>
<rscale>  0 0.56480276E+02</rscale>
<asrwt>0</asrwt>
<pdfrwt beam="2">  1        1 0.42644256E-02 0.56480276E+02</pdfrwt>
<pdfrwt beam="1">  1       -1 0.44263563E-02 0.56480276E+02</pdfrwt>
<totfact> 0.32079150E+05</totfact>
</mgrwt>
</event>
<event>
 5    1  0.6308903E+000  0.9101831E+02  0.7546771E-02  0.1300404E+00
         -3   -1    0    0    0  501 -0.00000000000E+00  0.00000000000E+00  0.86360787165E+01  0.86360787165E+01  0.00000000000E+00 0. -1.
          3   -1    0    0  501    0  0.00000000000E+00 -0.00000000000E+00 -0.23981753294E+03  0.23981753294E+03  0.00000000000E+00 0.  1.
         23    2    1    2    0    0  0.00000000000E+00  0.00000000000E+00 -0.23118145422E+03  0.24845361165E+03  0.91018307873E+02 0.  0.
        -13    1    3    3    0    0 -0.33558350998E+02 -0.30519824708E+02 -0.12560562835E+03  0.13354548474E+03  0.00000000000E+00 0.  1.
         13    1    3    3    0    0  0.33558350998E+02  0.30519824708E+02 -0.10557582587E+03  0.11490812691E+03  0.00000000000E+00 0. -1.
<mgrwt>
<rscale>  0 0.91018308E+02</rscale>
<asrwt>0</asrwt>
<pdfrwt beam="2">  1        3 0.36895000E-01 0.91018308E+02</pdfrwt>
<pdfrwt beam="1">  1       -3 0.13286277E-02 0.91018308E+02</pdfrwt>
<totfact> 0.26295606E+04</totfact>
</mgrwt>
</event>
<event>
 5    1  0.6308903E+000  0.8542775E+02  0.7546771E-02  0.1314318E+00
         -2   -1    0    0    0  501 -0.00000000000E+00  0.00000000000E+00  0.62009338059E+02  0.62009338059E+02  0.00000000000E+00 0.  1.
          2   -1    0    0  501    0  0.00000000000E+00 -0.00000000000E+00 -0.29422589223E+02  0.29422589223E+02  0.00000000000E+00 0. -1.
         23    2    1    2    0    0  0.00000000000E+00  0.00000000000E+00  0.32586748836E+02  0.91431927282E+02  0.85427753844E+02 0.  0.
        -13    1    3    3    0    0 -0.15696700529E+02  0.29397729416E+02  0.44889430118E+02  0.55907726108E+02  0.00000000000E+00 0.  1.
         13    1    3    3    0    0  0.15696700529E+02 -0.29397729416E+02 -0.12302681282E+02  0.35524201174E+02  0.00000000000E+00 0. -1.
<mgrwt>
<rscale>  0 0.85427754E+02</rscale>
<asrwt>0</asrwt>
<pdfrwt beam="2">  1        2 0.45265522E-02 0.85427754E+02</pdfrwt>
<pdfrwt beam="1">  1       -2 0.95398981E-02 0.85427754E+02</pdfrwt>
<totfact> 0.10662904E+05</totfact>
</mgrwt>
</event>
<event>
 5    1  0.6308903E+000  0.9126711E+02  0.7546771E-02  0.1299812E+00
          1   -1    0    0  501    0  0.00000000000E+00  0.00000000000E+00  0.10819416088E+02  0.10819416088E+02  0.00000000000E+00 0. -1.
         -1   -1    0    0    0  501 -0.00000000000E+00 -0.00000000000E+00 -0.19247076919E+03  0.19247076919E+03  0.00000000000E+00 0.  1.
         23    2    1    2    0    0  0.00000000000E+00  0.00000000000E+00 -0.18165135310E+03  0.20329018528E+03  0.91267109883E+02 0.  0.
        -13    1    3    3    0    0  0.44254073446E+01  0.31089501074E+02 -0.16457581925E+03  0.16754504346E+03  0.00000000000E+00 0.  1.
         13    1    3    3    0    0 -0.44254073446E+01 -0.31089501074E+02 -0.17075533858E+02  0.35745141820E+02  0.00000000000E+00 0. -1.
<mgrwt>
<rscale>  0 0.91267110E+02</rscale>
<asrwt>0</asrwt>
<pdfrwt beam="1">  1        1 0.16645256E-02 0.91267110E+02</pdfrwt>
<pdfrwt beam="2">  1       -1 0.29610887E-01 0.91267110E+02</pdfrwt>
<totfact> 0.69999476E+04</totfact>
</mgrwt>
</event>
<event>
 5    1  0.6308903E+000  0.9133888E+02  0.7546771E-02  0.1299641E+00
         -1   -1    0    0    0  501 -0.00000000000E+00  0.00000000000E+00  0.15673742728E+03  0.15673742728E+03  0.00000000000E+00 0.  1.
          1   -1    0    0  501    0  0.00000000000E+00 -0.00000000000E+00 -0.13306955529E+02  0.13306955529E+02  0.00000000000E+00 0. -1.
         23    2    1    2    0    0  0.00000000000E+00  0.00000000000E+00  0.14343047175E+03  0.17004438281E+03  0.91338884919E+02 0.  0.
        -13    1    3    3    0    0 -0.40094745202E+02  0.17954189278E+02  0.48480933791E+02  0.65424326108E+02  0.00000000000E+00 0. -1.
         13    1    3    3    0    0  0.40094745202E+02 -0.17954189278E+02  0.94949537960E+02  0.10462005670E+03  0.00000000000E+00 0.  1.
<mgrwt>
<rscale>  0 0.91338885E+02</rscale>
<asrwt>0</asrwt>
<pdfrwt beam="2">  1        1 0.20472240E-02 0.91338885E+02</pdfrwt>
<pdfrwt beam="1">  1       -1 0.24113449E-01 0.91338885E+02</pdfrwt>
<totfact> 0.73671303E+04</totfact>
</mgrwt>
</event>
<event>
 5    1  0.6308903E+000  0.9264022E+02  0.7546771E-02  0.1296581E+00
         -2   -1    0    0    0  501 -0.00000000000E+00  0.00000000000E+00  0.15702674768E+02  0.15702674768E+02  0.00000000000E+00 0.  1.
          2   -1    0    0  501    0  0.00000000000E+00 -0.00000000000E+00 -0.13663611991E+03  0.13663611991E+03  0.00000000000E+00 0. -1.
         23    2    1    2    0    0  0.00000000000E+00  0.00000000000E+00 -0.12093344514E+03  0.15233879467E+03  0.92640219180E+02 0.  0.
        -13    1    3    3    0    0 -0.44324051958E+02  0.13357870423E+02 -0.57867577761E+02  0.74106078294E+02  0.00000000000E+00 0.  1.
         13    1    3    3    0    0  0.44324051958E+02 -0.13357870423E+02 -0.63065867377E+02  0.78232716380E+02  0.00000000000E+00 0. -1.
<mgrwt>
<rscale>  0 0.92640219E+02</rscale>
<asrwt>0</asrwt>
<pdfrwt beam="2">  1        2 0.21020942E-01 0.92640219E+02</pdfrwt>
<pdfrwt beam="1">  1       -2 0.24157960E-02 0.92640219E+02</pdfrwt>
<totfact> 0.12973244E+05</totfact>
</mgrwt>
</event>
<event>
 5    1  0.6308903E+000  0.8910839E+02  0.7546771E-02  0.1305025E+00
         -2   -1    0    0    0  501 -0.00000000000E+00  0.00000000000E+00  0.49481524628E+02  0.49481524628E+02  0.00000000000E+00 0. -1.
          2   -1    0    0  501    0  0.00000000000E+00 -0.00000000000E+00 -0.40117522480E+02  0.40117522480E+02  0.00000000000E+00 0.  1.
         23    2    1    2    0    0  0.00000000000E+00  0.00000000000E+00  0.93640021483E+01  0.89599047108E+02  0.89108387408E+02 0.  0.
        -13    1    3    3    0    0  0.25702247525E+02  0.28829151053E+02 -0.17651801886E+02  0.42465416377E+02  0.00000000000E+00 0.  1.
         13    1    3    3    0    0 -0.25702247525E+02 -0.28829151053E+02  0.27015804034E+02  0.47133630731E+02  0.00000000000E+00 0. -1.
<mgrwt>
<rscale>  0 0.89108387E+02</rscale>
<asrwt>0</asrwt>
<pdfrwt beam="2">  1        2 0.61719265E-02 0.89108387E+02</pdfrwt>
<pdfrwt beam="1">  1       -2 0.76125423E-02 0.89108387E+02</pdfrwt>
<totfact> 0.10199821E+05</totfact>
</mgrwt>
</event>
<event>
 5    1  0.6308903E+000  0.9200328E+02  0.7546771E-02  0.1298072E+00
         -4   -1    0    0    0  501 -0.00000000000E+00  0.00000000000E+00  0.44385432335E+02  0.44385432335E+02  0.00000000000E+00 0. -1.
          4   -1    0    0  501    0  0.00000000000E+00 -0.00000000000E+00 -0.47676698961E+02  0.47676698961E+02  0.00000000000E+00 0.  1.
         23    2    1    2    0    0  0.00000000000E+00  0.00000000000E+00 -0.32912666259E+01  0.92062131297E+02  0.92003280283E+02 0.  0.
        -13    1    3    3    0    0  0.16897095248E+02  0.31747302727E+02 -0.30347562435E+02  0.47057173779E+02  0.00000000000E+00 0.  1.
         13    1    3    3    0    0 -0.16897095248E+02 -0.31747302727E+02  0.27056295809E+02  0.45004957518E+02  0.00000000000E+00 0. -1.
<mgrwt>
<rscale>  0 0.92003280E+02</rscale>
<asrwt>0</asrwt>
<pdfrwt beam="2">  1        4 0.73348767E-02 0.92003280E+02</pdfrwt>
<pdfrwt beam="1">  1       -4 0.68285281E-02 0.92003280E+02</pdfrwt>
<totfact> 0.26305288E+04</totfact>
</mgrwt>
</event>
<event>
 5    1  0.6308903E+000  0.9096259E+02  0.7546771E-02  0.1300537E+00
          2   -1    0    0  501    0  0.00000000000E+00  0.00000000000E+00  0.11581745677E+02  0.11581745677E+02  0.00000000000E+00 0. -1.
         -2   -1    0    0    0  501 -0.00000000000E+00 -0.00000000000E+00 -0.17860417123E+03  0.17860417123E+03  0.00000000000E+00 0.  1.
         23    2    1    2    0    0  0.00000000000E+00  0.00000000000E+00 -0.16702242555E+03  0.19018591690E+03  0.90962587648E+02 0.  0.
        -13    1    3    3    0    0  0.27182061994E+01 -0.37611239510E+02 -0.30347171666E+02  0.48403975152E+02  0.00000000000E+00 0.  1.
         13    1    3    3    0    0 -0.27182061994E+01  0.37611239510E+02 -0.13667525388E+03  0.14178194175E+03  0.00000000000E+00 0. -1.
<mgrwt>
<rscale>  0 0.90962588E+02</rscale>
<asrwt>0</asrwt>
<pdfrwt beam="1">  1        2 0.17818071E-02 0.90962588E+02</pdfrwt>
<pdfrwt beam="2">  1       -2 0.27477564E-01 0.90962588E+02</pdfrwt>
<totfact> 0.65731821E+04</totfact>
</mgrwt>
</event>
<event>
 5    1  0.6308903E+000  0.9597233E+02  0.7546771E-02  0.1289001E+00
          2   -1    0    0  501    0  0.00000000000E+00  0.00000000000E+00  0.40206619246E+02  0.40206619246E+02  0.00000000000E+00 0. -1.
         -2   -1    0    0    0  501 -0.00000000000E+00 -0.00000000000E+00 -0.57270965611E+02  0.57270965611E+02  0.00000000000E+00 0.  1.
         23    2    1    2    0    0  0.00000000000E+00  0.00000000000E+00 -0.17064346365E+02  0.97477584857E+02  0.95972327432E+02 0.  0.
        -13    1    3    3    0    0 -0.17545374434E+02 -0.71519320082E+01  0.36246507778E+02  0.40899873124E+02  0.00000000000E+00 0. -1.
         13    1    3    3    0    0  0.17545374434E+02  0.71519320082E+01 -0.53310854143E+02  0.56577711733E+02  0.00000000000E+00 0.  1.
<mgrwt>
<rscale>  0 0.95972327E+02</rscale>
<asrwt>0</asrwt>
<pdfrwt beam="1">  1        2 0.61856337E-02 0.95972327E+02</pdfrwt>
<pdfrwt beam="2">  1       -2 0.88109178E-02 0.95972327E+02</pdfrwt>
<totfact> 0.82261898E+04</totfact>
</mgrwt>
</event>
<event>
 5    1  0.6308903E+000  0.9190471E+02  0.7546771E-02  0.1298304E+00
         -2   -1    0    0    0  501 -0.00000000000E+00  0.00000000000E+00  0.12918736306E+03  0.12918736306E+03  0.00000000000E+00 0.  1.
          2   -1    0    0  501    0  0.00000000000E+00 -0.00000000000E+00 -0.16345399327E+02  0.16345399327E+02  0.00000000000E+00 0. -1.
         23    2    1    2    0    0  0.00000000000E+00  0.00000000000E+00  0.11284196373E+03  0.14553276239E+03  0.91904712332E+02 0.  0.
        -13    1    3    3    0    0 -0.16856095910E+02  0.16172355567E+02  0.11908401050E+03  0.12135351091E+03  0.00000000000E+00 0.  1.
         13    1    3    3    0    0  0.16856095910E+02 -0.16172355567E+02 -0.62420467694E+01  0.24179251473E+02  0.00000000000E+00 0. -1.
<mgrwt>
<rscale>  0 0.91904712E+02</rscale>
<asrwt>0</asrwt>
<pdfrwt beam="2">  1        2 0.25146769E-02 0.91904712E+02</pdfrwt>
<pdfrwt beam="1">  1       -2 0.19874978E-01 0.91904712E+02</pdfrwt>
<totfact> 0.72143084E+04</totfact>
</mgrwt>
</event>
<event>
 5    1  0.6308903E+000  0.9058854E+02  0.7546771E-02  0.1301433E+00
         -2   -1    0    0    0  501 -0.00000000000E+00  0.00000000000E+00  0.58114442689E+01  0.58114442689E+01  0.00000000000E+00 0. -1.
          2   -1    0    0  501    0  0.00000000000E+00 -0.00000000000E+00 -0.35302251908E+03  0.35302251908E+03  0.00000000000E+00 0.  1.
         23    2    1    2    0    0  0.00000000000E+00  0.00000000000E+00 -0.34721107482E+03  0.35883396335E+03  0.90588535595E+02 0.  0.
        -13    1    3    3    0    0  0.13816200131E+02  0.42729295614E+02 -0.15020776262E+03  0.15677707754E+03  0.00000000000E+00 0. -1.
         13    1    3    3    0    0 -0.13816200131E+02 -0.42729295614E+02 -0.19700331220E+03  0.20205688582E+03  0.00000000000E+00 0.  1.
<mgrwt>
<rscale>  0 0.90588536E+02</rscale>
<asrwt>0</asrwt>
<pdfrwt beam="2">  1        2 0.54311190E-01 0.90588536E+02</pdfrwt>
<pdfrwt beam="1">  1       -2 0.89406781E-03 0.90588536E+02</pdfrwt>
<totfact> 0.19410767E+05</totfact>
</mgrwt>
</event>
<event>
 5    1  0.6308903E+000  0.9568448E+02  0.7546771E-02  0.1289642E+00
         -3   -1    0    0    0  501 -0.00000000000E+00  0.00000000000E+00  0.17986359322E+02  0.17986359322E+02  0.00000000000E+00 0.  1.
          3   -1    0    0  501    0  0.00000000000E+00 -0.00000000000E+00 -0.12725642414E+03  0.12725642414E+03  0.00000000000E+00 0. -1.
         23    2    1    2    0    0  0.00000000000E+00  0.00000000000E+00 -0.10927006482E+03  0.14524278346E+03  0.95684476706E+02 0.  0.
        -13    1    3    3    0    0 -0.36469483132E+02  0.16092208803E+02 -0.94792864830E+02  0.10283321257E+03  0.00000000000E+00 0. -1.
         13    1    3    3    0    0  0.36469483132E+02 -0.16092208803E+02 -0.14477199988E+02  0.42409570896E+02  0.00000000000E+00 0.  1.
<mgrwt>
<rscale>  0 0.95684477E+02</rscale>
<asrwt>0</asrwt>
<pdfrwt beam="2">  1        3 0.19577912E-01 0.95684477E+02</pdfrwt>
<pdfrwt beam="1">  1       -3 0.27671320E-02 0.95684477E+02</pdfrwt>
<totfact> 0.27712987E+04</totfact>
</mgrwt>
</event>
<event>
 5    1  0.6308903E+000  0.9291820E+02  0.7546771E-02  0.1295935E+00
          1   -1    0    0  501    0  0.00000000000E+00  0.00000000000E+00  0.33155187272E+02  0.33155187272E+02  0.00000000000E+00 0. -1.
         -1   -1    0    0    0  501 -0.00000000000E+00 -0.00000000000E+00 -0.65101358955E+02  0.65101358955E+02  0.00000000000E+00 0.  1.
         23    2    1    2    0    0  0.00000000000E+00  0.00000000000E+00 -0.31946171683E+02  0.98256546227E+02  0.92918195157E+02 0.  0.
        -13    1    3    3    0    0 -0.25454123950E+02  0.36169771964E+02 -0.31012826022E+02  0.54018147023E+02  0.00000000000E+00 0.  1.
         13    1    3    3    0    0  0.25454123950E+02 -0.36169771964E+02 -0.93334566138E+00  0.44238399204E+02  0.00000000000E+00 0. -1.
<mgrwt>
<rscale>  0 0.92918195E+02</rscale>
<asrwt>0</asrwt>
<pdfrwt beam="1">  1        1 0.51007981E-02 0.92918195E+02</pdfrwt>
<pdfrwt beam="2">  1       -1 0.10015594E-01 0.92918195E+02</pdfrwt>
<totfact> 0.83433873E+04</totfact>
</mgrwt>
</event>
<event>
 5    1  0.6308903E+000  0.9086941E+02  0.7546771E-02  0.1300760E+00
          2   -1    0    0  501    0  0.00000000000E+00  0.00000000000E+00  0.22060977170E+03  0.22060977170E+03  0.00000000000E+00 0. -1.
         -2   -1    0    0    0  501 -0.00000000000E+00 -0.00000000000E+00 -0.93573028509E+01  0.93573028509E+01  0.00000000000E+00 0.  1.
         23    2    1    2    0    0  0.00000000000E+00  0.00000000000E+00  0.21125246885E+03  0.22996707455E+03  0.90869410600E+02 0.  0.
        -13    1    3    3    0    0  0.77809567740E+01  0.31119834977E+02  0.24195883599E+02  0.40179947741E+02  0.00000000000E+00 0.  1.
         13    1    3    3    0    0 -0.77809567740E+01 -0.31119834977E+02  0.18705658525E+03  0.18978712681E+03  0.00000000000E+00 0. -1.
<mgrwt>
<rscale>  0 0.90869411E+02</rscale>
<asrwt>0</asrwt>
<pdfrwt beam="1">  1        2 0.33939961E-01 0.90869411E+02</pdfrwt>
<pdfrwt beam="2">  1       -2 0.14395852E-02 0.90869411E+02</pdfrwt>
<totfact> 0.16176314E+05</totfact>
</mgrwt>
</event>
<event>
 5    1  0.6308903E+000  0.8987875E+02  0.7546771E-02  0.1303146E+00
          1   -1    0    0  501    0  0.00000000000E+00  0.00000000000E+00  0.18531883685E+03  0.18531883685E+03  0.00000000000E+00 0. -1.
         -1   -1    0    0    0  501 -0.00000000000E+00 -0.00000000000E+00 -0.10897692011E+02  0.10897692011E+02  0.00000000000E+00 0.  1.
         23    2    1    2    0    0  0.00000000000E+00  0.00000000000E+00  0.17442114484E+03  0.19621652886E+03  0.89878754061E+02 0.  0.
        -13    1    3    3    0    0  0.41714524322E+02  0.16005856232E+02  0.76681971725E+02  0.88749162028E+02  0.00000000000E+00 0.  1.
         13    1    3    3    0    0 -0.41714524322E+02 -0.16005856232E+02  0.97739173115E+02  0.10746736683E+03  0.00000000000E+00 0. -1.
<mgrwt>
<rscale>  0 0.89878754E+02</rscale>
<asrwt>0</asrwt>
<pdfrwt beam="1">  1        1 0.28510588E-01 0.89878754E+02</pdfrwt>
<pdfrwt beam="2">  1       -1 0.16765681E-02 0.89878754E+02</pdfrwt>
<totfact> 0.12124994E+05</totfact>
</mgrwt>
</event>
<event>
 5    1  0.6308903E+000  0.9000331E+02  0.7546771E-02  0.1302844E+00
         -3   -1    0    0    0  501 -0.00000000000E+00  0.00000000000E+00  0.32467310904E+03  0.32467310904E+03  0.00000000000E+00 0.  1.
          3   -1    0    0  501    0  0.00000000000E+00 -0.00000000000E+00 -0.62375007479E+01  0.62375007479E+01  0.00000000000E+00 0. -1.
         23    2    1    2    0    0  0.00000000000E+00  0.00000000000E+00  0.31843560830E+03  0.33091060979E+03  0.90003305728E+02 0.  0.
        -13    1    3    3    0    0 -0.17678931285E+01  0.44634953582E+02  0.13916599239E+03  0.14615942653E+03  0.00000000000E+00 0.  1.
         13    1    3    3    0    0  0.17678931285E+01 -0.44634953582E+02  0.17926961591E+03  0.18475118326E+03  0.00000000000E+00 0. -1.
<mgrwt>
<rscale>  0 0.90003306E+02</rscale>
<asrwt>0</asrwt>
<pdfrwt beam="2">  1        3 0.95961575E-03 0.90003306E+02</pdfrwt>
<pdfrwt beam="1">  1       -3 0.49949696E-01 0.90003306E+02</pdfrwt>
<totfact> 0.23679557E+04</totfact>
</mgrwt>
</event>
<event>
 5    1  0.6308903E+000  0.8780241E+02  0.7546771E-02  0.1308262E+00
         -3   -1    0    0    0  501 -0.00000000000E+00  0.00000000000E+00  0.98434990857E+01  0.98434990857E+01  0.00000000000E+00 0.  1.
          3   -1    0    0  501    0  0.00000000000E+00 -0.00000000000E+00 -0.19579581673E+03  0.19579581673E+03  0.00000000000E+00 0. -1.
         23    2    1    2    0    0  0.00000000000E+00  0.00000000000E+00 -0.18595231765E+03  0.20563931582E+03  0.87802413247E+02 0.  0.
        -13    1    3    3    0    0  0.34134039461E+02  0.27022831960E+02 -0.10621451562E+03  0.11479063300E+03  0.00000000000E+00 0. -1.
         13    1    3    3    0    0 -0.34134039461E+02 -0.27022831960E+02 -0.79737802031E+02  0.90848682818E+02  0.00000000000E+00 0.  1.
<mgrwt>
<rscale>  0 0.87802413E+02</rscale>
<asrwt>0</asrwt>
<pdfrwt beam="2">  1        3 0.30122432E-01 0.87802413E+02</pdfrwt>
<pdfrwt beam="1">  1       -3 0.15143846E-02 0.87802413E+02</pdfrwt>
<totfact> 0.31218452E+04</totfact>
</mgrwt>
</event>
<event>
 5    1  0.6308903E+000  0.9237926E+02  0.7546771E-02  0.1297190E+00
         -4   -1    0    0    0  501 -0.00000000000E+00  0.00000000000E+00  0.16936182292E+02  0.16936182292E+02  0.00000000000E+00 0. -1.
          4   -1    0    0  501    0  0.00000000000E+00 -0.00000000000E+00 -0.12597183273E+03  0.12597183273E+03  0.00000000000E+00 0.  1.
         23    2    1    2    0    0  0.00000000000E+00  0.00000000000E+00 -0.10903565044E+03  0.14290801503E+03  0.92379260071E+02 0.  0.
        -13    1    3    3    0    0 -0.33581353013E+02  0.31656104422E+02 -0.57479660432E+02  0.73713822182E+02  0.00000000000E+00 0. -1.
         13    1    3    3    0    0  0.33581353013E+02 -0.31656104422E+02 -0.51555990010E+02  0.69194192843E+02  0.00000000000E+00 0.  1.
<mgrwt>
<rscale>  0 0.92379260E+02</rscale>
<asrwt>0</asrwt>
<pdfrwt beam="2">  1        4 0.19380282E-01 0.92379260E+02</pdfrwt>
<pdfrwt beam="1">  1       -4 0.26055666E-02 0.92379260E+02</pdfrwt>
<totfact> 0.23198725E+04</totfact>
</mgrwt>
</event>
<event>
 5    1  0.6308903E+000  0.9111498E+02  0.7546771E-02  0.1300174E+00
          2   -1    0    0  501    0  0.00000000000E+00  0.00000000000E+00  0.22788557995E+03  0.22788557995E+03  0.00000000000E+00 0. -1.
         -2   -1    0    0    0  501 -0.00000000000E+00 -0.00000000000E+00 -0.91075749697E+01  0.91075749697E+01  0.00000000000E+00 0.  1.
         23    2    1    2    0    0  0.00000000000E+00  0.00000000000E+00  0.21877800498E+03  0.23699315492E+03  0.91114982388E+02 0.  0.
        -13    1    3    3    0    0  0.27660875165E+02  0.28796618417E+02  0.52337012527E+02  0.65829568792E+02  0.00000000000E+00 0.  1.
         13    1    3    3    0    0 -0.27660875165E+02 -0.28796618417E+02  0.16644099245E+03  0.17116358612E+03  0.00000000000E+00 0. -1.
<mgrwt>
<rscale>  0 0.91114982E+02</rscale>
<asrwt>0</asrwt>
<pdfrwt beam="1">  1        2 0.35059316E-01 0.91114982E+02</pdfrwt>
<pdfrwt beam="2">  1       -2 0.14011656E-02 0.91114982E+02</pdfrwt>
<totfact> 0.16251865E+05</totfact>
</mgrwt>
</event>
<event>
 5    1  0.6308903E+000  0.9019935E+02  0.7546771E-02  0.1302370E+00
          2   -1    0    0  501    0  0.00000000000E+00  0.00000000000E+00  0.45608631765E+02  0.45608631765E+02  0.00000000000E+00 0. -1.
         -2   -1    0    0    0  501 -0.00000000000E+00 -0.00000000000E+00 -0.44596395908E+02  0.44596395908E+02  0.00000000000E+00 0.  1.
         23    2    1    2    0    0  0.00000000000E+00  0.00000000000E+00  0.10122358571E+01  0.90205027673E+02  0.90199348091E+02 0.  0.
        -13    1    3    3    0    0  0.31503837867E+02  0.31511685650E+02 -0.64586917960E+01  0.45024358214E+02  0.00000000000E+00 0.  1.
         13    1    3    3    0    0 -0.31503837867E+02 -0.31511685650E+02  0.74709276531E+01  0.45180669460E+02  0.00000000000E+00 0. -1.
<mgrwt>
<rscale>  0 0.90199348E+02</rscale>
<asrwt>0</asrwt>
<pdfrwt beam="1">  1        2 0.70167126E-02 0.90199348E+02</pdfrwt>
<pdfrwt beam="2">  1       -2 0.68609839E-02 0.90199348E+02</pdfrwt>
<totfact> 0.10178051E+05</totfact>
</mgrwt>
</event>
<event>
 5    1  0.6308903E+000  0.8889618E+02  0.7546771E-02  0.1305547E+00
          2   -1    0    0  501    0  0.00000000000E+00  0.00000000000E+00  0.94188722221E+01  0.94188722221E+01  0.00000000000E+00 0. -1.
         -2   -1    0    0    0  501 -0.00000000000E+00 -0.00000000000E+00 -0.20975258160E+03  0.20975258160E+03  0.00000000000E+00 0.  1.
         23    2    1    2    0    0  0.00000000000E+00  0.00000000000E+00 -0.20033370938E+03  0.21917145382E+03  0.88896181344E+02 0.  0.
        -13    1    3    3    0    0  0.35629643791E+02  0.21265056177E+02 -0.60876823504E+02  0.73672666375E+02  0.00000000000E+00 0. -1.
         13    1    3    3    0    0 -0.35629643791E+02 -0.21265056177E+02 -0.13945688588E+03  0.14549878745E+03  0.00000000000E+00 0.  1.
<mgrwt>
<rscale>  0 0.88896181E+02</rscale>
<asrwt>0</asrwt>
<pdfrwt beam="1">  1        2 0.14490574E-02 0.88896181E+02</pdfrwt>
<pdfrwt beam="2">  1       -2 0.32269625E-01 0.88896181E+02</pdfrwt>
<totfact> 0.65107407E+04</totfact>
</mgrwt>
</event>
<event>
 5    1  0.6308903E+000  0.8853024E+02  0.7546771E-02  0.1306450E+00
          1   -1    0    0  501    0  0.00000000000E+00  0.00000000000E+00  0.14086542680E+03  0.14086542680E+03  0.00000000000E+00 0. -1.
         -1   -1    0    0    0  501 -0.00000000000E+00 -0.00000000000E+00 -0.13909736851E+02  0.13909736851E+02  0.00000000000E+00 0.  1.
         23    2    1    2    0    0  0.00000000000E+00  0.00000000000E+00  0.12695568995E+03  0.15477516365E+03  0.88530243832E+02 0.  0.
        -13    1    3    3    0    0  0.29369914730E+01 -0.28212493009E+02  0.40665930946E+01  0.28654979674E+02  0.00000000000E+00 0.  1.
         13    1    3    3    0    0 -0.29369914730E+01  0.28212493009E+02  0.12288909686E+03  0.12612018398E+03  0.00000000000E+00 0. -1.
<mgrwt>
<rscale>  0 0.88530244E+02</rscale>
<asrwt>0</asrwt>
<pdfrwt beam="1">  1        1 0.21671603E-01 0.88530244E+02</pdfrwt>
<pdfrwt beam="2">  1       -1 0.21399596E-02 0.88530244E+02</pdfrwt>
<totfact> 0.12001230E+05</totfact>
</mgrwt>
</event>
<event>
 5    1  0.6308903E+000  0.9068977E+02  0.7546771E-02  0.1301190E+00
         -3   -1    0    0    0  501 -0.00000000000E+00  0.00000000000E+00  0.31370197466E+02  0.31370197466E+02  0.00000000000E+00 0.  1.
          3   -1    0    0  501    0  0.00000000000E+00 -0.00000000000E+00 -0.65544974890E+02  0.65544974890E+02  0.00000000000E+00 0. -1.
         23    2    1    2    0    0  0.00000000000E+00  0.00000000000E+00 -0.34174777425E+02  0.96915172356E+02  0.90689774621E+02 0.  0.
        -13    1    3    3    0    0 -0.16260906152E+02  0.25178092529E+02  0.19274901940E+02  0.35635309134E+02  0.00000000000E+00 0.  1.
         13    1    3    3    0    0  0.16260906152E+02 -0.25178092529E+02 -0.53449679365E+02  0.61279863222E+02  0.00000000000E+00 0. -1.
<mgrwt>
<rscale>  0 0.90689775E+02</rscale>
<asrwt>0</asrwt>
<pdfrwt beam="2">  1        3 0.10083842E-01 0.90689775E+02</pdfrwt>
<pdfrwt beam="1">  1       -3 0.48261843E-02 0.90689775E+02</pdfrwt>
<totfact> 0.35413528E+04</totfact>
</mgrwt>
</event>
<event>
 5    1  0.6308903E+000  0.9090223E+02  0.7546771E-02  0.1300681E+00
         -3   -1    0    0    0  501 -0.00000000000E+00  0.00000000000E+00  0.11736733355E+03  0.11736733355E+03  0.00000000000E+00 0.  1.
          3   -1    0    0  501    0  0.00000000000E+00 -0.00000000000E+00 -0.17601182330E+02  0.17601182330E+02  0.00000000000E+00 0. -1.
         23    2    1    2    0    0  0.00000000000E+00  0.00000000000E+00  0.99766151220E+02  0.13496851588E+03  0.90902229619E+02 0.  0.
        -13    1    3    3    0    0  0.10165440875E+02 -0.44097011960E+02  0.43597554288E+02  0.62838120531E+02  0.00000000000E+00 0.  1.
         13    1    3    3    0    0 -0.10165440875E+02  0.44097011960E+02  0.56168596932E+02  0.72130395350E+02  0.00000000000E+00 0. -1.
<mgrwt>
<rscale>  0 0.90902230E+02</rscale>
<asrwt>0</asrwt>
<pdfrwt beam="2">  1        3 0.27078743E-02 0.90902230E+02</pdfrwt>
<pdfrwt beam="1">  1       -3 0.18056512E-01 0.90902230E+02</pdfrwt>
<totfact> 0.32518434E+04</totfact>
</mgrwt>
</event>
<event>
 5    1  0.6308903E+000  0.9015216E+02  0.7546771E-02  0.1302484E+00
          1   -1    0    0  501    0  0.00000000000E+00  0.00000000000E+00  0.22940411244E+02  0.22940411244E+02  0.00000000000E+00 0. -1.
         -1   -1    0    0    0  501 -0.00000000000E+00 -0.00000000000E+00 -0.88570910787E+02  0.88570910787E+02  0.00000000000E+00 0.  1.
         23    2    1    2    0    0  0.00000000000E+00  0.00000000000E+00 -0.65630499542E+02  0.11151132203E+03  0.90152162875E+02 0.  0.
        -13    1    3    3    0    0  0.19792086153E+01 -0.24671255491E+02  0.13783531789E+02  0.28329734606E+02  0.00000000000E+00 0. -1.
         13    1    3    3    0    0 -0.19792086153E+01  0.24671255491E+02 -0.79414031331E+02  0.83181587425E+02  0.00000000000E+00 0.  1.
<mgrwt>
<rscale>  0 0.90152163E+02</rscale>
<asrwt>0</asrwt>
<pdfrwt beam="1">  1        1 0.35292940E-02 0.90152163E+02</pdfrwt>
<pdfrwt beam="2">  1       -1 0.13626294E-01 0.90152163E+02</pdfrwt>
<totfact> 0.85623515E+04</totfact>
</mgrwt>
</event>
<event>
 5    1  0.6308903E+000  0.9378183E+02  0.7546771E-02  0.1293944E+00
          1   -1    0    0  501    0  0.00000000000E+00  0.00000000000E+00  0.55154258012E+02  0.55154258012E+02  0.00000000000E+00 0. -1.
         -1   -1    0    0    0  501 -0.00000000000E+00 -0.00000000000E+00 -0.39865601610E+02  0.39865601610E+02  0.00000000000E+00 0.  1.
         23    2    1    2    0    0  0.00000000000E+00  0.00000000000E+00  0.15288656402E+02  0.95019859622E+02  0.93781825040E+02 0.  0.
        -13    1    3    3    0    0 -0.12684610469E+02  0.36455774079E+02 -0.19331093428E+02  0.43169595546E+02  0.00000000000E+00 0.  1.
         13    1    3    3    0    0  0.12684610469E+02 -0.36455774079E+02  0.34619749830E+02  0.51850264076E+02  0.00000000000E+00 0. -1.
<mgrwt>
<rscale>  0 0.93781825E+02</rscale>
<asrwt>0</asrwt>
<pdfrwt beam="1">  1        1 0.84852705E-02 0.93781825E+02</pdfrwt>
<pdfrwt beam="2">  1       -1 0.61331695E-02 0.93781825E+02</pdfrwt>
<totfact> 0.87958377E+04</totfact>
</mgrwt>
</event>
<event>
 5    1  0.6308903E+000  0.9504678E+02  0.7546771E-02  0.1291071E+00
         -3   -1    0    0    0  501 -0.00000000000E+00  0.00000000000E+00  0.20947740357E+03  0.20947740357E+03  0.00000000000E+00 0.  1.
          3   -1    0    0  501    0  0.00000000000E+00 -0.00000000000E+00 -0.10781461581E+02  0.10781461581E+02  0.00000000000E+00 0. -1.
         23    2    1    2    0    0  0.00000000000E+00  0.00000000000E+00  0.19869594199E+03  0.22025886515E+03  0.95046779615E+02 0.  0.
        -13    1    3    3    0    0  0.39282731743E+02 -0.11417976492E+01  0.16127154345E+03  0.16599080529E+03  0.00000000000E+00 0.  1.
         13    1    3    3    0    0 -0.39282731743E+02  0.11417976492E+01  0.37424398546E+02  0.54268059866E+02  0.00000000000E+00 0. -1.
<mgrwt>
<rscale>  0 0.95046780E+02</rscale>
<asrwt>0</asrwt>
<pdfrwt beam="2">  1        3 0.16586866E-02 0.95046780E+02</pdfrwt>
<pdfrwt beam="1">  1       -3 0.32227290E-01 0.95046780E+02</pdfrwt>
<totfact> 0.24559178E+04</totfact>
</mgrwt>
</event>
<event>
 5    1  0.6308903E+000  0.9068589E+02  0.7546771E-02  0.1301199E+00
         -1   -1    0    0    0  501 -0.00000000000E+00  0.00000000000E+00  0.25157600474E+03  0.25157600474E+03  0.00000000000E+00 0.  1.
          1   -1    0    0  501    0  0.00000000000E+00 -0.00000000000E+00 -0.81724121587E+01  0.81724121587E+01  0.00000000000E+00 0. -1.
         23    2    1    2    0    0  0.00000000000E+00  0.00000000000E+00  0.24340359258E+03  0.25974841690E+03  0.90685893058E+02 0.  0.
        -13    1    3    3    0    0  0.25990838764E+02  0.27298055803E+02  0.49508953633E+02  0.62224143547E+02  0.00000000000E+00 0. -1.
         13    1    3    3    0    0 -0.25990838764E+02 -0.27298055803E+02  0.19389463895E+03  0.19752427335E+03  0.00000000000E+00 0.  1.
<mgrwt>
<rscale>  0 0.90685893E+02</rscale>
<asrwt>0</asrwt>
<pdfrwt beam="2">  1        1 0.12572944E-02 0.90685893E+02</pdfrwt>
<pdfrwt beam="1">  1       -1 0.38703995E-01 0.90685893E+02</pdfrwt>
<totfact> 0.65544054E+04</totfact>
</mgrwt>
</event>
<event>
 5    1  0.6308903E+000  0.9498623E+02  0.7546771E-02  0.1291207E+00
          2   -1    0    0  501    0  0.00000000000E+00  0.00000000000E+00  0.17503442278E+03  0.17503442278E+03  0.00000000000E+00 0. -1.
         -2   -1    0    0    0  501 -0.00000000000E+00 -0.00000000000E+00 -0.12886583954E+02  0.12886583954E+02  0.00000000000E+00 0.  1.
         23    2    1    2    0    0  0.00000000000E+00  0.00000000000E+00  0.16214783882E+03  0.18792100673E+03  0.94986226030E+02 0.  0.
        -13    1    3    3    0    0 -0.17857433036E+02  0.39074233041E+02  0.12112923059E+03  0.12852227085E+03  0.00000000000E+00 0. -1.
         13    1    3    3    0    0  0.17857433036E+02 -0.39074233041E+02  0.41018608238E+02  0.59398735880E+02  0.00000000000E+00 0.  1.
<mgrwt>
<rscale>  0 0.94986226E+02</rscale>
<asrwt>0</asrwt>
<pdfrwt beam="1">  1        2 0.26928371E-01 0.94986226E+02</pdfrwt>
<pdfrwt beam="2">  1       -2 0.19825515E-02 0.94986226E+02</pdfrwt>
<totfact> 0.13199265E+05</totfact>
</mgrwt>
</event>
<event>
 5    1  0.6308903E+000  0.9956388E+02  0.7546771E-02  0.1281216E+00
          1   -1    0    0  501    0  0.00000000000E+00  0.00000000000E+00  0.67868869407E+02  0.67868869407E+02  0.00000000000E+00 0.  1.
         -1   -1    0    0    0  501 -0.00000000000E+00 -0.00000000000E+00 -0.36515145504E+02  0.36515145504E+02  0.00000000000E+00 0. -1.
         23    2    1    2    0    0  0.00000000000E+00  0.00000000000E+00  0.31353723903E+02  0.10438401491E+03  0.99563881836E+02 0.  0.
        -13    1    3    3    0    0 -0.16048970616E+02  0.17370206247E+02  0.61603408829E+02  0.65986919175E+02  0.00000000000E+00 0.  1.
         13    1    3    3    0    0  0.16048970616E+02 -0.17370206247E+02 -0.30249684925E+02  0.38397095736E+02  0.00000000000E+00 0. -1.
<mgrwt>
<rscale>  0 0.99563882E+02</rscale>
<asrwt>0</asrwt>
<pdfrwt beam="1">  1        1 0.10441365E-01 0.99563882E+02</pdfrwt>
<pdfrwt beam="2">  1       -1 0.56177147E-02 0.99563882E+02</pdfrwt>
<totfact> 0.76883443E+04</totfact>
</mgrwt>
</event>
<event>
 5    1  0.6308903E+000  0.9145189E+02  0.7546771E-02  0.1299373E+00
          3   -1    0    0  501    0  0.00000000000E+00  0.00000000000E+00  0.70440511658E+01  0.70440511658E+01  0.00000000000E+00 0. -1.
         -3   -1    0    0    0  501 -0.00000000000E+00 -0.00000000000E+00 -0.29682665996E+03  0.29682665996E+03  0.00000000000E+00 0.  1.
         23    2    1    2    0    0  0.00000000000E+00  0.00000000000E+00 -0.28978260880E+03  0.30387071113E+03  0.91451892931E+02 0.  0.
        -13    1    3    3    0    0  0.32342906220E+02  0.31054097090E+02 -0.17469270199E+03  0.18035509601E+03  0.00000000000E+00 0. -1.
         13    1    3    3    0    0 -0.32342906220E+02 -0.31054097090E+02 -0.11508990681E+03  0.12351561512E+03  0.00000000000E+00 0.  1.
<mgrwt>
<rscale>  0 0.91451893E+02</rscale>
<asrwt>0</asrwt>
<pdfrwt beam="1">  1        3 0.10837004E-02 0.91451893E+02</pdfrwt>
<pdfrwt beam="2">  1       -3 0.45665632E-01 0.91451893E+02</pdfrwt>
<totfact> 0.23681749E+04</totfact>
</mgrwt>
</event>
<event>
 5    1  0.6308903E+000  0.8541527E+02  0.7546771E-02  0.1314350E+00
         -3   -1    0    0    0  501 -0.00000000000E+00  0.00000000000E+00  0.10585657963E+02  0.10585657963E+02  0.00000000000E+00 0.  1.
          3   -1    0    0  501    0  0.00000000000E+00 -0.00000000000E+00 -0.17230314149E+03  0.17230314149E+03  0.00000000000E+00 0. -1.
         23    2    1    2    0    0  0.00000000000E+00  0.00000000000E+00 -0.16171748353E+03  0.18288879945E+03  0.85415270807E+02 0.  0.
        -13    1    3    3    0    0 -0.13661810106E+02 -0.38802207141E+02 -0.56287843183E+02  0.69717842943E+02  0.00000000000E+00 0.  1.
         13    1    3    3    0    0  0.13661810106E+02  0.38802207141E+02 -0.10542964034E+03  0.11317095651E+03  0.00000000000E+00 0. -1.
<mgrwt>
<rscale>  0 0.85415271E+02</rscale>
<asrwt>0</asrwt>
<pdfrwt beam="2">  1        3 0.26508175E-01 0.85415271E+02</pdfrwt>
<pdfrwt beam="1">  1       -3 0.16285628E-02 0.85415271E+02</pdfrwt>
<totfact> 0.35046018E+04</totfact>
</mgrwt>
</event>
<event>
 5    1  0.6308903E+000  0.9264241E+02  0.7546771E-02  0.1296576E+00
         -2   -1    0    0    0  501 -0.00000000000E+00  0.00000000000E+00  0.32264814554E+02  0.32264814554E+02  0.00000000000E+00 0.  1.
          2   -1    0    0  501    0  0.00000000000E+00 -0.00000000000E+00 -0.66501365414E+02  0.66501365414E+02  0.00000000000E+00 0. -1.
         23    2    1    2    0    0  0.00000000000E+00  0.00000000000E+00 -0.34236550859E+02  0.98766179968E+02  0.92642414103E+02 0.  0.
        -13    1    3    3    0    0  0.43879102155E+02  0.11672971362E+02 -0.26890437313E+02  0.52770536147E+02  0.00000000000E+00 0.  1.
         13    1    3    3    0    0 -0.43879102155E+02 -0.11672971362E+02 -0.73461135464E+01  0.45995643822E+02  0.00000000000E+00 0. -1.
<mgrwt>
<rscale>  0 0.92642414E+02</rscale>
<asrwt>0</asrwt>
<pdfrwt beam="2">  1        2 0.10230979E-01 0.92642414E+02</pdfrwt>
<pdfrwt beam="1">  1       -2 0.49638177E-02 0.92642414E+02</pdfrwt>
<totfact> 0.10428637E+05</totfact>
</mgrwt>
</event>
<event>
 5    1  0.6308903E+000  0.9136283E+02  0.7546771E-02  0.1299585E+00
          1   -1    0    0  501    0  0.00000000000E+00  0.00000000000E+00  0.25738803847E+03  0.25738803847E+03  0.00000000000E+00 0. -1.
         -1   -1    0    0    0  501 -0.00000000000E+00 -0.00000000000E+00 -0.81075704811E+01  0.81075704811E+01  0.00000000000E+00 0.  1.
         23    2    1    2    0    0  0.00000000000E+00  0.00000000000E+00  0.24928046799E+03  0.26549560895E+03  0.91362829704E+02 0.  0.
        -13    1    3    3    0    0 -0.32702428472E+02 -0.31881279558E+02  0.12743787648E+03  0.13537458098E+03  0.00000000000E+00 0. -1.
         13    1    3    3    0    0  0.32702428472E+02  0.31881279558E+02  0.12184259151E+03  0.13012102797E+03  0.00000000000E+00 0.  1.
<mgrwt>
<rscale>  0 0.91362830E+02</rscale>
<asrwt>0</asrwt>
<pdfrwt beam="1">  1        1 0.39598154E-01 0.91362830E+02</pdfrwt>
<pdfrwt beam="2">  1       -1 0.12473187E-02 0.91362830E+02</pdfrwt>
<totfact> 0.12369795E+05</totfact>
</mgrwt>
</event>
<event>
 5    1  0.6308903E+000  0.9396142E+02  0.7546771E-02  0.1293533E+00
          3   -1    0    0  501    0  0.00000000000E+00  0.00000000000E+00  0.27300788417E+02  0.27300788417E+02  0.00000000000E+00 0. -1.
         -3   -1    0    0    0  501 -0.00000000000E+00 -0.00000000000E+00 -0.80847003590E+02  0.80847003590E+02  0.00000000000E+00 0.  1.
         23    2    1    2    0    0  0.00000000000E+00  0.00000000000E+00 -0.53546215173E+02  0.10814779201E+03  0.93961416319E+02 0.  0.
        -13    1    3    3    0    0  0.23637890481E+02  0.36139988282E+02 -0.48069000783E+02  0.64617934474E+02  0.00000000000E+00 0.  1.
         13    1    3    3    0    0 -0.23637890481E+02 -0.36139988282E+02 -0.54772143898E+01  0.43529857533E+02  0.00000000000E+00 0. -1.
<mgrwt>
<rscale>  0 0.93961416E+02</rscale>
<asrwt>0</asrwt>
<pdfrwt beam="1">  1        3 0.42001214E-02 0.93961416E+02</pdfrwt>
<pdfrwt beam="2">  1       -3 0.12438000E-01 0.93961416E+02</pdfrwt>
<totfact> 0.31393686E+04</totfact>
</mgrwt>
</event>
<event>
 5    1  0.6308903E+000  0.8990629E+02  0.7546771E-02  0.1303079E+00
         -2   -1    0    0    0  501 -0.00000000000E+00  0.00000000000E+00  0.10025817187E+02  0.10025817187E+02  0.00000000000E+00 0.  1.
          2   -1    0    0  501    0  0.00000000000E+00 -0.00000000000E+00 -0.20155814232E+03  0.20155814232E+03  0.00000000000E+00 0. -1.
         23    2    1    2    0    0  0.00000000000E+00  0.00000000000E+00 -0.19153232513E+03  0.21158395950E+03  0.89906286486E+02 0.  0.
        -13    1    3    3    0    0  0.24277585606E+02 -0.33849202761E+02 -0.55993607830E+02  0.69788636669E+02  0.00000000000E+00 0.  1.
         13    1    3    3    0    0 -0.24277585606E+02  0.33849202761E+02 -0.13553871730E+03  0.14179532283E+03  0.00000000000E+00 0. -1.
<mgrwt>
<rscale>  0 0.89906286E+02</rscale>
<asrwt>0</asrwt>
<pdfrwt beam="2">  1        2 0.31008945E-01 0.89906286E+02</pdfrwt>
<pdfrwt beam="1">  1       -2 0.15424334E-02 0.89906286E+02</pdfrwt>
<totfact> 0.16107727E+05</totfact>
</mgrwt>
</event>
<event>
 5    1  0.6308903E+000  0.9028910E+02  0.7546771E-02  0.1302153E+00
         -1   -1    0    0    0  501 -0.00000000000E+00  0.00000000000E+00  0.62528493167E+01  0.62528493167E+01  0.00000000000E+00 0.  1.
          1   -1    0    0  501    0  0.00000000000E+00 -0.00000000000E+00 -0.32593630621E+03  0.32593630621E+03  0.00000000000E+00 0. -1.
         23    2    1    2    0    0  0.00000000000E+00  0.00000000000E+00 -0.31968345690E+03  0.33218915553E+03  0.90289104760E+02 0.  0.
        -13    1    3    3    0    0 -0.27561851201E+02  0.34378792121E+02 -0.19597891950E+03  0.20087133663E+03  0.00000000000E+00 0.  1.
         13    1    3    3    0    0  0.27561851201E+02 -0.34378792121E+02 -0.12370453739E+03  0.13131781890E+03  0.00000000000E+00 0. -1.
<mgrwt>
<rscale>  0 0.90289105E+02</rscale>
<asrwt>0</asrwt>
<pdfrwt beam="2">  1        1 0.50144044E-01 0.90289105E+02</pdfrwt>
<pdfrwt beam="1">  1       -1 0.96197688E-03 0.90289105E+02</pdfrwt>
<totfact> 0.13356536E+05</totfact>
</mgrwt>
</event>
<event>
 5    1  0.6308903E+000  0.9484954E+02  0.7546771E-02  0.1291515E+00
          3   -1    0    0  501    0  0.00000000000E+00  0.00000000000E+00  0.10377641210E+02  0.10377641210E+02  0.00000000000E+00 0. -1.
         -3   -1    0    0    0  501 -0.00000000000E+00 -0.00000000000E+00 -0.21672641535E+03  0.21672641535E+03  0.00000000000E+00 0.  1.
         23    2    1    2    0    0  0.00000000000E+00  0.00000000000E+00 -0.20634877414E+03  0.22710405656E+03  0.94849543578E+02 0.  0.
        -13    1    3    3    0    0 -0.18546802329E+02  0.40291244610E+02 -0.62984716253E+02  0.77035334427E+02  0.00000000000E+00 0. -1.
         13    1    3    3    0    0  0.18546802329E+02 -0.40291244610E+02 -0.14336405789E+03  0.15006872213E+03  0.00000000000E+00 0.  1.
<mgrwt>
<rscale>  0 0.94849544E+02</rscale>
<asrwt>0</asrwt>
<pdfrwt beam="1">  1        3 0.15965604E-02 0.94849544E+02</pdfrwt>
<pdfrwt beam="2">  1       -3 0.33342521E-01 0.94849544E+02</pdfrwt>
<totfact> 0.24403158E+04</totfact>
</mgrwt>
</event>
<event>
 5    1  0.6308903E+000  0.9267613E+02  0.7546771E-02  0.1296497E+00
          1   -1    0    0  501    0  0.00000000000E+00  0.00000000000E+00  0.16712638810E+03  0.16712638810E+03  0.00000000000E+00 0. -1.
         -1   -1    0    0    0  501 -0.00000000000E+00 -0.00000000000E+00 -0.12847860289E+02  0.12847860289E+02  0.00000000000E+00 0.  1.
         23    2    1    2    0    0  0.00000000000E+00  0.00000000000E+00  0.15427852781E+03  0.17997424839E+03  0.92676134682E+02 0.  0.
        -13    1    3    3    0    0 -0.35644350528E+02 -0.24560213671E+02  0.45023718792E+02  0.62456857702E+02  0.00000000000E+00 0.  1.
         13    1    3    3    0    0  0.35644350528E+02  0.24560213671E+02  0.10925480902E+03  0.11751739069E+03  0.00000000000E+00 0. -1.
<mgrwt>
<rscale>  0 0.92676135E+02</rscale>
<asrwt>0</asrwt>
<pdfrwt beam="1">  1        1 0.25711751E-01 0.92676135E+02</pdfrwt>
<pdfrwt beam="2">  1       -1 0.19765940E-02 0.92676135E+02</pdfrwt>
<totfact> 0.10948675E+05</totfact>
</mgrwt>
</event>
<event>
 5    1  0.6308903E+000  0.9313040E+02  0.7546771E-02  0.1295443E+00
          2   -1    0    0  501    0  0.00000000000E+00  0.00000000000E+00  0.36471602036E+02  0.36471602036E+02  0.00000000000E+00 0. -1.
         -2   -1    0    0    0  501 -0.00000000000E+00 -0.00000000000E+00 -0.59452220712E+02  0.59452220712E+02  0.00000000000E+00 0.  1.
         23    2    1    2    0    0  0.00000000000E+00  0.00000000000E+00 -0.22980618676E+02  0.95923822749E+02  0.93130397486E+02 0.  0.
        -13    1    3    3    0    0  0.38370429505E+02  0.26342807237E+02 -0.10003266373E+02  0.47605658190E+02  0.00000000000E+00 0.  1.
         13    1    3    3    0    0 -0.38370429505E+02 -0.26342807237E+02 -0.12977352303E+02  0.48318164559E+02  0.00000000000E+00 0. -1.
<mgrwt>
<rscale>  0 0.93130397E+02</rscale>
<asrwt>0</asrwt>
<pdfrwt beam="1">  1        2 0.56110157E-02 0.93130397E+02</pdfrwt>
<pdfrwt beam="2">  1       -2 0.91464955E-02 0.93130397E+02</pdfrwt>
<totfact> 0.87527108E+04</totfact>
</mgrwt>
</event>
<event>
 5    1  0.6308903E+000  0.9374669E+02  0.7546771E-02  0.1294024E+00
         -1   -1    0    0    0  501 -0.00000000000E+00  0.00000000000E+00  0.73810617587E+01  0.73810617587E+01  0.00000000000E+00 0.  1.
          1   -1    0    0  501    0  0.00000000000E+00 -0.00000000000E+00 -0.29766860283E+03  0.29766860283E+03  0.00000000000E+00 0. -1.
         23    2    1    2    0    0  0.00000000000E+00  0.00000000000E+00 -0.29028754107E+03  0.30504966459E+03  0.93746687218E+02 0.  0.
        -13    1    3    3    0    0  0.21999436403E+02 -0.37230472576E+02 -0.20398834966E+03  0.20852177365E+03  0.00000000000E+00 0. -1.
         13    1    3    3    0    0 -0.21999436403E+02  0.37230472576E+02 -0.86299191410E+02  0.96527890935E+02  0.00000000000E+00 0.  1.
<mgrwt>
<rscale>  0 0.93746687E+02</rscale>
<asrwt>0</asrwt>
<pdfrwt beam="2">  1        1 0.45795164E-01 0.93746687E+02</pdfrwt>
<pdfrwt beam="1">  1       -1 0.11355481E-02 0.93746687E+02</pdfrwt>
<totfact> 0.11878005E+05</totfact>
</mgrwt>
</event>
<event>
 5    1  0.6308903E+000  0.8895060E+02  0.7546771E-02  0.1305413E+00
          2   -1    0    0  501    0  0.00000000000E+00  0.00000000000E+00  0.16170030230E+03  0.16170030230E+03  0.00000000000E+00 0. -1.
         -2   -1    0    0    0  501 -0.00000000000E+00 -0.00000000000E+00 -0.12232828739E+02  0.12232828739E+02  0.00000000000E+00 0.  1.
         23    2    1    2    0    0  0.00000000000E+00  0.00000000000E+00  0.14946747356E+03  0.17393313104E+03  0.88950595391E+02 0.  0.
        -13    1    3    3    0    0 -0.39732869418E+02 -0.48313076743E+01  0.36816825165E+02  0.54383095363E+02  0.00000000000E+00 0.  1.
         13    1    3    3    0    0  0.39732869418E+02  0.48313076743E+01  0.11265064840E+03  0.11955003568E+03  0.00000000000E+00 0. -1.
<mgrwt>
<rscale>  0 0.88950595E+02</rscale>
<asrwt>0</asrwt>
<pdfrwt beam="1">  1        2 0.24876968E-01 0.88950595E+02</pdfrwt>
<pdfrwt beam="2">  1       -2 0.18819738E-02 0.88950595E+02</pdfrwt>
<totfact> 0.15336737E+05</totfact>
</mgrwt>
</event>
<event>
 5    1  0.6308903E+000  0.6335908E+02  0.7546771E-02  0.1384252E+00
         -2   -1    0    0    0  501 -0.00000000000E+00  0.00000000000E+00  0.34195567609E+01  0.34195567609E+01  0.00000000000E+00 0.  1.
          2   -1    0    0  501    0  0.00000000000E+00 -0.00000000000E+00 -0.29348633855E+03  0.29348633855E+03  0.00000000000E+00 0. -1.
         23    2    1    2    0    0  0.00000000000E+00  0.00000000000E+00 -0.29006678179E+03  0.29690589531E+03  0.63359078062E+02 0.  0.
        -13    1    3    3    0    0  0.20984772119E+02  0.22593659083E+02 -0.17907097030E+03  0.18170648446E+03  0.00000000000E+00 0.  1.
         13    1    3    3    0    0 -0.20984772119E+02 -0.22593659083E+02 -0.11099581149E+03  0.11519941085E+03  0.00000000000E+00 0. -1.
<mgrwt>
<rscale>  0 0.63359078E+02</rscale>
<asrwt>0</asrwt>
<pdfrwt beam="2">  1        2 0.45151754E-01 0.63359078E+02</pdfrwt>
<pdfrwt beam="1">  1       -2 0.52608555E-03 0.63359078E+02</pdfrwt>
<totfact> 0.46159087E+05</totfact>
</mgrwt>
</event>
<event>
 5    1  0.6308903E+000  0.8938474E+02  0.7546771E-02  0.1304349E+00
          2   -1    0    0  501    0  0.00000000000E+00  0.00000000000E+00  0.22743953362E+02  0.22743953362E+02  0.00000000000E+00 0. -1.
         -2   -1    0    0    0  501 -0.00000000000E+00 -0.00000000000E+00 -0.87821490742E+02  0.87821490742E+02  0.00000000000E+00 0.  1.
         23    2    1    2    0    0  0.00000000000E+00  0.00000000000E+00 -0.65077537380E+02  0.11056544410E+03  0.89384738957E+02 0.  0.
        -13    1    3    3    0    0  0.37141194015E+02 -0.13680604835E+02 -0.68653247148E+01  0.40171630847E+02  0.00000000000E+00 0. -1.
         13    1    3    3    0    0 -0.37141194015E+02  0.13680604835E+02 -0.58212212665E+02  0.70393813257E+02  0.00000000000E+00 0.  1.
<mgrwt>
<rscale>  0 0.89384739E+02</rscale>
<asrwt>0</asrwt>
<pdfrwt beam="1">  1        2 0.34990698E-02 0.89384739E+02</pdfrwt>
<pdfrwt beam="2">  1       -2 0.13510999E-01 0.89384739E+02</pdfrwt>
<totfact> 0.87046921E+04</totfact>
</mgrwt>
</event>
<event>
 5    1  0.6308903E+000  0.9173560E+02  0.7546771E-02  0.1298702E+00
          1   -1    0    0  501    0  0.00000000000E+00  0.00000000000E+00  0.54787198783E+02  0.54787198783E+02  0.00000000000E+00 0. -1.
         -1   -1    0    0    0  501 -0.00000000000E+00 -0.00000000000E+00 -0.38400490335E+02  0.38400490335E+02  0.00000000000E+00 0.  1.
         23    2    1    2    0    0  0.00000000000E+00  0.00000000000E+00  0.16386708448E+02  0.93187689117E+02  0.91735604807E+02 0.  0.
        -13    1    3    3    0    0  0.31812613524E+02 -0.25133420459E+02  0.29983397928E+02  0.50425542679E+02  0.00000000000E+00 0. -1.
         13    1    3    3    0    0 -0.31812613524E+02  0.25133420459E+02 -0.13596689480E+02  0.42762146438E+02  0.00000000000E+00 0.  1.
<mgrwt>
<rscale>  0 0.91735605E+02</rscale>
<asrwt>0</asrwt>
<pdfrwt beam="1">  1        1 0.84287999E-02 0.91735605E+02</pdfrwt>
<pdfrwt beam="2">  1       -1 0.59077677E-02 0.91735605E+02</pdfrwt>
<totfact> 0.93454235E+04</totfact>
</mgrwt>
</event>
<event>
 5    1  0.6308903E+000  0.9171010E+02  0.7546771E-02  0.1298763E+00
         -2   -1    0    0    0  501 -0.00000000000E+00  0.00000000000E+00  0.30553381004E+03  0.30553381004E+03  0.00000000000E+00 0.  1.
          2   -1    0    0  501    0  0.00000000000E+00 -0.00000000000E+00 -0.68820061567E+01  0.68820061567E+01  0.00000000000E+00 0. -1.
         23    2    1    2    0    0  0.00000000000E+00  0.00000000000E+00  0.29865180388E+03  0.31241581619E+03  0.91710098937E+02 0.  0.
        -13    1    3    3    0    0 -0.34786145598E+02  0.23631359133E+02  0.21159873239E+03  0.21573720265E+03  0.00000000000E+00 0.  1.
         13    1    3    3    0    0  0.34786145598E+02 -0.23631359133E+02  0.87053071492E+02  0.96678613541E+02  0.00000000000E+00 0. -1.
<mgrwt>
<rscale>  0 0.91710099E+02</rscale>
<asrwt>0</asrwt>
<pdfrwt beam="2">  1        2 0.10587704E-02 0.91710099E+02</pdfrwt>
<pdfrwt beam="1">  1       -2 0.47005191E-01 0.91710099E+02</pdfrwt>
<totfact> 0.49723450E+04</totfact>
</mgrwt>
</event>
<event>
 5    1  0.6308903E+000  0.9920135E+02  0.7546771E-02  0.1281984E+00
          2   -1    0    0  501    0  0.00000000000E+00  0.00000000000E+00  0.19938152136E+03  0.19938152136E+03  0.00000000000E+00 0.  1.
         -2   -1    0    0    0  501 -0.00000000000E+00 -0.00000000000E+00 -0.12339293217E+02  0.12339293217E+02  0.00000000000E+00 0. -1.
         23    2    1    2    0    0  0.00000000000E+00  0.00000000000E+00  0.18704222815E+03  0.21172081458E+03  0.99201351887E+02 0.  0.
        -13    1    3    3    0    0 -0.26712536092E+02  0.41691616047E+02  0.99734915192E+02  0.11134991577E+03  0.00000000000E+00 0.  1.
         13    1    3    3    0    0  0.26712536092E+02 -0.41691616047E+02  0.87307312954E+02  0.10037089881E+03  0.00000000000E+00 0. -1.
<mgrwt>
<rscale>  0 0.99201352E+02</rscale>
<asrwt>0</asrwt>
<pdfrwt beam="1">  1        2 0.30674078E-01 0.99201352E+02</pdfrwt>
<pdfrwt beam="2">  1       -2 0.18983530E-02 0.99201352E+02</pdfrwt>
<totfact> 0.12295575E+05</totfact>
</mgrwt>
</event>
<event>
 5    1  0.6308903E+000  0.9004549E+02  0.7546771E-02  0.1302742E+00
          2   -1    0    0  501    0  0.00000000000E+00  0.00000000000E+00  0.13921676730E+02  0.13921676730E+02  0.00000000000E+00 0.  1.
         -2   -1    0    0    0  501 -0.00000000000E+00 -0.00000000000E+00 -0.14560368610E+03  0.14560368610E+03  0.00000000000E+00 0. -1.
         23    2    1    2    0    0  0.00000000000E+00  0.00000000000E+00 -0.13168200937E+03  0.15952536283E+03  0.90045487362E+02 0.  0.
        -13    1    3    3    0    0  0.26758225504E+02 -0.31553075842E+02 -0.34375708105E+02  0.53789297587E+02  0.00000000000E+00 0.  1.
         13    1    3    3    0    0 -0.26758225504E+02  0.31553075842E+02 -0.97306301260E+02  0.10573606524E+03  0.00000000000E+00 0. -1.
<mgrwt>
<rscale>  0 0.90045487E+02</rscale>
<asrwt>0</asrwt>
<pdfrwt beam="1">  1        2 0.21417966E-02 0.90045487E+02</pdfrwt>
<pdfrwt beam="2">  1       -2 0.22400565E-01 0.90045487E+02</pdfrwt>
<totfact> 0.72874333E+04</totfact>
</mgrwt>
</event>
<event>
 5    1  0.6308903E+000  0.9444189E+02  0.7546771E-02  0.1292438E+00
         -3   -1    0    0    0  501 -0.00000000000E+00  0.00000000000E+00  0.25090007356E+02  0.25090007356E+02  0.00000000000E+00 0.  1.
          3   -1    0    0  501    0  0.00000000000E+00 -0.00000000000E+00 -0.88872736562E+02  0.88872736562E+02  0.00000000000E+00 0. -1.
         23    2    1    2    0    0  0.00000000000E+00  0.00000000000E+00 -0.63782729207E+02  0.11396274392E+03  0.94441889309E+02 0.  0.
        -13    1    3    3    0    0 -0.30438662785E+02 -0.86276873286E+01 -0.74192392919E+02  0.80656434014E+02  0.00000000000E+00 0. -1.
         13    1    3    3    0    0  0.30438662785E+02  0.86276873286E+01  0.10409663712E+02  0.33306309904E+02  0.00000000000E+00 0.  1.
<mgrwt>
<rscale>  0 0.94441889E+02</rscale>
<asrwt>0</asrwt>
<pdfrwt beam="2">  1        3 0.13672729E-01 0.94441889E+02</pdfrwt>
<pdfrwt beam="1">  1       -3 0.38600011E-02 0.94441889E+02</pdfrwt>
<totfact> 0.30584662E+04</totfact>
</mgrwt>
</event>
<event>
 5    1  0.6308903E+000  0.9033083E+02  0.7546771E-02  0.1302053E+00
          2   -1    0    0  501    0  0.00000000000E+00  0.00000000000E+00  0.69800378169E+01  0.69800378169E+01  0.00000000000E+00 0. -1.
         -2   -1    0    0    0  501 -0.00000000000E+00 -0.00000000000E+00 -0.29224983132E+03  0.29224983132E+03  0.00000000000E+00 0.  1.
         23    2    1    2    0    0  0.00000000000E+00  0.00000000000E+00 -0.28526979351E+03  0.29922986914E+03  0.90330833598E+02 0.  0.
        -13    1    3    3    0    0  0.23564648453E+01  0.44512630131E+02 -0.11852160575E+03  0.12662660935E+03  0.00000000000E+00 0.  1.
         13    1    3    3    0    0 -0.23564648453E+01 -0.44512630131E+02 -0.16674818776E+03  0.17260325979E+03  0.00000000000E+00 0. -1.
<mgrwt>
<rscale>  0 0.90330834E+02</rscale>
<asrwt>0</asrwt>
<pdfrwt beam="1">  1        2 0.10738517E-02 0.90330834E+02</pdfrwt>
<pdfrwt beam="2">  1       -2 0.44961525E-01 0.90330834E+02</pdfrwt>
<totfact> 0.53006868E+04</totfact>
</mgrwt>
</event>
<event>
 5    1  0.6308903E+000  0.9068510E+02  0.7546771E-02  0.1301201E+00
          4   -1    0    0  501    0  0.00000000000E+00  0.00000000000E+00  0.87103615062E+02  0.87103615062E+02  0.00000000000E+00 0. -1.
         -4   -1    0    0    0  501 -0.00000000000E+00 -0.00000000000E+00 -0.23603463420E+02  0.23603463420E+02  0.00000000000E+00 0.  1.
         23    2    1    2    0    0  0.00000000000E+00  0.00000000000E+00  0.63500151643E+02  0.11070707848E+03  0.90685103338E+02 0.  0.
        -13    1    3    3    0    0 -0.27228215918E+02 -0.36239921086E+02  0.30391012079E+02  0.54573997816E+02  0.00000000000E+00 0. -1.
         13    1    3    3    0    0  0.27228215918E+02  0.36239921086E+02  0.33109139564E+02  0.56133080666E+02  0.00000000000E+00 0.  1.
<mgrwt>
<rscale>  0 0.90685103E+02</rscale>
<asrwt>0</asrwt>
<pdfrwt beam="1">  1        4 0.13400556E-01 0.90685103E+02</pdfrwt>
<pdfrwt beam="2">  1       -4 0.36313021E-02 0.90685103E+02</pdfrwt>
<totfact> 0.26190705E+04</totfact>
</mgrwt>
</event>
<event>
 5    1  0.6308903E+000  0.9096422E+02  0.7546771E-02  0.1300533E+00
          3   -1    0    0  501    0  0.00000000000E+00  0.00000000000E+00  0.52498966142E+02  0.52498966142E+02  0.00000000000E+00 0. -1.
         -3   -1    0    0    0  501 -0.00000000000E+00 -0.00000000000E+00 -0.39403104660E+02  0.39403104660E+02  0.00000000000E+00 0.  1.
         23    2    1    2    0    0  0.00000000000E+00  0.00000000000E+00  0.13095861483E+02  0.91902070802E+02  0.90964218403E+02 0.  0.
        -13    1    3    3    0    0  0.92411445050E+01  0.18399971790E+02 -0.34424654742E+02  0.40112523827E+02  0.00000000000E+00 0.  1.
         13    1    3    3    0    0 -0.92411445050E+01 -0.18399971790E+02  0.47520516225E+02  0.51789546975E+02  0.00000000000E+00 0. -1.
<mgrwt>
<rscale>  0 0.90964218E+02</rscale>
<asrwt>0</asrwt>
<pdfrwt beam="1">  1        3 0.80767640E-02 0.90964218E+02</pdfrwt>
<pdfrwt beam="2">  1       -3 0.60620161E-02 0.90964218E+02</pdfrwt>
<totfact> 0.35508470E+04</totfact>
</mgrwt>
</event>
<event>
 5    1  0.6308903E+000  0.9117023E+02  0.7546771E-02  0.1300042E+00
          2   -1    0    0  501    0  0.00000000000E+00  0.00000000000E+00  0.85977133600E+02  0.85977133600E+02  0.00000000000E+00 0.  1.
         -2   -1    0    0    0  501 -0.00000000000E+00 -0.00000000000E+00 -0.24169246242E+02  0.24169246242E+02  0.00000000000E+00 0. -1.
         23    2    1    2    0    0  0.00000000000E+00  0.00000000000E+00  0.61807887358E+02  0.11014637984E+03  0.91170225691E+02 0.  0.
        -13    1    3    3    0    0 -0.35388773778E+02  0.28394925203E+02  0.36220503802E+02  0.58056541254E+02  0.00000000000E+00 0.  1.
         13    1    3    3    0    0  0.35388773778E+02 -0.28394925203E+02  0.25587383556E+02  0.52089838587E+02  0.00000000000E+00 0. -1.
<mgrwt>
<rscale>  0 0.91170226E+02</rscale>
<asrwt>0</asrwt>
<pdfrwt beam="1">  1        2 0.13227251E-01 0.91170226E+02</pdfrwt>
<pdfrwt beam="2">  1       -2 0.37183456E-02 0.91170226E+02</pdfrwt>
<totfact> 0.11729550E+05</totfact>
</mgrwt>
</event>
<event>
 5    1  0.6308903E+000  0.9020262E+02  0.7546771E-02  0.1302362E+00
         -2   -1    0    0    0  501 -0.00000000000E+00  0.00000000000E+00  0.35268970470E+02  0.35268970470E+02  0.00000000000E+00 0.  1.
          2   -1    0    0  501    0  0.00000000000E+00 -0.00000000000E+00 -0.57674722168E+02  0.57674722168E+02  0.00000000000E+00 0. -1.
         23    2    1    2    0    0  0.00000000000E+00  0.00000000000E+00 -0.22405751698E+02  0.92943692638E+02  0.90202617988E+02 0.  0.
        -13    1    3    3    0    0 -0.26817870954E+02 -0.18576971026E+02  0.20885497053E+02  0.38736365887E+02  0.00000000000E+00 0.  1.
         13    1    3    3    0    0  0.26817870954E+02  0.18576971026E+02 -0.43291248751E+02  0.54207326750E+02  0.00000000000E+00 0. -1.
<mgrwt>
<rscale>  0 0.90202618E+02</rscale>
<asrwt>0</asrwt>
<pdfrwt beam="2">  1        2 0.88730341E-02 0.90202618E+02</pdfrwt>
<pdfrwt beam="1">  1       -2 0.54259955E-02 0.90202618E+02</pdfrwt>
<totfact> 0.10818509E+05</totfact>
</mgrwt>
</event>
<event>
 5    1  0.6308903E+000  0.8908440E+02  0.7546771E-02  0.1305084E+00
          1   -1    0    0  501    0  0.00000000000E+00  0.00000000000E+00  0.35851818140E+03  0.35851818140E+03  0.00000000000E+00 0. -1.
         -1   -1    0    0    0  501 -0.00000000000E+00 -0.00000000000E+00 -0.55339111839E+01  0.55339111839E+01  0.00000000000E+00 0.  1.
         23    2    1    2    0    0  0.00000000000E+00  0.00000000000E+00  0.35298427022E+03  0.36405209259E+03  0.89084404330E+02 0.  0.
        -13    1    3    3    0    0 -0.18908854619E+02 -0.38786895012E+02  0.13134683603E+03  0.13825324352E+03  0.00000000000E+00 0. -1.
         13    1    3    3    0    0  0.18908854619E+02  0.38786895012E+02  0.22163743419E+03  0.22579884907E+03  0.00000000000E+00 0.  1.
<mgrwt>
<rscale>  0 0.89084404E+02</rscale>
<asrwt>0</asrwt>
<pdfrwt beam="1">  1        1 0.55156625E-01 0.89084404E+02</pdfrwt>
<pdfrwt beam="2">  1       -1 0.85137123E-03 0.89084404E+02</pdfrwt>
<totfact> 0.14081048E+05</totfact>
</mgrwt>
</event>
<event>
 5    1  0.6308903E+000  0.8867681E+02  0.7546771E-02  0.1306088E+00
          2   -1    0    0  501    0  0.00000000000E+00  0.00000000000E+00  0.50571384933E+02  0.50571384933E+02  0.00000000000E+00 0. -1.
         -2   -1    0    0    0  501 -0.00000000000E+00 -0.00000000000E+00 -0.38873649191E+02  0.38873649191E+02  0.00000000000E+00 0.  1.
         23    2    1    2    0    0  0.00000000000E+00  0.00000000000E+00  0.11697735742E+02  0.89445034124E+02  0.88676812685E+02 0.  0.
        -13    1    3    3    0    0  0.27767974266E+02  0.33912692073E+02 -0.89962377846E+00  0.43839940710E+02  0.00000000000E+00 0.  1.
         13    1    3    3    0    0 -0.27767974266E+02 -0.33912692073E+02  0.12597359521E+02  0.45605093415E+02  0.00000000000E+00 0. -1.
<mgrwt>
<rscale>  0 0.88676813E+02</rscale>
<asrwt>0</asrwt>
<pdfrwt beam="1">  1        2 0.77802131E-02 0.88676813E+02</pdfrwt>
<pdfrwt beam="2">  1       -2 0.59805614E-02 0.88676813E+02</pdfrwt>
<totfact> 0.10970701E+05</totfact>
</mgrwt>
</event>
<event>
 5    1  0.6308903E+000  0.8986890E+02  0.7546771E-02  0.1303169E+00
          1   -1    0    0  501    0  0.00000000000E+00  0.00000000000E+00  0.29294400533E+03  0.29294400533E+03  0.00000000000E+00 0. -1.
         -1   -1    0    0    0  501 -0.00000000000E+00 -0.00000000000E+00 -0.68924603480E+01  0.68924603480E+01  0.00000000000E+00 0.  1.
         23    2    1    2    0    0  0.00000000000E+00  0.00000000000E+00  0.28605154499E+03  0.29983646568E+03  0.89868903208E+02 0.  0.
        -13    1    3    3    0    0  0.15627217993E+01  0.44700736817E+02  0.15737877177E+03  0.16361135589E+03  0.00000000000E+00 0.  1.
         13    1    3    3    0    0 -0.15627217993E+01 -0.44700736817E+02  0.12867277321E+03  0.13622510979E+03  0.00000000000E+00 0. -1.
<mgrwt>
<rscale>  0 0.89868903E+02</rscale>
<asrwt>0</asrwt>
<pdfrwt beam="1">  1        1 0.45068299E-01 0.89868903E+02</pdfrwt>
<pdfrwt beam="2">  1       -1 0.10603787E-02 0.89868903E+02</pdfrwt>
<totfact> 0.13254123E+05</totfact>
</mgrwt>
</event>
<event>
 5    1  0.6308903E+000  0.9265747E+02  0.7546771E-02  0.1296541E+00
         -1   -1    0    0    0  501 -0.00000000000E+00  0.00000000000E+00  0.27478236817E+03  0.27478236817E+03  0.00000000000E+00 0.  1.
          1   -1    0    0  501    0  0.00000000000E+00 -0.00000000000E+00 -0.78110964743E+01  0.78110964743E+01  0.00000000000E+00 0. -1.
         23    2    1    2    0    0  0.00000000000E+00  0.00000000000E+00  0.26697127170E+03  0.28259346464E+03  0.92657467853E+02 0.  0.
        -13    1    3    3    0    0  0.46164700357E+02  0.60710972596E+00  0.12175117615E+03  0.13021097126E+03  0.00000000000E+00 0. -1.
         13    1    3    3    0    0 -0.46164700357E+02 -0.60710972596E+00  0.14522009554E+03  0.15238249339E+03  0.00000000000E+00 0.  1.
<mgrwt>
<rscale>  0 0.92657468E+02</rscale>
<asrwt>0</asrwt>
<pdfrwt beam="2">  1        1 0.12017074E-02 0.92657468E+02</pdfrwt>
<pdfrwt beam="1">  1       -1 0.42274203E-01 0.92657468E+02</pdfrwt>
<totfact> 0.60056007E+04</totfact>
</mgrwt>
</event>
<event>
 5    1  0.6308903E+000  0.1111188E+03  0.7546771E-02  0.1258512E+00
         -2   -1    0    0    0  501 -0.00000000000E+00  0.00000000000E+00  0.41379466492E+02  0.41379466492E+02  0.00000000000E+00 0.  1.
          2   -1    0    0  501    0  0.00000000000E+00 -0.00000000000E+00 -0.74598550296E+02  0.74598550296E+02  0.00000000000E+00 0. -1.
         23    2    1    2    0    0  0.00000000000E+00  0.00000000000E+00 -0.33219083804E+02  0.11597801679E+03  0.11111882311E+03 0.  0.
        -13    1    3    3    0    0  0.36909142336E+02 -0.81207090649E+01  0.25897527866E+02  0.45813891488E+02  0.00000000000E+00 0.  1.
         13    1    3    3    0    0 -0.36909142336E+02  0.81207090649E+01 -0.59116611670E+02  0.70164125299E+02  0.00000000000E+00 0. -1.
<mgrwt>
<rscale>  0 0.11111882E+03</rscale>
<asrwt>0</asrwt>
<pdfrwt beam="2">  1        2 0.11476700E-01 0.11111882E+03</pdfrwt>
<pdfrwt beam="1">  1       -2 0.63660719E-02 0.11111882E+03</pdfrwt>
<totfact> 0.64229434E+04</totfact>
</mgrwt>
</event>
<event>
 5    1  0.6308903E+000  0.9091743E+02  0.7546771E-02  0.1300645E+00
         -2   -1    0    0    0  501 -0.00000000000E+00  0.00000000000E+00  0.98029908607E+02  0.98029908607E+02  0.00000000000E+00 0.  1.
          2   -1    0    0  501    0  0.00000000000E+00 -0.00000000000E+00 -0.21080247955E+02  0.21080247955E+02  0.00000000000E+00 0. -1.
         23    2    1    2    0    0  0.00000000000E+00  0.00000000000E+00  0.76949660653E+02  0.11911015656E+03  0.90917430241E+02 0.  0.
        -13    1    3    3    0    0  0.15096055348E+02 -0.42695731232E+02  0.43662268101E+02  0.62906359044E+02  0.00000000000E+00 0.  1.
         13    1    3    3    0    0 -0.15096055348E+02  0.42695731232E+02  0.33287392552E+02  0.56203797517E+02  0.00000000000E+00 0. -1.
<mgrwt>
<rscale>  0 0.90917430E+02</rscale>
<asrwt>0</asrwt>
<pdfrwt beam="2">  1        2 0.32431151E-02 0.90917430E+02</pdfrwt>
<pdfrwt beam="1">  1       -2 0.15081524E-01 0.90917430E+02</pdfrwt>
<totfact> 0.80850322E+04</totfact>
</mgrwt>
</event>
<event>
 5    1  0.6308903E+000  0.8959831E+02  0.7546771E-02  0.1303827E+00
          4   -1    0    0  501    0  0.00000000000E+00  0.00000000000E+00  0.10401916961E+03  0.10401916961E+03  0.00000000000E+00 0. -1.
         -4   -1    0    0    0  501 -0.00000000000E+00 -0.00000000000E+00 -0.19294175654E+02  0.19294175654E+02  0.00000000000E+00 0.  1.
         23    2    1    2    0    0  0.00000000000E+00  0.00000000000E+00  0.84724993955E+02  0.12331334526E+03  0.89598306453E+02 0.  0.
        -13    1    3    3    0    0 -0.37688408377E+02 -0.35029190269E+01  0.93809362856E+01  0.38996006632E+02  0.00000000000E+00 0.  1.
         13    1    3    3    0    0  0.37688408377E+02  0.35029190269E+01  0.75344057670E+02  0.84317338631E+02  0.00000000000E+00 0. -1.
<mgrwt>
<rscale>  0 0.89598306E+02</rscale>
<asrwt>0</asrwt>
<pdfrwt beam="1">  1        4 0.16002949E-01 0.89598306E+02</pdfrwt>
<pdfrwt beam="2">  1       -4 0.29683348E-02 0.89598306E+02</pdfrwt>
<totfact> 0.26294131E+04</totfact>
</mgrwt>
</event>
<event>
 5    1  0.6308903E+000  0.9262016E+02  0.7546771E-02  0.1296628E+00
         -1   -1    0    0    0  501 -0.00000000000E+00  0.00000000000E+00  0.19533912567E+02  0.19533912567E+02  0.00000000000E+00 0.  1.
          1   -1    0    0  501    0  0.00000000000E+00 -0.00000000000E+00 -0.10978976149E+03  0.10978976149E+03  0.00000000000E+00 0. -1.
         23    2    1    2    0    0  0.00000000000E+00  0.00000000000E+00 -0.90255848926E+02  0.12932367406E+03  0.92620161990E+02 0.  0.
        -13    1    3    3    0    0  0.21075482504E+02 -0.36672118123E+02 -0.18797646421E+02  0.46285761541E+02  0.00000000000E+00 0.  1.
         13    1    3    3    0    0 -0.21075482504E+02  0.36672118123E+02 -0.71458202505E+02  0.83037912520E+02  0.00000000000E+00 0. -1.
<mgrwt>
<rscale>  0 0.92620162E+02</rscale>
<asrwt>0</asrwt>
<pdfrwt beam="2">  1        1 0.16890733E-01 0.92620162E+02</pdfrwt>
<pdfrwt beam="1">  1       -1 0.30052173E-02 0.92620162E+02</pdfrwt>
<totfact> 0.10166138E+05</totfact>
</mgrwt>
</event>
<event>
 5    1  0.6308903E+000  0.9224603E+02  0.7546771E-02  0.1297502E+00
          1   -1    0    0  501    0  0.00000000000E+00  0.00000000000E+00  0.62203514829E+02  0.62203514829E+02  0.00000000000E+00 0. -1.
         -1   -1    0    0    0  501 -0.00000000000E+00 -0.00000000000E+00 -0.34199555099E+02  0.34199555099E+02  0.00000000000E+00 0.  1.
         23    2    1    2    0    0  0.00000000000E+00  0.00000000000E+00  0.28003959730E+02  0.96403069928E+02  0.92246030435E+02 0.  0.
        -13    1    3    3    0    0  0.94438116972E+01 -0.41225804565E+01 -0.32981219647E+02  0.34553467241E+02  0.00000000000E+00 0.  1.
         13    1    3    3    0    0 -0.94438116972E+01  0.41225804565E+01  0.60985179377E+02  0.61849602687E+02  0.00000000000E+00 0. -1.
<mgrwt>
<rscale>  0 0.92246030E+02</rscale>
<asrwt>0</asrwt>
<pdfrwt beam="1">  1        1 0.95697715E-02 0.92246030E+02</pdfrwt>
<pdfrwt beam="2">  1       -1 0.52614700E-02 0.92246030E+02</pdfrwt>
<totfact> 0.93814957E+04</totfact>
</mgrwt>
</event>
<event>
 5    1  0.6308903E+000  0.9250656E+02  0.7546771E-02  0.1296893E+00
          2   -1    0    0  501    0  0.00000000000E+00  0.00000000000E+00  0.34320364590E+02  0.34320364590E+02  0.00000000000E+00 0. -1.
         -2   -1    0    0    0  501 -0.00000000000E+00 -0.00000000000E+00 -0.62335176085E+02  0.62335176085E+02  0.00000000000E+00 0.  1.
         23    2    1    2    0    0  0.00000000000E+00  0.00000000000E+00 -0.28014811495E+02  0.96655540676E+02  0.92506561282E+02 0.  0.
        -13    1    3    3    0    0  0.29048922021E+02  0.23645273208E+02  0.14346906271E+02  0.40109506794E+02  0.00000000000E+00 0. -1.
         13    1    3    3    0    0 -0.29048922021E+02 -0.23645273208E+02 -0.42361717766E+02  0.56546033882E+02  0.00000000000E+00 0.  1.
<mgrwt>
<rscale>  0 0.92506561E+02</rscale>
<asrwt>0</asrwt>
<pdfrwt beam="1">  1        2 0.52800562E-02 0.92506561E+02</pdfrwt>
<pdfrwt beam="2">  1       -2 0.95900270E-02 0.92506561E+02</pdfrwt>
<totfact> 0.87845492E+04</totfact>
</mgrwt>
</event>
<event>
 5    1  0.6308903E+000  0.9033666E+02  0.7546771E-02  0.1302038E+00
          1   -1    0    0  501    0  0.00000000000E+00  0.00000000000E+00  0.14619343944E+02  0.14619343944E+02  0.00000000000E+00 0. -1.
         -1   -1    0    0    0  501 -0.00000000000E+00 -0.00000000000E+00 -0.13955331137E+03  0.13955331137E+03  0.00000000000E+00 0.  1.
         23    2    1    2    0    0  0.00000000000E+00  0.00000000000E+00 -0.12493396743E+03  0.15417265531E+03  0.90336656071E+02 0.  0.
        -13    1    3    3    0    0 -0.26727312693E+02  0.36157468188E+02 -0.55133150542E+02  0.71143348517E+02  0.00000000000E+00 0. -1.
         13    1    3    3    0    0  0.26727312693E+02 -0.36157468188E+02 -0.69800816884E+02  0.83029306797E+02  0.00000000000E+00 0.  1.
<mgrwt>
<rscale>  0 0.90336656E+02</rscale>
<asrwt>0</asrwt>
<pdfrwt beam="1">  1        1 0.22491297E-02 0.90336656E+02</pdfrwt>
<pdfrwt beam="2">  1       -1 0.21469741E-01 0.90336656E+02</pdfrwt>
<totfact> 0.77879774E+04</totfact>
</mgrwt>
</event>
<event>
 5    1  0.6308903E+000  0.9177776E+02  0.7546771E-02  0.1298603E+00
         -1   -1    0    0    0  501 -0.00000000000E+00  0.00000000000E+00  0.16569248181E+02  0.16569248181E+02  0.00000000000E+00 0.  1.
          1   -1    0    0  501    0  0.00000000000E+00 -0.00000000000E+00 -0.12709020470E+03  0.12709020470E+03  0.00000000000E+00 0. -1.
         23    2    1    2    0    0  0.00000000000E+00  0.00000000000E+00 -0.11052095652E+03  0.14365945288E+03  0.91777756410E+02 0.  0.
        -13    1    3    3    0    0 -0.22819827013E+02  0.20474881900E+01  0.69756313400E+01  0.23949867335E+02  0.00000000000E+00 0.  1.
         13    1    3    3    0    0  0.22819827013E+02 -0.20474881900E+01 -0.11749658786E+03  0.11970958554E+03  0.00000000000E+00 0. -1.
<mgrwt>
<rscale>  0 0.91777756E+02</rscale>
<asrwt>0</asrwt>
<pdfrwt beam="2">  1        1 0.19552339E-01 0.91777756E+02</pdfrwt>
<pdfrwt beam="1">  1       -1 0.25491151E-02 0.91777756E+02</pdfrwt>
<totfact> 0.10690784E+05</totfact>
</mgrwt>
</event>
<event>
 5    1  0.6308903E+000  0.9278819E+02  0.7546771E-02  0.1296237E+00
         -3   -1    0    0    0  501 -0.00000000000E+00  0.00000000000E+00  0.62798874524E+02  0.62798874524E+02  0.00000000000E+00 0.  1.
          3   -1    0    0  501    0  0.00000000000E+00 -0.00000000000E+00 -0.34274694407E+02  0.34274694407E+02  0.00000000000E+00 0. -1.
         23    2    1    2    0    0  0.00000000000E+00  0.00000000000E+00  0.28524180117E+02  0.97073568931E+02  0.92788193935E+02 0.  0.
        -13    1    3    3    0    0  0.32755192863E+02  0.81287727564E+01  0.47566804663E+02  0.58323070152E+02  0.00000000000E+00 0.  1.
         13    1    3    3    0    0 -0.32755192863E+02 -0.81287727564E+01 -0.19042624546E+02  0.38750498779E+02  0.00000000000E+00 0. -1.
<mgrwt>
<rscale>  0 0.92788194E+02</rscale>
<asrwt>0</asrwt>
<pdfrwt beam="2">  1        3 0.52730299E-02 0.92788194E+02</pdfrwt>
<pdfrwt beam="1">  1       -3 0.96613653E-02 0.92788194E+02</pdfrwt>
<totfact> 0.33261375E+04</totfact>
</mgrwt>
</event>
<event>
 5    1  0.6308903E+000  0.8964026E+02  0.7546771E-02  0.1303725E+00
         -3   -1    0    0    0  501 -0.00000000000E+00  0.00000000000E+00  0.39189461815E+02  0.39189461815E+02  0.00000000000E+00 0.  1.
          3   -1    0    0  501    0  0.00000000000E+00 -0.00000000000E+00 -0.51259805000E+02  0.51259805000E+02  0.00000000000E+00 0. -1.
         23    2    1    2    0    0  0.00000000000E+00  0.00000000000E+00 -0.12070343185E+02  0.90449266815E+02  0.89640262621E+02 0.  0.
        -13    1    3    3    0    0  0.23925472149E+02  0.36898900746E+02 -0.14767003565E+02  0.46389885623E+02  0.00000000000E+00 0.  1.
         13    1    3    3    0    0 -0.23925472149E+02 -0.36898900746E+02  0.26966603793E+01  0.44059381192E+02  0.00000000000E+00 0. -1.
<mgrwt>
<rscale>  0 0.89640263E+02</rscale>
<asrwt>0</asrwt>
<pdfrwt beam="2">  1        3 0.78861238E-02 0.89640263E+02</pdfrwt>
<pdfrwt beam="1">  1       -3 0.60291480E-02 0.89640263E+02</pdfrwt>
<totfact> 0.37068584E+04</totfact>
</mgrwt>
</event>
<event>
 5    1  0.6308903E+000  0.9091719E+02  0.7546771E-02  0.1300646E+00
          4   -1    0    0  501    0  0.00000000000E+00  0.00000000000E+00  0.35200478657E+02  0.35200478657E+02  0.00000000000E+00 0. -1.
         -4   -1    0    0    0  501 -0.00000000000E+00 -0.00000000000E+00 -0.58706134879E+02  0.58706134879E+02  0.00000000000E+00 0.  1.
         23    2    1    2    0    0  0.00000000000E+00  0.00000000000E+00 -0.23505656222E+02  0.93906613535E+02  0.90917194145E+02 0.  0.
        -13    1    3    3    0    0  0.33374214074E+02  0.19807464181E+02 -0.36202015938E+02  0.53073154799E+02  0.00000000000E+00 0.  1.
         13    1    3    3    0    0 -0.33374214074E+02 -0.19807464181E+02  0.12696359716E+02  0.40833458736E+02  0.00000000000E+00 0. -1.
<mgrwt>
<rscale>  0 0.90917194E+02</rscale>
<asrwt>0</asrwt>
<pdfrwt beam="1">  1        4 0.54154583E-02 0.90917194E+02</pdfrwt>
<pdfrwt beam="2">  1       -4 0.90317129E-02 0.90917194E+02</pdfrwt>
<totfact> 0.27050002E+04</totfact>
</mgrwt>
</event>
<event>
 5    1  0.6308903E+000  0.8590980E+02  0.7546771E-02  0.1313070E+00
         -2   -1    0    0    0  501 -0.00000000000E+00  0.00000000000E+00  0.71862400150E+01  0.71862400150E+01  0.00000000000E+00 0.  1.
          2   -1    0    0  501    0  0.00000000000E+00 -0.00000000000E+00 -0.25675785966E+03  0.25675785966E+03  0.00000000000E+00 0. -1.
         23    2    1    2    0    0  0.00000000000E+00  0.00000000000E+00 -0.24957161964E+03  0.26394409967E+03  0.85909803986E+02 0.  0.
        -13    1    3    3    0    0 -0.55937447116E+01 -0.42255933524E+02 -0.14112121407E+03  0.14741794653E+03  0.00000000000E+00 0. -1.
         13    1    3    3    0    0  0.55937447116E+01  0.42255933524E+02 -0.10845040557E+03  0.11652615314E+03  0.00000000000E+00 0.  1.
<mgrwt>
<rscale>  0 0.85909804E+02</rscale>
<asrwt>0</asrwt>
<pdfrwt beam="2">  1        2 0.39501218E-01 0.85909804E+02</pdfrwt>
<pdfrwt beam="1">  1       -2 0.11055751E-02 0.85909804E+02</pdfrwt>
<totfact> 0.19867115E+05</totfact>
</mgrwt>
</event>
<event>
 5    1  0.6308903E+000  0.9104602E+02  0.7546771E-02  0.1300338E+00
         -2   -1    0    0    0  501 -0.00000000000E+00  0.00000000000E+00  0.84194803684E+01  0.84194803684E+01  0.00000000000E+00 0.  1.
          2   -1    0    0  501    0  0.00000000000E+00 -0.00000000000E+00 -0.24613684301E+03  0.24613684301E+03  0.00000000000E+00 0. -1.
         23    2    1    2    0    0  0.00000000000E+00  0.00000000000E+00 -0.23771736264E+03  0.25455632338E+03  0.91046017325E+02 0.  0.
        -13    1    3    3    0    0 -0.38425830800E+02  0.24222956286E+02 -0.11044850997E+03  0.11942432516E+03  0.00000000000E+00 0.  1.
         13    1    3    3    0    0  0.38425830800E+02 -0.24222956286E+02 -0.12726885267E+03  0.13513199822E+03  0.00000000000E+00 0. -1.
<mgrwt>
<rscale>  0 0.91046017E+02</rscale>
<asrwt>0</asrwt>
<pdfrwt beam="2">  1        2 0.37867200E-01 0.91046017E+02</pdfrwt>
<pdfrwt beam="1">  1       -2 0.12953049E-02 0.91046017E+02</pdfrwt>
<totfact> 0.16753988E+05</totfact>
</mgrwt>
</event>
<event>
 5    1  0.6308903E+000  0.9214767E+02  0.7546771E-02  0.1297733E+00
         -1   -1    0    0    0  501 -0.00000000000E+00  0.00000000000E+00  0.14678038336E+02  0.14678038336E+02  0.00000000000E+00 0.  1.
          1   -1    0    0  501    0  0.00000000000E+00 -0.00000000000E+00 -0.14462412444E+03  0.14462412444E+03  0.00000000000E+00 0. -1.
         23    2    1    2    0    0  0.00000000000E+00  0.00000000000E+00 -0.12994608610E+03  0.15930216277E+03  0.92147673717E+02 0.  0.
        -13    1    3    3    0    0 -0.39530735312E+02 -0.59141636517E+01 -0.25356579482E+02  0.47335108419E+02  0.00000000000E+00 0.  1.
         13    1    3    3    0    0  0.39530735312E+02  0.59141636517E+01 -0.10458950662E+03  0.11196705436E+03  0.00000000000E+00 0. -1.
<mgrwt>
<rscale>  0 0.92147674E+02</rscale>
<asrwt>0</asrwt>
<pdfrwt beam="2">  1        1 0.22249867E-01 0.92147674E+02</pdfrwt>
<pdfrwt beam="1">  1       -1 0.22581596E-02 0.92147674E+02</pdfrwt>
<totfact> 0.10824100E+05</totfact>
</mgrwt>
</event>
<event>
 5    1  0.6308903E+000  0.9382944E+02  0.7546771E-02  0.1293834E+00
         -1   -1    0    0    0  501 -0.00000000000E+00  0.00000000000E+00  0.29559384597E+03  0.29559384597E+03  0.00000000000E+00 0.  1.
          1   -1    0    0  501    0  0.00000000000E+00 -0.00000000000E+00 -0.74459966105E+01  0.74459966105E+01  0.00000000000E+00 0. -1.
         23    2    1    2    0    0  0.00000000000E+00  0.00000000000E+00  0.28814784936E+03  0.30303984258E+03  0.93829436217E+02 0.  0.
        -13    1    3    3    0    0  0.24492108289E+02 -0.37354126325E+02  0.97742060045E+02  0.10746489857E+03  0.00000000000E+00 0. -1.
         13    1    3    3    0    0 -0.24492108289E+02  0.37354126325E+02  0.19040578932E+03  0.19557494402E+03  0.00000000000E+00 0.  1.
<mgrwt>
<rscale>  0 0.93829436E+02</rscale>
<asrwt>0</asrwt>
<pdfrwt beam="2">  1        1 0.11455382E-02 0.93829436E+02</pdfrwt>
<pdfrwt beam="1">  1       -1 0.45475967E-01 0.93829436E+02</pdfrwt>
<totfact> 0.56528774E+04</totfact>
</mgrwt>
</event>
<event>
 5    1  0.6308903E+000  0.9021927E+02  0.7546771E-02  0.1302322E+00
          2   -1    0    0  501    0  0.00000000000E+00  0.00000000000E+00  0.44448687984E+02  0.44448687984E+02  0.00000000000E+00 0. -1.
         -2   -1    0    0    0  501 -0.00000000000E+00 -0.00000000000E+00 -0.45780405180E+02  0.45780405180E+02  0.00000000000E+00 0.  1.
         23    2    1    2    0    0  0.00000000000E+00  0.00000000000E+00 -0.13317171958E+01  0.90229093164E+02  0.90219265030E+02 0.  0.
        -13    1    3    3    0    0 -0.54635457577E+01 -0.41829804497E+02 -0.16645586195E+02  0.45350395988E+02  0.00000000000E+00 0.  1.
         13    1    3    3    0    0  0.54635457577E+01  0.41829804497E+02  0.15313868999E+02  0.44878697176E+02  0.00000000000E+00 0. -1.
<mgrwt>
<rscale>  0 0.90219265E+02</rscale>
<asrwt>0</asrwt>
<pdfrwt beam="1">  1        2 0.68382597E-02 0.90219265E+02</pdfrwt>
<pdfrwt beam="2">  1       -2 0.70431393E-02 0.90219265E+02</pdfrwt>
<totfact> 0.10104417E+05</totfact>
</mgrwt>
</event>
<event>
 5    1  0.6308903E+000  0.9203041E+02  0.7546771E-02  0.1298008E+00
         -1   -1    0    0    0  501 -0.00000000000E+00  0.00000000000E+00  0.13687623556E+02  0.13687623556E+02  0.00000000000E+00 0.  1.
          1   -1    0    0  501    0  0.00000000000E+00 -0.00000000000E+00 -0.15469441702E+03  0.15469441702E+03  0.00000000000E+00 0. -1.
         23    2    1    2    0    0  0.00000000000E+00  0.00000000000E+00 -0.14100679346E+03  0.16838204057E+03  0.92030406853E+02 0.  0.
        -13    1    3    3    0    0 -0.22431883661E+02  0.19387455032E+02 -0.13488824822E+03  0.13810829926E+03  0.00000000000E+00 0. -1.
         13    1    3    3    0    0  0.22431883661E+02 -0.19387455032E+02 -0.61185452425E+01  0.30273741313E+02  0.00000000000E+00 0.  1.
<mgrwt>
<rscale>  0 0.92030407E+02</rscale>
<asrwt>0</asrwt>
<pdfrwt beam="2">  1        1 0.23799140E-01 0.92030407E+02</pdfrwt>
<pdfrwt beam="1">  1       -1 0.21057883E-02 0.92030407E+02</pdfrwt>
<totfact> 0.10997036E+05</totfact>
</mgrwt>
</event>
<event>
 5    1  0.6308903E+000  0.8974255E+02  0.7546771E-02  0.1303476E+00
          1   -1    0    0  501    0  0.00000000000E+00  0.00000000000E+00  0.11981307998E+02  0.11981307998E+02  0.00000000000E+00 0. -1.
         -1   -1    0    0    0  501 -0.00000000000E+00 -0.00000000000E+00 -0.16804772409E+03  0.16804772409E+03  0.00000000000E+00 0.  1.
         23    2    1    2    0    0  0.00000000000E+00  0.00000000000E+00 -0.15606641609E+03  0.18002903208E+03  0.89742554914E+02 0.  0.
        -13    1    3    3    0    0  0.41167665803E+02 -0.64260157124E+01 -0.44623941939E+02  0.61052162777E+02  0.00000000000E+00 0. -1.
         13    1    3    3    0    0 -0.41167665803E+02  0.64260157124E+01 -0.11144247415E+03  0.11897686931E+03  0.00000000000E+00 0.  1.
<mgrwt>
<rscale>  0 0.89742555E+02</rscale>
<asrwt>0</asrwt>
<pdfrwt beam="1">  1        1 0.18432782E-02 0.89742555E+02</pdfrwt>
<pdfrwt beam="2">  1       -1 0.25853496E-01 0.89742555E+02</pdfrwt>
<totfact> 0.75808853E+04</totfact>
</mgrwt>
</event>
<event>
 5    1  0.6308903E+000  0.8257036E+02  0.7546771E-02  0.1321911E+00
         -1   -1    0    0    0  501 -0.00000000000E+00  0.00000000000E+00  0.12220618356E+03  0.12220618356E+03  0.00000000000E+00 0.  1.
          1   -1    0    0  501    0  0.00000000000E+00 -0.00000000000E+00 -0.13947463188E+02  0.13947463188E+02  0.00000000000E+00 0. -1.
         23    2    1    2    0    0  0.00000000000E+00  0.00000000000E+00  0.10825872037E+03  0.13615364675E+03  0.82570363850E+02 0.  0.
        -13    1    3    3    0    0  0.35868902929E+02 -0.20302479205E+02  0.58065250197E+02  0.71206334969E+02  0.00000000000E+00 0.  1.
         13    1    3    3    0    0 -0.35868902929E+02  0.20302479205E+02  0.50193470173E+02  0.64947311779E+02  0.00000000000E+00 0. -1.
<mgrwt>
<rscale>  0 0.82570364E+02</rscale>
<asrwt>0</asrwt>
<pdfrwt beam="2">  1        1 0.21457637E-02 0.82570364E+02</pdfrwt>
<pdfrwt beam="1">  1       -1 0.18800951E-01 0.82570364E+02</pdfrwt>
<totfact> 0.10103086E+05</totfact>
</mgrwt>
</event>
<event>
 5    1  0.6308903E+000  0.9056864E+02  0.7546771E-02  0.1301480E+00
         -1   -1    0    0    0  501 -0.00000000000E+00  0.00000000000E+00  0.14432826766E+02  0.14432826766E+02  0.00000000000E+00 0.  1.
          1   -1    0    0  501    0  0.00000000000E+00 -0.00000000000E+00 -0.14208371801E+03  0.14208371801E+03  0.00000000000E+00 0. -1.
         23    2    1    2    0    0  0.00000000000E+00  0.00000000000E+00 -0.12765089124E+03  0.15651654478E+03  0.90568641115E+02 0.  0.
        -13    1    3    3    0    0  0.20945751896E+01  0.25092876090E+02  0.12190603590E+01  0.25209636726E+02  0.00000000000E+00 0.  1.
         13    1    3    3    0    0 -0.20945751896E+01 -0.25092876090E+02 -0.12886995160E+03  0.13130690805E+03  0.00000000000E+00 0. -1.
<mgrwt>
<rscale>  0 0.90568641E+02</rscale>
<asrwt>0</asrwt>
<pdfrwt beam="2">  1        1 0.21859034E-01 0.90568641E+02</pdfrwt>
<pdfrwt beam="1">  1       -1 0.22204349E-02 0.90568641E+02</pdfrwt>
<totfact> 0.11305072E+05</totfact>
</mgrwt>
</event>
<event>
 5    1  0.6308903E+000  0.8824329E+02  0.7546771E-02  0.1307162E+00
          2   -1    0    0  501    0  0.00000000000E+00  0.00000000000E+00  0.13453219650E+03  0.13453219650E+03  0.00000000000E+00 0.  1.
         -2   -1    0    0    0  501 -0.00000000000E+00 -0.00000000000E+00 -0.14470288269E+02  0.14470288269E+02  0.00000000000E+00 0. -1.
         23    2    1    2    0    0  0.00000000000E+00  0.00000000000E+00  0.12006190823E+03  0.14900248477E+03  0.88243292431E+02 0.  0.
        -13    1    3    3    0    0 -0.35627294182E+02 -0.68957046419E+01  0.10240846921E+03  0.10864782280E+03  0.00000000000E+00 0.  1.
         13    1    3    3    0    0  0.35627294182E+02  0.68957046419E+01  0.17653439020E+02  0.40354661967E+02  0.00000000000E+00 0. -1.
<mgrwt>
<rscale>  0 0.88243292E+02</rscale>
<asrwt>0</asrwt>
<pdfrwt beam="1">  1        2 0.20697260E-01 0.88243292E+02</pdfrwt>
<pdfrwt beam="2">  1       -2 0.22261983E-02 0.88243292E+02</pdfrwt>
<totfact> 0.14731278E+05</totfact>
</mgrwt>
</event>
<event>
 5    1  0.6308903E+000  0.9173311E+02  0.7546771E-02  0.1298708E+00
         -2   -1    0    0    0  501 -0.00000000000E+00  0.00000000000E+00  0.63109996196E+02  0.63109996196E+02  0.00000000000E+00 0.  1.
          2   -1    0    0  501    0  0.00000000000E+00 -0.00000000000E+00 -0.33334508518E+02  0.33334508518E+02  0.00000000000E+00 0. -1.
         23    2    1    2    0    0  0.00000000000E+00  0.00000000000E+00  0.29775487678E+02  0.96444504714E+02  0.91733106473E+02 0.  0.
        -13    1    3    3    0    0 -0.54398635993E+01  0.21388562260E+02 -0.27385263961E+02  0.35171229631E+02  0.00000000000E+00 0. -1.
         13    1    3    3    0    0  0.54398635993E+01 -0.21388562260E+02  0.57160751639E+02  0.61273275083E+02  0.00000000000E+00 0.  1.
<mgrwt>
<rscale>  0 0.91733106E+02</rscale>
<asrwt>0</asrwt>
<pdfrwt beam="2">  1        2 0.51283859E-02 0.91733106E+02</pdfrwt>
<pdfrwt beam="1">  1       -2 0.97092302E-02 0.91733106E+02</pdfrwt>
<totfact> 0.89353573E+04</totfact>
</mgrwt>
</event>
<event>
 5    1  0.6308903E+000  0.9263049E+02  0.7546771E-02  0.1296604E+00
         -2   -1    0    0    0  501 -0.00000000000E+00  0.00000000000E+00  0.45093994601E+02  0.45093994601E+02  0.00000000000E+00 0.  1.
          2   -1    0    0  501    0  0.00000000000E+00 -0.00000000000E+00 -0.47569565539E+02  0.47569565539E+02  0.00000000000E+00 0. -1.
         23    2    1    2    0    0  0.00000000000E+00  0.00000000000E+00 -0.24755709378E+01  0.92663560140E+02  0.92630485945E+02 0.  0.
        -13    1    3    3    0    0 -0.32952849370E+01  0.27784667808E+02 -0.38159703590E+02  0.47318174585E+02  0.00000000000E+00 0. -1.
         13    1    3    3    0    0  0.32952849370E+01 -0.27784667808E+02  0.35684132652E+02  0.45345385555E+02  0.00000000000E+00 0.  1.
<mgrwt>
<rscale>  0 0.92630486E+02</rscale>
<asrwt>0</asrwt>
<pdfrwt beam="2">  1        2 0.73183947E-02 0.92630486E+02</pdfrwt>
<pdfrwt beam="1">  1       -2 0.69375377E-02 0.92630486E+02</pdfrwt>
<totfact> 0.95345531E+04</totfact>
</mgrwt>
</event>
<event>
 5    1  0.6308903E+000  0.9232078E+02  0.7546771E-02  0.1297327E+00
          1   -1    0    0  501    0  0.00000000000E+00  0.00000000000E+00  0.82281278769E+02  0.82281278769E+02  0.00000000000E+00 0. -1.
         -1   -1    0    0    0  501 -0.00000000000E+00 -0.00000000000E+00 -0.25896311476E+02  0.25896311476E+02  0.00000000000E+00 0.  1.
         23    2    1    2    0    0  0.00000000000E+00  0.00000000000E+00  0.56384967293E+02  0.10817759024E+03  0.92320780404E+02 0.  0.
        -13    1    3    3    0    0  0.41915973517E+01 -0.41217712717E+02  0.43417498099E+01  0.41657173709E+02  0.00000000000E+00 0.  1.
         13    1    3    3    0    0 -0.41915973517E+01  0.41217712717E+02  0.52043217483E+02  0.66520416535E+02  0.00000000000E+00 0. -1.
<mgrwt>
<rscale>  0 0.92320780E+02</rscale>
<asrwt>0</asrwt>
<pdfrwt beam="1">  1        1 0.12658658E-01 0.92320780E+02</pdfrwt>
<pdfrwt beam="2">  1       -1 0.39840479E-02 0.92320780E+02</pdfrwt>
<totfact> 0.97786042E+04</totfact>
</mgrwt>
</event>
<event>
 5    1  0.6308903E+000  0.9166267E+02  0.7546771E-02  0.1298875E+00
         -2   -1    0    0    0  501 -0.00000000000E+00  0.00000000000E+00  0.18313864275E+02  0.18313864275E+02  0.00000000000E+00 0.  1.
          2   -1    0    0  501    0  0.00000000000E+00 -0.00000000000E+00 -0.11469514532E+03  0.11469514532E+03  0.00000000000E+00 0. -1.
         23    2    1    2    0    0  0.00000000000E+00  0.00000000000E+00 -0.96381281048E+02  0.13300900960E+03  0.91662671235E+02 0.  0.
        -13    1    3    3    0    0  0.35335476986E+02 -0.25742646654E+02 -0.28229502154E+02  0.52040220815E+02  0.00000000000E+00 0.  1.
         13    1    3    3    0    0 -0.35335476986E+02  0.25742646654E+02 -0.68151778895E+02  0.80968788784E+02  0.00000000000E+00 0. -1.
<mgrwt>
<rscale>  0 0.91662671E+02</rscale>
<asrwt>0</asrwt>
<pdfrwt beam="2">  1        2 0.17645407E-01 0.91662671E+02</pdfrwt>
<pdfrwt beam="1">  1       -2 0.28175175E-02 0.91662671E+02</pdfrwt>
<totfact> 0.12615734E+05</totfact>
</mgrwt>
</event>
<event>
 5    1  0.6308903E+000  0.8647883E+02  0.7546771E-02  0.1311610E+00
         -2   -1    0    0    0  501 -0.00000000000E+00  0.00000000000E+00  0.19885219869E+03  0.19885219869E+03  0.00000000000E+00 0.  1.
          2   -1    0    0  501    0  0.00000000000E+00 -0.00000000000E+00 -0.94021942843E+01  0.94021942843E+01  0.00000000000E+00 0. -1.
         23    2    1    2    0    0  0.00000000000E+00  0.00000000000E+00  0.18945000441E+03  0.20825439298E+03  0.86478829917E+02 0.  0.
        -13    1    3    3    0    0 -0.21485931130E+02  0.26673570446E+02  0.15828032271E+03  0.16194377158E+03  0.00000000000E+00 0.  1.
         13    1    3    3    0    0  0.21485931130E+02 -0.26673570446E+02  0.31169681700E+02  0.46310621397E+02  0.00000000000E+00 0. -1.
<mgrwt>
<rscale>  0 0.86478830E+02</rscale>
<asrwt>0</asrwt>
<pdfrwt beam="2">  1        2 0.14464916E-02 0.86478830E+02</pdfrwt>
<pdfrwt beam="1">  1       -2 0.30592643E-01 0.86478830E+02</pdfrwt>
<totfact> 0.71494761E+04</totfact>
</mgrwt>
</event>
<event>
 5    1  0.6308903E+000  0.8944266E+02  0.7546771E-02  0.1304207E+00
         -3   -1    0    0    0  501 -0.00000000000E+00  0.00000000000E+00  0.21077075353E+03  0.21077075353E+03  0.00000000000E+00 0.  1.
          3   -1    0    0  501    0  0.00000000000E+00 -0.00000000000E+00 -0.94889705283E+01  0.94889705283E+01  0.00000000000E+00 0. -1.
         23    2    1    2    0    0  0.00000000000E+00  0.00000000000E+00  0.20128178300E+03  0.22025972406E+03  0.89442662493E+02 0.  0.
        -13    1    3    3    0    0  0.10550051726E+02  0.34404153346E+02  0.16602914662E+03  0.16988415725E+03  0.00000000000E+00 0.  1.
         13    1    3    3    0    0 -0.10550051726E+02 -0.34404153346E+02  0.35252636381E+02  0.50375566802E+02  0.00000000000E+00 0. -1.
<mgrwt>
<rscale>  0 0.89442662E+02</rscale>
<asrwt>0</asrwt>
<pdfrwt beam="2">  1        3 0.14598418E-02 0.89442662E+02</pdfrwt>
<pdfrwt beam="1">  1       -3 0.32426266E-01 0.89442662E+02</pdfrwt>
<totfact> 0.28937472E+04</totfact>
</mgrwt>
</event>
<event>
 5    1  0.6308903E+000  0.8767397E+02  0.7546771E-02  0.1308584E+00
          1   -1    0    0  501    0  0.00000000000E+00  0.00000000000E+00  0.34492426369E+02  0.34492426369E+02  0.00000000000E+00 0. -1.
         -1   -1    0    0    0  501 -0.00000000000E+00 -0.00000000000E+00 -0.55713140413E+02  0.55713140413E+02  0.00000000000E+00 0.  1.
         23    2    1    2    0    0  0.00000000000E+00  0.00000000000E+00 -0.21220714043E+02  0.90205566782E+02  0.87673973185E+02 0.  0.
        -13    1    3    3    0    0  0.40768400389E+02 -0.10278900540E+02 -0.23376832424E+02  0.48106076131E+02  0.00000000000E+00 0.  1.
         13    1    3    3    0    0 -0.40768400389E+02  0.10278900540E+02  0.21561183805E+01  0.42099490651E+02  0.00000000000E+00 0. -1.
<mgrwt>
<rscale>  0 0.87673973E+02</rscale>
<asrwt>0</asrwt>
<pdfrwt beam="1">  1        1 0.53065272E-02 0.87673973E+02</pdfrwt>
<pdfrwt beam="2">  1       -1 0.85712523E-02 0.87673973E+02</pdfrwt>
<totfact> 0.99031797E+04</totfact>
</mgrwt>
</event>
<event>
 5    1  0.6308903E+000  0.9203628E+02  0.7546771E-02  0.1297994E+00
          2   -1    0    0  501    0  0.00000000000E+00  0.00000000000E+00  0.18651462319E+02  0.18651462319E+02  0.00000000000E+00 0. -1.
         -2   -1    0    0    0  501 -0.00000000000E+00 -0.00000000000E+00 -0.11353905631E+03  0.11353905631E+03  0.00000000000E+00 0.  1.
         23    2    1    2    0    0  0.00000000000E+00  0.00000000000E+00 -0.94887593994E+02  0.13219051863E+03  0.92036284815E+02 0.  0.
        -13    1    3    3    0    0  0.32654443098E+02  0.94726518073E+01 -0.91983185003E+02  0.98066049730E+02  0.00000000000E+00 0.  1.
         13    1    3    3    0    0 -0.32654443098E+02 -0.94726518073E+01 -0.29044089912E+01  0.34124468903E+02  0.00000000000E+00 0. -1.
<mgrwt>
<rscale>  0 0.92036285E+02</rscale>
<asrwt>0</asrwt>
<pdfrwt beam="1">  1        2 0.28694557E-02 0.92036285E+02</pdfrwt>
<pdfrwt beam="2">  1       -2 0.17467547E-01 0.92036285E+02</pdfrwt>
<totfact> 0.74977205E+04</totfact>
</mgrwt>
</event>
<event>
 5    1  0.6308903E+000  0.9187756E+02  0.7546771E-02  0.1298368E+00
         -1   -1    0    0    0  501 -0.00000000000E+00  0.00000000000E+00  0.34418578992E+02  0.34418578992E+02  0.00000000000E+00 0.  1.
          1   -1    0    0  501    0  0.00000000000E+00 -0.00000000000E+00 -0.61314889981E+02  0.61314889981E+02  0.00000000000E+00 0. -1.
         23    2    1    2    0    0  0.00000000000E+00  0.00000000000E+00 -0.26896310989E+02  0.95733468974E+02  0.91877557308E+02 0.  0.
        -13    1    3    3    0    0 -0.40595683865E+02  0.36038810314E+01  0.86399397921E+01  0.41661085759E+02  0.00000000000E+00 0.  1.
         13    1    3    3    0    0  0.40595683865E+02 -0.36038810314E+01 -0.35536250781E+02  0.54072383215E+02  0.00000000000E+00 0. -1.
<mgrwt>
<rscale>  0 0.91877557E+02</rscale>
<asrwt>0</asrwt>
<pdfrwt beam="2">  1        1 0.94330599E-02 0.91877557E+02</pdfrwt>
<pdfrwt beam="1">  1       -1 0.52951660E-02 0.91877557E+02</pdfrwt>
<totfact> 0.94655251E+04</totfact>
</mgrwt>
</event>
<event>
 5    1  0.6308903E+000  0.8901729E+02  0.7546771E-02  0.1305249E+00
          4   -1    0    0  501    0  0.00000000000E+00  0.00000000000E+00  0.12658735177E+03  0.12658735177E+03  0.00000000000E+00 0. -1.
         -4   -1    0    0    0  501 -0.00000000000E+00 -0.00000000000E+00 -0.15649427323E+02  0.15649427323E+02  0.00000000000E+00 0.  1.
         23    2    1    2    0    0  0.00000000000E+00  0.00000000000E+00  0.11093792445E+03  0.14223677910E+03  0.89017291840E+02 0.  0.
        -13    1    3    3    0    0  0.39756112947E+02 -0.12121028503E+02  0.80912107996E+02  0.90962833449E+02  0.00000000000E+00 0.  1.
         13    1    3    3    0    0 -0.39756112947E+02  0.12121028503E+02  0.30025816455E+02  0.51273945649E+02  0.00000000000E+00 0. -1.
<mgrwt>
<rscale>  0 0.89017292E+02</rscale>
<asrwt>0</asrwt>
<pdfrwt beam="1">  1        4 0.19474976E-01 0.89017292E+02</pdfrwt>
<pdfrwt beam="2">  1       -4 0.24076043E-02 0.89017292E+02</pdfrwt>
<totfact> 0.25668416E+04</totfact>
</mgrwt>
</event>
<event>
 5    1  0.6308903E+000  0.9198145E+02  0.7546771E-02  0.1298123E+00
          2   -1    0    0  501    0  0.00000000000E+00  0.00000000000E+00  0.46715324776E+02  0.46715324776E+02  0.00000000000E+00 0. -1.
         -2   -1    0    0    0  501 -0.00000000000E+00 -0.00000000000E+00 -0.45277360404E+02  0.45277360404E+02  0.00000000000E+00 0.  1.
         23    2    1    2    0    0  0.00000000000E+00  0.00000000000E+00  0.14379643717E+01  0.91992685180E+02  0.91981445875E+02 0.  0.
        -13    1    3    3    0    0  0.17579473980E+02 -0.38718881136E+02 -0.16803345109E+02  0.45722446005E+02  0.00000000000E+00 0.  1.
         13    1    3    3    0    0 -0.17579473980E+02  0.38718881136E+02  0.18241309481E+02  0.46270239176E+02  0.00000000000E+00 0. -1.
<mgrwt>
<rscale>  0 0.91981446E+02</rscale>
<asrwt>0</asrwt>
<pdfrwt beam="1">  1        2 0.71869731E-02 0.91981446E+02</pdfrwt>
<pdfrwt beam="2">  1       -2 0.69657477E-02 0.91981446E+02</pdfrwt>
<totfact> 0.96829529E+04</totfact>
</mgrwt>
</event>
<event>
 5    1  0.6308903E+000  0.9538299E+02  0.7546771E-02  0.1290316E+00
         -3   -1    0    0    0  501 -0.00000000000E+00  0.00000000000E+00  0.91522567264E+01  0.91522567264E+01  0.00000000000E+00 0.  1.
          3   -1    0    0  501    0  0.00000000000E+00 -0.00000000000E+00 -0.24851561004E+03  0.24851561004E+03  0.00000000000E+00 0. -1.
         23    2    1    2    0    0  0.00000000000E+00  0.00000000000E+00 -0.23936335332E+03  0.25766786677E+03  0.95382989335E+02 0.  0.
        -13    1    3    3    0    0 -0.30158748807E+02 -0.21179675822E+02 -0.37906782052E+02  0.52868260072E+02  0.00000000000E+00 0.  1.
         13    1    3    3    0    0  0.30158748807E+02  0.21179675822E+02 -0.20145657126E+03  0.20479960670E+03  0.00000000000E+00 0. -1.
<mgrwt>
<rscale>  0 0.95382989E+02</rscale>
<asrwt>0</asrwt>
<pdfrwt beam="2">  1        3 0.38233172E-01 0.95382989E+02</pdfrwt>
<pdfrwt beam="1">  1       -3 0.14080395E-02 0.95382989E+02</pdfrwt>
<totfact> 0.22813560E+04</totfact>
</mgrwt>
</event>
<event>
 5    1  0.6308903E+000  0.1003065E+03  0.7546771E-02  0.1279653E+00
         -1   -1    0    0    0  501 -0.00000000000E+00  0.00000000000E+00  0.65990410935E+02  0.65990410935E+02  0.00000000000E+00 0.  1.
          1   -1    0    0  501    0  0.00000000000E+00 -0.00000000000E+00 -0.38116869397E+02  0.38116869397E+02  0.00000000000E+00 0. -1.
         23    2    1    2    0    0  0.00000000000E+00  0.00000000000E+00  0.27873541539E+02  0.10410728033E+03  0.10030648783E+03 0.  0.
        -13    1    3    3    0    0  0.65942429148E+01  0.33362340362E+02 -0.24322151822E+02  0.41810248305E+02  0.00000000000E+00 0. -1.
         13    1    3    3    0    0 -0.65942429148E+01 -0.33362340362E+02  0.52195693361E+02  0.62297032028E+02  0.00000000000E+00 0.  1.
<mgrwt>
<rscale>  0 0.10030649E+03</rscale>
<asrwt>0</asrwt>
<pdfrwt beam="2">  1        1 0.58641337E-02 0.10030649E+03</pdfrwt>
<pdfrwt beam="1">  1       -1 0.10152371E-01 0.10030649E+03</pdfrwt>
<totfact> 0.68513921E+04</totfact>
</mgrwt>
</event>
<event>
 5    1  0.6308903E+000  0.8981469E+02  0.7546771E-02  0.1303301E+00
         -2   -1    0    0    0  501 -0.00000000000E+00  0.00000000000E+00  0.99349318348E+02  0.99349318348E+02  0.00000000000E+00 0.  1.
          2   -1    0    0  501    0  0.00000000000E+00 -0.00000000000E+00 -0.20298774716E+02  0.20298774716E+02  0.00000000000E+00 0. -1.
         23    2    1    2    0    0  0.00000000000E+00  0.00000000000E+00  0.79050543632E+02  0.11964809306E+03  0.89814685466E+02 0.  0.
        -13    1    3    3    0    0 -0.10657545016E+02 -0.22441993823E+02 -0.10309910022E+02  0.26898338187E+02  0.00000000000E+00 0. -1.
         13    1    3    3    0    0  0.10657545016E+02  0.22441993823E+02  0.89360453654E+02  0.92749754877E+02  0.00000000000E+00 0.  1.
<mgrwt>
<rscale>  0 0.89814685E+02</rscale>
<asrwt>0</asrwt>
<pdfrwt beam="2">  1        2 0.31228885E-02 0.89814685E+02</pdfrwt>
<pdfrwt beam="1">  1       -2 0.15284510E-01 0.89814685E+02</pdfrwt>
<totfact> 0.83010251E+04</totfact>
</mgrwt>
</event>
<event>
 5    1  0.6308903E+000  0.9010599E+02  0.7546771E-02  0.1302595E+00
         -2   -1    0    0    0  501 -0.00000000000E+00  0.00000000000E+00  0.53773513513E+02  0.53773513513E+02  0.00000000000E+00 0. -1.
          2   -1    0    0  501    0  0.00000000000E+00 -0.00000000000E+00 -0.37746695861E+02  0.37746695861E+02  0.00000000000E+00 0.  1.
         23    2    1    2    0    0  0.00000000000E+00  0.00000000000E+00  0.16026817652E+02  0.91520209374E+02  0.90105992253E+02 0.  0.
        -13    1    3    3    0    0  0.18879917582E+02 -0.13465878805E+02 -0.31219135487E+02  0.38889787868E+02  0.00000000000E+00 0.  1.
         13    1    3    3    0    0 -0.18879917582E+02  0.13465878805E+02  0.47245953139E+02  0.52630421506E+02  0.00000000000E+00 0. -1.
<mgrwt>
<rscale>  0 0.90105992E+02</rscale>
<asrwt>0</asrwt>
<pdfrwt beam="2">  1        2 0.58071840E-02 0.90105992E+02</pdfrwt>
<pdfrwt beam="1">  1       -2 0.82728483E-02 0.90105992E+02</pdfrwt>
<totfact> 0.97245769E+04</totfact>
</mgrwt>
</event>
<event>
 5    1  0.6308903E+000  0.9267468E+02  0.7546771E-02  0.1296501E+00
         -1   -1    0    0    0  501 -0.00000000000E+00  0.00000000000E+00  0.48770455187E+02  0.48770455187E+02  0.00000000000E+00 0.  1.
          1   -1    0    0  501    0  0.00000000000E+00 -0.00000000000E+00 -0.44025606694E+02  0.44025606694E+02  0.00000000000E+00 0. -1.
         23    2    1    2    0    0  0.00000000000E+00  0.00000000000E+00  0.47448484921E+01  0.92796061881E+02  0.92674675685E+02 0.  0.
        -13    1    3    3    0    0  0.35885450127E+02 -0.24314919578E+02  0.18769710356E+02  0.47236457019E+02  0.00000000000E+00 0.  1.
         13    1    3    3    0    0 -0.35885450127E+02  0.24314919578E+02 -0.14024861864E+02  0.45559604862E+02  0.00000000000E+00 0. -1.
<mgrwt>
<rscale>  0 0.92674676E+02</rscale>
<asrwt>0</asrwt>
<pdfrwt beam="2">  1        1 0.67731703E-02 0.92674676E+02</pdfrwt>
<pdfrwt beam="1">  1       -1 0.75031469E-02 0.92674676E+02</pdfrwt>
<totfact> 0.87859701E+04</totfact>
</mgrwt>
</event>
<event>
 5    1  0.6308903E+000  0.9141728E+02  0.7546771E-02  0.1299455E+00
         -2   -1    0    0    0  501 -0.00000000000E+00  0.00000000000E+00  0.20369597480E+02  0.20369597480E+02  0.00000000000E+00 0.  1.
          2   -1    0    0  501    0  0.00000000000E+00 -0.00000000000E+00 -0.10256853794E+03  0.10256853794E+03  0.00000000000E+00 0. -1.
         23    2    1    2    0    0  0.00000000000E+00  0.00000000000E+00 -0.82198940464E+02  0.12293813542E+03  0.91417281343E+02 0.  0.
        -13    1    3    3    0    0  0.24409623509E+02  0.18971498989E+02 -0.86376223597E+02  0.91742026883E+02  0.00000000000E+00 0. -1.
         13    1    3    3    0    0 -0.24409623509E+02 -0.18971498989E+02  0.41772831327E+01  0.31196108541E+02  0.00000000000E+00 0.  1.
<mgrwt>
<rscale>  0 0.91417281E+02</rscale>
<asrwt>0</asrwt>
<pdfrwt beam="2">  1        2 0.15779775E-01 0.91417281E+02</pdfrwt>
<pdfrwt beam="1">  1       -2 0.31337843E-02 0.91417281E+02</pdfrwt>
<totfact> 0.12273739E+05</totfact>
</mgrwt>
</event>
<event>
 5    1  0.6308903E+000  0.8862495E+02  0.7546771E-02  0.1306216E+00
          2   -1    0    0  501    0  0.00000000000E+00  0.00000000000E+00  0.39684625817E+02  0.39684625817E+02  0.00000000000E+00 0. -1.
         -2   -1    0    0    0  501 -0.00000000000E+00 -0.00000000000E+00 -0.49480008846E+02  0.49480008846E+02  0.00000000000E+00 0.  1.
         23    2    1    2    0    0  0.00000000000E+00  0.00000000000E+00 -0.97953830288E+01  0.89164634664E+02  0.88624954420E+02 0.  0.
        -13    1    3    3    0    0 -0.10185779694E+02  0.37308980992E+02  0.16864688366E+02  0.42191561767E+02  0.00000000000E+00 0. -1.
         13    1    3    3    0    0  0.10185779694E+02 -0.37308980992E+02 -0.26660071395E+02  0.46973072897E+02  0.00000000000E+00 0.  1.
<mgrwt>
<rscale>  0 0.88624954E+02</rscale>
<asrwt>0</asrwt>
<pdfrwt beam="1">  1        2 0.61053270E-02 0.88624954E+02</pdfrwt>
<pdfrwt beam="2">  1       -2 0.76123091E-02 0.88624954E+02</pdfrwt>
<totfact> 0.10332366E+05</totfact>
</mgrwt>
</event>
<event>
 5    1  0.6308903E+000  0.8976004E+02  0.7546771E-02  0.1303434E+00
         -4   -1    0    0    0  501 -0.00000000000E+00  0.00000000000E+00  0.26686012592E+03  0.26686012592E+03  0.00000000000E+00 0.  1.
          4   -1    0    0  501    0  0.00000000000E+00 -0.00000000000E+00 -0.75478343506E+01  0.75478343506E+01  0.00000000000E+00 0. -1.
         23    2    1    2    0    0  0.00000000000E+00  0.00000000000E+00  0.25931229157E+03  0.27440796027E+03  0.89760036213E+02 0.  0.
        -13    1    3    3    0    0 -0.23476983029E+02  0.35109489777E+02  0.83255116986E+02  0.93355554247E+02  0.00000000000E+00 0.  1.
         13    1    3    3    0    0  0.23476983029E+02 -0.35109489777E+02  0.17605717459E+03  0.18105240603E+03  0.00000000000E+00 0. -1.
<mgrwt>
<rscale>  0 0.89760036E+02</rscale>
<asrwt>0</asrwt>
<pdfrwt beam="2">  1        4 0.11612055E-02 0.89760036E+02</pdfrwt>
<pdfrwt beam="1">  1       -4 0.41055397E-01 0.89760036E+02</pdfrwt>
<totfact> 0.19421755E+04</totfact>
</mgrwt>
</event>
<event>
 5    1  0.6308903E+000  0.9105436E+02  0.7546771E-02  0.1300318E+00
         -2   -1    0    0    0  501 -0.00000000000E+00  0.00000000000E+00  0.26591778477E+02  0.26591778477E+02  0.00000000000E+00 0.  1.
          2   -1    0    0  501    0  0.00000000000E+00 -0.00000000000E+00 -0.77946049778E+02  0.77946049778E+02  0.00000000000E+00 0. -1.
         23    2    1    2    0    0  0.00000000000E+00  0.00000000000E+00 -0.51354271301E+02  0.10453782826E+03  0.91054359344E+02 0.  0.
        -13    1    3    3    0    0  0.21510140411E+01 -0.16896746342E+02  0.22795801873E+02  0.28456554278E+02  0.00000000000E+00 0.  1.
         13    1    3    3    0    0 -0.21510140411E+01  0.16896746342E+02 -0.74150073174E+02  0.76081273978E+02  0.00000000000E+00 0. -1.
<mgrwt>
<rscale>  0 0.91054359E+02</rscale>
<asrwt>0</asrwt>
<pdfrwt beam="2">  1        2 0.11991700E-01 0.91054359E+02</pdfrwt>
<pdfrwt beam="1">  1       -2 0.40910429E-02 0.91054359E+02</pdfrwt>
<totfact> 0.11443483E+05</totfact>
</mgrwt>
</event>
<event>
 5    1  0.6308903E+000  0.9193858E+02  0.7546771E-02  0.1298224E+00
          3   -1    0    0  501    0  0.00000000000E+00  0.00000000000E+00  0.24716894188E+02  0.24716894188E+02  0.00000000000E+00 0. -1.
         -3   -1    0    0    0  501 -0.00000000000E+00 -0.00000000000E+00 -0.85495200078E+02  0.85495200078E+02  0.00000000000E+00 0.  1.
         23    2    1    2    0    0  0.00000000000E+00  0.00000000000E+00 -0.60778305890E+02  0.11021209427E+03  0.91938584151E+02 0.  0.
        -13    1    3    3    0    0  0.14139216738E+02 -0.18358898549E+02 -0.77981637077E+02  0.81351719878E+02  0.00000000000E+00 0.  1.
         13    1    3    3    0    0 -0.14139216738E+02  0.18358898549E+02  0.17203331187E+02  0.28860374388E+02  0.00000000000E+00 0. -1.
<mgrwt>
<rscale>  0 0.91938584E+02</rscale>
<asrwt>0</asrwt>
<pdfrwt beam="1">  1        3 0.38025991E-02 0.91938584E+02</pdfrwt>
<pdfrwt beam="2">  1       -3 0.13153108E-01 0.91938584E+02</pdfrwt>
<totfact> 0.33170915E+04</totfact>
</mgrwt>
</event>
<event>
 5    1  0.6308903E+000  0.8762101E+02  0.7546771E-02  0.1308717E+00
          1   -1    0    0  501    0  0.00000000000E+00  0.00000000000E+00  0.26394429867E+02  0.26394429867E+02  0.00000000000E+00 0. -1.
         -1   -1    0    0    0  501 -0.00000000000E+00 -0.00000000000E+00 -0.72718388196E+02  0.72718388196E+02  0.00000000000E+00 0.  1.
         23    2    1    2    0    0  0.00000000000E+00  0.00000000000E+00 -0.46323958329E+02  0.99112818062E+02  0.87621011116E+02 0.  0.
        -13    1    3    3    0    0 -0.24996193115E+02 -0.23378809446E+01 -0.63774724533E+02  0.68538243680E+02  0.00000000000E+00 0.  1.
         13    1    3    3    0    0  0.24996193115E+02  0.23378809446E+01  0.17450766204E+02  0.30574574382E+02  0.00000000000E+00 0. -1.
<mgrwt>
<rscale>  0 0.87621011E+02</rscale>
<asrwt>0</asrwt>
<pdfrwt beam="1">  1        1 0.40606815E-02 0.87621011E+02</pdfrwt>
<pdfrwt beam="2">  1       -1 0.11187444E-01 0.87621011E+02</pdfrwt>
<totfact> 0.95183642E+04</totfact>
</mgrwt>
</event>
<event>
 5    1  0.6308903E+000  0.9085026E+02  0.7546771E-02  0.1300806E+00
          1   -1    0    0  501    0  0.00000000000E+00  0.00000000000E+00  0.27306511796E+02  0.27306511796E+02  0.00000000000E+00 0. -1.
         -1   -1    0    0    0  501 -0.00000000000E+00 -0.00000000000E+00 -0.75565954891E+02  0.75565954891E+02  0.00000000000E+00 0.  1.
         23    2    1    2    0    0  0.00000000000E+00  0.00000000000E+00 -0.48259443095E+02  0.10287246669E+03  0.90850264471E+02 0.  0.
        -13    1    3    3    0    0  0.25923481651E+02  0.29907848132E+02  0.11122541288E+01  0.39594739424E+02  0.00000000000E+00 0. -1.
         13    1    3    3    0    0 -0.25923481651E+02 -0.29907848132E+02 -0.49371697224E+02  0.63277727263E+02  0.00000000000E+00 0.  1.
<mgrwt>
<rscale>  0 0.90850264E+02</rscale>
<asrwt>0</asrwt>
<pdfrwt beam="1">  1        1 0.42010018E-02 0.90850264E+02</pdfrwt>
<pdfrwt beam="2">  1       -1 0.11625532E-01 0.90850264E+02</pdfrwt>
<totfact> 0.86249593E+04</totfact>
</mgrwt>
</event>
<event>
 5    1  0.6308903E+000  0.9023315E+02  0.7546771E-02  0.1302288E+00
         -1   -1    0    0    0  501 -0.00000000000E+00  0.00000000000E+00  0.21142237788E+03  0.21142237788E+03  0.00000000000E+00 0.  1.
          1   -1    0    0  501    0  0.00000000000E+00 -0.00000000000E+00 -0.96276731056E+01  0.96276731056E+01  0.00000000000E+00 0. -1.
         23    2    1    2    0    0  0.00000000000E+00  0.00000000000E+00  0.20179470477E+03  0.22105005098E+03  0.90233154470E+02 0.  0.
        -13    1    3    3    0    0  0.29786774057E+02 -0.61741281933E+01  0.19274430569E+02  0.36012156856E+02  0.00000000000E+00 0. -1.
         13    1    3    3    0    0 -0.29786774057E+02  0.61741281933E+01  0.18252027420E+03  0.18503789413E+03  0.00000000000E+00 0.  1.
<mgrwt>
<rscale>  0 0.90233154E+02</rscale>
<asrwt>0</asrwt>
<pdfrwt beam="2">  1        1 0.14811806E-02 0.90233154E+02</pdfrwt>
<pdfrwt beam="1">  1       -1 0.32526516E-01 0.90233154E+02</pdfrwt>
<totfact> 0.70184339E+04</totfact>
</mgrwt>
</event>
<event>
 5    1  0.6308903E+000  0.9072744E+02  0.7546771E-02  0.1301100E+00
          2   -1    0    0  501    0  0.00000000000E+00  0.00000000000E+00  0.33056922727E+03  0.33056922727E+03  0.00000000000E+00 0. -1.
         -2   -1    0    0    0  501 -0.00000000000E+00 -0.00000000000E+00 -0.62252228354E+01  0.62252228354E+01  0.00000000000E+00 0.  1.
         23    2    1    2    0    0  0.00000000000E+00  0.00000000000E+00  0.32434400443E+03  0.33679445010E+03  0.90727440221E+02 0.  0.
        -13    1    3    3    0    0  0.51646779370E+01 -0.43636114632E+02  0.12032450475E+03  0.12809672456E+03  0.00000000000E+00 0.  1.
         13    1    3    3    0    0 -0.51646779370E+01  0.43636114632E+02  0.20401949968E+03  0.20869772555E+03  0.00000000000E+00 0. -1.
<mgrwt>
<rscale>  0 0.90727440E+02</rscale>
<asrwt>0</asrwt>
<pdfrwt beam="1">  1        2 0.50856791E-01 0.90727440E+02</pdfrwt>
<pdfrwt beam="2">  1       -2 0.95772684E-03 0.90727440E+02</pdfrwt>
<totfact> 0.18871092E+05</totfact>
</mgrwt>
</event>
<event>
 5    1  0.6308903E+000  0.9228976E+02  0.7546771E-02  0.1297400E+00
         -1   -1    0    0    0  501 -0.00000000000E+00  0.00000000000E+00  0.40250802961E+02  0.40250802961E+02  0.00000000000E+00 0.  1.
          1   -1    0    0  501    0  0.00000000000E+00 -0.00000000000E+00 -0.52902048013E+02  0.52902048013E+02  0.00000000000E+00 0. -1.
         23    2    1    2    0    0  0.00000000000E+00  0.00000000000E+00 -0.12651245052E+02  0.93152850973E+02  0.92289759145E+02 0.  0.
        -13    1    3    3    0    0 -0.78667956131E+01  0.73719793771E+01 -0.51613001382E+02  0.52726980426E+02  0.00000000000E+00 0. -1.
         13    1    3    3    0    0  0.78667956131E+01 -0.73719793771E+01  0.38961756330E+02  0.40425870547E+02  0.00000000000E+00 0.  1.
<mgrwt>
<rscale>  0 0.92289759E+02</rscale>
<asrwt>0</asrwt>
<pdfrwt beam="2">  1        1 0.81387766E-02 0.92289759E+02</pdfrwt>
<pdfrwt beam="1">  1       -1 0.61924313E-02 0.92289759E+02</pdfrwt>
<totfact> 0.91410092E+04</totfact>
</mgrwt>
</event>
<event>
 4    1  0.6308903E+000  0.1460201E+03  0.7546771E-02  0.1205451E+00
         -4   -1    0    0    0  501 -0.00000000000E+00  0.00000000000E+00  0.27618752917E+02  0.27618752917E+02  0.00000000000E+00 0.  1.
          4   -1    0    0  501    0  0.00000000000E+00 -0.00000000000E+00 -0.19300173104E+03  0.19300173104E+03  0.00000000000E+00 0. -1.
        -13    1    1    2    0    0 -0.55485202296E+02  0.26111544661E+01 -0.15428033678E+03  0.16397514482E+03  0.00000000000E+00 0. -1.
         13    1    1    2    0    0  0.55485202296E+02 -0.26111544661E+01 -0.11102641345E+02  0.56645339140E+02  0.00000000000E+00 0.  1.
<mgrwt>
<rscale>  0 0.14602010E+03</rscale>
<asrwt>0</asrwt>
<pdfrwt beam="2">  1        4 0.29692574E-01 0.14602010E+03</pdfrwt>
<pdfrwt beam="1">  1       -4 0.42490389E-02 0.14602010E+03</pdfrwt>
<totfact> 0.55944314E+03</totfact>
</mgrwt>
</event>
<event>
 5    1  0.6308903E+000  0.9463455E+02  0.7546771E-02  0.1292001E+00
         -2   -1    0    0    0  501 -0.00000000000E+00  0.00000000000E+00  0.10491516262E+02  0.10491516262E+02  0.00000000000E+00 0.  1.
          2   -1    0    0  501    0  0.00000000000E+00 -0.00000000000E+00 -0.21340334666E+03  0.21340334666E+03  0.00000000000E+00 0. -1.
         23    2    1    2    0    0  0.00000000000E+00  0.00000000000E+00 -0.20291183040E+03  0.22389486292E+03  0.94634553560E+02 0.  0.
        -13    1    3    3    0    0  0.41535407680E+02  0.21944333582E+02 -0.11487716336E+03  0.12411086386E+03  0.00000000000E+00 0.  1.
         13    1    3    3    0    0 -0.41535407680E+02 -0.21944333582E+02 -0.88034667038E+02  0.99783999058E+02  0.00000000000E+00 0. -1.
<mgrwt>
<rscale>  0 0.94634554E+02</rscale>
<asrwt>0</asrwt>
<pdfrwt beam="2">  1        2 0.32831283E-01 0.94634554E+02</pdfrwt>
<pdfrwt beam="1">  1       -2 0.16140795E-02 0.94634554E+02</pdfrwt>
<totfact> 0.14324797E+05</totfact>
</mgrwt>
</event>
<event>
 5    1  0.6308903E+000  0.8760227E+02  0.7546771E-02  0.1308764E+00
          2   -1    0    0  501    0  0.00000000000E+00  0.00000000000E+00  0.54151679710E+02  0.54151679710E+02  0.00000000000E+00 0. -1.
         -2   -1    0    0    0  501 -0.00000000000E+00 -0.00000000000E+00 -0.35428993804E+02  0.35428993804E+02  0.00000000000E+00 0.  1.
         23    2    1    2    0    0  0.00000000000E+00  0.00000000000E+00  0.18722685906E+02  0.89580673514E+02  0.87602272229E+02 0.  0.
        -13    1    3    3    0    0  0.10153193871E+02 -0.40810079595E+02 -0.31622660622E+01  0.42172857017E+02  0.00000000000E+00 0.  1.
         13    1    3    3    0    0 -0.10153193871E+02  0.40810079595E+02  0.21884951968E+02  0.47407816497E+02  0.00000000000E+00 0. -1.
<mgrwt>
<rscale>  0 0.87602272E+02</rscale>
<asrwt>0</asrwt>
<pdfrwt beam="1">  1        2 0.83310277E-02 0.87602272E+02</pdfrwt>
<pdfrwt beam="2">  1       -2 0.54506144E-02 0.87602272E+02</pdfrwt>
<totfact> 0.11556032E+05</totfact>
</mgrwt>
</event>
<event>
 5    1  0.6308903E+000  0.5534800E+02  0.7546771E-02  0.1418460E+00
         -1   -1    0    0    0  501 -0.00000000000E+00  0.00000000000E+00  0.15320521977E+02  0.15320521977E+02  0.00000000000E+00 0.  1.
          1   -1    0    0  501    0  0.00000000000E+00 -0.00000000000E+00 -0.49988520047E+02  0.49988520047E+02  0.00000000000E+00 0. -1.
         23    2    1    2    0    0  0.00000000000E+00  0.00000000000E+00 -0.34667998070E+02  0.65309042024E+02  0.55347997976E+02 0.  0.
        -13    1    3    3    0    0  0.22953143406E+02 -0.22060298033E+01 -0.35389364857E+02  0.42238850656E+02  0.00000000000E+00 0. -1.
         13    1    3    3    0    0 -0.22953143406E+02  0.22060298033E+01  0.72136678691E+00  0.23070191368E+02  0.00000000000E+00 0.  1.
<mgrwt>
<rscale>  0 0.55347998E+02</rscale>
<asrwt>0</asrwt>
<pdfrwt beam="2">  1        1 0.76905415E-02 0.55347998E+02</pdfrwt>
<pdfrwt beam="1">  1       -1 0.23570034E-02 0.55347998E+02</pdfrwt>
<totfact> 0.35896136E+05</totfact>
</mgrwt>
</event>
<event>
 5    1  0.6308903E+000  0.9041899E+02  0.7546771E-02  0.1301840E+00
         -1   -1    0    0    0  501 -0.00000000000E+00  0.00000000000E+00  0.41954212814E+02  0.41954212814E+02  0.00000000000E+00 0.  1.
          1   -1    0    0  501    0  0.00000000000E+00 -0.00000000000E+00 -0.48717364039E+02  0.48717364039E+02  0.00000000000E+00 0. -1.
         23    2    1    2    0    0  0.00000000000E+00  0.00000000000E+00 -0.67631512253E+01  0.90671576853E+02  0.90418994877E+02 0.  0.
        -13    1    3    3    0    0 -0.18664214311E+02  0.38770554767E+02  0.10527637679E+02  0.44298306603E+02  0.00000000000E+00 0.  1.
         13    1    3    3    0    0  0.18664214311E+02 -0.38770554767E+02 -0.17290788904E+02  0.46373270250E+02  0.00000000000E+00 0. -1.
<mgrwt>
<rscale>  0 0.90418995E+02</rscale>
<asrwt>0</asrwt>
<pdfrwt beam="2">  1        1 0.74949791E-02 0.90418995E+02</pdfrwt>
<pdfrwt beam="1">  1       -1 0.64544943E-02 0.90418995E+02</pdfrwt>
<totfact> 0.95603206E+04</totfact>
</mgrwt>
</event>
<event>
 5    1  0.6308903E+000  0.9383562E+02  0.7546771E-02  0.1293820E+00
          1   -1    0    0  501    0  0.00000000000E+00  0.00000000000E+00  0.55529921737E+02  0.55529921737E+02  0.00000000000E+00 0. -1.
         -1   -1    0    0    0  501 -0.00000000000E+00 -0.00000000000E+00 -0.39641349114E+02  0.39641349114E+02  0.00000000000E+00 0.  1.
         23    2    1    2    0    0  0.00000000000E+00  0.00000000000E+00  0.15888572623E+02  0.95171270851E+02  0.93835622529E+02 0.  0.
        -13    1    3    3    0    0  0.43010038223E+02 -0.14481889962E+02  0.20017184654E+02  0.49601171421E+02  0.00000000000E+00 0. -1.
         13    1    3    3    0    0 -0.43010038223E+02  0.14481889962E+02 -0.41286120312E+01  0.45570099431E+02  0.00000000000E+00 0.  1.
<mgrwt>
<rscale>  0 0.93835623E+02</rscale>
<asrwt>0</asrwt>
<pdfrwt beam="1">  1        1 0.85430650E-02 0.93835623E+02</pdfrwt>
<pdfrwt beam="2">  1       -1 0.60986690E-02 0.93835623E+02</pdfrwt>
<totfact> 0.87909051E+04</totfact>
</mgrwt>
</event>
<event>
 5    1  0.6308903E+000  0.8775937E+02  0.7546771E-02  0.1308370E+00
          2   -1    0    0  501    0  0.00000000000E+00  0.00000000000E+00  0.20507518720E+03  0.20507518720E+03  0.00000000000E+00 0.  1.
         -2   -1    0    0    0  501 -0.00000000000E+00 -0.00000000000E+00 -0.93888823932E+01  0.93888823932E+01  0.00000000000E+00 0. -1.
         23    2    1    2    0    0  0.00000000000E+00  0.00000000000E+00  0.19568630481E+03  0.21446406959E+03  0.87759371337E+02 0.  0.
        -13    1    3    3    0    0 -0.43413341116E+02 -0.55371320205E+01  0.10558987607E+03  0.11430048096E+03  0.00000000000E+00 0.  1.
         13    1    3    3    0    0  0.43413341116E+02  0.55371320205E+01  0.90096428732E+02  0.10016358863E+03  0.00000000000E+00 0. -1.
<mgrwt>
<rscale>  0 0.87759371E+02</rscale>
<asrwt>0</asrwt>
<pdfrwt beam="1">  1        2 0.31550025E-01 0.87759371E+02</pdfrwt>
<pdfrwt beam="2">  1       -2 0.14444436E-02 0.87759371E+02</pdfrwt>
<totfact> 0.17293656E+05</totfact>
</mgrwt>
</event>
<event>
 5    1  0.6308903E+000  0.9626443E+02  0.7546771E-02  0.1288353E+00
         -2   -1    0    0    0  501 -0.00000000000E+00  0.00000000000E+00  0.11885686279E+02  0.11885686279E+02  0.00000000000E+00 0.  1.
          2   -1    0    0  501    0  0.00000000000E+00 -0.00000000000E+00 -0.19491595482E+03  0.19491595482E+03  0.00000000000E+00 0. -1.
         23    2    1    2    0    0  0.00000000000E+00  0.00000000000E+00 -0.18303026854E+03  0.20680164110E+03  0.96264425199E+02 0.  0.
        -13    1    3    3    0    0 -0.33862758155E+02 -0.34205528471E+02 -0.91358414927E+02  0.10326211573E+03  0.00000000000E+00 0.  1.
         13    1    3    3    0    0  0.33862758155E+02  0.34205528471E+02 -0.91671853612E+02  0.10353952536E+03  0.00000000000E+00 0. -1.
<mgrwt>
<rscale>  0 0.96264425E+02</rscale>
<asrwt>0</asrwt>
<pdfrwt beam="2">  1        2 0.29987067E-01 0.96264425E+02</pdfrwt>
<pdfrwt beam="1">  1       -2 0.18285673E-02 0.96264425E+02</pdfrwt>
<totfact> 0.13231690E+05</totfact>
</mgrwt>
</event>
<event>
 5    1  0.6308903E+000  0.9155975E+02  0.7546771E-02  0.1299118E+00
         -2   -1    0    0    0  501 -0.00000000000E+00  0.00000000000E+00  0.16181685753E+02  0.16181685753E+02  0.00000000000E+00 0.  1.
          2   -1    0    0  501    0  0.00000000000E+00 -0.00000000000E+00 -0.12951661064E+03  0.12951661064E+03  0.00000000000E+00 0. -1.
         23    2    1    2    0    0  0.00000000000E+00  0.00000000000E+00 -0.11333492489E+03  0.14569829640E+03  0.91559753018E+02 0.  0.
        -13    1    3    3    0    0 -0.30151031619E+01  0.24248819999E+02  0.49363168291E+01  0.24929166498E+02  0.00000000000E+00 0.  1.
         13    1    3    3    0    0  0.30151031619E+01 -0.24248819999E+02 -0.11827124172E+03  0.12076912990E+03  0.00000000000E+00 0. -1.
<mgrwt>
<rscale>  0 0.91559753E+02</rscale>
<asrwt>0</asrwt>
<pdfrwt beam="2">  1        2 0.19925633E-01 0.91559753E+02</pdfrwt>
<pdfrwt beam="1">  1       -2 0.24894900E-02 0.91559753E+02</pdfrwt>
<totfact> 0.13160352E+05</totfact>
</mgrwt>
</event>
<event>
 5    1  0.6308903E+000  0.8898187E+02  0.7546771E-02  0.1305336E+00
         -2   -1    0    0    0  501 -0.00000000000E+00  0.00000000000E+00  0.31316081426E+02  0.31316081426E+02  0.00000000000E+00 0.  1.
          2   -1    0    0  501    0  0.00000000000E+00 -0.00000000000E+00 -0.63208525016E+02  0.63208525016E+02  0.00000000000E+00 0. -1.
         23    2    1    2    0    0  0.00000000000E+00  0.00000000000E+00 -0.31892443589E+02  0.94524606442E+02  0.88981870428E+02 0.  0.
        -13    1    3    3    0    0 -0.21543224350E+02 -0.32288225003E+02  0.71522692290E+01  0.39468911111E+02  0.00000000000E+00 0.  1.
         13    1    3    3    0    0  0.21543224350E+02  0.32288225003E+02 -0.39044712818E+02  0.55055695330E+02  0.00000000000E+00 0. -1.
<mgrwt>
<rscale>  0 0.88981870E+02</rscale>
<asrwt>0</asrwt>
<pdfrwt beam="2">  1        2 0.97243883E-02 0.88981870E+02</pdfrwt>
<pdfrwt beam="1">  1       -2 0.48178588E-02 0.88981870E+02</pdfrwt>
<totfact> 0.11517757E+05</totfact>
</mgrwt>
</event>
<event>
 5    1  0.6308903E+000  0.9058250E+02  0.7546771E-02  0.1301447E+00
          2   -1    0    0  501    0  0.00000000000E+00  0.00000000000E+00  0.28548859361E+02  0.28548859361E+02  0.00000000000E+00 0.  1.
         -2   -1    0    0    0  501 -0.00000000000E+00 -0.00000000000E+00 -0.71852164700E+02  0.71852164700E+02  0.00000000000E+00 0. -1.
         23    2    1    2    0    0  0.00000000000E+00  0.00000000000E+00 -0.43303305339E+02  0.10040102406E+03  0.90582500403E+02 0.  0.
        -13    1    3    3    0    0  0.12253165567E+02  0.38567874034E+02 -0.44195300702E+02  0.59923664591E+02  0.00000000000E+00 0. -1.
         13    1    3    3    0    0 -0.12253165567E+02 -0.38567874034E+02  0.89199536286E+00  0.40477359470E+02  0.00000000000E+00 0.  1.
<mgrwt>
<rscale>  0 0.90582500E+02</rscale>
<asrwt>0</asrwt>
<pdfrwt beam="1">  1        2 0.43921323E-02 0.90582500E+02</pdfrwt>
<pdfrwt beam="2">  1       -2 0.11054179E-01 0.90582500E+02</pdfrwt>
<totfact> 0.89013465E+04</totfact>
</mgrwt>
</event>
<event>
 5    1  0.6308903E+000  0.9142107E+02  0.7546771E-02  0.1299446E+00
          2   -1    0    0  501    0  0.00000000000E+00  0.00000000000E+00  0.14742027962E+03  0.14742027962E+03  0.00000000000E+00 0.  1.
         -2   -1    0    0    0  501 -0.00000000000E+00 -0.00000000000E+00 -0.14173442840E+02  0.14173442840E+02  0.00000000000E+00 0. -1.
         23    2    1    2    0    0  0.00000000000E+00  0.00000000000E+00  0.13324683678E+03  0.16159372247E+03  0.91421067742E+02 0.  0.
        -13    1    3    3    0    0 -0.23982990173E+02  0.49355648861E+01  0.13485070661E+03  0.13705567004E+03  0.00000000000E+00 0.  1.
         13    1    3    3    0    0  0.23982990173E+02 -0.49355648861E+01 -0.16038698210E+01  0.24538052424E+02  0.00000000000E+00 0. -1.
<mgrwt>
<rscale>  0 0.91421068E+02</rscale>
<asrwt>0</asrwt>
<pdfrwt beam="1">  1        2 0.22680042E-01 0.91421068E+02</pdfrwt>
<pdfrwt beam="2">  1       -2 0.21805298E-02 0.91421068E+02</pdfrwt>
<totfact> 0.13798172E+05</totfact>
</mgrwt>
</event>
<event>
 5    1  0.6308903E+000  0.8979538E+02  0.7546771E-02  0.1303348E+00
         -1   -1    0    0    0  501 -0.00000000000E+00  0.00000000000E+00  0.13767816971E+03  0.13767816971E+03  0.00000000000E+00 0.  1.
          1   -1    0    0  501    0  0.00000000000E+00 -0.00000000000E+00 -0.14641411825E+02  0.14641411825E+02  0.00000000000E+00 0. -1.
         23    2    1    2    0    0  0.00000000000E+00  0.00000000000E+00  0.12303675788E+03  0.15231958153E+03  0.89795384780E+02 0.  0.
        -13    1    3    3    0    0  0.41844458296E+02  0.92741527735E+00  0.89079096389E+02  0.98422071726E+02  0.00000000000E+00 0.  1.
         13    1    3    3    0    0 -0.41844458296E+02 -0.92741527735E+00  0.33957661493E+02  0.53897509806E+02  0.00000000000E+00 0. -1.
<mgrwt>
<rscale>  0 0.89795385E+02</rscale>
<asrwt>0</asrwt>
<pdfrwt beam="2">  1        1 0.22525250E-02 0.89795385E+02</pdfrwt>
<pdfrwt beam="1">  1       -1 0.21181256E-01 0.89795385E+02</pdfrwt>
<totfact> 0.79338874E+04</totfact>
</mgrwt>
</event>
<event>
 5    1  0.6308903E+000  0.9018131E+02  0.7546771E-02  0.1302413E+00
          1   -1    0    0  501    0  0.00000000000E+00  0.00000000000E+00  0.20329636106E+03  0.20329636106E+03  0.00000000000E+00 0. -1.
         -1   -1    0    0    0  501 -0.00000000000E+00 -0.00000000000E+00 -0.10001001762E+02  0.10001001762E+02  0.00000000000E+00 0.  1.
         23    2    1    2    0    0  0.00000000000E+00  0.00000000000E+00  0.19329535929E+03  0.21329736282E+03  0.90181312149E+02 0.  0.
        -13    1    3    3    0    0 -0.24645377741E+02 -0.26254988042E+02  0.16083364029E+03  0.16481559056E+03  0.00000000000E+00 0. -1.
         13    1    3    3    0    0  0.24645377741E+02  0.26254988042E+02  0.32461719004E+02  0.48481772264E+02  0.00000000000E+00 0.  1.
<mgrwt>
<rscale>  0 0.90181312E+02</rscale>
<asrwt>0</asrwt>
<pdfrwt beam="1">  1        1 0.31276360E-01 0.90181312E+02</pdfrwt>
<pdfrwt beam="2">  1       -1 0.15386158E-02 0.90181312E+02</pdfrwt>
<totfact> 0.12232639E+05</totfact>
</mgrwt>
</event>
<event>
 5    1  0.6308903E+000  0.9056826E+02  0.7546771E-02  0.1301481E+00
         -3   -1    0    0    0  501 -0.00000000000E+00  0.00000000000E+00  0.16745752329E+03  0.16745752329E+03  0.00000000000E+00 0.  1.
          3   -1    0    0  501    0  0.00000000000E+00 -0.00000000000E+00 -0.12245805167E+02  0.12245805167E+02  0.00000000000E+00 0. -1.
         23    2    1    2    0    0  0.00000000000E+00  0.00000000000E+00  0.15521171812E+03  0.17970332845E+03  0.90568255011E+02 0.  0.
        -13    1    3    3    0    0 -0.78797283369E+01  0.42172426613E+02  0.48849100396E+02  0.65014139190E+02  0.00000000000E+00 0. -1.
         13    1    3    3    0    0  0.78797283369E+01 -0.42172426613E+02  0.10636261772E+03  0.11468918926E+03  0.00000000000E+00 0.  1.
<mgrwt>
<rscale>  0 0.90568255E+02</rscale>
<asrwt>0</asrwt>
<pdfrwt beam="2">  1        3 0.18839701E-02 0.90568255E+02</pdfrwt>
<pdfrwt beam="1">  1       -3 0.25762694E-01 0.90568255E+02</pdfrwt>
<totfact> 0.30121691E+04</totfact>
</mgrwt>
</event>
<event>
 5    1  0.6308903E+000  0.9175932E+02  0.7546771E-02  0.1298646E+00
         -1   -1    0    0    0  501 -0.00000000000E+00  0.00000000000E+00  0.10607186166E+03  0.10607186166E+03  0.00000000000E+00 0.  1.
          1   -1    0    0  501    0  0.00000000000E+00 -0.00000000000E+00 -0.19844499451E+02  0.19844499451E+02  0.00000000000E+00 0. -1.
         23    2    1    2    0    0  0.00000000000E+00  0.00000000000E+00  0.86227362209E+02  0.12591636111E+03  0.91759315613E+02 0.  0.
        -13    1    3    3    0    0  0.25281040936E+02 -0.13858773496E+02 -0.58612098642E+01  0.29420238183E+02  0.00000000000E+00 0. -1.
         13    1    3    3    0    0 -0.25281040936E+02  0.13858773496E+02  0.92088572073E+02  0.96496122928E+02  0.00000000000E+00 0.  1.
<mgrwt>
<rscale>  0 0.91759316E+02</rscale>
<asrwt>0</asrwt>
<pdfrwt beam="2">  1        1 0.30530000E-02 0.91759316E+02</pdfrwt>
<pdfrwt beam="1">  1       -1 0.16318748E-01 0.91759316E+02</pdfrwt>
<totfact> 0.79158614E+04</totfact>
</mgrwt>
</event>
<event>
 5    1  0.6308903E+000  0.9085931E+02  0.7546771E-02  0.1300784E+00
         -3   -1    0    0    0  501 -0.00000000000E+00  0.00000000000E+00  0.28777085635E+02  0.28777085635E+02  0.00000000000E+00 0.  1.
          3   -1    0    0  501    0  0.00000000000E+00 -0.00000000000E+00 -0.71718646231E+02  0.71718646231E+02  0.00000000000E+00 0. -1.
         23    2    1    2    0    0  0.00000000000E+00  0.00000000000E+00 -0.42941560596E+02  0.10049573187E+03  0.90859311558E+02 0.  0.
        -13    1    3    3    0    0 -0.36193610453E+02  0.13091081555E+02 -0.48165542390E+02  0.61654467215E+02  0.00000000000E+00 0. -1.
         13    1    3    3    0    0  0.36193610453E+02 -0.13091081555E+02  0.52239817935E+01  0.38841264651E+02  0.00000000000E+00 0.  1.
<mgrwt>
<rscale>  0 0.90859312E+02</rscale>
<asrwt>0</asrwt>
<pdfrwt beam="2">  1        3 0.11033638E-01 0.90859312E+02</pdfrwt>
<pdfrwt beam="1">  1       -3 0.44272440E-02 0.90859312E+02</pdfrwt>
<totfact> 0.34964638E+04</totfact>
</mgrwt>
</event>
<event>
 4    1  0.6308903E+000  0.5038315E+02  0.7546771E-02  0.1443286E+00
         -1   -1    0    0    0  501 -0.00000000000E+00  0.00000000000E+00  0.31062899676E+02  0.31062899676E+02  0.00000000000E+00 0.  1.
          1   -1    0    0  501    0  0.00000000000E+00 -0.00000000000E+00 -0.20430017146E+02  0.20430017146E+02  0.00000000000E+00 0. -1.
        -13    1    1    2    0    0 -0.41127863687E+00  0.13173376394E+02  0.27258103736E+02  0.30277239224E+02  0.00000000000E+00 0.  1.
         13    1    1    2    0    0  0.41127863687E+00 -0.13173376394E+02 -0.16625221206E+02  0.21215677597E+02  0.00000000000E+00 0. -1.
<mgrwt>
<rscale>  0 0.50383155E+02</rscale>
<asrwt>0</asrwt>
<pdfrwt beam="2">  1        1 0.31430796E-02 0.50383155E+02</pdfrwt>
<pdfrwt beam="1">  1       -1 0.47789076E-02 0.50383155E+02</pdfrwt>
<totfact> 0.42088130E+05</totfact>
</mgrwt>
</event>
<event>
 5    1  0.6308903E+000  0.9132879E+02  0.7546771E-02  0.1299665E+00
         -4   -1    0    0    0  501 -0.00000000000E+00  0.00000000000E+00  0.92867771989E+02  0.92867771989E+02  0.00000000000E+00 0.  1.
          4   -1    0    0  501    0  0.00000000000E+00 -0.00000000000E+00 -0.22453826160E+02  0.22453826160E+02  0.00000000000E+00 0. -1.
         23    2    1    2    0    0  0.00000000000E+00  0.00000000000E+00  0.70413945829E+02  0.11532159815E+03  0.91328786440E+02 0.  0.
        -13    1    3    3    0    0  0.21623016414E+02  0.34213788332E+02  0.85073794792E+01  0.41358356549E+02  0.00000000000E+00 0. -1.
         13    1    3    3    0    0 -0.21623016414E+02 -0.34213788332E+02  0.61906566350E+02  0.73963241600E+02  0.00000000000E+00 0.  1.
<mgrwt>
<rscale>  0 0.91328786E+02</rscale>
<asrwt>0</asrwt>
<pdfrwt beam="2">  1        4 0.34544348E-02 0.91328786E+02</pdfrwt>
<pdfrwt beam="1">  1       -4 0.14287349E-01 0.91328786E+02</pdfrwt>
<totfact> 0.25425818E+04</totfact>
</mgrwt>
</event>
<event>
 5    1  0.6308903E+000  0.9149071E+02  0.7546771E-02  0.1299281E+00
          2   -1    0    0  501    0  0.00000000000E+00  0.00000000000E+00  0.11385035144E+03  0.11385035144E+03  0.00000000000E+00 0. -1.
         -2   -1    0    0    0  501 -0.00000000000E+00 -0.00000000000E+00 -0.18380598288E+02  0.18380598288E+02  0.00000000000E+00 0.  1.
         23    2    1    2    0    0  0.00000000000E+00  0.00000000000E+00  0.95469753154E+02  0.13223094973E+03  0.91490711545E+02 0.  0.
        -13    1    3    3    0    0 -0.15094936032E+01 -0.33267219156E+02  0.93063931073E+02  0.98842711962E+02  0.00000000000E+00 0. -1.
         13    1    3    3    0    0  0.15094936032E+01  0.33267219156E+02  0.24058220808E+01  0.33388237767E+02  0.00000000000E+00 0.  1.
<mgrwt>
<rscale>  0 0.91490712E+02</rscale>
<asrwt>0</asrwt>
<pdfrwt beam="1">  1        2 0.17515438E-01 0.91490712E+02</pdfrwt>
<pdfrwt beam="2">  1       -2 0.28277844E-02 0.91490712E+02</pdfrwt>
<totfact> 0.12651259E+05</totfact>
</mgrwt>
</event>
<event>
 5    1  0.6308903E+000  0.9048395E+02  0.7546771E-02  0.1301684E+00
         -3   -1    0    0    0  501 -0.00000000000E+00  0.00000000000E+00  0.25825482001E+03  0.25825482001E+03  0.00000000000E+00 0.  1.
          3   -1    0    0  501    0  0.00000000000E+00 -0.00000000000E+00 -0.79256454077E+01  0.79256454077E+01  0.00000000000E+00 0. -1.
         23    2    1    2    0    0  0.00000000000E+00  0.00000000000E+00  0.25032917460E+03  0.26618046542E+03  0.90483946161E+02 0.  0.
        -13    1    3    3    0    0 -0.10898132284E+02  0.38607626830E+02  0.18669681036E+03  0.19095815546E+03  0.00000000000E+00 0.  1.
         13    1    3    3    0    0  0.10898132284E+02 -0.38607626830E+02  0.63632364238E+02  0.75222309957E+02  0.00000000000E+00 0. -1.
<mgrwt>
<rscale>  0 0.90483946E+02</rscale>
<asrwt>0</asrwt>
<pdfrwt beam="2">  1        3 0.12193303E-02 0.90483946E+02</pdfrwt>
<pdfrwt beam="1">  1       -3 0.39731504E-01 0.90483946E+02</pdfrwt>
<totfact> 0.25921545E+04</totfact>
</mgrwt>
</event>
<event>
 5    1  0.6308903E+000  0.9087911E+02  0.7546771E-02  0.1300737E+00
         -1   -1    0    0    0  501 -0.00000000000E+00  0.00000000000E+00  0.98150170064E+02  0.98150170064E+02  0.00000000000E+00 0.  1.
          1   -1    0    0  501    0  0.00000000000E+00 -0.00000000000E+00 -0.21036675557E+02  0.21036675557E+02  0.00000000000E+00 0. -1.
         23    2    1    2    0    0  0.00000000000E+00  0.00000000000E+00  0.77113494506E+02  0.11918684562E+03  0.90879112749E+02 0.  0.
        -13    1    3    3    0    0  0.11189966160E+02  0.37135223617E+02  0.75070668608E+01  0.39504382398E+02  0.00000000000E+00 0. -1.
         13    1    3    3    0    0 -0.11189966160E+02 -0.37135223617E+02  0.69606427645E+02  0.79682463223E+02  0.00000000000E+00 0.  1.
<mgrwt>
<rscale>  0 0.90879113E+02</rscale>
<asrwt>0</asrwt>
<pdfrwt beam="2">  1        1 0.32364117E-02 0.90879113E+02</pdfrwt>
<pdfrwt beam="1">  1       -1 0.15100026E-01 0.90879113E+02</pdfrwt>
<totfact> 0.82342647E+04</totfact>
</mgrwt>
</event>
<event>
 4    1  0.6308903E+000  0.1438714E+03  0.7546771E-02  0.1208213E+00
         -2   -1    0    0    0  501 -0.00000000000E+00  0.00000000000E+00  0.20724447181E+03  0.20724447181E+03  0.00000000000E+00 0. -1.
          2   -1    0    0  501    0  0.00000000000E+00 -0.00000000000E+00 -0.24969271377E+02  0.24969271377E+02  0.00000000000E+00 0.  1.
        -13    1    1    2    0    0 -0.40124778683E+02  0.78503956847E+01 -0.43926302095E+01  0.41120819264E+02  0.00000000000E+00 0.  1.
         13    1    1    2    0    0  0.40124778683E+02 -0.78503956847E+01  0.18666783064E+03  0.19109292392E+03  0.00000000000E+00 0. -1.
<mgrwt>
<rscale>  0 0.14387138E+03</rscale>
<asrwt>0</asrwt>
<pdfrwt beam="2">  1        2 0.38414265E-02 0.14387138E+03</pdfrwt>
<pdfrwt beam="1">  1       -2 0.31883764E-01 0.14387138E+03</pdfrwt>
<totfact> 0.19068537E+04</totfact>
</mgrwt>
</event>
<event>
 5    1  0.6308903E+000  0.8990134E+02  0.7546771E-02  0.1303091E+00
          1   -1    0    0  501    0  0.00000000000E+00  0.00000000000E+00  0.91022505320E+02  0.91022505320E+02  0.00000000000E+00 0.  1.
         -1   -1    0    0    0  501 -0.00000000000E+00 -0.00000000000E+00 -0.22198498392E+02  0.22198498392E+02  0.00000000000E+00 0. -1.
         23    2    1    2    0    0  0.00000000000E+00  0.00000000000E+00  0.68824006927E+02  0.11322100371E+03  0.89901344551E+02 0.  0.
        -13    1    3    3    0    0 -0.21147889095E+02 -0.24573297307E+01  0.84270097094E+02  0.86917897735E+02  0.00000000000E+00 0.  1.
         13    1    3    3    0    0  0.21147889095E+02  0.24573297307E+01 -0.15446090166E+02  0.26303105977E+02  0.00000000000E+00 0. -1.
<mgrwt>
<rscale>  0 0.89901345E+02</rscale>
<asrwt>0</asrwt>
<pdfrwt beam="1">  1        1 0.14003462E-01 0.89901345E+02</pdfrwt>
<pdfrwt beam="2">  1       -1 0.34151536E-02 0.89901345E+02</pdfrwt>
<totfact> 0.10688008E+05</totfact>
</mgrwt>
</event>
<event>
 5    1  0.6308903E+000  0.8953277E+02  0.7546771E-02  0.1303987E+00
          1   -1    0    0  501    0  0.00000000000E+00  0.00000000000E+00  0.27133764878E+02  0.27133764878E+02  0.00000000000E+00 0. -1.
         -1   -1    0    0    0  501 -0.00000000000E+00 -0.00000000000E+00 -0.73857403405E+02  0.73857403405E+02  0.00000000000E+00 0.  1.
         23    2    1    2    0    0  0.00000000000E+00  0.00000000000E+00 -0.46723638528E+02  0.10099116828E+03  0.89532774300E+02 0.  0.
        -13    1    3    3    0    0  0.12040435885E+02  0.43095306389E+02 -0.24896821021E+02  0.51205753837E+02  0.00000000000E+00 0. -1.
         13    1    3    3    0    0 -0.12040435885E+02 -0.43095306389E+02 -0.21826817506E+02  0.49785414446E+02  0.00000000000E+00 0.  1.
<mgrwt>
<rscale>  0 0.89532774E+02</rscale>
<asrwt>0</asrwt>
<pdfrwt beam="1">  1        1 0.41744254E-02 0.89532774E+02</pdfrwt>
<pdfrwt beam="2">  1       -1 0.11362677E-01 0.89532774E+02</pdfrwt>
<totfact> 0.89861609E+04</totfact>
</mgrwt>
</event>
<event>
 5    1  0.6308903E+000  0.9141058E+02  0.7546771E-02  0.1299471E+00
          4   -1    0    0  501    0  0.00000000000E+00  0.00000000000E+00  0.18359002391E+02  0.18359002391E+02  0.00000000000E+00 0. -1.
         -4   -1    0    0    0  501 -0.00000000000E+00 -0.00000000000E+00 -0.11378470948E+03  0.11378470948E+03  0.00000000000E+00 0.  1.
         23    2    1    2    0    0  0.00000000000E+00  0.00000000000E+00 -0.95425707086E+02  0.13214371187E+03  0.91410584801E+02 0.  0.
        -13    1    3    3    0    0  0.11200533957E+02  0.18999906802E+02 -0.10558271817E+03  0.10786175780E+03  0.00000000000E+00 0.  1.
         13    1    3    3    0    0 -0.11200533957E+02 -0.18999906802E+02  0.10157011082E+02  0.24281954071E+02  0.00000000000E+00 0. -1.
<mgrwt>
<rscale>  0 0.91410585E+02</rscale>
<asrwt>0</asrwt>
<pdfrwt beam="1">  1        4 0.28244619E-02 0.91410585E+02</pdfrwt>
<pdfrwt beam="2">  1       -4 0.17505340E-01 0.91410585E+02</pdfrwt>
<totfact> 0.24432167E+04</totfact>
</mgrwt>
</event>
<event>
 5    1  0.6308903E+000  0.8668832E+02  0.7546771E-02  0.1311076E+00
          3   -1    0    0  501    0  0.00000000000E+00  0.00000000000E+00  0.12117344143E+03  0.12117344143E+03  0.00000000000E+00 0. -1.
         -3   -1    0    0    0  501 -0.00000000000E+00 -0.00000000000E+00 -0.15504357082E+02  0.15504357082E+02  0.00000000000E+00 0.  1.
         23    2    1    2    0    0  0.00000000000E+00  0.00000000000E+00  0.10566908435E+03  0.13667779851E+03  0.86688322275E+02 0.  0.
        -13    1    3    3    0    0 -0.29837513382E+02  0.74297798979E+01  0.46693318586E+01  0.31101149403E+02  0.00000000000E+00 0.  1.
         13    1    3    3    0    0  0.29837513382E+02 -0.74297798979E+01  0.10099975249E+03  0.10557664911E+03  0.00000000000E+00 0. -1.
<mgrwt>
<rscale>  0 0.86688322E+02</rscale>
<asrwt>0</asrwt>
<pdfrwt beam="1">  1        3 0.18642067E-01 0.86688322E+02</pdfrwt>
<pdfrwt beam="2">  1       -3 0.23852858E-02 0.86688322E+02</pdfrwt>
<totfact> 0.36834386E+04</totfact>
</mgrwt>
</event>
<event>
 5    1  0.6308903E+000  0.9248077E+02  0.7546771E-02  0.1296953E+00
          1   -1    0    0  501    0  0.00000000000E+00  0.00000000000E+00  0.56405213738E+01  0.56405213738E+01  0.00000000000E+00 0. -1.
         -1   -1    0    0    0  501 -0.00000000000E+00 -0.00000000000E+00 -0.37907368127E+03  0.37907368127E+03  0.00000000000E+00 0.  1.
         23    2    1    2    0    0  0.00000000000E+00  0.00000000000E+00 -0.37343315989E+03  0.38471420264E+03  0.92480769924E+02 0.  0.
        -13    1    3    3    0    0  0.26873156918E+02  0.36803992442E+02 -0.15410076710E+03  0.16069768774E+03  0.00000000000E+00 0. -1.
         13    1    3    3    0    0 -0.26873156918E+02 -0.36803992442E+02 -0.21933239279E+03  0.22401651491E+03  0.00000000000E+00 0.  1.
<mgrwt>
<rscale>  0 0.92480770E+02</rscale>
<asrwt>0</asrwt>
<pdfrwt beam="1">  1        1 0.86777226E-03 0.92480770E+02</pdfrwt>
<pdfrwt beam="2">  1       -1 0.58319046E-01 0.92480770E+02</pdfrwt>
<totfact> 0.52721766E+04</totfact>
</mgrwt>
</event>
<event>
 5    1  0.6308903E+000  0.9021436E+02  0.7546771E-02  0.1302333E+00
         -2   -1    0    0    0  501 -0.00000000000E+00  0.00000000000E+00  0.52443251869E+01  0.52443251869E+01  0.00000000000E+00 0. -1.
          2   -1    0    0  501    0  0.00000000000E+00 -0.00000000000E+00 -0.38797317623E+03  0.38797317623E+03  0.00000000000E+00 0.  1.
         23    2    1    2    0    0  0.00000000000E+00  0.00000000000E+00 -0.38272885104E+03  0.39321750142E+03  0.90214355841E+02 0.  0.
        -13    1    3    3    0    0  0.38686970964E+01 -0.44136139887E+02 -0.15445884458E+03  0.16068758611E+03  0.00000000000E+00 0. -1.
         13    1    3    3    0    0 -0.38686970964E+01  0.44136139887E+02 -0.22827000647E+03  0.23252991531E+03  0.00000000000E+00 0.  1.
<mgrwt>
<rscale>  0 0.90214356E+02</rscale>
<asrwt>0</asrwt>
<pdfrwt beam="2">  1        2 0.59688199E-01 0.90214356E+02</pdfrwt>
<pdfrwt beam="1">  1       -2 0.80681901E-03 0.90214356E+02</pdfrwt>
<totfact> 0.20308824E+05</totfact>
</mgrwt>
</event>
<event>
 5    1  0.6308903E+000  0.8944822E+02  0.7546771E-02  0.1304193E+00
         -3   -1    0    0    0  501 -0.00000000000E+00  0.00000000000E+00  0.43267906138E+02  0.43267906138E+02  0.00000000000E+00 0.  1.
          3   -1    0    0  501    0  0.00000000000E+00 -0.00000000000E+00 -0.46229324773E+02  0.46229324773E+02  0.00000000000E+00 0. -1.
         23    2    1    2    0    0  0.00000000000E+00  0.00000000000E+00 -0.29614186349E+01  0.89497230911E+02  0.89448221561E+02 0.  0.
        -13    1    3    3    0    0 -0.45784770492E+01  0.37722561906E+02  0.22118055827E+02  0.43967744113E+02  0.00000000000E+00 0. -1.
         13    1    3    3    0    0  0.45784770492E+01 -0.37722561906E+02 -0.25079474462E+02  0.45529486798E+02  0.00000000000E+00 0.  1.
<mgrwt>
<rscale>  0 0.89448222E+02</rscale>
<asrwt>0</asrwt>
<pdfrwt beam="2">  1        3 0.71122038E-02 0.89448222E+02</pdfrwt>
<pdfrwt beam="1">  1       -3 0.66566009E-02 0.89448222E+02</pdfrwt>
<totfact> 0.37362653E+04</totfact>
</mgrwt>
</event>
<event>
 5    1  0.6308903E+000  0.9004887E+02  0.7546771E-02  0.1302733E+00
          1   -1    0    0  501    0  0.00000000000E+00  0.00000000000E+00  0.14945206465E+03  0.14945206465E+03  0.00000000000E+00 0. -1.
         -1   -1    0    0    0  501 -0.00000000000E+00 -0.00000000000E+00 -0.13564215109E+02  0.13564215109E+02  0.00000000000E+00 0.  1.
         23    2    1    2    0    0  0.00000000000E+00  0.00000000000E+00  0.13588784954E+03  0.16301627976E+03  0.90048874581E+02 0.  0.
        -13    1    3    3    0    0 -0.79348922425E+01  0.42419472187E+02  0.91185486529E+02  0.10088194630E+03  0.00000000000E+00 0. -1.
         13    1    3    3    0    0  0.79348922425E+01 -0.42419472187E+02  0.44702363010E+02  0.62134333458E+02  0.00000000000E+00 0.  1.
<mgrwt>
<rscale>  0 0.90048875E+02</rscale>
<asrwt>0</asrwt>
<pdfrwt beam="1">  1        1 0.22992624E-01 0.90048875E+02</pdfrwt>
<pdfrwt beam="2">  1       -1 0.20868024E-02 0.90048875E+02</pdfrwt>
<totfact> 0.11587938E+05</totfact>
</mgrwt>
</event>
<event>
 5    1  0.6308903E+000  0.9314042E+02  0.7546771E-02  0.1295420E+00
          1   -1    0    0  501    0  0.00000000000E+00  0.00000000000E+00  0.30416614715E+02  0.30416614715E+02  0.00000000000E+00 0. -1.
         -1   -1    0    0    0  501 -0.00000000000E+00 -0.00000000000E+00 -0.71302626835E+02  0.71302626835E+02  0.00000000000E+00 0.  1.
         23    2    1    2    0    0  0.00000000000E+00  0.00000000000E+00 -0.40886012120E+02  0.10171924155E+03  0.93140421485E+02 0.  0.
        -13    1    3    3    0    0  0.20111410297E+02  0.38782724654E+02 -0.28260086666E+01  0.43778475085E+02  0.00000000000E+00 0. -1.
         13    1    3    3    0    0 -0.20111410297E+02 -0.38782724654E+02 -0.38060003454E+02  0.57940766466E+02  0.00000000000E+00 0.  1.
<mgrwt>
<rscale>  0 0.93140421E+02</rscale>
<asrwt>0</asrwt>
<pdfrwt beam="1">  1        1 0.46794792E-02 0.93140421E+02</pdfrwt>
<pdfrwt beam="2">  1       -1 0.10969635E-01 0.93140421E+02</pdfrwt>
<totfact> 0.81711272E+04</totfact>
</mgrwt>
</event>
<event>
 5    1  0.6308903E+000  0.9071351E+02  0.7546771E-02  0.1301133E+00
          2   -1    0    0  501    0  0.00000000000E+00  0.00000000000E+00  0.13324827760E+02  0.13324827760E+02  0.00000000000E+00 0.  1.
         -2   -1    0    0    0  501 -0.00000000000E+00 -0.00000000000E+00 -0.15439112941E+03  0.15439112941E+03  0.00000000000E+00 0. -1.
         23    2    1    2    0    0  0.00000000000E+00  0.00000000000E+00 -0.14106630165E+03  0.16771595717E+03  0.90713509623E+02 0.  0.
        -13    1    3    3    0    0 -0.27055090336E+02 -0.52627824808E+01 -0.39343806858E+01  0.27841590183E+02  0.00000000000E+00 0.  1.
         13    1    3    3    0    0  0.27055090336E+02  0.52627824808E+01 -0.13713192097E+03  0.13987436699E+03  0.00000000000E+00 0. -1.
<mgrwt>
<rscale>  0 0.90713510E+02</rscale>
<asrwt>0</asrwt>
<pdfrwt beam="1">  1        2 0.20499735E-02 0.90713510E+02</pdfrwt>
<pdfrwt beam="2">  1       -2 0.23752482E-01 0.90713510E+02</pdfrwt>
<totfact> 0.70018556E+04</totfact>
</mgrwt>
</event>
<event>
 5    1  0.6308903E+000  0.9112917E+02  0.7546771E-02  0.1300140E+00
         -1   -1    0    0    0  501 -0.00000000000E+00  0.00000000000E+00  0.12039410592E+02  0.12039410592E+02  0.00000000000E+00 0.  1.
          1   -1    0    0  501    0  0.00000000000E+00 -0.00000000000E+00 -0.17244460056E+03  0.17244460056E+03  0.00000000000E+00 0. -1.
         23    2    1    2    0    0  0.00000000000E+00  0.00000000000E+00 -0.16040518997E+03  0.18448401115E+03  0.91129168775E+02 0.  0.
        -13    1    3    3    0    0  0.16718844570E+01  0.28632899235E+02 -0.15187670696E+03  0.15456122487E+03  0.00000000000E+00 0. -1.
         13    1    3    3    0    0 -0.16718844570E+01 -0.28632899235E+02 -0.85284830045E+01  0.29922786278E+02  0.00000000000E+00 0.  1.
<mgrwt>
<rscale>  0 0.91129169E+02</rscale>
<asrwt>0</asrwt>
<pdfrwt beam="2">  1        1 0.26529937E-01 0.91129169E+02</pdfrwt>
<pdfrwt beam="1">  1       -1 0.18522172E-02 0.91129169E+02</pdfrwt>
<totfact> 0.11524700E+05</totfact>
</mgrwt>
</event>
<event>
 5    1  0.6308903E+000  0.9708101E+02  0.7546771E-02  0.1286557E+00
         -1   -1    0    0    0  501 -0.00000000000E+00  0.00000000000E+00  0.10821528133E+02  0.10821528133E+02  0.00000000000E+00 0.  1.
          1   -1    0    0  501    0  0.00000000000E+00 -0.00000000000E+00 -0.21773084901E+03  0.21773084901E+03  0.00000000000E+00 0. -1.
         23    2    1    2    0    0  0.00000000000E+00  0.00000000000E+00 -0.20690932088E+03  0.22855237714E+03  0.97081007576E+02 0.  0.
        -13    1    3    3    0    0 -0.22885976476E+02  0.25569238058E+02 -0.22630798772E+02  0.41106044655E+02  0.00000000000E+00 0.  1.
         13    1    3    3    0    0  0.22885976476E+02 -0.25569238058E+02 -0.18427852211E+03  0.18744633249E+03  0.00000000000E+00 0. -1.
<mgrwt>
<rscale>  0 0.97081008E+02</rscale>
<asrwt>0</asrwt>
<pdfrwt beam="2">  1        1 0.33497052E-01 0.97081008E+02</pdfrwt>
<pdfrwt beam="1">  1       -1 0.16648506E-02 0.97081008E+02</pdfrwt>
<totfact> 0.10169233E+05</totfact>
</mgrwt>
</event>
<event>
 5    1  0.6308903E+000  0.7960006E+02  0.7546771E-02  0.1330190E+00
          3   -1    0    0  501    0  0.00000000000E+00  0.00000000000E+00  0.14000210949E+03  0.14000210949E+03  0.00000000000E+00 0. -1.
         -3   -1    0    0    0  501 -0.00000000000E+00 -0.00000000000E+00 -0.11314419374E+02  0.11314419374E+02  0.00000000000E+00 0.  1.
         23    2    1    2    0    0  0.00000000000E+00  0.00000000000E+00  0.12868769012E+03  0.15131652887E+03  0.79600064825E+02 0.  0.
        -13    1    3    3    0    0  0.39474363689E+02  0.43918021166E+01  0.69201258995E+02  0.79789269711E+02  0.00000000000E+00 0. -1.
         13    1    3    3    0    0 -0.39474363689E+02 -0.43918021166E+01  0.59486431126E+02  0.71527259157E+02  0.00000000000E+00 0.  1.
<mgrwt>
<rscale>  0 0.79600065E+02</rscale>
<asrwt>0</asrwt>
<pdfrwt beam="1">  1        3 0.21538785E-01 0.79600065E+02</pdfrwt>
<pdfrwt beam="2">  1       -3 0.17406800E-02 0.79600065E+02</pdfrwt>
<totfact> 0.44952879E+04</totfact>
</mgrwt>
</event>
<event>
 5    1  0.6308903E+000  0.8703916E+02  0.7546771E-02  0.1310184E+00
          2   -1    0    0  501    0  0.00000000000E+00  0.00000000000E+00  0.11008467734E+03  0.11008467734E+03  0.00000000000E+00 0. -1.
         -2   -1    0    0    0  501 -0.00000000000E+00 -0.00000000000E+00 -0.17204517200E+02  0.17204517200E+02  0.00000000000E+00 0.  1.
         23    2    1    2    0    0  0.00000000000E+00  0.00000000000E+00  0.92880160142E+02  0.12728919454E+03  0.87039157276E+02 0.  0.
        -13    1    3    3    0    0 -0.23722445792E+02 -0.29281120946E+02  0.14606800994E+02  0.40416545047E+02  0.00000000000E+00 0.  1.
         13    1    3    3    0    0  0.23722445792E+02  0.29281120946E+02  0.78273359148E+02  0.86872649496E+02  0.00000000000E+00 0. -1.
<mgrwt>
<rscale>  0 0.87039157E+02</rscale>
<asrwt>0</asrwt>
<pdfrwt beam="1">  1        2 0.16936104E-01 0.87039157E+02</pdfrwt>
<pdfrwt beam="2">  1       -2 0.26468489E-02 0.87039157E+02</pdfrwt>
<totfact> 0.14345978E+05</totfact>
</mgrwt>
</event>
<event>
 5    1  0.6308903E+000  0.9082978E+02  0.7546771E-02  0.1300855E+00
         -1   -1    0    0    0  501 -0.00000000000E+00  0.00000000000E+00  0.72690936848E+01  0.72690936848E+01  0.00000000000E+00 0.  1.
          1   -1    0    0  501    0  0.00000000000E+00 -0.00000000000E+00 -0.28373720768E+03  0.28373720768E+03  0.00000000000E+00 0. -1.
         23    2    1    2    0    0  0.00000000000E+00  0.00000000000E+00 -0.27646811399E+03  0.29100630136E+03  0.90829782438E+02 0.  0.
        -13    1    3    3    0    0  0.21000021121E+01  0.43712647040E+02 -0.17711936585E+03  0.18244581464E+03  0.00000000000E+00 0.  1.
         13    1    3    3    0    0 -0.21000021121E+01 -0.43712647040E+02 -0.99348748143E+02  0.10856048672E+03  0.00000000000E+00 0. -1.
<mgrwt>
<rscale>  0 0.90829782E+02</rscale>
<asrwt>0</asrwt>
<pdfrwt beam="2">  1        1 0.43651869E-01 0.90829782E+02</pdfrwt>
<pdfrwt beam="1">  1       -1 0.11183223E-02 0.90829782E+02</pdfrwt>
<totfact> 0.12805320E+05</totfact>
</mgrwt>
</event>
<event>
 5    1  0.6308903E+000  0.9154961E+02  0.7546771E-02  0.1299142E+00
          1   -1    0    0  501    0  0.00000000000E+00  0.00000000000E+00  0.84139750372E+02  0.84139750372E+02  0.00000000000E+00 0. -1.
         -1   -1    0    0    0  501 -0.00000000000E+00 -0.00000000000E+00 -0.24903004660E+02  0.24903004660E+02  0.00000000000E+00 0.  1.
         23    2    1    2    0    0  0.00000000000E+00  0.00000000000E+00  0.59236745712E+02  0.10904275503E+03  0.91549606129E+02 0.  0.
        -13    1    3    3    0    0 -0.22615741206E+01  0.27193543163E+02 -0.14156456502E+02  0.30740994908E+02  0.00000000000E+00 0.  1.
         13    1    3    3    0    0  0.22615741206E+01 -0.27193543163E+02  0.73393202214E+02  0.78301760124E+02  0.00000000000E+00 0. -1.
<mgrwt>
<rscale>  0 0.91549606E+02</rscale>
<asrwt>0</asrwt>
<pdfrwt beam="1">  1        1 0.12944577E-01 0.91549606E+02</pdfrwt>
<pdfrwt beam="2">  1       -1 0.38312315E-02 0.91549606E+02</pdfrwt>
<totfact> 0.10042340E+05</totfact>
</mgrwt>
</event>
<event>
 5    1  0.6308903E+000  0.9195965E+02  0.7546771E-02  0.1298174E+00
          1   -1    0    0  501    0  0.00000000000E+00  0.00000000000E+00  0.24721042530E+03  0.24721042530E+03  0.00000000000E+00 0. -1.
         -1   -1    0    0    0  501 -0.00000000000E+00 -0.00000000000E+00 -0.85520023032E+01  0.85520023032E+01  0.00000000000E+00 0.  1.
         23    2    1    2    0    0  0.00000000000E+00  0.00000000000E+00  0.23865842300E+03  0.25576242760E+03  0.91959646074E+02 0.  0.
        -13    1    3    3    0    0 -0.36839657328E+02  0.40000471037E+01  0.19503754612E+03  0.19852658544E+03  0.00000000000E+00 0. -1.
         13    1    3    3    0    0  0.36839657328E+02 -0.40000471037E+01  0.43620876876E+02  0.57235842165E+02  0.00000000000E+00 0.  1.
<mgrwt>
<rscale>  0 0.91959646E+02</rscale>
<asrwt>0</asrwt>
<pdfrwt beam="1">  1        1 0.38032368E-01 0.91959646E+02</pdfrwt>
<pdfrwt beam="2">  1       -1 0.13156929E-02 0.91959646E+02</pdfrwt>
<totfact> 0.12060998E+05</totfact>
</mgrwt>
</event>
<event>
 5    1  0.6308903E+000  0.8947228E+02  0.7546771E-02  0.1304135E+00
          1   -1    0    0  501    0  0.00000000000E+00  0.00000000000E+00  0.34449469546E+02  0.34449469546E+02  0.00000000000E+00 0. -1.
         -1   -1    0    0    0  501 -0.00000000000E+00 -0.00000000000E+00 -0.58094433384E+02  0.58094433384E+02  0.00000000000E+00 0.  1.
         23    2    1    2    0    0  0.00000000000E+00  0.00000000000E+00 -0.23644963838E+02  0.92543902931E+02  0.89472284283E+02 0.  0.
        -13    1    3    3    0    0  0.38472401565E+02 -0.35042888517E+01  0.11511165625E+02  0.40310205365E+02  0.00000000000E+00 0.  1.
         13    1    3    3    0    0 -0.38472401565E+02  0.35042888517E+01 -0.35156129463E+02  0.52233697566E+02  0.00000000000E+00 0. -1.
<mgrwt>
<rscale>  0 0.89472284E+02</rscale>
<asrwt>0</asrwt>
<pdfrwt beam="1">  1        1 0.52999185E-02 0.89472284E+02</pdfrwt>
<pdfrwt beam="2">  1       -1 0.89376050E-02 0.89472284E+02</pdfrwt>
<totfact> 0.93484407E+04</totfact>
</mgrwt>
</event>
<event>
 5    1  0.6308903E+000  0.8834178E+02  0.7546771E-02  0.1306918E+00
         -1   -1    0    0    0  501 -0.00000000000E+00  0.00000000000E+00  0.14662119458E+02  0.14662119458E+02  0.00000000000E+00 0.  1.
          1   -1    0    0  501    0  0.00000000000E+00 -0.00000000000E+00 -0.13306857397E+03  0.13306857397E+03  0.00000000000E+00 0. -1.
         23    2    1    2    0    0  0.00000000000E+00  0.00000000000E+00 -0.11840645451E+03  0.14773069343E+03  0.88341775567E+02 0.  0.
        -13    1    3    3    0    0  0.16506475183E+02  0.34293761956E+02 -0.96691080962E+02  0.10391193853E+03  0.00000000000E+00 0. -1.
         13    1    3    3    0    0 -0.16506475183E+02 -0.34293761956E+02 -0.21715373549E+02  0.43818754894E+02  0.00000000000E+00 0.  1.
<mgrwt>
<rscale>  0 0.88341776E+02</rscale>
<asrwt>0</asrwt>
<pdfrwt beam="2">  1        1 0.20472088E-01 0.88341776E+02</pdfrwt>
<pdfrwt beam="1">  1       -1 0.22557107E-02 0.88341776E+02</pdfrwt>
<totfact> 0.11948405E+05</totfact>
</mgrwt>
</event>
<event>
 5    1  0.6308903E+000  0.8976186E+02  0.7546771E-02  0.1303429E+00
         -1   -1    0    0    0  501 -0.00000000000E+00  0.00000000000E+00  0.19103957798E+02  0.19103957798E+02  0.00000000000E+00 0.  1.
          1   -1    0    0  501    0  0.00000000000E+00 -0.00000000000E+00 -0.10543877395E+03  0.10543877395E+03  0.00000000000E+00 0. -1.
         23    2    1    2    0    0  0.00000000000E+00  0.00000000000E+00 -0.86334816148E+02  0.12454273174E+03  0.89761860224E+02 0.  0.
        -13    1    3    3    0    0  0.20994771031E+02 -0.13918808502E+02  0.83711346134E+01  0.26544105475E+02  0.00000000000E+00 0.  1.
         13    1    3    3    0    0 -0.20994771031E+02  0.13918808502E+02 -0.94705950761E+02  0.97998626268E+02  0.00000000000E+00 0. -1.
<mgrwt>
<rscale>  0 0.89761860E+02</rscale>
<asrwt>0</asrwt>
<pdfrwt beam="2">  1        1 0.16221350E-01 0.89761860E+02</pdfrwt>
<pdfrwt beam="1">  1       -1 0.29390705E-02 0.89761860E+02</pdfrwt>
<totfact> 0.10995670E+05</totfact>
</mgrwt>
</event>
<event>
 5    1  0.6308903E+000  0.9047019E+02  0.7546771E-02  0.1301717E+00
         -4   -1    0    0    0  501 -0.00000000000E+00  0.00000000000E+00  0.65972098824E+02  0.65972098824E+02  0.00000000000E+00 0.  1.
          4   -1    0    0  501    0  0.00000000000E+00 -0.00000000000E+00 -0.31016350877E+02  0.31016350877E+02  0.00000000000E+00 0. -1.
         23    2    1    2    0    0  0.00000000000E+00  0.00000000000E+00  0.34955747947E+02  0.96988449701E+02  0.90470188797E+02 0.  0.
        -13    1    3    3    0    0 -0.24558691641E+02 -0.37219900919E+02  0.93300635322E+01  0.45557660662E+02  0.00000000000E+00 0.  1.
         13    1    3    3    0    0  0.24558691641E+02  0.37219900919E+02  0.25625684415E+02  0.51430789039E+02  0.00000000000E+00 0. -1.
<mgrwt>
<rscale>  0 0.90470189E+02</rscale>
<asrwt>0</asrwt>
<pdfrwt beam="2">  1        4 0.47717463E-02 0.90470189E+02</pdfrwt>
<pdfrwt beam="1">  1       -4 0.10149554E-01 0.90470189E+02</pdfrwt>
<totfact> 0.27213144E+04</totfact>
</mgrwt>
</event>
<event>
 5    1  0.6308903E+000  0.9272471E+02  0.7546771E-02  0.1296384E+00
          2   -1    0    0  501    0  0.00000000000E+00  0.00000000000E+00  0.33062447812E+03  0.33062447812E+03  0.00000000000E+00 0. -1.
         -2   -1    0    0    0  501 -0.00000000000E+00 -0.00000000000E+00 -0.65012360708E+01  0.65012360708E+01  0.00000000000E+00 0.  1.
         23    2    1    2    0    0  0.00000000000E+00  0.00000000000E+00  0.32412324205E+03  0.33712571419E+03  0.92724706159E+02 0.  0.
        -13    1    3    3    0    0  0.37286293650E+02  0.18590026167E+02  0.23600383709E+03  0.23965322424E+03  0.00000000000E+00 0.  1.
         13    1    3    3    0    0 -0.37286293650E+02 -0.18590026167E+02  0.88119404958E+02  0.97472489951E+02  0.00000000000E+00 0. -1.
<mgrwt>
<rscale>  0 0.92724706E+02</rscale>
<asrwt>0</asrwt>
<pdfrwt beam="1">  1        2 0.50865291E-01 0.92724706E+02</pdfrwt>
<pdfrwt beam="2">  1       -2 0.10001904E-02 0.92724706E+02</pdfrwt>
<totfact> 0.17807782E+05</totfact>
</mgrwt>
</event>
<event>
 5    1  0.6308903E+000  0.9215851E+02  0.7546771E-02  0.1297707E+00
          1   -1    0    0  501    0  0.00000000000E+00  0.00000000000E+00  0.15165309544E+02  0.15165309544E+02  0.00000000000E+00 0. -1.
         -1   -1    0    0    0  501 -0.00000000000E+00 -0.00000000000E+00 -0.14001017042E+03  0.14001017042E+03  0.00000000000E+00 0.  1.
         23    2    1    2    0    0  0.00000000000E+00  0.00000000000E+00 -0.12484486088E+03  0.15517547996E+03  0.92158506361E+02 0.  0.
        -13    1    3    3    0    0 -0.35271711756E+02  0.28085445400E+02 -0.78432747771E+02  0.90468678649E+02  0.00000000000E+00 0.  1.
         13    1    3    3    0    0  0.35271711756E+02 -0.28085445400E+02 -0.46412113104E+02  0.64706801314E+02  0.00000000000E+00 0. -1.
<mgrwt>
<rscale>  0 0.92158506E+02</rscale>
<asrwt>0</asrwt>
<pdfrwt beam="1">  1        1 0.23331245E-02 0.92158506E+02</pdfrwt>
<pdfrwt beam="2">  1       -1 0.21540027E-01 0.92158506E+02</pdfrwt>
<totfact> 0.73895940E+04</totfact>
</mgrwt>
</event>
<event>
 5    1  0.6308903E+000  0.9338482E+02  0.7546771E-02  0.1294856E+00
          1   -1    0    0  501    0  0.00000000000E+00  0.00000000000E+00  0.15112725067E+02  0.15112725067E+02  0.00000000000E+00 0. -1.
         -1   -1    0    0    0  501 -0.00000000000E+00 -0.00000000000E+00 -0.14426128507E+03  0.14426128507E+03  0.00000000000E+00 0.  1.
         23    2    1    2    0    0  0.00000000000E+00  0.00000000000E+00 -0.12914856000E+03  0.15937401013E+03  0.93384819730E+02 0.  0.
        -13    1    3    3    0    0  0.98798351704E+01 -0.44517651762E+02 -0.47444140773E+02  0.65805614921E+02  0.00000000000E+00 0. -1.
         13    1    3    3    0    0 -0.98798351704E+01  0.44517651762E+02 -0.81704419228E+02  0.93568395214E+02  0.00000000000E+00 0.  1.
<mgrwt>
<rscale>  0 0.93384820E+02</rscale>
<asrwt>0</asrwt>
<pdfrwt beam="1">  1        1 0.23250347E-02 0.93384820E+02</pdfrwt>
<pdfrwt beam="2">  1       -1 0.22194043E-01 0.93384820E+02</pdfrwt>
<totfact> 0.70918381E+04</totfact>
</mgrwt>
</event>
<event>
 5    1  0.6308903E+000  0.9051043E+02  0.7546771E-02  0.1301620E+00
         -1   -1    0    0    0  501 -0.00000000000E+00  0.00000000000E+00  0.65595878104E+02  0.65595878104E+02  0.00000000000E+00 0.  1.
          1   -1    0    0  501    0  0.00000000000E+00 -0.00000000000E+00 -0.31221996344E+02  0.31221996344E+02  0.00000000000E+00 0. -1.
         23    2    1    2    0    0  0.00000000000E+00  0.00000000000E+00  0.34373881760E+02  0.96817874448E+02  0.90510425175E+02 0.  0.
        -13    1    3    3    0    0 -0.24279594566E+02 -0.32117689018E+02 -0.49167903219E+01  0.40561305295E+02  0.00000000000E+00 0. -1.
         13    1    3    3    0    0  0.24279594566E+02  0.32117689018E+02  0.39290672082E+02  0.56256569152E+02  0.00000000000E+00 0.  1.
<mgrwt>
<rscale>  0 0.90510425E+02</rscale>
<asrwt>0</asrwt>
<pdfrwt beam="2">  1        1 0.48033841E-02 0.90510425E+02</pdfrwt>
<pdfrwt beam="1">  1       -1 0.10091674E-01 0.90510425E+02</pdfrwt>
<totfact> 0.89091452E+04</totfact>
</mgrwt>
</event>
<event>
 5    1  0.6308903E+000  0.9090134E+02  0.7546771E-02  0.1300684E+00
          2   -1    0    0  501    0  0.00000000000E+00  0.00000000000E+00  0.10233036568E+03  0.10233036568E+03  0.00000000000E+00 0. -1.
         -2   -1    0    0    0  501 -0.00000000000E+00 -0.00000000000E+00 -0.20187197722E+02  0.20187197722E+02  0.00000000000E+00 0.  1.
         23    2    1    2    0    0  0.00000000000E+00  0.00000000000E+00  0.82143167954E+02  0.12251756340E+03  0.90901338272E+02 0.  0.
        -13    1    3    3    0    0 -0.55414206026E+01  0.43138829953E+02  0.58855366266E+02  0.73182102527E+02  0.00000000000E+00 0.  1.
         13    1    3    3    0    0  0.55414206026E+01 -0.43138829953E+02  0.23287801689E+02  0.49335460872E+02  0.00000000000E+00 0. -1.
<mgrwt>
<rscale>  0 0.90901338E+02</rscale>
<asrwt>0</asrwt>
<pdfrwt beam="1">  1        2 0.15743133E-01 0.90901338E+02</pdfrwt>
<pdfrwt beam="2">  1       -2 0.31057228E-02 0.90901338E+02</pdfrwt>
<totfact> 0.12457497E+05</totfact>
</mgrwt>
</event>
<event>
 5    1  0.6308903E+000  0.9012884E+02  0.7546771E-02  0.1302540E+00
          1   -1    0    0  501    0  0.00000000000E+00  0.00000000000E+00  0.15950348461E+02  0.15950348461E+02  0.00000000000E+00 0. -1.
         -1   -1    0    0    0  501 -0.00000000000E+00 -0.00000000000E+00 -0.12732022022E+03  0.12732022022E+03  0.00000000000E+00 0.  1.
         23    2    1    2    0    0  0.00000000000E+00  0.00000000000E+00 -0.11136987176E+03  0.14327056868E+03  0.90128838416E+02 0.  0.
        -13    1    3    3    0    0 -0.21832870418E+02 -0.33366000307E+02 -0.89060803228E+02  0.97579664268E+02  0.00000000000E+00 0.  1.
         13    1    3    3    0    0  0.21832870418E+02  0.33366000307E+02 -0.22309068531E+02  0.45690904411E+02  0.00000000000E+00 0. -1.
<mgrwt>
<rscale>  0 0.90128838E+02</rscale>
<asrwt>0</asrwt>
<pdfrwt beam="1">  1        1 0.24538997E-02 0.90128838E+02</pdfrwt>
<pdfrwt beam="2">  1       -1 0.19587727E-01 0.90128838E+02</pdfrwt>
<totfact> 0.79922082E+04</totfact>
</mgrwt>
</event>
<event>
 5    1  0.6308903E+000  0.8985386E+02  0.7546771E-02  0.1303206E+00
         -2   -1    0    0    0  501 -0.00000000000E+00  0.00000000000E+00  0.12515716780E+02  0.12515716780E+02  0.00000000000E+00 0.  1.
          2   -1    0    0  501    0  0.00000000000E+00 -0.00000000000E+00 -0.16127154323E+03  0.16127154323E+03  0.00000000000E+00 0. -1.
         23    2    1    2    0    0  0.00000000000E+00  0.00000000000E+00 -0.14875582645E+03  0.17378726001E+03  0.89853858231E+02 0.  0.
        -13    1    3    3    0    0 -0.18918265121E+02 -0.30581617097E+02 -0.22289884818E+02  0.42308096443E+02  0.00000000000E+00 0.  1.
         13    1    3    3    0    0  0.18918265121E+02  0.30581617097E+02 -0.12646594163E+03  0.13147916357E+03  0.00000000000E+00 0. -1.
<mgrwt>
<rscale>  0 0.89853858E+02</rscale>
<asrwt>0</asrwt>
<pdfrwt beam="2">  1        2 0.24811006E-01 0.89853858E+02</pdfrwt>
<pdfrwt beam="1">  1       -2 0.19254950E-02 0.89853858E+02</pdfrwt>
<totfact> 0.14910519E+05</totfact>
</mgrwt>
</event>
<event>
 5    1  0.6308903E+000  0.8969602E+02  0.7546771E-02  0.1303590E+00
          2   -1    0    0  501    0  0.00000000000E+00  0.00000000000E+00  0.31880090474E+02  0.31880090474E+02  0.00000000000E+00 0. -1.
         -2   -1    0    0    0  501 -0.00000000000E+00 -0.00000000000E+00 -0.63090909527E+02  0.63090909527E+02  0.00000000000E+00 0.  1.
         23    2    1    2    0    0  0.00000000000E+00  0.00000000000E+00 -0.31210819053E+02  0.94971000001E+02  0.89696017834E+02 0.  0.
        -13    1    3    3    0    0 -0.29844297745E+02 -0.33289990803E+02 -0.19339617544E+02  0.48712692415E+02  0.00000000000E+00 0.  1.
         13    1    3    3    0    0  0.29844297745E+02  0.33289990803E+02 -0.11871201509E+02  0.46258307587E+02  0.00000000000E+00 0. -1.
<mgrwt>
<rscale>  0 0.89696018E+02</rscale>
<asrwt>0</asrwt>
<pdfrwt beam="1">  1        2 0.49046294E-02 0.89696018E+02</pdfrwt>
<pdfrwt beam="2">  1       -2 0.97062935E-02 0.89696018E+02</pdfrwt>
<totfact> 0.94345277E+04</totfact>
</mgrwt>
</event>
<event>
 5    1  0.6308903E+000  0.9263488E+02  0.7546771E-02  0.1296594E+00
         -2   -1    0    0    0  501 -0.00000000000E+00  0.00000000000E+00  0.52843610648E+02  0.52843610648E+02  0.00000000000E+00 0.  1.
          2   -1    0    0  501    0  0.00000000000E+00 -0.00000000000E+00 -0.40597247352E+02  0.40597247352E+02  0.00000000000E+00 0. -1.
         23    2    1    2    0    0  0.00000000000E+00  0.00000000000E+00  0.12246363296E+02  0.93440858000E+02  0.92634877502E+02 0.  0.
        -13    1    3    3    0    0 -0.34550378838E+02 -0.28848200317E+02  0.17143335968E+02  0.48164730950E+02  0.00000000000E+00 0.  1.
         13    1    3    3    0    0  0.34550378838E+02  0.28848200317E+02 -0.48969726717E+01  0.45276127051E+02  0.00000000000E+00 0. -1.
<mgrwt>
<rscale>  0 0.92634878E+02</rscale>
<asrwt>0</asrwt>
<pdfrwt beam="2">  1        2 0.62457304E-02 0.92634878E+02</pdfrwt>
<pdfrwt beam="1">  1       -2 0.81297863E-02 0.92634878E+02</pdfrwt>
<totfact> 0.91447675E+04</totfact>
</mgrwt>
</event>
<event>
 5    1  0.6308903E+000  0.9146810E+02  0.7546771E-02  0.1299335E+00
          1   -1    0    0  501    0  0.00000000000E+00  0.00000000000E+00  0.10518393664E+03  0.10518393664E+03  0.00000000000E+00 0. -1.
         -1   -1    0    0    0  501 -0.00000000000E+00 -0.00000000000E+00 -0.19885195517E+02  0.19885195517E+02  0.00000000000E+00 0.  1.
         23    2    1    2    0    0  0.00000000000E+00  0.00000000000E+00  0.85298741124E+02  0.12506913216E+03  0.91468095975E+02 0.  0.
        -13    1    3    3    0    0 -0.28511733445E+02  0.18345704353E+01 -0.61809793445E+01  0.29231645495E+02  0.00000000000E+00 0.  1.
         13    1    3    3    0    0  0.28511733445E+02 -0.18345704353E+01  0.91479720469E+02  0.95837486662E+02  0.00000000000E+00 0. -1.
<mgrwt>
<rscale>  0 0.91468096E+02</rscale>
<asrwt>0</asrwt>
<pdfrwt beam="1">  1        1 0.16182144E-01 0.91468096E+02</pdfrwt>
<pdfrwt beam="2">  1       -1 0.30592609E-02 0.91468096E+02</pdfrwt>
<totfact> 0.10442697E+05</totfact>
</mgrwt>
</event>
<event>
 5    1  0.6308903E+000  0.9162825E+02  0.7546771E-02  0.1298956E+00
         -1   -1    0    0    0  501 -0.00000000000E+00  0.00000000000E+00  0.30495070607E+02  0.30495070607E+02  0.00000000000E+00 0.  1.
          1   -1    0    0  501    0  0.00000000000E+00 -0.00000000000E+00 -0.68828636985E+02  0.68828636985E+02  0.00000000000E+00 0. -1.
         23    2    1    2    0    0  0.00000000000E+00  0.00000000000E+00 -0.38333566377E+02  0.99323707592E+02  0.91628252077E+02 0.  0.
        -13    1    3    3    0    0  0.44040573288E+02  0.15059070970E+01 -0.32753162168E+02  0.54905459508E+02  0.00000000000E+00 0.  1.
         13    1    3    3    0    0 -0.44040573288E+02 -0.15059070970E+01 -0.55804042090E+01  0.44418248084E+02  0.00000000000E+00 0. -1.
<mgrwt>
<rscale>  0 0.91628252E+02</rscale>
<asrwt>0</asrwt>
<pdfrwt beam="2">  1        1 0.10589021E-01 0.91628252E+02</pdfrwt>
<pdfrwt beam="1">  1       -1 0.46915494E-02 0.91628252E+02</pdfrwt>
<totfact> 0.97076745E+04</totfact>
</mgrwt>
</event>
<event>
 5    1  0.6308903E+000  0.8620523E+02  0.7546771E-02  0.1312310E+00
         -1   -1    0    0    0  501 -0.00000000000E+00  0.00000000000E+00  0.11605006686E+03  0.11605006686E+03  0.00000000000E+00 0.  1.
          1   -1    0    0  501    0  0.00000000000E+00 -0.00000000000E+00 -0.16008911577E+02  0.16008911577E+02  0.00000000000E+00 0. -1.
         23    2    1    2    0    0  0.00000000000E+00  0.00000000000E+00  0.10004115528E+03  0.13205897843E+03  0.86205226265E+02 0.  0.
        -13    1    3    3    0    0 -0.16852264133E+02 -0.14294663588E+02  0.10671171946E+03  0.10897581054E+03  0.00000000000E+00 0.  1.
         13    1    3    3    0    0  0.16852264133E+02  0.14294663588E+02 -0.66705641782E+01  0.23083167892E+02  0.00000000000E+00 0. -1.
<mgrwt>
<rscale>  0 0.86205226E+02</rscale>
<asrwt>0</asrwt>
<pdfrwt beam="2">  1        1 0.24629095E-02 0.86205226E+02</pdfrwt>
<pdfrwt beam="1">  1       -1 0.17853856E-01 0.86205226E+02</pdfrwt>
<totfact> 0.91363089E+04</totfact>
</mgrwt>
</event>
<event>
 5    1  0.6308903E+000  0.9115745E+02  0.7546771E-02  0.1300073E+00
         -1   -1    0    0    0  501 -0.00000000000E+00  0.00000000000E+00  0.18798265088E+02  0.18798265088E+02  0.00000000000E+00 0.  1.
          1   -1    0    0  501    0  0.00000000000E+00 -0.00000000000E+00 -0.11051127535E+03  0.11051127535E+03  0.00000000000E+00 0. -1.
         23    2    1    2    0    0  0.00000000000E+00  0.00000000000E+00 -0.91713010262E+02  0.12930954044E+03  0.91157451681E+02 0.  0.
        -13    1    3    3    0    0 -0.32400632720E+02  0.31489039392E+02 -0.54374730504E+02  0.70696335972E+02  0.00000000000E+00 0. -1.
         13    1    3    3    0    0  0.32400632720E+02 -0.31489039392E+02 -0.37338279759E+02  0.58613204466E+02  0.00000000000E+00 0.  1.
<mgrwt>
<rscale>  0 0.91157452E+02</rscale>
<asrwt>0</asrwt>
<pdfrwt beam="2">  1        1 0.17001735E-01 0.91157452E+02</pdfrwt>
<pdfrwt beam="1">  1       -1 0.28920408E-02 0.91157452E+02</pdfrwt>
<totfact> 0.10628499E+05</totfact>
</mgrwt>
</event>
<event>
 5    1  0.6308903E+000  0.7790900E+02  0.7546771E-02  0.1335092E+00
          1   -1    0    0  501    0  0.00000000000E+00  0.00000000000E+00  0.14825421522E+03  0.14825421522E+03  0.00000000000E+00 0. -1.
         -1   -1    0    0    0  501 -0.00000000000E+00 -0.00000000000E+00 -0.10235479967E+02  0.10235479967E+02  0.00000000000E+00 0.  1.
         23    2    1    2    0    0  0.00000000000E+00  0.00000000000E+00  0.13801873525E+03  0.15848969518E+03  0.77908999477E+02 0.  0.
        -13    1    3    3    0    0 -0.45609573801E+01 -0.24225021584E+02  0.76492558830E+01  0.25810174709E+02  0.00000000000E+00 0.  1.
         13    1    3    3    0    0  0.45609573801E+01  0.24225021584E+02  0.13036947937E+03  0.13267952048E+03  0.00000000000E+00 0. -1.
<mgrwt>
<rscale>  0 0.77908999E+02</rscale>
<asrwt>0</asrwt>
<pdfrwt beam="1">  1        1 0.22808339E-01 0.77908999E+02</pdfrwt>
<pdfrwt beam="2">  1       -1 0.15746893E-02 0.77908999E+02</pdfrwt>
<totfact> 0.17034369E+05</totfact>
</mgrwt>
</event>
<event>
 5    1  0.6308903E+000  0.9331534E+02  0.7546771E-02  0.1295016E+00
         -1   -1    0    0    0  501 -0.00000000000E+00  0.00000000000E+00  0.25523859193E+03  0.25523859193E+03  0.00000000000E+00 0.  1.
          1   -1    0    0  501    0  0.00000000000E+00 -0.00000000000E+00 -0.85290320319E+01  0.85290320319E+01  0.00000000000E+00 0. -1.
         23    2    1    2    0    0  0.00000000000E+00  0.00000000000E+00  0.24670955990E+03  0.26376762397E+03  0.93315339069E+02 0.  0.
        -13    1    3    3    0    0 -0.17353950618E+02 -0.38604908114E+02  0.17884885425E+03  0.18378903993E+03  0.00000000000E+00 0.  1.
         13    1    3    3    0    0  0.17353950618E+02  0.38604908114E+02  0.67860705655E+02  0.79978584037E+02  0.00000000000E+00 0. -1.
<mgrwt>
<rscale>  0 0.93315339E+02</rscale>
<asrwt>0</asrwt>
<pdfrwt beam="2">  1        1 0.13121590E-02 0.93315339E+02</pdfrwt>
<pdfrwt beam="1">  1       -1 0.39267470E-01 0.93315339E+02</pdfrwt>
<totfact> 0.60524272E+04</totfact>
</mgrwt>
</event>
<event>
 5    1  0.6308903E+000  0.8929879E+02  0.7546771E-02  0.1304559E+00
         -1   -1    0    0    0  501 -0.00000000000E+00  0.00000000000E+00  0.65844897760E+01  0.65844897760E+01  0.00000000000E+00 0.  1.
          1   -1    0    0  501    0  0.00000000000E+00 -0.00000000000E+00 -0.30276733625E+03  0.30276733625E+03  0.00000000000E+00 0. -1.
         23    2    1    2    0    0  0.00000000000E+00  0.00000000000E+00 -0.29618284647E+03  0.30935182602E+03  0.89298789018E+02 0.  0.
        -13    1    3    3    0    0  0.22053162460E+02 -0.38343622664E+02 -0.12702129287E+03  0.13450272939E+03  0.00000000000E+00 0.  1.
         13    1    3    3    0    0 -0.22053162460E+02  0.38343622664E+02 -0.16916155360E+03  0.17484909663E+03  0.00000000000E+00 0. -1.
<mgrwt>
<rscale>  0 0.89298789E+02</rscale>
<asrwt>0</asrwt>
<pdfrwt beam="2">  1        1 0.46579586E-01 0.89298789E+02</pdfrwt>
<pdfrwt beam="1">  1       -1 0.10129985E-02 0.89298789E+02</pdfrwt>
<totfact> 0.13565190E+05</totfact>
</mgrwt>
</event>
<event>
 5    1  0.6308903E+000  0.9117316E+02  0.7546771E-02  0.1300035E+00
          2   -1    0    0  501    0  0.00000000000E+00  0.00000000000E+00  0.51268093824E+02  0.51268093824E+02  0.00000000000E+00 0. -1.
         -2   -1    0    0    0  501 -0.00000000000E+00 -0.00000000000E+00 -0.40534689137E+02  0.40534689137E+02  0.00000000000E+00 0.  1.
         23    2    1    2    0    0  0.00000000000E+00  0.00000000000E+00  0.10733404687E+02  0.91802782962E+02  0.91173159336E+02 0.  0.
        -13    1    3    3    0    0 -0.12781394028E+02 -0.33116779032E+02 -0.23432408194E+02  0.42534254908E+02  0.00000000000E+00 0.  1.
         13    1    3    3    0    0  0.12781394028E+02  0.33116779032E+02  0.34165812881E+02  0.49268528054E+02  0.00000000000E+00 0. -1.
<mgrwt>
<rscale>  0 0.91173159E+02</rscale>
<asrwt>0</asrwt>
<pdfrwt beam="1">  1        2 0.78873991E-02 0.91173159E+02</pdfrwt>
<pdfrwt beam="2">  1       -2 0.62361060E-02 0.91173159E+02</pdfrwt>
<totfact> 0.10175386E+05</totfact>
</mgrwt>
</event>
<event>
 5    1  0.6308903E+000  0.9113234E+02  0.7546771E-02  0.1300133E+00
         -3   -1    0    0    0  501 -0.00000000000E+00  0.00000000000E+00  0.20587754112E+03  0.20587754112E+03  0.00000000000E+00 0.  1.
          3   -1    0    0  501    0  0.00000000000E+00 -0.00000000000E+00 -0.10085004100E+02  0.10085004100E+02  0.00000000000E+00 0. -1.
         23    2    1    2    0    0  0.00000000000E+00  0.00000000000E+00  0.19579253702E+03  0.21596254522E+03  0.91132339950E+02 0.  0.
        -13    1    3    3    0    0 -0.31185497086E+02  0.25394748150E+02  0.47134114112E+02  0.61960093409E+02  0.00000000000E+00 0. -1.
         13    1    3    3    0    0  0.31185497086E+02 -0.25394748150E+02  0.14865842291E+03  0.15400245181E+03  0.00000000000E+00 0.  1.
<mgrwt>
<rscale>  0 0.91132340E+02</rscale>
<asrwt>0</asrwt>
<pdfrwt beam="2">  1        3 0.15515393E-02 0.91132340E+02</pdfrwt>
<pdfrwt beam="1">  1       -3 0.31673465E-01 0.91132340E+02</pdfrwt>
<totfact> 0.27728186E+04</totfact>
</mgrwt>
</event>
<event>
 5    1  0.6308903E+000  0.9840236E+02  0.7546771E-02  0.1283692E+00
         -2   -1    0    0    0  501 -0.00000000000E+00  0.00000000000E+00  0.14479471278E+02  0.14479471278E+02  0.00000000000E+00 0.  1.
          2   -1    0    0  501    0  0.00000000000E+00 -0.00000000000E+00 -0.16718538175E+03  0.16718538175E+03  0.00000000000E+00 0. -1.
         23    2    1    2    0    0  0.00000000000E+00  0.00000000000E+00 -0.15270591047E+03  0.18166485302E+03  0.98402356335E+02 0.  0.
        -13    1    3    3    0    0  0.24788346895E+02  0.37166495906E+02 -0.38296181666E+02  0.58842230497E+02  0.00000000000E+00 0.  1.
         13    1    3    3    0    0 -0.24788346895E+02 -0.37166495906E+02 -0.11440972880E+03  0.12282262253E+03  0.00000000000E+00 0. -1.
<mgrwt>
<rscale>  0 0.98402356E+02</rscale>
<asrwt>0</asrwt>
<pdfrwt beam="2">  1        2 0.25720830E-01 0.98402356E+02</pdfrwt>
<pdfrwt beam="1">  1       -2 0.22276108E-02 0.98402356E+02</pdfrwt>
<totfact> 0.11793970E+05</totfact>
</mgrwt>
</event>
<event>
 5    1  0.6308903E+000  0.9302800E+02  0.7546771E-02  0.1295680E+00
         -4   -1    0    0    0  501 -0.00000000000E+00  0.00000000000E+00  0.81430261364E+02  0.81430261364E+02  0.00000000000E+00 0.  1.
          4   -1    0    0  501    0  0.00000000000E+00 -0.00000000000E+00 -0.26569389276E+02  0.26569389276E+02  0.00000000000E+00 0. -1.
         23    2    1    2    0    0  0.00000000000E+00  0.00000000000E+00  0.54860872088E+02  0.10799965064E+03  0.93028002516E+02 0.  0.
        -13    1    3    3    0    0  0.82344346565E+00 -0.21521622998E+02  0.75292786786E+02  0.78312591948E+02  0.00000000000E+00 0.  1.
         13    1    3    3    0    0 -0.82344346565E+00  0.21521622998E+02 -0.20431914698E+02  0.29687058693E+02  0.00000000000E+00 0. -1.
<mgrwt>
<rscale>  0 0.93028003E+02</rscale>
<asrwt>0</asrwt>
<pdfrwt beam="2">  1        4 0.40875984E-02 0.93028003E+02</pdfrwt>
<pdfrwt beam="1">  1       -4 0.12527732E-01 0.93028003E+02</pdfrwt>
<totfact> 0.24592429E+04</totfact>
</mgrwt>
</event>
<event>
 5    1  0.6308903E+000  0.9113821E+02  0.7546771E-02  0.1300119E+00
          1   -1    0    0  501    0  0.00000000000E+00  0.00000000000E+00  0.26270359531E+02  0.26270359531E+02  0.00000000000E+00 0. -1.
         -1   -1    0    0    0  501 -0.00000000000E+00 -0.00000000000E+00 -0.79045110087E+02  0.79045110087E+02  0.00000000000E+00 0.  1.
         23    2    1    2    0    0  0.00000000000E+00  0.00000000000E+00 -0.52774750555E+02  0.10531546962E+03  0.91138212868E+02 0.  0.
        -13    1    3    3    0    0  0.34850562503E+02  0.16231629848E+02 -0.54657617109E+02  0.66824266717E+02  0.00000000000E+00 0.  1.
         13    1    3    3    0    0 -0.34850562503E+02 -0.16231629848E+02  0.18828665533E+01  0.38491202901E+02  0.00000000000E+00 0. -1.
<mgrwt>
<rscale>  0 0.91138213E+02</rscale>
<asrwt>0</asrwt>
<pdfrwt beam="1">  1        1 0.40415938E-02 0.91138213E+02</pdfrwt>
<pdfrwt beam="2">  1       -1 0.12160786E-01 0.91138213E+02</pdfrwt>
<totfact> 0.84914418E+04</totfact>
</mgrwt>
</event>
<event>
 5    1  0.6308903E+000  0.9153767E+02  0.7546771E-02  0.1299170E+00
          2   -1    0    0  501    0  0.00000000000E+00  0.00000000000E+00  0.23840567375E+03  0.23840567375E+03  0.00000000000E+00 0.  1.
         -2   -1    0    0    0  501 -0.00000000000E+00 -0.00000000000E+00 -0.87866467200E+01  0.87866467200E+01  0.00000000000E+00 0. -1.
         23    2    1    2    0    0  0.00000000000E+00  0.00000000000E+00  0.22961902703E+03  0.24719232047E+03  0.91537673802E+02 0.  0.
        -13    1    3    3    0    0  0.29587768713E+01  0.42625564341E+02  0.15910776390E+03  0.16474517786E+03  0.00000000000E+00 0. -1.
         13    1    3    3    0    0 -0.29587768713E+01 -0.42625564341E+02  0.70511263135E+02  0.82447142612E+02  0.00000000000E+00 0.  1.
<mgrwt>
<rscale>  0 0.91537674E+02</rscale>
<asrwt>0</asrwt>
<pdfrwt beam="1">  1        2 0.36677791E-01 0.91537674E+02</pdfrwt>
<pdfrwt beam="2">  1       -2 0.13517920E-02 0.91537674E+02</pdfrwt>
<totfact> 0.16320184E+05</totfact>
</mgrwt>
</event>
<event>
 5    1  0.6308903E+000  0.9075541E+02  0.7546771E-02  0.1301033E+00
          3   -1    0    0  501    0  0.00000000000E+00  0.00000000000E+00  0.15197597933E+02  0.15197597933E+02  0.00000000000E+00 0. -1.
         -3   -1    0    0    0  501 -0.00000000000E+00 -0.00000000000E+00 -0.13549088081E+03  0.13549088081E+03  0.00000000000E+00 0.  1.
         23    2    1    2    0    0  0.00000000000E+00  0.00000000000E+00 -0.12029328288E+03  0.15068847875E+03  0.90755406015E+02 0.  0.
        -13    1    3    3    0    0  0.10232657423E+02  0.31885287834E+02 -0.93011184799E+01  0.34754707065E+02  0.00000000000E+00 0. -1.
         13    1    3    3    0    0 -0.10232657423E+02 -0.31885287834E+02 -0.11099216440E+03  0.11593377168E+03  0.00000000000E+00 0.  1.
<mgrwt>
<rscale>  0 0.90755406E+02</rscale>
<asrwt>0</asrwt>
<pdfrwt beam="1">  1        3 0.23380919E-02 0.90755406E+02</pdfrwt>
<pdfrwt beam="2">  1       -3 0.20844752E-01 0.90755406E+02</pdfrwt>
<totfact> 0.31660406E+04</totfact>
</mgrwt>
</event>
<event>
 5    1  0.6308903E+000  0.8763878E+02  0.7546771E-02  0.1308673E+00
         -1   -1    0    0    0  501 -0.00000000000E+00  0.00000000000E+00  0.33470615524E+02  0.33470615524E+02  0.00000000000E+00 0.  1.
          1   -1    0    0  501    0  0.00000000000E+00 -0.00000000000E+00 -0.57367904255E+02  0.57367904255E+02  0.00000000000E+00 0. -1.
         23    2    1    2    0    0  0.00000000000E+00  0.00000000000E+00 -0.23897288731E+02  0.90838519779E+02  0.87638782893E+02 0.  0.
        -13    1    3    3    0    0 -0.70359473892E+01 -0.41515356617E+02  0.62306495222E+00  0.42111965053E+02  0.00000000000E+00 0.  1.
         13    1    3    3    0    0  0.70359473892E+01  0.41515356617E+02 -0.24520353683E+02  0.48726554726E+02  0.00000000000E+00 0. -1.
<mgrwt>
<rscale>  0 0.87638783E+02</rscale>
<asrwt>0</asrwt>
<pdfrwt beam="2">  1        1 0.88258313E-02 0.87638783E+02</pdfrwt>
<pdfrwt beam="1">  1       -1 0.51493256E-02 0.87638783E+02</pdfrwt>
<totfact> 0.10680299E+05</totfact>
</mgrwt>
</event>
<event>
 5    1  0.6308903E+000  0.9387553E+02  0.7546771E-02  0.1293729E+00
          2   -1    0    0  501    0  0.00000000000E+00  0.00000000000E+00  0.18023516922E+03  0.18023516922E+03  0.00000000000E+00 0. -1.
         -2   -1    0    0    0  501 -0.00000000000E+00 -0.00000000000E+00 -0.12223773063E+02  0.12223773063E+02  0.00000000000E+00 0.  1.
         23    2    1    2    0    0  0.00000000000E+00  0.00000000000E+00  0.16801139616E+03  0.19245894229E+03  0.93875530499E+02 0.  0.
        -13    1    3    3    0    0  0.20397241887E+02 -0.35666383586E+02  0.37479688778E+02  0.55613536712E+02  0.00000000000E+00 0.  1.
         13    1    3    3    0    0 -0.20397241887E+02  0.35666383586E+02  0.13053170738E+03  0.13684540558E+03  0.00000000000E+00 0. -1.
<mgrwt>
<rscale>  0 0.93875530E+02</rscale>
<asrwt>0</asrwt>
<pdfrwt beam="1">  1        2 0.27728486E-01 0.93875530E+02</pdfrwt>
<pdfrwt beam="2">  1       -2 0.18805806E-02 0.93875530E+02</pdfrwt>
<totfact> 0.13770382E+05</totfact>
</mgrwt>
</event>
<event>
 5    1  0.6308903E+000  0.9218069E+02  0.7546771E-02  0.1297655E+00
          2   -1    0    0  501    0  0.00000000000E+00  0.00000000000E+00  0.19457115648E+03  0.19457115648E+03  0.00000000000E+00 0. -1.
         -2   -1    0    0    0  501 -0.00000000000E+00 -0.00000000000E+00 -0.10917957856E+02  0.10917957856E+02  0.00000000000E+00 0.  1.
         23    2    1    2    0    0  0.00000000000E+00  0.00000000000E+00  0.18365319862E+03  0.20548911433E+03  0.92180685318E+02 0.  0.
        -13    1    3    3    0    0  0.36914462652E+02  0.26941885936E+02  0.78492909832E+02  0.90827747217E+02  0.00000000000E+00 0.  1.
         13    1    3    3    0    0 -0.36914462652E+02 -0.26941885936E+02  0.10516028879E+03  0.11466136712E+03  0.00000000000E+00 0. -1.
<mgrwt>
<rscale>  0 0.92180685E+02</rscale>
<asrwt>0</asrwt>
<pdfrwt beam="1">  1        2 0.29934021E-01 0.92180685E+02</pdfrwt>
<pdfrwt beam="2">  1       -2 0.16796860E-02 0.92180685E+02</pdfrwt>
<totfact> 0.14869278E+05</totfact>
</mgrwt>
</event>
<event>
 5    1  0.6308903E+000  0.9086858E+02  0.7546771E-02  0.1300762E+00
         -2   -1    0    0    0  501 -0.00000000000E+00  0.00000000000E+00  0.24249971068E+02  0.24249971068E+02  0.00000000000E+00 0.  1.
          2   -1    0    0  501    0  0.00000000000E+00 -0.00000000000E+00 -0.85124836334E+02  0.85124836334E+02  0.00000000000E+00 0. -1.
         23    2    1    2    0    0  0.00000000000E+00  0.00000000000E+00 -0.60874865266E+02  0.10937480740E+03  0.90868582432E+02 0.  0.
        -13    1    3    3    0    0 -0.21661249155E+02  0.28860000065E+02  0.27924028587E+01  0.36192635057E+02  0.00000000000E+00 0.  1.
         13    1    3    3    0    0  0.21661249155E+02 -0.28860000065E+02 -0.63667268125E+02  0.73182172345E+02  0.00000000000E+00 0. -1.
<mgrwt>
<rscale>  0 0.90868582E+02</rscale>
<asrwt>0</asrwt>
<pdfrwt beam="2">  1        2 0.13096129E-01 0.90868582E+02</pdfrwt>
<pdfrwt beam="1">  1       -2 0.37307647E-02 0.90868582E+02</pdfrwt>
<totfact> 0.11803403E+05</totfact>
</mgrwt>
</event>
<event>
 5    1  0.6308903E+000  0.8492057E+02  0.7546771E-02  0.1315640E+00
          1   -1    0    0  501    0  0.00000000000E+00  0.00000000000E+00  0.58883377422E+02  0.58883377422E+02  0.00000000000E+00 0. -1.
         -1   -1    0    0    0  501 -0.00000000000E+00 -0.00000000000E+00 -0.30617734414E+02  0.30617734414E+02  0.00000000000E+00 0.  1.
         23    2    1    2    0    0  0.00000000000E+00  0.00000000000E+00  0.28265643008E+02  0.89501111837E+02  0.84920565503E+02 0.  0.
        -13    1    3    3    0    0  0.62726616795E+01  0.21973438285E+02  0.51849966041E+02  0.56662132444E+02  0.00000000000E+00 0. -1.
         13    1    3    3    0    0 -0.62726616795E+01 -0.21973438285E+02 -0.23584323034E+02  0.32838979393E+02  0.00000000000E+00 0.  1.
<mgrwt>
<rscale>  0 0.84920566E+02</rscale>
<asrwt>0</asrwt>
<pdfrwt beam="1">  1        1 0.90589811E-02 0.84920566E+02</pdfrwt>
<pdfrwt beam="2">  1       -1 0.47104207E-02 0.84920566E+02</pdfrwt>
<totfact> 0.11692017E+05</totfact>
</mgrwt>
</event>
<event>
 5    1  0.6308903E+000  0.9106416E+02  0.7546771E-02  0.1300295E+00
         -2   -1    0    0    0  501 -0.00000000000E+00  0.00000000000E+00  0.11122380927E+02  0.11122380927E+02  0.00000000000E+00 0. -1.
          2   -1    0    0  501    0  0.00000000000E+00 -0.00000000000E+00 -0.18639628431E+03  0.18639628431E+03  0.00000000000E+00 0.  1.
         23    2    1    2    0    0  0.00000000000E+00  0.00000000000E+00 -0.17527390338E+03  0.19751866524E+03  0.91064163698E+02 0.  0.
        -13    1    3    3    0    0  0.31176240145E+02 -0.14803002977E+02 -0.15205618029E+03  0.15592359928E+03  0.00000000000E+00 0.  1.
         13    1    3    3    0    0 -0.31176240145E+02  0.14803002977E+02 -0.23217723092E+02  0.41595065960E+02  0.00000000000E+00 0. -1.
<mgrwt>
<rscale>  0 0.91064164E+02</rscale>
<asrwt>0</asrwt>
<pdfrwt beam="2">  1        2 0.28676353E-01 0.91064164E+02</pdfrwt>
<pdfrwt beam="1">  1       -2 0.17111355E-02 0.91064164E+02</pdfrwt>
<totfact> 0.15131520E+05</totfact>
</mgrwt>
</event>
<event>
 5    1  0.6308903E+000  0.9083063E+02  0.7546771E-02  0.1300853E+00
         -4   -1    0    0    0  501 -0.00000000000E+00  0.00000000000E+00  0.15716942056E+02  0.15716942056E+02  0.00000000000E+00 0.  1.
          4   -1    0    0  501    0  0.00000000000E+00 -0.00000000000E+00 -0.13123104536E+03  0.13123104536E+03  0.00000000000E+00 0. -1.
         23    2    1    2    0    0  0.00000000000E+00  0.00000000000E+00 -0.11551410330E+03  0.14694798742E+03  0.90830627784E+02 0.  0.
        -13    1    3    3    0    0  0.28314362672E+02 -0.26730708764E+02 -0.19942965529E+02  0.43748780539E+02  0.00000000000E+00 0.  1.
         13    1    3    3    0    0 -0.28314362672E+02  0.26730708764E+02 -0.95571137774E+02  0.10319920688E+03  0.00000000000E+00 0. -1.
<mgrwt>
<rscale>  0 0.90830628E+02</rscale>
<asrwt>0</asrwt>
<pdfrwt beam="2">  1        4 0.20189392E-01 0.90830628E+02</pdfrwt>
<pdfrwt beam="1">  1       -4 0.24179910E-02 0.90830628E+02</pdfrwt>
<totfact> 0.24072344E+04</totfact>
</mgrwt>
</event>
<event>
 5    1  0.6308903E+000  0.8734741E+02  0.7546771E-02  0.1309406E+00
          1   -1    0    0  501    0  0.00000000000E+00  0.00000000000E+00  0.99957140671E+02  0.99957140671E+02  0.00000000000E+00 0. -1.
         -1   -1    0    0    0  501 -0.00000000000E+00 -0.00000000000E+00 -0.19082102347E+02  0.19082102347E+02  0.00000000000E+00 0.  1.
         23    2    1    2    0    0  0.00000000000E+00  0.00000000000E+00  0.80875038324E+02  0.11903924302E+03  0.87347407256E+02 0.  0.
        -13    1    3    3    0    0 -0.75607062950E+01 -0.24048850531E+02 -0.81655125891E+01  0.26498812943E+02  0.00000000000E+00 0.  1.
         13    1    3    3    0    0  0.75607062950E+01  0.24048850531E+02  0.89040550913E+02  0.92540430075E+02  0.00000000000E+00 0. -1.
<mgrwt>
<rscale>  0 0.87347407E+02</rscale>
<asrwt>0</asrwt>
<pdfrwt beam="1">  1        1 0.15378021E-01 0.87347407E+02</pdfrwt>
<pdfrwt beam="2">  1       -1 0.29357081E-02 0.87347407E+02</pdfrwt>
<totfact> 0.11735546E+05</totfact>
</mgrwt>
</event>
<event>
 5    1  0.6308903E+000  0.9068342E+02  0.7546771E-02  0.1301205E+00
         -1   -1    0    0    0  501 -0.00000000000E+00  0.00000000000E+00  0.77426752331E+01  0.77426752331E+01  0.00000000000E+00 0.  1.
          1   -1    0    0  501    0  0.00000000000E+00 -0.00000000000E+00 -0.26552459314E+03  0.26552459314E+03  0.00000000000E+00 0. -1.
         23    2    1    2    0    0  0.00000000000E+00  0.00000000000E+00 -0.25778191791E+03  0.27326726838E+03  0.90683420560E+02 0.  0.
        -13    1    3    3    0    0  0.55995114078E+01 -0.38540528439E+02 -0.58920931825E+02  0.70628627818E+02  0.00000000000E+00 0. -1.
         13    1    3    3    0    0 -0.55995114078E+01  0.38540528439E+02 -0.19886098608E+03  0.20263864056E+03  0.00000000000E+00 0.  1.
<mgrwt>
<rscale>  0 0.90683421E+02</rscale>
<asrwt>0</asrwt>
<pdfrwt beam="2">  1        1 0.40849940E-01 0.90683421E+02</pdfrwt>
<pdfrwt beam="1">  1       -1 0.11911807E-02 0.90683421E+02</pdfrwt>
<totfact> 0.12695788E+05</totfact>
</mgrwt>
</event>
<event>
 5    1  0.6308903E+000  0.9182851E+02  0.7546771E-02  0.1298483E+00
          2   -1    0    0  501    0  0.00000000000E+00  0.00000000000E+00  0.28769603639E+02  0.28769603639E+02  0.00000000000E+00 0. -1.
         -2   -1    0    0    0  501 -0.00000000000E+00 -0.00000000000E+00 -0.73275901953E+02  0.73275901953E+02  0.00000000000E+00 0.  1.
         23    2    1    2    0    0  0.00000000000E+00  0.00000000000E+00 -0.44506298315E+02  0.10204550559E+03  0.91828506586E+02 0.  0.
        -13    1    3    3    0    0 -0.46109923791E+01  0.36858048463E+02  0.77373668814E+01  0.37942638726E+02  0.00000000000E+00 0. -1.
         13    1    3    3    0    0  0.46109923791E+01 -0.36858048463E+02 -0.52243665196E+02  0.64102866865E+02  0.00000000000E+00 0.  1.
<mgrwt>
<rscale>  0 0.91828507E+02</rscale>
<asrwt>0</asrwt>
<pdfrwt beam="1">  1        2 0.44260928E-02 0.91828507E+02</pdfrwt>
<pdfrwt beam="2">  1       -2 0.11273216E-01 0.91828507E+02</pdfrwt>
<totfact> 0.85638353E+04</totfact>
</mgrwt>
</event>
<event>
 5    1  0.6308903E+000  0.8992643E+02  0.7546771E-02  0.1303030E+00
          4   -1    0    0  501    0  0.00000000000E+00  0.00000000000E+00  0.37885941220E+03  0.37885941220E+03  0.00000000000E+00 0. -1.
         -4   -1    0    0    0  501 -0.00000000000E+00 -0.00000000000E+00 -0.53362558919E+01  0.53362558919E+01  0.00000000000E+00 0.  1.
         23    2    1    2    0    0  0.00000000000E+00  0.00000000000E+00  0.37352315631E+03  0.38419566809E+03  0.89926431500E+02 0.  0.
        -13    1    3    3    0    0 -0.98184636316E+01  0.43193386446E+02  0.21974994089E+03  0.22416981818E+03  0.00000000000E+00 0. -1.
         13    1    3    3    0    0  0.98184636316E+01 -0.43193386446E+02  0.15377321542E+03  0.16002584992E+03  0.00000000000E+00 0.  1.
<mgrwt>
<rscale>  0 0.89926432E+02</rscale>
<asrwt>0</asrwt>
<pdfrwt beam="1">  1        4 0.58286042E-01 0.89926432E+02</pdfrwt>
<pdfrwt beam="2">  1       -4 0.82096274E-03 0.89926432E+02</pdfrwt>
<totfact> 0.16103677E+04</totfact>
</mgrwt>
</event>
<event>
 5    1  0.6308903E+000  0.9113807E+02  0.7546771E-02  0.1300119E+00
          1   -1    0    0  501    0  0.00000000000E+00  0.00000000000E+00  0.41145981718E+02  0.41145981718E+02  0.00000000000E+00 0. -1.
         -1   -1    0    0    0  501 -0.00000000000E+00 -0.00000000000E+00 -0.50467552740E+02  0.50467552740E+02  0.00000000000E+00 0.  1.
         23    2    1    2    0    0  0.00000000000E+00  0.00000000000E+00 -0.93215710215E+01  0.91613534458E+02  0.91138071132E+02 0.  0.
        -13    1    3    3    0    0 -0.26575272155E+02 -0.36729774887E+02 -0.30722052830E-01  0.45335663635E+02  0.00000000000E+00 0.  1.
         13    1    3    3    0    0  0.26575272155E+02  0.36729774887E+02 -0.92908489687E+01  0.46277870823E+02  0.00000000000E+00 0. -1.
<mgrwt>
<rscale>  0 0.91138071E+02</rscale>
<asrwt>0</asrwt>
<pdfrwt beam="1">  1        1 0.63301511E-02 0.91138071E+02</pdfrwt>
<pdfrwt beam="2">  1       -1 0.77642388E-02 0.91138071E+02</pdfrwt>
<totfact> 0.91162512E+04</totfact>
</mgrwt>
</event>
<event>
 4    1  0.6308903E+000  0.4122137E+02  0.7546771E-02  0.1499411E+00
          1   -1    0    0  501    0  0.00000000000E+00  0.00000000000E+00  0.74112754721E+01  0.74112754721E+01  0.00000000000E+00 0. -1.
         -1   -1    0    0    0  501 -0.00000000000E+00 -0.00000000000E+00 -0.57318122855E+02  0.57318122855E+02  0.00000000000E+00 0.  1.
        -13    1    1    2    0    0 -0.30228665378E+01 -0.13832143877E+02 -0.48472871637E+02  0.50498368400E+02  0.00000000000E+00 0.  1.
         13    1    1    2    0    0  0.30228665378E+01  0.13832143877E+02 -0.14339757457E+01  0.14231029927E+02  0.00000000000E+00 0. -1.
<mgrwt>
<rscale>  0 0.41221373E+02</rscale>
<asrwt>0</asrwt>
<pdfrwt beam="1">  1        1 0.11401962E-02 0.41221373E+02</pdfrwt>
<pdfrwt beam="2">  1       -1 0.88181730E-02 0.41221373E+02</pdfrwt>
<totfact> 0.64456582E+05</totfact>
</mgrwt>
</event>
<event>
 5    1  0.6308903E+000  0.8279772E+02  0.7546771E-02  0.1321294E+00
          4   -1    0    0  501    0  0.00000000000E+00  0.00000000000E+00  0.13775241210E+02  0.13775241210E+02  0.00000000000E+00 0. -1.
         -4   -1    0    0    0  501 -0.00000000000E+00 -0.00000000000E+00 -0.12441638832E+03  0.12441638832E+03  0.00000000000E+00 0.  1.
         23    2    1    2    0    0  0.00000000000E+00  0.00000000000E+00 -0.11064114711E+03  0.13819162953E+03  0.82797723631E+02 0.  0.
        -13    1    3    3    0    0 -0.39437000028E+02  0.25062040561E+01 -0.34722608676E+02  0.52604349471E+02  0.00000000000E+00 0. -1.
         13    1    3    3    0    0  0.39437000028E+02 -0.25062040561E+01 -0.75918538435E+02  0.85587280060E+02  0.00000000000E+00 0.  1.
<mgrwt>
<rscale>  0 0.82797724E+02</rscale>
<asrwt>0</asrwt>
<pdfrwt beam="1">  1        4 0.21192680E-02 0.82797724E+02</pdfrwt>
<pdfrwt beam="2">  1       -4 0.19140982E-01 0.82797724E+02</pdfrwt>
<totfact> 0.31416357E+04</totfact>
</mgrwt>
</event>
<event>
 5    1  0.6308903E+000  0.9149086E+02  0.7546771E-02  0.1299281E+00
         -2   -1    0    0    0  501 -0.00000000000E+00  0.00000000000E+00  0.38898457313E+02  0.38898457313E+02  0.00000000000E+00 0.  1.
          2   -1    0    0  501    0  0.00000000000E+00 -0.00000000000E+00 -0.53797624350E+02  0.53797624350E+02  0.00000000000E+00 0. -1.
         23    2    1    2    0    0  0.00000000000E+00  0.00000000000E+00 -0.14899167037E+02  0.92696081662E+02  0.91490864993E+02 0.  0.
        -13    1    3    3    0    0 -0.38103286593E+01  0.45296278251E+02 -0.22464522749E+01  0.45511734483E+02  0.00000000000E+00 0.  1.
         13    1    3    3    0    0  0.38103286593E+01 -0.45296278251E+02 -0.12652714762E+02  0.47184347179E+02  0.00000000000E+00 0. -1.
<mgrwt>
<rscale>  0 0.91490865E+02</rscale>
<asrwt>0</asrwt>
<pdfrwt beam="2">  1        2 0.82765575E-02 0.91490865E+02</pdfrwt>
<pdfrwt beam="1">  1       -2 0.59843781E-02 0.91490865E+02</pdfrwt>
<totfact> 0.10203578E+05</totfact>
</mgrwt>
</event>
<event>
 5    1  0.6308903E+000  0.9029985E+02  0.7546771E-02  0.1302127E+00
          3   -1    0    0  501    0  0.00000000000E+00  0.00000000000E+00  0.53697796637E+01  0.53697796637E+01  0.00000000000E+00 0. -1.
         -3   -1    0    0    0  501 -0.00000000000E+00 -0.00000000000E+00 -0.37962744194E+03  0.37962744194E+03  0.00000000000E+00 0.  1.
         23    2    1    2    0    0  0.00000000000E+00  0.00000000000E+00 -0.37425766228E+03  0.38499722160E+03  0.90299849779E+02 0.  0.
        -13    1    3    3    0    0 -0.87262858955E+01  0.43988964279E+02 -0.16483630483E+03  0.17082793810E+03  0.00000000000E+00 0.  1.
         13    1    3    3    0    0  0.87262858955E+01 -0.43988964279E+02 -0.20942135744E+03  0.21416928351E+03  0.00000000000E+00 0. -1.
<mgrwt>
<rscale>  0 0.90299850E+02</rscale>
<asrwt>0</asrwt>
<pdfrwt beam="1">  1        3 0.82611981E-03 0.90299850E+02</pdfrwt>
<pdfrwt beam="2">  1       -3 0.58404231E-01 0.90299850E+02</pdfrwt>
<totfact> 0.21613076E+04</totfact>
</mgrwt>
</event>
<event>
 5    1  0.6308903E+000  0.9760480E+02  0.7546771E-02  0.1285415E+00
          2   -1    0    0  501    0  0.00000000000E+00  0.00000000000E+00  0.63234271958E+01  0.63234271958E+01  0.00000000000E+00 0. -1.
         -2   -1    0    0    0  501 -0.00000000000E+00 -0.00000000000E+00 -0.37664293767E+03  0.37664293767E+03  0.00000000000E+00 0.  1.
         23    2    1    2    0    0  0.00000000000E+00  0.00000000000E+00 -0.37031951047E+03  0.38296636487E+03  0.97604798963E+02 0.  0.
        -13    1    3    3    0    0 -0.30206045500E+02 -0.32862428288E+02 -0.26257888660E+03  0.26634567026E+03  0.00000000000E+00 0.  1.
         13    1    3    3    0    0  0.30206045500E+02  0.32862428288E+02 -0.10774062387E+03  0.11662069461E+03  0.00000000000E+00 0. -1.
<mgrwt>
<rscale>  0 0.97604799E+02</rscale>
<asrwt>0</asrwt>
<pdfrwt beam="1">  1        2 0.97283508E-03 0.97604799E+02</pdfrwt>
<pdfrwt beam="2">  1       -2 0.57945060E-01 0.97604799E+02</pdfrwt>
<totfact> 0.37246582E+04</totfact>
</mgrwt>
</event>
<event>
 5    1  0.6308903E+000  0.9029105E+02  0.7546771E-02  0.1302148E+00
         -3   -1    0    0    0  501 -0.00000000000E+00  0.00000000000E+00  0.28935378771E+03  0.28935378771E+03  0.00000000000E+00 0.  1.
          3   -1    0    0  501    0  0.00000000000E+00 -0.00000000000E+00 -0.70436903546E+01  0.70436903546E+01  0.00000000000E+00 0. -1.
         23    2    1    2    0    0  0.00000000000E+00  0.00000000000E+00  0.28231009736E+03  0.29639747807E+03  0.90291051242E+02 0.  0.
        -13    1    3    3    0    0  0.34706213063E+02 -0.14963224957E+02  0.22221150107E+03  0.22540268529E+03  0.00000000000E+00 0.  1.
         13    1    3    3    0    0 -0.34706213063E+02  0.14963224957E+02  0.60098596289E+02  0.70994792783E+02  0.00000000000E+00 0. -1.
<mgrwt>
<rscale>  0 0.90291051E+02</rscale>
<asrwt>0</asrwt>
<pdfrwt beam="2">  1        3 0.10836449E-02 0.90291051E+02</pdfrwt>
<pdfrwt beam="1">  1       -3 0.44515958E-01 0.90291051E+02</pdfrwt>
<totfact> 0.24804393E+04</totfact>
</mgrwt>
</event>
<event>
 5    1  0.6308903E+000  0.8937788E+02  0.7546771E-02  0.1304365E+00
          1   -1    0    0  501    0  0.00000000000E+00  0.00000000000E+00  0.62616868492E+02  0.62616868492E+02  0.00000000000E+00 0. -1.
         -1   -1    0    0    0  501 -0.00000000000E+00 -0.00000000000E+00 -0.31893984753E+02  0.31893984753E+02  0.00000000000E+00 0.  1.
         23    2    1    2    0    0  0.00000000000E+00  0.00000000000E+00  0.30722883740E+02  0.94510853245E+02  0.89377882028E+02 0.  0.
        -13    1    3    3    0    0 -0.22278875593E+02 -0.21323442766E+02  0.49561806834E+02  0.58373026354E+02  0.00000000000E+00 0. -1.
         13    1    3    3    0    0  0.22278875593E+02  0.21323442766E+02 -0.18838923094E+02  0.36137826891E+02  0.00000000000E+00 0.  1.
<mgrwt>
<rscale>  0 0.89377882E+02</rscale>
<asrwt>0</asrwt>
<pdfrwt beam="1">  1        1 0.96333643E-02 0.89377882E+02</pdfrwt>
<pdfrwt beam="2">  1       -1 0.49067669E-02 0.89377882E+02</pdfrwt>
<totfact> 0.10248750E+05</totfact>
</mgrwt>
</event>
<event>
 5    1  0.6308903E+000  0.9723537E+02  0.7546771E-02  0.1286219E+00
          2   -1    0    0  501    0  0.00000000000E+00  0.00000000000E+00  0.54984568055E+02  0.54984568055E+02  0.00000000000E+00 0. -1.
         -2   -1    0    0    0  501 -0.00000000000E+00 -0.00000000000E+00 -0.42988052815E+02  0.42988052815E+02  0.00000000000E+00 0.  1.
         23    2    1    2    0    0  0.00000000000E+00  0.00000000000E+00  0.11996515240E+02  0.97972620870E+02  0.97235374541E+02 0.  0.
        -13    1    3    3    0    0 -0.11564419382E+02 -0.44996990757E+02 -0.84356692893E+01  0.47218910292E+02  0.00000000000E+00 0.  1.
         13    1    3    3    0    0  0.11564419382E+02  0.44996990757E+02  0.20432184529E+02  0.50753710578E+02  0.00000000000E+00 0. -1.
<mgrwt>
<rscale>  0 0.97235375E+02</rscale>
<asrwt>0</asrwt>
<pdfrwt beam="1">  1        2 0.84591643E-02 0.97235375E+02</pdfrwt>
<pdfrwt beam="2">  1       -2 0.66135466E-02 0.97235375E+02</pdfrwt>
<totfact> 0.86244372E+04</totfact>
</mgrwt>
</event>
<event>
 5    1  0.6308903E+000  0.9223711E+02  0.7546771E-02  0.1297523E+00
          1   -1    0    0  501    0  0.00000000000E+00  0.00000000000E+00  0.88556164530E+01  0.88556164530E+01  0.00000000000E+00 0.  1.
         -1   -1    0    0    0  501 -0.00000000000E+00 -0.00000000000E+00 -0.24017763427E+03  0.24017763427E+03  0.00000000000E+00 0. -1.
         23    2    1    2    0    0  0.00000000000E+00  0.00000000000E+00 -0.23132201781E+03  0.24903325072E+03  0.92237107710E+02 0.  0.
        -13    1    3    3    0    0 -0.39059014309E+02  0.16162103734E+02 -0.16545254181E+03  0.17076698682E+03  0.00000000000E+00 0. -1.
         13    1    3    3    0    0  0.39059014309E+02 -0.16162103734E+02 -0.65869476001E+02  0.78266263898E+02  0.00000000000E+00 0.  1.
<mgrwt>
<rscale>  0 0.92237108E+02</rscale>
<asrwt>0</asrwt>
<pdfrwt beam="1">  1        1 0.13624027E-02 0.92237108E+02</pdfrwt>
<pdfrwt beam="2">  1       -1 0.36950402E-01 0.92237108E+02</pdfrwt>
<totfact> 0.63683382E+04</totfact>
</mgrwt>
</event>
<event>
 5    1  0.6308903E+000  0.8742228E+02  0.7546771E-02  0.1309217E+00
          1   -1    0    0  501    0  0.00000000000E+00  0.00000000000E+00  0.69034000164E+01  0.69034000164E+01  0.00000000000E+00 0. -1.
         -1   -1    0    0    0  501 -0.00000000000E+00 -0.00000000000E+00 -0.27677142802E+03  0.27677142802E+03  0.00000000000E+00 0.  1.
         23    2    1    2    0    0  0.00000000000E+00  0.00000000000E+00 -0.26986802800E+03  0.28367482804E+03  0.87422282760E+02 0.  0.
        -13    1    3    3    0    0  0.22522505844E+02 -0.29734095054E+02 -0.20887771998E+03  0.21218218960E+03  0.00000000000E+00 0.  1.
         13    1    3    3    0    0 -0.22522505844E+02  0.29734095054E+02 -0.60990308023E+02  0.71492638439E+02  0.00000000000E+00 0. -1.
<mgrwt>
<rscale>  0 0.87422283E+02</rscale>
<asrwt>0</asrwt>
<pdfrwt beam="1">  1        1 0.10620615E-02 0.87422283E+02</pdfrwt>
<pdfrwt beam="2">  1       -1 0.42580221E-01 0.87422283E+02</pdfrwt>
<totfact> 0.69717936E+04</totfact>
</mgrwt>
</event>
<event>
 5    1  0.6308903E+000  0.9556699E+02  0.7546771E-02  0.1289904E+00
          2   -1    0    0  501    0  0.00000000000E+00  0.00000000000E+00  0.25607882321E+03  0.25607882321E+03  0.00000000000E+00 0. -1.
         -2   -1    0    0    0  501 -0.00000000000E+00 -0.00000000000E+00 -0.89162479633E+01  0.89162479633E+01  0.00000000000E+00 0.  1.
         23    2    1    2    0    0  0.00000000000E+00  0.00000000000E+00  0.24716257525E+03  0.26499507118E+03  0.95566987730E+02 0.  0.
        -13    1    3    3    0    0  0.20952757694E+02  0.38138183971E+02  0.68840882969E+02  0.81440814703E+02  0.00000000000E+00 0.  1.
         13    1    3    3    0    0 -0.20952757694E+02 -0.38138183971E+02  0.17832169228E+03  0.18355425648E+03  0.00000000000E+00 0. -1.
<mgrwt>
<rscale>  0 0.95566988E+02</rscale>
<asrwt>0</asrwt>
<pdfrwt beam="1">  1        2 0.39396737E-01 0.95566988E+02</pdfrwt>
<pdfrwt beam="2">  1       -2 0.13717306E-02 0.95566988E+02</pdfrwt>
<totfact> 0.14926756E+05</totfact>
</mgrwt>
</event>
<event>
 5    1  0.6308903E+000  0.9111912E+02  0.7546771E-02  0.1300164E+00
         -2   -1    0    0    0  501 -0.00000000000E+00  0.00000000000E+00  0.44785930554E+02  0.44785930554E+02  0.00000000000E+00 0.  1.
          2   -1    0    0  501    0  0.00000000000E+00 -0.00000000000E+00 -0.46346551790E+02  0.46346551790E+02  0.00000000000E+00 0. -1.
         23    2    1    2    0    0  0.00000000000E+00  0.00000000000E+00 -0.15606212357E+01  0.91132482345E+02  0.91119118738E+02 0.  0.
        -13    1    3    3    0    0 -0.22175656088E+02 -0.14527458117E+01 -0.40558033878E+02  0.46247424852E+02  0.00000000000E+00 0. -1.
         13    1    3    3    0    0  0.22175656088E+02  0.14527458117E+01  0.38997412642E+02  0.44885057493E+02  0.00000000000E+00 0.  1.
<mgrwt>
<rscale>  0 0.91119119E+02</rscale>
<asrwt>0</asrwt>
<pdfrwt beam="2">  1        2 0.71302388E-02 0.91119119E+02</pdfrwt>
<pdfrwt beam="1">  1       -2 0.68901431E-02 0.91119119E+02</pdfrwt>
<totfact> 0.99278380E+04</totfact>
</mgrwt>
</event>
<event>
 5    1  0.6308903E+000  0.9508390E+02  0.7546771E-02  0.1290987E+00
         -1   -1    0    0    0  501 -0.00000000000E+00  0.00000000000E+00  0.27308936123E+02  0.27308936123E+02  0.00000000000E+00 0.  1.
          1   -1    0    0  501    0  0.00000000000E+00 -0.00000000000E+00 -0.82765474410E+02  0.82765474410E+02  0.00000000000E+00 0. -1.
         23    2    1    2    0    0  0.00000000000E+00  0.00000000000E+00 -0.55456538287E+02  0.11007441053E+03  0.95083900927E+02 0.  0.
        -13    1    3    3    0    0 -0.32577292847E+02 -0.27692320318E+01  0.12228267169E+02  0.34906721033E+02  0.00000000000E+00 0.  1.
         13    1    3    3    0    0  0.32577292847E+02  0.27692320318E+01 -0.67684805456E+02  0.75167689501E+02  0.00000000000E+00 0. -1.
<mgrwt>
<rscale>  0 0.95083901E+02</rscale>
<asrwt>0</asrwt>
<pdfrwt beam="2">  1        1 0.12733150E-01 0.95083901E+02</pdfrwt>
<pdfrwt beam="1">  1       -1 0.42013747E-02 0.95083901E+02</pdfrwt>
<totfact> 0.90242244E+04</totfact>
</mgrwt>
</event>
<event>
 5    1  0.6308903E+000  0.9741565E+02  0.7546771E-02  0.1285826E+00
         -1   -1    0    0    0  501 -0.00000000000E+00  0.00000000000E+00  0.95881080481E+01  0.95881080481E+01  0.00000000000E+00 0.  1.
          1   -1    0    0  501    0  0.00000000000E+00 -0.00000000000E+00 -0.24743693106E+03  0.24743693106E+03  0.00000000000E+00 0. -1.
         23    2    1    2    0    0  0.00000000000E+00  0.00000000000E+00 -0.23784882301E+03  0.25702503911E+03  0.97415646178E+02 0.  0.
        -13    1    3    3    0    0  0.32761407879E+02  0.35593358663E+02 -0.10393980781E+03  0.11464589254E+03  0.00000000000E+00 0.  1.
         13    1    3    3    0    0 -0.32761407879E+02 -0.35593358663E+02 -0.13390901520E+03  0.14237914657E+03  0.00000000000E+00 0. -1.
<mgrwt>
<rscale>  0 0.97415646E+02</rscale>
<asrwt>0</asrwt>
<pdfrwt beam="2">  1        1 0.38067217E-01 0.97415646E+02</pdfrwt>
<pdfrwt beam="1">  1       -1 0.14750937E-02 0.97415646E+02</pdfrwt>
<totfact> 0.10334087E+05</totfact>
</mgrwt>
</event>
<event>
 5    1  0.6308903E+000  0.9196389E+02  0.7546771E-02  0.1298164E+00
         -1   -1    0    0    0  501 -0.00000000000E+00  0.00000000000E+00  0.10075961919E+03  0.10075961919E+03  0.00000000000E+00 0.  1.
          1   -1    0    0  501    0  0.00000000000E+00 -0.00000000000E+00 -0.20983995921E+02  0.20983995921E+02  0.00000000000E+00 0. -1.
         23    2    1    2    0    0  0.00000000000E+00  0.00000000000E+00  0.79775623265E+02  0.12174361511E+03  0.91963893741E+02 0.  0.
        -13    1    3    3    0    0  0.10273210706E+02  0.32169079912E+02 -0.14262001798E+01  0.33799742715E+02  0.00000000000E+00 0. -1.
         13    1    3    3    0    0 -0.10273210706E+02 -0.32169079912E+02  0.81201823445E+02  0.87943872393E+02  0.00000000000E+00 0.  1.
<mgrwt>
<rscale>  0 0.91963894E+02</rscale>
<asrwt>0</asrwt>
<pdfrwt beam="2">  1        1 0.32283071E-02 0.91963894E+02</pdfrwt>
<pdfrwt beam="1">  1       -1 0.15501480E-01 0.91963894E+02</pdfrwt>
<totfact> 0.79474835E+04</totfact>
</mgrwt>
</event>
<event>
 5    1  0.6308903E+000  0.8581732E+02  0.7546771E-02  0.1313309E+00
          3   -1    0    0  501    0  0.00000000000E+00  0.00000000000E+00  0.22879048981E+03  0.22879048981E+03  0.00000000000E+00 0. -1.
         -3   -1    0    0    0  501 -0.00000000000E+00 -0.00000000000E+00 -0.80473330404E+01  0.80473330404E+01  0.00000000000E+00 0.  1.
         23    2    1    2    0    0  0.00000000000E+00  0.00000000000E+00  0.22074315677E+03  0.23683782285E+03  0.85817323844E+02 0.  0.
        -13    1    3    3    0    0  0.21096728574E+02 -0.34624912926E+02  0.71616739803E+02  0.82297715470E+02  0.00000000000E+00 0.  1.
         13    1    3    3    0    0 -0.21096728574E+02  0.34624912926E+02  0.14912641696E+03  0.15454010738E+03  0.00000000000E+00 0. -1.
<mgrwt>
<rscale>  0 0.85817324E+02</rscale>
<asrwt>0</asrwt>
<pdfrwt beam="1">  1        3 0.35198532E-01 0.85817324E+02</pdfrwt>
<pdfrwt beam="2">  1       -3 0.12380514E-02 0.85817324E+02</pdfrwt>
<totfact> 0.31404370E+04</totfact>
</mgrwt>
</event>
<event>
 5    1  0.6308903E+000  0.8955736E+02  0.7546771E-02  0.1303927E+00
         -2   -1    0    0    0  501 -0.00000000000E+00  0.00000000000E+00  0.12486403142E+02  0.12486403142E+02  0.00000000000E+00 0.  1.
          2   -1    0    0  501    0  0.00000000000E+00 -0.00000000000E+00 -0.16058510816E+03  0.16058510816E+03  0.00000000000E+00 0. -1.
         23    2    1    2    0    0  0.00000000000E+00  0.00000000000E+00 -0.14809870501E+03  0.17307151130E+03  0.89557364834E+02 0.  0.
        -13    1    3    3    0    0  0.38213739695E+02 -0.15282328289E+02 -0.10814567342E+03  0.11571225578E+03  0.00000000000E+00 0. -1.
         13    1    3    3    0    0 -0.38213739695E+02  0.15282328289E+02 -0.39953031595E+02  0.57359255514E+02  0.00000000000E+00 0.  1.
<mgrwt>
<rscale>  0 0.89557365E+02</rscale>
<asrwt>0</asrwt>
<pdfrwt beam="2">  1        2 0.24705401E-01 0.89557365E+02</pdfrwt>
<pdfrwt beam="1">  1       -2 0.19209851E-02 0.89557365E+02</pdfrwt>
<totfact> 0.15022123E+05</totfact>
</mgrwt>
</event>
<event>
 5    1  0.6308903E+000  0.1008900E+03  0.7546771E-02  0.1278435E+00
         -3   -1    0    0    0  501 -0.00000000000E+00  0.00000000000E+00  0.13659208339E+03  0.13659208339E+03  0.00000000000E+00 0.  1.
          3   -1    0    0  501    0  0.00000000000E+00 -0.00000000000E+00 -0.18629924595E+02  0.18629924595E+02  0.00000000000E+00 0. -1.
         23    2    1    2    0    0  0.00000000000E+00  0.00000000000E+00  0.11796215879E+03  0.15522200798E+03  0.10089004339E+03 0.  0.
        -13    1    3    3    0    0 -0.18150838248E+02  0.12876061794E+02  0.12863155873E+03  0.13054242145E+03  0.00000000000E+00 0.  1.
         13    1    3    3    0    0  0.18150838248E+02 -0.12876061794E+02 -0.10669399937E+02  0.24679586533E+02  0.00000000000E+00 0. -1.
<mgrwt>
<rscale>  0 0.10089004E+03</rscale>
<asrwt>0</asrwt>
<pdfrwt beam="2">  1        3 0.28661423E-02 0.10089004E+03</pdfrwt>
<pdfrwt beam="1">  1       -3 0.21014166E-01 0.10089004E+03</pdfrwt>
<totfact> 0.23517930E+04</totfact>
</mgrwt>
</event>
<event>
 5    1  0.6308903E+000  0.9481460E+02  0.7546771E-02  0.1291594E+00
          1   -1    0    0  501    0  0.00000000000E+00  0.00000000000E+00  0.11141135789E+03  0.11141135789E+03  0.00000000000E+00 0. -1.
         -1   -1    0    0    0  501 -0.00000000000E+00 -0.00000000000E+00 -0.20172559339E+02  0.20172559339E+02  0.00000000000E+00 0.  1.
         23    2    1    2    0    0  0.00000000000E+00  0.00000000000E+00  0.91238798550E+02  0.13158391723E+03  0.94814602844E+02 0.  0.
        -13    1    3    3    0    0 -0.23172523128E+02  0.16841230954E+02 -0.68031530786E+01  0.29442754286E+02  0.00000000000E+00 0.  1.
         13    1    3    3    0    0  0.23172523128E+02 -0.16841230954E+02  0.98041951629E+02  0.10214116294E+03  0.00000000000E+00 0. -1.
<mgrwt>
<rscale>  0 0.94814603E+02</rscale>
<asrwt>0</asrwt>
<pdfrwt beam="1">  1        1 0.17140209E-01 0.94814603E+02</pdfrwt>
<pdfrwt beam="2">  1       -1 0.31034707E-02 0.94814603E+02</pdfrwt>
<totfact> 0.95607355E+04</totfact>
</mgrwt>
</event>
<event>
 5    1  0.6308903E+000  0.8948455E+02  0.7546771E-02  0.1304105E+00
          1   -1    0    0  501    0  0.00000000000E+00  0.00000000000E+00  0.77998492404E+01  0.77998492404E+01  0.00000000000E+00 0. -1.
         -1   -1    0    0    0  501 -0.00000000000E+00 -0.00000000000E+00 -0.25665512241E+03  0.25665512241E+03  0.00000000000E+00 0.  1.
         23    2    1    2    0    0  0.00000000000E+00  0.00000000000E+00 -0.24885527317E+03  0.26445497165E+03  0.89484551998E+02 0.  0.
        -13    1    3    3    0    0 -0.28204821259E+02 -0.32774501112E+02 -0.90449053660E+02  0.10025323523E+03  0.00000000000E+00 0. -1.
         13    1    3    3    0    0  0.28204821259E+02  0.32774501112E+02 -0.15840621951E+03  0.16420173642E+03  0.00000000000E+00 0.  1.
<mgrwt>
<rscale>  0 0.89484552E+02</rscale>
<asrwt>0</asrwt>
<pdfrwt beam="1">  1        1 0.11999768E-02 0.89484552E+02</pdfrwt>
<pdfrwt beam="2">  1       -1 0.39485403E-01 0.89484552E+02</pdfrwt>
<totfact> 0.67399753E+04</totfact>
</mgrwt>
</event>
<event>
 5    1  0.6308903E+000  0.9045405E+02  0.7546771E-02  0.1301756E+00
          2   -1    0    0  501    0  0.00000000000E+00  0.00000000000E+00  0.19822756342E+02  0.19822756342E+02  0.00000000000E+00 0. -1.
         -2   -1    0    0    0  501 -0.00000000000E+00 -0.00000000000E+00 -0.10318865658E+03  0.10318865658E+03  0.00000000000E+00 0.  1.
         23    2    1    2    0    0  0.00000000000E+00  0.00000000000E+00 -0.83365900235E+02  0.12301141292E+03  0.90454045716E+02 0.  0.
        -13    1    3    3    0    0 -0.38647401623E+02  0.16465482829E+02 -0.64469425500E+02  0.76948298235E+02  0.00000000000E+00 0.  1.
         13    1    3    3    0    0  0.38647401623E+02 -0.16465482829E+02 -0.18896474735E+02  0.46063114684E+02  0.00000000000E+00 0. -1.
<mgrwt>
<rscale>  0 0.90454046E+02</rscale>
<asrwt>0</asrwt>
<pdfrwt beam="1">  1        2 0.30496549E-02 0.90454046E+02</pdfrwt>
<pdfrwt beam="2">  1       -2 0.15875178E-01 0.90454046E+02</pdfrwt>
<totfact> 0.80640558E+04</totfact>
</mgrwt>
</event>
<event>
 5    1  0.6308903E+000  0.1024033E+03  0.7546771E-02  0.1275322E+00
          3   -1    0    0  501    0  0.00000000000E+00  0.00000000000E+00  0.57228654376E+01  0.57228654376E+01  0.00000000000E+00 0. -1.
         -3   -1    0    0    0  501 -0.00000000000E+00 -0.00000000000E+00 -0.45809400612E+03  0.45809400612E+03  0.00000000000E+00 0.  1.
         23    2    1    2    0    0  0.00000000000E+00  0.00000000000E+00 -0.45237114069E+03  0.46381687156E+03  0.10240332719E+03 0.  0.
        -13    1    3    3    0    0  0.28248254925E+02 -0.42403660309E+02 -0.20327957680E+03  0.20956769946E+03  0.00000000000E+00 0. -1.
         13    1    3    3    0    0 -0.28248254925E+02  0.42403660309E+02 -0.24909156389E+03  0.25424917210E+03  0.00000000000E+00 0.  1.
<mgrwt>
<rscale>  0 0.10240333E+03</rscale>
<asrwt>0</asrwt>
<pdfrwt beam="1">  1        3 0.88044041E-03 0.10240333E+03</pdfrwt>
<pdfrwt beam="2">  1       -3 0.70476035E-01 0.10240333E+03</pdfrwt>
<totfact> 0.13759193E+04</totfact>
</mgrwt>
</event>
<event>
 5    1  0.6308903E+000  0.9327053E+02  0.7546771E-02  0.1295119E+00
         -2   -1    0    0    0  501 -0.00000000000E+00  0.00000000000E+00  0.99837024400E+02  0.99837024400E+02  0.00000000000E+00 0.  1.
          2   -1    0    0  501    0  0.00000000000E+00 -0.00000000000E+00 -0.21783983779E+02  0.21783983779E+02  0.00000000000E+00 0. -1.
         23    2    1    2    0    0  0.00000000000E+00  0.00000000000E+00  0.78053040621E+02  0.12162100818E+03  0.93270533826E+02 0.  0.
        -13    1    3    3    0    0  0.39767552132E+02  0.23783453597E+02  0.32159064766E+02  0.56403158726E+02  0.00000000000E+00 0. -1.
         13    1    3    3    0    0 -0.39767552132E+02 -0.23783453597E+02  0.45893975854E+02  0.65217849453E+02  0.00000000000E+00 0.  1.
<mgrwt>
<rscale>  0 0.93270534E+02</rscale>
<asrwt>0</asrwt>
<pdfrwt beam="2">  1        2 0.33513822E-02 0.93270534E+02</pdfrwt>
<pdfrwt beam="1">  1       -2 0.15359542E-01 0.93270534E+02</pdfrwt>
<totfact> 0.75456658E+04</totfact>
</mgrwt>
</event>
<event>
 5    1  0.6308903E+000  0.9115739E+02  0.7546771E-02  0.1300073E+00
          3   -1    0    0  501    0  0.00000000000E+00  0.00000000000E+00  0.13046069348E+02  0.13046069348E+02  0.00000000000E+00 0. -1.
         -3   -1    0    0    0  501 -0.00000000000E+00 -0.00000000000E+00 -0.15923705452E+03  0.15923705452E+03  0.00000000000E+00 0.  1.
         23    2    1    2    0    0  0.00000000000E+00  0.00000000000E+00 -0.14619098517E+03  0.17228312387E+03  0.91157394786E+02 0.  0.
        -13    1    3    3    0    0  0.28147045220E+02 -0.26937701676E+02 -0.28390161887E+02  0.48206817134E+02  0.00000000000E+00 0. -1.
         13    1    3    3    0    0 -0.28147045220E+02  0.26937701676E+02 -0.11780082328E+03  0.12407630673E+03  0.00000000000E+00 0.  1.
<mgrwt>
<rscale>  0 0.91157395E+02</rscale>
<asrwt>0</asrwt>
<pdfrwt beam="1">  1        3 0.20070875E-02 0.91157395E+02</pdfrwt>
<pdfrwt beam="2">  1       -3 0.24498009E-01 0.91157395E+02</pdfrwt>
<totfact> 0.30014490E+04</totfact>
</mgrwt>
</event>
<event>
 5    1  0.6308903E+000  0.8687142E+02  0.7546771E-02  0.1310610E+00
          1   -1    0    0  501    0  0.00000000000E+00  0.00000000000E+00  0.14703056468E+02  0.14703056468E+02  0.00000000000E+00 0. -1.
         -1   -1    0    0    0  501 -0.00000000000E+00 -0.00000000000E+00 -0.12831759482E+03  0.12831759482E+03  0.00000000000E+00 0.  1.
         23    2    1    2    0    0  0.00000000000E+00  0.00000000000E+00 -0.11361453835E+03  0.14302065129E+03  0.86871418600E+02 0.  0.
        -13    1    3    3    0    0 -0.40703402771E+02  0.14941037701E+02 -0.61055754234E+02  0.74885290477E+02  0.00000000000E+00 0.  1.
         13    1    3    3    0    0  0.40703402771E+02 -0.14941037701E+02 -0.52558784117E+02  0.68135360809E+02  0.00000000000E+00 0. -1.
<mgrwt>
<rscale>  0 0.86871419E+02</rscale>
<asrwt>0</asrwt>
<pdfrwt beam="1">  1        1 0.22620087E-02 0.86871419E+02</pdfrwt>
<pdfrwt beam="2">  1       -1 0.19741168E-01 0.86871419E+02</pdfrwt>
<totfact> 0.87749001E+04</totfact>
</mgrwt>
</event>
<event>
 5    1  0.6308903E+000  0.9214209E+02  0.7546771E-02  0.1297746E+00
          3   -1    0    0  501    0  0.00000000000E+00  0.00000000000E+00  0.25128066020E+02  0.25128066020E+02  0.00000000000E+00 0. -1.
         -3   -1    0    0    0  501 -0.00000000000E+00 -0.00000000000E+00 -0.84468935338E+02  0.84468935338E+02  0.00000000000E+00 0.  1.
         23    2    1    2    0    0  0.00000000000E+00  0.00000000000E+00 -0.59340869318E+02  0.10959700136E+03  0.92142085581E+02 0.  0.
        -13    1    3    3    0    0 -0.21848977326E+02 -0.14590177726E+02 -0.74685314639E+02  0.79171632034E+02  0.00000000000E+00 0.  1.
         13    1    3    3    0    0  0.21848977326E+02  0.14590177726E+02  0.15344445321E+02  0.30425369324E+02  0.00000000000E+00 0. -1.
<mgrwt>
<rscale>  0 0.92142086E+02</rscale>
<asrwt>0</asrwt>
<pdfrwt beam="1">  1        3 0.38658563E-02 0.92142086E+02</pdfrwt>
<pdfrwt beam="2">  1       -3 0.12995221E-01 0.92142086E+02</pdfrwt>
<totfact> 0.33014219E+04</totfact>
</mgrwt>
</event>
<event>
 5    1  0.6308903E+000  0.9135507E+02  0.7546771E-02  0.1299603E+00
          1   -1    0    0  501    0  0.00000000000E+00  0.00000000000E+00  0.13835370964E+03  0.13835370964E+03  0.00000000000E+00 0. -1.
         -1   -1    0    0    0  501 -0.00000000000E+00 -0.00000000000E+00 -0.15080457696E+02  0.15080457696E+02  0.00000000000E+00 0.  1.
         23    2    1    2    0    0  0.00000000000E+00  0.00000000000E+00  0.12327325194E+03  0.15343416733E+03  0.91355071349E+02 0.  0.
        -13    1    3    3    0    0  0.10879299144E+02  0.42096841935E+02  0.85146177153E+02  0.95605307042E+02  0.00000000000E+00 0. -1.
         13    1    3    3    0    0 -0.10879299144E+02 -0.42096841935E+02  0.38127074788E+02  0.57828860292E+02  0.00000000000E+00 0.  1.
<mgrwt>
<rscale>  0 0.91355071E+02</rscale>
<asrwt>0</asrwt>
<pdfrwt beam="1">  1        1 0.21285185E-01 0.91355071E+02</pdfrwt>
<pdfrwt beam="2">  1       -1 0.23200705E-02 0.91355071E+02</pdfrwt>
<totfact> 0.10991123E+05</totfact>
</mgrwt>
</event>
<event>
 5    1  0.6308903E+000  0.9335931E+02  0.7546771E-02  0.1294915E+00
          1   -1    0    0  501    0  0.00000000000E+00  0.00000000000E+00  0.14318978106E+03  0.14318978106E+03  0.00000000000E+00 0. -1.
         -1   -1    0    0    0  501 -0.00000000000E+00 -0.00000000000E+00 -0.15217498519E+02  0.15217498519E+02  0.00000000000E+00 0.  1.
         23    2    1    2    0    0  0.00000000000E+00  0.00000000000E+00  0.12797228254E+03  0.15840727958E+03  0.93359311933E+02 0.  0.
        -13    1    3    3    0    0 -0.30172942873E+02 -0.71984565821E+01  0.47998631946E+01  0.31388898443E+02  0.00000000000E+00 0.  1.
         13    1    3    3    0    0  0.30172942873E+02  0.71984565821E+01  0.12317241934E+03  0.12701838113E+03  0.00000000000E+00 0. -1.
<mgrwt>
<rscale>  0 0.93359312E+02</rscale>
<asrwt>0</asrwt>
<pdfrwt beam="1">  1        1 0.22029196E-01 0.93359312E+02</pdfrwt>
<pdfrwt beam="2">  1       -1 0.23411537E-02 0.93359312E+02</pdfrwt>
<totfact> 0.10428835E+05</totfact>
</mgrwt>
</event>
<event>
 5    1  0.6308903E+000  0.9040061E+02  0.7546771E-02  0.1301884E+00
         -1   -1    0    0    0  501 -0.00000000000E+00  0.00000000000E+00  0.86012210673E+02  0.86012210673E+02  0.00000000000E+00 0.  1.
          1   -1    0    0  501    0  0.00000000000E+00 -0.00000000000E+00 -0.23753225404E+02  0.23753225404E+02  0.00000000000E+00 0. -1.
         23    2    1    2    0    0  0.00000000000E+00  0.00000000000E+00  0.62258985269E+02  0.10976543608E+03  0.90400606804E+02 0.  0.
        -13    1    3    3    0    0 -0.10744865100E+02 -0.32746861250E+02 -0.43798743671E+01  0.34741795394E+02  0.00000000000E+00 0. -1.
         13    1    3    3    0    0  0.10744865100E+02  0.32746861250E+02  0.66638859636E+02  0.75023640683E+02  0.00000000000E+00 0.  1.
<mgrwt>
<rscale>  0 0.90400607E+02</rscale>
<asrwt>0</asrwt>
<pdfrwt beam="2">  1        1 0.36543424E-02 0.90400607E+02</pdfrwt>
<pdfrwt beam="1">  1       -1 0.13232648E-01 0.90400607E+02</pdfrwt>
<totfact> 0.85457592E+04</totfact>
</mgrwt>
</event>
<event>
 5    1  0.6308903E+000  0.8908171E+02  0.7546771E-02  0.1305091E+00
         -3   -1    0    0    0  501 -0.00000000000E+00  0.00000000000E+00  0.12899488146E+02  0.12899488146E+02  0.00000000000E+00 0.  1.
          3   -1    0    0  501    0  0.00000000000E+00 -0.00000000000E+00 -0.15379586751E+03  0.15379586751E+03  0.00000000000E+00 0. -1.
         23    2    1    2    0    0  0.00000000000E+00  0.00000000000E+00 -0.14089637936E+03  0.16669535565E+03  0.89081714617E+02 0.  0.
        -13    1    3    3    0    0 -0.31593928377E+02 -0.16635580661E+02 -0.12027333692E+03  0.12546152568E+03  0.00000000000E+00 0.  1.
         13    1    3    3    0    0  0.31593928377E+02  0.16635580661E+02 -0.20623042447E+02  0.41233829970E+02  0.00000000000E+00 0. -1.
<mgrwt>
<rscale>  0 0.89081715E+02</rscale>
<asrwt>0</asrwt>
<pdfrwt beam="2">  1        3 0.23660902E-01 0.89081715E+02</pdfrwt>
<pdfrwt beam="1">  1       -3 0.19845367E-02 0.89081715E+02</pdfrwt>
<totfact> 0.32277412E+04</totfact>
</mgrwt>
</event>
<event>
 5    1  0.6308903E+000  0.7748206E+02  0.7546771E-02  0.1336353E+00
         -2   -1    0    0    0  501 -0.00000000000E+00  0.00000000000E+00  0.74382598004E+02  0.74382598004E+02  0.00000000000E+00 0.  1.
          2   -1    0    0  501    0  0.00000000000E+00 -0.00000000000E+00 -0.20177669102E+02  0.20177669102E+02  0.00000000000E+00 0. -1.
         23    2    1    2    0    0  0.00000000000E+00  0.00000000000E+00  0.54204928902E+02  0.94560267106E+02  0.77482061136E+02 0.  0.
        -13    1    3    3    0    0 -0.28624159756E+02  0.11954727778E+02  0.55425806304E+02  0.63515966830E+02  0.00000000000E+00 0.  1.
         13    1    3    3    0    0  0.28624159756E+02 -0.11954727778E+02 -0.12208774013E+01  0.31044300276E+02  0.00000000000E+00 0. -1.
<mgrwt>
<rscale>  0 0.77482061E+02</rscale>
<asrwt>0</asrwt>
<pdfrwt beam="2">  1        2 0.31042568E-02 0.77482061E+02</pdfrwt>
<pdfrwt beam="1">  1       -2 0.11443476E-01 0.77482061E+02</pdfrwt>
<totfact> 0.12935331E+05</totfact>
</mgrwt>
</event>
<event>
 5    1  0.6308903E+000  0.9110297E+02  0.7546771E-02  0.1300202E+00
          1   -1    0    0  501    0  0.00000000000E+00  0.00000000000E+00  0.71728646880E+02  0.71728646880E+02  0.00000000000E+00 0. -1.
         -1   -1    0    0    0  501 -0.00000000000E+00 -0.00000000000E+00 -0.28927604449E+02  0.28927604449E+02  0.00000000000E+00 0.  1.
         23    2    1    2    0    0  0.00000000000E+00  0.00000000000E+00  0.42801042431E+02  0.10065625133E+03  0.91102973049E+02 0.  0.
        -13    1    3    3    0    0  0.19824857574E+02  0.71423987427E+01  0.66019717903E+02  0.69301096597E+02  0.00000000000E+00 0. -1.
         13    1    3    3    0    0 -0.19824857574E+02 -0.71423987427E+01 -0.23218675471E+02  0.31355154732E+02  0.00000000000E+00 0.  1.
<mgrwt>
<rscale>  0 0.91102973E+02</rscale>
<asrwt>0</asrwt>
<pdfrwt beam="1">  1        1 0.11035176E-01 0.91102973E+02</pdfrwt>
<pdfrwt beam="2">  1       -1 0.44504007E-02 0.91102973E+02</pdfrwt>
<totfact> 0.99261535E+04</totfact>
</mgrwt>
</event>
<event>
 5    1  0.6308903E+000  0.9162322E+02  0.7546771E-02  0.1298968E+00
          2   -1    0    0  501    0  0.00000000000E+00  0.00000000000E+00  0.39193353914E+03  0.39193353914E+03  0.00000000000E+00 0. -1.
         -2   -1    0    0    0  501 -0.00000000000E+00 -0.00000000000E+00 -0.53547432414E+01  0.53547432414E+01  0.00000000000E+00 0.  1.
         23    2    1    2    0    0  0.00000000000E+00  0.00000000000E+00  0.38657879590E+03  0.39728828239E+03  0.91623216923E+02 0.  0.
        -13    1    3    3    0    0 -0.38104130651E+02 -0.25147381290E+02  0.20973686775E+03  0.21464824540E+03  0.00000000000E+00 0.  1.
         13    1    3    3    0    0  0.38104130651E+02  0.25147381290E+02  0.17684192815E+03  0.18264003699E+03  0.00000000000E+00 0. -1.
<mgrwt>
<rscale>  0 0.91623217E+02</rscale>
<asrwt>0</asrwt>
<pdfrwt beam="1">  1        2 0.60297445E-01 0.91623217E+02</pdfrwt>
<pdfrwt beam="2">  1       -2 0.82380696E-03 0.91623217E+02</pdfrwt>
<totfact> 0.19561646E+05</totfact>
</mgrwt>
</event>
<event>
 5    1  0.6308903E+000  0.9065994E+02  0.7546771E-02  0.1301261E+00
         -1   -1    0    0    0  501 -0.00000000000E+00  0.00000000000E+00  0.10329701652E+02  0.10329701652E+02  0.00000000000E+00 0.  1.
          1   -1    0    0  501    0  0.00000000000E+00 -0.00000000000E+00 -0.19892211950E+03  0.19892211950E+03  0.00000000000E+00 0. -1.
         23    2    1    2    0    0  0.00000000000E+00  0.00000000000E+00 -0.18859241785E+03  0.20925182115E+03  0.90659939254E+02 0.  0.
        -13    1    3    3    0    0 -0.29035112692E+01 -0.35159721483E+02 -0.28599769056E+02  0.45415671112E+02  0.00000000000E+00 0.  1.
         13    1    3    3    0    0  0.29035112692E+01  0.35159721483E+02 -0.15999264879E+03  0.16383615004E+03  0.00000000000E+00 0. -1.
<mgrwt>
<rscale>  0 0.90659939E+02</rscale>
<asrwt>0</asrwt>
<pdfrwt beam="2">  1        1 0.30603406E-01 0.90659939E+02</pdfrwt>
<pdfrwt beam="1">  1       -1 0.15891847E-02 0.90659939E+02</pdfrwt>
<totfact> 0.12009828E+05</totfact>
</mgrwt>
</event>
<event>
 5    1  0.6308903E+000  0.9306677E+02  0.7546771E-02  0.1295591E+00
         -1   -1    0    0    0  501 -0.00000000000E+00  0.00000000000E+00  0.21122534013E+02  0.21122534013E+02  0.00000000000E+00 0.  1.
          1   -1    0    0  501    0  0.00000000000E+00 -0.00000000000E+00 -0.10251401722E+03  0.10251401722E+03  0.00000000000E+00 0. -1.
         23    2    1    2    0    0  0.00000000000E+00  0.00000000000E+00 -0.81391483208E+02  0.12363655123E+03  0.93066767764E+02 0.  0.
        -13    1    3    3    0    0  0.89653920958E+01  0.13887929429E+02  0.17090524825E+02  0.23776855933E+02  0.00000000000E+00 0.  1.
         13    1    3    3    0    0 -0.89653920958E+01 -0.13887929429E+02 -0.98482008033E+02  0.99859695300E+02  0.00000000000E+00 0. -1.
<mgrwt>
<rscale>  0 0.93066768E+02</rscale>
<asrwt>0</asrwt>
<pdfrwt beam="2">  1        1 0.15771387E-01 0.93066768E+02</pdfrwt>
<pdfrwt beam="1">  1       -1 0.32496207E-02 0.93066768E+02</pdfrwt>
<totfact> 0.99171681E+04</totfact>
</mgrwt>
</event>
<event>
 5    1  0.6308903E+000  0.9051794E+02  0.7546771E-02  0.1301602E+00
          1   -1    0    0  501    0  0.00000000000E+00  0.00000000000E+00  0.40626077064E+02  0.40626077064E+02  0.00000000000E+00 0. -1.
         -1   -1    0    0    0  501 -0.00000000000E+00 -0.00000000000E+00 -0.50420184075E+02  0.50420184075E+02  0.00000000000E+00 0.  1.
         23    2    1    2    0    0  0.00000000000E+00  0.00000000000E+00 -0.97941070116E+01  0.91046261139E+02  0.90517938196E+02 0.  0.
        -13    1    3    3    0    0  0.26883825336E+02 -0.91534205143E+01 -0.40342616470E+02  0.49336111272E+02  0.00000000000E+00 0.  1.
         13    1    3    3    0    0 -0.26883825336E+02  0.91534205143E+01  0.30548509458E+02  0.41710149867E+02  0.00000000000E+00 0. -1.
<mgrwt>
<rscale>  0 0.90517938E+02</rscale>
<asrwt>0</asrwt>
<pdfrwt beam="1">  1        1 0.62501657E-02 0.90517938E+02</pdfrwt>
<pdfrwt beam="2">  1       -1 0.77569514E-02 0.90517938E+02</pdfrwt>
<totfact> 0.92755084E+04</totfact>
</mgrwt>
</event>
<event>
 5    1  0.6308903E+000  0.9467366E+02  0.7546771E-02  0.1291913E+00
          2   -1    0    0  501    0  0.00000000000E+00  0.00000000000E+00  0.31556641707E+02  0.31556641707E+02  0.00000000000E+00 0.  1.
         -2   -1    0    0    0  501 -0.00000000000E+00 -0.00000000000E+00 -0.71008039930E+02  0.71008039930E+02  0.00000000000E+00 0. -1.
         23    2    1    2    0    0  0.00000000000E+00  0.00000000000E+00 -0.39451398223E+02  0.10256468164E+03  0.94673655774E+02 0.  0.
        -13    1    3    3    0    0 -0.63315555025E+01  0.42977583570E+02 -0.40097686939E+02  0.59118404769E+02  0.00000000000E+00 0. -1.
         13    1    3    3    0    0  0.63315555025E+01 -0.42977583570E+02  0.64628871600E+00  0.43446276868E+02  0.00000000000E+00 0.  1.
<mgrwt>
<rscale>  0 0.94673656E+02</rscale>
<asrwt>0</asrwt>
<pdfrwt beam="1">  1        2 0.48548680E-02 0.94673656E+02</pdfrwt>
<pdfrwt beam="2">  1       -2 0.10924314E-01 0.94673656E+02</pdfrwt>
<totfact> 0.80179854E+04</totfact>
</mgrwt>
</event>
<event>
 5    1  0.6308903E+000  0.9046641E+02  0.7546771E-02  0.1301726E+00
          2   -1    0    0  501    0  0.00000000000E+00  0.00000000000E+00  0.50609592925E+02  0.50609592925E+02  0.00000000000E+00 0.  1.
         -2   -1    0    0    0  501 -0.00000000000E+00 -0.00000000000E+00 -0.40427968833E+02  0.40427968833E+02  0.00000000000E+00 0. -1.
         23    2    1    2    0    0  0.00000000000E+00  0.00000000000E+00  0.10181624092E+02  0.91037561759E+02  0.90466414662E+02 0.  0.
        -13    1    3    3    0    0  0.27265869872E+02 -0.12955783827E+02 -0.28808105601E+02  0.41727532191E+02  0.00000000000E+00 0. -1.
         13    1    3    3    0    0 -0.27265869872E+02  0.12955783827E+02  0.38989729693E+02  0.49310029567E+02  0.00000000000E+00 0.  1.
<mgrwt>
<rscale>  0 0.90466415E+02</rscale>
<asrwt>0</asrwt>
<pdfrwt beam="1">  1        2 0.77860912E-02 0.90466415E+02</pdfrwt>
<pdfrwt beam="2">  1       -2 0.62196875E-02 0.90466415E+02</pdfrwt>
<totfact> 0.10368096E+05</totfact>
</mgrwt>
</event>
<event>
 5    1  0.6308903E+000  0.9137832E+02  0.7546771E-02  0.1299548E+00
          1   -1    0    0  501    0  0.00000000000E+00  0.00000000000E+00  0.83738336494E+02  0.83738336494E+02  0.00000000000E+00 0. -1.
         -1   -1    0    0    0  501 -0.00000000000E+00 -0.00000000000E+00 -0.24928834828E+02  0.24928834828E+02  0.00000000000E+00 0.  1.
         23    2    1    2    0    0  0.00000000000E+00  0.00000000000E+00  0.58809501666E+02  0.10866717132E+03  0.91378316010E+02 0.  0.
        -13    1    3    3    0    0 -0.44757403527E+01  0.18264603517E+02  0.78922811110E+02  0.81132226068E+02  0.00000000000E+00 0. -1.
         13    1    3    3    0    0  0.44757403527E+01 -0.18264603517E+02 -0.20113309443E+02  0.27534945253E+02  0.00000000000E+00 0.  1.
<mgrwt>
<rscale>  0 0.91378316E+02</rscale>
<asrwt>0</asrwt>
<pdfrwt beam="1">  1        1 0.12882821E-01 0.91378316E+02</pdfrwt>
<pdfrwt beam="2">  1       -1 0.38352054E-02 0.91378316E+02</pdfrwt>
<totfact> 0.10086374E+05</totfact>
</mgrwt>
</event>
<event>
 5    1  0.6308903E+000  0.9217693E+02  0.7546771E-02  0.1297664E+00
         -1   -1    0    0    0  501 -0.00000000000E+00  0.00000000000E+00  0.22175491326E+02  0.22175491326E+02  0.00000000000E+00 0.  1.
          1   -1    0    0  501    0  0.00000000000E+00 -0.00000000000E+00 -0.95788028786E+02  0.95788028786E+02  0.00000000000E+00 0. -1.
         23    2    1    2    0    0  0.00000000000E+00  0.00000000000E+00 -0.73612537460E+02  0.11796352011E+03  0.92176929901E+02 0.  0.
        -13    1    3    3    0    0  0.20076735722E+02 -0.16425246873E+02 -0.85559282890E+02  0.89405005121E+02  0.00000000000E+00 0. -1.
         13    1    3    3    0    0 -0.20076735722E+02  0.16425246873E+02  0.11946745430E+02  0.28558514991E+02  0.00000000000E+00 0.  1.
<mgrwt>
<rscale>  0 0.92176930E+02</rscale>
<asrwt>0</asrwt>
<pdfrwt beam="2">  1        1 0.14736620E-01 0.92176930E+02</pdfrwt>
<pdfrwt beam="1">  1       -1 0.34116141E-02 0.92176930E+02</pdfrwt>
<totfact> 0.10066342E+05</totfact>
</mgrwt>
</event>
<event>
 5    1  0.6308903E+000  0.9794882E+02  0.7546771E-02  0.1284669E+00
         -2   -1    0    0    0  501 -0.00000000000E+00  0.00000000000E+00  0.19116531003E+02  0.19116531003E+02  0.00000000000E+00 0. -1.
          2   -1    0    0  501    0  0.00000000000E+00 -0.00000000000E+00 -0.12546696220E+03  0.12546696220E+03  0.00000000000E+00 0.  1.
         23    2    1    2    0    0  0.00000000000E+00  0.00000000000E+00 -0.10635043120E+03  0.14458349320E+03  0.97948824858E+02 0.  0.
        -13    1    3    3    0    0  0.29135055198E+02 -0.10395678247E+02 -0.10922030651E+03  0.11351650507E+03  0.00000000000E+00 0.  1.
         13    1    3    3    0    0 -0.29135055198E+02  0.10395678247E+02  0.28698753152E+01  0.31066988138E+02  0.00000000000E+00 0. -1.
<mgrwt>
<rscale>  0 0.97948825E+02</rscale>
<asrwt>0</asrwt>
<pdfrwt beam="2">  1        2 0.19302609E-01 0.97948825E+02</pdfrwt>
<pdfrwt beam="1">  1       -2 0.29410049E-02 0.97948825E+02</pdfrwt>
<totfact> 0.10822247E+05</totfact>
</mgrwt>
</event>
<event>
 5    1  0.6308903E+000  0.9017355E+02  0.7546771E-02  0.1302432E+00
          4   -1    0    0  501    0  0.00000000000E+00  0.00000000000E+00  0.11347065586E+02  0.11347065586E+02  0.00000000000E+00 0. -1.
         -4   -1    0    0    0  501 -0.00000000000E+00 -0.00000000000E+00 -0.17914916702E+03  0.17914916702E+03  0.00000000000E+00 0.  1.
         23    2    1    2    0    0  0.00000000000E+00  0.00000000000E+00 -0.16780210143E+03  0.19049623260E+03  0.90173551506E+02 0.  0.
        -13    1    3    3    0    0  0.35661123066E+02 -0.13207574569E+02 -0.32732742719E+02  0.50175573442E+02  0.00000000000E+00 0. -1.
         13    1    3    3    0    0 -0.35661123066E+02  0.13207574569E+02 -0.13506935871E+03  0.14032065916E+03  0.00000000000E+00 0.  1.
<mgrwt>
<rscale>  0 0.90173552E+02</rscale>
<asrwt>0</asrwt>
<pdfrwt beam="1">  1        4 0.17457023E-02 0.90173552E+02</pdfrwt>
<pdfrwt beam="2">  1       -4 0.27561412E-01 0.90173552E+02</pdfrwt>
<totfact> 0.22444013E+04</totfact>
</mgrwt>
</event>
<event>
 5    1  0.6308903E+000  0.8966724E+02  0.7546771E-02  0.1303660E+00
         -1   -1    0    0    0  501 -0.00000000000E+00  0.00000000000E+00  0.23388133956E+02  0.23388133956E+02  0.00000000000E+00 0.  1.
          1   -1    0    0  501    0  0.00000000000E+00 -0.00000000000E+00 -0.85943304342E+02  0.85943304342E+02  0.00000000000E+00 0. -1.
         23    2    1    2    0    0  0.00000000000E+00  0.00000000000E+00 -0.62555170387E+02  0.10933143830E+03  0.89667240719E+02 0.  0.
        -13    1    3    3    0    0  0.43770872904E+02  0.81815939352E+01 -0.24915478525E+02  0.51025570690E+02  0.00000000000E+00 0.  1.
         13    1    3    3    0    0 -0.43770872904E+02 -0.81815939352E+01 -0.37639691862E+02  0.58305867608E+02  0.00000000000E+00 0. -1.
<mgrwt>
<rscale>  0 0.89667241E+02</rscale>
<asrwt>0</asrwt>
<pdfrwt beam="2">  1        1 0.13222047E-01 0.89667241E+02</pdfrwt>
<pdfrwt beam="1">  1       -1 0.35981745E-02 0.89667241E+02</pdfrwt>
<totfact> 0.10665707E+05</totfact>
</mgrwt>
</event>
<event>
 5    1  0.6308903E+000  0.9126020E+02  0.7546771E-02  0.1299828E+00
         -2   -1    0    0    0  501 -0.00000000000E+00  0.00000000000E+00  0.57283292711E+01  0.57283292711E+01  0.00000000000E+00 0.  1.
          2   -1    0    0  501    0  0.00000000000E+00 -0.00000000000E+00 -0.36347530431E+03  0.36347530431E+03  0.00000000000E+00 0. -1.
         23    2    1    2    0    0  0.00000000000E+00  0.00000000000E+00 -0.35774697504E+03  0.36920363358E+03  0.91260204361E+02 0.  0.
        -13    1    3    3    0    0 -0.38349662937E+02  0.23744181576E+02 -0.15095481176E+03  0.15754947794E+03  0.00000000000E+00 0.  1.
         13    1    3    3    0    0  0.38349662937E+02 -0.23744181576E+02 -0.20679216328E+03  0.21165415564E+03  0.00000000000E+00 0. -1.
<mgrwt>
<rscale>  0 0.91260204E+02</rscale>
<asrwt>0</asrwt>
<pdfrwt beam="2">  1        2 0.55919281E-01 0.91260204E+02</pdfrwt>
<pdfrwt beam="1">  1       -2 0.88128137E-03 0.91260204E+02</pdfrwt>
<totfact> 0.19236779E+05</totfact>
</mgrwt>
</event>
<event>
 5    1  0.6308903E+000  0.8844904E+02  0.7546771E-02  0.1306652E+00
          4   -1    0    0  501    0  0.00000000000E+00  0.00000000000E+00  0.16329599267E+02  0.16329599267E+02  0.00000000000E+00 0. -1.
         -4   -1    0    0    0  501 -0.00000000000E+00 -0.00000000000E+00 -0.11977073077E+03  0.11977073077E+03  0.00000000000E+00 0.  1.
         23    2    1    2    0    0  0.00000000000E+00  0.00000000000E+00 -0.10344113151E+03  0.13610033004E+03  0.88449037019E+02 0.  0.
        -13    1    3    3    0    0  0.10394928608E+02  0.42613514701E+02 -0.43037655864E+02  0.61450842127E+02  0.00000000000E+00 0.  1.
         13    1    3    3    0    0 -0.10394928608E+02 -0.42613514701E+02 -0.60403475642E+02  0.74649487912E+02  0.00000000000E+00 0. -1.
<mgrwt>
<rscale>  0 0.88449037E+02</rscale>
<asrwt>0</asrwt>
<pdfrwt beam="1">  1        4 0.25122461E-02 0.88449037E+02</pdfrwt>
<pdfrwt beam="2">  1       -4 0.18426266E-01 0.88449037E+02</pdfrwt>
<totfact> 0.26462978E+04</totfact>
</mgrwt>
</event>
<event>
 5    1  0.6308903E+000  0.8931302E+02  0.7546771E-02  0.1304524E+00
          2   -1    0    0  501    0  0.00000000000E+00  0.00000000000E+00  0.49454925369E+01  0.49454925369E+01  0.00000000000E+00 0. -1.
         -2   -1    0    0    0  501 -0.00000000000E+00 -0.00000000000E+00 -0.40323670083E+03  0.40323670083E+03  0.00000000000E+00 0.  1.
         23    2    1    2    0    0  0.00000000000E+00  0.00000000000E+00 -0.39829120829E+03  0.40818219337E+03  0.89313024684E+02 0.  0.
        -13    1    3    3    0    0  0.38736244978E+02  0.22117066062E+02 -0.18940465075E+03  0.19458618402E+03  0.00000000000E+00 0.  1.
         13    1    3    3    0    0 -0.38736244978E+02 -0.22117066062E+02 -0.20888655754E+03  0.21359600934E+03  0.00000000000E+00 0. -1.
<mgrwt>
<rscale>  0 0.89313025E+02</rscale>
<asrwt>0</asrwt>
<pdfrwt beam="1">  1        2 0.76084461E-03 0.89313025E+02</pdfrwt>
<pdfrwt beam="2">  1       -2 0.62036447E-01 0.89313025E+02</pdfrwt>
<totfact> 0.44785675E+04</totfact>
</mgrwt>
</event>
<event>
 5    1  0.6308903E+000  0.9248780E+02  0.7546771E-02  0.1296937E+00
         -2   -1    0    0    0  501 -0.00000000000E+00  0.00000000000E+00  0.10034419538E+03  0.10034419538E+03  0.00000000000E+00 0.  1.
          2   -1    0    0  501    0  0.00000000000E+00 -0.00000000000E+00 -0.21311627160E+02  0.21311627160E+02  0.00000000000E+00 0. -1.
         23    2    1    2    0    0  0.00000000000E+00  0.00000000000E+00  0.79032568220E+02  0.12165582254E+03  0.92487795510E+02 0.  0.
        -13    1    3    3    0    0  0.32723521191E+02 -0.32671786777E+02  0.38894307696E+02  0.60423850105E+02  0.00000000000E+00 0. -1.
         13    1    3    3    0    0 -0.32723521191E+02  0.32671786777E+02  0.40138260524E+02  0.61231972435E+02  0.00000000000E+00 0.  1.
<mgrwt>
<rscale>  0 0.92487796E+02</rscale>
<asrwt>0</asrwt>
<pdfrwt beam="2">  1        2 0.32787119E-02 0.92487796E+02</pdfrwt>
<pdfrwt beam="1">  1       -2 0.15437568E-01 0.92487796E+02</pdfrwt>
<totfact> 0.76939223E+04</totfact>
</mgrwt>
</event>
<event>
 5    1  0.6308903E+000  0.9308995E+02  0.7546771E-02  0.1295537E+00
         -4   -1    0    0    0  501 -0.00000000000E+00  0.00000000000E+00  0.10220980856E+02  0.10220980856E+02  0.00000000000E+00 0.  1.
          4   -1    0    0  501    0  0.00000000000E+00 -0.00000000000E+00 -0.21195955905E+03  0.21195955905E+03  0.00000000000E+00 0. -1.
         23    2    1    2    0    0  0.00000000000E+00  0.00000000000E+00 -0.20173857819E+03  0.22218053990E+03  0.93089947798E+02 0.  0.
        -13    1    3    3    0    0  0.18222833977E+02  0.37931972269E+02 -0.14833631982E+03  0.15419004500E+03  0.00000000000E+00 0. -1.
         13    1    3    3    0    0 -0.18222833977E+02 -0.37931972269E+02 -0.53402258366E+02  0.67990494902E+02  0.00000000000E+00 0.  1.
<mgrwt>
<rscale>  0 0.93089948E+02</rscale>
<asrwt>0</asrwt>
<pdfrwt beam="2">  1        4 0.32609158E-01 0.93089948E+02</pdfrwt>
<pdfrwt beam="1">  1       -4 0.15724589E-02 0.93089948E+02</pdfrwt>
<totfact> 0.19384501E+04</totfact>
</mgrwt>
</event>
<event>
 5    1  0.6308903E+000  0.9091143E+02  0.7546771E-02  0.1300659E+00
          1   -1    0    0  501    0  0.00000000000E+00  0.00000000000E+00  0.35091530831E+02  0.35091530831E+02  0.00000000000E+00 0. -1.
         -1   -1    0    0    0  501 -0.00000000000E+00 -0.00000000000E+00 -0.58880935496E+02  0.58880935496E+02  0.00000000000E+00 0.  1.
         23    2    1    2    0    0  0.00000000000E+00  0.00000000000E+00 -0.23789404664E+02  0.93972466327E+02  0.90911433018E+02 0.  0.
        -13    1    3    3    0    0  0.15398385624E+02 -0.36062055654E+02 -0.35661033409E+02  0.53002749378E+02  0.00000000000E+00 0.  1.
         13    1    3    3    0    0 -0.15398385624E+02  0.36062055654E+02  0.11871628745E+02  0.40969716949E+02  0.00000000000E+00 0. -1.
<mgrwt>
<rscale>  0 0.90911433E+02</rscale>
<asrwt>0</asrwt>
<pdfrwt beam="1">  1        1 0.53986971E-02 0.90911433E+02</pdfrwt>
<pdfrwt beam="2">  1       -1 0.90586054E-02 0.90911433E+02</pdfrwt>
<totfact> 0.89599876E+04</totfact>
</mgrwt>
</event>
<event>
 5    1  0.6308903E+000  0.1035863E+03  0.7546771E-02  0.1272930E+00
         -1   -1    0    0    0  501 -0.00000000000E+00  0.00000000000E+00  0.62204844739E+01  0.62204844739E+01  0.00000000000E+00 0.  1.
          1   -1    0    0  501    0  0.00000000000E+00 -0.00000000000E+00 -0.43124106481E+03  0.43124106481E+03  0.00000000000E+00 0. -1.
         23    2    1    2    0    0  0.00000000000E+00  0.00000000000E+00 -0.42502058033E+03  0.43746154928E+03  0.10358626064E+03 0.  0.
        -13    1    3    3    0    0  0.27341325792E+02  0.42779933570E+02 -0.16926512554E+03  0.17671545925E+03  0.00000000000E+00 0.  1.
         13    1    3    3    0    0 -0.27341325792E+02 -0.42779933570E+02 -0.25575545479E+03  0.26074609003E+03  0.00000000000E+00 0. -1.
<mgrwt>
<rscale>  0 0.10358626E+03</rscale>
<asrwt>0</asrwt>
<pdfrwt beam="2">  1        1 0.66344816E-01 0.10358626E+03</pdfrwt>
<pdfrwt beam="1">  1       -1 0.95699708E-03 0.10358626E+03</pdfrwt>
<totfact> 0.97078224E+04</totfact>
</mgrwt>
</event>
<event>
 5    1  0.6308903E+000  0.9258258E+02  0.7546771E-02  0.1296715E+00
          3   -1    0    0  501    0  0.00000000000E+00  0.00000000000E+00  0.22445296178E+02  0.22445296178E+02  0.00000000000E+00 0. -1.
         -3   -1    0    0    0  501 -0.00000000000E+00 -0.00000000000E+00 -0.95471391670E+02  0.95471391670E+02  0.00000000000E+00 0.  1.
         23    2    1    2    0    0  0.00000000000E+00  0.00000000000E+00 -0.73026095492E+02  0.11791668785E+03  0.92582582867E+02 0.  0.
        -13    1    3    3    0    0  0.10601943240E+02 -0.34575700841E+02 -0.73316630152E+02  0.81750893242E+02  0.00000000000E+00 0.  1.
         13    1    3    3    0    0 -0.10601943240E+02  0.34575700841E+02  0.29053465992E+00  0.36165794606E+02  0.00000000000E+00 0. -1.
<mgrwt>
<rscale>  0 0.92582583E+02</rscale>
<asrwt>0</asrwt>
<pdfrwt beam="1">  1        3 0.34531225E-02 0.92582583E+02</pdfrwt>
<pdfrwt beam="2">  1       -3 0.14687906E-01 0.92582583E+02</pdfrwt>
<totfact> 0.32028420E+04</totfact>
</mgrwt>
</event>
<event>
 5    1  0.6308903E+000  0.9268194E+02  0.7546771E-02  0.1296484E+00
          2   -1    0    0  501    0  0.00000000000E+00  0.00000000000E+00  0.25963790091E+03  0.25963790091E+03  0.00000000000E+00 0. -1.
         -2   -1    0    0    0  501 -0.00000000000E+00 -0.00000000000E+00 -0.82710789589E+01  0.82710789589E+01  0.00000000000E+00 0.  1.
         23    2    1    2    0    0  0.00000000000E+00  0.00000000000E+00  0.25136682195E+03  0.26790897987E+03  0.92681941697E+02 0.  0.
        -13    1    3    3    0    0 -0.42387023156E+02  0.17777044632E+01  0.17958145643E+03  0.18452457684E+03  0.00000000000E+00 0. -1.
         13    1    3    3    0    0  0.42387023156E+02 -0.17777044632E+01  0.71785365523E+02  0.83384403029E+02  0.00000000000E+00 0.  1.
<mgrwt>
<rscale>  0 0.92681942E+02</rscale>
<asrwt>0</asrwt>
<pdfrwt beam="1">  1        2 0.39944286E-01 0.92681942E+02</pdfrwt>
<pdfrwt beam="2">  1       -2 0.12724739E-02 0.92681942E+02</pdfrwt>
<totfact> 0.16292476E+05</totfact>
</mgrwt>
</event>
<event>
 5    1  0.6308903E+000  0.9082354E+02  0.7546771E-02  0.1300870E+00
         -3   -1    0    0    0  501 -0.00000000000E+00  0.00000000000E+00  0.49305994259E+02  0.49305994259E+02  0.00000000000E+00 0.  1.
          3   -1    0    0  501    0  0.00000000000E+00 -0.00000000000E+00 -0.41825114578E+02  0.41825114578E+02  0.00000000000E+00 0. -1.
         23    2    1    2    0    0  0.00000000000E+00  0.00000000000E+00  0.74808796804E+01  0.91131108837E+02  0.90823540104E+02 0.  0.
        -13    1    3    3    0    0 -0.35530943816E+02 -0.29124817150E+01 -0.24484846500E+02  0.43248563286E+02  0.00000000000E+00 0. -1.
         13    1    3    3    0    0  0.35530943816E+02  0.29124817150E+01  0.31965726180E+02  0.47882545551E+02  0.00000000000E+00 0.  1.
<mgrwt>
<rscale>  0 0.90823540E+02</rscale>
<asrwt>0</asrwt>
<pdfrwt beam="2">  1        3 0.64346330E-02 0.90823540E+02</pdfrwt>
<pdfrwt beam="1">  1       -3 0.75855375E-02 0.90823540E+02</pdfrwt>
<totfact> 0.35718145E+04</totfact>
</mgrwt>
</event>
<event>
 5    1  0.6308903E+000  0.9099714E+02  0.7546771E-02  0.1300455E+00
          1   -1    0    0  501    0  0.00000000000E+00  0.00000000000E+00  0.10868407835E+02  0.10868407835E+02  0.00000000000E+00 0. -1.
         -1   -1    0    0    0  501 -0.00000000000E+00 -0.00000000000E+00 -0.19047131059E+03  0.19047131059E+03  0.00000000000E+00 0.  1.
         23    2    1    2    0    0  0.00000000000E+00  0.00000000000E+00 -0.17960290276E+03  0.20133971843E+03  0.90997140271E+02 0.  0.
        -13    1    3    3    0    0 -0.45402569298E+02  0.12771787534E+01 -0.95695180237E+02  0.10592729585E+03  0.00000000000E+00 0.  1.
         13    1    3    3    0    0  0.45402569298E+02 -0.12771787534E+01 -0.83907722519E+02  0.95412422582E+02  0.00000000000E+00 0. -1.
<mgrwt>
<rscale>  0 0.90997140E+02</rscale>
<asrwt>0</asrwt>
<pdfrwt beam="1">  1        1 0.16720627E-02 0.90997140E+02</pdfrwt>
<pdfrwt beam="2">  1       -1 0.29303279E-01 0.90997140E+02</pdfrwt>
<totfact> 0.70746399E+04</totfact>
</mgrwt>
</event>
<event>
 5    1  0.6308903E+000  0.9285983E+02  0.7546771E-02  0.1296070E+00
          3   -1    0    0  501    0  0.00000000000E+00  0.00000000000E+00  0.24188974132E+03  0.24188974132E+03  0.00000000000E+00 0. -1.
         -3   -1    0    0    0  501 -0.00000000000E+00 -0.00000000000E+00 -0.89120652102E+01  0.89120652102E+01  0.00000000000E+00 0.  1.
         23    2    1    2    0    0  0.00000000000E+00  0.00000000000E+00  0.23297767611E+03  0.25080180653E+03  0.92859833045E+02 0.  0.
        -13    1    3    3    0    0 -0.45083663349E+02  0.99531074127E+01  0.10321989557E+03  0.11307496580E+03  0.00000000000E+00 0.  1.
         13    1    3    3    0    0  0.45083663349E+02 -0.99531074127E+01  0.12975778053E+03  0.13772684073E+03  0.00000000000E+00 0. -1.
<mgrwt>
<rscale>  0 0.92859833E+02</rscale>
<asrwt>0</asrwt>
<pdfrwt beam="1">  1        3 0.37213801E-01 0.92859833E+02</pdfrwt>
<pdfrwt beam="2">  1       -3 0.13710871E-02 0.92859833E+02</pdfrwt>
<totfact> 0.24813808E+04</totfact>
</mgrwt>
</event>
<event>
 5    1  0.6308903E+000  0.8703356E+02  0.7546771E-02  0.1310199E+00
          3   -1    0    0  501    0  0.00000000000E+00  0.00000000000E+00  0.41094589601E+02  0.41094589601E+02  0.00000000000E+00 0. -1.
         -3   -1    0    0    0  501 -0.00000000000E+00 -0.00000000000E+00 -0.46081740957E+02  0.46081740957E+02  0.00000000000E+00 0.  1.
         23    2    1    2    0    0  0.00000000000E+00  0.00000000000E+00 -0.49871513560E+01  0.87176330557E+02  0.87033562094E+02 0.  0.
        -13    1    3    3    0    0 -0.31033973992E+02  0.18279426026E+02  0.21969125406E+02  0.42188712100E+02  0.00000000000E+00 0. -1.
         13    1    3    3    0    0  0.31033973992E+02 -0.18279426026E+02 -0.26956276762E+02  0.44987618457E+02  0.00000000000E+00 0.  1.
<mgrwt>
<rscale>  0 0.87033562E+02</rscale>
<asrwt>0</asrwt>
<pdfrwt beam="1">  1        3 0.63222445E-02 0.87033562E+02</pdfrwt>
<pdfrwt beam="2">  1       -3 0.70894986E-02 0.87033562E+02</pdfrwt>
<totfact> 0.40446673E+04</totfact>
</mgrwt>
</event>
<event>
 5    1  0.6308903E+000  0.8999907E+02  0.7546771E-02  0.1302854E+00
         -2   -1    0    0    0  501 -0.00000000000E+00  0.00000000000E+00  0.11450838066E+03  0.11450838066E+03  0.00000000000E+00 0.  1.
          2   -1    0    0  501    0  0.00000000000E+00 -0.00000000000E+00 -0.17683929153E+02  0.17683929153E+02  0.00000000000E+00 0. -1.
         23    2    1    2    0    0  0.00000000000E+00  0.00000000000E+00  0.96824451502E+02  0.13219230981E+03  0.89999068683E+02 0.  0.
        -13    1    3    3    0    0  0.41262456367E+02  0.14062661006E+02  0.64808436529E+02  0.78105583573E+02  0.00000000000E+00 0. -1.
         13    1    3    3    0    0 -0.41262456367E+02 -0.14062661006E+02  0.32016014974E+02  0.54086726235E+02  0.00000000000E+00 0.  1.
<mgrwt>
<rscale>  0 0.89999069E+02</rscale>
<asrwt>0</asrwt>
<pdfrwt beam="2">  1        2 0.27206046E-02 0.89999069E+02</pdfrwt>
<pdfrwt beam="1">  1       -2 0.17616673E-01 0.89999069E+02</pdfrwt>
<totfact> 0.79086743E+04</totfact>
</mgrwt>
</event>
<event>
 5    1  0.6308903E+000  0.9010193E+02  0.7546771E-02  0.1302605E+00
          2   -1    0    0  501    0  0.00000000000E+00  0.00000000000E+00  0.55098686019E+02  0.55098686019E+02  0.00000000000E+00 0. -1.
         -2   -1    0    0    0  501 -0.00000000000E+00 -0.00000000000E+00 -0.36835528949E+02  0.36835528949E+02  0.00000000000E+00 0.  1.
         23    2    1    2    0    0  0.00000000000E+00  0.00000000000E+00  0.18263157070E+02  0.91934214968E+02  0.90101925482E+02 0.  0.
        -13    1    3    3    0    0  0.45391261919E+01  0.44264720772E+02  0.16318978223E+02  0.47394917679E+02  0.00000000000E+00 0.  1.
         13    1    3    3    0    0 -0.45391261919E+01 -0.44264720772E+02  0.19441788472E+01  0.44539297289E+02  0.00000000000E+00 0. -1.
<mgrwt>
<rscale>  0 0.90101925E+02</rscale>
<asrwt>0</asrwt>
<pdfrwt beam="1">  1        2 0.84767209E-02 0.90101925E+02</pdfrwt>
<pdfrwt beam="2">  1       -2 0.56670045E-02 0.90101925E+02</pdfrwt>
<totfact> 0.10722804E+05</totfact>
</mgrwt>
</event>
<event>
 5    1  0.6308903E+000  0.9056225E+02  0.7546771E-02  0.1301496E+00
          4   -1    0    0  501    0  0.00000000000E+00  0.00000000000E+00  0.44908937226E+02  0.44908937226E+02  0.00000000000E+00 0.  1.
         -4   -1    0    0    0  501 -0.00000000000E+00 -0.00000000000E+00 -0.45656394044E+02  0.45656394044E+02  0.00000000000E+00 0. -1.
         23    2    1    2    0    0  0.00000000000E+00  0.00000000000E+00 -0.74745681800E+00  0.90565331271E+02  0.90562246751E+02 0.  0.
        -13    1    3    3    0    0  0.39283433731E+02 -0.21126269709E+02 -0.81760897990E+01  0.45347060345E+02  0.00000000000E+00 0.  1.
         13    1    3    3    0    0 -0.39283433731E+02  0.21126269709E+02  0.74286329810E+01  0.45218270926E+02  0.00000000000E+00 0. -1.
<mgrwt>
<rscale>  0 0.90562247E+02</rscale>
<asrwt>0</asrwt>
<pdfrwt beam="1">  1        4 0.69090673E-02 0.90562247E+02</pdfrwt>
<pdfrwt beam="2">  1       -4 0.70240606E-02 0.90562247E+02</pdfrwt>
<totfact> 0.27556284E+04</totfact>
</mgrwt>
</event>
<event>
 5    1  0.6308903E+000  0.9401491E+02  0.7546771E-02  0.1293410E+00
          2   -1    0    0  501    0  0.00000000000E+00  0.00000000000E+00  0.34771550511E+03  0.34771550511E+03  0.00000000000E+00 0. -1.
         -2   -1    0    0    0  501 -0.00000000000E+00 -0.00000000000E+00 -0.63549107002E+01  0.63549107002E+01  0.00000000000E+00 0.  1.
         23    2    1    2    0    0  0.00000000000E+00  0.00000000000E+00  0.34136059441E+03  0.35407041581E+03  0.94014913371E+02 0.  0.
        -13    1    3    3    0    0  0.47067507295E+01  0.45552287996E+02  0.13072819188E+03  0.13851723573E+03  0.00000000000E+00 0.  1.
         13    1    3    3    0    0 -0.47067507295E+01 -0.45552287996E+02  0.21063240253E+03  0.21555318008E+03  0.00000000000E+00 0. -1.
<mgrwt>
<rscale>  0 0.94014913E+02</rscale>
<asrwt>0</asrwt>
<pdfrwt beam="1">  1        2 0.53494678E-01 0.94014913E+02</pdfrwt>
<pdfrwt beam="2">  1       -2 0.97767884E-03 0.94014913E+02</pdfrwt>
<totfact> 0.17484809E+05</totfact>
</mgrwt>
</event>
<event>
 5    1  0.6308903E+000  0.9160768E+02  0.7546771E-02  0.1299005E+00
         -1   -1    0    0    0  501 -0.00000000000E+00  0.00000000000E+00  0.74709306390E+02  0.74709306390E+02  0.00000000000E+00 0.  1.
          1   -1    0    0  501    0  0.00000000000E+00 -0.00000000000E+00 -0.28082065267E+02  0.28082065267E+02  0.00000000000E+00 0. -1.
         23    2    1    2    0    0  0.00000000000E+00  0.00000000000E+00  0.46627241123E+02  0.10279137166E+03  0.91607676929E+02 0.  0.
        -13    1    3    3    0    0 -0.35109313321E+02 -0.28683010062E+02  0.15988847653E+02  0.48073092238E+02  0.00000000000E+00 0.  1.
         13    1    3    3    0    0  0.35109313321E+02  0.28683010062E+02  0.30638393470E+02  0.54718279419E+02  0.00000000000E+00 0. -1.
<mgrwt>
<rscale>  0 0.91607677E+02</rscale>
<asrwt>0</asrwt>
<pdfrwt beam="2">  1        1 0.43203178E-02 0.91607677E+02</pdfrwt>
<pdfrwt beam="1">  1       -1 0.11493739E-01 0.91607677E+02</pdfrwt>
<totfact> 0.84597579E+04</totfact>
</mgrwt>
</event>
<event>
 5    1  0.6308903E+000  0.7608552E+02  0.7546771E-02  0.1340542E+00
         -1   -1    0    0    0  501 -0.00000000000E+00  0.00000000000E+00  0.10879341785E+03  0.10879341785E+03  0.00000000000E+00 0.  1.
          1   -1    0    0  501    0  0.00000000000E+00 -0.00000000000E+00 -0.13302748253E+02  0.13302748253E+02  0.00000000000E+00 0. -1.
         23    2    1    2    0    0  0.00000000000E+00  0.00000000000E+00  0.95490669592E+02  0.12209616610E+03  0.76085516340E+02 0.  0.
        -13    1    3    3    0    0  0.10512360558E+02  0.34300251999E+02  0.27432152556E+02  0.45161266652E+02  0.00000000000E+00 0. -1.
         13    1    3    3    0    0 -0.10512360558E+02 -0.34300251999E+02  0.68058517036E+02  0.76934899447E+02  0.00000000000E+00 0.  1.
<mgrwt>
<rscale>  0 0.76085516E+02</rscale>
<asrwt>0</asrwt>
<pdfrwt beam="2">  1        1 0.20465767E-02 0.76085516E+02</pdfrwt>
<pdfrwt beam="1">  1       -1 0.16737448E-01 0.76085516E+02</pdfrwt>
<totfact> 0.12746676E+05</totfact>
</mgrwt>
</event>
<event>
 5    1  0.6308903E+000  0.9069488E+02  0.7546771E-02  0.1301178E+00
          3   -1    0    0  501    0  0.00000000000E+00  0.00000000000E+00  0.18333401238E+02  0.18333401238E+02  0.00000000000E+00 0. -1.
         -3   -1    0    0    0  501 -0.00000000000E+00 -0.00000000000E+00 -0.11216634024E+03  0.11216634024E+03  0.00000000000E+00 0.  1.
         23    2    1    2    0    0  0.00000000000E+00  0.00000000000E+00 -0.93832938999E+02  0.13049974148E+03  0.90694884553E+02 0.  0.
        -13    1    3    3    0    0 -0.16877077463E+02 -0.16694847992E+02 -0.10251112319E+03  0.10522397098E+03  0.00000000000E+00 0.  1.
         13    1    3    3    0    0  0.16877077463E+02  0.16694847992E+02  0.86781841856E+01  0.25275770491E+02  0.00000000000E+00 0. -1.
<mgrwt>
<rscale>  0 0.90694885E+02</rscale>
<asrwt>0</asrwt>
<pdfrwt beam="1">  1        3 0.28205233E-02 0.90694885E+02</pdfrwt>
<pdfrwt beam="2">  1       -3 0.17256360E-01 0.90694885E+02</pdfrwt>
<totfact> 0.33015396E+04</totfact>
</mgrwt>
</event>
<event>
 5    1  0.6308903E+000  0.9940897E+02  0.7546771E-02  0.1281544E+00
          2   -1    0    0  501    0  0.00000000000E+00  0.00000000000E+00  0.62872837191E+02  0.62872837191E+02  0.00000000000E+00 0.  1.
         -2   -1    0    0    0  501 -0.00000000000E+00 -0.00000000000E+00 -0.39294164918E+02  0.39294164918E+02  0.00000000000E+00 0. -1.
         23    2    1    2    0    0  0.00000000000E+00  0.00000000000E+00  0.23578672273E+02  0.10216700211E+03  0.99408966064E+02 0.  0.
        -13    1    3    3    0    0  0.54966140267E+01  0.29500664809E+02  0.52512318166E+02  0.60481778653E+02  0.00000000000E+00 0.  1.
         13    1    3    3    0    0 -0.54966140267E+01 -0.29500664809E+02 -0.28933645893E+02  0.41685223456E+02  0.00000000000E+00 0. -1.
<mgrwt>
<rscale>  0 0.99408966E+02</rscale>
<asrwt>0</asrwt>
<pdfrwt beam="1">  1        2 0.96727442E-02 0.99408966E+02</pdfrwt>
<pdfrwt beam="2">  1       -2 0.60452561E-02 0.99408966E+02</pdfrwt>
<totfact> 0.84051375E+04</totfact>
</mgrwt>
</event>
<event>
 5    1  0.6308903E+000  0.9220676E+02  0.7546771E-02  0.1297594E+00
          2   -1    0    0  501    0  0.00000000000E+00  0.00000000000E+00  0.46749558357E+02  0.46749558357E+02  0.00000000000E+00 0. -1.
         -2   -1    0    0    0  501 -0.00000000000E+00 -0.00000000000E+00 -0.45466134739E+02  0.45466134739E+02  0.00000000000E+00 0.  1.
         23    2    1    2    0    0  0.00000000000E+00  0.00000000000E+00  0.12834236173E+01  0.92215693096E+02  0.92206761558E+02 0.  0.
        -13    1    3    3    0    0  0.29662159019E+02 -0.31563855462E+02 -0.15152255026E+02  0.45888032009E+02  0.00000000000E+00 0.  1.
         13    1    3    3    0    0 -0.29662159019E+02  0.31563855462E+02  0.16435678643E+02  0.46327661087E+02  0.00000000000E+00 0. -1.
<mgrwt>
<rscale>  0 0.92206762E+02</rscale>
<asrwt>0</asrwt>
<pdfrwt beam="1">  1        2 0.71922397E-02 0.92206762E+02</pdfrwt>
<pdfrwt beam="2">  1       -2 0.69947900E-02 0.92206762E+02</pdfrwt>
<totfact> 0.96169649E+04</totfact>
</mgrwt>
</event>
<event>
 5    1  0.6308903E+000  0.9153641E+02  0.7546771E-02  0.1299173E+00
         -1   -1    0    0    0  501 -0.00000000000E+00  0.00000000000E+00  0.20625911041E+03  0.20625911041E+03  0.00000000000E+00 0.  1.
          1   -1    0    0  501    0  0.00000000000E+00 -0.00000000000E+00 -0.10155811113E+02  0.10155811113E+02  0.00000000000E+00 0. -1.
         23    2    1    2    0    0  0.00000000000E+00  0.00000000000E+00  0.19610329930E+03  0.21641492152E+03  0.91536409490E+02 0.  0.
        -13    1    3    3    0    0  0.30270940026E+02 -0.29911209933E+00  0.17920808789E+03  0.18174696158E+03  0.00000000000E+00 0.  1.
         13    1    3    3    0    0 -0.30270940026E+02  0.29911209933E+00  0.16895211406E+02  0.34667959942E+02  0.00000000000E+00 0. -1.
<mgrwt>
<rscale>  0 0.91536409E+02</rscale>
<asrwt>0</asrwt>
<pdfrwt beam="2">  1        1 0.15624326E-02 0.91536409E+02</pdfrwt>
<pdfrwt beam="1">  1       -1 0.31732168E-01 0.91536409E+02</pdfrwt>
<totfact> 0.68105467E+04</totfact>
</mgrwt>
</event>
<event>
 5    1  0.6308903E+000  0.9291033E+02  0.7546771E-02  0.1295953E+00
          1   -1    0    0  501    0  0.00000000000E+00  0.00000000000E+00  0.25992341572E+02  0.25992341572E+02  0.00000000000E+00 0. -1.
         -1   -1    0    0    0  501 -0.00000000000E+00 -0.00000000000E+00 -0.83027617034E+02  0.83027617034E+02  0.00000000000E+00 0.  1.
         23    2    1    2    0    0  0.00000000000E+00  0.00000000000E+00 -0.57035275463E+02  0.10901995861E+03  0.92910326269E+02 0.  0.
        -13    1    3    3    0    0 -0.73808196289E+01  0.45305003352E+02 -0.36902432688E+02  0.58896598929E+02  0.00000000000E+00 0. -1.
         13    1    3    3    0    0  0.73808196289E+01 -0.45305003352E+02 -0.20132842775E+02  0.50123359677E+02  0.00000000000E+00 0.  1.
<mgrwt>
<rscale>  0 0.92910326E+02</rscale>
<asrwt>0</asrwt>
<pdfrwt beam="1">  1        1 0.39988218E-02 0.92910326E+02</pdfrwt>
<pdfrwt beam="2">  1       -1 0.12773480E-01 0.92910326E+02</pdfrwt>
<totfact> 0.80148882E+04</totfact>
</mgrwt>
</event>
<event>
 4    1  0.6308903E+000  0.5166733E+02  0.7546771E-02  0.1436550E+00
          2   -1    0    0  501    0  0.00000000000E+00  0.00000000000E+00  0.34309366061E+02  0.34309366061E+02  0.00000000000E+00 0.  1.
         -2   -1    0    0    0  501 -0.00000000000E+00 -0.00000000000E+00 -0.19451778292E+02  0.19451778292E+02  0.00000000000E+00 0. -1.
        -13    1    1    2    0    0  0.70940274585E+01 -0.11305682592E+02  0.30443797265E+02  0.33241066114E+02  0.00000000000E+00 0.  1.
         13    1    1    2    0    0 -0.70940274585E+01  0.11305682592E+02 -0.15586209497E+02  0.20520078239E+02  0.00000000000E+00 0. -1.
<mgrwt>
<rscale>  0 0.51667327E+02</rscale>
<asrwt>0</asrwt>
<pdfrwt beam="1">  1        2 0.52783640E-02 0.51667327E+02</pdfrwt>
<pdfrwt beam="2">  1       -2 0.29925813E-02 0.51667327E+02</pdfrwt>
<totfact> 0.44051362E+05</totfact>
</mgrwt>
</event>
<event>
 5    1  0.6308903E+000  0.9035940E+02  0.7546771E-02  0.1301984E+00
          2   -1    0    0  501    0  0.00000000000E+00  0.00000000000E+00  0.48840025979E+03  0.48840025979E+03  0.00000000000E+00 0. -1.
         -2   -1    0    0    0  501 -0.00000000000E+00 -0.00000000000E+00 -0.41793698798E+01  0.41793698798E+01  0.00000000000E+00 0.  1.
         23    2    1    2    0    0  0.00000000000E+00  0.00000000000E+00  0.48422088991E+03  0.49257962967E+03  0.90359400951E+02 0.  0.
        -13    1    3    3    0    0 -0.21092797549E+02  0.39616984687E+02  0.21389285863E+03  0.21855106167E+03  0.00000000000E+00 0. -1.
         13    1    3    3    0    0  0.21092797549E+02 -0.39616984687E+02  0.27032803128E+03  0.27402856800E+03  0.00000000000E+00 0.  1.
<mgrwt>
<rscale>  0 0.90359401E+02</rscale>
<asrwt>0</asrwt>
<pdfrwt beam="1">  1        2 0.75138456E-01 0.90359401E+02</pdfrwt>
<pdfrwt beam="2">  1       -2 0.64298037E-03 0.90359401E+02</pdfrwt>
<totfact> 0.21900416E+05</totfact>
</mgrwt>
</event>
<event>
 5    1  0.6308903E+000  0.9095915E+02  0.7546771E-02  0.1300545E+00
          2   -1    0    0  501    0  0.00000000000E+00  0.00000000000E+00  0.80985688549E+02  0.80985688549E+02  0.00000000000E+00 0. -1.
         -2   -1    0    0    0  501 -0.00000000000E+00 -0.00000000000E+00 -0.25540212119E+02  0.25540212119E+02  0.00000000000E+00 0.  1.
         23    2    1    2    0    0  0.00000000000E+00  0.00000000000E+00  0.55445476431E+02  0.10652590067E+03  0.90959148283E+02 0.  0.
        -13    1    3    3    0    0 -0.40546507664E+02  0.62687088437E+01  0.47410531204E+01  0.41301253964E+02  0.00000000000E+00 0. -1.
         13    1    3    3    0    0  0.40546507664E+02 -0.62687088437E+01  0.50704423310E+02  0.65224646703E+02  0.00000000000E+00 0.  1.
<mgrwt>
<rscale>  0 0.90959148E+02</rscale>
<asrwt>0</asrwt>
<pdfrwt beam="1">  1        2 0.12459337E-01 0.90959148E+02</pdfrwt>
<pdfrwt beam="2">  1       -2 0.39292634E-02 0.90959148E+02</pdfrwt>
<totfact> 0.11602734E+05</totfact>
</mgrwt>
</event>
<event>
 5    1  0.6308903E+000  0.9229625E+02  0.7546771E-02  0.1297384E+00
         -2   -1    0    0    0  501 -0.00000000000E+00  0.00000000000E+00  0.78691377629E+02  0.78691377629E+02  0.00000000000E+00 0.  1.
          2   -1    0    0  501    0  0.00000000000E+00 -0.00000000000E+00 -0.27063310975E+02  0.27063310975E+02  0.00000000000E+00 0. -1.
         23    2    1    2    0    0  0.00000000000E+00  0.00000000000E+00  0.51628066654E+02  0.10575468860E+03  0.92296245293E+02 0.  0.
        -13    1    3    3    0    0 -0.14021781811E+01 -0.34541523613E+02  0.60842461319E+02  0.69977768302E+02  0.00000000000E+00 0.  1.
         13    1    3    3    0    0  0.14021781811E+01  0.34541523613E+02 -0.92143946651E+01  0.35776920301E+02  0.00000000000E+00 0. -1.
<mgrwt>
<rscale>  0 0.92296245E+02</rscale>
<asrwt>0</asrwt>
<pdfrwt beam="2">  1        2 0.41635863E-02 0.92296245E+02</pdfrwt>
<pdfrwt beam="1">  1       -2 0.12106366E-01 0.92296245E+02</pdfrwt>
<totfact> 0.82942628E+04</totfact>
</mgrwt>
</event>
<event>
 5    1  0.6308903E+000  0.8958741E+02  0.7546771E-02  0.1303854E+00
          1   -1    0    0  501    0  0.00000000000E+00  0.00000000000E+00  0.15204906167E+03  0.15204906167E+03  0.00000000000E+00 0. -1.
         -1   -1    0    0    0  501 -0.00000000000E+00 -0.00000000000E+00 -0.13196239269E+02  0.13196239269E+02  0.00000000000E+00 0.  1.
         23    2    1    2    0    0  0.00000000000E+00  0.00000000000E+00  0.13885282240E+03  0.16524530094E+03  0.89587405327E+02 0.  0.
        -13    1    3    3    0    0  0.35094618851E+02 -0.20982074244E+02  0.35686604643E+02  0.54271663535E+02  0.00000000000E+00 0.  1.
         13    1    3    3    0    0 -0.35094618851E+02  0.20982074244E+02  0.10316621776E+03  0.11097363740E+03  0.00000000000E+00 0. -1.
<mgrwt>
<rscale>  0 0.89587405E+02</rscale>
<asrwt>0</asrwt>
<pdfrwt beam="1">  1        1 0.23392162E-01 0.89587405E+02</pdfrwt>
<pdfrwt beam="2">  1       -1 0.20301908E-02 0.89587405E+02</pdfrwt>
<totfact> 0.11786368E+05</totfact>
</mgrwt>
</event>
<event>
 5    1  0.6308903E+000  0.9160975E+02  0.7546771E-02  0.1299000E+00
          4   -1    0    0  501    0  0.00000000000E+00  0.00000000000E+00  0.27568765801E+02  0.27568765801E+02  0.00000000000E+00 0. -1.
         -4   -1    0    0    0  501 -0.00000000000E+00 -0.00000000000E+00 -0.76103759174E+02  0.76103759174E+02  0.00000000000E+00 0.  1.
         23    2    1    2    0    0  0.00000000000E+00  0.00000000000E+00 -0.48534993373E+02  0.10367252497E+03  0.91609753044E+02 0.  0.
        -13    1    3    3    0    0 -0.28678743813E+02  0.31914525887E+02 -0.61225537906E+01  0.43341584814E+02  0.00000000000E+00 0. -1.
         13    1    3    3    0    0  0.28678743813E+02 -0.31914525887E+02 -0.42412439583E+02  0.60330940160E+02  0.00000000000E+00 0.  1.
<mgrwt>
<rscale>  0 0.91609753E+02</rscale>
<asrwt>0</asrwt>
<pdfrwt beam="1">  1        4 0.42413486E-02 0.91609753E+02</pdfrwt>
<pdfrwt beam="2">  1       -4 0.11708271E-01 0.91609753E+02</pdfrwt>
<totfact> 0.25897747E+04</totfact>
</mgrwt>
</event>
<event>
 5    1  0.6308903E+000  0.9064666E+02  0.7546771E-02  0.1301293E+00
         -3   -1    0    0    0  501 -0.00000000000E+00  0.00000000000E+00  0.26185754076E+02  0.26185754076E+02  0.00000000000E+00 0.  1.
          3   -1    0    0  501    0  0.00000000000E+00 -0.00000000000E+00 -0.78447396851E+02  0.78447396851E+02  0.00000000000E+00 0. -1.
         23    2    1    2    0    0  0.00000000000E+00  0.00000000000E+00 -0.52261642775E+02  0.10463315093E+03  0.90646659990E+02 0.  0.
        -13    1    3    3    0    0  0.44803031371E+02  0.31925320418E+01 -0.19137996303E+02  0.48823834173E+02  0.00000000000E+00 0.  1.
         13    1    3    3    0    0 -0.44803031371E+02 -0.31925320418E+01 -0.33123646472E+02  0.55809316754E+02  0.00000000000E+00 0. -1.
<mgrwt>
<rscale>  0 0.90646660E+02</rscale>
<asrwt>0</asrwt>
<pdfrwt beam="2">  1        3 0.12068830E-01 0.90646660E+02</pdfrwt>
<pdfrwt beam="1">  1       -3 0.40285776E-02 0.90646660E+02</pdfrwt>
<totfact> 0.34879240E+04</totfact>
</mgrwt>
</event>
<event>
 5    1  0.6308903E+000  0.9034878E+02  0.7546771E-02  0.1302009E+00
          3   -1    0    0  501    0  0.00000000000E+00  0.00000000000E+00  0.23564896481E+02  0.23564896481E+02  0.00000000000E+00 0.  1.
         -3   -1    0    0    0  501 -0.00000000000E+00 -0.00000000000E+00 -0.86600236030E+02  0.86600236030E+02  0.00000000000E+00 0. -1.
         23    2    1    2    0    0  0.00000000000E+00  0.00000000000E+00 -0.63035339549E+02  0.11016513251E+03  0.90348781891E+02 0.  0.
        -13    1    3    3    0    0 -0.37484768770E+02 -0.20629622485E+02 -0.13846344311E+02  0.44971218178E+02  0.00000000000E+00 0.  1.
         13    1    3    3    0    0  0.37484768770E+02  0.20629622485E+02 -0.49188995238E+02  0.65193914334E+02  0.00000000000E+00 0. -1.
<mgrwt>
<rscale>  0 0.90348782E+02</rscale>
<asrwt>0</asrwt>
<pdfrwt beam="1">  1        3 0.36253686E-02 0.90348782E+02</pdfrwt>
<pdfrwt beam="2">  1       -3 0.13323113E-01 0.90348782E+02</pdfrwt>
<totfact> 0.34785285E+04</totfact>
</mgrwt>
</event>
<event>
 5    1  0.6308903E+000  0.9106943E+02  0.7546771E-02  0.1300282E+00
         -2   -1    0    0    0  501 -0.00000000000E+00  0.00000000000E+00  0.21022715456E+03  0.21022715456E+03  0.00000000000E+00 0. -1.
          2   -1    0    0  501    0  0.00000000000E+00 -0.00000000000E+00 -0.98627137458E+01  0.98627137458E+01  0.00000000000E+00 0.  1.
         23    2    1    2    0    0  0.00000000000E+00  0.00000000000E+00  0.20036444082E+03  0.22008986831E+03  0.91069429493E+02 0.  0.
        -13    1    3    3    0    0 -0.27788304533E+02 -0.32511500253E+02  0.62414525861E+02  0.75662147445E+02  0.00000000000E+00 0.  1.
         13    1    3    3    0    0  0.27788304533E+02  0.32511500253E+02  0.13794991496E+03  0.14442772086E+03  0.00000000000E+00 0. -1.
<mgrwt>
<rscale>  0 0.91069429E+02</rscale>
<asrwt>0</asrwt>
<pdfrwt beam="2">  1        2 0.15173407E-02 0.91069429E+02</pdfrwt>
<pdfrwt beam="1">  1       -2 0.32342636E-01 0.91069429E+02</pdfrwt>
<totfact> 0.61151452E+04</totfact>
</mgrwt>
</event>
<event>
 5    1  0.6308903E+000  0.7666294E+02  0.7546771E-02  0.1338797E+00
          1   -1    0    0  501    0  0.00000000000E+00  0.00000000000E+00  0.66001789647E+02  0.66001789647E+02  0.00000000000E+00 0. -1.
         -1   -1    0    0    0  501 -0.00000000000E+00 -0.00000000000E+00 -0.22261540343E+02  0.22261540343E+02  0.00000000000E+00 0.  1.
         23    2    1    2    0    0  0.00000000000E+00  0.00000000000E+00  0.43740249304E+02  0.88263329989E+02  0.76662937666E+02 0.  0.
        -13    1    3    3    0    0  0.25987928897E+02  0.25083154707E+02  0.70917542347E+01  0.36808016471E+02  0.00000000000E+00 0.  1.
         13    1    3    3    0    0 -0.25987928897E+02 -0.25083154707E+02  0.36648495070E+02  0.51455313518E+02  0.00000000000E+00 0. -1.
<mgrwt>
<rscale>  0 0.76662938E+02</rscale>
<asrwt>0</asrwt>
<pdfrwt beam="1">  1        1 0.10154121E-01 0.76662938E+02</pdfrwt>
<pdfrwt beam="2">  1       -1 0.34248524E-02 0.76662938E+02</pdfrwt>
<totfact> 0.15692416E+05</totfact>
</mgrwt>
</event>
<event>
 5    1  0.6308903E+000  0.6494764E+02  0.7546771E-02  0.1378169E+00
          2   -1    0    0  501    0  0.00000000000E+00  0.00000000000E+00  0.22299060536E+02  0.22299060536E+02  0.00000000000E+00 0. -1.
         -2   -1    0    0    0  501 -0.00000000000E+00 -0.00000000000E+00 -0.47291183281E+02  0.47291183281E+02  0.00000000000E+00 0.  1.
         23    2    1    2    0    0  0.00000000000E+00  0.00000000000E+00 -0.24992122744E+02  0.69590243817E+02  0.64947639181E+02 0.  0.
        -13    1    3    3    0    0  0.12798083223E+02  0.24509935579E+02 -0.30743410161E+02  0.41348339079E+02  0.00000000000E+00 0.  1.
         13    1    3    3    0    0 -0.12798083223E+02 -0.24509935579E+02  0.57512874170E+01  0.28241904738E+02  0.00000000000E+00 0. -1.
<mgrwt>
<rscale>  0 0.64947639E+02</rscale>
<asrwt>0</asrwt>
<pdfrwt beam="1">  1        2 0.34306247E-02 0.64947639E+02</pdfrwt>
<pdfrwt beam="2">  1       -2 0.72755666E-02 0.64947639E+02</pdfrwt>
<totfact> 0.21962150E+05</totfact>
</mgrwt>
</event>
<event>
 5    1  0.6308903E+000  0.8947898E+02  0.7546771E-02  0.1304118E+00
         -2   -1    0    0    0  501 -0.00000000000E+00  0.00000000000E+00  0.15997376268E+02  0.15997376268E+02  0.00000000000E+00 0.  1.
          2   -1    0    0  501    0  0.00000000000E+00 -0.00000000000E+00 -0.12512189840E+03  0.12512189840E+03  0.00000000000E+00 0. -1.
         23    2    1    2    0    0  0.00000000000E+00  0.00000000000E+00 -0.10912452213E+03  0.14111927466E+03  0.89478982740E+02 0.  0.
        -13    1    3    3    0    0 -0.21540591595E+02 -0.38062760156E+02 -0.39696156989E+02  0.59063996450E+02  0.00000000000E+00 0.  1.
         13    1    3    3    0    0  0.21540591595E+02  0.38062760156E+02 -0.69428365138E+02  0.82055278214E+02  0.00000000000E+00 0. -1.
<mgrwt>
<rscale>  0 0.89478983E+02</rscale>
<asrwt>0</asrwt>
<pdfrwt beam="2">  1        2 0.19249523E-01 0.89478983E+02</pdfrwt>
<pdfrwt beam="1">  1       -2 0.24611348E-02 0.89478983E+02</pdfrwt>
<totfact> 0.13854370E+05</totfact>
</mgrwt>
</event>
<event>
 5    1  0.6308903E+000  0.9370384E+02  0.7546771E-02  0.1294122E+00
          1   -1    0    0  501    0  0.00000000000E+00  0.00000000000E+00  0.23617466032E+03  0.23617466032E+03  0.00000000000E+00 0. -1.
         -1   -1    0    0    0  501 -0.00000000000E+00 -0.00000000000E+00 -0.92944023366E+01  0.92944023366E+01  0.00000000000E+00 0.  1.
         23    2    1    2    0    0  0.00000000000E+00  0.00000000000E+00  0.22688025798E+03  0.24546906266E+03  0.93703838016E+02 0.  0.
        -13    1    3    3    0    0  0.10655050571E+01  0.43762031019E+02  0.69695373064E+02  0.82302464643E+02  0.00000000000E+00 0.  1.
         13    1    3    3    0    0 -0.10655050571E+01 -0.43762031019E+02  0.15718488492E+03  0.16316659801E+03  0.00000000000E+00 0. -1.
<mgrwt>
<rscale>  0 0.93703838E+02</rscale>
<asrwt>0</asrwt>
<pdfrwt beam="1">  1        1 0.36334559E-01 0.93703838E+02</pdfrwt>
<pdfrwt beam="2">  1       -1 0.14299082E-02 0.93703838E+02</pdfrwt>
<totfact> 0.11366590E+05</totfact>
</mgrwt>
</event>
<event>
 5    1  0.6308903E+000  0.9157667E+02  0.7546771E-02  0.1299078E+00
          3   -1    0    0  501    0  0.00000000000E+00  0.00000000000E+00  0.16712427110E+03  0.16712427110E+03  0.00000000000E+00 0. -1.
         -3   -1    0    0    0  501 -0.00000000000E+00 -0.00000000000E+00 -0.12544985357E+02  0.12544985357E+02  0.00000000000E+00 0.  1.
         23    2    1    2    0    0  0.00000000000E+00  0.00000000000E+00  0.15457928574E+03  0.17966925645E+03  0.91576668072E+02 0.  0.
        -13    1    3    3    0    0  0.13989332182E+02  0.43537827281E+02  0.72761090376E+02  0.85938466893E+02  0.00000000000E+00 0.  1.
         13    1    3    3    0    0 -0.13989332182E+02 -0.43537827281E+02  0.81818195364E+02  0.93730789561E+02  0.00000000000E+00 0. -1.
<mgrwt>
<rscale>  0 0.91576668E+02</rscale>
<asrwt>0</asrwt>
<pdfrwt beam="1">  1        3 0.25711425E-01 0.91576668E+02</pdfrwt>
<pdfrwt beam="2">  1       -3 0.19299979E-02 0.91576668E+02</pdfrwt>
<totfact> 0.29236067E+04</totfact>
</mgrwt>
</event>
<event>
 5    1  0.6308903E+000  0.8895066E+02  0.7546771E-02  0.1305413E+00
         -2   -1    0    0    0  501 -0.00000000000E+00  0.00000000000E+00  0.84539709424E+01  0.84539709424E+01  0.00000000000E+00 0.  1.
          2   -1    0    0  501    0  0.00000000000E+00 -0.00000000000E+00 -0.23397939391E+03  0.23397939391E+03  0.00000000000E+00 0. -1.
         23    2    1    2    0    0  0.00000000000E+00  0.00000000000E+00 -0.22552542296E+03  0.24243336485E+03  0.88950660418E+02 0.  0.
        -13    1    3    3    0    0 -0.36651682593E+02 -0.24888384161E+02 -0.10210977652E+03  0.11130671122E+03  0.00000000000E+00 0. -1.
         13    1    3    3    0    0  0.36651682593E+02  0.24888384161E+02 -0.12341564644E+03  0.13112665362E+03  0.00000000000E+00 0.  1.
<mgrwt>
<rscale>  0 0.88950660E+02</rscale>
<asrwt>0</asrwt>
<pdfrwt beam="2">  1        2 0.35996824E-01 0.88950660E+02</pdfrwt>
<pdfrwt beam="1">  1       -2 0.13006111E-02 0.88950660E+02</pdfrwt>
<totfact> 0.17500936E+05</totfact>
</mgrwt>
</event>
<event>
 5    1  0.6308903E+000  0.9142363E+02  0.7546771E-02  0.1299440E+00
          3   -1    0    0  501    0  0.00000000000E+00  0.00000000000E+00  0.13777466038E+03  0.13777466038E+03  0.00000000000E+00 0. -1.
         -3   -1    0    0    0  501 -0.00000000000E+00 -0.00000000000E+00 -0.15166575945E+02  0.15166575945E+02  0.00000000000E+00 0.  1.
         23    2    1    2    0    0  0.00000000000E+00  0.00000000000E+00  0.12260808444E+03  0.15294123633E+03  0.91423626050E+02 0.  0.
        -13    1    3    3    0    0 -0.24090730978E+02 -0.87436293526E+00  0.12627667499E+03  0.12855709422E+03  0.00000000000E+00 0. -1.
         13    1    3    3    0    0  0.24090730978E+02  0.87436293526E+00 -0.36685905481E+01  0.24384142105E+02  0.00000000000E+00 0.  1.
<mgrwt>
<rscale>  0 0.91423626E+02</rscale>
<asrwt>0</asrwt>
<pdfrwt beam="1">  1        3 0.21196101E-01 0.91423626E+02</pdfrwt>
<pdfrwt beam="2">  1       -3 0.23333195E-02 0.91423626E+02</pdfrwt>
<totfact> 0.30900676E+04</totfact>
</mgrwt>
</event>
<event>
 5    1  0.6308903E+000  0.8789556E+02  0.7546771E-02  0.1308029E+00
         -2   -1    0    0    0  501 -0.00000000000E+00  0.00000000000E+00  0.12377575487E+03  0.12377575487E+03  0.00000000000E+00 0.  1.
          2   -1    0    0  501    0  0.00000000000E+00 -0.00000000000E+00 -0.15604084105E+02  0.15604084105E+02  0.00000000000E+00 0. -1.
         23    2    1    2    0    0  0.00000000000E+00  0.00000000000E+00  0.10817167077E+03  0.13937983898E+03  0.87895558232E+02 0.  0.
        -13    1    3    3    0    0 -0.40208421567E+02 -0.75216815840E+01  0.79562300698E+02  0.89462017366E+02  0.00000000000E+00 0.  1.
         13    1    3    3    0    0  0.40208421567E+02  0.75216815840E+01  0.28609370071E+02  0.49917821614E+02  0.00000000000E+00 0. -1.
<mgrwt>
<rscale>  0 0.87895558E+02</rscale>
<asrwt>0</asrwt>
<pdfrwt beam="2">  1        2 0.24006284E-02 0.87895558E+02</pdfrwt>
<pdfrwt beam="1">  1       -2 0.19042423E-01 0.87895558E+02</pdfrwt>
<totfact> 0.81854865E+04</totfact>
</mgrwt>
</event>
<event>
 5    1  0.6308903E+000  0.9366290E+02  0.7546771E-02  0.1294216E+00
          2   -1    0    0  501    0  0.00000000000E+00  0.00000000000E+00  0.29015777233E+03  0.29015777233E+03  0.00000000000E+00 0.  1.
         -2   -1    0    0    0  501 -0.00000000000E+00 -0.00000000000E+00 -0.75585936681E+01  0.75585936681E+01  0.00000000000E+00 0. -1.
         23    2    1    2    0    0  0.00000000000E+00  0.00000000000E+00  0.28259917866E+03  0.29771636600E+03  0.93662899820E+02 0.  0.
        -13    1    3    3    0    0 -0.30539187563E+02  0.33303539582E+02  0.18041270322E+03  0.18598524460E+03  0.00000000000E+00 0. -1.
         13    1    3    3    0    0  0.30539187563E+02 -0.33303539582E+02  0.10218647544E+03  0.11173112140E+03  0.00000000000E+00 0.  1.
<mgrwt>
<rscale>  0 0.93662900E+02</rscale>
<asrwt>0</asrwt>
<pdfrwt beam="1">  1        2 0.44639648E-01 0.93662900E+02</pdfrwt>
<pdfrwt beam="2">  1       -2 0.11628608E-02 0.93662900E+02</pdfrwt>
<totfact> 0.16511795E+05</totfact>
</mgrwt>
</event>
<event>
 5    1  0.6308903E+000  0.8727430E+02  0.7546771E-02  0.1309590E+00
          2   -1    0    0  501    0  0.00000000000E+00  0.00000000000E+00  0.33735509565E+02  0.33735509565E+02  0.00000000000E+00 0. -1.
         -2   -1    0    0    0  501 -0.00000000000E+00 -0.00000000000E+00 -0.56445000472E+02  0.56445000472E+02  0.00000000000E+00 0.  1.
         23    2    1    2    0    0  0.00000000000E+00  0.00000000000E+00 -0.22709490907E+02  0.90180510037E+02  0.87274299844E+02 0.  0.
        -13    1    3    3    0    0  0.73842067250E+01 -0.30856249932E+02  0.19602303576E+02  0.37294570306E+02  0.00000000000E+00 0. -1.
         13    1    3    3    0    0 -0.73842067250E+01  0.30856249932E+02 -0.42311794483E+02  0.52885939731E+02  0.00000000000E+00 0.  1.
<mgrwt>
<rscale>  0 0.87274300E+02</rscale>
<asrwt>0</asrwt>
<pdfrwt beam="1">  1        2 0.51900784E-02 0.87274300E+02</pdfrwt>
<pdfrwt beam="2">  1       -2 0.86838462E-02 0.87274300E+02</pdfrwt>
<totfact> 0.10368645E+05</totfact>
</mgrwt>
</event>
<event>
 5    1  0.6308903E+000  0.9154196E+02  0.7546771E-02  0.1299160E+00
          2   -1    0    0  501    0  0.00000000000E+00  0.00000000000E+00  0.13723347887E+03  0.13723347887E+03  0.00000000000E+00 0.  1.
         -2   -1    0    0    0  501 -0.00000000000E+00 -0.00000000000E+00 -0.15265827893E+02  0.15265827893E+02  0.00000000000E+00 0. -1.
         23    2    1    2    0    0  0.00000000000E+00  0.00000000000E+00  0.12196765098E+03  0.15249930676E+03  0.91541961297E+02 0.  0.
        -13    1    3    3    0    0  0.11408929135E+02  0.20375579173E+02  0.12656287781E+03  0.12869922273E+03  0.00000000000E+00 0.  1.
         13    1    3    3    0    0 -0.11408929135E+02 -0.20375579173E+02 -0.45952268303E+01  0.23800084039E+02  0.00000000000E+00 0. -1.
<mgrwt>
<rscale>  0 0.91541961E+02</rscale>
<asrwt>0</asrwt>
<pdfrwt beam="1">  1        2 0.21112842E-01 0.91541961E+02</pdfrwt>
<pdfrwt beam="2">  1       -2 0.23485890E-02 0.91541961E+02</pdfrwt>
<totfact> 0.13421731E+05</totfact>
</mgrwt>
</event>
<event>
 5    1  0.6308903E+000  0.8850414E+02  0.7546771E-02  0.1306515E+00
          4   -1    0    0  501    0  0.00000000000E+00  0.00000000000E+00  0.74098000203E+01  0.74098000203E+01  0.00000000000E+00 0. -1.
         -4   -1    0    0    0  501 -0.00000000000E+00 -0.00000000000E+00 -0.26427782103E+03  0.26427782103E+03  0.00000000000E+00 0.  1.
         23    2    1    2    0    0  0.00000000000E+00  0.00000000000E+00 -0.25686802101E+03  0.27168762105E+03  0.88504142359E+02 0.  0.
        -13    1    3    3    0    0  0.30870178300E+02  0.29282052984E+02 -0.91108895421E+02  0.10055464862E+03  0.00000000000E+00 0.  1.
         13    1    3    3    0    0 -0.30870178300E+02 -0.29282052984E+02 -0.16575912559E+03  0.17113297243E+03  0.00000000000E+00 0. -1.
<mgrwt>
<rscale>  0 0.88504142E+02</rscale>
<asrwt>0</asrwt>
<pdfrwt beam="1">  1        4 0.11399692E-02 0.88504142E+02</pdfrwt>
<pdfrwt beam="2">  1       -4 0.40658128E-01 0.88504142E+02</pdfrwt>
<totfact> 0.20257956E+04</totfact>
</mgrwt>
</event>
<event>
 5    1  0.6308903E+000  0.9135176E+02  0.7546771E-02  0.1299611E+00
          1   -1    0    0  501    0  0.00000000000E+00  0.00000000000E+00  0.35468224331E+02  0.35468224331E+02  0.00000000000E+00 0. -1.
         -1   -1    0    0    0  501 -0.00000000000E+00 -0.00000000000E+00 -0.58821268742E+02  0.58821268742E+02  0.00000000000E+00 0.  1.
         23    2    1    2    0    0  0.00000000000E+00  0.00000000000E+00 -0.23353044412E+02  0.94289493073E+02  0.91351758717E+02 0.  0.
        -13    1    3    3    0    0  0.11398493332E+02  0.21357718986E+02 -0.51654621972E+02  0.57046277544E+02  0.00000000000E+00 0.  1.
         13    1    3    3    0    0 -0.11398493332E+02 -0.21357718986E+02  0.28301577561E+02  0.37243215529E+02  0.00000000000E+00 0. -1.
<mgrwt>
<rscale>  0 0.91351759E+02</rscale>
<asrwt>0</asrwt>
<pdfrwt beam="1">  1        1 0.54566499E-02 0.91351759E+02</pdfrwt>
<pdfrwt beam="2">  1       -1 0.90494259E-02 0.91351759E+02</pdfrwt>
<totfact> 0.88523122E+04</totfact>
</mgrwt>
</event>
<event>
 5    1  0.6308903E+000  0.9187114E+02  0.7546771E-02  0.1298383E+00
          1   -1    0    0  501    0  0.00000000000E+00  0.00000000000E+00  0.59814581399E+02  0.59814581399E+02  0.00000000000E+00 0. -1.
         -1   -1    0    0    0  501 -0.00000000000E+00 -0.00000000000E+00 -0.35276959796E+02  0.35276959796E+02  0.00000000000E+00 0.  1.
         23    2    1    2    0    0  0.00000000000E+00  0.00000000000E+00  0.24537621603E+02  0.95091541195E+02  0.91871139826E+02 0.  0.
        -13    1    3    3    0    0  0.33136527125E+02 -0.31771975212E+02  0.13934167902E+02  0.47975502852E+02  0.00000000000E+00 0.  1.
         13    1    3    3    0    0 -0.33136527125E+02  0.31771975212E+02  0.10603453701E+02  0.47116038343E+02  0.00000000000E+00 0. -1.
<mgrwt>
<rscale>  0 0.91871140E+02</rscale>
<asrwt>0</asrwt>
<pdfrwt beam="1">  1        1 0.92022433E-02 0.91871140E+02</pdfrwt>
<pdfrwt beam="2">  1       -1 0.54272246E-02 0.91871140E+02</pdfrwt>
<totfact> 0.94317071E+04</totfact>
</mgrwt>
</event>
<event>
 5    1  0.6308903E+000  0.9233287E+02  0.7546771E-02  0.1297299E+00
         -2   -1    0    0    0  501 -0.00000000000E+00  0.00000000000E+00  0.16393581095E+02  0.16393581095E+02  0.00000000000E+00 0.  1.
          2   -1    0    0  501    0  0.00000000000E+00 -0.00000000000E+00 -0.13001061213E+03  0.13001061213E+03  0.00000000000E+00 0. -1.
         23    2    1    2    0    0  0.00000000000E+00  0.00000000000E+00 -0.11361703103E+03  0.14640419322E+03  0.92332865505E+02 0.  0.
        -13    1    3    3    0    0 -0.15688039913E+02  0.34178703226E+02 -0.99267465091E+02  0.10615238093E+03  0.00000000000E+00 0. -1.
         13    1    3    3    0    0  0.15688039913E+02 -0.34178703226E+02 -0.14349565943E+02  0.40251812298E+02  0.00000000000E+00 0.  1.
<mgrwt>
<rscale>  0 0.92332866E+02</rscale>
<asrwt>0</asrwt>
<pdfrwt beam="2">  1        2 0.20001633E-01 0.92332866E+02</pdfrwt>
<pdfrwt beam="1">  1       -2 0.25220894E-02 0.92332866E+02</pdfrwt>
<totfact> 0.12877576E+05</totfact>
</mgrwt>
</event>
<event>
 5    1  0.6308903E+000  0.9275033E+02  0.7546771E-02  0.1296325E+00
          1   -1    0    0  501    0  0.00000000000E+00  0.00000000000E+00  0.16970992614E+03  0.16970992614E+03  0.00000000000E+00 0. -1.
         -1   -1    0    0    0  501 -0.00000000000E+00 -0.00000000000E+00 -0.12672540864E+02  0.12672540864E+02  0.00000000000E+00 0.  1.
         23    2    1    2    0    0  0.00000000000E+00  0.00000000000E+00  0.15703738528E+03  0.18238246701E+03  0.92750330977E+02 0.  0.
        -13    1    3    3    0    0  0.10886462996E+02  0.44139294681E+02  0.96526227810E+02  0.10669632171E+03  0.00000000000E+00 0.  1.
         13    1    3    3    0    0 -0.10886462996E+02 -0.44139294681E+02  0.60511157469E+02  0.75686145296E+02  0.00000000000E+00 0. -1.
<mgrwt>
<rscale>  0 0.92750331E+02</rscale>
<asrwt>0</asrwt>
<pdfrwt beam="1">  1        1 0.26109218E-01 0.92750331E+02</pdfrwt>
<pdfrwt beam="2">  1       -1 0.19496218E-02 0.92750331E+02</pdfrwt>
<totfact> 0.10956768E+05</totfact>
</mgrwt>
</event>
<event>
 5    1  0.6308903E+000  0.9210189E+02  0.7546771E-02  0.1297840E+00
          3   -1    0    0  501    0  0.00000000000E+00  0.00000000000E+00  0.28884450495E+03  0.28884450495E+03  0.00000000000E+00 0. -1.
         -3   -1    0    0    0  501 -0.00000000000E+00 -0.00000000000E+00 -0.73419768800E+01  0.73419768800E+01  0.00000000000E+00 0.  1.
         23    2    1    2    0    0  0.00000000000E+00  0.00000000000E+00  0.28150252807E+03  0.29618648183E+03  0.92101893081E+02 0.  0.
        -13    1    3    3    0    0 -0.24269191458E+02  0.33306238029E+02  0.74658523014E+02  0.85277161095E+02  0.00000000000E+00 0.  1.
         13    1    3    3    0    0  0.24269191458E+02 -0.33306238029E+02  0.20684400506E+03  0.21090932074E+03  0.00000000000E+00 0. -1.
<mgrwt>
<rscale>  0 0.92101893E+02</rscale>
<asrwt>0</asrwt>
<pdfrwt beam="1">  1        3 0.44437607E-01 0.92101893E+02</pdfrwt>
<pdfrwt beam="2">  1       -3 0.11295351E-02 0.92101893E+02</pdfrwt>
<totfact> 0.23531863E+04</totfact>
</mgrwt>
</event>
<event>
 5    1  0.6308903E+000  0.9405697E+02  0.7546771E-02  0.1293314E+00
          1   -1    0    0  501    0  0.00000000000E+00  0.00000000000E+00  0.40592136055E+02  0.40592136055E+02  0.00000000000E+00 0. -1.
         -1   -1    0    0    0  501 -0.00000000000E+00 -0.00000000000E+00 -0.54485391626E+02  0.54485391626E+02  0.00000000000E+00 0.  1.
         23    2    1    2    0    0  0.00000000000E+00  0.00000000000E+00 -0.13893255571E+02  0.95077527681E+02  0.94056970606E+02 0.  0.
        -13    1    3    3    0    0  0.47934777980E+01 -0.41473801453E+02  0.14936002575E+02  0.44341152548E+02  0.00000000000E+00 0. -1.
         13    1    3    3    0    0 -0.47934777980E+01  0.41473801453E+02 -0.28829258146E+02  0.50736375133E+02  0.00000000000E+00 0.  1.
<mgrwt>
<rscale>  0 0.94056971E+02</rscale>
<asrwt>0</asrwt>
<pdfrwt beam="1">  1        1 0.62449440E-02 0.94056971E+02</pdfrwt>
<pdfrwt beam="2">  1       -1 0.83823679E-02 0.94056971E+02</pdfrwt>
<totfact> 0.83203469E+04</totfact>
</mgrwt>
</event>
<event>
 5    1  0.6308903E+000  0.9005865E+02  0.7546771E-02  0.1302710E+00
          1   -1    0    0  501    0  0.00000000000E+00  0.00000000000E+00  0.16117191501E+02  0.16117191501E+02  0.00000000000E+00 0. -1.
         -1   -1    0    0    0  501 -0.00000000000E+00 -0.00000000000E+00 -0.12580603827E+03  0.12580603827E+03  0.00000000000E+00 0.  1.
         23    2    1    2    0    0  0.00000000000E+00  0.00000000000E+00 -0.10968884677E+03  0.14192322977E+03  0.90058647797E+02 0.  0.
        -13    1    3    3    0    0 -0.27431665028E+02 -0.44464085731E+00 -0.11111404172E+03  0.11445096863E+03  0.00000000000E+00 0.  1.
         13    1    3    3    0    0  0.27431665028E+02  0.44464085731E+00  0.14251949530E+01  0.27472261144E+02  0.00000000000E+00 0. -1.
<mgrwt>
<rscale>  0 0.90058648E+02</rscale>
<asrwt>0</asrwt>
<pdfrwt beam="1">  1        1 0.24795679E-02 0.90058648E+02</pdfrwt>
<pdfrwt beam="2">  1       -1 0.19354775E-01 0.90058648E+02</pdfrwt>
<totfact> 0.80285117E+04</totfact>
</mgrwt>
</event>
<event>
 5    1  0.6308903E+000  0.9385580E+02  0.7546771E-02  0.1293774E+00
          2   -1    0    0  501    0  0.00000000000E+00  0.00000000000E+00  0.27969231092E+02  0.27969231092E+02  0.00000000000E+00 0. -1.
         -2   -1    0    0    0  501 -0.00000000000E+00 -0.00000000000E+00 -0.78737510173E+02  0.78737510173E+02  0.00000000000E+00 0.  1.
         23    2    1    2    0    0  0.00000000000E+00  0.00000000000E+00 -0.50768279081E+02  0.10670674127E+03  0.93855796149E+02 0.  0.
        -13    1    3    3    0    0  0.30916805311E+02 -0.34687076514E+02 -0.17912779169E+02  0.49798692606E+02  0.00000000000E+00 0.  1.
         13    1    3    3    0    0 -0.30916805311E+02  0.34687076514E+02 -0.32855499912E+02  0.56908048659E+02  0.00000000000E+00 0. -1.
<mgrwt>
<rscale>  0 0.93855796E+02</rscale>
<asrwt>0</asrwt>
<pdfrwt beam="1">  1        2 0.43029586E-02 0.93855796E+02</pdfrwt>
<pdfrwt beam="2">  1       -2 0.12113463E-01 0.93855796E+02</pdfrwt>
<totfact> 0.79587677E+04</totfact>
</mgrwt>
</event>
<event>
 5    1  0.6308903E+000  0.9014226E+02  0.7546771E-02  0.1302508E+00
          1   -1    0    0  501    0  0.00000000000E+00  0.00000000000E+00  0.11467710279E+03  0.11467710279E+03  0.00000000000E+00 0. -1.
         -1   -1    0    0    0  501 -0.00000000000E+00 -0.00000000000E+00 -0.17714144301E+02  0.17714144301E+02  0.00000000000E+00 0.  1.
         23    2    1    2    0    0  0.00000000000E+00  0.00000000000E+00  0.96962958492E+02  0.13239124709E+03  0.90142259721E+02 0.  0.
        -13    1    3    3    0    0 -0.42547736257E+02 -0.14755577551E+02  0.51177566957E+02  0.68170230227E+02  0.00000000000E+00 0.  1.
         13    1    3    3    0    0  0.42547736257E+02  0.14755577551E+02  0.45785391535E+02  0.64221016868E+02  0.00000000000E+00 0. -1.
<mgrwt>
<rscale>  0 0.90142260E+02</rscale>
<asrwt>0</asrwt>
<pdfrwt beam="1">  1        1 0.17642631E-01 0.90142260E+02</pdfrwt>
<pdfrwt beam="2">  1       -1 0.27252530E-02 0.90142260E+02</pdfrwt>
<totfact> 0.11025714E+05</totfact>
</mgrwt>
</event>
<event>
 5    1  0.6308903E+000  0.9008131E+02  0.7546771E-02  0.1302655E+00
          4   -1    0    0  501    0  0.00000000000E+00  0.00000000000E+00  0.67783662264E+02  0.67783662264E+02  0.00000000000E+00 0.  1.
         -4   -1    0    0    0  501 -0.00000000000E+00 -0.00000000000E+00 -0.29928457821E+02  0.29928457821E+02  0.00000000000E+00 0. -1.
         23    2    1    2    0    0  0.00000000000E+00  0.00000000000E+00  0.37855204443E+02  0.97712120085E+02  0.90081307207E+02 0.  0.
        -13    1    3    3    0    0 -0.41864895229E+02 -0.32357391643E+01  0.36602756274E+02  0.55703691325E+02  0.00000000000E+00 0.  1.
         13    1    3    3    0    0  0.41864895229E+02  0.32357391643E+01  0.12524481690E+01  0.42008428760E+02  0.00000000000E+00 0. -1.
<mgrwt>
<rscale>  0 0.90081307E+02</rscale>
<asrwt>0</asrwt>
<pdfrwt beam="1">  1        4 0.10428256E-01 0.90081307E+02</pdfrwt>
<pdfrwt beam="2">  1       -4 0.46043781E-02 0.90081307E+02</pdfrwt>
<totfact> 0.27484783E+04</totfact>
</mgrwt>
</event>
<event>
 5    1  0.6308903E+000  0.9081873E+02  0.7546771E-02  0.1300881E+00
          1   -1    0    0  501    0  0.00000000000E+00  0.00000000000E+00  0.10623354052E+03  0.10623354052E+03  0.00000000000E+00 0. -1.
         -1   -1    0    0    0  501 -0.00000000000E+00 -0.00000000000E+00 -0.19410162053E+02  0.19410162053E+02  0.00000000000E+00 0.  1.
         23    2    1    2    0    0  0.00000000000E+00  0.00000000000E+00  0.86823378471E+02  0.12564370258E+03  0.90818725757E+02 0.  0.
        -13    1    3    3    0    0  0.44784258426E+02  0.26545679113E+01  0.53128800634E+02  0.69536652137E+02  0.00000000000E+00 0. -1.
         13    1    3    3    0    0 -0.44784258426E+02 -0.26545679113E+01  0.33694577837E+02  0.56107050440E+02  0.00000000000E+00 0.  1.
<mgrwt>
<rscale>  0 0.90818726E+02</rscale>
<asrwt>0</asrwt>
<pdfrwt beam="1">  1        1 0.16343621E-01 0.90818726E+02</pdfrwt>
<pdfrwt beam="2">  1       -1 0.29861788E-02 0.90818726E+02</pdfrwt>
<totfact> 0.10665064E+05</totfact>
</mgrwt>
</event>
<event>
 5    1  0.6308903E+000  0.9449430E+02  0.7546771E-02  0.1292319E+00
          2   -1    0    0  501    0  0.00000000000E+00  0.00000000000E+00  0.62658237497E+02  0.62658237497E+02  0.00000000000E+00 0. -1.
         -2   -1    0    0    0  501 -0.00000000000E+00 -0.00000000000E+00 -0.35626491170E+02  0.35626491170E+02  0.00000000000E+00 0.  1.
         23    2    1    2    0    0  0.00000000000E+00  0.00000000000E+00  0.27031746327E+02  0.98284728667E+02  0.94494299192E+02 0.  0.
        -13    1    3    3    0    0 -0.16465586915E+02  0.41482395894E+02 -0.26105187124E+01  0.44707041163E+02  0.00000000000E+00 0.  1.
         13    1    3    3    0    0  0.16465586915E+02 -0.41482395894E+02  0.29642265040E+02  0.53577687504E+02  0.00000000000E+00 0. -1.
<mgrwt>
<rscale>  0 0.94494299E+02</rscale>
<asrwt>0</asrwt>
<pdfrwt beam="1">  1        2 0.96397288E-02 0.94494299E+02</pdfrwt>
<pdfrwt beam="2">  1       -2 0.54809987E-02 0.94494299E+02</pdfrwt>
<totfact> 0.97008374E+04</totfact>
</mgrwt>
</event>
<event>
 5    1  0.6308903E+000  0.8981753E+02  0.7546771E-02  0.1303294E+00
         -1   -1    0    0    0  501 -0.00000000000E+00  0.00000000000E+00  0.31558323677E+02  0.31558323677E+02  0.00000000000E+00 0. -1.
          1   -1    0    0  501    0  0.00000000000E+00 -0.00000000000E+00 -0.63906984351E+02  0.63906984351E+02  0.00000000000E+00 0.  1.
         23    2    1    2    0    0  0.00000000000E+00  0.00000000000E+00 -0.32348660674E+02  0.95465308027E+02  0.89817532750E+02 0.  0.
        -13    1    3    3    0    0 -0.29915568428E+02  0.33434202984E+02 -0.18302782466E+02  0.48453885392E+02  0.00000000000E+00 0.  1.
         13    1    3    3    0    0  0.29915568428E+02 -0.33434202984E+02 -0.14045878208E+02  0.47011422636E+02  0.00000000000E+00 0. -1.
<mgrwt>
<rscale>  0 0.89817533E+02</rscale>
<asrwt>0</asrwt>
<pdfrwt beam="2">  1        1 0.98318436E-02 0.89817533E+02</pdfrwt>
<pdfrwt beam="1">  1       -1 0.48551268E-02 0.89817533E+02</pdfrwt>
<totfact> 0.10142022E+05</totfact>
</mgrwt>
</event>
<event>
 5    1  0.6308903E+000  0.1143879E+03  0.7546771E-02  0.1252653E+00
         -1   -1    0    0    0  501 -0.00000000000E+00  0.00000000000E+00  0.72594698507E+01  0.72594698507E+01  0.00000000000E+00 0.  1.
          1   -1    0    0  501    0  0.00000000000E+00 -0.00000000000E+00 -0.45060402259E+03  0.45060402259E+03  0.00000000000E+00 0. -1.
         23    2    1    2    0    0  0.00000000000E+00  0.00000000000E+00 -0.44334455274E+03  0.45786349244E+03  0.11438787202E+03 0.  0.
        -13    1    3    3    0    0  0.22428521960E+02  0.49663212945E+02 -0.15214995637E+03  0.16161399240E+03  0.00000000000E+00 0.  1.
         13    1    3    3    0    0 -0.22428521960E+02 -0.49663212945E+02 -0.29119459637E+03  0.29624950004E+03  0.00000000000E+00 0. -1.
<mgrwt>
<rscale>  0 0.11438787E+03</rscale>
<asrwt>0</asrwt>
<pdfrwt beam="2">  1        1 0.69323710E-01 0.11438787E+03</pdfrwt>
<pdfrwt beam="1">  1       -1 0.11168413E-02 0.11438787E+03</pdfrwt>
<totfact> 0.74764300E+04</totfact>
</mgrwt>
</event>
<event>
 5    1  0.6308903E+000  0.9258097E+02  0.7546771E-02  0.1296719E+00
          3   -1    0    0  501    0  0.00000000000E+00  0.00000000000E+00  0.15205099637E+02  0.15205099637E+02  0.00000000000E+00 0. -1.
         -3   -1    0    0    0  501 -0.00000000000E+00 -0.00000000000E+00 -0.14092699878E+03  0.14092699878E+03  0.00000000000E+00 0.  1.
         23    2    1    2    0    0  0.00000000000E+00  0.00000000000E+00 -0.12572189914E+03  0.15613209841E+03  0.92580971219E+02 0.  0.
        -13    1    3    3    0    0 -0.88931326601E-01  0.34524602999E+02 -0.11486379894E+03  0.11994018687E+03  0.00000000000E+00 0.  1.
         13    1    3    3    0    0  0.88931326601E-01 -0.34524602999E+02 -0.10858100203E+02  0.36191911541E+02  0.00000000000E+00 0. -1.
<mgrwt>
<rscale>  0 0.92580971E+02</rscale>
<asrwt>0</asrwt>
<pdfrwt beam="1">  1        3 0.23392460E-02 0.92580971E+02</pdfrwt>
<pdfrwt beam="2">  1       -3 0.21681077E-01 0.92580971E+02</pdfrwt>
<totfact> 0.29680273E+04</totfact>
</mgrwt>
</event>
<event>
 5    1  0.6308903E+000  0.9085578E+02  0.7546771E-02  0.1300792E+00
         -4   -1    0    0    0  501 -0.00000000000E+00  0.00000000000E+00  0.28077157339E+03  0.28077157339E+03  0.00000000000E+00 0.  1.
          4   -1    0    0  501    0  0.00000000000E+00 -0.00000000000E+00 -0.73500792114E+01  0.73500792114E+01  0.00000000000E+00 0. -1.
         23    2    1    2    0    0  0.00000000000E+00  0.00000000000E+00  0.27342149418E+03  0.28812165261E+03  0.90855782529E+02 0.  0.
        -13    1    3    3    0    0 -0.39558982363E+02  0.20575535750E+02  0.10916920090E+03  0.11792446812E+03  0.00000000000E+00 0. -1.
         13    1    3    3    0    0  0.39558982363E+02 -0.20575535750E+02  0.16425229328E+03  0.17019718448E+03  0.00000000000E+00 0.  1.
<mgrwt>
<rscale>  0 0.90855783E+02</rscale>
<asrwt>0</asrwt>
<pdfrwt beam="2">  1        4 0.11307816E-02 0.90855783E+02</pdfrwt>
<pdfrwt beam="1">  1       -4 0.43195618E-01 0.90855783E+02</pdfrwt>
<totfact> 0.18360185E+04</totfact>
</mgrwt>
</event>
<event>
 5    1  0.6308903E+000  0.8667881E+02  0.7546771E-02  0.1311100E+00
         -3   -1    0    0    0  501 -0.00000000000E+00  0.00000000000E+00  0.23610135035E+03  0.23610135035E+03  0.00000000000E+00 0.  1.
          3   -1    0    0  501    0  0.00000000000E+00 -0.00000000000E+00 -0.79554984975E+01  0.79554984975E+01  0.00000000000E+00 0. -1.
         23    2    1    2    0    0  0.00000000000E+00  0.00000000000E+00  0.22814585185E+03  0.24405684885E+03  0.86678807975E+02 0.  0.
        -13    1    3    3    0    0 -0.24899447464E+02  0.35194385923E+02  0.10158317758E+03  0.11035293042E+03  0.00000000000E+00 0.  1.
         13    1    3    3    0    0  0.24899447464E+02 -0.35194385923E+02  0.12656267427E+03  0.13370391843E+03  0.00000000000E+00 0. -1.
<mgrwt>
<rscale>  0 0.86678808E+02</rscale>
<asrwt>0</asrwt>
<pdfrwt beam="2">  1        3 0.12239230E-02 0.86678808E+02</pdfrwt>
<pdfrwt beam="1">  1       -3 0.36323279E-01 0.86678808E+02</pdfrwt>
<totfact> 0.30193906E+04</totfact>
</mgrwt>
</event>
<event>
 5    1  0.6308903E+000  0.9080628E+02  0.7546771E-02  0.1300911E+00
          1   -1    0    0  501    0  0.00000000000E+00  0.00000000000E+00  0.53632616889E+02  0.53632616889E+02  0.00000000000E+00 0. -1.
         -1   -1    0    0    0  501 -0.00000000000E+00 -0.00000000000E+00 -0.38436403778E+02  0.38436403778E+02  0.00000000000E+00 0.  1.
         23    2    1    2    0    0  0.00000000000E+00  0.00000000000E+00  0.15196213111E+02  0.92069020667E+02  0.90806275519E+02 0.  0.
        -13    1    3    3    0    0 -0.45058445090E+02 -0.51788356926E+01  0.97154726239E+01  0.46383986691E+02  0.00000000000E+00 0.  1.
         13    1    3    3    0    0  0.45058445090E+02  0.51788356926E+01  0.54807404875E+01  0.45685033976E+02  0.00000000000E+00 0. -1.
<mgrwt>
<rscale>  0 0.90806276E+02</rscale>
<asrwt>0</asrwt>
<pdfrwt beam="1">  1        1 0.82511719E-02 0.90806276E+02</pdfrwt>
<pdfrwt beam="2">  1       -1 0.59132929E-02 0.90806276E+02</pdfrwt>
<totfact> 0.95836943E+04</totfact>
</mgrwt>
</event>
<event>
 5    1  0.6308903E+000  0.9099862E+02  0.7546771E-02  0.1300451E+00
          2   -1    0    0  501    0  0.00000000000E+00  0.00000000000E+00  0.58565086628E+02  0.58565086628E+02  0.00000000000E+00 0. -1.
         -2   -1    0    0    0  501 -0.00000000000E+00 -0.00000000000E+00 -0.35348488108E+02  0.35348488108E+02  0.00000000000E+00 0.  1.
         23    2    1    2    0    0  0.00000000000E+00  0.00000000000E+00  0.23216598521E+02  0.93913574736E+02  0.90998621269E+02 0.  0.
        -13    1    3    3    0    0  0.15270762425E+02 -0.83084536636E+01 -0.31785718325E+02  0.36229248913E+02  0.00000000000E+00 0.  1.
         13    1    3    3    0    0 -0.15270762425E+02  0.83084536636E+01  0.55002316846E+02  0.57684325824E+02  0.00000000000E+00 0. -1.
<mgrwt>
<rscale>  0 0.90998621E+02</rscale>
<asrwt>0</asrwt>
<pdfrwt beam="1">  1        2 0.90100133E-02 0.90998621E+02</pdfrwt>
<pdfrwt beam="2">  1       -2 0.54382289E-02 0.90998621E+02</pdfrwt>
<totfact> 0.10596843E+05</totfact>
</mgrwt>
</event>
<event>
 5    1  0.6308903E+000  0.9117778E+02  0.7546771E-02  0.1300024E+00
         -2   -1    0    0    0  501 -0.00000000000E+00  0.00000000000E+00  0.15075174862E+03  0.15075174862E+03  0.00000000000E+00 0.  1.
          2   -1    0    0  501    0  0.00000000000E+00 -0.00000000000E+00 -0.13786552441E+02  0.13786552441E+02  0.00000000000E+00 0. -1.
         23    2    1    2    0    0  0.00000000000E+00  0.00000000000E+00  0.13696519618E+03  0.16453830106E+03  0.91177779924E+02 0.  0.
        -13    1    3    3    0    0 -0.41477524037E+02 -0.18866836416E+02  0.65927738164E+02  0.80142430560E+02  0.00000000000E+00 0.  1.
         13    1    3    3    0    0  0.41477524037E+02  0.18866836416E+02  0.71037458018E+02  0.84395870504E+02  0.00000000000E+00 0. -1.
<mgrwt>
<rscale>  0 0.91177780E+02</rscale>
<asrwt>0</asrwt>
<pdfrwt beam="2">  1        2 0.21210082E-02 0.91177780E+02</pdfrwt>
<pdfrwt beam="1">  1       -2 0.23192576E-01 0.91177780E+02</pdfrwt>
<totfact> 0.69727560E+04</totfact>
</mgrwt>
</event>
<event>
 5    1  0.6308903E+000  0.9074580E+02  0.7546771E-02  0.1301056E+00
         -1   -1    0    0    0  501 -0.00000000000E+00  0.00000000000E+00  0.18389226988E+02  0.18389226988E+02  0.00000000000E+00 0.  1.
          1   -1    0    0  501    0  0.00000000000E+00 -0.00000000000E+00 -0.11195142729E+03  0.11195142729E+03  0.00000000000E+00 0. -1.
         23    2    1    2    0    0  0.00000000000E+00  0.00000000000E+00 -0.93562200298E+02  0.13034065427E+03  0.90745803385E+02 0.  0.
        -13    1    3    3    0    0 -0.72780685935E+01 -0.30058141232E+02  0.90491699277E+00  0.30939958170E+02  0.00000000000E+00 0.  1.
         13    1    3    3    0    0  0.72780685935E+01  0.30058141232E+02 -0.94467117291E+02  0.99400696105E+02  0.00000000000E+00 0. -1.
<mgrwt>
<rscale>  0 0.90745803E+02</rscale>
<asrwt>0</asrwt>
<pdfrwt beam="2">  1        1 0.17223297E-01 0.90745803E+02</pdfrwt>
<pdfrwt beam="1">  1       -1 0.28291118E-02 0.90745803E+02</pdfrwt>
<totfact> 0.10783688E+05</totfact>
</mgrwt>
</event>
<event>
 5    1  0.6308903E+000  0.9141204E+02  0.7546771E-02  0.1299468E+00
         -2   -1    0    0    0  501 -0.00000000000E+00  0.00000000000E+00  0.57580064249E+02  0.57580064249E+02  0.00000000000E+00 0.  1.
          2   -1    0    0  501    0  0.00000000000E+00 -0.00000000000E+00 -0.36280619909E+02  0.36280619909E+02  0.00000000000E+00 0. -1.
         23    2    1    2    0    0  0.00000000000E+00  0.00000000000E+00  0.21299444340E+02  0.93860684157E+02  0.91412043524E+02 0.  0.
        -13    1    3    3    0    0  0.45500094127E+02  0.34379664871E+01  0.13359009008E+02  0.47545150129E+02  0.00000000000E+00 0.  1.
         13    1    3    3    0    0 -0.45500094127E+02 -0.34379664871E+01  0.79404353325E+01  0.46315534029E+02  0.00000000000E+00 0. -1.
<mgrwt>
<rscale>  0 0.91412044E+02</rscale>
<asrwt>0</asrwt>
<pdfrwt beam="2">  1        2 0.55816339E-02 0.91412044E+02</pdfrwt>
<pdfrwt beam="1">  1       -2 0.88584714E-02 0.91412044E+02</pdfrwt>
<totfact> 0.92307265E+04</totfact>
</mgrwt>
</event>
<event>
 5    1  0.6308903E+000  0.9185468E+02  0.7546771E-02  0.1298421E+00
         -2   -1    0    0    0  501 -0.00000000000E+00  0.00000000000E+00  0.10288087938E+02  0.10288087938E+02  0.00000000000E+00 0.  1.
          2   -1    0    0  501    0  0.00000000000E+00 -0.00000000000E+00 -0.20502552835E+03  0.20502552835E+03  0.00000000000E+00 0. -1.
         23    2    1    2    0    0  0.00000000000E+00  0.00000000000E+00 -0.19473744041E+03  0.21531361629E+03  0.91854682302E+02 0.  0.
        -13    1    3    3    0    0 -0.38706933460E+02  0.61318567320E+01 -0.15350385228E+03  0.15842745668E+03  0.00000000000E+00 0. -1.
         13    1    3    3    0    0  0.38706933460E+02 -0.61318567320E+01 -0.41233588132E+02  0.56886159609E+02  0.00000000000E+00 0.  1.
<mgrwt>
<rscale>  0 0.91854682E+02</rscale>
<asrwt>0</asrwt>
<pdfrwt beam="2">  1        2 0.31542385E-01 0.91854682E+02</pdfrwt>
<pdfrwt beam="1">  1       -2 0.15827830E-02 0.91854682E+02</pdfrwt>
<totfact> 0.15299310E+05</totfact>
</mgrwt>
</event>
<event>
 5    1  0.6308903E+000  0.9363141E+02  0.7546771E-02  0.1294289E+00
          1   -1    0    0  501    0  0.00000000000E+00  0.00000000000E+00  0.77346222256E+02  0.77346222256E+02  0.00000000000E+00 0. -1.
         -1   -1    0    0    0  501 -0.00000000000E+00 -0.00000000000E+00 -0.28336358165E+02  0.28336358165E+02  0.00000000000E+00 0.  1.
         23    2    1    2    0    0  0.00000000000E+00  0.00000000000E+00  0.49009864092E+02  0.10568258042E+03  0.93631410468E+02 0.  0.
        -13    1    3    3    0    0 -0.18898046393E+02 -0.15175388368E+02 -0.20703782243E+02  0.31875934007E+02  0.00000000000E+00 0.  1.
         13    1    3    3    0    0  0.18898046393E+02  0.15175388368E+02  0.69713646335E+02  0.73806646415E+02  0.00000000000E+00 0. -1.
<mgrwt>
<rscale>  0 0.93631410E+02</rscale>
<asrwt>0</asrwt>
<pdfrwt beam="1">  1        1 0.11899419E-01 0.93631410E+02</pdfrwt>
<pdfrwt beam="2">  1       -1 0.43594398E-02 0.93631410E+02</pdfrwt>
<totfact> 0.93136978E+04</totfact>
</mgrwt>
</event>
<event>
 5    1  0.6308903E+000  0.9103275E+02  0.7546771E-02  0.1300370E+00
          1   -1    0    0  501    0  0.00000000000E+00  0.00000000000E+00  0.23903723844E+02  0.23903723844E+02  0.00000000000E+00 0.  1.
         -1   -1    0    0    0  501 -0.00000000000E+00 -0.00000000000E+00 -0.86670195855E+02  0.86670195855E+02  0.00000000000E+00 0. -1.
         23    2    1    2    0    0  0.00000000000E+00  0.00000000000E+00 -0.62766472011E+02  0.11057391970E+03  0.91032750748E+02 0.  0.
        -13    1    3    3    0    0 -0.23773467954E+02  0.37533552841E+02 -0.19371286518E+02  0.48468465096E+02  0.00000000000E+00 0.  1.
         13    1    3    3    0    0  0.23773467954E+02 -0.37533552841E+02 -0.43395185494E+02  0.62105454603E+02  0.00000000000E+00 0. -1.
<mgrwt>
<rscale>  0 0.91032751E+02</rscale>
<asrwt>0</asrwt>
<pdfrwt beam="1">  1        1 0.36774960E-02 0.91032751E+02</pdfrwt>
<pdfrwt beam="2">  1       -1 0.13333876E-01 0.91032751E+02</pdfrwt>
<totfact> 0.83834049E+04</totfact>
</mgrwt>
</event>
<event>
 5    1  0.6308903E+000  0.8596188E+02  0.7546771E-02  0.1312936E+00
          2   -1    0    0  501    0  0.00000000000E+00  0.00000000000E+00  0.22571798886E+03  0.22571798886E+03  0.00000000000E+00 0.  1.
         -2   -1    0    0    0  501 -0.00000000000E+00 -0.00000000000E+00 -0.81843779125E+01  0.81843779125E+01  0.00000000000E+00 0. -1.
         23    2    1    2    0    0  0.00000000000E+00  0.00000000000E+00  0.21753361095E+03  0.23390236677E+03  0.85961882774E+02 0.  0.
        -13    1    3    3    0    0 -0.67012833014E+01 -0.41675837829E+02  0.86731961185E+02  0.96458362766E+02  0.00000000000E+00 0.  1.
         13    1    3    3    0    0  0.67012833014E+01  0.41675837829E+02  0.13080164977E+03  0.13744400401E+03  0.00000000000E+00 0. -1.
<mgrwt>
<rscale>  0 0.85961883E+02</rscale>
<asrwt>0</asrwt>
<pdfrwt beam="1">  1        2 0.34725840E-01 0.85961883E+02</pdfrwt>
<pdfrwt beam="2">  1       -2 0.12591352E-02 0.85961883E+02</pdfrwt>
<totfact> 0.18922174E+05</totfact>
</mgrwt>
</event>
<event>
 5    1  0.6308903E+000  0.8624376E+02  0.7546771E-02  0.1312212E+00
         -2   -1    0    0    0  501 -0.00000000000E+00  0.00000000000E+00  0.53584878860E+02  0.53584878860E+02  0.00000000000E+00 0.  1.
          2   -1    0    0  501    0  0.00000000000E+00 -0.00000000000E+00 -0.34701887384E+02  0.34701887384E+02  0.00000000000E+00 0. -1.
         23    2    1    2    0    0  0.00000000000E+00  0.00000000000E+00  0.18882991477E+02  0.88286766244E+02  0.86243757610E+02 0.  0.
        -13    1    3    3    0    0 -0.15004621209E+02 -0.26127253031E+02  0.41022326234E+02  0.50897969097E+02  0.00000000000E+00 0.  1.
         13    1    3    3    0    0  0.15004621209E+02  0.26127253031E+02 -0.22139334757E+02  0.37388797147E+02  0.00000000000E+00 0. -1.
<mgrwt>
<rscale>  0 0.86243758E+02</rscale>
<asrwt>0</asrwt>
<pdfrwt beam="2">  1        2 0.53387519E-02 0.86243758E+02</pdfrwt>
<pdfrwt beam="1">  1       -2 0.82438276E-02 0.86243758E+02</pdfrwt>
<totfact> 0.10807644E+05</totfact>
</mgrwt>
</event>
<event>
 5    1  0.6308903E+000  0.9898047E+02  0.7546771E-02  0.1282455E+00
         -1   -1    0    0    0  501 -0.00000000000E+00  0.00000000000E+00  0.19469111905E+02  0.19469111905E+02  0.00000000000E+00 0.  1.
          1   -1    0    0  501    0  0.00000000000E+00 -0.00000000000E+00 -0.12580355299E+03  0.12580355299E+03  0.00000000000E+00 0. -1.
         23    2    1    2    0    0  0.00000000000E+00  0.00000000000E+00 -0.10633444109E+03  0.14527266490E+03  0.98980471839E+02 0.  0.
        -13    1    3    3    0    0 -0.29089799974E+02 -0.20587645550E+02 -0.27671626111E+01  0.35745276621E+02  0.00000000000E+00 0.  1.
         13    1    3    3    0    0  0.29089799974E+02  0.20587645550E+02 -0.10356727848E+03  0.10952738828E+03  0.00000000000E+00 0. -1.
<mgrwt>
<rscale>  0 0.98980472E+02</rscale>
<asrwt>0</asrwt>
<pdfrwt beam="2">  1        1 0.19354393E-01 0.98980472E+02</pdfrwt>
<pdfrwt beam="1">  1       -1 0.29952479E-02 0.98980472E+02</pdfrwt>
<totfact> 0.86855157E+04</totfact>
</mgrwt>
</event>
<event>
 5    1  0.6308903E+000  0.9174837E+02  0.7546771E-02  0.1298672E+00
          4   -1    0    0  501    0  0.00000000000E+00  0.00000000000E+00  0.12342525761E+02  0.12342525761E+02  0.00000000000E+00 0.  1.
         -4   -1    0    0    0  501 -0.00000000000E+00 -0.00000000000E+00 -0.17050325379E+03  0.17050325379E+03  0.00000000000E+00 0. -1.
         23    2    1    2    0    0  0.00000000000E+00  0.00000000000E+00 -0.15816072803E+03  0.18284577955E+03  0.91748368969E+02 0.  0.
        -13    1    3    3    0    0 -0.11981212491E+02 -0.38808496675E+02 -0.12158075891E+03  0.12818552884E+03  0.00000000000E+00 0. -1.
         13    1    3    3    0    0  0.11981212491E+02  0.38808496675E+02 -0.36579969120E+02  0.54660250711E+02  0.00000000000E+00 0.  1.
<mgrwt>
<rscale>  0 0.91748369E+02</rscale>
<asrwt>0</asrwt>
<pdfrwt beam="1">  1        4 0.18988502E-02 0.91748369E+02</pdfrwt>
<pdfrwt beam="2">  1       -4 0.26231268E-01 0.91748369E+02</pdfrwt>
<totfact> 0.21756092E+04</totfact>
</mgrwt>
</event>
<event>
 5    1  0.6308903E+000  0.9043820E+02  0.7546771E-02  0.1301794E+00
         -2   -1    0    0    0  501 -0.00000000000E+00  0.00000000000E+00  0.49404206036E+01  0.49404206036E+01  0.00000000000E+00 0.  1.
          2   -1    0    0  501    0  0.00000000000E+00 -0.00000000000E+00 -0.41388519789E+03  0.41388519789E+03  0.00000000000E+00 0. -1.
         23    2    1    2    0    0  0.00000000000E+00  0.00000000000E+00 -0.40894477729E+03  0.41882561850E+03  0.90438198991E+02 0.  0.
        -13    1    3    3    0    0 -0.21986475835E+02 -0.38197121395E+02 -0.15762258587E+03  0.16366827664E+03  0.00000000000E+00 0.  1.
         13    1    3    3    0    0  0.21986475835E+02  0.38197121395E+02 -0.25132219142E+03  0.25515734186E+03  0.00000000000E+00 0. -1.
<mgrwt>
<rscale>  0 0.90438199E+02</rscale>
<asrwt>0</asrwt>
<pdfrwt beam="2">  1        2 0.63674646E-01 0.90438199E+02</pdfrwt>
<pdfrwt beam="1">  1       -2 0.76006471E-03 0.90438199E+02</pdfrwt>
<totfact> 0.20646785E+05</totfact>
</mgrwt>
</event>
<event>
 5    1  0.6308903E+000  0.9325834E+02  0.7546771E-02  0.1295148E+00
         -2   -1    0    0    0  501 -0.00000000000E+00  0.00000000000E+00  0.23414884477E+02  0.23414884477E+02  0.00000000000E+00 0.  1.
          2   -1    0    0  501    0  0.00000000000E+00 -0.00000000000E+00 -0.92858860039E+02  0.92858860039E+02  0.00000000000E+00 0. -1.
         23    2    1    2    0    0  0.00000000000E+00  0.00000000000E+00 -0.69443975561E+02  0.11627374452E+03  0.93258339692E+02 0.  0.
        -13    1    3    3    0    0 -0.31155033261E+02  0.20938433135E+02 -0.23234722048E+00  0.37538088189E+02  0.00000000000E+00 0.  1.
         13    1    3    3    0    0  0.31155033261E+02 -0.20938433135E+02 -0.69211628341E+02  0.78735656327E+02  0.00000000000E+00 0. -1.
<mgrwt>
<rscale>  0 0.93258340E+02</rscale>
<asrwt>0</asrwt>
<pdfrwt beam="2">  1        2 0.14285978E-01 0.93258340E+02</pdfrwt>
<pdfrwt beam="1">  1       -2 0.36022900E-02 0.93258340E+02</pdfrwt>
<totfact> 0.11269994E+05</totfact>
</mgrwt>
</event>
<event>
 5    1  0.6308903E+000  0.9137659E+02  0.7546771E-02  0.1299552E+00
          2   -1    0    0  501    0  0.00000000000E+00  0.00000000000E+00  0.12817897294E+02  0.12817897294E+02  0.00000000000E+00 0. -1.
         -2   -1    0    0    0  501 -0.00000000000E+00 -0.00000000000E+00 -0.16285200543E+03  0.16285200543E+03  0.00000000000E+00 0.  1.
         23    2    1    2    0    0  0.00000000000E+00  0.00000000000E+00 -0.15003410814E+03  0.17566990273E+03  0.91376589556E+02 0.  0.
        -13    1    3    3    0    0  0.44327920050E+02  0.10883592375E+02 -0.71170550826E+02  0.84549774593E+02  0.00000000000E+00 0. -1.
         13    1    3    3    0    0 -0.44327920050E+02 -0.10883592375E+02 -0.78863557315E+02  0.91120128135E+02  0.00000000000E+00 0.  1.
<mgrwt>
<rscale>  0 0.91376590E+02</rscale>
<asrwt>0</asrwt>
<pdfrwt beam="1">  1        2 0.19719844E-02 0.91376590E+02</pdfrwt>
<pdfrwt beam="2">  1       -2 0.25054152E-01 0.91376590E+02</pdfrwt>
<totfact> 0.67373286E+04</totfact>
</mgrwt>
</event>
<event>
 5    1  0.6308903E+000  0.8935056E+02  0.7546771E-02  0.1304432E+00
         -4   -1    0    0    0  501 -0.00000000000E+00  0.00000000000E+00  0.77485572698E+02  0.77485572698E+02  0.00000000000E+00 0.  1.
          4   -1    0    0  501    0  0.00000000000E+00 -0.00000000000E+00 -0.25758093628E+02  0.25758093628E+02  0.00000000000E+00 0. -1.
         23    2    1    2    0    0  0.00000000000E+00  0.00000000000E+00  0.51727479070E+02  0.10324366633E+03  0.89350559850E+02 0.  0.
        -13    1    3    3    0    0  0.30206924128E+02 -0.10829253536E+02  0.61779770596E+02  0.69616600407E+02  0.00000000000E+00 0.  1.
         13    1    3    3    0    0 -0.30206924128E+02  0.10829253536E+02 -0.10052291525E+02  0.33627065919E+02  0.00000000000E+00 0. -1.
<mgrwt>
<rscale>  0 0.89350560E+02</rscale>
<asrwt>0</asrwt>
<pdfrwt beam="2">  1        4 0.39627836E-02 0.89350560E+02</pdfrwt>
<pdfrwt beam="1">  1       -4 0.11920857E-01 0.89350560E+02</pdfrwt>
<totfact> 0.27733395E+04</totfact>
</mgrwt>
</event>
<event>
 5    1  0.6308903E+000  0.1007034E+03  0.7546771E-02  0.1278824E+00
          2   -1    0    0  501    0  0.00000000000E+00  0.00000000000E+00  0.85517076031E+02  0.85517076031E+02  0.00000000000E+00 0. -1.
         -2   -1    0    0    0  501 -0.00000000000E+00 -0.00000000000E+00 -0.29646645603E+02  0.29646645603E+02  0.00000000000E+00 0.  1.
         23    2    1    2    0    0  0.00000000000E+00  0.00000000000E+00  0.55870430428E+02  0.11516372163E+03  0.10070341496E+03 0.  0.
        -13    1    3    3    0    0 -0.37262071796E+02  0.27364882580E+02  0.50749699556E+02  0.68650060438E+02  0.00000000000E+00 0. -1.
         13    1    3    3    0    0  0.37262071796E+02 -0.27364882580E+02  0.51207308726E+01  0.46513661196E+02  0.00000000000E+00 0.  1.
<mgrwt>
<rscale>  0 0.10070341E+03</rscale>
<asrwt>0</asrwt>
<pdfrwt beam="1">  1        2 0.13156473E-01 0.10070341E+03</pdfrwt>
<pdfrwt beam="2">  1       -2 0.45610224E-02 0.10070341E+03</pdfrwt>
<totfact> 0.88692168E+04</totfact>
</mgrwt>
</event>
<event>
 5    1  0.6308903E+000  0.8908104E+02  0.7546771E-02  0.1305092E+00
         -4   -1    0    0    0  501 -0.00000000000E+00  0.00000000000E+00  0.33804098025E+02  0.33804098025E+02  0.00000000000E+00 0.  1.
          4   -1    0    0  501    0  0.00000000000E+00 -0.00000000000E+00 -0.58686899739E+02  0.58686899739E+02  0.00000000000E+00 0. -1.
         23    2    1    2    0    0  0.00000000000E+00  0.00000000000E+00 -0.24882801715E+02  0.92490997764E+02  0.89081035278E+02 0.  0.
        -13    1    3    3    0    0 -0.27975116529E+02 -0.19527508018E+02  0.17289071004E+02  0.38247126564E+02  0.00000000000E+00 0.  1.
         13    1    3    3    0    0  0.27975116529E+02  0.19527508018E+02 -0.42171872719E+02  0.54243871200E+02  0.00000000000E+00 0. -1.
<mgrwt>
<rscale>  0 0.89081035E+02</rscale>
<asrwt>0</asrwt>
<pdfrwt beam="2">  1        4 0.90287538E-02 0.89081035E+02</pdfrwt>
<pdfrwt beam="1">  1       -4 0.52006304E-02 0.89081035E+02</pdfrwt>
<totfact> 0.28680230E+04</totfact>
</mgrwt>
</event>
<event>
 5    1  0.6308903E+000  0.9375667E+02  0.7546771E-02  0.1294001E+00
         -3   -1    0    0    0  501 -0.00000000000E+00  0.00000000000E+00  0.18451362487E+02  0.18451362487E+02  0.00000000000E+00 0.  1.
          3   -1    0    0  501    0  0.00000000000E+00 -0.00000000000E+00 -0.11910113622E+03  0.11910113622E+03  0.00000000000E+00 0. -1.
         23    2    1    2    0    0  0.00000000000E+00  0.00000000000E+00 -0.10064977374E+03  0.13755249871E+03  0.93756668819E+02 0.  0.
        -13    1    3    3    0    0  0.44340633851E+02 -0.14678819617E+02 -0.44452972729E+02  0.64479658344E+02  0.00000000000E+00 0.  1.
         13    1    3    3    0    0 -0.44340633851E+02  0.14678819617E+02 -0.56196801007E+02  0.73072840365E+02  0.00000000000E+00 0. -1.
<mgrwt>
<rscale>  0 0.93756669E+02</rscale>
<asrwt>0</asrwt>
<pdfrwt beam="2">  1        3 0.18323251E-01 0.93756669E+02</pdfrwt>
<pdfrwt beam="1">  1       -3 0.28386712E-02 0.93756669E+02</pdfrwt>
<totfact> 0.29741555E+04</totfact>
</mgrwt>
</event>
<event>
 5    1  0.6308903E+000  0.9324849E+02  0.7546771E-02  0.1295170E+00
         -2   -1    0    0    0  501 -0.00000000000E+00  0.00000000000E+00  0.44888920118E+02  0.44888920118E+02  0.00000000000E+00 0.  1.
          2   -1    0    0  501    0  0.00000000000E+00 -0.00000000000E+00 -0.48426651862E+02  0.48426651862E+02  0.00000000000E+00 0. -1.
         23    2    1    2    0    0  0.00000000000E+00  0.00000000000E+00 -0.35377317439E+01  0.93315571980E+02  0.93248487538E+02 0.  0.
        -13    1    3    3    0    0  0.35905333449E+01  0.45983983218E+02 -0.85856284967E+01  0.46916219572E+02  0.00000000000E+00 0. -1.
         13    1    3    3    0    0 -0.35905333449E+01 -0.45983983218E+02  0.50478967529E+01  0.46399352408E+02  0.00000000000E+00 0.  1.
<mgrwt>
<rscale>  0 0.93248488E+02</rscale>
<asrwt>0</asrwt>
<pdfrwt beam="2">  1        2 0.74502541E-02 0.93248488E+02</pdfrwt>
<pdfrwt beam="1">  1       -2 0.69059878E-02 0.93248488E+02</pdfrwt>
<totfact> 0.93983394E+04</totfact>
</mgrwt>
</event>
<event>
 5    1  0.6308903E+000  0.9051190E+02  0.7546771E-02  0.1301617E+00
         -1   -1    0    0    0  501 -0.00000000000E+00  0.00000000000E+00  0.82088869333E+01  0.82088869333E+01  0.00000000000E+00 0.  1.
          1   -1    0    0  501    0  0.00000000000E+00 -0.00000000000E+00 -0.24949802932E+03  0.24949802932E+03  0.00000000000E+00 0. -1.
         23    2    1    2    0    0  0.00000000000E+00  0.00000000000E+00 -0.24128914238E+03  0.25770691625E+03  0.90511902262E+02 0.  0.
        -13    1    3    3    0    0 -0.26990071418E+01 -0.44833343719E+02 -0.10484630390E+03  0.11406165346E+03  0.00000000000E+00 0. -1.
         13    1    3    3    0    0  0.26990071418E+01  0.44833343719E+02 -0.13644283849E+03  0.14364526279E+03  0.00000000000E+00 0.  1.
<mgrwt>
<rscale>  0 0.90511902E+02</rscale>
<asrwt>0</asrwt>
<pdfrwt beam="2">  1        1 0.38384315E-01 0.90511902E+02</pdfrwt>
<pdfrwt beam="1">  1       -1 0.12629056E-02 0.90511902E+02</pdfrwt>
<totfact> 0.12606081E+05</totfact>
</mgrwt>
</event>
<event>
 5    1  0.6308903E+000  0.9286925E+02  0.7546771E-02  0.1296048E+00
          2   -1    0    0  501    0  0.00000000000E+00  0.00000000000E+00  0.20559365207E+03  0.20559365207E+03  0.00000000000E+00 0. -1.
         -2   -1    0    0    0  501 -0.00000000000E+00 -0.00000000000E+00 -0.10487553470E+02  0.10487553470E+02  0.00000000000E+00 0.  1.
         23    2    1    2    0    0  0.00000000000E+00  0.00000000000E+00  0.19510609860E+03  0.21608120554E+03  0.92869250436E+02 0.  0.
        -13    1    3    3    0    0 -0.16112474248E+02 -0.36280413324E+02  0.15360221720E+03  0.15864905088E+03  0.00000000000E+00 0. -1.
         13    1    3    3    0    0  0.16112474248E+02  0.36280413324E+02  0.41503881406E+02  0.57432154662E+02  0.00000000000E+00 0.  1.
<mgrwt>
<rscale>  0 0.92869250E+02</rscale>
<asrwt>0</asrwt>
<pdfrwt beam="1">  1        2 0.31629790E-01 0.92869250E+02</pdfrwt>
<pdfrwt beam="2">  1       -2 0.16134699E-02 0.92869250E+02</pdfrwt>
<totfact> 0.14867711E+05</totfact>
</mgrwt>
</event>
<event>
 5    1  0.6308903E+000  0.9143521E+02  0.7546771E-02  0.1299413E+00
          4   -1    0    0  501    0  0.00000000000E+00  0.00000000000E+00  0.21840811387E+02  0.21840811387E+02  0.00000000000E+00 0. -1.
         -4   -1    0    0    0  501 -0.00000000000E+00 -0.00000000000E+00 -0.95696956581E+02  0.95696956581E+02  0.00000000000E+00 0.  1.
         23    2    1    2    0    0  0.00000000000E+00  0.00000000000E+00 -0.73856145194E+02  0.11753776797E+03  0.91435205014E+02 0.  0.
        -13    1    3    3    0    0 -0.35012784714E+02 -0.29378711151E+02 -0.38273479557E+02  0.59614285198E+02  0.00000000000E+00 0.  1.
         13    1    3    3    0    0  0.35012784714E+02  0.29378711151E+02 -0.35582665637E+02  0.57923482770E+02  0.00000000000E+00 0. -1.
<mgrwt>
<rscale>  0 0.91435205E+02</rscale>
<asrwt>0</asrwt>
<pdfrwt beam="1">  1        4 0.33601248E-02 0.91435205E+02</pdfrwt>
<pdfrwt beam="2">  1       -4 0.14722609E-01 0.91435205E+02</pdfrwt>
<totfact> 0.25219058E+04</totfact>
</mgrwt>
</event>
<event>
 5    1  0.6308903E+000  0.9002266E+02  0.7546771E-02  0.1302797E+00
          1   -1    0    0  501    0  0.00000000000E+00  0.00000000000E+00  0.15541385019E+03  0.15541385019E+03  0.00000000000E+00 0. -1.
         -1   -1    0    0    0  501 -0.00000000000E+00 -0.00000000000E+00 -0.13036289117E+02  0.13036289117E+02  0.00000000000E+00 0.  1.
         23    2    1    2    0    0  0.00000000000E+00  0.00000000000E+00  0.14237756108E+03  0.16845013931E+03  0.90022661233E+02 0.  0.
        -13    1    3    3    0    0 -0.71498787345E+01  0.44190836581E+02  0.62398319695E+02  0.76795189331E+02  0.00000000000E+00 0.  1.
         13    1    3    3    0    0  0.71498787345E+01 -0.44190836581E+02  0.79979241383E+02  0.91654949980E+02  0.00000000000E+00 0. -1.
<mgrwt>
<rscale>  0 0.90022661E+02</rscale>
<asrwt>0</asrwt>
<pdfrwt beam="1">  1        1 0.23909822E-01 0.90022661E+02</pdfrwt>
<pdfrwt beam="2">  1       -1 0.20055830E-02 0.90022661E+02</pdfrwt>
<totfact> 0.11680661E+05</totfact>
</mgrwt>
</event>
<event>
 5    1  0.6308903E+000  0.9196910E+02  0.7546771E-02  0.1298152E+00
         -2   -1    0    0    0  501 -0.00000000000E+00  0.00000000000E+00  0.46061408494E+02  0.46061408494E+02  0.00000000000E+00 0.  1.
          2   -1    0    0  501    0  0.00000000000E+00 -0.00000000000E+00 -0.45907824299E+02  0.45907824299E+02  0.00000000000E+00 0. -1.
         23    2    1    2    0    0  0.00000000000E+00  0.00000000000E+00  0.15358419433E+00  0.91969232793E+02  0.91969104554E+02 0.  0.
        -13    1    3    3    0    0  0.33392518166E+02  0.48748924805E+01 -0.31160316012E+02  0.45932451929E+02  0.00000000000E+00 0. -1.
         13    1    3    3    0    0 -0.33392518166E+02 -0.48748924805E+01  0.31313900207E+02  0.46036780864E+02  0.00000000000E+00 0.  1.
<mgrwt>
<rscale>  0 0.91969105E+02</rscale>
<asrwt>0</asrwt>
<pdfrwt beam="2">  1        2 0.70627422E-02 0.91969105E+02</pdfrwt>
<pdfrwt beam="1">  1       -2 0.70863706E-02 0.91969105E+02</pdfrwt>
<totfact> 0.96426180E+04</totfact>
</mgrwt>
</event>
<event>
 5    1  0.6308903E+000  0.9079738E+02  0.7546771E-02  0.1300932E+00
         -4   -1    0    0    0  501 -0.00000000000E+00  0.00000000000E+00  0.35296715497E+02  0.35296715497E+02  0.00000000000E+00 0.  1.
          4   -1    0    0  501    0  0.00000000000E+00 -0.00000000000E+00 -0.58391862216E+02  0.58391862216E+02  0.00000000000E+00 0. -1.
         23    2    1    2    0    0  0.00000000000E+00  0.00000000000E+00 -0.23095146719E+02  0.93688577713E+02  0.90797377671E+02 0.  0.
        -13    1    3    3    0    0 -0.19373144959E+02 -0.17462856260E+02  0.26794372154E+02  0.37392625924E+02  0.00000000000E+00 0.  1.
         13    1    3    3    0    0  0.19373144959E+02  0.17462856260E+02 -0.49889518873E+02  0.56295951789E+02  0.00000000000E+00 0. -1.
<mgrwt>
<rscale>  0 0.90797378E+02</rscale>
<asrwt>0</asrwt>
<pdfrwt beam="2">  1        4 0.89833633E-02 0.90797378E+02</pdfrwt>
<pdfrwt beam="1">  1       -4 0.54302640E-02 0.90797378E+02</pdfrwt>
<totfact> 0.27160803E+04</totfact>
</mgrwt>
</event>
<event>
 5    1  0.6308903E+000  0.8995560E+02  0.7546771E-02  0.1302959E+00
         -1   -1    0    0    0  501 -0.00000000000E+00  0.00000000000E+00  0.22067791567E+03  0.22067791567E+03  0.00000000000E+00 0.  1.
          1   -1    0    0  501    0  0.00000000000E+00 -0.00000000000E+00 -0.91672174589E+01  0.91672174589E+01  0.00000000000E+00 0. -1.
         23    2    1    2    0    0  0.00000000000E+00  0.00000000000E+00  0.21151069821E+03  0.22984513313E+03  0.89955598855E+02 0.  0.
        -13    1    3    3    0    0 -0.23146072272E+02  0.24502422361E+02  0.18184800554E+03  0.18494541487E+03  0.00000000000E+00 0.  1.
         13    1    3    3    0    0  0.23146072272E+02 -0.24502422361E+02  0.29662692673E+02  0.44899718259E+02  0.00000000000E+00 0. -1.
<mgrwt>
<rscale>  0 0.89955599E+02</rscale>
<asrwt>0</asrwt>
<pdfrwt beam="2">  1        1 0.14103413E-02 0.89955599E+02</pdfrwt>
<pdfrwt beam="1">  1       -1 0.33950444E-01 0.89955599E+02</pdfrwt>
<totfact> 0.69838642E+04</totfact>
</mgrwt>
</event>
<event>
 5    1  0.6308903E+000  0.9166355E+02  0.7546771E-02  0.1298872E+00
          1   -1    0    0  501    0  0.00000000000E+00  0.00000000000E+00  0.44613807015E+02  0.44613807015E+02  0.00000000000E+00 0. -1.
         -1   -1    0    0    0  501 -0.00000000000E+00 -0.00000000000E+00 -0.47082992118E+02  0.47082992118E+02  0.00000000000E+00 0.  1.
         23    2    1    2    0    0  0.00000000000E+00  0.00000000000E+00 -0.24691851028E+01  0.91696799134E+02  0.91663548351E+02 0.  0.
        -13    1    3    3    0    0 -0.13232754157E+02  0.27157669671E+02  0.33243932617E+02  0.44919971732E+02  0.00000000000E+00 0. -1.
         13    1    3    3    0    0  0.13232754157E+02 -0.27157669671E+02 -0.35713117720E+02  0.46776827402E+02  0.00000000000E+00 0.  1.
<mgrwt>
<rscale>  0 0.91663548E+02</rscale>
<asrwt>0</asrwt>
<pdfrwt beam="1">  1        1 0.68636626E-02 0.91663548E+02</pdfrwt>
<pdfrwt beam="2">  1       -1 0.72435372E-02 0.91663548E+02</pdfrwt>
<totfact> 0.90801661E+04</totfact>
</mgrwt>
</event>
<event>
 5    1  0.6308903E+000  0.8944565E+02  0.7546771E-02  0.1304200E+00
          2   -1    0    0  501    0  0.00000000000E+00  0.00000000000E+00  0.95476049248E+02  0.95476049248E+02  0.00000000000E+00 0. -1.
         -2   -1    0    0    0  501 -0.00000000000E+00 -0.00000000000E+00 -0.20949036155E+02  0.20949036155E+02  0.00000000000E+00 0.  1.
         23    2    1    2    0    0  0.00000000000E+00  0.00000000000E+00  0.74527013092E+02  0.11642508540E+03  0.89445652944E+02 0.  0.
        -13    1    3    3    0    0 -0.43531418133E+02 -0.96062984770E+01  0.32594688494E+02  0.55223899293E+02  0.00000000000E+00 0. -1.
         13    1    3    3    0    0  0.43531418133E+02  0.96062984770E+01  0.41932324598E+02  0.61201186110E+02  0.00000000000E+00 0.  1.
<mgrwt>
<rscale>  0 0.89445653E+02</rscale>
<asrwt>0</asrwt>
<pdfrwt beam="1">  1        2 0.14688623E-01 0.89445653E+02</pdfrwt>
<pdfrwt beam="2">  1       -2 0.32229287E-02 0.89445653E+02</pdfrwt>
<totfact> 0.12752314E+05</totfact>
</mgrwt>
</event>
<event>
 5    1  0.6308903E+000  0.8848444E+02  0.7546771E-02  0.1306564E+00
          1   -1    0    0  501    0  0.00000000000E+00  0.00000000000E+00  0.22804871046E+03  0.22804871046E+03  0.00000000000E+00 0. -1.
         -1   -1    0    0    0  501 -0.00000000000E+00 -0.00000000000E+00 -0.85831397820E+01  0.85831397820E+01  0.00000000000E+00 0.  1.
         23    2    1    2    0    0  0.00000000000E+00  0.00000000000E+00  0.21946557068E+03  0.23663185024E+03  0.88484438383E+02 0.  0.
        -13    1    3    3    0    0  0.89573391439E+01  0.39590929828E+02  0.15679536389E+03  0.16196438432E+03  0.00000000000E+00 0. -1.
         13    1    3    3    0    0 -0.89573391439E+01 -0.39590929828E+02  0.62670206789E+02  0.74667465928E+02  0.00000000000E+00 0.  1.
<mgrwt>
<rscale>  0 0.88484438E+02</rscale>
<asrwt>0</asrwt>
<pdfrwt beam="1">  1        1 0.35084412E-01 0.88484438E+02</pdfrwt>
<pdfrwt beam="2">  1       -1 0.13204832E-02 0.88484438E+02</pdfrwt>
<totfact> 0.13159194E+05</totfact>
</mgrwt>
</event>
<event>
 5    1  0.6308903E+000  0.8981642E+02  0.7546771E-02  0.1303297E+00
         -2   -1    0    0    0  501 -0.00000000000E+00  0.00000000000E+00  0.99218793212E+02  0.99218793212E+02  0.00000000000E+00 0. -1.
          2   -1    0    0  501    0  0.00000000000E+00 -0.00000000000E+00 -0.20326262680E+02  0.20326262680E+02  0.00000000000E+00 0.  1.
         23    2    1    2    0    0  0.00000000000E+00  0.00000000000E+00  0.78892530532E+02  0.11954505589E+03  0.89816418400E+02 0.  0.
        -13    1    3    3    0    0 -0.31339575806E+02  0.27221841771E+02  0.62250558284E+02  0.74821986660E+02  0.00000000000E+00 0. -1.
         13    1    3    3    0    0  0.31339575806E+02 -0.27221841771E+02  0.16641972248E+02  0.44723069231E+02  0.00000000000E+00 0.  1.
<mgrwt>
<rscale>  0 0.89816418E+02</rscale>
<asrwt>0</asrwt>
<pdfrwt beam="2">  1        2 0.31271174E-02 0.89816418E+02</pdfrwt>
<pdfrwt beam="1">  1       -2 0.15264429E-01 0.89816418E+02</pdfrwt>
<totfact> 0.83038536E+04</totfact>
</mgrwt>
</event>
<event>
 5    1  0.6308903E+000  0.9114344E+02  0.7546771E-02  0.1300106E+00
         -1   -1    0    0    0  501 -0.00000000000E+00  0.00000000000E+00  0.10352263436E+02  0.10352263436E+02  0.00000000000E+00 0.  1.
          1   -1    0    0  501    0  0.00000000000E+00 -0.00000000000E+00 -0.20061136906E+03  0.20061136906E+03  0.00000000000E+00 0. -1.
         23    2    1    2    0    0  0.00000000000E+00  0.00000000000E+00 -0.19025910563E+03  0.21096363250E+03  0.91143441690E+02 0.  0.
        -13    1    3    3    0    0 -0.25646776510E+02 -0.25734131692E+02 -0.31454879642E+02  0.48056343313E+02  0.00000000000E+00 0.  1.
         13    1    3    3    0    0  0.25646776510E+02  0.25734131692E+02 -0.15880422599E+03  0.16290728919E+03  0.00000000000E+00 0. -1.
<mgrwt>
<rscale>  0 0.91143442E+02</rscale>
<asrwt>0</asrwt>
<pdfrwt beam="2">  1        1 0.30863284E-01 0.91143442E+02</pdfrwt>
<pdfrwt beam="1">  1       -1 0.15926561E-02 0.91143442E+02</pdfrwt>
<totfact> 0.11859269E+05</totfact>
</mgrwt>
</event>
<event>
 5    1  0.6308903E+000  0.9116459E+02  0.7546771E-02  0.1300056E+00
         -2   -1    0    0    0  501 -0.00000000000E+00  0.00000000000E+00  0.16550453983E+03  0.16550453983E+03  0.00000000000E+00 0.  1.
          2   -1    0    0  501    0  0.00000000000E+00 -0.00000000000E+00 -0.12554008555E+02  0.12554008555E+02  0.00000000000E+00 0. -1.
         23    2    1    2    0    0  0.00000000000E+00  0.00000000000E+00  0.15295053128E+03  0.17805854839E+03  0.91164585426E+02 0.  0.
        -13    1    3    3    0    0 -0.22334653988E+02 -0.23198876964E+02  0.13466093508E+02  0.34905018773E+02  0.00000000000E+00 0. -1.
         13    1    3    3    0    0  0.22334653988E+02  0.23198876964E+02  0.13948443777E+03  0.14315352961E+03  0.00000000000E+00 0.  1.
<mgrwt>
<rscale>  0 0.91164585E+02</rscale>
<asrwt>0</asrwt>
<pdfrwt beam="2">  1        2 0.19313860E-02 0.91164585E+02</pdfrwt>
<pdfrwt beam="1">  1       -2 0.25462235E-01 0.91164585E+02</pdfrwt>
<totfact> 0.67353577E+04</totfact>
</mgrwt>
</event>
<event>
 5    1  0.6308903E+000  0.9110596E+02  0.7546771E-02  0.1300195E+00
          4   -1    0    0  501    0  0.00000000000E+00  0.00000000000E+00  0.63825486632E+02  0.63825486632E+02  0.00000000000E+00 0. -1.
         -4   -1    0    0    0  501 -0.00000000000E+00 -0.00000000000E+00 -0.32511686354E+02  0.32511686354E+02  0.00000000000E+00 0.  1.
         23    2    1    2    0    0  0.00000000000E+00  0.00000000000E+00  0.31313800277E+02  0.96337172986E+02  0.91105964740E+02 0.  0.
        -13    1    3    3    0    0 -0.16331727948E+02 -0.15199055610E+02  0.57653043620E+02  0.61819172333E+02  0.00000000000E+00 0. -1.
         13    1    3    3    0    0  0.16331727948E+02  0.15199055610E+02 -0.26339243343E+02  0.34518000653E+02  0.00000000000E+00 0.  1.
<mgrwt>
<rscale>  0 0.91105965E+02</rscale>
<asrwt>0</asrwt>
<pdfrwt beam="1">  1        4 0.98193056E-02 0.91105965E+02</pdfrwt>
<pdfrwt beam="2">  1       -4 0.50017979E-02 0.91105965E+02</pdfrwt>
<totfact> 0.26743522E+04</totfact>
</mgrwt>
</event>
<event>
 5    1  0.6308903E+000  0.1013734E+03  0.7546771E-02  0.1277434E+00
         -2   -1    0    0    0  501 -0.00000000000E+00  0.00000000000E+00  0.59592194775E+01  0.59592194775E+01  0.00000000000E+00 0.  1.
          2   -1    0    0  501    0  0.00000000000E+00 -0.00000000000E+00 -0.43112045875E+03  0.43112045875E+03  0.00000000000E+00 0. -1.
         23    2    1    2    0    0  0.00000000000E+00  0.00000000000E+00 -0.42516123928E+03  0.43707967823E+03  0.10137339759E+03 0.  0.
        -13    1    3    3    0    0 -0.34339350768E+02  0.36320289128E+02 -0.24885612168E+03  0.25382616830E+03  0.00000000000E+00 0.  1.
         13    1    3    3    0    0  0.34339350768E+02 -0.36320289128E+02 -0.17630511759E+03  0.18325350993E+03  0.00000000000E+00 0. -1.
<mgrwt>
<rscale>  0 0.10137340E+03</rscale>
<asrwt>0</asrwt>
<pdfrwt beam="2">  1        2 0.66326250E-01 0.10137340E+03</pdfrwt>
<pdfrwt beam="1">  1       -2 0.91680265E-03 0.10137340E+03</pdfrwt>
<totfact> 0.15448863E+05</totfact>
</mgrwt>
</event>
<event>
 5    1  0.6308903E+000  0.9125530E+02  0.7546771E-02  0.1299840E+00
          2   -1    0    0  501    0  0.00000000000E+00  0.00000000000E+00  0.87619585858E+02  0.87619585858E+02  0.00000000000E+00 0. -1.
         -2   -1    0    0    0  501 -0.00000000000E+00 -0.00000000000E+00 -0.23760469402E+02  0.23760469402E+02  0.00000000000E+00 0.  1.
         23    2    1    2    0    0  0.00000000000E+00  0.00000000000E+00  0.63859116455E+02  0.11138005526E+03  0.91255300971E+02 0.  0.
        -13    1    3    3    0    0 -0.19959521739E+02  0.37341084056E+02  0.11175358790E+02  0.43790726308E+02  0.00000000000E+00 0.  1.
         13    1    3    3    0    0  0.19959521739E+02 -0.37341084056E+02  0.52683757665E+02  0.67589328952E+02  0.00000000000E+00 0. -1.
<mgrwt>
<rscale>  0 0.91255301E+02</rscale>
<asrwt>0</asrwt>
<pdfrwt beam="1">  1        2 0.13479936E-01 0.91255301E+02</pdfrwt>
<pdfrwt beam="2">  1       -2 0.36554569E-02 0.91255301E+02</pdfrwt>
<totfact> 0.11764269E+05</totfact>
</mgrwt>
</event>
<event>
 5    1  0.6308903E+000  0.8968376E+02  0.7546771E-02  0.1303619E+00
          2   -1    0    0  501    0  0.00000000000E+00  0.00000000000E+00  0.73556327844E+02  0.73556327844E+02  0.00000000000E+00 0. -1.
         -2   -1    0    0    0  501 -0.00000000000E+00 -0.00000000000E+00 -0.27336793731E+02  0.27336793731E+02  0.00000000000E+00 0.  1.
         23    2    1    2    0    0  0.00000000000E+00  0.00000000000E+00  0.46219534113E+02  0.10089312158E+03  0.89683759107E+02 0.  0.
        -13    1    3    3    0    0 -0.47940289216E+00 -0.25654822613E+02  0.64481092917E+02  0.69398927183E+02  0.00000000000E+00 0. -1.
         13    1    3    3    0    0  0.47940289216E+00  0.25654822613E+02 -0.18261558804E+02  0.31494194392E+02  0.00000000000E+00 0.  1.
<mgrwt>
<rscale>  0 0.89683759E+02</rscale>
<asrwt>0</asrwt>
<pdfrwt beam="1">  1        2 0.11316358E-01 0.89683759E+02</pdfrwt>
<pdfrwt beam="2">  1       -2 0.42056606E-02 0.89683759E+02</pdfrwt>
<totfact> 0.11743497E+05</totfact>
</mgrwt>
</event>
<event>
 5    1  0.6308903E+000  0.9138786E+02  0.7546771E-02  0.1299525E+00
         -1   -1    0    0    0  501 -0.00000000000E+00  0.00000000000E+00  0.62098069752E+02  0.62098069752E+02  0.00000000000E+00 0.  1.
          1   -1    0    0  501    0  0.00000000000E+00 -0.00000000000E+00 -0.33623193632E+02  0.33623193632E+02  0.00000000000E+00 0. -1.
         23    2    1    2    0    0  0.00000000000E+00  0.00000000000E+00  0.28474876120E+02  0.95721263384E+02  0.91387864040E+02 0.  0.
        -13    1    3    3    0    0 -0.36582857132E+02 -0.51810306746E+00 -0.14435064478E+02  0.39331221100E+02  0.00000000000E+00 0. -1.
         13    1    3    3    0    0  0.36582857132E+02  0.51810306746E+00  0.42909940598E+02  0.56390042284E+02  0.00000000000E+00 0.  1.
<mgrwt>
<rscale>  0 0.91387864E+02</rscale>
<asrwt>0</asrwt>
<pdfrwt beam="2">  1        1 0.51727990E-02 0.91387864E+02</pdfrwt>
<pdfrwt beam="1">  1       -1 0.95535492E-02 0.91387864E+02</pdfrwt>
<totfact> 0.87688674E+04</totfact>
</mgrwt>
</event>
<event>
 5    1  0.6308903E+000  0.9091119E+02  0.7546771E-02  0.1300660E+00
          1   -1    0    0  501    0  0.00000000000E+00  0.00000000000E+00  0.84254404719E+02  0.84254404719E+02  0.00000000000E+00 0. -1.
         -1   -1    0    0    0  501 -0.00000000000E+00 -0.00000000000E+00 -0.24523479264E+02  0.24523479264E+02  0.00000000000E+00 0.  1.
         23    2    1    2    0    0  0.00000000000E+00  0.00000000000E+00  0.59730925455E+02  0.10877788398E+03  0.90911190665E+02 0.  0.
        -13    1    3    3    0    0  0.29424210727E+02 -0.20852189191E+02 -0.32421571398E+01  0.36209246801E+02  0.00000000000E+00 0.  1.
         13    1    3    3    0    0 -0.29424210727E+02  0.20852189191E+02  0.62973082595E+02  0.72568637182E+02  0.00000000000E+00 0. -1.
<mgrwt>
<rscale>  0 0.90911191E+02</rscale>
<asrwt>0</asrwt>
<pdfrwt beam="1">  1        1 0.12962216E-01 0.90911191E+02</pdfrwt>
<pdfrwt beam="2">  1       -1 0.37728430E-02 0.90911191E+02</pdfrwt>
<totfact> 0.10239132E+05</totfact>
</mgrwt>
</event>
<event>
 5    1  0.6308903E+000  0.8046612E+02  0.7546771E-02  0.1327734E+00
          3   -1    0    0  501    0  0.00000000000E+00  0.00000000000E+00  0.10571204986E+03  0.10571204986E+03  0.00000000000E+00 0. -1.
         -3   -1    0    0    0  501 -0.00000000000E+00 -0.00000000000E+00 -0.15312341332E+02  0.15312341332E+02  0.00000000000E+00 0.  1.
         23    2    1    2    0    0  0.00000000000E+00  0.00000000000E+00  0.90399708532E+02  0.12102439120E+03  0.80466116855E+02 0.  0.
        -13    1    3    3    0    0  0.35821767578E+02  0.17753246006E+02  0.38419609436E+02  0.55447661496E+02  0.00000000000E+00 0.  1.
         13    1    3    3    0    0 -0.35821767578E+02 -0.17753246006E+02  0.51980099096E+02  0.65576729700E+02  0.00000000000E+00 0. -1.
<mgrwt>
<rscale>  0 0.80466117E+02</rscale>
<asrwt>0</asrwt>
<pdfrwt beam="1">  1        3 0.16263392E-01 0.80466117E+02</pdfrwt>
<pdfrwt beam="2">  1       -3 0.23557449E-02 0.80466117E+02</pdfrwt>
<totfact> 0.46445093E+04</totfact>
</mgrwt>
</event>
<event>
 5    1  0.6308903E+000  0.9071991E+02  0.7546771E-02  0.1301118E+00
         -2   -1    0    0    0  501 -0.00000000000E+00  0.00000000000E+00  0.90940222370E+01  0.90940222370E+01  0.00000000000E+00 0.  1.
          2   -1    0    0  501    0  0.00000000000E+00 -0.00000000000E+00 -0.22625031369E+03  0.22625031369E+03  0.00000000000E+00 0. -1.
         23    2    1    2    0    0  0.00000000000E+00  0.00000000000E+00 -0.21715629146E+03  0.23534433593E+03  0.90719907051E+02 0.  0.
        -13    1    3    3    0    0 -0.31700255037E+02 -0.30267310547E+02 -0.78268420586E+02  0.89704860059E+02  0.00000000000E+00 0.  1.
         13    1    3    3    0    0  0.31700255037E+02  0.30267310547E+02 -0.13888787087E+03  0.14563947587E+03  0.00000000000E+00 0. -1.
<mgrwt>
<rscale>  0 0.90719907E+02</rscale>
<asrwt>0</asrwt>
<pdfrwt beam="2">  1        2 0.34807737E-01 0.90719907E+02</pdfrwt>
<pdfrwt beam="1">  1       -2 0.13990805E-02 0.90719907E+02</pdfrwt>
<totfact> 0.16398954E+05</totfact>
</mgrwt>
</event>
<event>
 5    1  0.6308903E+000  0.9140006E+02  0.7546771E-02  0.1299496E+00
          2   -1    0    0  501    0  0.00000000000E+00  0.00000000000E+00  0.16861462674E+03  0.16861462674E+03  0.00000000000E+00 0.  1.
         -2   -1    0    0    0  501 -0.00000000000E+00 -0.00000000000E+00 -0.12386190680E+02  0.12386190680E+02  0.00000000000E+00 0. -1.
         23    2    1    2    0    0  0.00000000000E+00  0.00000000000E+00  0.15622843606E+03  0.18100081742E+03  0.91400063857E+02 0.  0.
        -13    1    3    3    0    0 -0.20478753881E+02  0.18711462385E+02  0.15003519326E+03  0.15257803709E+03  0.00000000000E+00 0.  1.
         13    1    3    3    0    0  0.20478753881E+02 -0.18711462385E+02  0.61932427917E+01  0.28422780324E+02  0.00000000000E+00 0. -1.
<mgrwt>
<rscale>  0 0.91400064E+02</rscale>
<asrwt>0</asrwt>
<pdfrwt beam="1">  1        2 0.25940710E-01 0.91400064E+02</pdfrwt>
<pdfrwt beam="2">  1       -2 0.19055679E-02 0.91400064E+02</pdfrwt>
<totfact> 0.14460136E+05</totfact>
</mgrwt>
</event>
<event>
 5    1  0.6308903E+000  0.8520905E+02  0.7546771E-02  0.1314887E+00
         -3   -1    0    0    0  501 -0.00000000000E+00  0.00000000000E+00  0.20602351759E+03  0.20602351759E+03  0.00000000000E+00 0.  1.
          3   -1    0    0  501    0  0.00000000000E+00 -0.00000000000E+00 -0.88103805482E+01  0.88103805482E+01  0.00000000000E+00 0. -1.
         23    2    1    2    0    0  0.00000000000E+00  0.00000000000E+00  0.19721313705E+03  0.21483389814E+03  0.85209050972E+02 0.  0.
        -13    1    3    3    0    0  0.15220933533E+02 -0.25035898098E+02  0.20623783032E+02  0.35830342418E+02  0.00000000000E+00 0. -1.
         13    1    3    3    0    0 -0.15220933533E+02  0.25035898098E+02  0.17658935401E+03  0.17900355572E+03  0.00000000000E+00 0.  1.
<mgrwt>
<rscale>  0 0.85209051E+02</rscale>
<asrwt>0</asrwt>
<pdfrwt beam="2">  1        3 0.13554433E-02 0.85209051E+02</pdfrwt>
<pdfrwt beam="1">  1       -3 0.31695922E-01 0.85209051E+02</pdfrwt>
<totfact> 0.33270139E+04</totfact>
</mgrwt>
</event>
<event>
 5    1  0.6308903E+000  0.9182956E+02  0.7546771E-02  0.1298481E+00
          3   -1    0    0  501    0  0.00000000000E+00  0.00000000000E+00  0.39556037552E+02  0.39556037552E+02  0.00000000000E+00 0. -1.
         -3   -1    0    0    0  501 -0.00000000000E+00 -0.00000000000E+00 -0.53295712212E+02  0.53295712212E+02  0.00000000000E+00 0.  1.
         23    2    1    2    0    0  0.00000000000E+00  0.00000000000E+00 -0.13739674660E+02  0.92851749764E+02  0.91829563728E+02 0.  0.
        -13    1    3    3    0    0 -0.35345749960E+02  0.22696117035E+02 -0.25616207588E+02  0.49199856299E+02  0.00000000000E+00 0.  1.
         13    1    3    3    0    0  0.35345749960E+02 -0.22696117035E+02  0.11876532928E+02  0.43651893465E+02  0.00000000000E+00 0. -1.
<mgrwt>
<rscale>  0 0.91829564E+02</rscale>
<asrwt>0</asrwt>
<pdfrwt beam="1">  1        3 0.60855442E-02 0.91829564E+02</pdfrwt>
<pdfrwt beam="2">  1       -3 0.81993403E-02 0.91829564E+02</pdfrwt>
<totfact> 0.34532032E+04</totfact>
</mgrwt>
</event>
<event>
 5    1  0.6308903E+000  0.9106723E+02  0.7546771E-02  0.1300288E+00
          2   -1    0    0  501    0  0.00000000000E+00  0.00000000000E+00  0.55740134256E+02  0.55740134256E+02  0.00000000000E+00 0. -1.
         -2   -1    0    0    0  501 -0.00000000000E+00 -0.00000000000E+00 -0.37196005040E+02  0.37196005040E+02  0.00000000000E+00 0.  1.
         23    2    1    2    0    0  0.00000000000E+00  0.00000000000E+00  0.18544129216E+02  0.92936139296E+02  0.91067234826E+02 0.  0.
        -13    1    3    3    0    0  0.67512249329E+01 -0.21095215567E+02 -0.31327834632E+02  0.38366917789E+02  0.00000000000E+00 0.  1.
         13    1    3    3    0    0 -0.67512249329E+01  0.21095215567E+02  0.49871963847E+02  0.54569221507E+02  0.00000000000E+00 0. -1.
<mgrwt>
<rscale>  0 0.91067235E+02</rscale>
<asrwt>0</asrwt>
<pdfrwt beam="1">  1        2 0.85754053E-02 0.91067235E+02</pdfrwt>
<pdfrwt beam="2">  1       -2 0.57224623E-02 0.91067235E+02</pdfrwt>
<totfact> 0.10436305E+05</totfact>
</mgrwt>
</event>
<event>
 5    1  0.6308903E+000  0.9535773E+02  0.7546771E-02  0.1290372E+00
         -2   -1    0    0    0  501 -0.00000000000E+00  0.00000000000E+00  0.35335101629E+02  0.35335101629E+02  0.00000000000E+00 0.  1.
          2   -1    0    0  501    0  0.00000000000E+00 -0.00000000000E+00 -0.64334723668E+02  0.64334723668E+02  0.00000000000E+00 0. -1.
         23    2    1    2    0    0  0.00000000000E+00  0.00000000000E+00 -0.28999622039E+02  0.99669825297E+02  0.95357726464E+02 0.  0.
        -13    1    3    3    0    0 -0.25394463241E+02  0.37408356669E+02 -0.30317211658E+02  0.54437094290E+02  0.00000000000E+00 0. -1.
         13    1    3    3    0    0  0.25394463241E+02 -0.37408356669E+02  0.13175896189E+01  0.45232731007E+02  0.00000000000E+00 0.  1.
<mgrwt>
<rscale>  0 0.95357726E+02</rscale>
<asrwt>0</asrwt>
<pdfrwt beam="2">  1        2 0.98976498E-02 0.95357726E+02</pdfrwt>
<pdfrwt beam="1">  1       -2 0.54361695E-02 0.95357726E+02</pdfrwt>
<totfact> 0.95234876E+04</totfact>
</mgrwt>
</event>
<event>
 5    1  0.6308903E+000  0.9074072E+02  0.7546771E-02  0.1301068E+00
         -2   -1    0    0    0  501 -0.00000000000E+00  0.00000000000E+00  0.81888434114E+01  0.81888434114E+01  0.00000000000E+00 0.  1.
          2   -1    0    0  501    0  0.00000000000E+00 -0.00000000000E+00 -0.25137489197E+03  0.25137489197E+03  0.00000000000E+00 0. -1.
         23    2    1    2    0    0  0.00000000000E+00  0.00000000000E+00 -0.24318604856E+03  0.25956373538E+03  0.90740721353E+02 0.  0.
        -13    1    3    3    0    0 -0.36258103368E+02  0.24088479629E+02 -0.85009410650E+02  0.95506569459E+02  0.00000000000E+00 0.  1.
         13    1    3    3    0    0  0.36258103368E+02 -0.24088479629E+02 -0.15817663791E+03  0.16405716593E+03  0.00000000000E+00 0. -1.
<mgrwt>
<rscale>  0 0.90740721E+02</rscale>
<asrwt>0</asrwt>
<pdfrwt beam="2">  1        2 0.38673064E-01 0.90740721E+02</pdfrwt>
<pdfrwt beam="1">  1       -2 0.12598219E-02 0.90740721E+02</pdfrwt>
<totfact> 0.17037382E+05</totfact>
</mgrwt>
</event>
<event>
 5    1  0.6308903E+000  0.9187803E+02  0.7546771E-02  0.1298366E+00
          4   -1    0    0  501    0  0.00000000000E+00  0.00000000000E+00  0.75962834037E+01  0.75962834037E+01  0.00000000000E+00 0. -1.
         -4   -1    0    0    0  501 -0.00000000000E+00 -0.00000000000E+00 -0.27781916031E+03  0.27781916031E+03  0.00000000000E+00 0.  1.
         23    2    1    2    0    0  0.00000000000E+00  0.00000000000E+00 -0.27022287691E+03  0.28541544371E+03  0.91878029510E+02 0.  0.
        -13    1    3    3    0    0 -0.41834289302E+02 -0.71279257261E+01 -0.18976024479E+03  0.19444759086E+03  0.00000000000E+00 0.  1.
         13    1    3    3    0    0  0.41834289302E+02  0.71279257261E+01 -0.80462632111E+02  0.90967852853E+02  0.00000000000E+00 0. -1.
<mgrwt>
<rscale>  0 0.91878030E+02</rscale>
<asrwt>0</asrwt>
<pdfrwt beam="1">  1        4 0.11686591E-02 0.91878030E+02</pdfrwt>
<pdfrwt beam="2">  1       -4 0.42741404E-01 0.91878030E+02</pdfrwt>
<totfact> 0.17905085E+04</totfact>
</mgrwt>
</event>
<event>
 5    1  0.6308903E+000  0.9127734E+02  0.7546771E-02  0.1299788E+00
          1   -1    0    0  501    0  0.00000000000E+00  0.00000000000E+00  0.12217457309E+02  0.12217457309E+02  0.00000000000E+00 0. -1.
         -1   -1    0    0    0  501 -0.00000000000E+00 -0.00000000000E+00 -0.17048458451E+03  0.17048458451E+03  0.00000000000E+00 0.  1.
         23    2    1    2    0    0  0.00000000000E+00  0.00000000000E+00 -0.15826712720E+03  0.18270204182E+03  0.91277338548E+02 0.  0.
        -13    1    3    3    0    0 -0.39197939281E+02 -0.23135362715E+02 -0.72445450669E+02  0.85557388778E+02  0.00000000000E+00 0.  1.
         13    1    3    3    0    0  0.39197939281E+02  0.23135362715E+02 -0.85821676529E+02  0.97144653039E+02  0.00000000000E+00 0. -1.
<mgrwt>
<rscale>  0 0.91277339E+02</rscale>
<asrwt>0</asrwt>
<pdfrwt beam="1">  1        1 0.18796089E-02 0.91277339E+02</pdfrwt>
<pdfrwt beam="2">  1       -1 0.26228397E-01 0.91277339E+02</pdfrwt>
<totfact> 0.72278250E+04</totfact>
</mgrwt>
</event>
<event>
 5    1  0.6308903E+000  0.9150838E+02  0.7546771E-02  0.1299240E+00
          1   -1    0    0  501    0  0.00000000000E+00  0.00000000000E+00  0.15846560778E+02  0.15846560778E+02  0.00000000000E+00 0. -1.
         -1   -1    0    0    0  501 -0.00000000000E+00 -0.00000000000E+00 -0.13210727125E+03  0.13210727125E+03  0.00000000000E+00 0.  1.
         23    2    1    2    0    0  0.00000000000E+00  0.00000000000E+00 -0.11626071047E+03  0.14795383202E+03  0.91508380009E+02 0.  0.
        -13    1    3    3    0    0  0.33660838204E+02 -0.28379853627E+02 -0.78258329668E+02  0.89793286403E+02  0.00000000000E+00 0.  1.
         13    1    3    3    0    0 -0.33660838204E+02  0.28379853627E+02 -0.38002380800E+02  0.58160545621E+02  0.00000000000E+00 0. -1.
<mgrwt>
<rscale>  0 0.91508380E+02</rscale>
<asrwt>0</asrwt>
<pdfrwt beam="1">  1        1 0.24379323E-02 0.91508380E+02</pdfrwt>
<pdfrwt beam="2">  1       -1 0.20324197E-01 0.91508380E+02</pdfrwt>
<totfact> 0.76236886E+04</totfact>
</mgrwt>
</event>
<event>
 5    1  0.6308903E+000  0.9437029E+02  0.7546771E-02  0.1292601E+00
          1   -1    0    0  501    0  0.00000000000E+00  0.00000000000E+00  0.30373531710E+03  0.30373531710E+03  0.00000000000E+00 0. -1.
         -1   -1    0    0    0  501 -0.00000000000E+00 -0.00000000000E+00 -0.73301908756E+01  0.73301908756E+01  0.00000000000E+00 0.  1.
         23    2    1    2    0    0  0.00000000000E+00  0.00000000000E+00  0.29640512622E+03  0.31106550797E+03  0.94370288757E+02 0.  0.
        -13    1    3    3    0    0 -0.44176304167E+02  0.11732453214E+02  0.18681785908E+03  0.19232812790E+03  0.00000000000E+00 0. -1.
         13    1    3    3    0    0  0.44176304167E+02 -0.11732453214E+02  0.10958726714E+03  0.11873738008E+03  0.00000000000E+00 0.  1.
<mgrwt>
<rscale>  0 0.94370289E+02</rscale>
<asrwt>0</asrwt>
<pdfrwt beam="1">  1        1 0.46728501E-01 0.94370289E+02</pdfrwt>
<pdfrwt beam="2">  1       -1 0.11277219E-02 0.94370289E+02</pdfrwt>
<totfact> 0.11714461E+05</totfact>
</mgrwt>
</event>
<event>
 5    1  0.6308903E+000  0.9660593E+02  0.7546771E-02  0.1287600E+00
         -1   -1    0    0    0  501 -0.00000000000E+00  0.00000000000E+00  0.16972059865E+02  0.16972059865E+02  0.00000000000E+00 0.  1.
          1   -1    0    0  501    0  0.00000000000E+00 -0.00000000000E+00 -0.13747160203E+03  0.13747160203E+03  0.00000000000E+00 0. -1.
         23    2    1    2    0    0  0.00000000000E+00  0.00000000000E+00 -0.12049954216E+03  0.15444366189E+03  0.96605926512E+02 0.  0.
        -13    1    3    3    0    0  0.47531377953E+01 -0.38748652596E+02 -0.10572494427E+03  0.11270232579E+03  0.00000000000E+00 0. -1.
         13    1    3    3    0    0 -0.47531377953E+01  0.38748652596E+02 -0.14774597892E+02  0.41741336105E+02  0.00000000000E+00 0.  1.
<mgrwt>
<rscale>  0 0.96605927E+02</rscale>
<asrwt>0</asrwt>
<pdfrwt beam="2">  1        1 0.21149476E-01 0.96605927E+02</pdfrwt>
<pdfrwt beam="1">  1       -1 0.26110863E-02 0.96605927E+02</pdfrwt>
<totfact> 0.94329855E+04</totfact>
</mgrwt>
</event>
<event>
 5    1  0.6308903E+000  0.9037706E+02  0.7546771E-02  0.1301941E+00
          1   -1    0    0  501    0  0.00000000000E+00  0.00000000000E+00  0.41254294417E+02  0.41254294417E+02  0.00000000000E+00 0. -1.
         -1   -1    0    0    0  501 -0.00000000000E+00 -0.00000000000E+00 -0.49497950422E+02  0.49497950422E+02  0.00000000000E+00 0.  1.
         23    2    1    2    0    0  0.00000000000E+00  0.00000000000E+00 -0.82436560049E+01  0.90752244839E+02  0.90377055047E+02 0.  0.
        -13    1    3    3    0    0 -0.38424271254E+02 -0.22942764703E+02 -0.10409447289E+02  0.45947270501E+02  0.00000000000E+00 0.  1.
         13    1    3    3    0    0  0.38424271254E+02  0.22942764703E+02  0.21657912842E+01  0.44804974338E+02  0.00000000000E+00 0. -1.
<mgrwt>
<rscale>  0 0.90377055E+02</rscale>
<asrwt>0</asrwt>
<pdfrwt beam="1">  1        1 0.63468146E-02 0.90377055E+02</pdfrwt>
<pdfrwt beam="2">  1       -1 0.76150693E-02 0.90377055E+02</pdfrwt>
<totfact> 0.93377969E+04</totfact>
</mgrwt>
</event>
<event>
 5    1  0.6308903E+000  0.9627596E+02  0.7546771E-02  0.1288328E+00
          4   -1    0    0  501    0  0.00000000000E+00  0.00000000000E+00  0.25087290208E+02  0.25087290208E+02  0.00000000000E+00 0. -1.
         -4   -1    0    0    0  501 -0.00000000000E+00 -0.00000000000E+00 -0.92368087622E+02  0.92368087622E+02  0.00000000000E+00 0.  1.
         23    2    1    2    0    0  0.00000000000E+00  0.00000000000E+00 -0.67280797414E+02  0.11745537783E+03  0.96275957957E+02 0.  0.
        -13    1    3    3    0    0  0.50861836353E+01  0.17944646784E+02 -0.87780668485E+02  0.89740321884E+02  0.00000000000E+00 0.  1.
         13    1    3    3    0    0 -0.50861836353E+01 -0.17944646784E+02  0.20499871071E+02  0.27715055946E+02  0.00000000000E+00 0. -1.
<mgrwt>
<rscale>  0 0.96275958E+02</rscale>
<asrwt>0</asrwt>
<pdfrwt beam="1">  1        4 0.38595832E-02 0.96275958E+02</pdfrwt>
<pdfrwt beam="2">  1       -4 0.14210475E-01 0.96275958E+02</pdfrwt>
<totfact> 0.21924260E+04</totfact>
</mgrwt>
</event>
<event>
 5    1  0.6308903E+000  0.8893275E+02  0.7546771E-02  0.1305457E+00
          2   -1    0    0  501    0  0.00000000000E+00  0.00000000000E+00  0.58496221682E+02  0.58496221682E+02  0.00000000000E+00 0. -1.
         -2   -1    0    0    0  501 -0.00000000000E+00 -0.00000000000E+00 -0.33801475720E+02  0.33801475720E+02  0.00000000000E+00 0.  1.
         23    2    1    2    0    0  0.00000000000E+00  0.00000000000E+00  0.24694745962E+02  0.92297697402E+02  0.88932752502E+02 0.  0.
        -13    1    3    3    0    0 -0.21494111011E+02  0.10786931973E+02  0.51164471882E+02  0.56534572542E+02  0.00000000000E+00 0. -1.
         13    1    3    3    0    0  0.21494111011E+02 -0.10786931973E+02 -0.26469725919E+02  0.35763124860E+02  0.00000000000E+00 0.  1.
<mgrwt>
<rscale>  0 0.88932753E+02</rscale>
<asrwt>0</asrwt>
<pdfrwt beam="1">  1        2 0.89994187E-02 0.88932753E+02</pdfrwt>
<pdfrwt beam="2">  1       -2 0.52002271E-02 0.88932753E+02</pdfrwt>
<totfact> 0.11300978E+05</totfact>
</mgrwt>
</event>
<event>
 5    1  0.6308903E+000  0.8984862E+02  0.7546771E-02  0.1303219E+00
          1   -1    0    0  501    0  0.00000000000E+00  0.00000000000E+00  0.63464561317E+02  0.63464561317E+02  0.00000000000E+00 0. -1.
         -1   -1    0    0    0  501 -0.00000000000E+00 -0.00000000000E+00 -0.31800324686E+02  0.31800324686E+02  0.00000000000E+00 0.  1.
         23    2    1    2    0    0  0.00000000000E+00  0.00000000000E+00  0.31664236631E+02  0.95264886003E+02  0.89848620600E+02 0.  0.
        -13    1    3    3    0    0  0.17945854482E+02  0.11747663377E+02 -0.26020594448E+02  0.33721397114E+02  0.00000000000E+00 0.  1.
         13    1    3    3    0    0 -0.17945854482E+02 -0.11747663377E+02  0.57684831080E+02  0.61543488889E+02  0.00000000000E+00 0. -1.
<mgrwt>
<rscale>  0 0.89848621E+02</rscale>
<asrwt>0</asrwt>
<pdfrwt beam="1">  1        1 0.97637786E-02 0.89848621E+02</pdfrwt>
<pdfrwt beam="2">  1       -1 0.48923577E-02 0.89848621E+02</pdfrwt>
<totfact> 0.10121735E+05</totfact>
</mgrwt>
</event>
<event>
 5    1  0.6308903E+000  0.8968942E+02  0.7546771E-02  0.1303606E+00
          1   -1    0    0  501    0  0.00000000000E+00  0.00000000000E+00  0.20952621712E+02  0.20952621712E+02  0.00000000000E+00 0.  1.
         -1   -1    0    0    0  501 -0.00000000000E+00 -0.00000000000E+00 -0.95980739583E+02  0.95980739583E+02  0.00000000000E+00 0. -1.
         23    2    1    2    0    0  0.00000000000E+00  0.00000000000E+00 -0.75028117871E+02  0.11693336129E+03  0.89689422522E+02 0.  0.
        -13    1    3    3    0    0  0.33789329798E+02  0.78694396655E+01 -0.74560109221E+02  0.82236590250E+02  0.00000000000E+00 0. -1.
         13    1    3    3    0    0 -0.33789329798E+02 -0.78694396655E+01 -0.46800864987E+00  0.34696771045E+02  0.00000000000E+00 0.  1.
<mgrwt>
<rscale>  0 0.89689423E+02</rscale>
<asrwt>0</asrwt>
<pdfrwt beam="1">  1        1 0.32234804E-02 0.89689423E+02</pdfrwt>
<pdfrwt beam="2">  1       -1 0.14766267E-01 0.89689423E+02</pdfrwt>
<totfact> 0.85527497E+04</totfact>
</mgrwt>
</event>
<event>
 5    1  0.6308903E+000  0.9075884E+02  0.7546771E-02  0.1301024E+00
         -1   -1    0    0    0  501 -0.00000000000E+00  0.00000000000E+00  0.29209965613E+02  0.29209965613E+02  0.00000000000E+00 0.  1.
          1   -1    0    0  501    0  0.00000000000E+00 -0.00000000000E+00 -0.70499623545E+02  0.70499623545E+02  0.00000000000E+00 0. -1.
         23    2    1    2    0    0  0.00000000000E+00  0.00000000000E+00 -0.41289657931E+02  0.99709589158E+02  0.90758836032E+02 0.  0.
        -13    1    3    3    0    0  0.70868294778E+01 -0.42742329366E+02 -0.35472623311E+02  0.55994971883E+02  0.00000000000E+00 0. -1.
         13    1    3    3    0    0 -0.70868294778E+01  0.42742329366E+02 -0.58170346203E+01  0.43714617274E+02  0.00000000000E+00 0.  1.
<mgrwt>
<rscale>  0 0.90758836E+02</rscale>
<asrwt>0</asrwt>
<pdfrwt beam="2">  1        1 0.10846096E-01 0.90758836E+02</pdfrwt>
<pdfrwt beam="1">  1       -1 0.44938409E-02 0.90758836E+02</pdfrwt>
<totfact> 0.10003397E+05</totfact>
</mgrwt>
</event>
<event>
 5    1  0.6308903E+000  0.9157091E+02  0.7546771E-02  0.1299091E+00
         -3   -1    0    0    0  501 -0.00000000000E+00  0.00000000000E+00  0.73472089657E+01  0.73472089657E+01  0.00000000000E+00 0.  1.
          3   -1    0    0  501    0  0.00000000000E+00 -0.00000000000E+00 -0.28532031441E+03  0.28532031441E+03  0.00000000000E+00 0. -1.
         23    2    1    2    0    0  0.00000000000E+00  0.00000000000E+00 -0.27797310544E+03  0.29266752337E+03  0.91570911803E+02 0.  0.
        -13    1    3    3    0    0  0.29295785343E+02  0.28505779179E+02 -0.73060151489E+02  0.83717430807E+02  0.00000000000E+00 0.  1.
         13    1    3    3    0    0 -0.29295785343E+02 -0.28505779179E+02 -0.20491295395E+03  0.20895009256E+03  0.00000000000E+00 0. -1.
<mgrwt>
<rscale>  0 0.91570912E+02</rscale>
<asrwt>0</asrwt>
<pdfrwt beam="2">  1        3 0.43895432E-01 0.91570912E+02</pdfrwt>
<pdfrwt beam="1">  1       -3 0.11303399E-02 0.91570912E+02</pdfrwt>
<totfact> 0.24037298E+04</totfact>
</mgrwt>
</event>
<event>
 5    1  0.6308903E+000  0.9264562E+02  0.7546771E-02  0.1296569E+00
          2   -1    0    0  501    0  0.00000000000E+00  0.00000000000E+00  0.12985677544E+02  0.12985677544E+02  0.00000000000E+00 0. -1.
         -2   -1    0    0    0  501 -0.00000000000E+00 -0.00000000000E+00 -0.16524380320E+03  0.16524380320E+03  0.00000000000E+00 0.  1.
         23    2    1    2    0    0  0.00000000000E+00  0.00000000000E+00 -0.15225812565E+03  0.17822948074E+03  0.92645620394E+02 0.  0.
        -13    1    3    3    0    0 -0.92832747796E+01 -0.41769933490E+02 -0.41991039971E+02  0.59951263308E+02  0.00000000000E+00 0. -1.
         13    1    3    3    0    0  0.92832747796E+01  0.41769933490E+02 -0.11026708568E+03  0.11827821743E+03  0.00000000000E+00 0.  1.
<mgrwt>
<rscale>  0 0.92645620E+02</rscale>
<asrwt>0</asrwt>
<pdfrwt beam="1">  1        2 0.19977965E-02 0.92645620E+02</pdfrwt>
<pdfrwt beam="2">  1       -2 0.25422125E-01 0.92645620E+02</pdfrwt>
<totfact> 0.64689306E+04</totfact>
</mgrwt>
</event>
<event>
 5    1  0.6308903E+000  0.9289338E+02  0.7546771E-02  0.1295992E+00
          4   -1    0    0  501    0  0.00000000000E+00  0.00000000000E+00  0.15300510823E+02  0.15300510823E+02  0.00000000000E+00 0. -1.
         -4   -1    0    0    0  501 -0.00000000000E+00 -0.00000000000E+00 -0.14099496657E+03  0.14099496657E+03  0.00000000000E+00 0.  1.
         23    2    1    2    0    0  0.00000000000E+00  0.00000000000E+00 -0.12569445575E+03  0.15629547739E+03  0.92893379999E+02 0.  0.
        -13    1    3    3    0    0 -0.10679945985E+02  0.29086912743E+02 -0.46312323017E+01  0.31329826871E+02  0.00000000000E+00 0. -1.
         13    1    3    3    0    0  0.10679945985E+02 -0.29086912743E+02 -0.12106322345E+03  0.12496565052E+03  0.00000000000E+00 0.  1.
<mgrwt>
<rscale>  0 0.92893380E+02</rscale>
<asrwt>0</asrwt>
<pdfrwt beam="1">  1        4 0.23539248E-02 0.92893380E+02</pdfrwt>
<pdfrwt beam="2">  1       -4 0.21691532E-01 0.92893380E+02</pdfrwt>
<totfact> 0.22214875E+04</totfact>
</mgrwt>
</event>
<event>
 5    1  0.6308903E+000  0.9295069E+02  0.7546771E-02  0.1295859E+00
         -4   -1    0    0    0  501 -0.00000000000E+00  0.00000000000E+00  0.49952927308E+02  0.49952927308E+02  0.00000000000E+00 0.  1.
          4   -1    0    0  501    0  0.00000000000E+00 -0.00000000000E+00 -0.43239864345E+02  0.43239864345E+02  0.00000000000E+00 0. -1.
         23    2    1    2    0    0  0.00000000000E+00  0.00000000000E+00  0.67130629630E+01  0.93192791653E+02  0.92950692315E+02 0.  0.
        -13    1    3    3    0    0  0.40597773560E+02  0.99913783909E+01  0.23705970526E+02  0.48062250247E+02  0.00000000000E+00 0. -1.
         13    1    3    3    0    0 -0.40597773560E+02 -0.99913783909E+01 -0.16992907563E+02  0.45130541406E+02  0.00000000000E+00 0.  1.
<mgrwt>
<rscale>  0 0.92950692E+02</rscale>
<asrwt>0</asrwt>
<pdfrwt beam="2">  1        4 0.66522868E-02 0.92950692E+02</pdfrwt>
<pdfrwt beam="1">  1       -4 0.76850657E-02 0.92950692E+02</pdfrwt>
<totfact> 0.25512814E+04</totfact>
</mgrwt>
</event>
<event>
 5    1  0.6308903E+000  0.9283225E+02  0.7546771E-02  0.1296134E+00
         -3   -1    0    0    0  501 -0.00000000000E+00  0.00000000000E+00  0.45974847834E+02  0.45974847834E+02  0.00000000000E+00 0.  1.
          3   -1    0    0  501    0  0.00000000000E+00 -0.00000000000E+00 -0.46861634110E+02  0.46861634110E+02  0.00000000000E+00 0. -1.
         23    2    1    2    0    0  0.00000000000E+00  0.00000000000E+00 -0.88678627662E+00  0.92836481944E+02  0.92832246498E+02 0.  0.
        -13    1    3    3    0    0 -0.10817906548E+02 -0.21153457363E+02  0.39432736605E+02  0.46037338940E+02  0.00000000000E+00 0.  1.
         13    1    3    3    0    0  0.10817906548E+02  0.21153457363E+02 -0.40319522882E+02  0.46799143004E+02  0.00000000000E+00 0. -1.
<mgrwt>
<rscale>  0 0.92832246E+02</rscale>
<asrwt>0</asrwt>
<pdfrwt beam="2">  1        3 0.72094822E-02 0.92832246E+02</pdfrwt>
<pdfrwt beam="1">  1       -3 0.70730535E-02 0.92832246E+02</pdfrwt>
<totfact> 0.33522420E+04</totfact>
</mgrwt>
</event>
<event>
 5    1  0.6308903E+000  0.9077085E+02  0.7546771E-02  0.1300996E+00
          3   -1    0    0  501    0  0.00000000000E+00  0.00000000000E+00  0.38967545278E+03  0.38967545278E+03  0.00000000000E+00 0. -1.
         -3   -1    0    0    0  501 -0.00000000000E+00 -0.00000000000E+00 -0.52860318890E+01  0.52860318890E+01  0.00000000000E+00 0.  1.
         23    2    1    2    0    0  0.00000000000E+00  0.00000000000E+00  0.38438942090E+03  0.39496148467E+03  0.90770851484E+02 0.  0.
        -13    1    3    3    0    0  0.87762332152E+01  0.42406244773E+02  0.13308811431E+03  0.13995627187E+03  0.00000000000E+00 0. -1.
         13    1    3    3    0    0 -0.87762332152E+01 -0.42406244773E+02  0.25130130659E+03  0.25500521281E+03  0.00000000000E+00 0.  1.
<mgrwt>
<rscale>  0 0.90770851E+02</rscale>
<asrwt>0</asrwt>
<pdfrwt beam="1">  1        3 0.59950047E-01 0.90770851E+02</pdfrwt>
<pdfrwt beam="2">  1       -3 0.81323598E-03 0.90770851E+02</pdfrwt>
<totfact> 0.21016986E+04</totfact>
</mgrwt>
</event>
<event>
 5    1  0.6308903E+000  0.9111722E+02  0.7546771E-02  0.1300169E+00
          2   -1    0    0  501    0  0.00000000000E+00  0.00000000000E+00  0.23341438023E+03  0.23341438023E+03  0.00000000000E+00 0. -1.
         -2   -1    0    0    0  501 -0.00000000000E+00 -0.00000000000E+00 -0.88922831557E+01  0.88922831557E+01  0.00000000000E+00 0.  1.
         23    2    1    2    0    0  0.00000000000E+00  0.00000000000E+00  0.22452209707E+03  0.24230666339E+03  0.91117215972E+02 0.  0.
        -13    1    3    3    0    0 -0.48261492921E+01 -0.37616494558E+02  0.17939387934E+03  0.18335881851E+03  0.00000000000E+00 0. -1.
         13    1    3    3    0    0  0.48261492921E+01  0.37616494558E+02  0.45128217731E+02  0.58947844875E+02  0.00000000000E+00 0.  1.
<mgrwt>
<rscale>  0 0.91117216E+02</rscale>
<asrwt>0</asrwt>
<pdfrwt beam="1">  1        2 0.35909900E-01 0.91117216E+02</pdfrwt>
<pdfrwt beam="2">  1       -2 0.13680437E-02 0.91117216E+02</pdfrwt>
<totfact> 0.16394723E+05</totfact>
</mgrwt>
</event>
<event>
 5    1  0.6308903E+000  0.9133864E+02  0.7546771E-02  0.1299642E+00
          1   -1    0    0  501    0  0.00000000000E+00  0.00000000000E+00  0.22753811197E+02  0.22753811197E+02  0.00000000000E+00 0. -1.
         -1   -1    0    0    0  501 -0.00000000000E+00 -0.00000000000E+00 -0.91663194039E+02  0.91663194039E+02  0.00000000000E+00 0.  1.
         23    2    1    2    0    0  0.00000000000E+00  0.00000000000E+00 -0.68909382843E+02  0.11441700524E+03  0.91338644852E+02 0.  0.
        -13    1    3    3    0    0 -0.40403932796E+02 -0.70177768681E+01 -0.59631762853E+02  0.72371777085E+02  0.00000000000E+00 0.  1.
         13    1    3    3    0    0  0.40403932796E+02  0.70177768681E+01 -0.92776199899E+01  0.42045228151E+02  0.00000000000E+00 0. -1.
<mgrwt>
<rscale>  0 0.91338645E+02</rscale>
<asrwt>0</asrwt>
<pdfrwt beam="1">  1        1 0.35005863E-02 0.91338645E+02</pdfrwt>
<pdfrwt beam="2">  1       -1 0.14102030E-01 0.91338645E+02</pdfrwt>
<totfact> 0.82295889E+04</totfact>
</mgrwt>
</event>
<event>
 5    1  0.6308903E+000  0.9108971E+02  0.7546771E-02  0.1300234E+00
          2   -1    0    0  501    0  0.00000000000E+00  0.00000000000E+00  0.88075135634E+02  0.88075135634E+02  0.00000000000E+00 0.  1.
         -2   -1    0    0    0  501 -0.00000000000E+00 -0.00000000000E+00 -0.23551867302E+02  0.23551867302E+02  0.00000000000E+00 0. -1.
         23    2    1    2    0    0  0.00000000000E+00  0.00000000000E+00  0.64523268332E+02  0.11162700294E+03  0.91089711977E+02 0.  0.
        -13    1    3    3    0    0  0.29636171112E+02  0.25112678341E+02  0.31228152550E+01  0.38970517405E+02  0.00000000000E+00 0.  1.
         13    1    3    3    0    0 -0.29636171112E+02 -0.25112678341E+02  0.61400453077E+02  0.72656485531E+02  0.00000000000E+00 0. -1.
<mgrwt>
<rscale>  0 0.91089712E+02</rscale>
<asrwt>0</asrwt>
<pdfrwt beam="1">  1        2 0.13550021E-01 0.91089712E+02</pdfrwt>
<pdfrwt beam="2">  1       -2 0.36233642E-02 0.91089712E+02</pdfrwt>
<totfact> 0.11841634E+05</totfact>
</mgrwt>
</event>
<event>
 5    1  0.6308903E+000  0.9207250E+02  0.7546771E-02  0.1297909E+00
          1   -1    0    0  501    0  0.00000000000E+00  0.00000000000E+00  0.10154295561E+03  0.10154295561E+03  0.00000000000E+00 0. -1.
         -1   -1    0    0    0  501 -0.00000000000E+00 -0.00000000000E+00 -0.20871328164E+02  0.20871328164E+02  0.00000000000E+00 0.  1.
         23    2    1    2    0    0  0.00000000000E+00  0.00000000000E+00  0.80671627450E+02  0.12241428378E+03  0.92072500767E+02 0.  0.
        -13    1    3    3    0    0  0.36285111775E+02  0.30623020754E+00  0.78002787222E+02  0.86029866487E+02  0.00000000000E+00 0. -1.
         13    1    3    3    0    0 -0.36285111775E+02 -0.30623020754E+00  0.26688402289E+01  0.36384417291E+02  0.00000000000E+00 0.  1.
<mgrwt>
<rscale>  0 0.92072501E+02</rscale>
<asrwt>0</asrwt>
<pdfrwt beam="1">  1        1 0.15621993E-01 0.92072501E+02</pdfrwt>
<pdfrwt beam="2">  1       -1 0.32109736E-02 0.92072501E+02</pdfrwt>
<totfact> 0.10196169E+05</totfact>
</mgrwt>
</event>
<event>
 5    1  0.6308903E+000  0.9027030E+02  0.7546771E-02  0.1302198E+00
          1   -1    0    0  501    0  0.00000000000E+00  0.00000000000E+00  0.17720861910E+02  0.17720861910E+02  0.00000000000E+00 0. -1.
         -1   -1    0    0    0  501 -0.00000000000E+00 -0.00000000000E+00 -0.11495952012E+03  0.11495952012E+03  0.00000000000E+00 0.  1.
         23    2    1    2    0    0  0.00000000000E+00  0.00000000000E+00 -0.97238658213E+02  0.13268038203E+03  0.90270300351E+02 0.  0.
        -13    1    3    3    0    0 -0.22077116699E+02 -0.15567074430E+02 -0.10176577009E+03  0.10529009854E+03  0.00000000000E+00 0.  1.
         13    1    3    3    0    0  0.22077116699E+02  0.15567074430E+02  0.45271118763E+01  0.27390283496E+02  0.00000000000E+00 0. -1.
<mgrwt>
<rscale>  0 0.90270300E+02</rscale>
<asrwt>0</asrwt>
<pdfrwt beam="1">  1        1 0.27262864E-02 0.90270300E+02</pdfrwt>
<pdfrwt beam="2">  1       -1 0.17686080E-01 0.90270300E+02</pdfrwt>
<totfact> 0.81283918E+04</totfact>
</mgrwt>
</event>
<event>
 5    1  0.6308903E+000  0.9195037E+02  0.7546771E-02  0.1298196E+00
         -1   -1    0    0    0  501 -0.00000000000E+00  0.00000000000E+00  0.33791704794E+02  0.33791704794E+02  0.00000000000E+00 0.  1.
          1   -1    0    0  501    0  0.00000000000E+00 -0.00000000000E+00 -0.62551381448E+02  0.62551381448E+02  0.00000000000E+00 0. -1.
         23    2    1    2    0    0  0.00000000000E+00  0.00000000000E+00 -0.28759676654E+02  0.96343086242E+02  0.91950373928E+02 0.  0.
        -13    1    3    3    0    0  0.14458465559E+02  0.30009328996E+02 -0.47581350623E+02  0.58082630624E+02  0.00000000000E+00 0. -1.
         13    1    3    3    0    0 -0.14458465559E+02 -0.30009328996E+02  0.18821673969E+02  0.38260455618E+02  0.00000000000E+00 0.  1.
<mgrwt>
<rscale>  0 0.91950374E+02</rscale>
<asrwt>0</asrwt>
<pdfrwt beam="2">  1        1 0.96232895E-02 0.91950374E+02</pdfrwt>
<pdfrwt beam="1">  1       -1 0.51987238E-02 0.91950374E+02</pdfrwt>
<totfact> 0.94735669E+04</totfact>
</mgrwt>
</event>
<event>
 5    1  0.6308903E+000  0.9221123E+02  0.7546771E-02  0.1297584E+00
         -2   -1    0    0    0  501 -0.00000000000E+00  0.00000000000E+00  0.24974605399E+02  0.24974605399E+02  0.00000000000E+00 0.  1.
          2   -1    0    0  501    0  0.00000000000E+00 -0.00000000000E+00 -0.85115576160E+02  0.85115576160E+02  0.00000000000E+00 0. -1.
         23    2    1    2    0    0  0.00000000000E+00  0.00000000000E+00 -0.60140970761E+02  0.11009018156E+03  0.92211234194E+02 0.  0.
        -13    1    3    3    0    0 -0.13874530383E+02  0.12218478166E+02  0.20355472860E+02  0.27497983152E+02  0.00000000000E+00 0.  1.
         13    1    3    3    0    0  0.13874530383E+02 -0.12218478166E+02 -0.80496443621E+02  0.82592198407E+02  0.00000000000E+00 0. -1.
<mgrwt>
<rscale>  0 0.92211234E+02</rscale>
<asrwt>0</asrwt>
<pdfrwt beam="2">  1        2 0.13094704E-01 0.92211234E+02</pdfrwt>
<pdfrwt beam="1">  1       -2 0.38422469E-02 0.92211234E+02</pdfrwt>
<totfact> 0.11332229E+05</totfact>
</mgrwt>
</event>
<event>
 5    1  0.6308903E+000  0.8351717E+02  0.7546771E-02  0.1319356E+00
         -3   -1    0    0    0  501 -0.00000000000E+00  0.00000000000E+00  0.74632575264E+01  0.74632575264E+01  0.00000000000E+00 0.  1.
          3   -1    0    0  501    0  0.00000000000E+00 -0.00000000000E+00 -0.23364859277E+03  0.23364859277E+03  0.00000000000E+00 0. -1.
         23    2    1    2    0    0  0.00000000000E+00  0.00000000000E+00 -0.22618533525E+03  0.24111185030E+03  0.83517174726E+02 0.  0.
        -13    1    3    3    0    0 -0.36571188446E+02  0.19807955823E+02 -0.12388418769E+03  0.13067937442E+03  0.00000000000E+00 0.  1.
         13    1    3    3    0    0  0.36571188446E+02 -0.19807955823E+02 -0.10230114756E+03  0.11043247588E+03  0.00000000000E+00 0. -1.
<mgrwt>
<rscale>  0 0.83517175E+02</rscale>
<asrwt>0</asrwt>
<pdfrwt beam="2">  1        3 0.35945938E-01 0.83517175E+02</pdfrwt>
<pdfrwt beam="1">  1       -3 0.11481935E-02 0.83517175E+02</pdfrwt>
<totfact> 0.33514097E+04</totfact>
</mgrwt>
</event>
<event>
 5    1  0.6308903E+000  0.9280187E+02  0.7546771E-02  0.1296205E+00
          1   -1    0    0  501    0  0.00000000000E+00  0.00000000000E+00  0.56600783986E+02  0.56600783986E+02  0.00000000000E+00 0. -1.
         -1   -1    0    0    0  501 -0.00000000000E+00 -0.00000000000E+00 -0.38039171313E+02  0.38039171313E+02  0.00000000000E+00 0.  1.
         23    2    1    2    0    0  0.00000000000E+00  0.00000000000E+00  0.18561612673E+02  0.94639955300E+02  0.92801873225E+02 0.  0.
        -13    1    3    3    0    0 -0.39448828101E+02  0.10523500281E+02 -0.13203390973E+02  0.42910180959E+02  0.00000000000E+00 0.  1.
         13    1    3    3    0    0  0.39448828101E+02 -0.10523500281E+02  0.31765003646E+02  0.51729774341E+02  0.00000000000E+00 0. -1.
<mgrwt>
<rscale>  0 0.92801873E+02</rscale>
<asrwt>0</asrwt>
<pdfrwt beam="1">  1        1 0.87078129E-02 0.92801873E+02</pdfrwt>
<pdfrwt beam="2">  1       -1 0.58521802E-02 0.92801873E+02</pdfrwt>
<totfact> 0.90937796E+04</totfact>
</mgrwt>
</event>
<event>
 5    1  0.6308903E+000  0.9095614E+02  0.7546771E-02  0.1300553E+00
         -3   -1    0    0    0  501 -0.00000000000E+00  0.00000000000E+00  0.25705726521E+02  0.25705726521E+02  0.00000000000E+00 0.  1.
          3   -1    0    0  501    0  0.00000000000E+00 -0.00000000000E+00 -0.80458919791E+02  0.80458919791E+02  0.00000000000E+00 0. -1.
         23    2    1    2    0    0  0.00000000000E+00  0.00000000000E+00 -0.54753193270E+02  0.10616464631E+03  0.90956143022E+02 0.  0.
        -13    1    3    3    0    0 -0.50730530774E+01  0.34423053942E+02  0.68042880223E+01  0.35453925674E+02  0.00000000000E+00 0.  1.
         13    1    3    3    0    0  0.50730530774E+01 -0.34423053942E+02 -0.61557481292E+02  0.70710720639E+02  0.00000000000E+00 0. -1.
<mgrwt>
<rscale>  0 0.90956143E+02</rscale>
<asrwt>0</asrwt>
<pdfrwt beam="2">  1        3 0.12378295E-01 0.90956143E+02</pdfrwt>
<pdfrwt beam="1">  1       -3 0.39547272E-02 0.90956143E+02</pdfrwt>
<totfact> 0.34446305E+04</totfact>
</mgrwt>
</event>
<event>
 5    1  0.6308903E+000  0.8950837E+02  0.7546771E-02  0.1304047E+00
          3   -1    0    0  501    0  0.00000000000E+00  0.00000000000E+00  0.18654420909E+03  0.18654420909E+03  0.00000000000E+00 0. -1.
         -3   -1    0    0    0  501 -0.00000000000E+00 -0.00000000000E+00 -0.10737064352E+02  0.10737064352E+02  0.00000000000E+00 0.  1.
         23    2    1    2    0    0  0.00000000000E+00  0.00000000000E+00  0.17580714474E+03  0.19728127344E+03  0.89508372290E+02 0.  0.
        -13    1    3    3    0    0  0.39327883854E+02  0.11693793531E+02  0.12730068351E+03  0.13374935991E+03  0.00000000000E+00 0. -1.
         13    1    3    3    0    0 -0.39327883854E+02 -0.11693793531E+02  0.48506461233E+02  0.63531913531E+02  0.00000000000E+00 0.  1.
<mgrwt>
<rscale>  0 0.89508372E+02</rscale>
<asrwt>0</asrwt>
<pdfrwt beam="1">  1        3 0.28699107E-01 0.89508372E+02</pdfrwt>
<pdfrwt beam="2">  1       -3 0.16518562E-02 0.89508372E+02</pdfrwt>
<totfact> 0.30099534E+04</totfact>
</mgrwt>
</event>
<event>
 5    1  0.6308903E+000  0.8843229E+02  0.7546771E-02  0.1306693E+00
          1   -1    0    0  501    0  0.00000000000E+00  0.00000000000E+00  0.47764394199E+03  0.47764394199E+03  0.00000000000E+00 0. -1.
         -1   -1    0    0    0  501 -0.00000000000E+00 -0.00000000000E+00 -0.40931483503E+01  0.40931483503E+01  0.00000000000E+00 0.  1.
         23    2    1    2    0    0  0.00000000000E+00  0.00000000000E+00  0.47355079364E+03  0.48173709034E+03  0.88432290780E+02 0.  0.
        -13    1    3    3    0    0 -0.16985738270E+02 -0.40685407790E+02  0.25504678900E+03  0.25882944634E+03  0.00000000000E+00 0. -1.
         13    1    3    3    0    0  0.16985738270E+02  0.40685407790E+02  0.21850400463E+03  0.22290764400E+03  0.00000000000E+00 0.  1.
<mgrwt>
<rscale>  0 0.88432291E+02</rscale>
<asrwt>0</asrwt>
<pdfrwt beam="1">  1        1 0.73483639E-01 0.88432291E+02</pdfrwt>
<pdfrwt beam="2">  1       -1 0.62971551E-03 0.88432291E+02</pdfrwt>
<totfact> 0.15014250E+05</totfact>
</mgrwt>
</event>
<event>
 5    1  0.6308903E+000  0.9065174E+02  0.7546771E-02  0.1301281E+00
          2   -1    0    0  501    0  0.00000000000E+00  0.00000000000E+00  0.94176255325E+02  0.94176255325E+02  0.00000000000E+00 0. -1.
         -2   -1    0    0    0  501 -0.00000000000E+00 -0.00000000000E+00 -0.21814783404E+02  0.21814783404E+02  0.00000000000E+00 0.  1.
         23    2    1    2    0    0  0.00000000000E+00  0.00000000000E+00  0.72361471922E+02  0.11599103873E+03  0.90651742657E+02 0.  0.
        -13    1    3    3    0    0 -0.25656169231E+02  0.25608028601E+02  0.13639514125E+01  0.36274929523E+02  0.00000000000E+00 0.  1.
         13    1    3    3    0    0  0.25656169231E+02 -0.25608028601E+02  0.70997520509E+02  0.79716109206E+02  0.00000000000E+00 0. -1.
<mgrwt>
<rscale>  0 0.90651743E+02</rscale>
<asrwt>0</asrwt>
<pdfrwt beam="1">  1        2 0.14488654E-01 0.90651743E+02</pdfrwt>
<pdfrwt beam="2">  1       -2 0.33561206E-02 0.90651743E+02</pdfrwt>
<totfact> 0.12240740E+05</totfact>
</mgrwt>
</event>
<event>
 5    1  0.6308903E+000  0.8705704E+02  0.7546771E-02  0.1310139E+00
         -1   -1    0    0    0  501 -0.00000000000E+00  0.00000000000E+00  0.25188856373E+02  0.25188856373E+02  0.00000000000E+00 0.  1.
          1   -1    0    0  501    0  0.00000000000E+00 -0.00000000000E+00 -0.75221036684E+02  0.75221036684E+02  0.00000000000E+00 0. -1.
         23    2    1    2    0    0  0.00000000000E+00  0.00000000000E+00 -0.50032180311E+02  0.10040989306E+03  0.87057036229E+02 0.  0.
        -13    1    3    3    0    0 -0.28328824909E+02  0.31822457374E+02 -0.35302587925E+02  0.55330496367E+02  0.00000000000E+00 0.  1.
         13    1    3    3    0    0  0.28328824909E+02 -0.31822457374E+02 -0.14729592386E+02  0.45079396689E+02  0.00000000000E+00 0. -1.
<mgrwt>
<rscale>  0 0.87057036E+02</rscale>
<asrwt>0</asrwt>
<pdfrwt beam="2">  1        1 0.11572467E-01 0.87057036E+02</pdfrwt>
<pdfrwt beam="1">  1       -1 0.38752086E-02 0.87057036E+02</pdfrwt>
<totfact> 0.11324808E+05</totfact>
</mgrwt>
</event>
<event>
 5    1  0.6308903E+000  0.8889132E+02  0.7546771E-02  0.1305559E+00
         -4   -1    0    0    0  501 -0.00000000000E+00  0.00000000000E+00  0.38113904861E+03  0.38113904861E+03  0.00000000000E+00 0.  1.
          4   -1    0    0  501    0  0.00000000000E+00 -0.00000000000E+00 -0.51829296616E+01  0.51829296616E+01  0.00000000000E+00 0. -1.
         23    2    1    2    0    0  0.00000000000E+00  0.00000000000E+00  0.37595611894E+03  0.38632197827E+03  0.88891324216E+02 0.  0.
        -13    1    3    3    0    0 -0.42136828883E+02 -0.92663731944E+01  0.14156753531E+03  0.14799576032E+03  0.00000000000E+00 0.  1.
         13    1    3    3    0    0  0.42136828883E+02  0.92663731944E+01  0.23438858364E+03  0.23832621794E+03  0.00000000000E+00 0. -1.
<mgrwt>
<rscale>  0 0.88891324E+02</rscale>
<asrwt>0</asrwt>
<pdfrwt beam="2">  1        4 0.79737409E-03 0.88891324E+02</pdfrwt>
<pdfrwt beam="1">  1       -4 0.58636755E-01 0.88891324E+02</pdfrwt>
<totfact> 0.16547431E+04</totfact>
</mgrwt>
</event>
<event>
 5    1  0.6308903E+000  0.9191478E+02  0.7546771E-02  0.1298280E+00
         -2   -1    0    0    0  501 -0.00000000000E+00  0.00000000000E+00  0.22098124321E+02  0.22098124321E+02  0.00000000000E+00 0.  1.
          2   -1    0    0  501    0  0.00000000000E+00 -0.00000000000E+00 -0.95577411564E+02  0.95577411564E+02  0.00000000000E+00 0. -1.
         23    2    1    2    0    0  0.00000000000E+00  0.00000000000E+00 -0.73479287242E+02  0.11767553588E+03  0.91914776245E+02 0.  0.
        -13    1    3    3    0    0 -0.84218759569E+01  0.22123152338E+02  0.13692506192E+02  0.27346783903E+02  0.00000000000E+00 0.  1.
         13    1    3    3    0    0  0.84218759569E+01 -0.22123152338E+02 -0.87171793434E+02  0.90328751982E+02  0.00000000000E+00 0. -1.
<mgrwt>
<rscale>  0 0.91914776E+02</rscale>
<asrwt>0</asrwt>
<pdfrwt beam="2">  1        2 0.14704217E-01 0.91914776E+02</pdfrwt>
<pdfrwt beam="1">  1       -2 0.33997115E-02 0.91914776E+02</pdfrwt>
<totfact> 0.11834394E+05</totfact>
</mgrwt>
</event>
<event>
 5    1  0.6308903E+000  0.9151448E+02  0.7546771E-02  0.1299225E+00
         -1   -1    0    0    0  501 -0.00000000000E+00  0.00000000000E+00  0.10225317387E+02  0.10225317387E+02  0.00000000000E+00 0.  1.
          1   -1    0    0  501    0  0.00000000000E+00 -0.00000000000E+00 -0.20475894148E+03  0.20475894148E+03  0.00000000000E+00 0. -1.
         23    2    1    2    0    0  0.00000000000E+00  0.00000000000E+00 -0.19453362409E+03  0.21498425886E+03  0.91514483323E+02 0.  0.
        -13    1    3    3    0    0 -0.24230895635E+02 -0.32964593211E+02 -0.49127219074E+02  0.63931872824E+02  0.00000000000E+00 0.  1.
         13    1    3    3    0    0  0.24230895635E+02  0.32964593211E+02 -0.14540640501E+03  0.15105238604E+03  0.00000000000E+00 0. -1.
<mgrwt>
<rscale>  0 0.91514483E+02</rscale>
<asrwt>0</asrwt>
<pdfrwt beam="2">  1        1 0.31501377E-01 0.91514483E+02</pdfrwt>
<pdfrwt beam="1">  1       -1 0.15731257E-02 0.91514483E+02</pdfrwt>
<totfact> 0.11777389E+05</totfact>
</mgrwt>
</event>
<event>
 5    1  0.6308903E+000  0.9087303E+02  0.7546771E-02  0.1300751E+00
         -2   -1    0    0    0  501 -0.00000000000E+00  0.00000000000E+00  0.70169771279E+01  0.70169771279E+01  0.00000000000E+00 0.  1.
          2   -1    0    0  501    0  0.00000000000E+00 -0.00000000000E+00 -0.29421169150E+03  0.29421169150E+03  0.00000000000E+00 0. -1.
         23    2    1    2    0    0  0.00000000000E+00  0.00000000000E+00 -0.28719471438E+03  0.30122866863E+03  0.90873025922E+02 0.  0.
        -13    1    3    3    0    0  0.66335014646E+01  0.44891587960E+02 -0.15116991204E+03  0.15783409112E+03  0.00000000000E+00 0.  1.
         13    1    3    3    0    0 -0.66335014646E+01 -0.44891587960E+02 -0.13602480233E+03  0.14339457752E+03  0.00000000000E+00 0. -1.
<mgrwt>
<rscale>  0 0.90873026E+02</rscale>
<asrwt>0</asrwt>
<pdfrwt beam="2">  1        2 0.45263337E-01 0.90873026E+02</pdfrwt>
<pdfrwt beam="1">  1       -2 0.10795349E-02 0.90873026E+02</pdfrwt>
<totfact> 0.17995657E+05</totfact>
</mgrwt>
</event>
<event>
 5    1  0.6308903E+000  0.9003358E+02  0.7546771E-02  0.1302770E+00
          2   -1    0    0  501    0  0.00000000000E+00  0.00000000000E+00  0.19812196183E+02  0.19812196183E+02  0.00000000000E+00 0. -1.
         -2   -1    0    0    0  501 -0.00000000000E+00 -0.00000000000E+00 -0.10228604495E+03  0.10228604495E+03  0.00000000000E+00 0.  1.
         23    2    1    2    0    0  0.00000000000E+00  0.00000000000E+00 -0.82473848772E+02  0.12209824114E+03  0.90033575724E+02 0.  0.
        -13    1    3    3    0    0  0.11390282169E+02  0.42572405700E+02 -0.53692986003E+02  0.69462831795E+02  0.00000000000E+00 0.  1.
         13    1    3    3    0    0 -0.11390282169E+02 -0.42572405700E+02 -0.28780862769E+02  0.52635409343E+02  0.00000000000E+00 0. -1.
<mgrwt>
<rscale>  0 0.90033576E+02</rscale>
<asrwt>0</asrwt>
<pdfrwt beam="1">  1        2 0.30480302E-02 0.90033576E+02</pdfrwt>
<pdfrwt beam="2">  1       -2 0.15736314E-01 0.90033576E+02</pdfrwt>
<totfact> 0.81796953E+04</totfact>
</mgrwt>
</event>
<event>
 5    1  0.6308903E+000  0.8954306E+02  0.7546771E-02  0.1303962E+00
          3   -1    0    0  501    0  0.00000000000E+00  0.00000000000E+00  0.78426969853E+02  0.78426969853E+02  0.00000000000E+00 0. -1.
         -3   -1    0    0    0  501 -0.00000000000E+00 -0.00000000000E+00 -0.25558679567E+02  0.25558679567E+02  0.00000000000E+00 0.  1.
         23    2    1    2    0    0  0.00000000000E+00  0.00000000000E+00  0.52868290286E+02  0.10398564942E+03  0.89543057617E+02 0.  0.
        -13    1    3    3    0    0 -0.18807298179E+01 -0.24263891136E+02 -0.17206593050E+02  0.29805039877E+02  0.00000000000E+00 0.  1.
         13    1    3    3    0    0  0.18807298179E+01  0.24263891136E+02  0.70074883335E+02  0.74180609543E+02  0.00000000000E+00 0. -1.
<mgrwt>
<rscale>  0 0.89543058E+02</rscale>
<asrwt>0</asrwt>
<pdfrwt beam="1">  1        3 0.12065688E-01 0.89543058E+02</pdfrwt>
<pdfrwt beam="2">  1       -3 0.39321046E-02 0.89543058E+02</pdfrwt>
<totfact> 0.36106825E+04</totfact>
</mgrwt>
</event>
<event>
 4    1  0.6308903E+000  0.3653296E+02  0.7546771E-02  0.1535394E+00
          2   -1    0    0  501    0  0.00000000000E+00  0.00000000000E+00  0.76486383206E+01  0.76486383206E+01  0.00000000000E+00 0.  1.
         -2   -1    0    0    0  501 -0.00000000000E+00 -0.00000000000E+00 -0.43624009736E+02  0.43624009736E+02  0.00000000000E+00 0. -1.
        -13    1    1    2    0    0  0.72342442073E+01  0.13524380555E+02 -0.31911077272E+02  0.35405649426E+02  0.00000000000E+00 0. -1.
         13    1    1    2    0    0 -0.72342442073E+01 -0.13524380555E+02 -0.40642941435E+01  0.15866998630E+02  0.00000000000E+00 0.  1.
<mgrwt>
<rscale>  0 0.36532959E+02</rscale>
<asrwt>0</asrwt>
<pdfrwt beam="1">  1        2 0.11767136E-02 0.36532959E+02</pdfrwt>
<pdfrwt beam="2">  1       -2 0.67113863E-02 0.36532959E+02</pdfrwt>
<totfact> 0.87790438E+05</totfact>
</mgrwt>
</event>
<event>
 5    1  0.6308903E+000  0.8952780E+02  0.7546771E-02  0.1303999E+00
          2   -1    0    0  501    0  0.00000000000E+00  0.00000000000E+00  0.60307230120E+02  0.60307230120E+02  0.00000000000E+00 0. -1.
         -2   -1    0    0    0  501 -0.00000000000E+00 -0.00000000000E+00 -0.33226639224E+02  0.33226639224E+02  0.00000000000E+00 0.  1.
         23    2    1    2    0    0  0.00000000000E+00  0.00000000000E+00  0.27080590896E+02  0.93533869345E+02  0.89527796305E+02 0.  0.
        -13    1    3    3    0    0 -0.59939670636E-01  0.20111961136E+02 -0.28240586640E+02  0.34670236620E+02  0.00000000000E+00 0.  1.
         13    1    3    3    0    0  0.59939670636E-01 -0.20111961136E+02  0.55321177536E+02  0.58863632724E+02  0.00000000000E+00 0. -1.
<mgrwt>
<rscale>  0 0.89527796E+02</rscale>
<asrwt>0</asrwt>
<pdfrwt beam="1">  1        2 0.92780354E-02 0.89527796E+02</pdfrwt>
<pdfrwt beam="2">  1       -2 0.51117907E-02 0.89527796E+02</pdfrwt>
<totfact> 0.11181058E+05</totfact>
</mgrwt>
</event>
<event>
 5    1  0.6308903E+000  0.9150312E+02  0.7546771E-02  0.1299252E+00
          3   -1    0    0  501    0  0.00000000000E+00  0.00000000000E+00  0.25087777679E+02  0.25087777679E+02  0.00000000000E+00 0. -1.
         -3   -1    0    0    0  501 -0.00000000000E+00 -0.00000000000E+00 -0.83435268427E+02  0.83435268427E+02  0.00000000000E+00 0.  1.
         23    2    1    2    0    0  0.00000000000E+00  0.00000000000E+00 -0.58347490748E+02  0.10852304611E+03  0.91503124861E+02 0.  0.
        -13    1    3    3    0    0  0.23612589464E+02 -0.12352793489E+02 -0.73280641194E+02  0.77975626077E+02  0.00000000000E+00 0.  1.
         13    1    3    3    0    0 -0.23612589464E+02  0.12352793489E+02  0.14933150446E+02  0.30547420029E+02  0.00000000000E+00 0. -1.
<mgrwt>
<rscale>  0 0.91503125E+02</rscale>
<asrwt>0</asrwt>
<pdfrwt beam="1">  1        3 0.38596581E-02 0.91503125E+02</pdfrwt>
<pdfrwt beam="2">  1       -3 0.12836195E-01 0.91503125E+02</pdfrwt>
<totfact> 0.33722273E+04</totfact>
</mgrwt>
</event>
<event>
 5    1  0.6308903E+000  0.9672593E+02  0.7546771E-02  0.1287336E+00
         -2   -1    0    0    0  501 -0.00000000000E+00  0.00000000000E+00  0.19433674934E+02  0.19433674934E+02  0.00000000000E+00 0.  1.
          2   -1    0    0  501    0  0.00000000000E+00 -0.00000000000E+00 -0.12035686522E+03  0.12035686522E+03  0.00000000000E+00 0. -1.
         23    2    1    2    0    0  0.00000000000E+00  0.00000000000E+00 -0.10092319029E+03  0.13979054016E+03  0.96725926097E+02 0.  0.
        -13    1    3    3    0    0 -0.34586461520E+02  0.23283873308E+02 -0.15042892056E+02  0.44324380177E+02  0.00000000000E+00 0.  1.
         13    1    3    3    0    0  0.34586461520E+02 -0.23283873308E+02 -0.85880298234E+02  0.95466159980E+02  0.00000000000E+00 0. -1.
<mgrwt>
<rscale>  0 0.96725926E+02</rscale>
<asrwt>0</asrwt>
<pdfrwt beam="2">  1        2 0.18516441E-01 0.96725926E+02</pdfrwt>
<pdfrwt beam="1">  1       -2 0.29897961E-02 0.96725926E+02</pdfrwt>
<totfact> 0.11051393E+05</totfact>
</mgrwt>
</event>
<event>
 5    1  0.6308903E+000  0.9184933E+02  0.7546771E-02  0.1298434E+00
         -4   -1    0    0    0  501 -0.00000000000E+00  0.00000000000E+00  0.23204414818E+02  0.23204414818E+02  0.00000000000E+00 0.  1.
          4   -1    0    0  501    0  0.00000000000E+00 -0.00000000000E+00 -0.90891108359E+02  0.90891108359E+02  0.00000000000E+00 0. -1.
         23    2    1    2    0    0  0.00000000000E+00  0.00000000000E+00 -0.67686693541E+02  0.11409552318E+03  0.91849332749E+02 0.  0.
        -13    1    3    3    0    0  0.20978439564E+02  0.21414385622E+02  0.93739699934E+01  0.31409268561E+02  0.00000000000E+00 0.  1.
         13    1    3    3    0    0 -0.20978439564E+02 -0.21414385622E+02 -0.77060663534E+02  0.82686254616E+02  0.00000000000E+00 0. -1.
<mgrwt>
<rscale>  0 0.91849333E+02</rscale>
<asrwt>0</asrwt>
<pdfrwt beam="2">  1        4 0.13983247E-01 0.91849333E+02</pdfrwt>
<pdfrwt beam="1">  1       -4 0.35699100E-02 0.91849333E+02</pdfrwt>
<totfact> 0.25106867E+04</totfact>
</mgrwt>
</event>
<event>
 5    1  0.6308903E+000  0.9007016E+02  0.7546771E-02  0.1302682E+00
          1   -1    0    0  501    0  0.00000000000E+00  0.00000000000E+00  0.69719264236E+02  0.69719264236E+02  0.00000000000E+00 0. -1.
         -1   -1    0    0    0  501 -0.00000000000E+00 -0.00000000000E+00 -0.29090356248E+02  0.29090356248E+02  0.00000000000E+00 0.  1.
         23    2    1    2    0    0  0.00000000000E+00  0.00000000000E+00  0.40628907988E+02  0.98809620485E+02  0.90070155634E+02 0.  0.
        -13    1    3    3    0    0 -0.11418998022E+02 -0.28706705773E+01 -0.27371944175E+02  0.29796939328E+02  0.00000000000E+00 0.  1.
         13    1    3    3    0    0  0.11418998022E+02  0.28706705773E+01  0.68000852164E+02  0.69012681156E+02  0.00000000000E+00 0. -1.
<mgrwt>
<rscale>  0 0.90070156E+02</rscale>
<asrwt>0</asrwt>
<pdfrwt beam="1">  1        1 0.10726041E-01 0.90070156E+02</pdfrwt>
<pdfrwt beam="2">  1       -1 0.44754394E-02 0.90070156E+02</pdfrwt>
<totfact> 0.10197828E+05</totfact>
</mgrwt>
</event>
<event>
 4    1  0.6308903E+000  0.3235275E+03  0.7546771E-02  0.1074037E+00
          1   -1    0    0  501    0  0.00000000000E+00  0.00000000000E+00  0.10126672211E+04  0.10126672211E+04  0.00000000000E+00 0. -1.
         -1   -1    0    0    0  501 -0.00000000000E+00 -0.00000000000E+00 -0.25840185641E+02  0.25840185641E+02  0.00000000000E+00 0.  1.
        -13    1    1    2    0    0 -0.13539497092E+03 -0.74251425646E+02  0.64810640573E+03  0.66624844128E+03  0.00000000000E+00 0.  1.
         13    1    1    2    0    0  0.13539497092E+03  0.74251425646E+02  0.33872062971E+03  0.37225896544E+03  0.00000000000E+00 0. -1.
<mgrwt>
<rscale>  0 0.32352749E+03</rscale>
<asrwt>0</asrwt>
<pdfrwt beam="1">  1        1 0.15579493E+00 0.32352749E+03</pdfrwt>
<pdfrwt beam="2">  1       -1 0.39754139E-02 0.32352749E+03</pdfrwt>
<totfact> 0.38924292E+03</totfact>
</mgrwt>
</event>
<event>
 5    1  0.6308903E+000  0.9049949E+02  0.7546771E-02  0.1301647E+00
         -1   -1    0    0    0  501 -0.00000000000E+00  0.00000000000E+00  0.34823116921E+02  0.34823116921E+02  0.00000000000E+00 0.  1.
          1   -1    0    0  501    0  0.00000000000E+00 -0.00000000000E+00 -0.58798286444E+02  0.58798286444E+02  0.00000000000E+00 0. -1.
         23    2    1    2    0    0  0.00000000000E+00  0.00000000000E+00 -0.23975169523E+02  0.93621403364E+02  0.90499494000E+02 0.  0.
        -13    1    3    3    0    0 -0.29054858864E+02 -0.20687891343E+02  0.16818375239E+02  0.39433886665E+02  0.00000000000E+00 0.  1.
         13    1    3    3    0    0  0.29054858864E+02  0.20687891343E+02 -0.40793544761E+02  0.54187516699E+02  0.00000000000E+00 0. -1.
<mgrwt>
<rscale>  0 0.90499494E+02</rscale>
<asrwt>0</asrwt>
<pdfrwt beam="2">  1        1 0.90458901E-02 0.90499494E+02</pdfrwt>
<pdfrwt beam="1">  1       -1 0.53574027E-02 0.90499494E+02</pdfrwt>
<totfact> 0.98084052E+04</totfact>
</mgrwt>
</event>
<event>
 5    1  0.6308903E+000  0.9081957E+02  0.7546771E-02  0.1300879E+00
         -4   -1    0    0    0  501 -0.00000000000E+00  0.00000000000E+00  0.41186616216E+01  0.41186616216E+01  0.00000000000E+00 0.  1.
          4   -1    0    0  501    0  0.00000000000E+00 -0.00000000000E+00 -0.50065987830E+03  0.50065987830E+03  0.00000000000E+00 0. -1.
         23    2    1    2    0    0  0.00000000000E+00  0.00000000000E+00 -0.49654121668E+03  0.50477853992E+03  0.90819571156E+02 0.  0.
        -13    1    3    3    0    0 -0.10930173016E+02  0.44045483834E+02 -0.23935121791E+03  0.24361543228E+03  0.00000000000E+00 0. -1.
         13    1    3    3    0    0  0.10930173016E+02 -0.44045483834E+02 -0.25718999877E+03  0.26116310764E+03  0.00000000000E+00 0.  1.
<mgrwt>
<rscale>  0 0.90819571E+02</rscale>
<asrwt>0</asrwt>
<pdfrwt beam="2">  1        4 0.77024598E-01 0.90819571E+02</pdfrwt>
<pdfrwt beam="1">  1       -4 0.63364024E-03 0.90819571E+02</pdfrwt>
<totfact> 0.13117443E+04</totfact>
</mgrwt>
</event>
<event>
 5    1  0.6308903E+000  0.9185613E+02  0.7546771E-02  0.1298418E+00
         -3   -1    0    0    0  501 -0.00000000000E+00  0.00000000000E+00  0.69008358979E+02  0.69008358979E+02  0.00000000000E+00 0.  1.
          3   -1    0    0  501    0  0.00000000000E+00 -0.00000000000E+00 -0.30567124624E+02  0.30567124624E+02  0.00000000000E+00 0. -1.
         23    2    1    2    0    0  0.00000000000E+00  0.00000000000E+00  0.38441234355E+02  0.99575483603E+02  0.91856129006E+02 0.  0.
        -13    1    3    3    0    0 -0.27361527325E+02 -0.17132641984E+01 -0.20724341135E+02  0.34366942943E+02  0.00000000000E+00 0. -1.
         13    1    3    3    0    0  0.27361527325E+02  0.17132641984E+01  0.59165575491E+02  0.65208540659E+02  0.00000000000E+00 0.  1.
<mgrwt>
<rscale>  0 0.91856129E+02</rscale>
<asrwt>0</asrwt>
<pdfrwt beam="2">  1        3 0.47026346E-02 0.91856129E+02</pdfrwt>
<pdfrwt beam="1">  1       -3 0.10616671E-01 0.91856129E+02</pdfrwt>
<totfact> 0.34008172E+04</totfact>
</mgrwt>
</event>
<event>
 5    1  0.6308903E+000  0.9098204E+02  0.7546771E-02  0.1300491E+00
         -2   -1    0    0    0  501 -0.00000000000E+00  0.00000000000E+00  0.26168085247E+03  0.26168085247E+03  0.00000000000E+00 0.  1.
          2   -1    0    0  501    0  0.00000000000E+00 -0.00000000000E+00 -0.79082316771E+01  0.79082316771E+01  0.00000000000E+00 0. -1.
         23    2    1    2    0    0  0.00000000000E+00  0.00000000000E+00  0.25377262080E+03  0.26958908415E+03  0.90982037938E+02 0.  0.
        -13    1    3    3    0    0 -0.23017343857E+02  0.29213367529E+02  0.49265820174E+02  0.61727951513E+02  0.00000000000E+00 0. -1.
         13    1    3    3    0    0  0.23017343857E+02 -0.29213367529E+02  0.20450680062E+03  0.20786113264E+03  0.00000000000E+00 0.  1.
<mgrwt>
<rscale>  0 0.90982038E+02</rscale>
<asrwt>0</asrwt>
<pdfrwt beam="2">  1        2 0.12166512E-02 0.90982038E+02</pdfrwt>
<pdfrwt beam="1">  1       -2 0.40258586E-01 0.90982038E+02</pdfrwt>
<totfact> 0.55194740E+04</totfact>
</mgrwt>
</event>
<event>
 5    1  0.6308903E+000  0.9288377E+02  0.7546771E-02  0.1296015E+00
         -2   -1    0    0    0  501 -0.00000000000E+00  0.00000000000E+00  0.20412238050E+03  0.20412238050E+03  0.00000000000E+00 0.  1.
          2   -1    0    0  501    0  0.00000000000E+00 -0.00000000000E+00 -0.10566448810E+02  0.10566448810E+02  0.00000000000E+00 0. -1.
         23    2    1    2    0    0  0.00000000000E+00  0.00000000000E+00  0.19355593169E+03  0.21468882931E+03  0.92883770046E+02 0.  0.
        -13    1    3    3    0    0 -0.45587866287E+02 -0.58781773336E+01  0.81438722624E+02  0.93515090034E+02  0.00000000000E+00 0. -1.
         13    1    3    3    0    0  0.45587866287E+02  0.58781773336E+01  0.11211720907E+03  0.12117373928E+03  0.00000000000E+00 0.  1.
<mgrwt>
<rscale>  0 0.92883770E+02</rscale>
<asrwt>0</asrwt>
<pdfrwt beam="2">  1        2 0.16256077E-02 0.92883770E+02</pdfrwt>
<pdfrwt beam="1">  1       -2 0.31403440E-01 0.92883770E+02</pdfrwt>
<totfact> 0.58905692E+04</totfact>
</mgrwt>
</event>
<event>
 5    1  0.6308903E+000  0.9078560E+02  0.7546771E-02  0.1300960E+00
         -2   -1    0    0    0  501 -0.00000000000E+00  0.00000000000E+00  0.16549587433E+02  0.16549587433E+02  0.00000000000E+00 0.  1.
          2   -1    0    0  501    0  0.00000000000E+00 -0.00000000000E+00 -0.12450499785E+03  0.12450499785E+03  0.00000000000E+00 0. -1.
         23    2    1    2    0    0  0.00000000000E+00  0.00000000000E+00 -0.10795541042E+03  0.14105458528E+03  0.90785601231E+02 0.  0.
        -13    1    3    3    0    0  0.37444232498E+02  0.16518918075E+02 -0.23469485487E+02  0.47177981631E+02  0.00000000000E+00 0. -1.
         13    1    3    3    0    0 -0.37444232498E+02 -0.16518918075E+02 -0.84485924931E+02  0.93876603651E+02  0.00000000000E+00 0.  1.
<mgrwt>
<rscale>  0 0.90785601E+02</rscale>
<asrwt>0</asrwt>
<pdfrwt beam="2">  1        2 0.19154615E-01 0.90785601E+02</pdfrwt>
<pdfrwt beam="1">  1       -2 0.25460904E-02 0.90785601E+02</pdfrwt>
<totfact> 0.13296737E+05</totfact>
</mgrwt>
</event>
<event>
 5    1  0.6308903E+000  0.9162745E+02  0.7546771E-02  0.1298958E+00
         -3   -1    0    0    0  501 -0.00000000000E+00  0.00000000000E+00  0.11312241921E+03  0.11312241921E+03  0.00000000000E+00 0.  1.
          3   -1    0    0  501    0  0.00000000000E+00 -0.00000000000E+00 -0.18554210427E+02  0.18554210427E+02  0.00000000000E+00 0. -1.
         23    2    1    2    0    0  0.00000000000E+00  0.00000000000E+00  0.94568208780E+02  0.13167662963E+03  0.91627445014E+02 0.  0.
        -13    1    3    3    0    0  0.28233105045E+02 -0.17252163256E+00  0.99134067378E+02  0.10307619172E+03  0.00000000000E+00 0.  1.
         13    1    3    3    0    0 -0.28233105045E+02  0.17252163256E+00 -0.45658585981E+01  0.28600437915E+02  0.00000000000E+00 0. -1.
<mgrwt>
<rscale>  0 0.91627445E+02</rscale>
<asrwt>0</asrwt>
<pdfrwt beam="2">  1        3 0.28544940E-02 0.91627445E+02</pdfrwt>
<pdfrwt beam="1">  1       -3 0.17403449E-01 0.91627445E+02</pdfrwt>
<totfact> 0.32035389E+04</totfact>
</mgrwt>
</event>
<event>
 5    1  0.6308903E+000  0.9051998E+02  0.7546771E-02  0.1301597E+00
          1   -1    0    0  501    0  0.00000000000E+00  0.00000000000E+00  0.23407642461E+03  0.23407642461E+03  0.00000000000E+00 0. -1.
         -1   -1    0    0    0  501 -0.00000000000E+00 -0.00000000000E+00 -0.87512736827E+01  0.87512736827E+01  0.00000000000E+00 0.  1.
         23    2    1    2    0    0  0.00000000000E+00  0.00000000000E+00  0.22532515093E+03  0.24282769830E+03  0.90519983528E+02 0.  0.
        -13    1    3    3    0    0  0.14359441648E+02  0.30806203902E+02  0.19283786459E+03  0.19581025965E+03  0.00000000000E+00 0. -1.
         13    1    3    3    0    0 -0.14359441648E+02 -0.30806203902E+02  0.32487286338E+02  0.47017438647E+02  0.00000000000E+00 0.  1.
<mgrwt>
<rscale>  0 0.90519984E+02</rscale>
<asrwt>0</asrwt>
<pdfrwt beam="1">  1        1 0.36011753E-01 0.90519984E+02</pdfrwt>
<pdfrwt beam="2">  1       -1 0.13463500E-02 0.90519984E+02</pdfrwt>
<totfact> 0.12447477E+05</totfact>
</mgrwt>
</event>
<event>
 4    1  0.6308903E+000  0.2253616E+02  0.7546771E-02  0.1699141E+00
         -1   -1    0    0    0  501 -0.00000000000E+00  0.00000000000E+00  0.19269907014E+01  0.19269907014E+01  0.00000000000E+00 0.  1.
          1   -1    0    0  501    0  0.00000000000E+00 -0.00000000000E+00 -0.65890112194E+02  0.65890112194E+02  0.00000000000E+00 0. -1.
        -13    1    1    2    0    0  0.74461363850E+01  0.81277225988E+01 -0.39016282263E+02  0.40543496437E+02  0.00000000000E+00 0.  1.
         13    1    1    2    0    0 -0.74461363850E+01 -0.81277225988E+01 -0.24946839231E+02  0.27273606459E+02  0.00000000000E+00 0. -1.
<mgrwt>
<rscale>  0 0.22536161E+02</rscale>
<asrwt>0</asrwt>
<pdfrwt beam="2">  1        1 0.10136940E-01 0.22536161E+02</pdfrwt>
<pdfrwt beam="1">  1       -1 0.29646012E-03 0.22536161E+02</pdfrwt>
<totfact> 0.32610553E+06</totfact>
</mgrwt>
</event>
<event>
 5    1  0.6308903E+000  0.9263478E+02  0.7546771E-02  0.1296594E+00
         -3   -1    0    0    0  501 -0.00000000000E+00  0.00000000000E+00  0.64047854293E+02  0.64047854293E+02  0.00000000000E+00 0.  1.
          3   -1    0    0  501    0  0.00000000000E+00 -0.00000000000E+00 -0.33495275032E+02  0.33495275032E+02  0.00000000000E+00 0. -1.
         23    2    1    2    0    0  0.00000000000E+00  0.00000000000E+00  0.30552579261E+02  0.97543129325E+02  0.92634777374E+02 0.  0.
        -13    1    3    3    0    0  0.27675234758E+02 -0.31934027301E+02  0.35244186664E+02  0.55025933997E+02  0.00000000000E+00 0.  1.
         13    1    3    3    0    0 -0.27675234758E+02  0.31934027301E+02 -0.46916074031E+01  0.42517195329E+02  0.00000000000E+00 0. -1.
<mgrwt>
<rscale>  0 0.92634777E+02</rscale>
<asrwt>0</asrwt>
<pdfrwt beam="2">  1        3 0.51531192E-02 0.92634777E+02</pdfrwt>
<pdfrwt beam="1">  1       -3 0.98535161E-02 0.92634777E+02</pdfrwt>
<totfact> 0.33378352E+04</totfact>
</mgrwt>
</event>
<event>
 5    1  0.6308903E+000  0.9538869E+02  0.7546771E-02  0.1290303E+00
         -2   -1    0    0    0  501 -0.00000000000E+00  0.00000000000E+00  0.59985790577E+02  0.59985790577E+02  0.00000000000E+00 0.  1.
          2   -1    0    0  501    0  0.00000000000E+00 -0.00000000000E+00 -0.37921488228E+02  0.37921488228E+02  0.00000000000E+00 0. -1.
         23    2    1    2    0    0  0.00000000000E+00  0.00000000000E+00  0.22064302349E+02  0.97907278806E+02  0.95388688035E+02 0.  0.
        -13    1    3    3    0    0 -0.40607009376E+02 -0.69642077362E+01  0.35694066452E+02  0.54511427974E+02  0.00000000000E+00 0.  1.
         13    1    3    3    0    0  0.40607009376E+02  0.69642077362E+01 -0.13629764103E+02  0.43395850832E+02  0.00000000000E+00 0. -1.
<mgrwt>
<rscale>  0 0.95388688E+02</rscale>
<asrwt>0</asrwt>
<pdfrwt beam="2">  1        2 0.58340751E-02 0.95388688E+02</pdfrwt>
<pdfrwt beam="1">  1       -2 0.92285832E-02 0.95388688E+02</pdfrwt>
<totfact> 0.82433564E+04</totfact>
</mgrwt>
</event>
<event>
 5    1  0.6308903E+000  0.7690582E+02  0.7546771E-02  0.1338069E+00
         -3   -1    0    0    0  501 -0.00000000000E+00  0.00000000000E+00  0.22011182997E+02  0.22011182997E+02  0.00000000000E+00 0.  1.
          3   -1    0    0  501    0  0.00000000000E+00 -0.00000000000E+00 -0.67176139420E+02  0.67176139420E+02  0.00000000000E+00 0. -1.
         23    2    1    2    0    0  0.00000000000E+00  0.00000000000E+00 -0.45164956423E+02  0.89187322418E+02  0.76905820269E+02 0.  0.
        -13    1    3    3    0    0  0.19734897671E+02 -0.33002402207E+02 -0.22536668792E+02  0.44570463064E+02  0.00000000000E+00 0. -1.
         13    1    3    3    0    0 -0.19734897671E+02  0.33002402207E+02 -0.22628287631E+02  0.44616859354E+02  0.00000000000E+00 0.  1.
<mgrwt>
<rscale>  0 0.76905820E+02</rscale>
<asrwt>0</asrwt>
<pdfrwt beam="2">  1        3 0.10334791E-01 0.76905820E+02</pdfrwt>
<pdfrwt beam="1">  1       -3 0.33863358E-02 0.76905820E+02</pdfrwt>
<totfact> 0.56152227E+04</totfact>
</mgrwt>
</event>
<event>
 5    1  0.6308903E+000  0.9089570E+02  0.7546771E-02  0.1300697E+00
         -3   -1    0    0    0  501 -0.00000000000E+00  0.00000000000E+00  0.99104959345E+02  0.99104959345E+02  0.00000000000E+00 0.  1.
          3   -1    0    0  501    0  0.00000000000E+00 -0.00000000000E+00 -0.20841612403E+02  0.20841612403E+02  0.00000000000E+00 0. -1.
         23    2    1    2    0    0  0.00000000000E+00  0.00000000000E+00  0.78263346942E+02  0.11994657175E+03  0.90895701766E+02 0.  0.
        -13    1    3    3    0    0  0.26165358553E+02  0.28906935731E+02  0.83175097532E+01  0.39867504186E+02  0.00000000000E+00 0. -1.
         13    1    3    3    0    0 -0.26165358553E+02 -0.28906935731E+02  0.69945837189E+02  0.80079067562E+02  0.00000000000E+00 0.  1.
<mgrwt>
<rscale>  0 0.90895702E+02</rscale>
<asrwt>0</asrwt>
<pdfrwt beam="2">  1        3 0.32064020E-02 0.90895702E+02</pdfrwt>
<pdfrwt beam="1">  1       -3 0.15246917E-01 0.90895702E+02</pdfrwt>
<totfact> 0.33531681E+04</totfact>
</mgrwt>
</event>
<event>
 5    1  0.6308903E+000  0.8725203E+02  0.7546771E-02  0.1309646E+00
         -1   -1    0    0    0  501 -0.00000000000E+00  0.00000000000E+00  0.17331235017E+03  0.17331235017E+03  0.00000000000E+00 0.  1.
          1   -1    0    0  501    0  0.00000000000E+00 -0.00000000000E+00 -0.10981496820E+02  0.10981496820E+02  0.00000000000E+00 0. -1.
         23    2    1    2    0    0  0.00000000000E+00  0.00000000000E+00  0.16233085335E+03  0.18429384699E+03  0.87252026275E+02 0.  0.
        -13    1    3    3    0    0 -0.23829300214E+02  0.35069129991E+02  0.59465233479E+02  0.73032824263E+02  0.00000000000E+00 0. -1.
         13    1    3    3    0    0  0.23829300214E+02 -0.35069129991E+02  0.10286561987E+03  0.11126102273E+03  0.00000000000E+00 0.  1.
<mgrwt>
<rscale>  0 0.87252026E+02</rscale>
<asrwt>0</asrwt>
<pdfrwt beam="2">  1        1 0.16894612E-02 0.87252026E+02</pdfrwt>
<pdfrwt beam="1">  1       -1 0.26663437E-01 0.87252026E+02</pdfrwt>
<totfact> 0.80913539E+04</totfact>
</mgrwt>
</event>
<event>
 5    1  0.6308903E+000  0.9155676E+02  0.7546771E-02  0.1299125E+00
          2   -1    0    0  501    0  0.00000000000E+00  0.00000000000E+00  0.37432762845E+02  0.37432762845E+02  0.00000000000E+00 0. -1.
         -2   -1    0    0    0  501 -0.00000000000E+00 -0.00000000000E+00 -0.55984652175E+02  0.55984652175E+02  0.00000000000E+00 0.  1.
         23    2    1    2    0    0  0.00000000000E+00  0.00000000000E+00 -0.18551889330E+02  0.93417415020E+02  0.91556762892E+02 0.  0.
        -13    1    3    3    0    0 -0.42892625562E+01 -0.13637507291E+02 -0.53648600839E+02  0.55520732617E+02  0.00000000000E+00 0.  1.
         13    1    3    3    0    0  0.42892625562E+01  0.13637507291E+02  0.35096711509E+02  0.37896682403E+02  0.00000000000E+00 0. -1.
<mgrwt>
<rscale>  0 0.91556763E+02</rscale>
<asrwt>0</asrwt>
<pdfrwt beam="1">  1        2 0.57588866E-02 0.91556763E+02</pdfrwt>
<pdfrwt beam="2">  1       -2 0.86130234E-02 0.91556763E+02</pdfrwt>
<totfact> 0.92633144E+04</totfact>
</mgrwt>
</event>
<event>
 5    1  0.6308903E+000  0.8560849E+02  0.7546771E-02  0.1313849E+00
         -1   -1    0    0    0  501 -0.00000000000E+00  0.00000000000E+00  0.94312573128E+01  0.94312573128E+01  0.00000000000E+00 0.  1.
          1   -1    0    0  501    0  0.00000000000E+00 -0.00000000000E+00 -0.19426925688E+03  0.19426925688E+03  0.00000000000E+00 0. -1.
         23    2    1    2    0    0  0.00000000000E+00  0.00000000000E+00 -0.18483799957E+03  0.20370051419E+03  0.85608489056E+02 0.  0.
        -13    1    3    3    0    0  0.23213263657E+02 -0.21624549304E+02 -0.24044614829E+02  0.39807288836E+02  0.00000000000E+00 0.  1.
         13    1    3    3    0    0 -0.23213263657E+02  0.21624549304E+02 -0.16079338474E+03  0.16389322536E+03  0.00000000000E+00 0. -1.
<mgrwt>
<rscale>  0 0.85608489E+02</rscale>
<asrwt>0</asrwt>
<pdfrwt beam="2">  1        1 0.29887575E-01 0.85608489E+02</pdfrwt>
<pdfrwt beam="1">  1       -1 0.14509628E-02 0.85608489E+02</pdfrwt>
<totfact> 0.13933622E+05</totfact>
</mgrwt>
</event>
<event>
 5    1  0.6308903E+000  0.9087439E+02  0.7546771E-02  0.1300748E+00
         -2   -1    0    0    0  501 -0.00000000000E+00  0.00000000000E+00  0.26610328988E+02  0.26610328988E+02  0.00000000000E+00 0.  1.
          2   -1    0    0  501    0  0.00000000000E+00 -0.00000000000E+00 -0.77584108173E+02  0.77584108173E+02  0.00000000000E+00 0. -1.
         23    2    1    2    0    0  0.00000000000E+00  0.00000000000E+00 -0.50973779185E+02  0.10419443716E+03  0.90874388971E+02 0.  0.
        -13    1    3    3    0    0  0.52374949962E+01  0.21909238944E+02  0.19757031990E+02  0.29963084254E+02  0.00000000000E+00 0.  1.
         13    1    3    3    0    0 -0.52374949962E+01 -0.21909238944E+02 -0.70730811175E+02  0.74231352907E+02  0.00000000000E+00 0. -1.
<mgrwt>
<rscale>  0 0.90874389E+02</rscale>
<asrwt>0</asrwt>
<pdfrwt beam="2">  1        2 0.11936016E-01 0.90874389E+02</pdfrwt>
<pdfrwt beam="1">  1       -2 0.40938968E-02 0.90874389E+02</pdfrwt>
<totfact> 0.11491412E+05</totfact>
</mgrwt>
</event>
<event>
 5    1  0.6308903E+000  0.9048155E+02  0.7546771E-02  0.1301690E+00
          1   -1    0    0  501    0  0.00000000000E+00  0.00000000000E+00  0.22816728522E+02  0.22816728522E+02  0.00000000000E+00 0. -1.
         -1   -1    0    0    0  501 -0.00000000000E+00 -0.00000000000E+00 -0.89702938317E+02  0.89702938317E+02  0.00000000000E+00 0.  1.
         23    2    1    2    0    0  0.00000000000E+00  0.00000000000E+00 -0.66886209795E+02  0.11251966684E+03  0.90481547096E+02 0.  0.
        -13    1    3    3    0    0 -0.44215236999E+02  0.58435779644E+01 -0.42880525023E+02  0.61869815036E+02  0.00000000000E+00 0.  1.
         13    1    3    3    0    0  0.44215236999E+02 -0.58435779644E+01 -0.24005684771E+02  0.50649851803E+02  0.00000000000E+00 0. -1.
<mgrwt>
<rscale>  0 0.90481547E+02</rscale>
<asrwt>0</asrwt>
<pdfrwt beam="1">  1        1 0.35102660E-02 0.90481547E+02</pdfrwt>
<pdfrwt beam="2">  1       -1 0.13800452E-01 0.90481547E+02</pdfrwt>
<totfact> 0.84637112E+04</totfact>
</mgrwt>
</event>
<event>
 5    1  0.6308903E+000  0.9160581E+02  0.7546771E-02  0.1299009E+00
          2   -1    0    0  501    0  0.00000000000E+00  0.00000000000E+00  0.18936890382E+03  0.18936890382E+03  0.00000000000E+00 0. -1.
         -2   -1    0    0    0  501 -0.00000000000E+00 -0.00000000000E+00 -0.11078409315E+02  0.11078409315E+02  0.00000000000E+00 0.  1.
         23    2    1    2    0    0  0.00000000000E+00  0.00000000000E+00  0.17829049450E+03  0.20044731313E+03  0.91605812656E+02 0.  0.
        -13    1    3    3    0    0 -0.31726040019E+02  0.22942339936E+02  0.14115762138E+03  0.14648674565E+03  0.00000000000E+00 0. -1.
         13    1    3    3    0    0  0.31726040019E+02 -0.22942339936E+02  0.37132873127E+02  0.53960567488E+02  0.00000000000E+00 0.  1.
<mgrwt>
<rscale>  0 0.91605813E+02</rscale>
<asrwt>0</asrwt>
<pdfrwt beam="1">  1        2 0.29133675E-01 0.91605813E+02</pdfrwt>
<pdfrwt beam="2">  1       -2 0.17043708E-02 0.91605813E+02</pdfrwt>
<totfact> 0.14975810E+05</totfact>
</mgrwt>
</event>
<event>
 5    1  0.6308903E+000  0.8186660E+02  0.7546771E-02  0.1323836E+00
          2   -1    0    0  501    0  0.00000000000E+00  0.00000000000E+00  0.11801499713E+03  0.11801499713E+03  0.00000000000E+00 0. -1.
         -2   -1    0    0    0  501 -0.00000000000E+00 -0.00000000000E+00 -0.14197643643E+02  0.14197643643E+02  0.00000000000E+00 0.  1.
         23    2    1    2    0    0  0.00000000000E+00  0.00000000000E+00  0.10381735348E+03  0.13221264077E+03  0.81866595721E+02 0.  0.
        -13    1    3    3    0    0 -0.21746668131E+02  0.32275161591E+02  0.31421296330E+02  0.50019011321E+02  0.00000000000E+00 0.  1.
         13    1    3    3    0    0  0.21746668131E+02 -0.32275161591E+02  0.72396057154E+02  0.82193629449E+02  0.00000000000E+00 0. -1.
<mgrwt>
<rscale>  0 0.81866596E+02</rscale>
<asrwt>0</asrwt>
<pdfrwt beam="1">  1        2 0.18156153E-01 0.81866596E+02</pdfrwt>
<pdfrwt beam="2">  1       -2 0.21842529E-02 0.81866596E+02</pdfrwt>
<totfact> 0.17303069E+05</totfact>
</mgrwt>
</event>
<event>
 5    1  0.6308903E+000  0.9409419E+02  0.7546771E-02  0.1293229E+00
          2   -1    0    0  501    0  0.00000000000E+00  0.00000000000E+00  0.44096028695E+01  0.44096028695E+01  0.00000000000E+00 0.  1.
         -2   -1    0    0    0  501 -0.00000000000E+00 -0.00000000000E+00 -0.50195656788E+03  0.50195656788E+03  0.00000000000E+00 0. -1.
         23    2    1    2    0    0  0.00000000000E+00  0.00000000000E+00 -0.49754696501E+03  0.50636617075E+03  0.94094189450E+02 0.  0.
        -13    1    3    3    0    0  0.38309575801E+02  0.26726416122E+02 -0.27897899041E+03  0.28286251432E+03  0.00000000000E+00 0.  1.
         13    1    3    3    0    0 -0.38309575801E+02 -0.26726416122E+02 -0.21856797460E+03  0.22350365643E+03  0.00000000000E+00 0. -1.
<mgrwt>
<rscale>  0 0.94094189E+02</rscale>
<asrwt>0</asrwt>
<pdfrwt beam="1">  1        2 0.67840126E-03 0.94094189E+02</pdfrwt>
<pdfrwt beam="2">  1       -2 0.77223994E-01 0.94094189E+02</pdfrwt>
<totfact> 0.33354769E+04</totfact>
</mgrwt>
</event>
<event>
 5    1  0.6308903E+000  0.9984650E+02  0.7546771E-02  0.1280619E+00
          1   -1    0    0  501    0  0.00000000000E+00  0.00000000000E+00  0.22263240162E+03  0.22263240162E+03  0.00000000000E+00 0. -1.
         -1   -1    0    0    0  501 -0.00000000000E+00 -0.00000000000E+00 -0.11194825858E+02  0.11194825858E+02  0.00000000000E+00 0.  1.
         23    2    1    2    0    0  0.00000000000E+00  0.00000000000E+00  0.21143757576E+03  0.23382722747E+03  0.99846501518E+02 0.  0.
        -13    1    3    3    0    0 -0.10369193686E+02 -0.46427318818E+02  0.70255555047E+02  0.84846090807E+02  0.00000000000E+00 0. -1.
         13    1    3    3    0    0  0.10369193686E+02  0.46427318818E+02  0.14118202071E+03  0.14898113667E+03  0.00000000000E+00 0.  1.
<mgrwt>
<rscale>  0 0.99846502E+02</rscale>
<asrwt>0</asrwt>
<pdfrwt beam="1">  1        1 0.34251135E-01 0.99846502E+02</pdfrwt>
<pdfrwt beam="2">  1       -1 0.17222811E-02 0.99846502E+02</pdfrwt>
<totfact> 0.94681701E+04</totfact>
</mgrwt>
</event>
<event>
 5    1  0.6308903E+000  0.9178556E+02  0.7546771E-02  0.1298584E+00
         -2   -1    0    0    0  501 -0.00000000000E+00  0.00000000000E+00  0.40330081245E+02  0.40330081245E+02  0.00000000000E+00 0.  1.
          2   -1    0    0  501    0  0.00000000000E+00 -0.00000000000E+00 -0.52222737644E+02  0.52222737644E+02  0.00000000000E+00 0. -1.
         23    2    1    2    0    0  0.00000000000E+00  0.00000000000E+00 -0.11892656399E+02  0.92552818889E+02  0.91785559911E+02 0.  0.
        -13    1    3    3    0    0  0.51871843537E+01 -0.31508327189E+02 -0.39183441443E+02  0.50547241735E+02  0.00000000000E+00 0. -1.
         13    1    3    3    0    0 -0.51871843537E+01  0.31508327189E+02  0.27290785043E+02  0.42005577154E+02  0.00000000000E+00 0.  1.
<mgrwt>
<rscale>  0 0.91785560E+02</rscale>
<asrwt>0</asrwt>
<pdfrwt beam="2">  1        2 0.80342673E-02 0.91785560E+02</pdfrwt>
<pdfrwt beam="1">  1       -2 0.62046279E-02 0.91785560E+02</pdfrwt>
<totfact> 0.10031613E+05</totfact>
</mgrwt>
</event>
<event>
 5    1  0.6308903E+000  0.9094901E+02  0.7546771E-02  0.1300570E+00
         -2   -1    0    0    0  501 -0.00000000000E+00  0.00000000000E+00  0.78335103811E+01  0.78335103811E+01  0.00000000000E+00 0.  1.
          2   -1    0    0  501    0  0.00000000000E+00 -0.00000000000E+00 -0.26398518918E+03  0.26398518918E+03  0.00000000000E+00 0. -1.
         23    2    1    2    0    0  0.00000000000E+00  0.00000000000E+00 -0.25615167879E+03  0.27181869956E+03  0.90949012526E+02 0.  0.
        -13    1    3    3    0    0 -0.32725860903E+02  0.22030329782E+02 -0.60474972886E+02  0.72204845736E+02  0.00000000000E+00 0.  1.
         13    1    3    3    0    0  0.32725860903E+02 -0.22030329782E+02 -0.19567670591E+03  0.19961385382E+03  0.00000000000E+00 0. -1.
<mgrwt>
<rscale>  0 0.90949013E+02</rscale>
<asrwt>0</asrwt>
<pdfrwt beam="2">  1        2 0.40613105E-01 0.90949013E+02</pdfrwt>
<pdfrwt beam="1">  1       -2 0.12051555E-02 0.90949013E+02</pdfrwt>
<totfact> 0.17244100E+05</totfact>
</mgrwt>
</event>
<event>
 5    1  0.6308903E+000  0.9127175E+02  0.7546771E-02  0.1299801E+00
         -2   -1    0    0    0  501 -0.00000000000E+00  0.00000000000E+00  0.12443643073E+02  0.12443643073E+02  0.00000000000E+00 0.  1.
          2   -1    0    0  501    0  0.00000000000E+00 -0.00000000000E+00 -0.16736523907E+03  0.16736523907E+03  0.00000000000E+00 0. -1.
         23    2    1    2    0    0  0.00000000000E+00  0.00000000000E+00 -0.15492159599E+03  0.17980888214E+03  0.91271754619E+02 0.  0.
        -13    1    3    3    0    0  0.26224873407E+02  0.35660287772E+02 -0.99330284423E+02  0.10874697933E+03  0.00000000000E+00 0. -1.
         13    1    3    3    0    0 -0.26224873407E+02 -0.35660287772E+02 -0.55591311569E+02  0.71061902811E+02  0.00000000000E+00 0.  1.
<mgrwt>
<rscale>  0 0.91271755E+02</rscale>
<asrwt>0</asrwt>
<pdfrwt beam="2">  1        2 0.25748497E-01 0.91271755E+02</pdfrwt>
<pdfrwt beam="1">  1       -2 0.19144067E-02 0.91271755E+02</pdfrwt>
<totfact> 0.14477628E+05</totfact>
</mgrwt>
</event>
<event>
 5    1  0.6308903E+000  0.8944610E+02  0.7546771E-02  0.1304199E+00
         -1   -1    0    0    0  501 -0.00000000000E+00  0.00000000000E+00  0.81559897593E+02  0.81559897593E+02  0.00000000000E+00 0.  1.
          1   -1    0    0  501    0  0.00000000000E+00 -0.00000000000E+00 -0.24523708222E+02  0.24523708222E+02  0.00000000000E+00 0. -1.
         23    2    1    2    0    0  0.00000000000E+00  0.00000000000E+00  0.57036189371E+02  0.10608360582E+03  0.89446098433E+02 0.  0.
        -13    1    3    3    0    0 -0.89274462603E+01 -0.24779963834E+02 -0.14349175282E+02  0.29994078343E+02  0.00000000000E+00 0.  1.
         13    1    3    3    0    0  0.89274462603E+01  0.24779963834E+02  0.71385364653E+02  0.76089527473E+02  0.00000000000E+00 0. -1.
<mgrwt>
<rscale>  0 0.89446098E+02</rscale>
<asrwt>0</asrwt>
<pdfrwt beam="2">  1        1 0.37728782E-02 0.89446098E+02</pdfrwt>
<pdfrwt beam="1">  1       -1 0.12547676E-01 0.89446098E+02</pdfrwt>
<totfact> 0.88613821E+04</totfact>
</mgrwt>
</event>
<event>
 5    1  0.6308903E+000  0.9006102E+02  0.7546771E-02  0.1302704E+00
         -1   -1    0    0    0  501 -0.00000000000E+00  0.00000000000E+00  0.18473856873E+02  0.18473856873E+02  0.00000000000E+00 0.  1.
          1   -1    0    0  501    0  0.00000000000E+00 -0.00000000000E+00 -0.10976305491E+03  0.10976305491E+03  0.00000000000E+00 0. -1.
         23    2    1    2    0    0  0.00000000000E+00  0.00000000000E+00 -0.91289198032E+02  0.12823691178E+03  0.90061023008E+02 0.  0.
        -13    1    3    3    0    0 -0.26410945907E+02 -0.28470104727E+02 -0.13185484240E+02  0.41011485239E+02  0.00000000000E+00 0.  1.
         13    1    3    3    0    0  0.26410945907E+02  0.28470104727E+02 -0.78103713792E+02  0.87225426539E+02  0.00000000000E+00 0. -1.
<mgrwt>
<rscale>  0 0.90061023E+02</rscale>
<asrwt>0</asrwt>
<pdfrwt beam="2">  1        1 0.16886624E-01 0.90061023E+02</pdfrwt>
<pdfrwt beam="1">  1       -1 0.28421318E-02 0.90061023E+02</pdfrwt>
<totfact> 0.10970722E+05</totfact>
</mgrwt>
</event>
<event>
 5    1  0.6308903E+000  0.8990935E+02  0.7546771E-02  0.1303071E+00
         -3   -1    0    0    0  501 -0.00000000000E+00  0.00000000000E+00  0.41323634487E+02  0.41323634487E+02  0.00000000000E+00 0.  1.
          3   -1    0    0  501    0  0.00000000000E+00 -0.00000000000E+00 -0.48904773879E+02  0.48904773879E+02  0.00000000000E+00 0. -1.
         23    2    1    2    0    0  0.00000000000E+00  0.00000000000E+00 -0.75811393919E+01  0.90228408366E+02  0.89909354362E+02 0.  0.
        -13    1    3    3    0    0 -0.24134244903E+02 -0.33160624371E+02  0.14682201302E+02  0.43562091557E+02  0.00000000000E+00 0.  1.
         13    1    3    3    0    0  0.24134244903E+02  0.33160624371E+02 -0.22263340694E+02  0.46666316809E+02  0.00000000000E+00 0. -1.
<mgrwt>
<rscale>  0 0.89909354E+02</rscale>
<asrwt>0</asrwt>
<pdfrwt beam="2">  1        3 0.75238114E-02 0.89909354E+02</pdfrwt>
<pdfrwt beam="1">  1       -3 0.63574822E-02 0.89909354E+02</pdfrwt>
<totfact> 0.36785792E+04</totfact>
</mgrwt>
</event>
<event>
 5    1  0.6308903E+000  0.9340778E+02  0.7546771E-02  0.1294803E+00
          2   -1    0    0  501    0  0.00000000000E+00  0.00000000000E+00  0.39839256910E+03  0.39839256910E+03  0.00000000000E+00 0. -1.
         -2   -1    0    0    0  501 -0.00000000000E+00 -0.00000000000E+00 -0.54751356950E+01  0.54751356950E+01  0.00000000000E+00 0.  1.
         23    2    1    2    0    0  0.00000000000E+00  0.00000000000E+00  0.39291743341E+03  0.40386770480E+03  0.93407780741E+02 0.  0.
        -13    1    3    3    0    0  0.44437164533E+02  0.12454208544E+02  0.16543497253E+03  0.17175127085E+03  0.00000000000E+00 0.  1.
         13    1    3    3    0    0 -0.44437164533E+02 -0.12454208544E+02  0.22748246087E+03  0.23211643395E+03  0.00000000000E+00 0. -1.
<mgrwt>
<rscale>  0 0.93407781E+02</rscale>
<asrwt>0</asrwt>
<pdfrwt beam="1">  1        2 0.61291142E-01 0.93407781E+02</pdfrwt>
<pdfrwt beam="2">  1       -2 0.84232888E-03 0.93407781E+02</pdfrwt>
<totfact> 0.18692419E+05</totfact>
</mgrwt>
</event>
<event>
 5    1  0.6308903E+000  0.9146521E+02  0.7546771E-02  0.1299342E+00
         -2   -1    0    0    0  501 -0.00000000000E+00  0.00000000000E+00  0.11207278317E+03  0.11207278317E+03  0.00000000000E+00 0.  1.
          2   -1    0    0  501    0  0.00000000000E+00 -0.00000000000E+00 -0.18661722823E+02  0.18661722823E+02  0.00000000000E+00 0. -1.
         23    2    1    2    0    0  0.00000000000E+00  0.00000000000E+00  0.93411060346E+02  0.13073450599E+03  0.91465211211E+02 0.  0.
        -13    1    3    3    0    0  0.33360862658E+02 -0.25303701951E+02  0.72993139339E+02  0.84150002259E+02  0.00000000000E+00 0.  1.
         13    1    3    3    0    0 -0.33360862658E+02  0.25303701951E+02  0.20417921007E+02  0.46584503732E+02  0.00000000000E+00 0. -1.
<mgrwt>
<rscale>  0 0.91465211E+02</rscale>
<asrwt>0</asrwt>
<pdfrwt beam="2">  1        2 0.28710343E-02 0.91465211E+02</pdfrwt>
<pdfrwt beam="1">  1       -2 0.17241966E-01 0.91465211E+02</pdfrwt>
<totfact> 0.76467715E+04</totfact>
</mgrwt>
</event>
<event>
 5    1  0.6308903E+000  0.9087013E+02  0.7546771E-02  0.1300758E+00
         -4   -1    0    0    0  501 -0.00000000000E+00  0.00000000000E+00  0.51211599865E+01  0.51211599865E+01  0.00000000000E+00 0.  1.
          4   -1    0    0  501    0  0.00000000000E+00 -0.00000000000E+00 -0.40310110367E+03  0.40310110367E+03  0.00000000000E+00 0. -1.
         23    2    1    2    0    0  0.00000000000E+00  0.00000000000E+00 -0.39797994368E+03  0.40822226366E+03  0.90870132445E+02 0.  0.
        -13    1    3    3    0    0 -0.37202031133E+02 -0.25611082327E+02 -0.17678721535E+03  0.18246544377E+03  0.00000000000E+00 0.  1.
         13    1    3    3    0    0  0.37202031133E+02  0.25611082327E+02 -0.22119272833E+03  0.22575681989E+03  0.00000000000E+00 0. -1.
<mgrwt>
<rscale>  0 0.90870132E+02</rscale>
<asrwt>0</asrwt>
<pdfrwt beam="2">  1        4 0.62015544E-01 0.90870132E+02</pdfrwt>
<pdfrwt beam="1">  1       -4 0.78787089E-03 0.90870132E+02</pdfrwt>
<totfact> 0.15093604E+04</totfact>
</mgrwt>
</event>
<event>
 5    1  0.6308903E+000  0.9122682E+02  0.7546771E-02  0.1299908E+00
          1   -1    0    0  501    0  0.00000000000E+00  0.00000000000E+00  0.10608325291E+03  0.10608325291E+03  0.00000000000E+00 0. -1.
         -1   -1    0    0    0  501 -0.00000000000E+00 -0.00000000000E+00 -0.19612737351E+02  0.19612737351E+02  0.00000000000E+00 0.  1.
         23    2    1    2    0    0  0.00000000000E+00  0.00000000000E+00  0.86470515560E+02  0.12569599026E+03  0.91226815723E+02 0.  0.
        -13    1    3    3    0    0 -0.40929602176E+02  0.20053314815E+02  0.45705863278E+02  0.64547608068E+02  0.00000000000E+00 0. -1.
         13    1    3    3    0    0  0.40929602176E+02 -0.20053314815E+02  0.40764652282E+02  0.61148382195E+02  0.00000000000E+00 0.  1.
<mgrwt>
<rscale>  0 0.91226816E+02</rscale>
<asrwt>0</asrwt>
<pdfrwt beam="1">  1        1 0.16320500E-01 0.91226816E+02</pdfrwt>
<pdfrwt beam="2">  1       -1 0.30173443E-02 0.91226816E+02</pdfrwt>
<totfact> 0.10533246E+05</totfact>
</mgrwt>
</event>
<event>
 5    1  0.6308903E+000  0.9270238E+02  0.7546771E-02  0.1296436E+00
          1   -1    0    0  501    0  0.00000000000E+00  0.00000000000E+00  0.94648787923E+01  0.94648787923E+01  0.00000000000E+00 0. -1.
         -1   -1    0    0    0  501 -0.00000000000E+00 -0.00000000000E+00 -0.22699001884E+03  0.22699001884E+03  0.00000000000E+00 0.  1.
         23    2    1    2    0    0  0.00000000000E+00  0.00000000000E+00 -0.21752514005E+03  0.23645489763E+03  0.92702384336E+02 0.  0.
        -13    1    3    3    0    0 -0.27957812830E+02 -0.36470955298E+02 -0.12420701191E+03  0.13243546235E+03  0.00000000000E+00 0. -1.
         13    1    3    3    0    0  0.27957812830E+02  0.36470955298E+02 -0.93318128135E+02  0.10401943529E+03  0.00000000000E+00 0.  1.
<mgrwt>
<rscale>  0 0.92702384E+02</rscale>
<asrwt>0</asrwt>
<pdfrwt beam="1">  1        1 0.14561353E-02 0.92702384E+02</pdfrwt>
<pdfrwt beam="2">  1       -1 0.34921540E-01 0.92702384E+02</pdfrwt>
<totfact> 0.64003219E+04</totfact>
</mgrwt>
</event>
<event>
 5    1  0.6308903E+000  0.9201706E+02  0.7546771E-02  0.1298039E+00
         -1   -1    0    0    0  501 -0.00000000000E+00  0.00000000000E+00  0.65966596392E+02  0.65966596392E+02  0.00000000000E+00 0.  1.
          1   -1    0    0  501    0  0.00000000000E+00 -0.00000000000E+00 -0.32088739044E+02  0.32088739044E+02  0.00000000000E+00 0. -1.
         23    2    1    2    0    0  0.00000000000E+00  0.00000000000E+00  0.33877857348E+02  0.98055335437E+02  0.92017061402E+02 0.  0.
        -13    1    3    3    0    0  0.22085862866E+02  0.25193663710E+02 -0.16662440517E+02  0.37418484117E+02  0.00000000000E+00 0. -1.
         13    1    3    3    0    0 -0.22085862866E+02 -0.25193663710E+02  0.50540297865E+02  0.60636851319E+02  0.00000000000E+00 0.  1.
<mgrwt>
<rscale>  0 0.92017061E+02</rscale>
<asrwt>0</asrwt>
<pdfrwt beam="2">  1        1 0.49367291E-02 0.92017061E+02</pdfrwt>
<pdfrwt beam="1">  1       -1 0.10148707E-01 0.92017061E+02</pdfrwt>
<totfact> 0.85349581E+04</totfact>
</mgrwt>
</event>
<event>
 5    1  0.6308903E+000  0.1241836E+03  0.7546771E-02  0.1236351E+00
         -1   -1    0    0    0  501 -0.00000000000E+00  0.00000000000E+00  0.24944979495E+02  0.24944979495E+02  0.00000000000E+00 0.  1.
          1   -1    0    0  501    0  0.00000000000E+00 -0.00000000000E+00 -0.15455577153E+03  0.15455577153E+03  0.00000000000E+00 0. -1.
         23    2    1    2    0    0  0.00000000000E+00  0.00000000000E+00 -0.12961079203E+03  0.17950075102E+03  0.12418358268E+03 0.  0.
        -13    1    3    3    0    0  0.21155959550E+02 -0.32344674416E+02 -0.13504931701E+03  0.14047088885E+03  0.00000000000E+00 0. -1.
         13    1    3    3    0    0 -0.21155959550E+02  0.32344674416E+02  0.54385249809E+01  0.39029862177E+02  0.00000000000E+00 0.  1.
<mgrwt>
<rscale>  0 0.12418358E+03</rscale>
<asrwt>0</asrwt>
<pdfrwt beam="2">  1        1 0.23777811E-01 0.12418358E+03</pdfrwt>
<pdfrwt beam="1">  1       -1 0.38376892E-02 0.12418358E+03</pdfrwt>
<totfact> 0.48234497E+04</totfact>
</mgrwt>
</event>
<event>
 5    1  0.6308903E+000  0.9273767E+02  0.7546771E-02  0.1296354E+00
         -2   -1    0    0    0  501 -0.00000000000E+00  0.00000000000E+00  0.60371047337E+02  0.60371047337E+02  0.00000000000E+00 0.  1.
          2   -1    0    0  501    0  0.00000000000E+00 -0.00000000000E+00 -0.35614239627E+02  0.35614239627E+02  0.00000000000E+00 0. -1.
         23    2    1    2    0    0  0.00000000000E+00  0.00000000000E+00  0.24756807710E+02  0.95985286964E+02  0.92737671879E+02 0.  0.
        -13    1    3    3    0    0 -0.46112023169E+02 -0.31722883356E+01  0.85492724591E+01  0.47005022642E+02  0.00000000000E+00 0. -1.
         13    1    3    3    0    0  0.46112023169E+02  0.31722883356E+01  0.16207535251E+02  0.48980264321E+02  0.00000000000E+00 0.  1.
<mgrwt>
<rscale>  0 0.92737672E+02</rscale>
<asrwt>0</asrwt>
<pdfrwt beam="2">  1        2 0.54791138E-02 0.92737672E+02</pdfrwt>
<pdfrwt beam="1">  1       -2 0.92878534E-02 0.92737672E+02</pdfrwt>
<totfact> 0.88062830E+04</totfact>
</mgrwt>
</event>
<event>
 5    1  0.6308903E+000  0.9163997E+02  0.7546771E-02  0.1298928E+00
          1   -1    0    0  501    0  0.00000000000E+00  0.00000000000E+00  0.30480336835E+02  0.30480336835E+02  0.00000000000E+00 0. -1.
         -1   -1    0    0    0  501 -0.00000000000E+00 -0.00000000000E+00 -0.68879515759E+02  0.68879515759E+02  0.00000000000E+00 0.  1.
         23    2    1    2    0    0  0.00000000000E+00  0.00000000000E+00 -0.38399178924E+02  0.99359852593E+02  0.91639965983E+02 0.  0.
        -13    1    3    3    0    0 -0.24578872547E+02  0.28580289128E+02 -0.47442299440E+02  0.60594766098E+02  0.00000000000E+00 0.  1.
         13    1    3    3    0    0  0.24578872547E+02 -0.28580289128E+02  0.90431205162E+01  0.38765086495E+02  0.00000000000E+00 0. -1.
<mgrwt>
<rscale>  0 0.91639966E+02</rscale>
<asrwt>0</asrwt>
<pdfrwt beam="1">  1        1 0.46892826E-02 0.91639966E+02</pdfrwt>
<pdfrwt beam="2">  1       -1 0.10596849E-01 0.91639966E+02</pdfrwt>
<totfact> 0.85650817E+04</totfact>
</mgrwt>
</event>
<event>
 5    1  0.6308903E+000  0.5781769E+02  0.7546771E-02  0.1407225E+00
          2   -1    0    0  501    0  0.00000000000E+00  0.00000000000E+00  0.15953960268E+02  0.15953960268E+02  0.00000000000E+00 0. -1.
         -2   -1    0    0    0  501 -0.00000000000E+00 -0.00000000000E+00 -0.52383316361E+02  0.52383316361E+02  0.00000000000E+00 0.  1.
         23    2    1    2    0    0  0.00000000000E+00  0.00000000000E+00 -0.36429356094E+02  0.68337276629E+02  0.57817690992E+02 0.  0.
        -13    1    3    3    0    0  0.95928388021E+01  0.14351143591E+02 -0.45623129306E+02  0.48779583909E+02  0.00000000000E+00 0.  1.
         13    1    3    3    0    0 -0.95928388021E+01 -0.14351143591E+02  0.91937732120E+01  0.19557692720E+02  0.00000000000E+00 0. -1.
<mgrwt>
<rscale>  0 0.57817691E+02</rscale>
<asrwt>0</asrwt>
<pdfrwt beam="1">  1        2 0.24544554E-02 0.57817691E+02</pdfrwt>
<pdfrwt beam="2">  1       -2 0.80589717E-02 0.57817691E+02</pdfrwt>
<totfact> 0.28492227E+05</totfact>
</mgrwt>
</event>
<event>
 5    1  0.6308903E+000  0.9146293E+02  0.7546771E-02  0.1299347E+00
         -4   -1    0    0    0  501 -0.00000000000E+00  0.00000000000E+00  0.19479424432E+02  0.19479424432E+02  0.00000000000E+00 0.  1.
          4   -1    0    0  501    0  0.00000000000E+00 -0.00000000000E+00 -0.10736286365E+03  0.10736286365E+03  0.00000000000E+00 0. -1.
         23    2    1    2    0    0  0.00000000000E+00  0.00000000000E+00 -0.87883439218E+02  0.12684228808E+03  0.91462927774E+02 0.  0.
        -13    1    3    3    0    0  0.24426946930E+02  0.34996682322E+02 -0.66726200544E+02  0.79207508160E+02  0.00000000000E+00 0. -1.
         13    1    3    3    0    0 -0.24426946930E+02 -0.34996682322E+02 -0.21157238674E+02  0.47634779922E+02  0.00000000000E+00 0.  1.
<mgrwt>
<rscale>  0 0.91462928E+02</rscale>
<asrwt>0</asrwt>
<pdfrwt beam="2">  1        4 0.16517363E-01 0.91462928E+02</pdfrwt>
<pdfrwt beam="1">  1       -4 0.29968346E-02 0.91462928E+02</pdfrwt>
<totfact> 0.24680487E+04</totfact>
</mgrwt>
</event>
<event>
 5    1  0.6308903E+000  0.9248295E+02  0.7546771E-02  0.1296948E+00
         -1   -1    0    0    0  501 -0.00000000000E+00  0.00000000000E+00  0.14040909448E+03  0.14040909448E+03  0.00000000000E+00 0.  1.
          1   -1    0    0  501    0  0.00000000000E+00 -0.00000000000E+00 -0.15228883792E+02  0.15228883792E+02  0.00000000000E+00 0. -1.
         23    2    1    2    0    0  0.00000000000E+00  0.00000000000E+00  0.12518021069E+03  0.15563797828E+03  0.92482945092E+02 0.  0.
        -13    1    3    3    0    0 -0.80630424953E+01 -0.37889008353E+02  0.20093254444E+02  0.43638612288E+02  0.00000000000E+00 0.  1.
         13    1    3    3    0    0  0.80630424953E+01  0.37889008353E+02  0.10508695625E+03  0.11199936599E+03  0.00000000000E+00 0. -1.
<mgrwt>
<rscale>  0 0.92482945E+02</rscale>
<asrwt>0</asrwt>
<pdfrwt beam="2">  1        1 0.23429053E-02 0.92482945E+02</pdfrwt>
<pdfrwt beam="1">  1       -1 0.21601398E-01 0.92482945E+02</pdfrwt>
<totfact> 0.73177885E+04</totfact>
</mgrwt>
</event>
<event>
 5    1  0.6308903E+000  0.8869080E+02  0.7546771E-02  0.1306053E+00
          4   -1    0    0  501    0  0.00000000000E+00  0.00000000000E+00  0.12157880725E+03  0.12157880725E+03  0.00000000000E+00 0. -1.
         -4   -1    0    0    0  501 -0.00000000000E+00 -0.00000000000E+00 -0.16174812453E+02  0.16174812453E+02  0.00000000000E+00 0.  1.
         23    2    1    2    0    0  0.00000000000E+00  0.00000000000E+00  0.10540399479E+03  0.13775361970E+03  0.88690797843E+02 0.  0.
        -13    1    3    3    0    0 -0.15113784094E+02  0.41679790913E+02  0.54161471116E+02  0.69993545371E+02  0.00000000000E+00 0.  1.
         13    1    3    3    0    0  0.15113784094E+02 -0.41679790913E+02  0.51242523678E+02  0.67760074329E+02  0.00000000000E+00 0. -1.
<mgrwt>
<rscale>  0 0.88690798E+02</rscale>
<asrwt>0</asrwt>
<pdfrwt beam="1">  1        4 0.18704431E-01 0.88690798E+02</pdfrwt>
<pdfrwt beam="2">  1       -4 0.24884328E-02 0.88690798E+02</pdfrwt>
<totfact> 0.26175685E+04</totfact>
</mgrwt>
</event>
<event>
 5    1  0.6308903E+000  0.8669201E+02  0.7546771E-02  0.1311066E+00
          1   -1    0    0  501    0  0.00000000000E+00  0.00000000000E+00  0.88982384267E+02  0.88982384267E+02  0.00000000000E+00 0. -1.
         -1   -1    0    0    0  501 -0.00000000000E+00 -0.00000000000E+00 -0.21115147212E+02  0.21115147212E+02  0.00000000000E+00 0.  1.
         23    2    1    2    0    0  0.00000000000E+00  0.00000000000E+00  0.67867237054E+02  0.11009753148E+03  0.86692009853E+02 0.  0.
        -13    1    3    3    0    0  0.14276303954E+01  0.42678592938E+02  0.43384192819E+02  0.60874367432E+02  0.00000000000E+00 0. -1.
         13    1    3    3    0    0 -0.14276303954E+01 -0.42678592938E+02  0.24483044235E+02  0.49223164047E+02  0.00000000000E+00 0.  1.
<mgrwt>
<rscale>  0 0.86692010E+02</rscale>
<asrwt>0</asrwt>
<pdfrwt beam="1">  1        1 0.13689597E-01 0.86692010E+02</pdfrwt>
<pdfrwt beam="2">  1       -1 0.32484842E-02 0.86692010E+02</pdfrwt>
<totfact> 0.11756501E+05</totfact>
</mgrwt>
</event>
<event>
 5    1  0.6308903E+000  0.8839678E+02  0.7546771E-02  0.1306781E+00
          1   -1    0    0  501    0  0.00000000000E+00  0.00000000000E+00  0.65351009549E+02  0.65351009549E+02  0.00000000000E+00 0.  1.
         -1   -1    0    0    0  501 -0.00000000000E+00 -0.00000000000E+00 -0.29892390229E+02  0.29892390229E+02  0.00000000000E+00 0. -1.
         23    2    1    2    0    0  0.00000000000E+00  0.00000000000E+00  0.35458619320E+02  0.95243399778E+02  0.88396784541E+02 0.  0.
        -13    1    3    3    0    0  0.20635255054E+02 -0.32782893096E+02 -0.52021261076E+01  0.39084446355E+02  0.00000000000E+00 0. -1.
         13    1    3    3    0    0 -0.20635255054E+02  0.32782893096E+02  0.40660745428E+02  0.56158953423E+02  0.00000000000E+00 0.  1.
<mgrwt>
<rscale>  0 0.88396785E+02</rscale>
<asrwt>0</asrwt>
<pdfrwt beam="1">  1        1 0.10054001E-01 0.88396785E+02</pdfrwt>
<pdfrwt beam="2">  1       -1 0.45988293E-02 0.88396785E+02</pdfrwt>
<totfact> 0.10632970E+05</totfact>
</mgrwt>
</event>
<event>
 5    1  0.6308903E+000  0.8972556E+02  0.7546771E-02  0.1303518E+00
          1   -1    0    0  501    0  0.00000000000E+00  0.00000000000E+00  0.12158392315E+02  0.12158392315E+02  0.00000000000E+00 0. -1.
         -1   -1    0    0    0  501 -0.00000000000E+00 -0.00000000000E+00 -0.16553743355E+03  0.16553743355E+03  0.00000000000E+00 0.  1.
         23    2    1    2    0    0  0.00000000000E+00  0.00000000000E+00 -0.15337904124E+03  0.17769582587E+03  0.89725560683E+02 0.  0.
        -13    1    3    3    0    0  0.10613996073E+01  0.33345675680E+02 -0.13608970559E+03  0.14011947981E+03  0.00000000000E+00 0.  1.
         13    1    3    3    0    0 -0.10613996073E+01 -0.33345675680E+02 -0.17289335647E+02  0.37576346054E+02  0.00000000000E+00 0. -1.
<mgrwt>
<rscale>  0 0.89725561E+02</rscale>
<asrwt>0</asrwt>
<pdfrwt beam="1">  1        1 0.18705220E-02 0.89725561E+02</pdfrwt>
<pdfrwt beam="2">  1       -1 0.25467296E-01 0.89725561E+02</pdfrwt>
<totfact> 0.76132763E+04</totfact>
</mgrwt>
</event>
<event>
 5    1  0.6308903E+000  0.8959693E+02  0.7546771E-02  0.1303831E+00
         -1   -1    0    0    0  501 -0.00000000000E+00  0.00000000000E+00  0.35551077305E+03  0.35551077305E+03  0.00000000000E+00 0.  1.
          1   -1    0    0  501    0  0.00000000000E+00 -0.00000000000E+00 -0.56451245101E+01  0.56451245101E+01  0.00000000000E+00 0. -1.
         23    2    1    2    0    0  0.00000000000E+00  0.00000000000E+00  0.34986564854E+03  0.36115589756E+03  0.89596932505E+02 0.  0.
        -13    1    3    3    0    0 -0.42602302260E+02  0.13556895433E+02  0.18644525379E+03  0.19173048332E+03  0.00000000000E+00 0. -1.
         13    1    3    3    0    0  0.42602302260E+02 -0.13556895433E+02  0.16342039475E+03  0.16942541425E+03  0.00000000000E+00 0.  1.
<mgrwt>
<rscale>  0 0.89596933E+02</rscale>
<asrwt>0</asrwt>
<pdfrwt beam="2">  1        1 0.86848097E-03 0.89596933E+02</pdfrwt>
<pdfrwt beam="1">  1       -1 0.54693948E-01 0.89596933E+02</pdfrwt>
<totfact> 0.59025761E+04</totfact>
</mgrwt>
</event>
<event>
 5    1  0.6308903E+000  0.9239616E+02  0.7546771E-02  0.1297151E+00
          3   -1    0    0  501    0  0.00000000000E+00  0.00000000000E+00  0.46991292302E+02  0.46991292302E+02  0.00000000000E+00 0. -1.
         -3   -1    0    0    0  501 -0.00000000000E+00 -0.00000000000E+00 -0.45418253636E+02  0.45418253636E+02  0.00000000000E+00 0.  1.
         23    2    1    2    0    0  0.00000000000E+00  0.00000000000E+00  0.15730386658E+01  0.92409545938E+02  0.92396156466E+02 0.  0.
        -13    1    3    3    0    0 -0.90709248427E+01  0.90606232511E+01 -0.43603308664E+02  0.45449148481E+02  0.00000000000E+00 0.  1.
         13    1    3    3    0    0  0.90709248427E+01 -0.90606232511E+01  0.45176347330E+02  0.46960397457E+02  0.00000000000E+00 0. -1.
<mgrwt>
<rscale>  0 0.92396156E+02</rscale>
<asrwt>0</asrwt>
<pdfrwt beam="1">  1        3 0.72294296E-02 0.92396156E+02</pdfrwt>
<pdfrwt beam="2">  1       -3 0.69874236E-02 0.92396156E+02</pdfrwt>
<totfact> 0.33988123E+04</totfact>
</mgrwt>
</event>
<event>
 5    1  0.6308903E+000  0.8976833E+02  0.7546771E-02  0.1303414E+00
         -2   -1    0    0    0  501 -0.00000000000E+00  0.00000000000E+00  0.93630524697E+02  0.93630524697E+02  0.00000000000E+00 0. -1.
          2   -1    0    0  501    0  0.00000000000E+00 -0.00000000000E+00 -0.21516360224E+02  0.21516360224E+02  0.00000000000E+00 0.  1.
         23    2    1    2    0    0  0.00000000000E+00  0.00000000000E+00  0.72114164473E+02  0.11514688492E+03  0.89768326203E+02 0.  0.
        -13    1    3    3    0    0  0.39797607497E+02  0.17537621245E+02  0.50292892773E+02  0.66489042593E+02  0.00000000000E+00 0. -1.
         13    1    3    3    0    0 -0.39797607497E+02 -0.17537621245E+02  0.21821271701E+02  0.48657842329E+02  0.00000000000E+00 0.  1.
<mgrwt>
<rscale>  0 0.89768326E+02</rscale>
<asrwt>0</asrwt>
<pdfrwt beam="2">  1        2 0.33102093E-02 0.89768326E+02</pdfrwt>
<pdfrwt beam="1">  1       -2 0.14404696E-01 0.89768326E+02</pdfrwt>
<totfact> 0.84569512E+04</totfact>
</mgrwt>
</event>
<event>
 5    1  0.6308903E+000  0.9148685E+02  0.7546771E-02  0.1299291E+00
         -4   -1    0    0    0  501 -0.00000000000E+00  0.00000000000E+00  0.19064157442E+02  0.19064157442E+02  0.00000000000E+00 0.  1.
          4   -1    0    0  501    0  0.00000000000E+00 -0.00000000000E+00 -0.10975889918E+03  0.10975889918E+03  0.00000000000E+00 0. -1.
         23    2    1    2    0    0  0.00000000000E+00  0.00000000000E+00 -0.90694741739E+02  0.12882305662E+03  0.91486850086E+02 0.  0.
        -13    1    3    3    0    0  0.14248928406E+02  0.12152075261E+02 -0.10411370327E+03  0.10578453622E+03  0.00000000000E+00 0. -1.
         13    1    3    3    0    0 -0.14248928406E+02 -0.12152075261E+02  0.13418961532E+02  0.23038520406E+02  0.00000000000E+00 0.  1.
<mgrwt>
<rscale>  0 0.91486850E+02</rscale>
<asrwt>0</asrwt>
<pdfrwt beam="2">  1        4 0.16885984E-01 0.91486850E+02</pdfrwt>
<pdfrwt beam="1">  1       -4 0.29329473E-02 0.91486850E+02</pdfrwt>
<totfact> 0.24555545E+04</totfact>
</mgrwt>
</event>
<event>
 5    1  0.6308903E+000  0.9236880E+02  0.7546771E-02  0.1297215E+00
          2   -1    0    0  501    0  0.00000000000E+00  0.00000000000E+00  0.19110507284E+03  0.19110507284E+03  0.00000000000E+00 0. -1.
         -2   -1    0    0    0  501 -0.00000000000E+00 -0.00000000000E+00 -0.11161392931E+02  0.11161392931E+02  0.00000000000E+00 0.  1.
         23    2    1    2    0    0  0.00000000000E+00  0.00000000000E+00  0.17994367991E+03  0.20226646577E+03  0.92368800125E+02 0.  0.
        -13    1    3    3    0    0  0.34488475096E+02 -0.21410920365E+02  0.13820231672E+03  0.14404083717E+03  0.00000000000E+00 0. -1.
         13    1    3    3    0    0 -0.34488475096E+02  0.21410920365E+02  0.41741363190E+02  0.58225628604E+02  0.00000000000E+00 0.  1.
<mgrwt>
<rscale>  0 0.92368800E+02</rscale>
<asrwt>0</asrwt>
<pdfrwt beam="1">  1        2 0.29400778E-01 0.92368800E+02</pdfrwt>
<pdfrwt beam="2">  1       -2 0.17171375E-02 0.92368800E+02</pdfrwt>
<totfact> 0.14692160E+05</totfact>
</mgrwt>
</event>
<event>
 5    1  0.6308903E+000  0.9169324E+02  0.7546771E-02  0.1298802E+00
         -2   -1    0    0    0  501 -0.00000000000E+00  0.00000000000E+00  0.13293529752E+03  0.13293529752E+03  0.00000000000E+00 0. -1.
          2   -1    0    0  501    0  0.00000000000E+00 -0.00000000000E+00 -0.15811544662E+02  0.15811544662E+02  0.00000000000E+00 0.  1.
         23    2    1    2    0    0  0.00000000000E+00  0.00000000000E+00  0.11712375286E+03  0.14874684218E+03  0.91693236258E+02 0.  0.
        -13    1    3    3    0    0  0.21569208614E+02 -0.40313189190E+02  0.53053860614E+02  0.70036391319E+02  0.00000000000E+00 0.  1.
         13    1    3    3    0    0 -0.21569208614E+02  0.40313189190E+02  0.64069892242E+02  0.78710450861E+02  0.00000000000E+00 0. -1.
<mgrwt>
<rscale>  0 0.91693236E+02</rscale>
<asrwt>0</asrwt>
<pdfrwt beam="2">  1        2 0.24325454E-02 0.91693236E+02</pdfrwt>
<pdfrwt beam="1">  1       -2 0.20451584E-01 0.91693236E+02</pdfrwt>
<totfact> 0.71862398E+04</totfact>
</mgrwt>
</event>
<event>
 5    1  0.6308903E+000  0.9042069E+02  0.7546771E-02  0.1301836E+00
          2   -1    0    0  501    0  0.00000000000E+00  0.00000000000E+00  0.40471274876E+03  0.40471274876E+03  0.00000000000E+00 0. -1.
         -2   -1    0    0    0  501 -0.00000000000E+00 -0.00000000000E+00 -0.50504342838E+01  0.50504342838E+01  0.00000000000E+00 0.  1.
         23    2    1    2    0    0  0.00000000000E+00  0.00000000000E+00  0.39966231448E+03  0.40976318304E+03  0.90420686603E+02 0.  0.
        -13    1    3    3    0    0 -0.37023212411E+02  0.23530935889E+02  0.24938113329E+03  0.25321013574E+03  0.00000000000E+00 0. -1.
         13    1    3    3    0    0  0.37023212411E+02 -0.23530935889E+02  0.15028118118E+03  0.15655304730E+03  0.00000000000E+00 0.  1.
<mgrwt>
<rscale>  0 0.90420687E+02</rscale>
<asrwt>0</asrwt>
<pdfrwt beam="1">  1        2 0.62263474E-01 0.90420687E+02</pdfrwt>
<pdfrwt beam="2">  1       -2 0.77699021E-03 0.90420687E+02</pdfrwt>
<totfact> 0.20493816E+05</totfact>
</mgrwt>
</event>
<event>
 5    1  0.6308903E+000  0.8941920E+02  0.7546771E-02  0.1304264E+00
         -3   -1    0    0    0  501 -0.00000000000E+00  0.00000000000E+00  0.26721580190E+02  0.26721580190E+02  0.00000000000E+00 0.  1.
          3   -1    0    0  501    0  0.00000000000E+00 -0.00000000000E+00 -0.74806516740E+02  0.74806516740E+02  0.00000000000E+00 0. -1.
         23    2    1    2    0    0  0.00000000000E+00  0.00000000000E+00 -0.48084936550E+02  0.10152809693E+03  0.89419200081E+02 0.  0.
        -13    1    3    3    0    0  0.41044665215E+02 -0.62308766081E+01 -0.42886972364E+02  0.59689033871E+02  0.00000000000E+00 0.  1.
         13    1    3    3    0    0 -0.41044665215E+02  0.62308766081E+01 -0.51979641854E+01  0.41839063058E+02  0.00000000000E+00 0. -1.
<mgrwt>
<rscale>  0 0.89419200E+02</rscale>
<asrwt>0</asrwt>
<pdfrwt beam="2">  1        3 0.11508695E-01 0.89419200E+02</pdfrwt>
<pdfrwt beam="1">  1       -3 0.41110124E-02 0.89419200E+02</pdfrwt>
<totfact> 0.36433054E+04</totfact>
</mgrwt>
</event>
<event>
 5    1  0.6308903E+000  0.9137572E+02  0.7546771E-02  0.1299554E+00
         -2   -1    0    0    0  501 -0.00000000000E+00  0.00000000000E+00  0.22906126464E+02  0.22906126464E+02  0.00000000000E+00 0.  1.
          2   -1    0    0  501    0  0.00000000000E+00 -0.00000000000E+00 -0.91127607820E+02  0.91127607820E+02  0.00000000000E+00 0. -1.
         23    2    1    2    0    0  0.00000000000E+00  0.00000000000E+00 -0.68221481356E+02  0.11403373428E+03  0.91375719075E+02 0.  0.
        -13    1    3    3    0    0 -0.24178104337E+02 -0.30506393122E+02 -0.63961899394E+02  0.74875532217E+02  0.00000000000E+00 0. -1.
         13    1    3    3    0    0  0.24178104337E+02  0.30506393122E+02 -0.42595819615E+01  0.39158202067E+02  0.00000000000E+00 0.  1.
<mgrwt>
<rscale>  0 0.91375719E+02</rscale>
<asrwt>0</asrwt>
<pdfrwt beam="2">  1        2 0.14019632E-01 0.91375719E+02</pdfrwt>
<pdfrwt beam="1">  1       -2 0.35240194E-02 0.91375719E+02</pdfrwt>
<totfact> 0.11858059E+05</totfact>
</mgrwt>
</event>
<event>
 5    1  0.6308903E+000  0.9395994E+02  0.7546771E-02  0.1293536E+00
          1   -1    0    0  501    0  0.00000000000E+00  0.00000000000E+00  0.98752850288E+01  0.98752850288E+01  0.00000000000E+00 0. -1.
         -1   -1    0    0    0  501 -0.00000000000E+00 -0.00000000000E+00 -0.22349910643E+03  0.22349910643E+03  0.00000000000E+00 0.  1.
         23    2    1    2    0    0  0.00000000000E+00  0.00000000000E+00 -0.21362382140E+03  0.23337439146E+03  0.93959935710E+02 0.  0.
        -13    1    3    3    0    0  0.11217690205E+00 -0.44284883684E+02 -0.14576458867E+03  0.15234329266E+03  0.00000000000E+00 0. -1.
         13    1    3    3    0    0 -0.11217690205E+00  0.44284883684E+02 -0.67859232727E+02  0.81031098801E+02  0.00000000000E+00 0.  1.
<mgrwt>
<rscale>  0 0.93959936E+02</rscale>
<asrwt>0</asrwt>
<pdfrwt beam="1">  1        1 0.15192748E-02 0.93959936E+02</pdfrwt>
<pdfrwt beam="2">  1       -1 0.34384475E-01 0.93959936E+02</pdfrwt>
<totfact> 0.62088447E+04</totfact>
</mgrwt>
</event>
<event>
 5    1  0.6308903E+000  0.9191364E+02  0.7546771E-02  0.1298283E+00
         -1   -1    0    0    0  501 -0.00000000000E+00  0.00000000000E+00  0.46831397466E+02  0.46831397466E+02  0.00000000000E+00 0.  1.
          1   -1    0    0  501    0  0.00000000000E+00 -0.00000000000E+00 -0.45098577803E+02  0.45098577803E+02  0.00000000000E+00 0. -1.
         23    2    1    2    0    0  0.00000000000E+00  0.00000000000E+00  0.17328196627E+01  0.91929975269E+02  0.91913642562E+02 0.  0.
        -13    1    3    3    0    0 -0.43570015625E+02  0.17460144434E+01 -0.13649424929E+02  0.45691373682E+02  0.00000000000E+00 0. -1.
         13    1    3    3    0    0  0.43570015625E+02 -0.17460144434E+01  0.15382244592E+02  0.46238601587E+02  0.00000000000E+00 0.  1.
<mgrwt>
<rscale>  0 0.91913643E+02</rscale>
<asrwt>0</asrwt>
<pdfrwt beam="2">  1        1 0.69382427E-02 0.91913643E+02</pdfrwt>
<pdfrwt beam="1">  1       -1 0.72048304E-02 0.91913643E+02</pdfrwt>
<totfact> 0.90255431E+04</totfact>
</mgrwt>
</event>
<event>
 5    1  0.6308903E+000  0.8880712E+02  0.7546771E-02  0.1305766E+00
         -1   -1    0    0    0  501 -0.00000000000E+00  0.00000000000E+00  0.18728287552E+03  0.18728287552E+03  0.00000000000E+00 0.  1.
          1   -1    0    0  501    0  0.00000000000E+00 -0.00000000000E+00 -0.10527798133E+02  0.10527798133E+02  0.00000000000E+00 0. -1.
         23    2    1    2    0    0  0.00000000000E+00  0.00000000000E+00  0.17675507739E+03  0.19781067366E+03  0.88807123752E+02 0.  0.
        -13    1    3    3    0    0 -0.22874295795E+02 -0.20964364424E+02  0.15912880654E+03  0.16212561505E+03  0.00000000000E+00 0.  1.
         13    1    3    3    0    0  0.22874295795E+02  0.20964364424E+02  0.17626270852E+02  0.35685058610E+02  0.00000000000E+00 0. -1.
<mgrwt>
<rscale>  0 0.88807124E+02</rscale>
<asrwt>0</asrwt>
<pdfrwt beam="2">  1        1 0.16196614E-02 0.88807124E+02</pdfrwt>
<pdfrwt beam="1">  1       -1 0.28812748E-01 0.88807124E+02</pdfrwt>
<totfact> 0.75720727E+04</totfact>
</mgrwt>
</event>
<event>
 5    1  0.6308903E+000  0.9149965E+02  0.7546771E-02  0.1299260E+00
          1   -1    0    0  501    0  0.00000000000E+00  0.00000000000E+00  0.90728615493E+02  0.90728615493E+02  0.00000000000E+00 0. -1.
         -1   -1    0    0    0  501 -0.00000000000E+00 -0.00000000000E+00 -0.23069310526E+02  0.23069310526E+02  0.00000000000E+00 0.  1.
         23    2    1    2    0    0  0.00000000000E+00  0.00000000000E+00  0.67659304967E+02  0.11379792602E+03  0.91499652554E+02 0.  0.
        -13    1    3    3    0    0  0.52546319539E+01  0.21204637780E+02  0.83822576710E+02  0.86622584738E+02  0.00000000000E+00 0. -1.
         13    1    3    3    0    0 -0.52546319539E+01 -0.21204637780E+02 -0.16163271743E+02  0.27175341281E+02  0.00000000000E+00 0.  1.
<mgrwt>
<rscale>  0 0.91499653E+02</rscale>
<asrwt>0</asrwt>
<pdfrwt beam="1">  1        1 0.13958248E-01 0.91499653E+02</pdfrwt>
<pdfrwt beam="2">  1       -1 0.35491248E-02 0.91499653E+02</pdfrwt>
<totfact> 0.10180519E+05</totfact>
</mgrwt>
</event>
<event>
 4    1  0.6308903E+000  0.4816536E+02  0.7546771E-02  0.1455496E+00
         -2   -1    0    0    0  501 -0.00000000000E+00  0.00000000000E+00  0.61804433951E+01  0.61804433951E+01  0.00000000000E+00 0.  1.
          2   -1    0    0  501    0  0.00000000000E+00 -0.00000000000E+00 -0.93840428446E+02  0.93840428446E+02  0.00000000000E+00 0. -1.
        -13    1    1    2    0    0  0.22129980629E+02 -0.92236362443E+01 -0.39111027467E+02  0.45874655069E+02  0.00000000000E+00 0.  1.
         13    1    1    2    0    0 -0.22129980629E+02  0.92236362443E+01 -0.48548957584E+02  0.54146216772E+02  0.00000000000E+00 0. -1.
<mgrwt>
<rscale>  0 0.48165359E+02</rscale>
<asrwt>0</asrwt>
<pdfrwt beam="2">  1        2 0.14436987E-01 0.48165359E+02</pdfrwt>
<pdfrwt beam="1">  1       -2 0.95083756E-03 0.48165359E+02</pdfrwt>
<totfact> 0.64744968E+05</totfact>
</mgrwt>
</event>
<event>
 5    1  0.6308903E+000  0.8774815E+02  0.7546771E-02  0.1308398E+00
          1   -1    0    0  501    0  0.00000000000E+00  0.00000000000E+00  0.50338821248E+02  0.50338821248E+02  0.00000000000E+00 0. -1.
         -1   -1    0    0    0  501 -0.00000000000E+00 -0.00000000000E+00 -0.38239560767E+02  0.38239560767E+02  0.00000000000E+00 0.  1.
         23    2    1    2    0    0  0.00000000000E+00  0.00000000000E+00  0.12099260481E+02  0.88578382014E+02  0.87748149018E+02 0.  0.
        -13    1    3    3    0    0  0.36647655306E+01  0.17787272315E+02 -0.34267167559E+02  0.38782165170E+02  0.00000000000E+00 0.  1.
         13    1    3    3    0    0 -0.36647655306E+01 -0.17787272315E+02  0.46366428040E+02  0.49796216844E+02  0.00000000000E+00 0. -1.
<mgrwt>
<rscale>  0 0.87748149E+02</rscale>
<asrwt>0</asrwt>
<pdfrwt beam="1">  1        1 0.77444340E-02 0.87748149E+02</pdfrwt>
<pdfrwt beam="2">  1       -1 0.58830094E-02 0.87748149E+02</pdfrwt>
<totfact> 0.10442615E+05</totfact>
</mgrwt>
</event>
<event>
 5    1  0.6308903E+000  0.9204533E+02  0.7546771E-02  0.1297973E+00
          2   -1    0    0  501    0  0.00000000000E+00  0.00000000000E+00  0.60728079266E+02  0.60728079266E+02  0.00000000000E+00 0. -1.
         -2   -1    0    0    0  501 -0.00000000000E+00 -0.00000000000E+00 -0.34878194770E+02  0.34878194770E+02  0.00000000000E+00 0.  1.
         23    2    1    2    0    0  0.00000000000E+00  0.00000000000E+00  0.25849884496E+02  0.95606274036E+02  0.92045331802E+02 0.  0.
        -13    1    3    3    0    0 -0.37381298868E+02 -0.23950946110E+02  0.25521625180E+02  0.51209009719E+02  0.00000000000E+00 0. -1.
         13    1    3    3    0    0  0.37381298868E+02  0.23950946110E+02  0.32825931627E+00  0.44397264316E+02  0.00000000000E+00 0.  1.
<mgrwt>
<rscale>  0 0.92045332E+02</rscale>
<asrwt>0</asrwt>
<pdfrwt beam="1">  1        2 0.93427814E-02 0.92045332E+02</pdfrwt>
<pdfrwt beam="2">  1       -2 0.53658761E-02 0.92045332E+02</pdfrwt>
<totfact> 0.10360251E+05</totfact>
</mgrwt>
</event>
<event>
 5    1  0.6308903E+000  0.9162004E+02  0.7546771E-02  0.1298975E+00
         -1   -1    0    0    0  501 -0.00000000000E+00  0.00000000000E+00  0.12929510836E+03  0.12929510836E+03  0.00000000000E+00 0.  1.
          1   -1    0    0  501    0  0.00000000000E+00 -0.00000000000E+00 -0.16230760456E+02  0.16230760456E+02  0.00000000000E+00 0. -1.
         23    2    1    2    0    0  0.00000000000E+00  0.00000000000E+00  0.11306434791E+03  0.14552586882E+03  0.91620039992E+02 0.  0.
        -13    1    3    3    0    0  0.30140203934E+02  0.13311696086E+02  0.10708417170E+03  0.11203862269E+03  0.00000000000E+00 0.  1.
         13    1    3    3    0    0 -0.30140203934E+02 -0.13311696086E+02  0.59801762084E+01  0.33487246130E+02  0.00000000000E+00 0. -1.
<mgrwt>
<rscale>  0 0.91620040E+02</rscale>
<asrwt>0</asrwt>
<pdfrwt beam="2">  1        1 0.24970402E-02 0.91620040E+02</pdfrwt>
<pdfrwt beam="1">  1       -1 0.19891554E-01 0.91620040E+02</pdfrwt>
<totfact> 0.76349178E+04</totfact>
</mgrwt>
</event>
<event>
 5    1  0.6308903E+000  0.9031164E+02  0.7546771E-02  0.1302099E+00
          1   -1    0    0  501    0  0.00000000000E+00  0.00000000000E+00  0.38729981797E+02  0.38729981797E+02  0.00000000000E+00 0. -1.
         -1   -1    0    0    0  501 -0.00000000000E+00 -0.00000000000E+00 -0.52647796586E+02  0.52647796586E+02  0.00000000000E+00 0.  1.
         23    2    1    2    0    0  0.00000000000E+00  0.00000000000E+00 -0.13917814789E+02  0.91377778383E+02  0.90311642736E+02 0.  0.
        -13    1    3    3    0    0  0.10432359188E+02  0.36673686551E+02 -0.31436536236E+02  0.49417094350E+02  0.00000000000E+00 0.  1.
         13    1    3    3    0    0 -0.10432359188E+02 -0.36673686551E+02  0.17518721446E+02  0.41960684034E+02  0.00000000000E+00 0. -1.
<mgrwt>
<rscale>  0 0.90311643E+02</rscale>
<asrwt>0</asrwt>
<pdfrwt beam="1">  1        1 0.59584587E-02 0.90311643E+02</pdfrwt>
<pdfrwt beam="2">  1       -1 0.80996610E-02 0.90311643E+02</pdfrwt>
<totfact> 0.92682465E+04</totfact>
</mgrwt>
</event>
<event>
 5    1  0.6308903E+000  0.9783799E+02  0.7546771E-02  0.1284909E+00
          1   -1    0    0  501    0  0.00000000000E+00  0.00000000000E+00  0.54822082794E+02  0.54822082794E+02  0.00000000000E+00 0. -1.
         -1   -1    0    0    0  501 -0.00000000000E+00 -0.00000000000E+00 -0.43651533630E+02  0.43651533630E+02  0.00000000000E+00 0.  1.
         23    2    1    2    0    0  0.00000000000E+00  0.00000000000E+00  0.11170549164E+02  0.98473616423E+02  0.97837988342E+02 0.  0.
        -13    1    3    3    0    0 -0.36747950857E+02 -0.30001679338E+02  0.17602497329E+02  0.50600005608E+02  0.00000000000E+00 0.  1.
         13    1    3    3    0    0  0.36747950857E+02  0.30001679338E+02 -0.64319481650E+01  0.47873610816E+02  0.00000000000E+00 0. -1.
<mgrwt>
<rscale>  0 0.97837988E+02</rscale>
<asrwt>0</asrwt>
<pdfrwt beam="1">  1        1 0.84341666E-02 0.97837988E+02</pdfrwt>
<pdfrwt beam="2">  1       -1 0.67156205E-02 0.97837988E+02</pdfrwt>
<totfact> 0.78026737E+04</totfact>
</mgrwt>
</event>
<event>
 5    1  0.6308903E+000  0.8950216E+02  0.7546771E-02  0.1304062E+00
         -1   -1    0    0    0  501 -0.00000000000E+00  0.00000000000E+00  0.12148041060E+02  0.12148041060E+02  0.00000000000E+00 0.  1.
          1   -1    0    0  501    0  0.00000000000E+00 -0.00000000000E+00 -0.16485449143E+03  0.16485449143E+03  0.00000000000E+00 0. -1.
         23    2    1    2    0    0  0.00000000000E+00  0.00000000000E+00 -0.15270645037E+03  0.17700253249E+03  0.89502159323E+02 0.  0.
        -13    1    3    3    0    0 -0.18749819366E+02 -0.39244757143E+02 -0.55522019924E+02  0.70529436309E+02  0.00000000000E+00 0.  1.
         13    1    3    3    0    0  0.18749819366E+02  0.39244757143E+02 -0.97184430450E+02  0.10647309619E+03  0.00000000000E+00 0. -1.
<mgrwt>
<rscale>  0 0.89502159E+02</rscale>
<asrwt>0</asrwt>
<pdfrwt beam="2">  1        1 0.25362231E-01 0.89502159E+02</pdfrwt>
<pdfrwt beam="1">  1       -1 0.18689293E-02 0.89502159E+02</pdfrwt>
<totfact> 0.11994384E+05</totfact>
</mgrwt>
</event>
<event>
 5    1  0.6308903E+000  0.9142497E+02  0.7546771E-02  0.1299437E+00
         -4   -1    0    0    0  501 -0.00000000000E+00  0.00000000000E+00  0.44162310770E+02  0.44162310770E+02  0.00000000000E+00 0.  1.
          4   -1    0    0  501    0  0.00000000000E+00 -0.00000000000E+00 -0.47317068285E+02  0.47317068285E+02  0.00000000000E+00 0. -1.
         23    2    1    2    0    0  0.00000000000E+00  0.00000000000E+00 -0.31547575156E+01  0.91479379055E+02  0.91424965394E+02 0.  0.
        -13    1    3    3    0    0  0.43569927091E+02  0.42067629889E+01  0.11606034045E+02  0.45285046404E+02  0.00000000000E+00 0.  1.
         13    1    3    3    0    0 -0.43569927091E+02 -0.42067629889E+01 -0.14760791561E+02  0.46194332651E+02  0.00000000000E+00 0. -1.
<mgrwt>
<rscale>  0 0.91424965E+02</rscale>
<asrwt>0</asrwt>
<pdfrwt beam="2">  1        4 0.72795490E-02 0.91424965E+02</pdfrwt>
<pdfrwt beam="1">  1       -4 0.67942016E-02 0.91424965E+02</pdfrwt>
<totfact> 0.26797847E+04</totfact>
</mgrwt>
</event>
<event>
 5    1  0.6308903E+000  0.9209575E+02  0.7546771E-02  0.1297854E+00
         -2   -1    0    0    0  501 -0.00000000000E+00  0.00000000000E+00  0.94247297723E+01  0.94247297723E+01  0.00000000000E+00 0.  1.
          2   -1    0    0  501    0  0.00000000000E+00 -0.00000000000E+00 -0.22498328552E+03  0.22498328552E+03  0.00000000000E+00 0. -1.
         23    2    1    2    0    0  0.00000000000E+00  0.00000000000E+00 -0.21555855575E+03  0.23440801529E+03  0.92095747336E+02 0.  0.
        -13    1    3    3    0    0  0.43352809722E+02  0.55684328032E+00 -0.68296454257E+02  0.80896117641E+02  0.00000000000E+00 0.  1.
         13    1    3    3    0    0 -0.43352809722E+02 -0.55684328032E+00 -0.14726210149E+03  0.15351189765E+03  0.00000000000E+00 0. -1.
<mgrwt>
<rscale>  0 0.92095747E+02</rscale>
<asrwt>0</asrwt>
<pdfrwt beam="2">  1        2 0.34612816E-01 0.92095747E+02</pdfrwt>
<pdfrwt beam="1">  1       -2 0.14499583E-02 0.92095747E+02</pdfrwt>
<totfact> 0.15716630E+05</totfact>
</mgrwt>
</event>
<event>
 4    1  0.6308903E+000  0.2761506E+02  0.7546771E-02  0.1626053E+00
          2   -1    0    0  501    0  0.00000000000E+00  0.00000000000E+00  0.32736014877E+01  0.32736014877E+01  0.00000000000E+00 0. -1.
         -2   -1    0    0    0  501 -0.00000000000E+00 -0.00000000000E+00 -0.58237961414E+02  0.58237961414E+02  0.00000000000E+00 0.  1.
        -13    1    1    2    0    0  0.76866204661E+01  0.98308215862E+01 -0.40644721351E+02  0.42517320717E+02  0.00000000000E+00 0.  1.
         13    1    1    2    0    0 -0.76866204661E+01 -0.98308215862E+01 -0.14319638576E+02  0.18994242185E+02  0.00000000000E+00 0. -1.
<mgrwt>
<rscale>  0 0.27615059E+02</rscale>
<asrwt>0</asrwt>
<pdfrwt beam="1">  1        2 0.50363099E-03 0.27615059E+02</pdfrwt>
<pdfrwt beam="2">  1       -2 0.89596865E-02 0.27615059E+02</pdfrwt>
<totfact> 0.16080351E+06</totfact>
</mgrwt>
</event>
<event>
 5    1  0.6308903E+000  0.8611330E+02  0.7546771E-02  0.1312547E+00
          2   -1    0    0  501    0  0.00000000000E+00  0.00000000000E+00  0.15272937393E+03  0.15272937393E+03  0.00000000000E+00 0. -1.
         -2   -1    0    0    0  501 -0.00000000000E+00 -0.00000000000E+00 -0.12138301996E+02  0.12138301996E+02  0.00000000000E+00 0.  1.
         23    2    1    2    0    0  0.00000000000E+00  0.00000000000E+00  0.14059107194E+03  0.16486767593E+03  0.86113303604E+02 0.  0.
        -13    1    3    3    0    0  0.10514416242E+02 -0.34385167624E+02  0.11564163649E+03  0.12110276955E+03  0.00000000000E+00 0. -1.
         13    1    3    3    0    0 -0.10514416242E+02  0.34385167624E+02  0.24949435442E+02  0.43764906378E+02  0.00000000000E+00 0.  1.
<mgrwt>
<rscale>  0 0.86113304E+02</rscale>
<asrwt>0</asrwt>
<pdfrwt beam="1">  1        2 0.23496825E-01 0.86113304E+02</pdfrwt>
<pdfrwt beam="2">  1       -2 0.18674312E-02 0.86113304E+02</pdfrwt>
<totfact> 0.16414343E+05</totfact>
</mgrwt>
</event>
<event>
 5    1  0.6308903E+000  0.9309163E+02  0.7546771E-02  0.1295533E+00
         -1   -1    0    0    0  501 -0.00000000000E+00  0.00000000000E+00  0.26577393265E+03  0.26577393265E+03  0.00000000000E+00 0.  1.
          1   -1    0    0  501    0  0.00000000000E+00 -0.00000000000E+00 -0.81517133328E+01  0.81517133328E+01  0.00000000000E+00 0. -1.
         23    2    1    2    0    0  0.00000000000E+00  0.00000000000E+00  0.25762221931E+03  0.27392564598E+03  0.93091630349E+02 0.  0.
        -13    1    3    3    0    0 -0.12554220139E+02 -0.43400506402E+02  0.95873014553E+02  0.10598512782E+03  0.00000000000E+00 0. -1.
         13    1    3    3    0    0  0.12554220139E+02  0.43400506402E+02  0.16174920476E+03  0.16794051816E+03  0.00000000000E+00 0.  1.
<mgrwt>
<rscale>  0 0.93091630E+02</rscale>
<asrwt>0</asrwt>
<pdfrwt beam="2">  1        1 0.12541099E-02 0.93091630E+02</pdfrwt>
<pdfrwt beam="1">  1       -1 0.40888291E-01 0.93091630E+02</pdfrwt>
<totfact> 0.60045874E+04</totfact>
</mgrwt>
</event>
<event>
 5    1  0.6308903E+000  0.9144879E+02  0.7546771E-02  0.1299381E+00
         -2   -1    0    0    0  501 -0.00000000000E+00  0.00000000000E+00  0.28759605542E+02  0.28759605542E+02  0.00000000000E+00 0.  1.
          2   -1    0    0  501    0  0.00000000000E+00 -0.00000000000E+00 -0.72696422890E+02  0.72696422890E+02  0.00000000000E+00 0. -1.
         23    2    1    2    0    0  0.00000000000E+00  0.00000000000E+00 -0.43936817347E+02  0.10145602843E+03  0.91448793248E+02 0.  0.
        -13    1    3    3    0    0  0.33277255456E+02 -0.43622985224E+01  0.12483188056E+02  0.35808314162E+02  0.00000000000E+00 0.  1.
         13    1    3    3    0    0 -0.33277255456E+02  0.43622985224E+01 -0.56420005403E+02  0.65647714270E+02  0.00000000000E+00 0. -1.
<mgrwt>
<rscale>  0 0.91448793E+02</rscale>
<asrwt>0</asrwt>
<pdfrwt beam="2">  1        2 0.11184065E-01 0.91448793E+02</pdfrwt>
<pdfrwt beam="1">  1       -2 0.44245548E-02 0.91448793E+02</pdfrwt>
<totfact> 0.11086210E+05</totfact>
</mgrwt>
</event>
<event>
 5    1  0.6308903E+000  0.9122165E+02  0.7546771E-02  0.1299920E+00
         -2   -1    0    0    0  501 -0.00000000000E+00  0.00000000000E+00  0.17977547989E+02  0.17977547989E+02  0.00000000000E+00 0.  1.
          2   -1    0    0  501    0  0.00000000000E+00 -0.00000000000E+00 -0.11571918575E+03  0.11571918575E+03  0.00000000000E+00 0. -1.
         23    2    1    2    0    0  0.00000000000E+00  0.00000000000E+00 -0.97741637757E+02  0.13369673374E+03  0.91221646883E+02 0.  0.
        -13    1    3    3    0    0 -0.19111305989E+02  0.23731424882E+02 -0.98614157312E+02  0.10321421688E+03  0.00000000000E+00 0. -1.
         13    1    3    3    0    0  0.19111305989E+02 -0.23731424882E+02  0.87251955471E+00  0.30482516856E+02  0.00000000000E+00 0.  1.
<mgrwt>
<rscale>  0 0.91221647E+02</rscale>
<asrwt>0</asrwt>
<pdfrwt beam="2">  1        2 0.17802952E-01 0.91221647E+02</pdfrwt>
<pdfrwt beam="1">  1       -2 0.27657766E-02 0.91221647E+02</pdfrwt>
<totfact> 0.12819711E+05</totfact>
</mgrwt>
</event>
<event>
 5    1  0.6308903E+000  0.9782168E+02  0.7546771E-02  0.1284944E+00
          1   -1    0    0  501    0  0.00000000000E+00  0.00000000000E+00  0.46293226338E+02  0.46293226338E+02  0.00000000000E+00 0. -1.
         -1   -1    0    0    0  501 -0.00000000000E+00 -0.00000000000E+00 -0.51676460723E+02  0.51676460723E+02  0.00000000000E+00 0.  1.
         23    2    1    2    0    0  0.00000000000E+00  0.00000000000E+00 -0.53832343850E+01  0.97969687062E+02  0.97821676384E+02 0.  0.
        -13    1    3    3    0    0 -0.18983702598E+02  0.16880487974E+02 -0.44551248344E+02  0.51284944843E+02  0.00000000000E+00 0.  1.
         13    1    3    3    0    0  0.18983702598E+02 -0.16880487974E+02  0.39168013959E+02  0.46684742219E+02  0.00000000000E+00 0. -1.
<mgrwt>
<rscale>  0 0.97821676E+02</rscale>
<asrwt>0</asrwt>
<pdfrwt beam="1">  1        1 0.71220348E-02 0.97821676E+02</pdfrwt>
<pdfrwt beam="2">  1       -1 0.79502247E-02 0.97821676E+02</pdfrwt>
<totfact> 0.75989715E+04</totfact>
</mgrwt>
</event>
<event>
 5    1  0.6308903E+000  0.9159651E+02  0.7546771E-02  0.1299031E+00
         -1   -1    0    0    0  501 -0.00000000000E+00  0.00000000000E+00  0.10625486889E+03  0.10625486889E+03  0.00000000000E+00 0.  1.
          1   -1    0    0  501    0  0.00000000000E+00 -0.00000000000E+00 -0.19740087094E+02  0.19740087094E+02  0.00000000000E+00 0. -1.
         23    2    1    2    0    0  0.00000000000E+00  0.00000000000E+00  0.86514781792E+02  0.12599495598E+03  0.91596514474E+02 0.  0.
        -13    1    3    3    0    0  0.48905270028E+01  0.22214014627E+02  0.97935890567E+02  0.10054261963E+03  0.00000000000E+00 0.  1.
         13    1    3    3    0    0 -0.48905270028E+01 -0.22214014627E+02 -0.11421108775E+02  0.25452336353E+02  0.00000000000E+00 0. -1.
<mgrwt>
<rscale>  0 0.91596514E+02</rscale>
<asrwt>0</asrwt>
<pdfrwt beam="2">  1        1 0.30369365E-02 0.91596514E+02</pdfrwt>
<pdfrwt beam="1">  1       -1 0.16346903E-01 0.91596514E+02</pdfrwt>
<totfact> 0.79496084E+04</totfact>
</mgrwt>
</event>
<event>
 5    1  0.6308903E+000  0.9038757E+02  0.7546771E-02  0.1301916E+00
          2   -1    0    0  501    0  0.00000000000E+00  0.00000000000E+00  0.38878434449E+02  0.38878434449E+02  0.00000000000E+00 0. -1.
         -2   -1    0    0    0  501 -0.00000000000E+00 -0.00000000000E+00 -0.52534991082E+02  0.52534991082E+02  0.00000000000E+00 0.  1.
         23    2    1    2    0    0  0.00000000000E+00  0.00000000000E+00 -0.13656556633E+02  0.91413425532E+02  0.90387570099E+02 0.  0.
        -13    1    3    3    0    0  0.44401663845E+02  0.84208479159E+01 -0.65810135948E+01  0.45669773064E+02  0.00000000000E+00 0.  1.
         13    1    3    3    0    0 -0.44401663845E+02 -0.84208479159E+01 -0.70755430384E+01  0.45743652468E+02  0.00000000000E+00 0. -1.
<mgrwt>
<rscale>  0 0.90387570E+02</rscale>
<asrwt>0</asrwt>
<pdfrwt beam="1">  1        2 0.59812976E-02 0.90387570E+02</pdfrwt>
<pdfrwt beam="2">  1       -2 0.80823063E-02 0.90387570E+02</pdfrwt>
<totfact> 0.97104912E+04</totfact>
</mgrwt>
</event>
<event>
 5    1  0.6308903E+000  0.9100354E+02  0.7546771E-02  0.1300440E+00
          3   -1    0    0  501    0  0.00000000000E+00  0.00000000000E+00  0.36158977002E+02  0.36158977002E+02  0.00000000000E+00 0. -1.
         -3   -1    0    0    0  501 -0.00000000000E+00 -0.00000000000E+00 -0.57258557951E+02  0.57258557951E+02  0.00000000000E+00 0.  1.
         23    2    1    2    0    0  0.00000000000E+00  0.00000000000E+00 -0.21099580948E+02  0.93417534953E+02  0.91003535758E+02 0.  0.
        -13    1    3    3    0    0  0.18221671911E+02  0.18558900523E+02 -0.48875794644E+02  0.55365200423E+02  0.00000000000E+00 0.  1.
         13    1    3    3    0    0 -0.18221671911E+02 -0.18558900523E+02  0.27776213695E+02  0.38052334529E+02  0.00000000000E+00 0. -1.
<mgrwt>
<rscale>  0 0.91003536E+02</rscale>
<asrwt>0</asrwt>
<pdfrwt beam="1">  1        3 0.55629195E-02 0.91003536E+02</pdfrwt>
<pdfrwt beam="2">  1       -3 0.88090089E-02 0.91003536E+02</pdfrwt>
<totfact> 0.35350876E+04</totfact>
</mgrwt>
</event>
<event>
 5    1  0.6308903E+000  0.9161257E+02  0.7546771E-02  0.1298993E+00
         -2   -1    0    0    0  501 -0.00000000000E+00  0.00000000000E+00  0.52580847323E+02  0.52580847323E+02  0.00000000000E+00 0.  1.
          2   -1    0    0  501    0  0.00000000000E+00 -0.00000000000E+00 -0.39904566135E+02  0.39904566135E+02  0.00000000000E+00 0. -1.
         23    2    1    2    0    0  0.00000000000E+00  0.00000000000E+00  0.12676281188E+02  0.92485413459E+02  0.91612573361E+02 0.  0.
        -13    1    3    3    0    0 -0.14563203797E+02 -0.43182082548E+02  0.16640454884E+01  0.45602063609E+02  0.00000000000E+00 0.  1.
         13    1    3    3    0    0  0.14563203797E+02  0.43182082548E+02  0.11012235700E+02  0.46883349850E+02  0.00000000000E+00 0. -1.
<mgrwt>
<rscale>  0 0.91612573E+02</rscale>
<asrwt>0</asrwt>
<pdfrwt beam="2">  1        2 0.61391640E-02 0.91612573E+02</pdfrwt>
<pdfrwt beam="1">  1       -2 0.80893611E-02 0.91612573E+02</pdfrwt>
<totfact> 0.94019835E+04</totfact>
</mgrwt>
</event>
<event>
 5    1  0.6308903E+000  0.9316611E+02  0.7546771E-02  0.1295361E+00
          2   -1    0    0  501    0  0.00000000000E+00  0.00000000000E+00  0.28684761119E+02  0.28684761119E+02  0.00000000000E+00 0. -1.
         -2   -1    0    0    0  501 -0.00000000000E+00 -0.00000000000E+00 -0.75649270137E+02  0.75649270137E+02  0.00000000000E+00 0.  1.
         23    2    1    2    0    0  0.00000000000E+00  0.00000000000E+00 -0.46964509018E+02  0.10433403126E+03  0.93166114929E+02 0.  0.
        -13    1    3    3    0    0  0.28947777698E+02  0.14285219098E+02 -0.61092917313E+02  0.69096930932E+02  0.00000000000E+00 0.  1.
         13    1    3    3    0    0 -0.28947777698E+02 -0.14285219098E+02  0.14128408296E+02  0.35237100325E+02  0.00000000000E+00 0. -1.
<mgrwt>
<rscale>  0 0.93166115E+02</rscale>
<asrwt>0</asrwt>
<pdfrwt beam="1">  1        2 0.44130402E-02 0.93166115E+02</pdfrwt>
<pdfrwt beam="2">  1       -2 0.11638349E-01 0.93166115E+02</pdfrwt>
<totfact> 0.81944206E+04</totfact>
</mgrwt>
</event>
<event>
 5    1  0.6308903E+000  0.9193307E+02  0.7546771E-02  0.1298237E+00
          1   -1    0    0  501    0  0.00000000000E+00  0.00000000000E+00  0.59226457627E+01  0.59226457627E+01  0.00000000000E+00 0. -1.
         -1   -1    0    0    0  501 -0.00000000000E+00 -0.00000000000E+00 -0.35675311874E+03  0.35675311874E+03  0.00000000000E+00 0.  1.
         23    2    1    2    0    0  0.00000000000E+00  0.00000000000E+00 -0.35083047298E+03  0.36267576450E+03  0.91933070155E+02 0.  0.
        -13    1    3    3    0    0 -0.27860793300E+01 -0.44772469896E+02 -0.21498064414E+03  0.21961105085E+03  0.00000000000E+00 0.  1.
         13    1    3    3    0    0  0.27860793300E+01  0.44772469896E+02 -0.13584982883E+03  0.14306471365E+03  0.00000000000E+00 0. -1.
<mgrwt>
<rscale>  0 0.91933070E+02</rscale>
<asrwt>0</asrwt>
<pdfrwt beam="1">  1        1 0.91117630E-03 0.91933070E+02</pdfrwt>
<pdfrwt beam="2">  1       -1 0.54885094E-01 0.91933070E+02</pdfrwt>
<totfact> 0.55093358E+04</totfact>
</mgrwt>
</event>
<event>
 5    1  0.6308903E+000  0.8554819E+02  0.7546771E-02  0.1314005E+00
          1   -1    0    0  501    0  0.00000000000E+00  0.00000000000E+00  0.32169207399E+02  0.32169207399E+02  0.00000000000E+00 0. -1.
         -1   -1    0    0    0  501 -0.00000000000E+00 -0.00000000000E+00 -0.56874988029E+02  0.56874988029E+02  0.00000000000E+00 0.  1.
         23    2    1    2    0    0  0.00000000000E+00  0.00000000000E+00 -0.24705780630E+02  0.89044195428E+02  0.85548191932E+02 0.  0.
        -13    1    3    3    0    0 -0.36169034752E+02 -0.22315058962E+02 -0.73111488277E+01  0.43123240005E+02  0.00000000000E+00 0. -1.
         13    1    3    3    0    0  0.36169034752E+02  0.22315058962E+02 -0.17394631803E+02  0.45920955423E+02  0.00000000000E+00 0.  1.
<mgrwt>
<rscale>  0 0.85548192E+02</rscale>
<asrwt>0</asrwt>
<pdfrwt beam="1">  1        1 0.49491088E-02 0.85548192E+02</pdfrwt>
<pdfrwt beam="2">  1       -1 0.87499981E-02 0.85548192E+02</pdfrwt>
<totfact> 0.10504475E+05</totfact>
</mgrwt>
</event>
<event>
 5    1  0.6308903E+000  0.8997079E+02  0.7546771E-02  0.1302922E+00
          1   -1    0    0  501    0  0.00000000000E+00  0.00000000000E+00  0.10310245027E+03  0.10310245027E+03  0.00000000000E+00 0. -1.
         -1   -1    0    0    0  501 -0.00000000000E+00 -0.00000000000E+00 -0.19627912756E+02  0.19627912756E+02  0.00000000000E+00 0.  1.
         23    2    1    2    0    0  0.00000000000E+00  0.00000000000E+00  0.83474537513E+02  0.12273036303E+03  0.89970793013E+02 0.  0.
        -13    1    3    3    0    0 -0.40037088601E+02 -0.27411663998E+01  0.14008381900E+02  0.42505496354E+02  0.00000000000E+00 0.  1.
         13    1    3    3    0    0  0.40037088601E+02  0.27411663998E+01  0.69466155612E+02  0.80224866671E+02  0.00000000000E+00 0. -1.
<mgrwt>
<rscale>  0 0.89970793E+02</rscale>
<asrwt>0</asrwt>
<pdfrwt beam="1">  1        1 0.15861915E-01 0.89970793E+02</pdfrwt>
<pdfrwt beam="2">  1       -1 0.30196789E-02 0.89970793E+02</pdfrwt>
<totfact> 0.10885695E+05</totfact>
</mgrwt>
</event>
<event>
 5    1  0.6308903E+000  0.9120781E+02  0.7546771E-02  0.1299953E+00
         -1   -1    0    0    0  501 -0.00000000000E+00  0.00000000000E+00  0.20252734747E+02  0.20252734747E+02  0.00000000000E+00 0.  1.
          1   -1    0    0  501    0  0.00000000000E+00 -0.00000000000E+00 -0.10268815574E+03  0.10268815574E+03  0.00000000000E+00 0. -1.
         23    2    1    2    0    0  0.00000000000E+00  0.00000000000E+00 -0.82435420994E+02  0.12294089049E+03  0.91207806241E+02 0.  0.
        -13    1    3    3    0    0  0.93600932530E+01 -0.26995959105E+02 -0.89127196992E+02  0.93595140885E+02  0.00000000000E+00 0. -1.
         13    1    3    3    0    0 -0.93600932530E+01  0.26995959105E+02  0.66917759977E+01  0.29345749602E+02  0.00000000000E+00 0.  1.
<mgrwt>
<rscale>  0 0.91207806E+02</rscale>
<asrwt>0</asrwt>
<pdfrwt beam="2">  1        1 0.15798177E-01 0.91207806E+02</pdfrwt>
<pdfrwt beam="1">  1       -1 0.31158054E-02 0.91207806E+02</pdfrwt>
<totfact> 0.10481781E+05</totfact>
</mgrwt>
</event>
<event>
 5    1  0.6308903E+000  0.9226231E+02  0.7546771E-02  0.1297464E+00
         -2   -1    0    0    0  501 -0.00000000000E+00  0.00000000000E+00  0.34719019956E+02  0.34719019956E+02  0.00000000000E+00 0.  1.
          2   -1    0    0  501    0  0.00000000000E+00 -0.00000000000E+00 -0.61294452174E+02  0.61294452174E+02  0.00000000000E+00 0. -1.
         23    2    1    2    0    0  0.00000000000E+00  0.00000000000E+00 -0.26575432218E+02  0.96013472130E+02  0.92262306674E+02 0.  0.
        -13    1    3    3    0    0  0.17858758786E+02  0.27335731753E+02 -0.47199517963E+02  0.57393135406E+02  0.00000000000E+00 0. -1.
         13    1    3    3    0    0 -0.17858758786E+02 -0.27335731753E+02  0.20624085745E+02  0.38620336723E+02  0.00000000000E+00 0.  1.
<mgrwt>
<rscale>  0 0.92262307E+02</rscale>
<asrwt>0</asrwt>
<pdfrwt beam="2">  1        2 0.94299156E-02 0.92262307E+02</pdfrwt>
<pdfrwt beam="1">  1       -2 0.53413877E-02 0.92262307E+02</pdfrwt>
<totfact> 0.10317450E+05</totfact>
</mgrwt>
</event>
<event>
 5    1  0.6308903E+000  0.9300128E+02  0.7546771E-02  0.1295742E+00
          1   -1    0    0  501    0  0.00000000000E+00  0.00000000000E+00  0.22123025631E+02  0.22123025631E+02  0.00000000000E+00 0. -1.
         -1   -1    0    0    0  501 -0.00000000000E+00 -0.00000000000E+00 -0.97740233197E+02  0.97740233197E+02  0.00000000000E+00 0.  1.
         23    2    1    2    0    0  0.00000000000E+00  0.00000000000E+00 -0.75617207566E+02  0.11986325883E+03  0.93001283522E+02 0.  0.
        -13    1    3    3    0    0 -0.35164236168E+02 -0.28975912578E+00 -0.77021849522E+02  0.84669786639E+02  0.00000000000E+00 0.  1.
         13    1    3    3    0    0  0.35164236168E+02  0.28975912578E+00  0.14046419563E+01  0.35193472188E+02  0.00000000000E+00 0. -1.
<mgrwt>
<rscale>  0 0.93001284E+02</rscale>
<asrwt>0</asrwt>
<pdfrwt beam="1">  1        1 0.34035424E-02 0.93001284E+02</pdfrwt>
<pdfrwt beam="2">  1       -1 0.15036959E-01 0.93001284E+02</pdfrwt>
<totfact> 0.77647906E+04</totfact>
</mgrwt>
</event>
<event>
 5    1  0.6308903E+000  0.9046642E+02  0.7546771E-02  0.1301726E+00
          2   -1    0    0  501    0  0.00000000000E+00  0.00000000000E+00  0.20421551703E+02  0.20421551703E+02  0.00000000000E+00 0. -1.
         -2   -1    0    0    0  501 -0.00000000000E+00 -0.00000000000E+00 -0.10019040203E+03  0.10019040203E+03  0.00000000000E+00 0.  1.
         23    2    1    2    0    0  0.00000000000E+00  0.00000000000E+00 -0.79768850328E+02  0.12061195373E+03  0.90466424164E+02 0.  0.
        -13    1    3    3    0    0 -0.31991907123E+02  0.20469465937E+02 -0.72638398184E+02  0.81968396640E+02  0.00000000000E+00 0.  1.
         13    1    3    3    0    0  0.31991907123E+02 -0.20469465937E+02 -0.71304521438E+01  0.38643557094E+02  0.00000000000E+00 0. -1.
<mgrwt>
<rscale>  0 0.90466424E+02</rscale>
<asrwt>0</asrwt>
<pdfrwt beam="1">  1        2 0.31417772E-02 0.90466424E+02</pdfrwt>
<pdfrwt beam="2">  1       -2 0.15413908E-01 0.90466424E+02</pdfrwt>
<totfact> 0.81327880E+04</totfact>
</mgrwt>
</event>
<event>
 5    1  0.6308903E+000  0.8791274E+02  0.7546771E-02  0.1307986E+00
          2   -1    0    0  501    0  0.00000000000E+00  0.00000000000E+00  0.65649607199E+02  0.65649607199E+02  0.00000000000E+00 0. -1.
         -2   -1    0    0    0  501 -0.00000000000E+00 -0.00000000000E+00 -0.29431437465E+02  0.29431437465E+02  0.00000000000E+00 0.  1.
         23    2    1    2    0    0  0.00000000000E+00  0.00000000000E+00  0.36218169734E+02  0.95081044664E+02  0.87912736481E+02 0.  0.
        -13    1    3    3    0    0  0.42911235483E+02  0.87425413919E+01  0.14011187163E+02  0.45979555526E+02  0.00000000000E+00 0. -1.
         13    1    3    3    0    0 -0.42911235483E+02 -0.87425413919E+01  0.22206982571E+02  0.49101489138E+02  0.00000000000E+00 0.  1.
<mgrwt>
<rscale>  0 0.87912736E+02</rscale>
<asrwt>0</asrwt>
<pdfrwt beam="1">  1        2 0.10099940E-01 0.87912736E+02</pdfrwt>
<pdfrwt beam="2">  1       -2 0.45279135E-02 0.87912736E+02</pdfrwt>
<totfact> 0.12034629E+05</totfact>
</mgrwt>
</event>
<event>
 5    1  0.6308903E+000  0.9145473E+02  0.7546771E-02  0.1299367E+00
          2   -1    0    0  501    0  0.00000000000E+00  0.00000000000E+00  0.21993838056E+03  0.21993838056E+03  0.00000000000E+00 0. -1.
         -2   -1    0    0    0  501 -0.00000000000E+00 -0.00000000000E+00 -0.95071710376E+01  0.95071710376E+01  0.00000000000E+00 0.  1.
         23    2    1    2    0    0  0.00000000000E+00  0.00000000000E+00  0.21043120952E+03  0.22944555160E+03  0.91454727636E+02 0.  0.
        -13    1    3    3    0    0  0.15746296514E+02  0.42587557011E+02  0.91624728389E+02  0.10225818656E+03  0.00000000000E+00 0.  1.
         13    1    3    3    0    0 -0.15746296514E+02 -0.42587557011E+02  0.11880648114E+03  0.12718736504E+03  0.00000000000E+00 0. -1.
<mgrwt>
<rscale>  0 0.91454728E+02</rscale>
<asrwt>0</asrwt>
<pdfrwt beam="1">  1        2 0.33836670E-01 0.91454728E+02</pdfrwt>
<pdfrwt beam="2">  1       -2 0.14626419E-02 0.91454728E+02</pdfrwt>
<totfact> 0.15881901E+05</totfact>
</mgrwt>
</event>
<event>
 5    1  0.6308903E+000  0.8545355E+02  0.7546771E-02  0.1314251E+00
         -1   -1    0    0    0  501 -0.00000000000E+00  0.00000000000E+00  0.40469333263E+03  0.40469333263E+03  0.00000000000E+00 0.  1.
          1   -1    0    0  501    0  0.00000000000E+00 -0.00000000000E+00 -0.45110138745E+01  0.45110138745E+01  0.00000000000E+00 0. -1.
         23    2    1    2    0    0  0.00000000000E+00  0.00000000000E+00  0.40018231875E+03  0.40920434650E+03  0.85453548514E+02 0.  0.
        -13    1    3    3    0    0  0.39945747330E+02  0.13935579899E+02  0.22870855599E+03  0.23258862117E+03  0.00000000000E+00 0.  1.
         13    1    3    3    0    0 -0.39945747330E+02 -0.13935579899E+02  0.17147376277E+03  0.17661572533E+03  0.00000000000E+00 0. -1.
<mgrwt>
<rscale>  0 0.85453549E+02</rscale>
<asrwt>0</asrwt>
<pdfrwt beam="2">  1        1 0.69400245E-03 0.85453549E+02</pdfrwt>
<pdfrwt beam="1">  1       -1 0.62260484E-01 0.85453549E+02</pdfrwt>
<totfact> 0.62752975E+04</totfact>
</mgrwt>
</event>
<event>
 5    1  0.6308903E+000  0.9302848E+02  0.7546771E-02  0.1295679E+00
          2   -1    0    0  501    0  0.00000000000E+00  0.00000000000E+00  0.12025239108E+03  0.12025239108E+03  0.00000000000E+00 0. -1.
         -2   -1    0    0    0  501 -0.00000000000E+00 -0.00000000000E+00 -0.17991945709E+02  0.17991945709E+02  0.00000000000E+00 0.  1.
         23    2    1    2    0    0  0.00000000000E+00  0.00000000000E+00  0.10226044537E+03  0.13824433679E+03  0.93028479331E+02 0.  0.
        -13    1    3    3    0    0 -0.69800831837E+00 -0.35570070640E+02  0.95658418490E+02  0.10206003218E+03  0.00000000000E+00 0. -1.
         13    1    3    3    0    0  0.69800831837E+00  0.35570070640E+02  0.66020268809E+01  0.36184304607E+02  0.00000000000E+00 0.  1.
<mgrwt>
<rscale>  0 0.93028479E+02</rscale>
<asrwt>0</asrwt>
<pdfrwt beam="1">  1        2 0.18500367E-01 0.93028479E+02</pdfrwt>
<pdfrwt beam="2">  1       -2 0.27679917E-02 0.93028479E+02</pdfrwt>
<totfact> 0.12298674E+05</totfact>
</mgrwt>
</event>
<event>
 5    1  0.6308903E+000  0.9072130E+02  0.7546771E-02  0.1301114E+00
         -1   -1    0    0    0  501 -0.00000000000E+00  0.00000000000E+00  0.31729960563E+03  0.31729960563E+03  0.00000000000E+00 0.  1.
          1   -1    0    0  501    0  0.00000000000E+00 -0.00000000000E+00 -0.64846867927E+01  0.64846867927E+01  0.00000000000E+00 0. -1.
         23    2    1    2    0    0  0.00000000000E+00  0.00000000000E+00  0.31081491883E+03  0.32378429242E+03  0.90721299857E+02 0.  0.
        -13    1    3    3    0    0  0.11115601014E+01  0.45289156299E+02  0.16358141769E+03  0.16973869169E+03  0.00000000000E+00 0. -1.
         13    1    3    3    0    0 -0.11115601014E+01 -0.45289156299E+02  0.14723350114E+03  0.15404560073E+03  0.00000000000E+00 0.  1.
<mgrwt>
<rscale>  0 0.90721300E+02</rscale>
<asrwt>0</asrwt>
<pdfrwt beam="2">  1        1 0.99764437E-03 0.90721300E+02</pdfrwt>
<pdfrwt beam="1">  1       -1 0.48815312E-01 0.90721300E+02</pdfrwt>
<totfact> 0.60013974E+04</totfact>
</mgrwt>
</event>
<event>
 5    1  0.6308903E+000  0.9038188E+02  0.7546771E-02  0.1301930E+00
          4   -1    0    0  501    0  0.00000000000E+00  0.00000000000E+00  0.68133627208E+02  0.68133627208E+02  0.00000000000E+00 0. -1.
         -4   -1    0    0    0  501 -0.00000000000E+00 -0.00000000000E+00 -0.29973760775E+02  0.29973760775E+02  0.00000000000E+00 0.  1.
         23    2    1    2    0    0  0.00000000000E+00  0.00000000000E+00  0.38159866434E+02  0.98107387983E+02  0.90381879659E+02 0.  0.
        -13    1    3    3    0    0 -0.13281328444E+02  0.32124824902E+02 -0.12264272918E+02  0.36862046205E+02  0.00000000000E+00 0.  1.
         13    1    3    3    0    0  0.13281328444E+02 -0.32124824902E+02  0.50424139351E+02  0.61245341778E+02  0.00000000000E+00 0. -1.
<mgrwt>
<rscale>  0 0.90381880E+02</rscale>
<asrwt>0</asrwt>
<pdfrwt beam="1">  1        4 0.10482096E-01 0.90381880E+02</pdfrwt>
<pdfrwt beam="2">  1       -4 0.46113478E-02 0.90381880E+02</pdfrwt>
<totfact> 0.27213166E+04</totfact>
</mgrwt>
</event>
<event>
 5    1  0.6308903E+000  0.9100434E+02  0.7546771E-02  0.1300438E+00
         -3   -1    0    0    0  501 -0.00000000000E+00  0.00000000000E+00  0.74426841252E+02  0.74426841252E+02  0.00000000000E+00 0.  1.
          3   -1    0    0  501    0  0.00000000000E+00 -0.00000000000E+00 -0.27818559766E+02  0.27818559766E+02  0.00000000000E+00 0. -1.
         23    2    1    2    0    0  0.00000000000E+00  0.00000000000E+00  0.46608281487E+02  0.10224540102E+03  0.91004341249E+02 0.  0.
        -13    1    3    3    0    0 -0.13884142286E+02 -0.33360316406E+02 -0.77662245779E+01  0.36959360952E+02  0.00000000000E+00 0. -1.
         13    1    3    3    0    0  0.13884142286E+02  0.33360316406E+02  0.54374506065E+02  0.65286040066E+02  0.00000000000E+00 0.  1.
<mgrwt>
<rscale>  0 0.91004341E+02</rscale>
<asrwt>0</asrwt>
<pdfrwt beam="2">  1        3 0.42797785E-02 0.91004341E+02</pdfrwt>
<pdfrwt beam="1">  1       -3 0.11450283E-01 0.91004341E+02</pdfrwt>
<totfact> 0.34685452E+04</totfact>
</mgrwt>
</event>
<event>
 5    1  0.6308903E+000  0.9049890E+02  0.7546771E-02  0.1301648E+00
          1   -1    0    0  501    0  0.00000000000E+00  0.00000000000E+00  0.10789733402E+03  0.10789733402E+03  0.00000000000E+00 0. -1.
         -1   -1    0    0    0  501 -0.00000000000E+00 -0.00000000000E+00 -0.18976490859E+02  0.18976490859E+02  0.00000000000E+00 0.  1.
         23    2    1    2    0    0  0.00000000000E+00  0.00000000000E+00  0.88920843160E+02  0.12687382488E+03  0.90498901047E+02 0.  0.
        -13    1    3    3    0    0 -0.11430689898E+02  0.13936439879E+02 -0.13726374728E+02  0.22656089495E+02  0.00000000000E+00 0.  1.
         13    1    3    3    0    0  0.11430689898E+02 -0.13936439879E+02  0.10264721789E+03  0.10421773538E+03  0.00000000000E+00 0. -1.
<mgrwt>
<rscale>  0 0.90498901E+02</rscale>
<asrwt>0</asrwt>
<pdfrwt beam="1">  1        1 0.16599590E-01 0.90498901E+02</pdfrwt>
<pdfrwt beam="2">  1       -1 0.29194602E-02 0.90498901E+02</pdfrwt>
<totfact> 0.10796007E+05</totfact>
</mgrwt>
</event>
<event>
 5    1  0.6308903E+000  0.9175876E+02  0.7546771E-02  0.1298648E+00
         -1   -1    0    0    0  501 -0.00000000000E+00  0.00000000000E+00  0.63749745626E+02  0.63749745626E+02  0.00000000000E+00 0.  1.
          1   -1    0    0  501    0  0.00000000000E+00 -0.00000000000E+00 -0.33018447862E+02  0.33018447862E+02  0.00000000000E+00 0. -1.
         23    2    1    2    0    0  0.00000000000E+00  0.00000000000E+00  0.30731297764E+02  0.96768193489E+02  0.91758763117E+02 0.  0.
        -13    1    3    3    0    0  0.37063427950E+02 -0.22720011354E+02  0.30829781544E+02  0.53295140842E+02  0.00000000000E+00 0.  1.
         13    1    3    3    0    0 -0.37063427950E+02  0.22720011354E+02 -0.98483780424E-01  0.43473052646E+02  0.00000000000E+00 0. -1.
<mgrwt>
<rscale>  0 0.91758763E+02</rscale>
<asrwt>0</asrwt>
<pdfrwt beam="2">  1        1 0.50797612E-02 0.91758763E+02</pdfrwt>
<pdfrwt beam="1">  1       -1 0.98076532E-02 0.91758763E+02</pdfrwt>
<totfact> 0.86431554E+04</totfact>
</mgrwt>
</event>
<event>
 5    1  0.6308903E+000  0.9179521E+02  0.7546771E-02  0.1298562E+00
         -1   -1    0    0    0  501 -0.00000000000E+00  0.00000000000E+00  0.48736300724E+02  0.48736300724E+02  0.00000000000E+00 0.  1.
          1   -1    0    0  501    0  0.00000000000E+00 -0.00000000000E+00 -0.43224249840E+02  0.43224249840E+02  0.00000000000E+00 0. -1.
         23    2    1    2    0    0  0.00000000000E+00  0.00000000000E+00  0.55120508842E+01  0.91960550563E+02  0.91795207691E+02 0.  0.
        -13    1    3    3    0    0 -0.22314816178E+02  0.32824589546E+02  0.25844997264E+02  0.47364212054E+02  0.00000000000E+00 0.  1.
         13    1    3    3    0    0  0.22314816178E+02 -0.32824589546E+02 -0.20332946380E+02  0.44596338509E+02  0.00000000000E+00 0. -1.
<mgrwt>
<rscale>  0 0.91795208E+02</rscale>
<asrwt>0</asrwt>
<pdfrwt beam="2">  1        1 0.66498846E-02 0.91795208E+02</pdfrwt>
<pdfrwt beam="1">  1       -1 0.74978924E-02 0.91795208E+02</pdfrwt>
<totfact> 0.90002775E+04</totfact>
</mgrwt>
</event>
<event>
 5    1  0.6308903E+000  0.9342772E+02  0.7546771E-02  0.1294757E+00
          2   -1    0    0  501    0  0.00000000000E+00  0.00000000000E+00  0.44838621603E+01  0.44838621603E+01  0.00000000000E+00 0. -1.
         -2   -1    0    0    0  501 -0.00000000000E+00 -0.00000000000E+00 -0.48667519446E+03  0.48667519446E+03  0.00000000000E+00 0.  1.
         23    2    1    2    0    0  0.00000000000E+00  0.00000000000E+00 -0.48219133230E+03  0.49115905662E+03  0.93427715135E+02 0.  0.
        -13    1    3    3    0    0  0.44062248745E+02  0.15201973826E+02 -0.25738650603E+03  0.26157292532E+03  0.00000000000E+00 0.  1.
         13    1    3    3    0    0 -0.44062248745E+02 -0.15201973826E+02 -0.22480482627E+03  0.22958613131E+03  0.00000000000E+00 0. -1.
<mgrwt>
<rscale>  0 0.93427715E+02</rscale>
<asrwt>0</asrwt>
<pdfrwt beam="1">  1        2 0.68982487E-03 0.93427715E+02</pdfrwt>
<pdfrwt beam="2">  1       -2 0.74873116E-01 0.93427715E+02</pdfrwt>
<totfact> 0.34797501E+04</totfact>
</mgrwt>
</event>
<event>
 5    1  0.6308903E+000  0.9118188E+02  0.7546771E-02  0.1300015E+00
         -1   -1    0    0    0  501 -0.00000000000E+00  0.00000000000E+00  0.40669199306E+03  0.40669199306E+03  0.00000000000E+00 0.  1.
          1   -1    0    0  501    0  0.00000000000E+00 -0.00000000000E+00 -0.51108300653E+01  0.51108300653E+01  0.00000000000E+00 0. -1.
         23    2    1    2    0    0  0.00000000000E+00  0.00000000000E+00  0.40158116300E+03  0.41180282313E+03  0.91181876828E+02 0.  0.
        -13    1    3    3    0    0 -0.54309959415E+01 -0.44894620164E+02  0.17464642266E+03  0.18040619608E+03  0.00000000000E+00 0.  1.
         13    1    3    3    0    0  0.54309959415E+01  0.44894620164E+02  0.22693474034E+03  0.23139662705E+03  0.00000000000E+00 0. -1.
<mgrwt>
<rscale>  0 0.91181877E+02</rscale>
<asrwt>0</asrwt>
<pdfrwt beam="2">  1        1 0.78628187E-03 0.91181877E+02</pdfrwt>
<pdfrwt beam="1">  1       -1 0.62567974E-01 0.91181877E+02</pdfrwt>
<totfact> 0.52834140E+04</totfact>
</mgrwt>
</event>
<event>
 5    1  0.6308903E+000  0.8855520E+02  0.7546771E-02  0.1306389E+00
         -1   -1    0    0    0  501 -0.00000000000E+00  0.00000000000E+00  0.11122848300E+03  0.11122848300E+03  0.00000000000E+00 0.  1.
          1   -1    0    0  501    0  0.00000000000E+00 -0.00000000000E+00 -0.17625935484E+02  0.17625935484E+02  0.00000000000E+00 0. -1.
         23    2    1    2    0    0  0.00000000000E+00  0.00000000000E+00  0.93602547511E+02  0.12885441848E+03  0.88555204597E+02 0.  0.
        -13    1    3    3    0    0 -0.24872314361E+02 -0.20213078618E+02  0.91253870547E+02  0.96718506288E+02  0.00000000000E+00 0.  1.
         13    1    3    3    0    0  0.24872314361E+02  0.20213078618E+02  0.23486769642E+01  0.32135912191E+02  0.00000000000E+00 0. -1.
<mgrwt>
<rscale>  0 0.88555205E+02</rscale>
<asrwt>0</asrwt>
<pdfrwt beam="2">  1        1 0.27116825E-02 0.88555205E+02</pdfrwt>
<pdfrwt beam="1">  1       -1 0.17112074E-01 0.88555205E+02</pdfrwt>
<totfact> 0.85960769E+04</totfact>
</mgrwt>
</event>
<event>
 5    1  0.6308903E+000  0.9454746E+02  0.7546771E-02  0.1292199E+00
          2   -1    0    0  501    0  0.00000000000E+00  0.00000000000E+00  0.43441567486E+02  0.43441567486E+02  0.00000000000E+00 0. -1.
         -2   -1    0    0    0  501 -0.00000000000E+00 -0.00000000000E+00 -0.51443938678E+02  0.51443938678E+02  0.00000000000E+00 0.  1.
         23    2    1    2    0    0  0.00000000000E+00  0.00000000000E+00 -0.80023711925E+01  0.94885506164E+02  0.94547455467E+02 0.  0.
        -13    1    3    3    0    0  0.41636935852E+02 -0.11094884404E+02  0.15512472711E+02  0.45797027160E+02  0.00000000000E+00 0. -1.
         13    1    3    3    0    0 -0.41636935852E+02  0.11094884404E+02 -0.23514843904E+02  0.49088479004E+02  0.00000000000E+00 0.  1.
<mgrwt>
<rscale>  0 0.94547455E+02</rscale>
<asrwt>0</asrwt>
<pdfrwt beam="1">  1        2 0.66833181E-02 0.94547455E+02</pdfrwt>
<pdfrwt beam="2">  1       -2 0.79144520E-02 0.94547455E+02</pdfrwt>
<totfact> 0.87733739E+04</totfact>
</mgrwt>
</event>
<event>
 5    1  0.6308903E+000  0.7886756E+02  0.7546771E-02  0.1332296E+00
         -1   -1    0    0    0  501 -0.00000000000E+00  0.00000000000E+00  0.56454185555E+02  0.56454185555E+02  0.00000000000E+00 0.  1.
          1   -1    0    0  501    0  0.00000000000E+00 -0.00000000000E+00 -0.27544864191E+02  0.27544864191E+02  0.00000000000E+00 0. -1.
         23    2    1    2    0    0  0.00000000000E+00  0.00000000000E+00  0.28909321364E+02  0.83999049745E+02  0.78867556678E+02 0.  0.
        -13    1    3    3    0    0 -0.15604001657E+02 -0.10169520847E+02  0.51474183565E+02  0.54740255715E+02  0.00000000000E+00 0.  1.
         13    1    3    3    0    0  0.15604001657E+02  0.10169520847E+02 -0.22564862201E+02  0.29258794031E+02  0.00000000000E+00 0. -1.
<mgrwt>
<rscale>  0 0.78867557E+02</rscale>
<asrwt>0</asrwt>
<pdfrwt beam="2">  1        1 0.42376714E-02 0.78867557E+02</pdfrwt>
<pdfrwt beam="1">  1       -1 0.86852592E-02 0.78867557E+02</pdfrwt>
<totfact> 0.12914049E+05</totfact>
</mgrwt>
</event>
<event>
 5    1  0.6308903E+000  0.9195238E+02  0.7546771E-02  0.1298191E+00
         -2   -1    0    0    0  501 -0.00000000000E+00  0.00000000000E+00  0.10036722062E+03  0.10036722062E+03  0.00000000000E+00 0.  1.
          2   -1    0    0  501    0  0.00000000000E+00 -0.00000000000E+00 -0.21060761084E+02  0.21060761084E+02  0.00000000000E+00 0. -1.
         23    2    1    2    0    0  0.00000000000E+00  0.00000000000E+00  0.79306459532E+02  0.12142798170E+03  0.91952380154E+02 0.  0.
        -13    1    3    3    0    0  0.18709576925E+02  0.36775745347E+02  0.12871507443E+02  0.43222441143E+02  0.00000000000E+00 0. -1.
         13    1    3    3    0    0 -0.18709576925E+02 -0.36775745347E+02  0.66434952089E+02  0.78205540556E+02  0.00000000000E+00 0.  1.
<mgrwt>
<rscale>  0 0.91952380E+02</rscale>
<asrwt>0</asrwt>
<pdfrwt beam="2">  1        2 0.32401171E-02 0.91952380E+02</pdfrwt>
<pdfrwt beam="1">  1       -2 0.15441111E-01 0.91952380E+02</pdfrwt>
<totfact> 0.78054489E+04</totfact>
</mgrwt>
</event>
<event>
 5    1  0.6308903E+000  0.8982559E+02  0.7546771E-02  0.1303275E+00
          1   -1    0    0  501    0  0.00000000000E+00  0.00000000000E+00  0.23987490134E+02  0.23987490134E+02  0.00000000000E+00 0. -1.
         -1   -1    0    0    0  501 -0.00000000000E+00 -0.00000000000E+00 -0.84092129443E+02  0.84092129443E+02  0.00000000000E+00 0.  1.
         23    2    1    2    0    0  0.00000000000E+00  0.00000000000E+00 -0.60104639309E+02  0.10807961958E+03  0.89825589346E+02 0.  0.
        -13    1    3    3    0    0  0.33022136452E+02  0.25032533949E+02 -0.50895065352E+02  0.65630762063E+02  0.00000000000E+00 0.  1.
         13    1    3    3    0    0 -0.33022136452E+02 -0.25032533949E+02 -0.92095739573E+01  0.42448857514E+02  0.00000000000E+00 0. -1.
<mgrwt>
<rscale>  0 0.89825589E+02</rscale>
<asrwt>0</asrwt>
<pdfrwt beam="1">  1        1 0.36903832E-02 0.89825589E+02</pdfrwt>
<pdfrwt beam="2">  1       -1 0.12937250E-01 0.89825589E+02</pdfrwt>
<totfact> 0.87204435E+04</totfact>
</mgrwt>
</event>
<event>
 5    1  0.6308903E+000  0.9307234E+02  0.7546771E-02  0.1295578E+00
          1   -1    0    0  501    0  0.00000000000E+00  0.00000000000E+00  0.76587641344E+02  0.76587641344E+02  0.00000000000E+00 0. -1.
         -1   -1    0    0    0  501 -0.00000000000E+00 -0.00000000000E+00 -0.28276302955E+02  0.28276302955E+02  0.00000000000E+00 0.  1.
         23    2    1    2    0    0  0.00000000000E+00  0.00000000000E+00  0.48311338388E+02  0.10486394430E+03  0.93072344963E+02 0.  0.
        -13    1    3    3    0    0  0.30804608371E+02  0.17241554167E+02 -0.10007847407E+02  0.36692670885E+02  0.00000000000E+00 0.  1.
         13    1    3    3    0    0 -0.30804608371E+02 -0.17241554167E+02  0.58319185795E+02  0.68171273413E+02  0.00000000000E+00 0. -1.
<mgrwt>
<rscale>  0 0.93072345E+02</rscale>
<asrwt>0</asrwt>
<pdfrwt beam="1">  1        1 0.11782714E-01 0.93072345E+02</pdfrwt>
<pdfrwt beam="2">  1       -1 0.43502005E-02 0.93072345E+02</pdfrwt>
<totfact> 0.94540965E+04</totfact>
</mgrwt>
</event>
<event>
 5    1  0.6308903E+000  0.9206285E+02  0.7546771E-02  0.1297932E+00
         -1   -1    0    0    0  501 -0.00000000000E+00  0.00000000000E+00  0.16016615841E+03  0.16016615841E+03  0.00000000000E+00 0.  1.
          1   -1    0    0  501    0  0.00000000000E+00 -0.00000000000E+00 -0.13229337191E+02  0.13229337191E+02  0.00000000000E+00 0. -1.
         23    2    1    2    0    0  0.00000000000E+00  0.00000000000E+00  0.14693682122E+03  0.17339549560E+03  0.92062850620E+02 0.  0.
        -13    1    3    3    0    0  0.24681920514E+02  0.33963012571E+01  0.56757612070E+00  0.24920959153E+02  0.00000000000E+00 0. -1.
         13    1    3    3    0    0 -0.24681920514E+02 -0.33963012571E+01  0.14636924510E+03  0.14847453644E+03  0.00000000000E+00 0.  1.
<mgrwt>
<rscale>  0 0.92062851E+02</rscale>
<asrwt>0</asrwt>
<pdfrwt beam="2">  1        1 0.20352828E-02 0.92062851E+02</pdfrwt>
<pdfrwt beam="1">  1       -1 0.24640946E-01 0.92062851E+02</pdfrwt>
<totfact> 0.71795760E+04</totfact>
</mgrwt>
</event>
<event>
 5    1  0.6308903E+000  0.9314266E+02  0.7546771E-02  0.1295415E+00
          1   -1    0    0  501    0  0.00000000000E+00  0.00000000000E+00  0.23241576142E+02  0.23241576142E+02  0.00000000000E+00 0. -1.
         -1   -1    0    0    0  501 -0.00000000000E+00 -0.00000000000E+00 -0.93319341570E+02  0.93319341570E+02  0.00000000000E+00 0.  1.
         23    2    1    2    0    0  0.00000000000E+00  0.00000000000E+00 -0.70077765428E+02  0.11656091771E+03  0.93142655806E+02 0.  0.
        -13    1    3    3    0    0  0.36491521289E+02  0.24357811062E+02 -0.54584921452E+02  0.70031762334E+02  0.00000000000E+00 0. -1.
         13    1    3    3    0    0 -0.36491521289E+02 -0.24357811062E+02 -0.15492843976E+02  0.46529155378E+02  0.00000000000E+00 0.  1.
<mgrwt>
<rscale>  0 0.93142656E+02</rscale>
<asrwt>0</asrwt>
<pdfrwt beam="1">  1        1 0.35756271E-02 0.93142656E+02</pdfrwt>
<pdfrwt beam="2">  1       -1 0.14356822E-01 0.93142656E+02</pdfrwt>
<totfact> 0.78004058E+04</totfact>
</mgrwt>
</event>
<event>
 5    1  0.6308903E+000  0.8162274E+02  0.7546771E-02  0.1324508E+00
          1   -1    0    0  501    0  0.00000000000E+00  0.00000000000E+00  0.68316036276E+02  0.68316036276E+02  0.00000000000E+00 0. -1.
         -1   -1    0    0    0  501 -0.00000000000E+00 -0.00000000000E+00 -0.24380334911E+02  0.24380334911E+02  0.00000000000E+00 0.  1.
         23    2    1    2    0    0  0.00000000000E+00  0.00000000000E+00  0.43935701366E+02  0.92696371187E+02  0.81622738111E+02 0.  0.
        -13    1    3    3    0    0 -0.34812266025E+02 -0.19929247628E+02  0.30504200675E+02  0.50394196448E+02  0.00000000000E+00 0. -1.
         13    1    3    3    0    0  0.34812266025E+02  0.19929247628E+02  0.13431500691E+02  0.42302174739E+02  0.00000000000E+00 0.  1.
<mgrwt>
<rscale>  0 0.81622738E+02</rscale>
<asrwt>0</asrwt>
<pdfrwt beam="1">  1        1 0.10510159E-01 0.81622738E+02</pdfrwt>
<pdfrwt beam="2">  1       -1 0.37508208E-02 0.81622738E+02</pdfrwt>
<totfact> 0.13307631E+05</totfact>
</mgrwt>
</event>
<event>
 5    1  0.6308903E+000  0.9095060E+02  0.7546771E-02  0.1300566E+00
         -3   -1    0    0    0  501 -0.00000000000E+00  0.00000000000E+00  0.17889324835E+03  0.17889324835E+03  0.00000000000E+00 0.  1.
          3   -1    0    0  501    0  0.00000000000E+00 -0.00000000000E+00 -0.11559982426E+02  0.11559982426E+02  0.00000000000E+00 0. -1.
         23    2    1    2    0    0  0.00000000000E+00  0.00000000000E+00  0.16733326592E+03  0.19045323077E+03  0.90950597732E+02 0.  0.
        -13    1    3    3    0    0 -0.20290593370E+02  0.27022017980E+02  0.19941178488E+02  0.39237077293E+02  0.00000000000E+00 0. -1.
         13    1    3    3    0    0  0.20290593370E+02 -0.27022017980E+02  0.14739208743E+03  0.15121615348E+03  0.00000000000E+00 0.  1.
<mgrwt>
<rscale>  0 0.90950598E+02</rscale>
<asrwt>0</asrwt>
<pdfrwt beam="2">  1        3 0.17784590E-02 0.90950598E+02</pdfrwt>
<pdfrwt beam="1">  1       -3 0.27522036E-01 0.90950598E+02</pdfrwt>
<totfact> 0.29194281E+04</totfact>
</mgrwt>
</event>
<event>
 5    1  0.6308903E+000  0.8887194E+02  0.7546771E-02  0.1305607E+00
         -2   -1    0    0    0  501 -0.00000000000E+00  0.00000000000E+00  0.62152349230E+02  0.62152349230E+02  0.00000000000E+00 0.  1.
          2   -1    0    0  501    0  0.00000000000E+00 -0.00000000000E+00 -0.31769604899E+02  0.31769604899E+02  0.00000000000E+00 0. -1.
         23    2    1    2    0    0  0.00000000000E+00  0.00000000000E+00  0.30382744331E+02  0.93921954130E+02  0.88871943348E+02 0.  0.
        -13    1    3    3    0    0  0.32183035476E+02  0.24463726810E+02 -0.43050550760E+01  0.40654092059E+02  0.00000000000E+00 0. -1.
         13    1    3    3    0    0 -0.32183035476E+02 -0.24463726810E+02  0.34687799407E+02  0.53267862071E+02  0.00000000000E+00 0.  1.
<mgrwt>
<rscale>  0 0.88871943E+02</rscale>
<asrwt>0</asrwt>
<pdfrwt beam="2">  1        2 0.48876315E-02 0.88871943E+02</pdfrwt>
<pdfrwt beam="1">  1       -2 0.95618999E-02 0.88871943E+02</pdfrwt>
<totfact> 0.96848491E+04</totfact>
</mgrwt>
</event>
<event>
 5    1  0.6308903E+000  0.8782505E+02  0.7546771E-02  0.1308206E+00
          3   -1    0    0  501    0  0.00000000000E+00  0.00000000000E+00  0.24657316176E+02  0.24657316176E+02  0.00000000000E+00 0. -1.
         -3   -1    0    0    0  501 -0.00000000000E+00 -0.00000000000E+00 -0.78204366360E+02  0.78204366360E+02  0.00000000000E+00 0.  1.
         23    2    1    2    0    0  0.00000000000E+00  0.00000000000E+00 -0.53547050184E+02  0.10286168254E+03  0.87825048538E+02 0.  0.
        -13    1    3    3    0    0  0.38764700607E+02  0.75850497618E+01 -0.43035151458E+01  0.39733553021E+02  0.00000000000E+00 0. -1.
         13    1    3    3    0    0 -0.38764700607E+02 -0.75850497618E+01 -0.49243535038E+02  0.63128129515E+02  0.00000000000E+00 0.  1.
<mgrwt>
<rscale>  0 0.87825049E+02</rscale>
<asrwt>0</asrwt>
<pdfrwt beam="1">  1        3 0.37934334E-02 0.87825049E+02</pdfrwt>
<pdfrwt beam="2">  1       -3 0.12031441E-01 0.87825049E+02</pdfrwt>
<totfact> 0.38144246E+04</totfact>
</mgrwt>
</event>
<event>
 5    1  0.6308903E+000  0.9135723E+02  0.7546771E-02  0.1299598E+00
          1   -1    0    0  501    0  0.00000000000E+00  0.00000000000E+00  0.85351766035E+01  0.85351766035E+01  0.00000000000E+00 0. -1.
         -1   -1    0    0    0  501 -0.00000000000E+00 -0.00000000000E+00 -0.24446310534E+03  0.24446310534E+03  0.00000000000E+00 0.  1.
         23    2    1    2    0    0  0.00000000000E+00  0.00000000000E+00 -0.23592792873E+03  0.25299828194E+03  0.91357228003E+02 0.  0.
        -13    1    3    3    0    0  0.12987559845E+02  0.43147901325E+02 -0.13870949288E+03  0.14584492283E+03  0.00000000000E+00 0. -1.
         13    1    3    3    0    0 -0.12987559845E+02 -0.43147901325E+02 -0.97218435856E+02  0.10715335912E+03  0.00000000000E+00 0.  1.
<mgrwt>
<rscale>  0 0.91357228E+02</rscale>
<asrwt>0</asrwt>
<pdfrwt beam="1">  1        1 0.13131042E-02 0.91357228E+02</pdfrwt>
<pdfrwt beam="2">  1       -1 0.37609704E-01 0.91357228E+02</pdfrwt>
<totfact> 0.64917910E+04</totfact>
</mgrwt>
</event>
<event>
 5    1  0.6308903E+000  0.9127064E+02  0.7546771E-02  0.1299804E+00
         -3   -1    0    0    0  501 -0.00000000000E+00  0.00000000000E+00  0.38799529942E+02  0.38799529942E+02  0.00000000000E+00 0.  1.
          3   -1    0    0  501    0  0.00000000000E+00 -0.00000000000E+00 -0.53675454779E+02  0.53675454779E+02  0.00000000000E+00 0. -1.
         23    2    1    2    0    0  0.00000000000E+00  0.00000000000E+00 -0.14875924837E+02  0.92474984721E+02  0.91270639636E+02 0.  0.
        -13    1    3    3    0    0  0.28030863867E+02  0.28717952644E+02 -0.29453283414E+02  0.49778971836E+02  0.00000000000E+00 0. -1.
         13    1    3    3    0    0 -0.28030863867E+02 -0.28717952644E+02  0.14577358577E+02  0.42696012885E+02  0.00000000000E+00 0.  1.
<mgrwt>
<rscale>  0 0.91270640E+02</rscale>
<asrwt>0</asrwt>
<pdfrwt beam="2">  1        3 0.82577622E-02 0.91270640E+02</pdfrwt>
<pdfrwt beam="1">  1       -3 0.59691585E-02 0.91270640E+02</pdfrwt>
<totfact> 0.35140518E+04</totfact>
</mgrwt>
</event>
<event>
 5    1  0.6308903E+000  0.9030707E+02  0.7546771E-02  0.1302110E+00
          2   -1    0    0  501    0  0.00000000000E+00  0.00000000000E+00  0.61197065016E+02  0.61197065016E+02  0.00000000000E+00 0.  1.
         -2   -1    0    0    0  501 -0.00000000000E+00 -0.00000000000E+00 -0.33316002792E+02  0.33316002792E+02  0.00000000000E+00 0. -1.
         23    2    1    2    0    0  0.00000000000E+00  0.00000000000E+00  0.27881062224E+02  0.94513067808E+02  0.90307067031E+02 0.  0.
        -13    1    3    3    0    0 -0.20467422108E+02 -0.66467264052E+01  0.55485018193E+02  0.59512028898E+02  0.00000000000E+00 0.  1.
         13    1    3    3    0    0  0.20467422108E+02  0.66467264052E+01 -0.27603955969E+02  0.35001038910E+02  0.00000000000E+00 0. -1.
<mgrwt>
<rscale>  0 0.90307067E+02</rscale>
<asrwt>0</asrwt>
<pdfrwt beam="1">  1        2 0.94149331E-02 0.90307067E+02</pdfrwt>
<pdfrwt beam="2">  1       -2 0.51255389E-02 0.90307067E+02</pdfrwt>
<totfact> 0.10954866E+05</totfact>
</mgrwt>
</event>
<event>
 5    1  0.6308903E+000  0.9296243E+02  0.7546771E-02  0.1295832E+00
         -1   -1    0    0    0  501 -0.00000000000E+00  0.00000000000E+00  0.11197658005E+02  0.11197658005E+02  0.00000000000E+00 0.  1.
          1   -1    0    0  501    0  0.00000000000E+00 -0.00000000000E+00 -0.19294244763E+03  0.19294244763E+03  0.00000000000E+00 0. -1.
         23    2    1    2    0    0  0.00000000000E+00  0.00000000000E+00 -0.18174478963E+03  0.20414010564E+03  0.92962434203E+02 0.  0.
        -13    1    3    3    0    0  0.12375946183E+02  0.26149336091E+02 -0.17076218980E+03  0.17319548864E+03  0.00000000000E+00 0. -1.
         13    1    3    3    0    0 -0.12375946183E+02 -0.26149336091E+02 -0.10982599831E+02  0.30944616995E+02  0.00000000000E+00 0.  1.
<mgrwt>
<rscale>  0 0.92962434E+02</rscale>
<asrwt>0</asrwt>
<pdfrwt beam="2">  1        1 0.29683451E-01 0.92962434E+02</pdfrwt>
<pdfrwt beam="1">  1       -1 0.17227168E-02 0.92962434E+02</pdfrwt>
<totfact> 0.11161130E+05</totfact>
</mgrwt>
</event>
<event>
 5    1  0.6308903E+000  0.9168132E+02  0.7546771E-02  0.1298830E+00
         -1   -1    0    0    0  501 -0.00000000000E+00  0.00000000000E+00  0.36869679884E+03  0.36869679884E+03  0.00000000000E+00 0.  1.
          1   -1    0    0  501    0  0.00000000000E+00 -0.00000000000E+00 -0.56994420000E+01  0.56994420000E+01  0.00000000000E+00 0. -1.
         23    2    1    2    0    0  0.00000000000E+00  0.00000000000E+00  0.36299735684E+03  0.37439624084E+03  0.91681318066E+02 0.  0.
        -13    1    3    3    0    0  0.18411057059E+02  0.41977668232E+02  0.17935964460E+03  0.18512421172E+03  0.00000000000E+00 0.  1.
         13    1    3    3    0    0 -0.18411057059E+02 -0.41977668232E+02  0.18363771224E+03  0.18927202912E+03  0.00000000000E+00 0. -1.
<mgrwt>
<rscale>  0 0.91681318E+02</rscale>
<asrwt>0</asrwt>
<pdfrwt beam="2">  1        1 0.87683752E-03 0.91681318E+02</pdfrwt>
<pdfrwt beam="1">  1       -1 0.56722566E-01 0.91681318E+02</pdfrwt>
<totfact> 0.54652733E+04</totfact>
</mgrwt>
</event>
<event>
 5    1  0.6308903E+000  0.9163656E+02  0.7546771E-02  0.1298936E+00
          3   -1    0    0  501    0  0.00000000000E+00  0.00000000000E+00  0.37916621759E+02  0.37916621759E+02  0.00000000000E+00 0. -1.
         -3   -1    0    0    0  501 -0.00000000000E+00 -0.00000000000E+00 -0.55366613283E+02  0.55366613283E+02  0.00000000000E+00 0.  1.
         23    2    1    2    0    0  0.00000000000E+00  0.00000000000E+00 -0.17449991524E+02  0.93283235042E+02  0.91636563312E+02 0.  0.
        -13    1    3    3    0    0  0.14751825349E+02  0.28621169191E+02 -0.41907170464E+02  0.52848827928E+02  0.00000000000E+00 0.  1.
         13    1    3    3    0    0 -0.14751825349E+02 -0.28621169191E+02  0.24457178940E+02  0.40434407114E+02  0.00000000000E+00 0. -1.
<mgrwt>
<rscale>  0 0.91636563E+02</rscale>
<asrwt>0</asrwt>
<pdfrwt beam="1">  1        3 0.58333264E-02 0.91636563E+02</pdfrwt>
<pdfrwt beam="2">  1       -3 0.85179405E-02 0.91636563E+02</pdfrwt>
<totfact> 0.34698517E+04</totfact>
</mgrwt>
</event>
<event>
 5    1  0.6308903E+000  0.9046139E+02  0.7546771E-02  0.1301738E+00
         -1   -1    0    0    0  501 -0.00000000000E+00  0.00000000000E+00  0.43159562031E+02  0.43159562031E+02  0.00000000000E+00 0.  1.
          1   -1    0    0  501    0  0.00000000000E+00 -0.00000000000E+00 -0.47401215946E+02  0.47401215946E+02  0.00000000000E+00 0. -1.
         23    2    1    2    0    0  0.00000000000E+00  0.00000000000E+00 -0.42416539157E+01  0.90560777977E+02  0.90461388890E+02 0.  0.
        -13    1    3    3    0    0 -0.44506600162E+02  0.60189116808E+01 -0.74887106849E+01  0.45531808041E+02  0.00000000000E+00 0.  1.
         13    1    3    3    0    0  0.44506600162E+02 -0.60189116808E+01  0.32470567692E+01  0.45028969936E+02  0.00000000000E+00 0. -1.
<mgrwt>
<rscale>  0 0.90461389E+02</rscale>
<asrwt>0</asrwt>
<pdfrwt beam="2">  1        1 0.72924948E-02 0.90461389E+02</pdfrwt>
<pdfrwt beam="1">  1       -1 0.66399326E-02 0.90461389E+02</pdfrwt>
<totfact> 0.95088981E+04</totfact>
</mgrwt>
</event>
<event>
 5    1  0.6308903E+000  0.9298344E+02  0.7546771E-02  0.1295784E+00
          1   -1    0    0  501    0  0.00000000000E+00  0.00000000000E+00  0.95008415368E+02  0.95008415368E+02  0.00000000000E+00 0. -1.
         -1   -1    0    0    0  501 -0.00000000000E+00 -0.00000000000E+00 -0.22750407168E+02  0.22750407168E+02  0.00000000000E+00 0.  1.
         23    2    1    2    0    0  0.00000000000E+00  0.00000000000E+00  0.72258008200E+02  0.11775882254E+03  0.92983442268E+02 0.  0.
        -13    1    3    3    0    0  0.21169075183E+02  0.15441126503E+02  0.84766629311E+02  0.88723951538E+02  0.00000000000E+00 0. -1.
         13    1    3    3    0    0 -0.21169075183E+02 -0.15441126503E+02 -0.12508621111E+02  0.29034870998E+02  0.00000000000E+00 0.  1.
<mgrwt>
<rscale>  0 0.92983442E+02</rscale>
<asrwt>0</asrwt>
<pdfrwt beam="1">  1        1 0.14616679E-01 0.92983442E+02</pdfrwt>
<pdfrwt beam="2">  1       -1 0.35000627E-02 0.92983442E+02</pdfrwt>
<totfact> 0.98158112E+04</totfact>
</mgrwt>
</event>
<event>
 5    1  0.6308903E+000  0.8150478E+02  0.7546771E-02  0.1324835E+00
          2   -1    0    0  501    0  0.00000000000E+00  0.00000000000E+00  0.29052018729E+02  0.29052018729E+02  0.00000000000E+00 0. -1.
         -2   -1    0    0    0  501 -0.00000000000E+00 -0.00000000000E+00 -0.57164956685E+02  0.57164956685E+02  0.00000000000E+00 0.  1.
         23    2    1    2    0    0  0.00000000000E+00  0.00000000000E+00 -0.28112937956E+02  0.86216975414E+02  0.81504782492E+02 0.  0.
        -13    1    3    3    0    0  0.28080470639E+02 -0.20693301387E+02  0.82338737627E+01  0.35840232013E+02  0.00000000000E+00 0.  1.
         13    1    3    3    0    0 -0.28080470639E+02  0.20693301387E+02 -0.36346811718E+02  0.50376743401E+02  0.00000000000E+00 0. -1.
<mgrwt>
<rscale>  0 0.81504782E+02</rscale>
<asrwt>0</asrwt>
<pdfrwt beam="1">  1        2 0.44695414E-02 0.81504782E+02</pdfrwt>
<pdfrwt beam="2">  1       -2 0.87946086E-02 0.81504782E+02</pdfrwt>
<totfact> 0.12187900E+05</totfact>
</mgrwt>
</event>
<event>
 5    1  0.6308903E+000  0.9389453E+02  0.7546771E-02  0.1293685E+00
         -1   -1    0    0    0  501 -0.00000000000E+00  0.00000000000E+00  0.13890500025E+02  0.13890500025E+02  0.00000000000E+00 0. -1.
          1   -1    0    0  501    0  0.00000000000E+00 -0.00000000000E+00 -0.15867287450E+03  0.15867287450E+03  0.00000000000E+00 0.  1.
         23    2    1    2    0    0  0.00000000000E+00  0.00000000000E+00 -0.14478237448E+03  0.17256337453E+03  0.93894527365E+02 0.  0.
        -13    1    3    3    0    0 -0.40486259479E+01 -0.41623963911E+02 -0.11159801261E+03  0.11917660073E+03  0.00000000000E+00 0.  1.
         13    1    3    3    0    0  0.40486259479E+01  0.41623963911E+02 -0.33184361871E+02  0.53386773798E+02  0.00000000000E+00 0. -1.
<mgrwt>
<rscale>  0 0.93894527E+02</rscale>
<asrwt>0</asrwt>
<pdfrwt beam="2">  1        1 0.24411214E-01 0.93894527E+02</pdfrwt>
<pdfrwt beam="1">  1       -1 0.21369998E-02 0.93894527E+02</pdfrwt>
<totfact> 0.10466253E+05</totfact>
</mgrwt>
</event>
<event>
 5    1  0.6308903E+000  0.9454808E+02  0.7546771E-02  0.1292197E+00
          1   -1    0    0  501    0  0.00000000000E+00  0.00000000000E+00  0.94336915307E+02  0.94336915307E+02  0.00000000000E+00 0. -1.
         -1   -1    0    0    0  501 -0.00000000000E+00 -0.00000000000E+00 -0.23689931344E+02  0.23689931344E+02  0.00000000000E+00 0.  1.
         23    2    1    2    0    0  0.00000000000E+00  0.00000000000E+00  0.70646983963E+02  0.11802684665E+03  0.94548083997E+02 0.  0.
        -13    1    3    3    0    0  0.46315234896E+02  0.87483639266E+01  0.39858919138E+02  0.61728180677E+02  0.00000000000E+00 0.  1.
         13    1    3    3    0    0 -0.46315234896E+02 -0.87483639266E+01  0.30788064825E+02  0.56298665975E+02  0.00000000000E+00 0. -1.
<mgrwt>
<rscale>  0 0.94548084E+02</rscale>
<asrwt>0</asrwt>
<pdfrwt beam="1">  1        1 0.14513371E-01 0.94548084E+02</pdfrwt>
<pdfrwt beam="2">  1       -1 0.36446049E-02 0.94548084E+02</pdfrwt>
<totfact> 0.93656351E+04</totfact>
</mgrwt>
</event>
<event>
 5    1  0.6308903E+000  0.8971415E+02  0.7546771E-02  0.1303545E+00
         -1   -1    0    0    0  501 -0.00000000000E+00  0.00000000000E+00  0.15448834254E+03  0.15448834254E+03  0.00000000000E+00 0.  1.
          1   -1    0    0  501    0  0.00000000000E+00 -0.00000000000E+00 -0.13024654059E+02  0.13024654059E+02  0.00000000000E+00 0. -1.
         23    2    1    2    0    0  0.00000000000E+00  0.00000000000E+00  0.14146368848E+03  0.16751299659E+03  0.89714150893E+02 0.  0.
        -13    1    3    3    0    0  0.91168582203E+01 -0.40432432542E+02  0.38702202995E+02  0.56707664576E+02  0.00000000000E+00 0.  1.
         13    1    3    3    0    0 -0.91168582203E+01  0.40432432542E+02  0.10276148548E+03  0.11080533202E+03  0.00000000000E+00 0. -1.
<mgrwt>
<rscale>  0 0.89714151E+02</rscale>
<asrwt>0</asrwt>
<pdfrwt beam="2">  1        1 0.20037930E-02 0.89714151E+02</pdfrwt>
<pdfrwt beam="1">  1       -1 0.23767436E-01 0.89714151E+02</pdfrwt>
<totfact> 0.77450671E+04</totfact>
</mgrwt>
</event>
<event>
 5    1  0.6308903E+000  0.9211475E+02  0.7546771E-02  0.1297810E+00
         -1   -1    0    0    0  501 -0.00000000000E+00  0.00000000000E+00  0.22350994005E+03  0.22350994005E+03  0.00000000000E+00 0.  1.
          1   -1    0    0  501    0  0.00000000000E+00 -0.00000000000E+00 -0.94907721831E+01  0.94907721831E+01  0.00000000000E+00 0. -1.
         23    2    1    2    0    0  0.00000000000E+00  0.00000000000E+00  0.21401916787E+03  0.23300071223E+03  0.92114752818E+02 0.  0.
        -13    1    3    3    0    0  0.31845091755E+02  0.47499990436E+01  0.19031337611E+03  0.19301775433E+03  0.00000000000E+00 0.  1.
         13    1    3    3    0    0 -0.31845091755E+02 -0.47499990436E+01  0.23705791752E+02  0.39982957899E+02  0.00000000000E+00 0. -1.
<mgrwt>
<rscale>  0 0.92114753E+02</rscale>
<asrwt>0</asrwt>
<pdfrwt beam="2">  1        1 0.14601190E-02 0.92114753E+02</pdfrwt>
<pdfrwt beam="1">  1       -1 0.34386141E-01 0.92114753E+02</pdfrwt>
<totfact> 0.65390861E+04</totfact>
</mgrwt>
</event>
<event>
 5    1  0.6308903E+000  0.8821504E+02  0.7546771E-02  0.1307233E+00
         -1   -1    0    0    0  501 -0.00000000000E+00  0.00000000000E+00  0.12326881362E+02  0.12326881362E+02  0.00000000000E+00 0.  1.
          1   -1    0    0  501    0  0.00000000000E+00 -0.00000000000E+00 -0.15782365569E+03  0.15782365569E+03  0.00000000000E+00 0. -1.
         23    2    1    2    0    0  0.00000000000E+00  0.00000000000E+00 -0.14549677433E+03  0.17015053706E+03  0.88215043612E+02 0.  0.
        -13    1    3    3    0    0  0.19949296331E+02  0.38536841221E+02 -0.57510632433E+02  0.72045370415E+02  0.00000000000E+00 0.  1.
         13    1    3    3    0    0 -0.19949296331E+02 -0.38536841221E+02 -0.87986141898E+02  0.98105166640E+02  0.00000000000E+00 0. -1.
<mgrwt>
<rscale>  0 0.88215044E+02</rscale>
<asrwt>0</asrwt>
<pdfrwt beam="2">  1        1 0.24280564E-01 0.88215044E+02</pdfrwt>
<pdfrwt beam="1">  1       -1 0.18964431E-02 0.88215044E+02</pdfrwt>
<totfact> 0.12369603E+05</totfact>
</mgrwt>
</event>
<event>
 5    1  0.6308903E+000  0.8709815E+02  0.7546771E-02  0.1310035E+00
          2   -1    0    0  501    0  0.00000000000E+00  0.00000000000E+00  0.75559537412E+02  0.75559537412E+02  0.00000000000E+00 0.  1.
         -2   -1    0    0    0  501 -0.00000000000E+00 -0.00000000000E+00 -0.25099704420E+02  0.25099704420E+02  0.00000000000E+00 0. -1.
         23    2    1    2    0    0  0.00000000000E+00  0.00000000000E+00  0.50459832992E+02  0.10065924183E+03  0.87098152796E+02 0.  0.
        -13    1    3    3    0    0 -0.37255631742E+02  0.22454461809E+02  0.27636741992E+02  0.51536147116E+02  0.00000000000E+00 0. -1.
         13    1    3    3    0    0  0.37255631742E+02 -0.22454461809E+02  0.22823091000E+02  0.49123094716E+02  0.00000000000E+00 0.  1.
<mgrwt>
<rscale>  0 0.87098153E+02</rscale>
<asrwt>0</asrwt>
<pdfrwt beam="1">  1        2 0.11624544E-01 0.87098153E+02</pdfrwt>
<pdfrwt beam="2">  1       -2 0.38614930E-02 0.87098153E+02</pdfrwt>
<totfact> 0.12830627E+05</totfact>
</mgrwt>
</event>
<event>
 5    1  0.6308903E+000  0.9265771E+02  0.7546771E-02  0.1296540E+00
          2   -1    0    0  501    0  0.00000000000E+00  0.00000000000E+00  0.49619834434E+02  0.49619834434E+02  0.00000000000E+00 0. -1.
         -2   -1    0    0    0  501 -0.00000000000E+00 -0.00000000000E+00 -0.43256148808E+02  0.43256148808E+02  0.00000000000E+00 0.  1.
         23    2    1    2    0    0  0.00000000000E+00  0.00000000000E+00  0.63636856260E+01  0.92875983242E+02  0.92657712947E+02 0.  0.
        -13    1    3    3    0    0 -0.76759312066E+01  0.45674388528E+02  0.43217353100E+01  0.46516094886E+02  0.00000000000E+00 0.  1.
         13    1    3    3    0    0  0.76759312066E+01 -0.45674388528E+02  0.20419503160E+01  0.46359888357E+02  0.00000000000E+00 0. -1.
<mgrwt>
<rscale>  0 0.92657713E+02</rscale>
<asrwt>0</asrwt>
<pdfrwt beam="1">  1        2 0.76338207E-02 0.92657713E+02</pdfrwt>
<pdfrwt beam="2">  1       -2 0.66547921E-02 0.92657713E+02</pdfrwt>
<totfact> 0.96331554E+04</totfact>
</mgrwt>
</event>
<event>
 5    1  0.6308903E+000  0.9063239E+02  0.7546771E-02  0.1301327E+00
         -2   -1    0    0    0  501 -0.00000000000E+00  0.00000000000E+00  0.16912811582E+02  0.16912811582E+02  0.00000000000E+00 0.  1.
          2   -1    0    0  501    0  0.00000000000E+00 -0.00000000000E+00 -0.12142023329E+03  0.12142023329E+03  0.00000000000E+00 0. -1.
         23    2    1    2    0    0  0.00000000000E+00  0.00000000000E+00 -0.10450742171E+03  0.13833304488E+03  0.90632389971E+02 0.  0.
        -13    1    3    3    0    0  0.44009071742E+02 -0.83244815547E+01 -0.62768877463E+02  0.77110488047E+02  0.00000000000E+00 0. -1.
         13    1    3    3    0    0 -0.44009071742E+02  0.83244815547E+01 -0.41738544249E+02  0.61222556830E+02  0.00000000000E+00 0.  1.
<mgrwt>
<rscale>  0 0.90632390E+02</rscale>
<asrwt>0</asrwt>
<pdfrwt beam="2">  1        2 0.18680037E-01 0.90632390E+02</pdfrwt>
<pdfrwt beam="1">  1       -2 0.26019709E-02 0.90632390E+02</pdfrwt>
<totfact> 0.13250447E+05</totfact>
</mgrwt>
</event>
<event>
 5    1  0.6308903E+000  0.9154625E+02  0.7546771E-02  0.1299150E+00
          2   -1    0    0  501    0  0.00000000000E+00  0.00000000000E+00  0.16164308753E+02  0.16164308753E+02  0.00000000000E+00 0. -1.
         -2   -1    0    0    0  501 -0.00000000000E+00 -0.00000000000E+00 -0.12961761752E+03  0.12961761752E+03  0.00000000000E+00 0.  1.
         23    2    1    2    0    0  0.00000000000E+00  0.00000000000E+00 -0.11345330876E+03  0.14578192627E+03  0.91546254743E+02 0.  0.
        -13    1    3    3    0    0 -0.33012952981E+01 -0.26379178888E+02 -0.11606336464E+03  0.11906915739E+03  0.00000000000E+00 0.  1.
         13    1    3    3    0    0  0.33012952981E+01  0.26379178888E+02  0.26100558800E+01  0.26712768878E+02  0.00000000000E+00 0. -1.
<mgrwt>
<rscale>  0 0.91546255E+02</rscale>
<asrwt>0</asrwt>
<pdfrwt beam="1">  1        2 0.24868168E-02 0.91546255E+02</pdfrwt>
<pdfrwt beam="2">  1       -2 0.19941172E-01 0.91546255E+02</pdfrwt>
<totfact> 0.72775437E+04</totfact>
</mgrwt>
</event>
<event>
 5    1  0.6308903E+000  0.8936520E+02  0.7546771E-02  0.1304396E+00
          1   -1    0    0  501    0  0.00000000000E+00  0.00000000000E+00  0.47217890845E+02  0.47217890845E+02  0.00000000000E+00 0. -1.
         -1   -1    0    0    0  501 -0.00000000000E+00 -0.00000000000E+00 -0.42283436976E+02  0.42283436976E+02  0.00000000000E+00 0.  1.
         23    2    1    2    0    0  0.00000000000E+00  0.00000000000E+00  0.49344538695E+01  0.89501327821E+02  0.89365199304E+02 0.  0.
        -13    1    3    3    0    0 -0.58327305263E+01 -0.40507927617E+02  0.20428361500E+02  0.45740910559E+02  0.00000000000E+00 0. -1.
         13    1    3    3    0    0  0.58327305263E+01  0.40507927617E+02 -0.15493907631E+02  0.43760417261E+02  0.00000000000E+00 0.  1.
<mgrwt>
<rscale>  0 0.89365199E+02</rscale>
<asrwt>0</asrwt>
<pdfrwt beam="1">  1        1 0.72642909E-02 0.89365199E+02</pdfrwt>
<pdfrwt beam="2">  1       -1 0.65051441E-02 0.89365199E+02</pdfrwt>
<totfact> 0.98326222E+04</totfact>
</mgrwt>
</event>
<event>
 5    1  0.6308903E+000  0.9117539E+02  0.7546771E-02  0.1300030E+00
          2   -1    0    0  501    0  0.00000000000E+00  0.00000000000E+00  0.18012420173E+03  0.18012420173E+03  0.00000000000E+00 0. -1.
         -2   -1    0    0    0  501 -0.00000000000E+00 -0.00000000000E+00 -0.11537805993E+02  0.11537805993E+02  0.00000000000E+00 0.  1.
         23    2    1    2    0    0  0.00000000000E+00  0.00000000000E+00  0.16858639574E+03  0.19166200773E+03  0.91175393483E+02 0.  0.
        -13    1    3    3    0    0 -0.36693877948E+02  0.22221099220E+02  0.11672456546E+03  0.12435771835E+03  0.00000000000E+00 0. -1.
         13    1    3    3    0    0  0.36693877948E+02 -0.22221099220E+02  0.51861830279E+02  0.67304289382E+02  0.00000000000E+00 0.  1.
<mgrwt>
<rscale>  0 0.91175393E+02</rscale>
<asrwt>0</asrwt>
<pdfrwt beam="1">  1        2 0.27711414E-01 0.91175393E+02</pdfrwt>
<pdfrwt beam="2">  1       -2 0.17750472E-02 0.91175393E+02</pdfrwt>
<totfact> 0.14898939E+05</totfact>
</mgrwt>
</event>
<event>
 5    1  0.6308903E+000  0.9029883E+02  0.7546771E-02  0.1302130E+00
          2   -1    0    0  501    0  0.00000000000E+00  0.00000000000E+00  0.60860442043E+02  0.60860442043E+02  0.00000000000E+00 0.  1.
         -2   -1    0    0    0  501 -0.00000000000E+00 -0.00000000000E+00 -0.33494166629E+02  0.33494166629E+02  0.00000000000E+00 0. -1.
         23    2    1    2    0    0  0.00000000000E+00  0.00000000000E+00  0.27366275414E+02  0.94354608672E+02  0.90298832483E+02 0.  0.
        -13    1    3    3    0    0  0.20705011404E+02  0.27666980495E+02 -0.16678980910E+02  0.38371183343E+02  0.00000000000E+00 0. -1.
         13    1    3    3    0    0 -0.20705011404E+02 -0.27666980495E+02  0.44045256324E+02  0.55983425329E+02  0.00000000000E+00 0.  1.
<mgrwt>
<rscale>  0 0.90298832E+02</rscale>
<asrwt>0</asrwt>
<pdfrwt beam="1">  1        2 0.93631449E-02 0.90298832E+02</pdfrwt>
<pdfrwt beam="2">  1       -2 0.51529487E-02 0.90298832E+02</pdfrwt>
<totfact> 0.10941508E+05</totfact>
</mgrwt>
</event>
<event>
 5    1  0.6308903E+000  0.9040599E+02  0.7546771E-02  0.1301871E+00
         -3   -1    0    0    0  501 -0.00000000000E+00  0.00000000000E+00  0.22422098445E+02  0.22422098445E+02  0.00000000000E+00 0.  1.
          3   -1    0    0  501    0  0.00000000000E+00 -0.00000000000E+00 -0.91129335036E+02  0.91129335036E+02  0.00000000000E+00 0. -1.
         23    2    1    2    0    0  0.00000000000E+00  0.00000000000E+00 -0.68707236591E+02  0.11355143348E+03  0.90405993638E+02 0.  0.
        -13    1    3    3    0    0  0.12964669617E+02  0.29372139170E+02  0.56126994214E+01  0.32593060803E+02  0.00000000000E+00 0.  1.
         13    1    3    3    0    0 -0.12964669617E+02 -0.29372139170E+02 -0.74319936012E+02  0.80958372678E+02  0.00000000000E+00 0. -1.
<mgrwt>
<rscale>  0 0.90405994E+02</rscale>
<asrwt>0</asrwt>
<pdfrwt beam="2">  1        3 0.14019898E-01 0.90405994E+02</pdfrwt>
<pdfrwt beam="1">  1       -3 0.34495536E-02 0.90405994E+02</pdfrwt>
<totfact> 0.34478388E+04</totfact>
</mgrwt>
</event>
<event>
 5    1  0.6308903E+000  0.9165212E+02  0.7546771E-02  0.1298899E+00
         -2   -1    0    0    0  501 -0.00000000000E+00  0.00000000000E+00  0.36466119918E+02  0.36466119918E+02  0.00000000000E+00 0.  1.
          2   -1    0    0  501    0  0.00000000000E+00 -0.00000000000E+00 -0.57588462985E+02  0.57588462985E+02  0.00000000000E+00 0. -1.
         23    2    1    2    0    0  0.00000000000E+00  0.00000000000E+00 -0.21122343068E+02  0.94054582903E+02  0.91652120479E+02 0.  0.
        -13    1    3    3    0    0  0.27207217187E+02  0.70283949931E+01  0.26587120877E+02  0.38684699815E+02  0.00000000000E+00 0.  1.
         13    1    3    3    0    0 -0.27207217187E+02 -0.70283949931E+01 -0.47709463945E+02  0.55369883088E+02  0.00000000000E+00 0. -1.
<mgrwt>
<rscale>  0 0.91652120E+02</rscale>
<asrwt>0</asrwt>
<pdfrwt beam="2">  1        2 0.88597635E-02 0.91652120E+02</pdfrwt>
<pdfrwt beam="1">  1       -2 0.56101723E-02 0.91652120E+02</pdfrwt>
<totfact> 0.10337946E+05</totfact>
</mgrwt>
</event>
<event>
 5    1  0.6308903E+000  0.1241832E+03  0.7546771E-02  0.1236351E+00
          3   -1    0    0  501    0  0.00000000000E+00  0.00000000000E+00  0.13765903136E+03  0.13765903136E+03  0.00000000000E+00 0. -1.
         -3   -1    0    0    0  501 -0.00000000000E+00 -0.00000000000E+00 -0.28006627105E+02  0.28006627105E+02  0.00000000000E+00 0.  1.
         23    2    1    2    0    0  0.00000000000E+00  0.00000000000E+00  0.10965240426E+03  0.16566565847E+03  0.12418317372E+03 0.  0.
        -13    1    3    3    0    0  0.35174096208E+02 -0.34380573058E+01 -0.13279623289E+02  0.37754280244E+02  0.00000000000E+00 0.  1.
         13    1    3    3    0    0 -0.35174096208E+02  0.34380573058E+01  0.12293202755E+03  0.12791137822E+03  0.00000000000E+00 0. -1.
<mgrwt>
<rscale>  0 0.12418317E+03</rscale>
<asrwt>0</asrwt>
<pdfrwt beam="1">  1        3 0.21178312E-01 0.12418317E+03</pdfrwt>
<pdfrwt beam="2">  1       -3 0.43087119E-02 0.12418317E+03</pdfrwt>
<totfact> 0.12957451E+04</totfact>
</mgrwt>
</event>
<event>
 5    1  0.6308903E+000  0.9130166E+02  0.7546771E-02  0.1299730E+00
         -2   -1    0    0    0  501 -0.00000000000E+00  0.00000000000E+00  0.95700323247E+02  0.95700323247E+02  0.00000000000E+00 0.  1.
          2   -1    0    0  501    0  0.00000000000E+00 -0.00000000000E+00 -0.21776291442E+02  0.21776291442E+02  0.00000000000E+00 0. -1.
         23    2    1    2    0    0  0.00000000000E+00  0.00000000000E+00  0.73924031804E+02  0.11747661469E+03  0.91301656725E+02 0.  0.
        -13    1    3    3    0    0 -0.22204100578E+02 -0.31070173798E+02  0.47788919760E+01  0.38486563770E+02  0.00000000000E+00 0. -1.
         13    1    3    3    0    0  0.22204100578E+02  0.31070173798E+02  0.69145139828E+02  0.78990050919E+02  0.00000000000E+00 0.  1.
<mgrwt>
<rscale>  0 0.91301657E+02</rscale>
<asrwt>0</asrwt>
<pdfrwt beam="2">  1        2 0.33501987E-02 0.91301657E+02</pdfrwt>
<pdfrwt beam="1">  1       -2 0.14723126E-01 0.91301657E+02</pdfrwt>
<totfact> 0.80576322E+04</totfact>
</mgrwt>
</event>
<event>
 5    1  0.6308903E+000  0.8938283E+02  0.7546771E-02  0.1304353E+00
          3   -1    0    0  501    0  0.00000000000E+00  0.00000000000E+00  0.71246694276E+01  0.71246694276E+01  0.00000000000E+00 0. -1.
         -3   -1    0    0    0  501 -0.00000000000E+00 -0.00000000000E+00 -0.28033900843E+03  0.28033900843E+03  0.00000000000E+00 0.  1.
         23    2    1    2    0    0  0.00000000000E+00  0.00000000000E+00 -0.27321433901E+03  0.28746367786E+03  0.89382834208E+02 0.  0.
        -13    1    3    3    0    0 -0.32540423442E+02  0.30298191310E+02 -0.12205875324E+03  0.12990457573E+03  0.00000000000E+00 0.  1.
         13    1    3    3    0    0  0.32540423442E+02 -0.30298191310E+02 -0.15115558577E+03  0.15755910213E+03  0.00000000000E+00 0. -1.
<mgrwt>
<rscale>  0 0.89382834E+02</rscale>
<asrwt>0</asrwt>
<pdfrwt beam="1">  1        3 0.10961029E-02 0.89382834E+02</pdfrwt>
<pdfrwt beam="2">  1       -3 0.43129083E-01 0.89382834E+02</pdfrwt>
<totfact> 0.25858262E+04</totfact>
</mgrwt>
</event>
<event>
 5    1  0.6308903E+000  0.1016327E+03  0.7546771E-02  0.1276900E+00
          2   -1    0    0  501    0  0.00000000000E+00  0.00000000000E+00  0.26801287826E+02  0.26801287826E+02  0.00000000000E+00 0. -1.
         -2   -1    0    0    0  501 -0.00000000000E+00 -0.00000000000E+00 -0.96349855427E+02  0.96349855427E+02  0.00000000000E+00 0.  1.
         23    2    1    2    0    0  0.00000000000E+00  0.00000000000E+00 -0.69548567601E+02  0.12315114325E+03  0.10163267599E+03 0.  0.
        -13    1    3    3    0    0  0.27947982785E+02 -0.12942355188E+02 -0.83751266577E+02  0.89234908824E+02  0.00000000000E+00 0.  1.
         13    1    3    3    0    0 -0.27947982785E+02  0.12942355188E+02  0.14202698976E+02  0.33916234428E+02  0.00000000000E+00 0. -1.
<mgrwt>
<rscale>  0 0.10163268E+03</rscale>
<asrwt>0</asrwt>
<pdfrwt beam="1">  1        2 0.41232750E-02 0.10163268E+03</pdfrwt>
<pdfrwt beam="2">  1       -2 0.14823055E-01 0.10163268E+03</pdfrwt>
<totfact> 0.61639922E+04</totfact>
</mgrwt>
</event>
<event>
 5    1  0.6308903E+000  0.9038544E+02  0.7546771E-02  0.1301921E+00
          2   -1    0    0  501    0  0.00000000000E+00  0.00000000000E+00  0.44272351135E+03  0.44272351135E+03  0.00000000000E+00 0.  1.
         -2   -1    0    0    0  501 -0.00000000000E+00 -0.00000000000E+00 -0.46132223535E+01  0.46132223535E+01  0.00000000000E+00 0. -1.
         23    2    1    2    0    0  0.00000000000E+00  0.00000000000E+00  0.43811028899E+03  0.44733673370E+03  0.90385441282E+02 0.  0.
        -13    1    3    3    0    0  0.22241816853E+02 -0.39015230535E+02  0.19406511751E+03  0.19919376613E+03  0.00000000000E+00 0.  1.
         13    1    3    3    0    0 -0.22241816853E+02  0.39015230535E+02  0.24404517148E+03  0.24814296757E+03  0.00000000000E+00 0. -1.
<mgrwt>
<rscale>  0 0.90385441E+02</rscale>
<asrwt>0</asrwt>
<pdfrwt beam="1">  1        2 0.68111276E-01 0.90385441E+02</pdfrwt>
<pdfrwt beam="2">  1       -2 0.70972686E-03 0.90385441E+02</pdfrwt>
<totfact> 0.21170967E+05</totfact>
</mgrwt>
</event>
<event>
 5    1  0.6308903E+000  0.9060065E+02  0.7546771E-02  0.1301404E+00
         -4   -1    0    0    0  501 -0.00000000000E+00  0.00000000000E+00  0.23706675836E+02  0.23706675836E+02  0.00000000000E+00 0.  1.
          4   -1    0    0  501    0  0.00000000000E+00 -0.00000000000E+00 -0.86562940872E+02  0.86562940872E+02  0.00000000000E+00 0. -1.
         23    2    1    2    0    0  0.00000000000E+00  0.00000000000E+00 -0.62856265036E+02  0.11026961671E+03  0.90600652949E+02 0.  0.
        -13    1    3    3    0    0 -0.69737930852E+01 -0.40909693351E+02 -0.93224280614E+01  0.42534038899E+02  0.00000000000E+00 0.  1.
         13    1    3    3    0    0  0.69737930852E+01  0.40909693351E+02 -0.53533836974E+02  0.67735577810E+02  0.00000000000E+00 0. -1.
<mgrwt>
<rscale>  0 0.90600653E+02</rscale>
<asrwt>0</asrwt>
<pdfrwt beam="2">  1        4 0.13317376E-01 0.90600653E+02</pdfrwt>
<pdfrwt beam="1">  1       -4 0.36471808E-02 0.90600653E+02</pdfrwt>
<totfact> 0.26282980E+04</totfact>
</mgrwt>
</event>
<event>
 5    1  0.6308903E+000  0.9066839E+02  0.7546771E-02  0.1301241E+00
          3   -1    0    0  501    0  0.00000000000E+00  0.00000000000E+00  0.19624109180E+02  0.19624109180E+02  0.00000000000E+00 0. -1.
         -3   -1    0    0    0  501 -0.00000000000E+00 -0.00000000000E+00 -0.10472776584E+03  0.10472776584E+03  0.00000000000E+00 0.  1.
         23    2    1    2    0    0  0.00000000000E+00  0.00000000000E+00 -0.85103656660E+02  0.12435187502E+03  0.90668387238E+02 0.  0.
        -13    1    3    3    0    0 -0.31511287645E+02  0.27912973816E+01 -0.87087362639E+02  0.92655066356E+02  0.00000000000E+00 0.  1.
         13    1    3    3    0    0  0.31511287645E+02 -0.27912973816E+01  0.19837059787E+01  0.31696808665E+02  0.00000000000E+00 0. -1.
<mgrwt>
<rscale>  0 0.90668387E+02</rscale>
<asrwt>0</asrwt>
<pdfrwt beam="1">  1        3 0.30190938E-02 0.90668387E+02</pdfrwt>
<pdfrwt beam="2">  1       -3 0.16111964E-01 0.90668387E+02</pdfrwt>
<totfact> 0.33456516E+04</totfact>
</mgrwt>
</event>
<event>
 5    1  0.6308903E+000  0.8748484E+02  0.7546771E-02  0.1309059E+00
         -3   -1    0    0    0  501 -0.00000000000E+00  0.00000000000E+00  0.13327937753E+02  0.13327937753E+02  0.00000000000E+00 0.  1.
          3   -1    0    0  501    0  0.00000000000E+00 -0.00000000000E+00 -0.14356302906E+03  0.14356302906E+03  0.00000000000E+00 0. -1.
         23    2    1    2    0    0  0.00000000000E+00  0.00000000000E+00 -0.13023509131E+03  0.15689096681E+03  0.87484835599E+02 0.  0.
        -13    1    3    3    0    0  0.14690305688E+02  0.29016574505E+02 -0.11757518942E+03  0.12199053998E+03  0.00000000000E+00 0. -1.
         13    1    3    3    0    0 -0.14690305688E+02 -0.29016574505E+02 -0.12659901883E+02  0.34900426830E+02  0.00000000000E+00 0.  1.
<mgrwt>
<rscale>  0 0.87484836E+02</rscale>
<asrwt>0</asrwt>
<pdfrwt beam="2">  1        3 0.22086620E-01 0.87484836E+02</pdfrwt>
<pdfrwt beam="1">  1       -3 0.20504519E-02 0.87484836E+02</pdfrwt>
<totfact> 0.34532639E+04</totfact>
</mgrwt>
</event>
<event>
 5    1  0.6308903E+000  0.9163120E+02  0.7546771E-02  0.1298949E+00
          1   -1    0    0  501    0  0.00000000000E+00  0.00000000000E+00  0.25303439555E+02  0.25303439555E+02  0.00000000000E+00 0. -1.
         -1   -1    0    0    0  501 -0.00000000000E+00 -0.00000000000E+00 -0.82955884285E+02  0.82955884285E+02  0.00000000000E+00 0.  1.
         23    2    1    2    0    0  0.00000000000E+00  0.00000000000E+00 -0.57652444730E+02  0.10825932384E+03  0.91631200008E+02 0.  0.
        -13    1    3    3    0    0 -0.79721000541E+01  0.44280608284E+02 -0.18611985979E+02  0.48690170172E+02  0.00000000000E+00 0.  1.
         13    1    3    3    0    0  0.79721000541E+01 -0.44280608284E+02 -0.39040458752E+02  0.59569153669E+02  0.00000000000E+00 0. -1.
<mgrwt>
<rscale>  0 0.91631200E+02</rscale>
<asrwt>0</asrwt>
<pdfrwt beam="1">  1        1 0.38928369E-02 0.91631200E+02</pdfrwt>
<pdfrwt beam="2">  1       -1 0.12762444E-01 0.91631200E+02</pdfrwt>
<totfact> 0.83063377E+04</totfact>
</mgrwt>
</event>
<event>
 5    1  0.6308903E+000  0.9001377E+02  0.7546771E-02  0.1302818E+00
         -1   -1    0    0    0  501 -0.00000000000E+00  0.00000000000E+00  0.17056976544E+02  0.17056976544E+02  0.00000000000E+00 0.  1.
          1   -1    0    0  501    0  0.00000000000E+00 -0.00000000000E+00 -0.11875607907E+03  0.11875607907E+03  0.00000000000E+00 0. -1.
         23    2    1    2    0    0  0.00000000000E+00  0.00000000000E+00 -0.10169910253E+03  0.13581305561E+03  0.90013769062E+02 0.  0.
        -13    1    3    3    0    0  0.32953612957E+02 -0.27352278956E+02 -0.71730638800E+02  0.83542637699E+02  0.00000000000E+00 0. -1.
         13    1    3    3    0    0 -0.32953612957E+02  0.27352278956E+02 -0.29968463726E+02  0.52270417916E+02  0.00000000000E+00 0.  1.
<mgrwt>
<rscale>  0 0.90013769E+02</rscale>
<asrwt>0</asrwt>
<pdfrwt beam="2">  1        1 0.18270166E-01 0.90013769E+02</pdfrwt>
<pdfrwt beam="1">  1       -1 0.26241502E-02 0.90013769E+02</pdfrwt>
<totfact> 0.11134993E+05</totfact>
</mgrwt>
</event>
<event>
 5    1  0.6308903E+000  0.9067528E+02  0.7546771E-02  0.1301225E+00
          1   -1    0    0  501    0  0.00000000000E+00  0.00000000000E+00  0.69518071475E+02  0.69518071475E+02  0.00000000000E+00 0. -1.
         -1   -1    0    0    0  501 -0.00000000000E+00 -0.00000000000E+00 -0.29567872988E+02  0.29567872988E+02  0.00000000000E+00 0.  1.
         23    2    1    2    0    0  0.00000000000E+00  0.00000000000E+00  0.39950198488E+02  0.99085944463E+02  0.90675277948E+02 0.  0.
        -13    1    3    3    0    0  0.18121401639E+02 -0.15702569032E+02  0.62022006516E+02  0.66495752976E+02  0.00000000000E+00 0. -1.
         13    1    3    3    0    0 -0.18121401639E+02  0.15702569032E+02 -0.22071808028E+02  0.32590191487E+02  0.00000000000E+00 0.  1.
<mgrwt>
<rscale>  0 0.90675278E+02</rscale>
<asrwt>0</asrwt>
<pdfrwt beam="1">  1        1 0.10695088E-01 0.90675278E+02</pdfrwt>
<pdfrwt beam="2">  1       -1 0.45489035E-02 0.90675278E+02</pdfrwt>
<totfact> 0.10007186E+05</totfact>
</mgrwt>
</event>
<event>
 5    1  0.6308903E+000  0.9237846E+02  0.7546771E-02  0.1297192E+00
          2   -1    0    0  501    0  0.00000000000E+00  0.00000000000E+00  0.56111203971E+01  0.56111203971E+01  0.00000000000E+00 0. -1.
         -2   -1    0    0    0  501 -0.00000000000E+00 -0.00000000000E+00 -0.38021724616E+03  0.38021724616E+03  0.00000000000E+00 0.  1.
         23    2    1    2    0    0  0.00000000000E+00  0.00000000000E+00 -0.37460612576E+03  0.38582836655E+03  0.92378455177E+02 0.  0.
        -13    1    3    3    0    0 -0.27855137952E+02 -0.35273679466E+02 -0.23176058564E+03  0.23607861027E+03  0.00000000000E+00 0.  1.
         13    1    3    3    0    0  0.27855137952E+02  0.35273679466E+02 -0.14284554012E+03  0.14974975628E+03  0.00000000000E+00 0. -1.
<mgrwt>
<rscale>  0 0.92378455E+02</rscale>
<asrwt>0</asrwt>
<pdfrwt beam="1">  1        2 0.86324913E-03 0.92378455E+02</pdfrwt>
<pdfrwt beam="2">  1       -2 0.58494972E-01 0.92378455E+02</pdfrwt>
<totfact> 0.42688217E+04</totfact>
</mgrwt>
</event>
<event>
 5    1  0.6308903E+000  0.9233313E+02  0.7546771E-02  0.1297298E+00
          1   -1    0    0  501    0  0.00000000000E+00  0.00000000000E+00  0.25979856379E+03  0.25979856379E+03  0.00000000000E+00 0. -1.
         -1   -1    0    0    0  501 -0.00000000000E+00 -0.00000000000E+00 -0.82038623879E+01  0.82038623879E+01  0.00000000000E+00 0.  1.
         23    2    1    2    0    0  0.00000000000E+00  0.00000000000E+00  0.25159470140E+03  0.26800242618E+03  0.92333128744E+02 0.  0.
        -13    1    3    3    0    0  0.40672274165E+02 -0.30217831346E+01  0.63006280419E+02  0.75054356511E+02  0.00000000000E+00 0.  1.
         13    1    3    3    0    0 -0.40672274165E+02  0.30217831346E+01  0.18858842098E+03  0.19294806966E+03  0.00000000000E+00 0. -1.
<mgrwt>
<rscale>  0 0.92333129E+02</rscale>
<asrwt>0</asrwt>
<pdfrwt beam="1">  1        1 0.39969004E-01 0.92333129E+02</pdfrwt>
<pdfrwt beam="2">  1       -1 0.12621329E-02 0.92333129E+02</pdfrwt>
<totfact> 0.12047272E+05</totfact>
</mgrwt>
</event>
<event>
 5    1  0.6308903E+000  0.8991137E+02  0.7546771E-02  0.1303066E+00
          1   -1    0    0  501    0  0.00000000000E+00  0.00000000000E+00  0.83197385587E+02  0.83197385587E+02  0.00000000000E+00 0. -1.
         -1   -1    0    0    0  501 -0.00000000000E+00 -0.00000000000E+00 -0.24291791722E+02  0.24291791722E+02  0.00000000000E+00 0.  1.
         23    2    1    2    0    0  0.00000000000E+00  0.00000000000E+00  0.58905593864E+02  0.10748917731E+03  0.89911368859E+02 0.  0.
        -13    1    3    3    0    0  0.85222807072E+01 -0.24752432817E+02  0.73145087579E+02  0.77688583690E+02  0.00000000000E+00 0. -1.
         13    1    3    3    0    0 -0.85222807072E+01  0.24752432817E+02 -0.14239493714E+02  0.29800593619E+02  0.00000000000E+00 0.  1.
<mgrwt>
<rscale>  0 0.89911369E+02</rscale>
<asrwt>0</asrwt>
<pdfrwt beam="1">  1        1 0.12799598E-01 0.89911369E+02</pdfrwt>
<pdfrwt beam="2">  1       -1 0.37371988E-02 0.89911369E+02</pdfrwt>
<totfact> 0.10532421E+05</totfact>
</mgrwt>
</event>
<event>
 5    1  0.6308903E+000  0.9316581E+02  0.7546771E-02  0.1295361E+00
          2   -1    0    0  501    0  0.00000000000E+00  0.00000000000E+00  0.26377725339E+03  0.26377725339E+03  0.00000000000E+00 0. -1.
         -2   -1    0    0    0  501 -0.00000000000E+00 -0.00000000000E+00 -0.82265133688E+01  0.82265133688E+01  0.00000000000E+00 0.  1.
         23    2    1    2    0    0  0.00000000000E+00  0.00000000000E+00  0.25555074002E+03  0.27200376675E+03  0.93165811355E+02 0.  0.
        -13    1    3    3    0    0  0.10703931435E+02  0.41717070624E+02  0.75951712852E+02  0.87312947578E+02  0.00000000000E+00 0.  1.
         13    1    3    3    0    0 -0.10703931435E+02 -0.41717070624E+02  0.17959902716E+03  0.18469081918E+03  0.00000000000E+00 0. -1.
<mgrwt>
<rscale>  0 0.93165811E+02</rscale>
<asrwt>0</asrwt>
<pdfrwt beam="1">  1        2 0.40581109E-01 0.93165811E+02</pdfrwt>
<pdfrwt beam="2">  1       -2 0.12656176E-02 0.93165811E+02</pdfrwt>
<totfact> 0.16161762E+05</totfact>
</mgrwt>
</event>
<event>
 5    1  0.6308903E+000  0.9132674E+02  0.7546771E-02  0.1299670E+00
          1   -1    0    0  501    0  0.00000000000E+00  0.00000000000E+00  0.89732257588E+02  0.89732257588E+02  0.00000000000E+00 0. -1.
         -1   -1    0    0    0  501 -0.00000000000E+00 -0.00000000000E+00 -0.23237389522E+02  0.23237389522E+02  0.00000000000E+00 0.  1.
         23    2    1    2    0    0  0.00000000000E+00  0.00000000000E+00  0.66494868066E+02  0.11296964711E+03  0.91326741369E+02 0.  0.
        -13    1    3    3    0    0 -0.27239008658E+02 -0.16393061504E+02 -0.72993470881E+01  0.32618653038E+02  0.00000000000E+00 0.  1.
         13    1    3    3    0    0  0.27239008658E+02  0.16393061504E+02  0.73794215154E+02  0.80350994072E+02  0.00000000000E+00 0. -1.
<mgrwt>
<rscale>  0 0.91326741E+02</rscale>
<asrwt>0</asrwt>
<pdfrwt beam="1">  1        1 0.13804963E-01 0.91326741E+02</pdfrwt>
<pdfrwt beam="2">  1       -1 0.35749831E-02 0.91326741E+02</pdfrwt>
<totfact> 0.10215036E+05</totfact>
</mgrwt>
</event>
<event>
 5    1  0.6308903E+000  0.9009975E+02  0.7546771E-02  0.1302610E+00
          4   -1    0    0  501    0  0.00000000000E+00  0.00000000000E+00  0.20174721995E+02  0.20174721995E+02  0.00000000000E+00 0. -1.
         -4   -1    0    0    0  501 -0.00000000000E+00 -0.00000000000E+00 -0.10059574205E+03  0.10059574205E+03  0.00000000000E+00 0.  1.
         23    2    1    2    0    0  0.00000000000E+00  0.00000000000E+00 -0.80421020052E+02  0.12077046404E+03  0.90099747606E+02 0.  0.
        -13    1    3    3    0    0  0.66753423746E+01  0.25438131053E+02  0.88167947524E+01  0.27737962740E+02  0.00000000000E+00 0. -1.
         13    1    3    3    0    0 -0.66753423746E+01 -0.25438131053E+02 -0.89237814805E+02  0.93032501301E+02  0.00000000000E+00 0.  1.
<mgrwt>
<rscale>  0 0.90099748E+02</rscale>
<asrwt>0</asrwt>
<pdfrwt beam="1">  1        4 0.31038034E-02 0.90099748E+02</pdfrwt>
<pdfrwt beam="2">  1       -4 0.15476268E-01 0.90099748E+02</pdfrwt>
<totfact> 0.26050189E+04</totfact>
</mgrwt>
</event>
<event>
 5    1  0.6308903E+000  0.9075473E+02  0.7546771E-02  0.1301034E+00
          2   -1    0    0  501    0  0.00000000000E+00  0.00000000000E+00  0.63117122078E+02  0.63117122078E+02  0.00000000000E+00 0. -1.
         -2   -1    0    0    0  501 -0.00000000000E+00 -0.00000000000E+00 -0.32623562499E+02  0.32623562499E+02  0.00000000000E+00 0.  1.
         23    2    1    2    0    0  0.00000000000E+00  0.00000000000E+00  0.30493559578E+02  0.95740684577E+02  0.90754732700E+02 0.  0.
        -13    1    3    3    0    0 -0.10261495963E+02  0.21627965900E+02 -0.25420228913E+02  0.34917835648E+02  0.00000000000E+00 0.  1.
         13    1    3    3    0    0  0.10261495963E+02 -0.21627965900E+02  0.55913788491E+02  0.60822848929E+02  0.00000000000E+00 0. -1.
<mgrwt>
<rscale>  0 0.90754733E+02</rscale>
<asrwt>0</asrwt>
<pdfrwt beam="1">  1        2 0.97103265E-02 0.90754733E+02</pdfrwt>
<pdfrwt beam="2">  1       -2 0.50190096E-02 0.90754733E+02</pdfrwt>
<totfact> 0.10893920E+05</totfact>
</mgrwt>
</event>
<event>
 5    1  0.6308903E+000  0.9191790E+02  0.7546771E-02  0.1298273E+00
          1   -1    0    0  501    0  0.00000000000E+00  0.00000000000E+00  0.13182899481E+03  0.13182899481E+03  0.00000000000E+00 0. -1.
         -1   -1    0    0    0  501 -0.00000000000E+00 -0.00000000000E+00 -0.16022462595E+02  0.16022462595E+02  0.00000000000E+00 0.  1.
         23    2    1    2    0    0  0.00000000000E+00  0.00000000000E+00  0.11580653221E+03  0.14785145740E+03  0.91917901156E+02 0.  0.
        -13    1    3    3    0    0  0.15427078793E+01  0.26587967552E+02 -0.23447519131E+01  0.26735703239E+02  0.00000000000E+00 0.  1.
         13    1    3    3    0    0 -0.15427078793E+01 -0.26587967552E+02  0.11815128412E+03  0.12111575416E+03  0.00000000000E+00 0. -1.
<mgrwt>
<rscale>  0 0.91917901E+02</rscale>
<asrwt>0</asrwt>
<pdfrwt beam="1">  1        1 0.20281383E-01 0.91917901E+02</pdfrwt>
<pdfrwt beam="2">  1       -1 0.24649943E-02 0.91917901E+02</pdfrwt>
<totfact> 0.10716304E+05</totfact>
</mgrwt>
</event>
<event>
 5    1  0.6308903E+000  0.9013177E+02  0.7546771E-02  0.1302533E+00
         -2   -1    0    0    0  501 -0.00000000000E+00  0.00000000000E+00  0.23174027608E+02  0.23174027608E+02  0.00000000000E+00 0.  1.
          2   -1    0    0  501    0  0.00000000000E+00 -0.00000000000E+00 -0.87638377765E+02  0.87638377765E+02  0.00000000000E+00 0. -1.
         23    2    1    2    0    0  0.00000000000E+00  0.00000000000E+00 -0.64464350157E+02  0.11081240537E+03  0.90131774326E+02 0.  0.
        -13    1    3    3    0    0  0.40148358846E+02  0.72218608499E+01 -0.86829115506E+01  0.41706581557E+02  0.00000000000E+00 0.  1.
         13    1    3    3    0    0 -0.40148358846E+02 -0.72218608499E+01 -0.55781438606E+02  0.69105823815E+02  0.00000000000E+00 0. -1.
<mgrwt>
<rscale>  0 0.90131774E+02</rscale>
<asrwt>0</asrwt>
<pdfrwt beam="2">  1        2 0.13482827E-01 0.90131774E+02</pdfrwt>
<pdfrwt beam="1">  1       -2 0.35652350E-02 0.90131774E+02</pdfrwt>
<totfact> 0.12174855E+05</totfact>
</mgrwt>
</event>
<event>
 5    1  0.6308903E+000  0.9022956E+02  0.7546771E-02  0.1302297E+00
          1   -1    0    0  501    0  0.00000000000E+00  0.00000000000E+00  0.52143206922E+02  0.52143206922E+02  0.00000000000E+00 0.  1.
         -1   -1    0    0    0  501 -0.00000000000E+00 -0.00000000000E+00 -0.39033720837E+02  0.39033720837E+02  0.00000000000E+00 0. -1.
         23    2    1    2    0    0  0.00000000000E+00  0.00000000000E+00  0.13109486085E+02  0.91176927759E+02  0.90229560179E+02 0.  0.
        -13    1    3    3    0    0 -0.22503747656E+01 -0.13061399343E+02 -0.37022034601E+02  0.39322962571E+02  0.00000000000E+00 0. -1.
         13    1    3    3    0    0  0.22503747656E+01  0.13061399343E+02  0.50131520686E+02  0.51853965188E+02  0.00000000000E+00 0.  1.
<mgrwt>
<rscale>  0 0.90229560E+02</rscale>
<asrwt>0</asrwt>
<pdfrwt beam="1">  1        1 0.80220318E-02 0.90229560E+02</pdfrwt>
<pdfrwt beam="2">  1       -1 0.60051878E-02 0.90229560E+02</pdfrwt>
<totfact> 0.97141789E+04</totfact>
</mgrwt>
</event>
<event>
 5    1  0.6308903E+000  0.9408248E+02  0.7546771E-02  0.1293256E+00
          2   -1    0    0  501    0  0.00000000000E+00  0.00000000000E+00  0.32417269075E+02  0.32417269075E+02  0.00000000000E+00 0. -1.
         -2   -1    0    0    0  501 -0.00000000000E+00 -0.00000000000E+00 -0.68262326675E+02  0.68262326675E+02  0.00000000000E+00 0.  1.
         23    2    1    2    0    0  0.00000000000E+00  0.00000000000E+00 -0.35845057600E+02  0.10067959575E+03  0.94082478954E+02 0.  0.
        -13    1    3    3    0    0  0.46351663144E+02  0.16523875153E+00 -0.93365711964E+01  0.47282930766E+02  0.00000000000E+00 0.  1.
         13    1    3    3    0    0 -0.46351663144E+02 -0.16523875153E+00 -0.26508486404E+02  0.53396664985E+02  0.00000000000E+00 0. -1.
<mgrwt>
<rscale>  0 0.94082479E+02</rscale>
<asrwt>0</asrwt>
<pdfrwt beam="1">  1        2 0.49872722E-02 0.94082479E+02</pdfrwt>
<pdfrwt beam="2">  1       -2 0.10501896E-01 0.94082479E+02</pdfrwt>
<totfact> 0.82292603E+04</totfact>
</mgrwt>
</event>
<event>
 5    1  0.6308903E+000  0.9079617E+02  0.7546771E-02  0.1300935E+00
          3   -1    0    0  501    0  0.00000000000E+00  0.00000000000E+00  0.47216155207E+01  0.47216155207E+01  0.00000000000E+00 0. -1.
         -3   -1    0    0    0  501 -0.00000000000E+00 -0.00000000000E+00 -0.43650017019E+03  0.43650017019E+03  0.00000000000E+00 0.  1.
         23    2    1    2    0    0  0.00000000000E+00  0.00000000000E+00 -0.43177855467E+03  0.44122178571E+03  0.90796166844E+02 0.  0.
        -13    1    3    3    0    0  0.44093894769E+02  0.27975248441E+01 -0.26659768779E+03  0.27023401865E+03  0.00000000000E+00 0.  1.
         13    1    3    3    0    0 -0.44093894769E+02 -0.27975248441E+01 -0.16518086688E+03  0.17098776706E+03  0.00000000000E+00 0. -1.
<mgrwt>
<rscale>  0 0.90796167E+02</rscale>
<asrwt>0</asrwt>
<pdfrwt beam="1">  1        3 0.72640215E-03 0.90796167E+02</pdfrwt>
<pdfrwt beam="2">  1       -3 0.67153895E-01 0.90796167E+02</pdfrwt>
<totfact> 0.19628362E+04</totfact>
</mgrwt>
</event>
<event>
 5    1  0.6308903E+000  0.1157497E+03  0.7546771E-02  0.1250278E+00
         -3   -1    0    0    0  501 -0.00000000000E+00  0.00000000000E+00  0.28944282765E+03  0.28944282765E+03  0.00000000000E+00 0. -1.
          3   -1    0    0  501    0  0.00000000000E+00 -0.00000000000E+00 -0.11572231222E+02  0.11572231222E+02  0.00000000000E+00 0.  1.
         23    2    1    2    0    0  0.00000000000E+00  0.00000000000E+00  0.27787059642E+03  0.30101505887E+03  0.11574971840E+03 0.  0.
        -13    1    3    3    0    0  0.17352069159E+02 -0.48585749765E+02  0.70731459560E+02  0.87547751290E+02  0.00000000000E+00 0. -1.
         13    1    3    3    0    0 -0.17352069159E+02  0.48585749765E+02  0.20713913686E+03  0.21346730758E+03  0.00000000000E+00 0.  1.
<mgrwt>
<rscale>  0 0.11574972E+03</rscale>
<asrwt>0</asrwt>
<pdfrwt beam="2">  1        3 0.17803435E-02 0.11574972E+03</pdfrwt>
<pdfrwt beam="1">  1       -3 0.44529660E-01 0.11574972E+03</pdfrwt>
<totfact> 0.12522645E+04</totfact>
</mgrwt>
</event>
<event>
 5    1  0.6308903E+000  0.9271273E+02  0.7546771E-02  0.1296412E+00
         -3   -1    0    0    0  501 -0.00000000000E+00  0.00000000000E+00  0.24033186274E+02  0.24033186274E+02  0.00000000000E+00 0.  1.
          3   -1    0    0  501    0  0.00000000000E+00 -0.00000000000E+00 -0.89414383827E+02  0.89414383827E+02  0.00000000000E+00 0. -1.
         23    2    1    2    0    0  0.00000000000E+00  0.00000000000E+00 -0.65381197553E+02  0.11344757010E+03  0.92712729269E+02 0.  0.
        -13    1    3    3    0    0  0.11522759534E+02 -0.44751006657E+02 -0.28196974729E+02  0.54134055528E+02  0.00000000000E+00 0. -1.
         13    1    3    3    0    0 -0.11522759534E+02  0.44751006657E+02 -0.37184222823E+02  0.59313514573E+02  0.00000000000E+00 0.  1.
<mgrwt>
<rscale>  0 0.92712729E+02</rscale>
<asrwt>0</asrwt>
<pdfrwt beam="2">  1        3 0.13756059E-01 0.92712729E+02</pdfrwt>
<pdfrwt beam="1">  1       -3 0.36974133E-02 0.92712729E+02</pdfrwt>
<totfact> 0.32201230E+04</totfact>
</mgrwt>
</event>
<event>
 5    1  0.6308903E+000  0.9079727E+02  0.7546771E-02  0.1300932E+00
          1   -1    0    0  501    0  0.00000000000E+00  0.00000000000E+00  0.35670083173E+02  0.35670083173E+02  0.00000000000E+00 0. -1.
         -1   -1    0    0    0  501 -0.00000000000E+00 -0.00000000000E+00 -0.57780519090E+02  0.57780519090E+02  0.00000000000E+00 0.  1.
         23    2    1    2    0    0  0.00000000000E+00  0.00000000000E+00 -0.22110435917E+02  0.93450602263E+02  0.90797266957E+02 0.  0.
        -13    1    3    3    0    0  0.56768619796E+00  0.27083443412E+02 -0.48550587406E+02  0.55596714940E+02  0.00000000000E+00 0.  1.
         13    1    3    3    0    0 -0.56768619796E+00 -0.27083443412E+02  0.26440151489E+02  0.37853887323E+02  0.00000000000E+00 0. -1.
<mgrwt>
<rscale>  0 0.90797267E+02</rscale>
<asrwt>0</asrwt>
<pdfrwt beam="1">  1        1 0.54877051E-02 0.90797267E+02</pdfrwt>
<pdfrwt beam="2">  1       -1 0.88893106E-02 0.90797267E+02</pdfrwt>
<totfact> 0.90147585E+04</totfact>
</mgrwt>
</event>
<event>
 5    1  0.6308903E+000  0.9577375E+02  0.7546771E-02  0.1289443E+00
          1   -1    0    0  501    0  0.00000000000E+00  0.00000000000E+00  0.95268938593E+01  0.95268938593E+01  0.00000000000E+00 0. -1.
         -1   -1    0    0    0  501 -0.00000000000E+00 -0.00000000000E+00 -0.24070310804E+03  0.24070310804E+03  0.00000000000E+00 0.  1.
         23    2    1    2    0    0  0.00000000000E+00  0.00000000000E+00 -0.23117621418E+03  0.25023000190E+03  0.95773753438E+02 0.  0.
        -13    1    3    3    0    0 -0.81675764855E+01  0.41733984551E+02 -0.58065636604E+02  0.71972584547E+02  0.00000000000E+00 0.  1.
         13    1    3    3    0    0  0.81675764855E+01 -0.41733984551E+02 -0.17311057758E+03  0.17825741735E+03  0.00000000000E+00 0. -1.
<mgrwt>
<rscale>  0 0.95773753E+02</rscale>
<asrwt>0</asrwt>
<pdfrwt beam="1">  1        1 0.14656760E-02 0.95773753E+02</pdfrwt>
<pdfrwt beam="2">  1       -1 0.37031248E-01 0.95773753E+02</pdfrwt>
<totfact> 0.57669973E+04</totfact>
</mgrwt>
</event>
<event>
 5    1  0.6308903E+000  0.9287804E+02  0.7546771E-02  0.1296028E+00
          1   -1    0    0  501    0  0.00000000000E+00  0.00000000000E+00  0.71321770008E+02  0.71321770008E+02  0.00000000000E+00 0. -1.
         -1   -1    0    0    0  501 -0.00000000000E+00 -0.00000000000E+00 -0.30237370390E+02  0.30237370390E+02  0.00000000000E+00 0.  1.
         23    2    1    2    0    0  0.00000000000E+00  0.00000000000E+00  0.41084399617E+02  0.10155914040E+03  0.92878044265E+02 0.  0.
        -13    1    3    3    0    0  0.15477726764E+02  0.20650230939E+02  0.62758985124E+02  0.67857809259E+02  0.00000000000E+00 0. -1.
         13    1    3    3    0    0 -0.15477726764E+02 -0.20650230939E+02 -0.21674585507E+02  0.33701331139E+02  0.00000000000E+00 0.  1.
<mgrwt>
<rscale>  0 0.92878044E+02</rscale>
<asrwt>0</asrwt>
<pdfrwt beam="1">  1        1 0.10972580E-01 0.92878044E+02</pdfrwt>
<pdfrwt beam="2">  1       -1 0.46519032E-02 0.92878044E+02</pdfrwt>
<totfact> 0.94026534E+04</totfact>
</mgrwt>
</event>
<event>
 5    1  0.6308903E+000  0.9291441E+02  0.7546771E-02  0.1295944E+00
         -3   -1    0    0    0  501 -0.00000000000E+00  0.00000000000E+00  0.53617379961E+02  0.53617379961E+02  0.00000000000E+00 0.  1.
          3   -1    0    0  501    0  0.00000000000E+00 -0.00000000000E+00 -0.40253216845E+02  0.40253216845E+02  0.00000000000E+00 0. -1.
         23    2    1    2    0    0  0.00000000000E+00  0.00000000000E+00  0.13364163116E+02  0.93870596806E+02  0.92914412708E+02 0.  0.
        -13    1    3    3    0    0 -0.33264488608E+02 -0.59469320421E+01  0.38890878950E+02  0.51520798408E+02  0.00000000000E+00 0.  1.
         13    1    3    3    0    0  0.33264488608E+02  0.59469320421E+01 -0.25526715834E+02  0.42349798398E+02  0.00000000000E+00 0. -1.
<mgrwt>
<rscale>  0 0.92914413E+02</rscale>
<asrwt>0</asrwt>
<pdfrwt beam="2">  1        3 0.61928025E-02 0.92914413E+02</pdfrwt>
<pdfrwt beam="1">  1       -3 0.82488278E-02 0.92914413E+02</pdfrwt>
<totfact> 0.33367805E+04</totfact>
</mgrwt>
</event>
<event>
 5    1  0.6308903E+000  0.9208307E+02  0.7546771E-02  0.1297884E+00
         -1   -1    0    0    0  501 -0.00000000000E+00  0.00000000000E+00  0.51222490302E+02  0.51222490302E+02  0.00000000000E+00 0.  1.
          1   -1    0    0  501    0  0.00000000000E+00 -0.00000000000E+00 -0.41384611680E+02  0.41384611680E+02  0.00000000000E+00 0. -1.
         23    2    1    2    0    0  0.00000000000E+00  0.00000000000E+00  0.98378786227E+01  0.92607101982E+02  0.92083068377E+02 0.  0.
        -13    1    3    3    0    0  0.11288692773E+02  0.37621390413E+02  0.29076866591E+02  0.48869906608E+02  0.00000000000E+00 0.  1.
         13    1    3    3    0    0 -0.11288692773E+02 -0.37621390413E+02 -0.19238987969E+02  0.43737195374E+02  0.00000000000E+00 0. -1.
<mgrwt>
<rscale>  0 0.92083068E+02</rscale>
<asrwt>0</asrwt>
<pdfrwt beam="2">  1        1 0.63668634E-02 0.92083068E+02</pdfrwt>
<pdfrwt beam="1">  1       -1 0.78803831E-02 0.92083068E+02</pdfrwt>
<totfact> 0.88621800E+04</totfact>
</mgrwt>
</event>
<event>
 5    1  0.6308903E+000  0.8944796E+02  0.7546771E-02  0.1304194E+00
          1   -1    0    0  501    0  0.00000000000E+00  0.00000000000E+00  0.94476320867E+02  0.94476320867E+02  0.00000000000E+00 0. -1.
         -1   -1    0    0    0  501 -0.00000000000E+00 -0.00000000000E+00 -0.21171807622E+02  0.21171807622E+02  0.00000000000E+00 0.  1.
         23    2    1    2    0    0  0.00000000000E+00  0.00000000000E+00  0.73304513246E+02  0.11564812849E+03  0.89447962307E+02 0.  0.
        -13    1    3    3    0    0  0.41296680243E+02  0.10963064045E+02  0.19566764895E+02  0.46994285406E+02  0.00000000000E+00 0.  1.
         13    1    3    3    0    0 -0.41296680243E+02 -0.10963064045E+02  0.53737748351E+02  0.68653843083E+02  0.00000000000E+00 0. -1.
<mgrwt>
<rscale>  0 0.89447962E+02</rscale>
<asrwt>0</asrwt>
<pdfrwt beam="1">  1        1 0.14534818E-01 0.89447962E+02</pdfrwt>
<pdfrwt beam="2">  1       -1 0.32572012E-02 0.89447962E+02</pdfrwt>
<totfact> 0.10901762E+05</totfact>
</mgrwt>
</event>
<event>
 5    1  0.6308903E+000  0.9482660E+02  0.7546771E-02  0.1291567E+00
          4   -1    0    0  501    0  0.00000000000E+00  0.00000000000E+00  0.33548280627E+02  0.33548280627E+02  0.00000000000E+00 0. -1.
         -4   -1    0    0    0  501 -0.00000000000E+00 -0.00000000000E+00 -0.67008529758E+02  0.67008529758E+02  0.00000000000E+00 0.  1.
         23    2    1    2    0    0  0.00000000000E+00  0.00000000000E+00 -0.33460249131E+02  0.10055681038E+03  0.94826598815E+02 0.  0.
        -13    1    3    3    0    0  0.26481430519E+02  0.24801592325E+02  0.15637021204E+02  0.39508246941E+02  0.00000000000E+00 0. -1.
         13    1    3    3    0    0 -0.26481430519E+02 -0.24801592325E+02 -0.49097270335E+02  0.61048563444E+02  0.00000000000E+00 0.  1.
<mgrwt>
<rscale>  0 0.94826599E+02</rscale>
<asrwt>0</asrwt>
<pdfrwt beam="1">  1        4 0.51612740E-02 0.94826599E+02</pdfrwt>
<pdfrwt beam="2">  1       -4 0.10309005E-01 0.94826599E+02</pdfrwt>
<totfact> 0.23746106E+04</totfact>
</mgrwt>
</event>
<event>
 5    1  0.6308903E+000  0.8877187E+02  0.7546771E-02  0.1305853E+00
         -1   -1    0    0    0  501 -0.00000000000E+00  0.00000000000E+00  0.32317335353E+02  0.32317335353E+02  0.00000000000E+00 0.  1.
          1   -1    0    0  501    0  0.00000000000E+00 -0.00000000000E+00 -0.60961438137E+02  0.60961438137E+02  0.00000000000E+00 0. -1.
         23    2    1    2    0    0  0.00000000000E+00  0.00000000000E+00 -0.28644102784E+02  0.93278773490E+02  0.88771870317E+02 0.  0.
        -13    1    3    3    0    0 -0.26992416851E+02 -0.29784153668E+02 -0.34104021753E+02  0.52714046296E+02  0.00000000000E+00 0. -1.
         13    1    3    3    0    0  0.26992416851E+02  0.29784153668E+02  0.54599189687E+01  0.40564727194E+02  0.00000000000E+00 0.  1.
<mgrwt>
<rscale>  0 0.88771870E+02</rscale>
<asrwt>0</asrwt>
<pdfrwt beam="2">  1        1 0.93786827E-02 0.88771870E+02</pdfrwt>
<pdfrwt beam="1">  1       -1 0.49718978E-02 0.88771870E+02</pdfrwt>
<totfact> 0.10401207E+05</totfact>
</mgrwt>
</event>
<event>
 5    1  0.6308903E+000  0.8316704E+02  0.7546771E-02  0.1320297E+00
         -2   -1    0    0    0  501 -0.00000000000E+00  0.00000000000E+00  0.14889948777E+02  0.14889948777E+02  0.00000000000E+00 0.  1.
          2   -1    0    0  501    0  0.00000000000E+00 -0.00000000000E+00 -0.11613131201E+03  0.11613131201E+03  0.00000000000E+00 0. -1.
         23    2    1    2    0    0  0.00000000000E+00  0.00000000000E+00 -0.10124136323E+03  0.13102126078E+03  0.83167043647E+02 0.  0.
        -13    1    3    3    0    0 -0.25429143088E+00 -0.28421266453E+02 -0.98440101177E+02  0.10246114664E+03  0.00000000000E+00 0. -1.
         13    1    3    3    0    0  0.25429143088E+00  0.28421266453E+02 -0.28012620531E+01  0.28560114146E+02  0.00000000000E+00 0.  1.
<mgrwt>
<rscale>  0 0.83167044E+02</rscale>
<asrwt>0</asrwt>
<pdfrwt beam="2">  1        2 0.17866355E-01 0.83167044E+02</pdfrwt>
<pdfrwt beam="1">  1       -2 0.22907614E-02 0.83167044E+02</pdfrwt>
<totfact> 0.16500401E+05</totfact>
</mgrwt>
</event>
<event>
 5    1  0.6308903E+000  0.9246152E+02  0.7546771E-02  0.1296998E+00
          2   -1    0    0  501    0  0.00000000000E+00  0.00000000000E+00  0.35407628170E+02  0.35407628170E+02  0.00000000000E+00 0. -1.
         -2   -1    0    0    0  501 -0.00000000000E+00 -0.00000000000E+00 -0.60362225626E+02  0.60362225626E+02  0.00000000000E+00 0.  1.
         23    2    1    2    0    0  0.00000000000E+00  0.00000000000E+00 -0.24954597457E+02  0.95769853796E+02  0.92461521520E+02 0.  0.
        -13    1    3    3    0    0 -0.14957819288E+02 -0.41154148900E+02 -0.27836319491E+02  0.51887002345E+02  0.00000000000E+00 0.  1.
         13    1    3    3    0    0  0.14957819288E+02  0.41154148900E+02  0.28817220345E+01  0.43882851451E+02  0.00000000000E+00 0. -1.
<mgrwt>
<rscale>  0 0.92461522E+02</rscale>
<asrwt>0</asrwt>
<pdfrwt beam="1">  1        2 0.54473274E-02 0.92461522E+02</pdfrwt>
<pdfrwt beam="2">  1       -2 0.92864962E-02 0.92461522E+02</pdfrwt>
<totfact> 0.88701060E+04</totfact>
</mgrwt>
</event>
<event>
 5    1  0.6308903E+000  0.9073759E+02  0.7546771E-02  0.1301075E+00
         -1   -1    0    0    0  501 -0.00000000000E+00  0.00000000000E+00  0.10719957227E+03  0.10719957227E+03  0.00000000000E+00 0.  1.
          1   -1    0    0  501    0  0.00000000000E+00 -0.00000000000E+00 -0.19200892707E+02  0.19200892707E+02  0.00000000000E+00 0. -1.
         23    2    1    2    0    0  0.00000000000E+00  0.00000000000E+00  0.87998679561E+02  0.12640046498E+03  0.90737588361E+02 0.  0.
        -13    1    3    3    0    0  0.26861923617E+02  0.24727434161E+02  0.81516143400E+02  0.89319038147E+02  0.00000000000E+00 0.  1.
         13    1    3    3    0    0 -0.26861923617E+02 -0.24727434161E+02  0.64825361606E+01  0.37081426829E+02  0.00000000000E+00 0. -1.
<mgrwt>
<rscale>  0 0.90737588E+02</rscale>
<asrwt>0</asrwt>
<pdfrwt beam="2">  1        1 0.29539835E-02 0.90737588E+02</pdfrwt>
<pdfrwt beam="1">  1       -1 0.16492242E-01 0.90737588E+02</pdfrwt>
<totfact> 0.81313692E+04</totfact>
</mgrwt>
</event>
<event>
 5    1  0.6308903E+000  0.9185639E+02  0.7546771E-02  0.1298417E+00
          1   -1    0    0  501    0  0.00000000000E+00  0.00000000000E+00  0.17047257105E+03  0.17047257105E+03  0.00000000000E+00 0. -1.
         -1   -1    0    0    0  501 -0.00000000000E+00 -0.00000000000E+00 -0.12373832802E+02  0.12373832802E+02  0.00000000000E+00 0.  1.
         23    2    1    2    0    0  0.00000000000E+00  0.00000000000E+00  0.15809873825E+03  0.18284640386E+03  0.91856389905E+02 0.  0.
        -13    1    3    3    0    0  0.28264949598E+02  0.35711842936E+02  0.67246795555E+02  0.81218068274E+02  0.00000000000E+00 0.  1.
         13    1    3    3    0    0 -0.28264949598E+02 -0.35711842936E+02  0.90851942696E+02  0.10162833558E+03  0.00000000000E+00 0. -1.
<mgrwt>
<rscale>  0 0.91856390E+02</rscale>
<asrwt>0</asrwt>
<pdfrwt beam="1">  1        1 0.26226548E-01 0.91856390E+02</pdfrwt>
<pdfrwt beam="2">  1       -1 0.19036667E-02 0.91856390E+02</pdfrwt>
<totfact> 0.11256163E+05</totfact>
</mgrwt>
</event>
<event>
 5    1  0.6308903E+000  0.8253564E+02  0.7546771E-02  0.1322006E+00
         -1   -1    0    0    0  501 -0.00000000000E+00  0.00000000000E+00  0.21256144946E+03  0.21256144946E+03  0.00000000000E+00 0.  1.
          1   -1    0    0  501    0  0.00000000000E+00 -0.00000000000E+00 -0.80119566436E+01  0.80119566436E+01  0.00000000000E+00 0. -1.
         23    2    1    2    0    0  0.00000000000E+00  0.00000000000E+00  0.20454949282E+03  0.22057340610E+03  0.82535643626E+02 0.  0.
        -13    1    3    3    0    0 -0.35753121880E+02  0.61843210687E+01  0.15481440378E+03  0.15900953169E+03  0.00000000000E+00 0.  1.
         13    1    3    3    0    0  0.35753121880E+02 -0.61843210687E+01  0.49735089042E+02  0.61563874417E+02  0.00000000000E+00 0. -1.
<mgrwt>
<rscale>  0 0.82535644E+02</rscale>
<asrwt>0</asrwt>
<pdfrwt beam="2">  1        1 0.12326089E-02 0.82535644E+02</pdfrwt>
<pdfrwt beam="1">  1       -1 0.32701757E-01 0.82535644E+02</pdfrwt>
<totfact> 0.88328900E+04</totfact>
</mgrwt>
</event>
<event>
 5    1  0.6308903E+000  0.9296665E+02  0.7546771E-02  0.1295822E+00
         -2   -1    0    0    0  501 -0.00000000000E+00  0.00000000000E+00  0.25892053964E+02  0.25892053964E+02  0.00000000000E+00 0.  1.
          2   -1    0    0  501    0  0.00000000000E+00 -0.00000000000E+00 -0.83450296252E+02  0.83450296252E+02  0.00000000000E+00 0. -1.
         23    2    1    2    0    0  0.00000000000E+00  0.00000000000E+00 -0.57558242288E+02  0.10934235022E+03  0.92966651523E+02 0.  0.
        -13    1    3    3    0    0 -0.20038895059E+01 -0.36877714897E+02  0.44190049106E+01  0.37195551261E+02  0.00000000000E+00 0.  1.
         13    1    3    3    0    0  0.20038895059E+01  0.36877714897E+02 -0.61977247199E+02  0.72146798956E+02  0.00000000000E+00 0. -1.
<mgrwt>
<rscale>  0 0.92966652E+02</rscale>
<asrwt>0</asrwt>
<pdfrwt beam="2">  1        2 0.12838507E-01 0.92966652E+02</pdfrwt>
<pdfrwt beam="1">  1       -2 0.39833930E-02 0.92966652E+02</pdfrwt>
<totfact> 0.11014140E+05</totfact>
</mgrwt>
</event>
<event>
 5    1  0.6308903E+000  0.9204429E+02  0.7546771E-02  0.1297975E+00
          2   -1    0    0  501    0  0.00000000000E+00  0.00000000000E+00  0.29724431391E+02  0.29724431391E+02  0.00000000000E+00 0. -1.
         -2   -1    0    0    0  501 -0.00000000000E+00 -0.00000000000E+00 -0.71255795391E+02  0.71255795391E+02  0.00000000000E+00 0.  1.
         23    2    1    2    0    0  0.00000000000E+00  0.00000000000E+00 -0.41531364001E+02  0.10098022678E+03  0.92044293713E+02 0.  0.
        -13    1    3    3    0    0 -0.27224721553E+02 -0.29319138943E+02 -0.45716557424E+02  0.60751962887E+02  0.00000000000E+00 0. -1.
         13    1    3    3    0    0  0.27224721553E+02  0.29319138943E+02  0.41851934228E+01  0.40228263895E+02  0.00000000000E+00 0.  1.
<mgrwt>
<rscale>  0 0.92044294E+02</rscale>
<asrwt>0</asrwt>
<pdfrwt beam="1">  1        2 0.45729895E-02 0.92044294E+02</pdfrwt>
<pdfrwt beam="2">  1       -2 0.10962430E-01 0.92044294E+02</pdfrwt>
<totfact> 0.85795579E+04</totfact>
</mgrwt>
</event>
<event>
 5    1  0.6308903E+000  0.9070081E+02  0.7546771E-02  0.1301163E+00
          2   -1    0    0  501    0  0.00000000000E+00  0.00000000000E+00  0.64294374004E+02  0.64294374004E+02  0.00000000000E+00 0.  1.
         -2   -1    0    0    0  501 -0.00000000000E+00 -0.00000000000E+00 -0.31988171236E+02  0.31988171236E+02  0.00000000000E+00 0. -1.
         23    2    1    2    0    0  0.00000000000E+00  0.00000000000E+00  0.32306202768E+02  0.96282545240E+02  0.90700814664E+02 0.  0.
        -13    1    3    3    0    0  0.30856985013E+02 -0.11651095570E+02 -0.16887200102E+02  0.37055081694E+02  0.00000000000E+00 0. -1.
         13    1    3    3    0    0 -0.30856985013E+02  0.11651095570E+02  0.49193402871E+02  0.59227463546E+02  0.00000000000E+00 0.  1.
<mgrwt>
<rscale>  0 0.90700815E+02</rscale>
<asrwt>0</asrwt>
<pdfrwt beam="1">  1        2 0.98914421E-02 0.90700815E+02</pdfrwt>
<pdfrwt beam="2">  1       -2 0.49212571E-02 0.90700815E+02</pdfrwt>
<totfact> 0.10966825E+05</totfact>
</mgrwt>
</event>
<event>
 5    1  0.6308903E+000  0.9054216E+02  0.7546771E-02  0.1301544E+00
          1   -1    0    0  501    0  0.00000000000E+00  0.00000000000E+00  0.20064178295E+02  0.20064178295E+02  0.00000000000E+00 0. -1.
         -1   -1    0    0    0  501 -0.00000000000E+00 -0.00000000000E+00 -0.10214576160E+03  0.10214576160E+03  0.00000000000E+00 0.  1.
         23    2    1    2    0    0  0.00000000000E+00  0.00000000000E+00 -0.82081583304E+02  0.12220993990E+03  0.90542161955E+02 0.  0.
        -13    1    3    3    0    0 -0.20972673557E+02 -0.32563953171E+02 -0.94090154117E+01  0.39859674526E+02  0.00000000000E+00 0. -1.
         13    1    3    3    0    0  0.20972673557E+02  0.32563953171E+02 -0.72672567893E+02  0.82350265369E+02  0.00000000000E+00 0.  1.
<mgrwt>
<rscale>  0 0.90542162E+02</rscale>
<asrwt>0</asrwt>
<pdfrwt beam="1">  1        1 0.30867967E-02 0.90542162E+02</pdfrwt>
<pdfrwt beam="2">  1       -1 0.15714733E-01 0.90542162E+02</pdfrwt>
<totfact> 0.82519141E+04</totfact>
</mgrwt>
</event>
<event>
 5    1  0.6308903E+000  0.9084495E+02  0.7546771E-02  0.1300818E+00
         -2   -1    0    0    0  501 -0.00000000000E+00  0.00000000000E+00  0.19046094986E+02  0.19046094986E+02  0.00000000000E+00 0.  1.
          2   -1    0    0  501    0  0.00000000000E+00 -0.00000000000E+00 -0.10832674095E+03  0.10832674095E+03  0.00000000000E+00 0. -1.
         23    2    1    2    0    0  0.00000000000E+00  0.00000000000E+00 -0.89280645961E+02  0.12737283593E+03  0.90844953578E+02 0.  0.
        -13    1    3    3    0    0  0.28729165122E+02  0.18399711631E+02 -0.86686371613E+02  0.93158152301E+02  0.00000000000E+00 0. -1.
         13    1    3    3    0    0 -0.28729165122E+02 -0.18399711631E+02 -0.25942743485E+01  0.34214683633E+02  0.00000000000E+00 0.  1.
<mgrwt>
<rscale>  0 0.90844954E+02</rscale>
<asrwt>0</asrwt>
<pdfrwt beam="2">  1        2 0.16665652E-01 0.90844954E+02</pdfrwt>
<pdfrwt beam="1">  1       -2 0.29301686E-02 0.90844954E+02</pdfrwt>
<totfact> 0.12699942E+05</totfact>
</mgrwt>
</event>
<event>
 5    1  0.6308903E+000  0.1030428E+03  0.7546771E-02  0.1274024E+00
          1   -1    0    0  501    0  0.00000000000E+00  0.00000000000E+00  0.34986310324E+02  0.34986310324E+02  0.00000000000E+00 0. -1.
         -1   -1    0    0    0  501 -0.00000000000E+00 -0.00000000000E+00 -0.75871267245E+02  0.75871267245E+02  0.00000000000E+00 0.  1.
         23    2    1    2    0    0  0.00000000000E+00  0.00000000000E+00 -0.40884956921E+02  0.11085757757E+03  0.10304282024E+03 0.  0.
        -13    1    3    3    0    0 -0.20143711890E+02  0.47378956730E+02 -0.22572812869E+02  0.56214469226E+02  0.00000000000E+00 0.  1.
         13    1    3    3    0    0  0.20143711890E+02 -0.47378956730E+02 -0.18312144052E+02  0.54643108343E+02  0.00000000000E+00 0. -1.
<mgrwt>
<rscale>  0 0.10304282E+03</rscale>
<asrwt>0</asrwt>
<pdfrwt beam="1">  1        1 0.53825094E-02 0.10304282E+03</pdfrwt>
<pdfrwt beam="2">  1       -1 0.11672502E-01 0.10304282E+03</pdfrwt>
<totfact> 0.62444859E+04</totfact>
</mgrwt>
</event>
<event>
 5    1  0.6308903E+000  0.7899538E+02  0.7546771E-02  0.1331927E+00
         -3   -1    0    0    0  501 -0.00000000000E+00  0.00000000000E+00  0.22696811564E+02  0.22696811564E+02  0.00000000000E+00 0.  1.
          3   -1    0    0  501    0  0.00000000000E+00 -0.00000000000E+00 -0.68735095995E+02  0.68735095995E+02  0.00000000000E+00 0. -1.
         23    2    1    2    0    0  0.00000000000E+00  0.00000000000E+00 -0.46038284431E+02  0.91431907558E+02  0.78995380159E+02 0.  0.
        -13    1    3    3    0    0  0.10293654187E+02  0.53091990611E+01  0.20687129401E+02  0.23708737504E+02  0.00000000000E+00 0.  1.
         13    1    3    3    0    0 -0.10293654187E+02 -0.53091990611E+01 -0.66725413832E+02  0.67723170054E+02  0.00000000000E+00 0. -1.
<mgrwt>
<rscale>  0 0.78995380E+02</rscale>
<asrwt>0</asrwt>
<pdfrwt beam="2">  1        3 0.10574630E-01 0.78995380E+02</pdfrwt>
<pdfrwt beam="1">  1       -3 0.34918172E-02 0.78995380E+02</pdfrwt>
<totfact> 0.52006712E+04</totfact>
</mgrwt>
</event>
<event>
 5    1  0.6308903E+000  0.9106987E+02  0.7546771E-02  0.1300281E+00
         -2   -1    0    0    0  501 -0.00000000000E+00  0.00000000000E+00  0.33444030220E+02  0.33444030220E+02  0.00000000000E+00 0.  1.
          2   -1    0    0  501    0  0.00000000000E+00 -0.00000000000E+00 -0.61997025741E+02  0.61997025741E+02  0.00000000000E+00 0. -1.
         23    2    1    2    0    0  0.00000000000E+00  0.00000000000E+00 -0.28552995521E+02  0.95441055961E+02  0.91069872130E+02 0.  0.
        -13    1    3    3    0    0  0.13368945296E+02 -0.43418209210E+02 -0.17516967154E+02  0.48689975638E+02  0.00000000000E+00 0.  1.
         13    1    3    3    0    0 -0.13368945296E+02  0.43418209210E+02 -0.11036028367E+02  0.46751080324E+02  0.00000000000E+00 0. -1.
<mgrwt>
<rscale>  0 0.91069872E+02</rscale>
<asrwt>0</asrwt>
<pdfrwt beam="2">  1        2 0.95380039E-02 0.91069872E+02</pdfrwt>
<pdfrwt beam="1">  1       -2 0.51452354E-02 0.91069872E+02</pdfrwt>
<totfact> 0.10736268E+05</totfact>
</mgrwt>
</event>
<event>
 5    1  0.6308903E+000  0.9230899E+02  0.7546771E-02  0.1297355E+00
         -3   -1    0    0    0  501 -0.00000000000E+00  0.00000000000E+00  0.12342812460E+03  0.12342812460E+03  0.00000000000E+00 0.  1.
          3   -1    0    0  501    0  0.00000000000E+00 -0.00000000000E+00 -0.17258931169E+02  0.17258931169E+02  0.00000000000E+00 0. -1.
         23    2    1    2    0    0  0.00000000000E+00  0.00000000000E+00  0.10616919343E+03  0.14068705577E+03  0.92308992125E+02 0.  0.
        -13    1    3    3    0    0 -0.13487775758E+02 -0.18069383406E+02  0.11446231802E+03  0.11666209735E+03  0.00000000000E+00 0.  1.
         13    1    3    3    0    0  0.13487775758E+02  0.18069383406E+02 -0.82931245894E+01  0.24024958419E+02  0.00000000000E+00 0. -1.
<mgrwt>
<rscale>  0 0.92308992E+02</rscale>
<asrwt>0</asrwt>
<pdfrwt beam="2">  1        3 0.26552203E-02 0.92308992E+02</pdfrwt>
<pdfrwt beam="1">  1       -3 0.18988942E-01 0.92308992E+02</pdfrwt>
<totfact> 0.30836794E+04</totfact>
</mgrwt>
</event>
<event>
 5    1  0.6308903E+000  0.9103392E+02  0.7546771E-02  0.1300367E+00
         -1   -1    0    0    0  501 -0.00000000000E+00  0.00000000000E+00  0.89765073733E+02  0.89765073733E+02  0.00000000000E+00 0.  1.
          1   -1    0    0  501    0  0.00000000000E+00 -0.00000000000E+00 -0.23080176426E+02  0.23080176426E+02  0.00000000000E+00 0. -1.
         23    2    1    2    0    0  0.00000000000E+00  0.00000000000E+00  0.66684897307E+02  0.11284525016E+03  0.91033922000E+02 0.  0.
        -13    1    3    3    0    0 -0.87066178975E+01 -0.43964517755E+02  0.43189997946E+02  0.62241946783E+02  0.00000000000E+00 0. -1.
         13    1    3    3    0    0  0.87066178975E+01  0.43964517755E+02  0.23494899361E+02  0.50603303377E+02  0.00000000000E+00 0.  1.
<mgrwt>
<rscale>  0 0.91033922E+02</rscale>
<asrwt>0</asrwt>
<pdfrwt beam="2">  1        1 0.35507964E-02 0.91033922E+02</pdfrwt>
<pdfrwt beam="1">  1       -1 0.13810011E-01 0.91033922E+02</pdfrwt>
<totfact> 0.83315863E+04</totfact>
</mgrwt>
</event>
<event>
 5    1  0.6308903E+000  0.9083767E+02  0.7546771E-02  0.1300836E+00
         -3   -1    0    0    0  501 -0.00000000000E+00  0.00000000000E+00  0.14353195392E+02  0.14353195392E+02  0.00000000000E+00 0.  1.
          3   -1    0    0  501    0  0.00000000000E+00 -0.00000000000E+00 -0.14372204274E+03  0.14372204274E+03  0.00000000000E+00 0. -1.
         23    2    1    2    0    0  0.00000000000E+00  0.00000000000E+00 -0.12936884735E+03  0.15807523813E+03  0.90837669755E+02 0.  0.
        -13    1    3    3    0    0  0.13309186641E+02 -0.34417560699E+02 -0.11076403301E+03  0.11674919247E+03  0.00000000000E+00 0.  1.
         13    1    3    3    0    0 -0.13309186641E+02  0.34417560699E+02 -0.18604814334E+02  0.41326045660E+02  0.00000000000E+00 0. -1.
<mgrwt>
<rscale>  0 0.90837670E+02</rscale>
<asrwt>0</asrwt>
<pdfrwt beam="2">  1        3 0.22111083E-01 0.90837670E+02</pdfrwt>
<pdfrwt beam="1">  1       -3 0.22081840E-02 0.90837670E+02</pdfrwt>
<totfact> 0.31132482E+04</totfact>
</mgrwt>
</event>
<event>
 5    1  0.6308903E+000  0.8911321E+02  0.7546771E-02  0.1305014E+00
         -2   -1    0    0    0  501 -0.00000000000E+00  0.00000000000E+00  0.34540707045E+02  0.34540707045E+02  0.00000000000E+00 0.  1.
          2   -1    0    0  501    0  0.00000000000E+00 -0.00000000000E+00 -0.57476847839E+02  0.57476847839E+02  0.00000000000E+00 0. -1.
         23    2    1    2    0    0  0.00000000000E+00  0.00000000000E+00 -0.22936140793E+02  0.92017554884E+02  0.89113208069E+02 0.  0.
        -13    1    3    3    0    0  0.46061126210E+00 -0.40434038874E+02 -0.30790707813E+02  0.50825105509E+02  0.00000000000E+00 0. -1.
         13    1    3    3    0    0 -0.46061126210E+00  0.40434038874E+02  0.78545670195E+01  0.41192449375E+02  0.00000000000E+00 0.  1.
<mgrwt>
<rscale>  0 0.89113208E+02</rscale>
<asrwt>0</asrwt>
<pdfrwt beam="2">  1        2 0.88425920E-02 0.89113208E+02</pdfrwt>
<pdfrwt beam="1">  1       -2 0.53139549E-02 0.89113208E+02</pdfrwt>
<totfact> 0.11184957E+05</totfact>
</mgrwt>
</event>
<event>
 5    1  0.6308903E+000  0.9063558E+02  0.7546771E-02  0.1301320E+00
          1   -1    0    0  501    0  0.00000000000E+00  0.00000000000E+00  0.12217701439E+02  0.12217701439E+02  0.00000000000E+00 0. -1.
         -1   -1    0    0    0  501 -0.00000000000E+00 -0.00000000000E+00 -0.16809234620E+03  0.16809234620E+03  0.00000000000E+00 0.  1.
         23    2    1    2    0    0  0.00000000000E+00  0.00000000000E+00 -0.15587464476E+03  0.18031004764E+03  0.90635580213E+02 0.  0.
        -13    1    3    3    0    0 -0.13341624336E+01  0.32665270632E+02 -0.14037083414E+03  0.14412762043E+03  0.00000000000E+00 0.  1.
         13    1    3    3    0    0  0.13341624336E+01 -0.32665270632E+02 -0.15503810624E+02  0.36182427209E+02  0.00000000000E+00 0. -1.
<mgrwt>
<rscale>  0 0.90635580E+02</rscale>
<asrwt>0</asrwt>
<pdfrwt beam="1">  1        1 0.18796464E-02 0.90635580E+02</pdfrwt>
<pdfrwt beam="2">  1       -1 0.25860360E-01 0.90635580E+02</pdfrwt>
<totfact> 0.73880239E+04</totfact>
</mgrwt>
</event>
<event>
 5    1  0.6308903E+000  0.9246103E+02  0.7546771E-02  0.1296999E+00
         -1   -1    0    0    0  501 -0.00000000000E+00  0.00000000000E+00  0.25438477223E+03  0.25438477223E+03  0.00000000000E+00 0.  1.
          1   -1    0    0  501    0  0.00000000000E+00 -0.00000000000E+00 -0.84016834116E+01  0.84016834116E+01  0.00000000000E+00 0. -1.
         23    2    1    2    0    0  0.00000000000E+00  0.00000000000E+00  0.24598308882E+03  0.26278645564E+03  0.92461025757E+02 0.  0.
        -13    1    3    3    0    0 -0.25686905250E+02 -0.35999343598E+02  0.84702793815E+02  0.95552776625E+02  0.00000000000E+00 0.  1.
         13    1    3    3    0    0  0.25686905250E+02  0.35999343598E+02  0.16128029500E+03  0.16723367901E+03  0.00000000000E+00 0. -1.
<mgrwt>
<rscale>  0 0.92461026E+02</rscale>
<asrwt>0</asrwt>
<pdfrwt beam="2">  1        1 0.12925669E-02 0.92461026E+02</pdfrwt>
<pdfrwt beam="1">  1       -1 0.39136113E-01 0.92461026E+02</pdfrwt>
<totfact> 0.62070022E+04</totfact>
</mgrwt>
</event>
<event>
 5    1  0.6308903E+000  0.9027646E+02  0.7546771E-02  0.1302184E+00
          2   -1    0    0  501    0  0.00000000000E+00  0.00000000000E+00  0.98509089298E+02  0.98509089298E+02  0.00000000000E+00 0. -1.
         -2   -1    0    0    0  501 -0.00000000000E+00 -0.00000000000E+00 -0.20682964859E+02  0.20682964859E+02  0.00000000000E+00 0.  1.
         23    2    1    2    0    0  0.00000000000E+00  0.00000000000E+00  0.77826124439E+02  0.11919205416E+03  0.90276464979E+02 0.  0.
        -13    1    3    3    0    0 -0.24542785026E+02  0.92094058867E+01 -0.96032369018E+01  0.27917442802E+02  0.00000000000E+00 0.  1.
         13    1    3    3    0    0  0.24542785026E+02 -0.92094058867E+01  0.87429361340E+02  0.91274611355E+02  0.00000000000E+00 0. -1.
<mgrwt>
<rscale>  0 0.90276465E+02</rscale>
<asrwt>0</asrwt>
<pdfrwt beam="1">  1        2 0.15155244E-01 0.90276465E+02</pdfrwt>
<pdfrwt beam="2">  1       -2 0.31819947E-02 0.90276465E+02</pdfrwt>
<totfact> 0.12549719E+05</totfact>
</mgrwt>
</event>
<event>
 5    1  0.6308903E+000  0.9138438E+02  0.7546771E-02  0.1299533E+00
          1   -1    0    0  501    0  0.00000000000E+00  0.00000000000E+00  0.12941424500E+03  0.12941424500E+03  0.00000000000E+00 0. -1.
         -1   -1    0    0    0  501 -0.00000000000E+00 -0.00000000000E+00 -0.16132506952E+02  0.16132506952E+02  0.00000000000E+00 0.  1.
         23    2    1    2    0    0  0.00000000000E+00  0.00000000000E+00  0.11328173805E+03  0.14554675196E+03  0.91384379568E+02 0.  0.
        -13    1    3    3    0    0 -0.38498828946E+02  0.21728488749E+02  0.38239355707E+02  0.58451136674E+02  0.00000000000E+00 0.  1.
         13    1    3    3    0    0  0.38498828946E+02 -0.21728488749E+02  0.75042382343E+02  0.87095615282E+02  0.00000000000E+00 0. -1.
<mgrwt>
<rscale>  0 0.91384380E+02</rscale>
<asrwt>0</asrwt>
<pdfrwt beam="1">  1        1 0.19909883E-01 0.91384380E+02</pdfrwt>
<pdfrwt beam="2">  1       -1 0.24819242E-02 0.91384380E+02</pdfrwt>
<totfact> 0.10850885E+05</totfact>
</mgrwt>
</event>
<event>
 5    1  0.6308903E+000  0.9132158E+02  0.7546771E-02  0.1299682E+00
         -1   -1    0    0    0  501 -0.00000000000E+00  0.00000000000E+00  0.21128962129E+03  0.21128962129E+03  0.00000000000E+00 0.  1.
          1   -1    0    0  501    0  0.00000000000E+00 -0.00000000000E+00 -0.98675348457E+01  0.98675348457E+01  0.00000000000E+00 0. -1.
         23    2    1    2    0    0  0.00000000000E+00  0.00000000000E+00  0.20142208645E+03  0.22115715614E+03  0.91321579063E+02 0.  0.
        -13    1    3    3    0    0 -0.42790419265E+02  0.31970952871E+00  0.62131152637E+02  0.75441383359E+02  0.00000000000E+00 0. -1.
         13    1    3    3    0    0  0.42790419265E+02 -0.31970952871E+00  0.13929093381E+03  0.14571577278E+03  0.00000000000E+00 0.  1.
<mgrwt>
<rscale>  0 0.91321579E+02</rscale>
<asrwt>0</asrwt>
<pdfrwt beam="2">  1        1 0.15180824E-02 0.91321579E+02</pdfrwt>
<pdfrwt beam="1">  1       -1 0.32506092E-01 0.91321579E+02</pdfrwt>
<totfact> 0.68038478E+04</totfact>
</mgrwt>
</event>
<event>
 5    1  0.6308903E+000  0.8954671E+02  0.7546771E-02  0.1303953E+00
         -2   -1    0    0    0  501 -0.00000000000E+00  0.00000000000E+00  0.32759193787E+02  0.32759193787E+02  0.00000000000E+00 0.  1.
          2   -1    0    0  501    0  0.00000000000E+00 -0.00000000000E+00 -0.61193612402E+02  0.61193612402E+02  0.00000000000E+00 0. -1.
         23    2    1    2    0    0  0.00000000000E+00  0.00000000000E+00 -0.28434418615E+02  0.93952806189E+02  0.89546711993E+02 0.  0.
        -13    1    3    3    0    0 -0.59767792474E+00  0.43115469517E+02 -0.15677684067E+01  0.43148103415E+02  0.00000000000E+00 0.  1.
         13    1    3    3    0    0  0.59767792474E+00 -0.43115469517E+02 -0.26866650208E+02  0.50804702774E+02  0.00000000000E+00 0. -1.
<mgrwt>
<rscale>  0 0.89546712E+02</rscale>
<asrwt>0</asrwt>
<pdfrwt beam="2">  1        2 0.94144019E-02 0.89546712E+02</pdfrwt>
<pdfrwt beam="1">  1       -2 0.50398760E-02 0.89546712E+02</pdfrwt>
<totfact> 0.11217905E+05</totfact>
</mgrwt>
</event>
<event>
 5    1  0.6308903E+000  0.8512442E+02  0.7546771E-02  0.1315107E+00
         -1   -1    0    0    0  501 -0.00000000000E+00  0.00000000000E+00  0.77170422558E+02  0.77170422558E+02  0.00000000000E+00 0.  1.
          1   -1    0    0  501    0  0.00000000000E+00 -0.00000000000E+00 -0.23474558433E+02  0.23474558433E+02  0.00000000000E+00 0. -1.
         23    2    1    2    0    0  0.00000000000E+00  0.00000000000E+00  0.53695864125E+02  0.10064498099E+03  0.85124417029E+02 0.  0.
        -13    1    3    3    0    0  0.32961224025E+02 -0.88968243918E+01 -0.32014826641E+01  0.34290600238E+02  0.00000000000E+00 0. -1.
         13    1    3    3    0    0 -0.32961224025E+02  0.88968243918E+01  0.56897346789E+02  0.66354380753E+02  0.00000000000E+00 0.  1.
<mgrwt>
<rscale>  0 0.85124417E+02</rscale>
<asrwt>0</asrwt>
<pdfrwt beam="2">  1        1 0.36114706E-02 0.85124417E+02</pdfrwt>
<pdfrwt beam="1">  1       -1 0.11872373E-01 0.85124417E+02</pdfrwt>
<totfact> 0.10148818E+05</totfact>
</mgrwt>
</event>
<event>
 5    1  0.6308903E+000  0.9160371E+02  0.7546771E-02  0.1299014E+00
          3   -1    0    0  501    0  0.00000000000E+00  0.00000000000E+00  0.19989422260E+02  0.19989422260E+02  0.00000000000E+00 0. -1.
         -3   -1    0    0    0  501 -0.00000000000E+00 -0.00000000000E+00 -0.10494599753E+03  0.10494599753E+03  0.00000000000E+00 0.  1.
         23    2    1    2    0    0  0.00000000000E+00  0.00000000000E+00 -0.84956575269E+02  0.12493541979E+03  0.91603708639E+02 0.  0.
        -13    1    3    3    0    0  0.22411065145E+02  0.35086166036E+02 -0.16438933462E+02  0.44760846969E+02  0.00000000000E+00 0. -1.
         13    1    3    3    0    0 -0.22411065145E+02 -0.35086166036E+02 -0.68517641807E+02  0.80174572820E+02  0.00000000000E+00 0.  1.
<mgrwt>
<rscale>  0 0.91603709E+02</rscale>
<asrwt>0</asrwt>
<pdfrwt beam="1">  1        3 0.30752958E-02 0.91603709E+02</pdfrwt>
<pdfrwt beam="2">  1       -3 0.16145538E-01 0.91603709E+02</pdfrwt>
<totfact> 0.32498293E+04</totfact>
</mgrwt>
</event>
<event>
 5    1  0.6308903E+000  0.9121695E+02  0.7546771E-02  0.1299931E+00
         -2   -1    0    0    0  501 -0.00000000000E+00  0.00000000000E+00  0.10222984647E+03  0.10222984647E+03  0.00000000000E+00 0.  1.
          2   -1    0    0  501    0  0.00000000000E+00 -0.00000000000E+00 -0.20347609179E+02  0.20347609179E+02  0.00000000000E+00 0. -1.
         23    2    1    2    0    0  0.00000000000E+00  0.00000000000E+00  0.81882237290E+02  0.12257745565E+03  0.91216949353E+02 0.  0.
        -13    1    3    3    0    0  0.42197034885E+02  0.16458580676E+02  0.48134954247E+02  0.66094239169E+02  0.00000000000E+00 0.  1.
         13    1    3    3    0    0 -0.42197034885E+02 -0.16458580676E+02  0.33747283043E+02  0.56483216478E+02  0.00000000000E+00 0. -1.
<mgrwt>
<rscale>  0 0.91216949E+02</rscale>
<asrwt>0</asrwt>
<pdfrwt beam="2">  1        2 0.31304015E-02 0.91216949E+02</pdfrwt>
<pdfrwt beam="1">  1       -2 0.15727668E-01 0.91216949E+02</pdfrwt>
<totfact> 0.79193631E+04</totfact>
</mgrwt>
</event>
<event>
 5    1  0.6308903E+000  0.9267838E+02  0.7546771E-02  0.1296492E+00
         -2   -1    0    0    0  501 -0.00000000000E+00  0.00000000000E+00  0.72345084640E+02  0.72345084640E+02  0.00000000000E+00 0.  1.
          2   -1    0    0  501    0  0.00000000000E+00 -0.00000000000E+00 -0.29681633713E+02  0.29681633713E+02  0.00000000000E+00 0. -1.
         23    2    1    2    0    0  0.00000000000E+00  0.00000000000E+00  0.42663450927E+02  0.10202671835E+03  0.92678375109E+02 0.  0.
        -13    1    3    3    0    0  0.21020581730E+01  0.12982379217E+02  0.70247464825E+02  0.71467944794E+02  0.00000000000E+00 0.  1.
         13    1    3    3    0    0 -0.21020581730E+01 -0.12982379217E+02 -0.27584013898E+02  0.30558773559E+02  0.00000000000E+00 0. -1.
<mgrwt>
<rscale>  0 0.92678375E+02</rscale>
<asrwt>0</asrwt>
<pdfrwt beam="2">  1        2 0.45664052E-02 0.92678375E+02</pdfrwt>
<pdfrwt beam="1">  1       -2 0.11130013E-01 0.92678375E+02</pdfrwt>
<totfact> 0.84023761E+04</totfact>
</mgrwt>
</event>
<event>
 5    1  0.6308903E+000  0.9127476E+02  0.7546771E-02  0.1299794E+00
         -1   -1    0    0    0  501 -0.00000000000E+00  0.00000000000E+00  0.79558872902E+01  0.79558872902E+01  0.00000000000E+00 0.  1.
          1   -1    0    0  501    0  0.00000000000E+00 -0.00000000000E+00 -0.26178981682E+03  0.26178981682E+03  0.00000000000E+00 0. -1.
         23    2    1    2    0    0  0.00000000000E+00  0.00000000000E+00 -0.25383392953E+03  0.26974570411E+03  0.91274756123E+02 0.  0.
        -13    1    3    3    0    0  0.40722907036E+02 -0.16298358547E+02 -0.16415612489E+03  0.16991534653E+03  0.00000000000E+00 0. -1.
         13    1    3    3    0    0 -0.40722907036E+02  0.16298358547E+02 -0.89677804641E+02  0.99830357578E+02  0.00000000000E+00 0.  1.
<mgrwt>
<rscale>  0 0.91274756E+02</rscale>
<asrwt>0</asrwt>
<pdfrwt beam="2">  1        1 0.40275352E-01 0.91274756E+02</pdfrwt>
<pdfrwt beam="1">  1       -1 0.12239828E-02 0.91274756E+02</pdfrwt>
<totfact> 0.12442990E+05</totfact>
</mgrwt>
</event>
<event>
 5    1  0.6308903E+000  0.9108921E+02  0.7546771E-02  0.1300235E+00
         -2   -1    0    0    0  501 -0.00000000000E+00  0.00000000000E+00  0.29442539934E+02  0.29442539934E+02  0.00000000000E+00 0.  1.
          2   -1    0    0  501    0  0.00000000000E+00 -0.00000000000E+00 -0.70452853405E+02  0.70452853405E+02  0.00000000000E+00 0. -1.
         23    2    1    2    0    0  0.00000000000E+00  0.00000000000E+00 -0.41010313470E+02  0.99895393339E+02  0.91089207920E+02 0.  0.
        -13    1    3    3    0    0 -0.26523096109E+02 -0.31920022173E+02 -0.41079126597E+02  0.58393981580E+02  0.00000000000E+00 0.  1.
         13    1    3    3    0    0  0.26523096109E+02  0.31920022173E+02  0.68813127228E-01  0.41501411759E+02  0.00000000000E+00 0. -1.
<mgrwt>
<rscale>  0 0.91089208E+02</rscale>
<asrwt>0</asrwt>
<pdfrwt beam="2">  1        2 0.10838900E-01 0.91089208E+02</pdfrwt>
<pdfrwt beam="1">  1       -2 0.45296216E-02 0.91089208E+02</pdfrwt>
<totfact> 0.11111614E+05</totfact>
</mgrwt>
</event>
<event>
 5    1  0.6308903E+000  0.9128138E+02  0.7546771E-02  0.1299778E+00
         -2   -1    0    0    0  501 -0.00000000000E+00  0.00000000000E+00  0.20549156428E+02  0.20549156428E+02  0.00000000000E+00 0.  1.
          2   -1    0    0  501    0  0.00000000000E+00 -0.00000000000E+00 -0.10137022914E+03  0.10137022914E+03  0.00000000000E+00 0. -1.
         23    2    1    2    0    0  0.00000000000E+00  0.00000000000E+00 -0.80821072712E+02  0.12191938557E+03  0.91281382454E+02 0.  0.
        -13    1    3    3    0    0 -0.16181892400E+02 -0.31044317178E+02 -0.12994500965E+01  0.35032725290E+02  0.00000000000E+00 0.  1.
         13    1    3    3    0    0  0.16181892400E+02  0.31044317178E+02 -0.79521622615E+02  0.86886660277E+02  0.00000000000E+00 0. -1.
<mgrwt>
<rscale>  0 0.91281382E+02</rscale>
<asrwt>0</asrwt>
<pdfrwt beam="2">  1        2 0.15595420E-01 0.91281382E+02</pdfrwt>
<pdfrwt beam="1">  1       -2 0.31614087E-02 0.91281382E+02</pdfrwt>
<totfact> 0.12279839E+05</totfact>
</mgrwt>
</event>
<event>
 5    1  0.6308903E+000  0.9385637E+02  0.7546771E-02  0.1293773E+00
          2   -1    0    0  501    0  0.00000000000E+00  0.00000000000E+00  0.22835416139E+03  0.22835416139E+03  0.00000000000E+00 0. -1.
         -2   -1    0    0    0  501 -0.00000000000E+00 -0.00000000000E+00 -0.96440309585E+01  0.96440309585E+01  0.00000000000E+00 0.  1.
         23    2    1    2    0    0  0.00000000000E+00  0.00000000000E+00  0.21871013043E+03  0.23799819235E+03  0.93856371162E+02 0.  0.
        -13    1    3    3    0    0 -0.26304003142E+00  0.36637987295E+02  0.34998459730E+02  0.50668565074E+02  0.00000000000E+00 0.  1.
         13    1    3    3    0    0  0.26304003142E+00 -0.36637987295E+02  0.18371167070E+03  0.18732962727E+03  0.00000000000E+00 0. -1.
<mgrwt>
<rscale>  0 0.93856371E+02</rscale>
<asrwt>0</asrwt>
<pdfrwt beam="1">  1        2 0.35131405E-01 0.93856371E+02</pdfrwt>
<pdfrwt beam="2">  1       -2 0.14836972E-02 0.93856371E+02</pdfrwt>
<totfact> 0.15017555E+05</totfact>
</mgrwt>
</event>
<event>
 5    1  0.6308903E+000  0.9188089E+02  0.7546771E-02  0.1298360E+00
         -2   -1    0    0    0  501 -0.00000000000E+00  0.00000000000E+00  0.25095681855E+02  0.25095681855E+02  0.00000000000E+00 0.  1.
          2   -1    0    0  501    0  0.00000000000E+00 -0.00000000000E+00 -0.84099115401E+02  0.84099115401E+02  0.00000000000E+00 0. -1.
         23    2    1    2    0    0  0.00000000000E+00  0.00000000000E+00 -0.59003433545E+02  0.10919479726E+03  0.91880893431E+02 0.  0.
        -13    1    3    3    0    0 -0.39320123609E+02 -0.18930431652E+02 -0.12440635714E+02  0.45378439595E+02  0.00000000000E+00 0.  1.
         13    1    3    3    0    0  0.39320123609E+02  0.18930431652E+02 -0.46562797832E+02  0.63816357661E+02  0.00000000000E+00 0. -1.
<mgrwt>
<rscale>  0 0.91880893E+02</rscale>
<asrwt>0</asrwt>
<pdfrwt beam="2">  1        2 0.12938325E-01 0.91880893E+02</pdfrwt>
<pdfrwt beam="1">  1       -2 0.38608742E-02 0.91880893E+02</pdfrwt>
<totfact> 0.11405741E+05</totfact>
</mgrwt>
</event>
<event>
 5    1  0.6308903E+000  0.9173165E+02  0.7546771E-02  0.1298712E+00
         -1   -1    0    0    0  501 -0.00000000000E+00  0.00000000000E+00  0.53700676792E+02  0.53700676792E+02  0.00000000000E+00 0.  1.
          1   -1    0    0  501    0  0.00000000000E+00 -0.00000000000E+00 -0.39174064317E+02  0.39174064317E+02  0.00000000000E+00 0. -1.
         23    2    1    2    0    0  0.00000000000E+00  0.00000000000E+00  0.14526612475E+02  0.92874741109E+02  0.91731647026E+02 0.  0.
        -13    1    3    3    0    0 -0.78643788499E+01 -0.69808302540E+01 -0.37937089982E+02  0.39367540462E+02  0.00000000000E+00 0. -1.
         13    1    3    3    0    0  0.78643788499E+01  0.69808302540E+01  0.52463702456E+02  0.53507200648E+02  0.00000000000E+00 0.  1.
<mgrwt>
<rscale>  0 0.91731647E+02</rscale>
<asrwt>0</asrwt>
<pdfrwt beam="2">  1        1 0.60267791E-02 0.91731647E+02</pdfrwt>
<pdfrwt beam="1">  1       -1 0.82616426E-02 0.91731647E+02</pdfrwt>
<totfact> 0.88836790E+04</totfact>
</mgrwt>
</event>
<event>
 5    1  0.6308903E+000  0.9172302E+02  0.7546771E-02  0.1298732E+00
         -1   -1    0    0    0  501 -0.00000000000E+00  0.00000000000E+00  0.41553256623E+02  0.41553256623E+02  0.00000000000E+00 0.  1.
          1   -1    0    0  501    0  0.00000000000E+00 -0.00000000000E+00 -0.50616439295E+02  0.50616439295E+02  0.00000000000E+00 0. -1.
         23    2    1    2    0    0  0.00000000000E+00  0.00000000000E+00 -0.90631826720E+01  0.92169695918E+02  0.91723015462E+02 0.  0.
        -13    1    3    3    0    0 -0.28190366226E+02 -0.19755417216E+02  0.25919525008E+02  0.43090544601E+02  0.00000000000E+00 0.  1.
         13    1    3    3    0    0  0.28190366226E+02  0.19755417216E+02 -0.34982707680E+02  0.49079151317E+02  0.00000000000E+00 0. -1.
<mgrwt>
<rscale>  0 0.91723015E+02</rscale>
<asrwt>0</asrwt>
<pdfrwt beam="2">  1        1 0.77871445E-02 0.91723015E+02</pdfrwt>
<pdfrwt beam="1">  1       -1 0.63928087E-02 0.91723015E+02</pdfrwt>
<totfact> 0.92379873E+04</totfact>
</mgrwt>
</event>
<event>
 5    1  0.6308903E+000  0.9054616E+02  0.7546771E-02  0.1301534E+00
         -4   -1    0    0    0  501 -0.00000000000E+00  0.00000000000E+00  0.95888721391E+02  0.95888721391E+02  0.00000000000E+00 0.  1.
          4   -1    0    0  501    0  0.00000000000E+00 -0.00000000000E+00 -0.21375315239E+02  0.21375315239E+02  0.00000000000E+00 0. -1.
         23    2    1    2    0    0  0.00000000000E+00  0.00000000000E+00  0.74513406152E+02  0.11726403663E+03  0.90546157236E+02 0.  0.
        -13    1    3    3    0    0  0.29057731947E+02  0.19798040694E+02  0.74191030956E+02  0.82101298866E+02  0.00000000000E+00 0.  1.
         13    1    3    3    0    0 -0.29057731947E+02 -0.19798040694E+02  0.32237519669E+00  0.35162737763E+02  0.00000000000E+00 0. -1.
<mgrwt>
<rscale>  0 0.90546157E+02</rscale>
<asrwt>0</asrwt>
<pdfrwt beam="2">  1        4 0.32885101E-02 0.90546157E+02</pdfrwt>
<pdfrwt beam="1">  1       -4 0.14752111E-01 0.90546157E+02</pdfrwt>
<totfact> 0.25909531E+04</totfact>
</mgrwt>
</event>
<event>
 5    1  0.6308903E+000  0.8682665E+02  0.7546771E-02  0.1310724E+00
         -3   -1    0    0    0  501 -0.00000000000E+00  0.00000000000E+00  0.18523970741E+02  0.18523970741E+02  0.00000000000E+00 0.  1.
          3   -1    0    0  501    0  0.00000000000E+00 -0.00000000000E+00 -0.10174475021E+03  0.10174475021E+03  0.00000000000E+00 0. -1.
         23    2    1    2    0    0  0.00000000000E+00  0.00000000000E+00 -0.83220779467E+02  0.12026872095E+03  0.86826649733E+02 0.  0.
        -13    1    3    3    0    0  0.32717193099E+02 -0.26062416357E+02 -0.57707613122E+02  0.71272946361E+02  0.00000000000E+00 0. -1.
         13    1    3    3    0    0 -0.32717193099E+02  0.26062416357E+02 -0.25513166345E+02  0.48995774589E+02  0.00000000000E+00 0.  1.
<mgrwt>
<rscale>  0 0.86826650E+02</rscale>
<asrwt>0</asrwt>
<pdfrwt beam="2">  1        3 0.15653039E-01 0.86826650E+02</pdfrwt>
<pdfrwt beam="1">  1       -3 0.28498416E-02 0.86826650E+02</pdfrwt>
<totfact> 0.37923791E+04</totfact>
</mgrwt>
</event>
<event>
 5    1  0.6308903E+000  0.9022540E+02  0.7546771E-02  0.1302307E+00
          2   -1    0    0  501    0  0.00000000000E+00  0.00000000000E+00  0.61707497154E+02  0.61707497154E+02  0.00000000000E+00 0. -1.
         -2   -1    0    0    0  501 -0.00000000000E+00 -0.00000000000E+00 -0.32980688436E+02  0.32980688436E+02  0.00000000000E+00 0.  1.
         23    2    1    2    0    0  0.00000000000E+00  0.00000000000E+00  0.28726808719E+02  0.94688185590E+02  0.90225400809E+02 0.  0.
        -13    1    3    3    0    0  0.32964695084E+02 -0.18862584009E+02 -0.11185946680E+02  0.39592847847E+02  0.00000000000E+00 0.  1.
         13    1    3    3    0    0 -0.32964695084E+02  0.18862584009E+02  0.39912755399E+02  0.55095337743E+02  0.00000000000E+00 0. -1.
<mgrwt>
<rscale>  0 0.90225401E+02</rscale>
<asrwt>0</asrwt>
<pdfrwt beam="1">  1        2 0.94934611E-02 0.90225401E+02</pdfrwt>
<pdfrwt beam="2">  1       -2 0.50739521E-02 0.90225401E+02</pdfrwt>
<totfact> 0.11007216E+05</totfact>
</mgrwt>
</event>
<event>
 5    1  0.6308903E+000  0.9240152E+02  0.7546771E-02  0.1297138E+00
          2   -1    0    0  501    0  0.00000000000E+00  0.00000000000E+00  0.14218940826E+03  0.14218940826E+03  0.00000000000E+00 0. -1.
         -2   -1    0    0    0  501 -0.00000000000E+00 -0.00000000000E+00 -0.15011737897E+02  0.15011737897E+02  0.00000000000E+00 0.  1.
         23    2    1    2    0    0  0.00000000000E+00  0.00000000000E+00  0.12717767037E+03  0.15720114616E+03  0.92401517921E+02 0.  0.
        -13    1    3    3    0    0 -0.43191571924E+02  0.44770817755E+01  0.36745520589E+02  0.56883999770E+02  0.00000000000E+00 0.  1.
         13    1    3    3    0    0  0.43191571924E+02 -0.44770817755E+01  0.90432149779E+02  0.10031714639E+03  0.00000000000E+00 0. -1.
<mgrwt>
<rscale>  0 0.92401518E+02</rscale>
<asrwt>0</asrwt>
<pdfrwt beam="1">  1        2 0.21875293E-01 0.92401518E+02</pdfrwt>
<pdfrwt beam="2">  1       -2 0.23094982E-02 0.92401518E+02</pdfrwt>
<totfact> 0.13240595E+05</totfact>
</mgrwt>
</event>
<event>
 5    1  0.6308903E+000  0.8077959E+02  0.7546771E-02  0.1326854E+00
          2   -1    0    0  501    0  0.00000000000E+00  0.00000000000E+00  0.72780097350E+02  0.72780097350E+02  0.00000000000E+00 0. -1.
         -2   -1    0    0    0  501 -0.00000000000E+00 -0.00000000000E+00 -0.22414585033E+02  0.22414585033E+02  0.00000000000E+00 0.  1.
         23    2    1    2    0    0  0.00000000000E+00  0.00000000000E+00  0.50365512317E+02  0.95194682383E+02  0.80779593481E+02 0.  0.
        -13    1    3    3    0    0 -0.87258248989E+01 -0.12564055840E+02 -0.18868885385E+02  0.24290540442E+02  0.00000000000E+00 0.  1.
         13    1    3    3    0    0  0.87258248989E+01  0.12564055840E+02  0.69234397701E+02  0.70904141941E+02  0.00000000000E+00 0. -1.
<mgrwt>
<rscale>  0 0.80779593E+02</rscale>
<asrwt>0</asrwt>
<pdfrwt beam="1">  1        2 0.11196938E-01 0.80779593E+02</pdfrwt>
<pdfrwt beam="2">  1       -2 0.34483977E-02 0.80779593E+02</pdfrwt>
<totfact> 0.15625020E+05</totfact>
</mgrwt>
</event>
<event>
 5    1  0.6308903E+000  0.9248010E+02  0.7546771E-02  0.1296955E+00
          2   -1    0    0  501    0  0.00000000000E+00  0.00000000000E+00  0.32281368016E+03  0.32281368016E+03  0.00000000000E+00 0. -1.
         -2   -1    0    0    0  501 -0.00000000000E+00 -0.00000000000E+00 -0.66234562620E+01  0.66234562620E+01  0.00000000000E+00 0.  1.
         23    2    1    2    0    0  0.00000000000E+00  0.00000000000E+00  0.31619022390E+03  0.32943713642E+03  0.92480101456E+02 0.  0.
        -13    1    3    3    0    0 -0.43964646990E+02  0.14276528282E+02  0.16235917980E+03  0.16881117472E+03  0.00000000000E+00 0. -1.
         13    1    3    3    0    0  0.43964646990E+02 -0.14276528282E+02  0.15383104410E+03  0.16062596171E+03  0.00000000000E+00 0.  1.
<mgrwt>
<rscale>  0 0.92480101E+02</rscale>
<asrwt>0</asrwt>
<pdfrwt beam="1">  1        2 0.49663631E-01 0.92480101E+02</pdfrwt>
<pdfrwt beam="2">  1       -2 0.10189935E-02 0.92480101E+02</pdfrwt>
<totfact> 0.17775696E+05</totfact>
</mgrwt>
</event>
<event>
 5    1  0.6308903E+000  0.9203473E+02  0.7546771E-02  0.1297998E+00
          1   -1    0    0  501    0  0.00000000000E+00  0.00000000000E+00  0.99384593763E+01  0.99384593763E+01  0.00000000000E+00 0. -1.
         -1   -1    0    0    0  501 -0.00000000000E+00 -0.00000000000E+00 -0.21307102048E+03  0.21307102048E+03  0.00000000000E+00 0.  1.
         23    2    1    2    0    0  0.00000000000E+00  0.00000000000E+00 -0.20313256110E+03  0.22300947985E+03  0.92034725648E+02 0.  0.
        -13    1    3    3    0    0 -0.35451822413E+02 -0.82432020816E+01 -0.16979350326E+03  0.17365084464E+03  0.00000000000E+00 0.  1.
         13    1    3    3    0    0  0.35451822413E+02  0.82432020816E+01 -0.33339057840E+02  0.49358635218E+02  0.00000000000E+00 0. -1.
<mgrwt>
<rscale>  0 0.92034726E+02</rscale>
<asrwt>0</asrwt>
<pdfrwt beam="1">  1        1 0.15289937E-02 0.92034726E+02</pdfrwt>
<pdfrwt beam="2">  1       -1 0.32780159E-01 0.92034726E+02</pdfrwt>
<totfact> 0.66503828E+04</totfact>
</mgrwt>
</event>
<event>
 5    1  0.6308903E+000  0.9117192E+02  0.7546771E-02  0.1300038E+00
         -1   -1    0    0    0  501 -0.00000000000E+00  0.00000000000E+00  0.36528754812E+02  0.36528754812E+02  0.00000000000E+00 0.  1.
          1   -1    0    0  501    0  0.00000000000E+00 -0.00000000000E+00 -0.56888878756E+02  0.56888878756E+02  0.00000000000E+00 0. -1.
         23    2    1    2    0    0  0.00000000000E+00  0.00000000000E+00 -0.20360123944E+02  0.93417633568E+02  0.91171923388E+02 0.  0.
        -13    1    3    3    0    0  0.78697239093E+00 -0.44213591437E+02  0.11660344733E+01  0.44235965342E+02  0.00000000000E+00 0.  1.
         13    1    3    3    0    0 -0.78697239093E+00  0.44213591437E+02 -0.21526158417E+02  0.49181668226E+02  0.00000000000E+00 0. -1.
<mgrwt>
<rscale>  0 0.91171923E+02</rscale>
<asrwt>0</asrwt>
<pdfrwt beam="2">  1        1 0.87521353E-02 0.91171923E+02</pdfrwt>
<pdfrwt beam="1">  1       -1 0.56198084E-02 0.91171923E+02</pdfrwt>
<totfact> 0.95614001E+04</totfact>
</mgrwt>
</event>
<event>
 5    1  0.6308903E+000  0.9089605E+02  0.7546771E-02  0.1300696E+00
          4   -1    0    0  501    0  0.00000000000E+00  0.00000000000E+00  0.46951499269E+02  0.46951499269E+02  0.00000000000E+00 0. -1.
         -4   -1    0    0    0  501 -0.00000000000E+00 -0.00000000000E+00 -0.43992696630E+02  0.43992696630E+02  0.00000000000E+00 0.  1.
         23    2    1    2    0    0  0.00000000000E+00  0.00000000000E+00  0.29588026390E+01  0.90944195898E+02  0.90896051919E+02 0.  0.
        -13    1    3    3    0    0 -0.38270069022E+02 -0.39271603262E+01 -0.22730569575E+02  0.44684444322E+02  0.00000000000E+00 0.  1.
         13    1    3    3    0    0  0.38270069022E+02  0.39271603262E+01  0.25689372214E+02  0.46259751576E+02  0.00000000000E+00 0. -1.
<mgrwt>
<rscale>  0 0.90896052E+02</rscale>
<asrwt>0</asrwt>
<pdfrwt beam="1">  1        4 0.72233076E-02 0.90896052E+02</pdfrwt>
<pdfrwt beam="2">  1       -4 0.67681072E-02 0.90896052E+02</pdfrwt>
<totfact> 0.27258486E+04</totfact>
</mgrwt>
</event>
<event>
 5    1  0.6308903E+000  0.9186089E+02  0.7546771E-02  0.1298407E+00
          3   -1    0    0  501    0  0.00000000000E+00  0.00000000000E+00  0.38868716473E+02  0.38868716473E+02  0.00000000000E+00 0. -1.
         -3   -1    0    0    0  501 -0.00000000000E+00 -0.00000000000E+00 -0.54275154416E+02  0.54275154416E+02  0.00000000000E+00 0.  1.
         23    2    1    2    0    0  0.00000000000E+00  0.00000000000E+00 -0.15406437943E+02  0.93143870890E+02  0.91860885877E+02 0.  0.
        -13    1    3    3    0    0 -0.17100279715E+02 -0.35571574650E+02 -0.31522783759E+02  0.50511804415E+02  0.00000000000E+00 0.  1.
         13    1    3    3    0    0  0.17100279715E+02  0.35571574650E+02  0.16116345816E+02  0.42632066474E+02  0.00000000000E+00 0. -1.
<mgrwt>
<rscale>  0 0.91860886E+02</rscale>
<asrwt>0</asrwt>
<pdfrwt beam="1">  1        3 0.59798026E-02 0.91860886E+02</pdfrwt>
<pdfrwt beam="2">  1       -3 0.83500237E-02 0.91860886E+02</pdfrwt>
<totfact> 0.34478049E+04</totfact>
</mgrwt>
</event>
<event>
 5    1  0.6308903E+000  0.8873835E+02  0.7546771E-02  0.1305936E+00
         -2   -1    0    0    0  501 -0.00000000000E+00  0.00000000000E+00  0.13592572656E+03  0.13592572656E+03  0.00000000000E+00 0.  1.
          2   -1    0    0  501    0  0.00000000000E+00 -0.00000000000E+00 -0.14483082241E+02  0.14483082241E+02  0.00000000000E+00 0. -1.
         23    2    1    2    0    0  0.00000000000E+00  0.00000000000E+00  0.12144264432E+03  0.15040880880E+03  0.88738345184E+02 0.  0.
        -13    1    3    3    0    0 -0.36851821674E+02 -0.48517581025E+01  0.19654505113E+02  0.42046354047E+02  0.00000000000E+00 0.  1.
         13    1    3    3    0    0  0.36851821674E+02  0.48517581025E+01  0.10178813921E+03  0.10836245476E+03  0.00000000000E+00 0. -1.
<mgrwt>
<rscale>  0 0.88738345E+02</rscale>
<asrwt>0</asrwt>
<pdfrwt beam="2">  1        2 0.22281666E-02 0.88738345E+02</pdfrwt>
<pdfrwt beam="1">  1       -2 0.20911649E-01 0.88738345E+02</pdfrwt>
<totfact> 0.77454069E+04</totfact>
</mgrwt>
</event>
<event>
 5    1  0.6308903E+000  0.8984588E+02  0.7546771E-02  0.1303225E+00
         -2   -1    0    0    0  501 -0.00000000000E+00  0.00000000000E+00  0.14547778595E+03  0.14547778595E+03  0.00000000000E+00 0.  1.
          2   -1    0    0  501    0  0.00000000000E+00 -0.00000000000E+00 -0.13872018218E+02  0.13872018218E+02  0.00000000000E+00 0. -1.
         23    2    1    2    0    0  0.00000000000E+00  0.00000000000E+00  0.13160576773E+03  0.15934980417E+03  0.89845879082E+02 0.  0.
        -13    1    3    3    0    0  0.41777104176E+02  0.15115216101E+02  0.77604167605E+02  0.89421490821E+02  0.00000000000E+00 0.  1.
         13    1    3    3    0    0 -0.41777104176E+02 -0.15115216101E+02  0.54001600125E+02  0.69928313345E+02  0.00000000000E+00 0. -1.
<mgrwt>
<rscale>  0 0.89845879E+02</rscale>
<asrwt>0</asrwt>
<pdfrwt beam="2">  1        2 0.21341568E-02 0.89845879E+02</pdfrwt>
<pdfrwt beam="1">  1       -2 0.22381197E-01 0.89845879E+02</pdfrwt>
<totfact> 0.73306647E+04</totfact>
</mgrwt>
</event>
<event>
 5    1  0.6308903E+000  0.9123814E+02  0.7546771E-02  0.1299881E+00
         -1   -1    0    0    0  501 -0.00000000000E+00  0.00000000000E+00  0.13970804924E+02  0.13970804924E+02  0.00000000000E+00 0.  1.
          1   -1    0    0  501    0  0.00000000000E+00 -0.00000000000E+00 -0.14896060582E+03  0.14896060582E+03  0.00000000000E+00 0. -1.
         23    2    1    2    0    0  0.00000000000E+00  0.00000000000E+00 -0.13498980089E+03  0.16293141074E+03  0.91238140385E+02 0.  0.
        -13    1    3    3    0    0 -0.38064543692E+02  0.25143332066E+02 -0.67398213457E+02  0.81385599531E+02  0.00000000000E+00 0.  1.
         13    1    3    3    0    0  0.38064543692E+02 -0.25143332066E+02 -0.67591587436E+02  0.81545811210E+02  0.00000000000E+00 0. -1.
<mgrwt>
<rscale>  0 0.91238140E+02</rscale>
<asrwt>0</asrwt>
<pdfrwt beam="2">  1        1 0.22917017E-01 0.91238140E+02</pdfrwt>
<pdfrwt beam="1">  1       -1 0.21493545E-02 0.91238140E+02</pdfrwt>
<totfact> 0.11178646E+05</totfact>
</mgrwt>
</event>
<event>
 5    1  0.6308903E+000  0.9123300E+02  0.7546771E-02  0.1299893E+00
         -1   -1    0    0    0  501 -0.00000000000E+00  0.00000000000E+00  0.65731684094E+02  0.65731684094E+02  0.00000000000E+00 0.  1.
          1   -1    0    0  501    0  0.00000000000E+00 -0.00000000000E+00 -0.31656955400E+02  0.31656955400E+02  0.00000000000E+00 0. -1.
         23    2    1    2    0    0  0.00000000000E+00  0.00000000000E+00  0.34074728694E+02  0.97388639494E+02  0.91232998235E+02 0.  0.
        -13    1    3    3    0    0  0.25094592232E+02 -0.21543558824E+01 -0.23561449573E+02  0.34489443523E+02  0.00000000000E+00 0. -1.
         13    1    3    3    0    0 -0.25094592232E+02  0.21543558824E+01  0.57636178267E+02  0.62899195971E+02  0.00000000000E+00 0.  1.
<mgrwt>
<rscale>  0 0.91232998E+02</rscale>
<asrwt>0</asrwt>
<pdfrwt beam="2">  1        1 0.48703008E-02 0.91232998E+02</pdfrwt>
<pdfrwt beam="1">  1       -1 0.10112567E-01 0.91232998E+02</pdfrwt>
<totfact> 0.87279803E+04</totfact>
</mgrwt>
</event>
<event>
 5    1  0.6308903E+000  0.9218428E+02  0.7546771E-02  0.1297647E+00
         -1   -1    0    0    0  501 -0.00000000000E+00  0.00000000000E+00  0.10472132269E+03  0.10472132269E+03  0.00000000000E+00 0.  1.
          1   -1    0    0  501    0  0.00000000000E+00 -0.00000000000E+00 -0.20287037706E+02  0.20287037706E+02  0.00000000000E+00 0. -1.
         23    2    1    2    0    0  0.00000000000E+00  0.00000000000E+00  0.84434284981E+02  0.12500836039E+03  0.92184281133E+02 0.  0.
        -13    1    3    3    0    0 -0.16028998216E+02 -0.18547991216E+02  0.95147825718E+02  0.98255104198E+02  0.00000000000E+00 0.  1.
         13    1    3    3    0    0  0.16028998216E+02  0.18547991216E+02 -0.10713540737E+02  0.26753256196E+02  0.00000000000E+00 0. -1.
<mgrwt>
<rscale>  0 0.92184281E+02</rscale>
<asrwt>0</asrwt>
<pdfrwt beam="2">  1        1 0.31210828E-02 0.92184281E+02</pdfrwt>
<pdfrwt beam="1">  1       -1 0.16110972E-01 0.92184281E+02</pdfrwt>
<totfact> 0.78411951E+04</totfact>
</mgrwt>
</event>
<event>
 5    1  0.6308903E+000  0.8062234E+02  0.7546771E-02  0.1327295E+00
         -1   -1    0    0    0  501 -0.00000000000E+00  0.00000000000E+00  0.27619005516E+02  0.27619005516E+02  0.00000000000E+00 0.  1.
          1   -1    0    0  501    0  0.00000000000E+00 -0.00000000000E+00 -0.58835953516E+02  0.58835953516E+02  0.00000000000E+00 0. -1.
         23    2    1    2    0    0  0.00000000000E+00  0.00000000000E+00 -0.31216948000E+02  0.86454959033E+02  0.80622342430E+02 0.  0.
        -13    1    3    3    0    0  0.28096154557E+02 -0.89114029112E+01 -0.45096663032E+02  0.53875003660E+02  0.00000000000E+00 0. -1.
         13    1    3    3    0    0 -0.28096154557E+02  0.89114029112E+01  0.13879715032E+02  0.32579955373E+02  0.00000000000E+00 0.  1.
<mgrwt>
<rscale>  0 0.80622342E+02</rscale>
<asrwt>0</asrwt>
<pdfrwt beam="2">  1        1 0.90516851E-02 0.80622342E+02</pdfrwt>
<pdfrwt beam="1">  1       -1 0.42490778E-02 0.80622342E+02</pdfrwt>
<totfact> 0.13475362E+05</totfact>
</mgrwt>
</event>
