<event>
 4    1  0.4505197E+006  0.3517675E+02  0.7546771E-02  0.1547037E+00
         21   -1    0    0  503  501  0.00000000000E+00  0.00000000000E+00  0.25758631929E+04  0.25758631929E+04  0.00000000000E+00 0.  1.
         21   -1    0    0  504  502 -0.00000000000E+00 -0.00000000000E+00 -0.11342247867E+01  0.11342247867E+01  0.00000000000E+00 0.  1.
         21    1    1    2  503  502 -0.34660014030E+02  0.60072471014E+01  0.22656607789E+04  0.22659338403E+04  0.00000000000E+00 0.  1.
         21    1    1    2  504  501  0.34660014030E+02 -0.60072471014E+01  0.30906818919E+03  0.31106357735E+03  0.00000000000E+00 0.  1.
<mgrwt>
<rscale>  2 0.35176748E+02</rscale>
<asrwt>0</asrwt>
<pdfrwt beam="1">  1       21 0.39628196E+00 0.35176748E+02</pdfrwt>
<pdfrwt beam="2">  1       21 0.17449818E-03 0.35176748E+02</pdfrwt>
<totfact> 0.67389248E+05</totfact>
</mgrwt>
</event>
<event>
 4    1  0.4505197E+006  0.2575577E+02  0.7546771E-02  0.1650378E+00
         21   -1    0    0  504  501  0.00000000000E+00  0.00000000000E+00  0.72762060102E+03  0.72762060102E+03  0.00000000000E+00 0.  1.
         21   -1    0    0  503  502 -0.00000000000E+00 -0.00000000000E+00 -0.11756657533E+01  0.11756657533E+01  0.00000000000E+00 0.  1.
         21    1    1    2  503  501  0.14455937037E+02 -0.21316327530E+02  0.19055071160E+03  0.19228347206E+03  0.00000000000E+00 0.  1.
         21    1    1    2  504  502 -0.14455937037E+02  0.21316327530E+02  0.53589422367E+03  0.53651279472E+03  0.00000000000E+00 0.  1.
<mgrwt>
<rscale>  2 0.25755775E+02</rscale>
<asrwt>0</asrwt>
<pdfrwt beam="1">  1       21 0.11194127E+00 0.25755775E+02</pdfrwt>
<pdfrwt beam="2">  1       21 0.18087224E-03 0.25755775E+02</pdfrwt>
<totfact> 0.27071843E+07</totfact>
</mgrwt>
</event>
<event>
 4    1  0.4505197E+006  0.3762122E+02  0.7546771E-02  0.1526484E+00
         21   -1    0    0  502  501  0.00000000000E+00  0.00000000000E+00  0.15130737433E+02  0.15130737433E+02  0.00000000000E+00 0. -1.
         21   -1    0    0  503  502 -0.00000000000E+00 -0.00000000000E+00 -0.43540483868E+03  0.43540483868E+03  0.00000000000E+00 0. -1.
         21    1    1    2  503  504  0.31268031125E+02  0.20920481143E+02 -0.40974532867E+03  0.41146882102E+03  0.00000000000E+00 0. -1.
         21    1    1    2  504  501 -0.31268031125E+02 -0.20920481143E+02 -0.10528772575E+02  0.39066755095E+02  0.00000000000E+00 0. -1.
<mgrwt>
<rscale>  2 0.37621221E+02</rscale>
<asrwt>0</asrwt>
<pdfrwt beam="1">  1       21 0.23278059E-02 0.37621221E+02</pdfrwt>
<pdfrwt beam="2">  1       21 0.66985356E-01 0.37621221E+02</pdfrwt>
<totfact> 0.18544636E+06</totfact>
</mgrwt>
</event>
<event>
 4    1  0.4505197E+006  0.2529470E+02  0.7546771E-02  0.1656805E+00
         21   -1    0    0  503  501  0.00000000000E+00  0.00000000000E+00  0.17033072021E+02  0.17033072021E+02  0.00000000000E+00 0.  1.
         21   -1    0    0  504  502 -0.00000000000E+00 -0.00000000000E+00 -0.72360858137E+02  0.72360858137E+02  0.00000000000E+00 0. -1.
         21    1    1    2  503  502  0.53564483171E+01 -0.24721053557E+02 -0.58659435039E+02  0.63880758814E+02  0.00000000000E+00 0. -1.
         21    1    1    2  504  501 -0.53564483171E+01  0.24721053557E+02  0.33316489232E+01  0.25513171345E+02  0.00000000000E+00 0.  1.
<mgrwt>
<rscale>  2 0.25294704E+02</rscale>
<asrwt>0</asrwt>
<pdfrwt beam="1">  1       21 0.26204726E-02 0.25294704E+02</pdfrwt>
<pdfrwt beam="2">  1       21 0.11132440E-01 0.25294704E+02</pdfrwt>
<totfact> 0.39358283E+07</totfact>
</mgrwt>
</event>
<event>
 4    1  0.4505197E+006  0.2004218E+02  0.7546771E-02  0.1744491E+00
         21   -1    0    0  503  501  0.00000000000E+00  0.00000000000E+00  0.25866350010E+03  0.25866350010E+03  0.00000000000E+00 0.  1.
         21   -1    0    0  504  502 -0.00000000000E+00 -0.00000000000E+00 -0.16556172922E+01  0.16556172922E+01  0.00000000000E+00 0.  1.
         21    1    1    2  503  502  0.17170691157E+02 -0.10337133579E+02  0.96089934152E+02  0.98157854555E+02  0.00000000000E+00 0.  1.
         21    1    1    2  504  501 -0.17170691157E+02  0.10337133579E+02  0.16091794866E+03  0.16216126284E+03  0.00000000000E+00 0.  1.
<mgrwt>
<rscale>  2 0.20042180E+02</rscale>
<asrwt>0</asrwt>
<pdfrwt beam="1">  1       21 0.39794352E-01 0.20042180E+02</pdfrwt>
<pdfrwt beam="2">  1       21 0.25471056E-03 0.20042180E+02</pdfrwt>
<totfact> 0.12849263E+08</totfact>
</mgrwt>
</event>
<event>
 4    1  0.4505197E+006  0.2261339E+02  0.7546771E-02  0.1697855E+00
         21   -1    0    0  504  501  0.00000000000E+00  0.00000000000E+00  0.62597912887E+02  0.62597912887E+02  0.00000000000E+00 0.  1.
         21   -1    0    0  503  502 -0.00000000000E+00 -0.00000000000E+00 -0.12456460134E+02  0.12456460134E+02  0.00000000000E+00 0.  1.
         21    1    1    2  503  501 -0.14951181510E+02  0.16965481548E+02  0.47087124521E+02  0.52235645764E+02  0.00000000000E+00 0.  1.
         21    1    1    2  504  502  0.14951181510E+02 -0.16965481548E+02  0.30543282326E+01  0.22818727257E+02  0.00000000000E+00 0.  1.
<mgrwt>
<rscale>  2 0.22613390E+02</rscale>
<asrwt>0</asrwt>
<pdfrwt beam="1">  1       21 0.96304480E-02 0.22613390E+02</pdfrwt>
<pdfrwt beam="2">  1       21 0.19163785E-02 0.22613390E+02</pdfrwt>
<totfact> 0.78845916E+07</totfact>
</mgrwt>
</event>
<event>
 4    1  0.4505197E+006  0.3533317E+02  0.7546771E-02  0.1545662E+00
         21   -1    0    0  504  501  0.00000000000E+00  0.00000000000E+00  0.44564735643E+03  0.44564735643E+03  0.00000000000E+00 0. -1.
         21   -1    0    0  501  502 -0.00000000000E+00 -0.00000000000E+00 -0.36991441298E+02  0.36991441298E+02  0.00000000000E+00 0.  1.
         21    1    1    2  503  502 -0.26751777841E+02 -0.23081925393E+02 -0.27673905447E+02  0.44880707884E+02  0.00000000000E+00 0.  1.
         21    1    1    2  504  503  0.26751777841E+02  0.23081925393E+02  0.43632982058E+03  0.43775808984E+03  0.00000000000E+00 0. -1.
<mgrwt>
<rscale>  2 0.35333170E+02</rscale>
<asrwt>0</asrwt>
<pdfrwt beam="1">  1       21 0.68561128E-01 0.35333170E+02</pdfrwt>
<pdfrwt beam="2">  1       21 0.56909913E-02 0.35333170E+02</pdfrwt>
<totfact> 0.42263133E+05</totfact>
</mgrwt>
</event>
<event>
 4    1  0.4505197E+006  0.2014851E+02  0.7546771E-02  0.1742391E+00
         21   -1    0    0  502  501  0.00000000000E+00  0.00000000000E+00  0.66413089039E+02  0.66413089039E+02  0.00000000000E+00 0. -1.
         21   -1    0    0  504  502 -0.00000000000E+00 -0.00000000000E+00 -0.19038351008E+02  0.19038351008E+02  0.00000000000E+00 0. -1.
         21    1    1    2  503  501  0.12660493661E+02 -0.15673996754E+02  0.58892113392E+02  0.62243419683E+02  0.00000000000E+00 0. -1.
         21    1    1    2  504  503 -0.12660493661E+02  0.15673996754E+02 -0.11517375361E+02  0.23208020364E+02  0.00000000000E+00 0. -1.
<mgrwt>
<rscale>  2 0.20148506E+02</rscale>
<asrwt>0</asrwt>
<pdfrwt beam="1">  1       21 0.10217398E-01 0.20148506E+02</pdfrwt>
<pdfrwt beam="2">  1       21 0.29289771E-02 0.20148506E+02</pdfrwt>
<totfact> 0.36101725E+07</totfact>
</mgrwt>
</event>
<event>
 4    1  0.4505197E+006  0.3390193E+02  0.7546771E-02  0.1558574E+00
         21   -1    0    0  504  501  0.00000000000E+00  0.00000000000E+00  0.32652985834E+03  0.32652985834E+03  0.00000000000E+00 0.  1.
         21   -1    0    0  503  502 -0.00000000000E+00 -0.00000000000E+00 -0.38901118887E+01  0.38901118887E+01  0.00000000000E+00 0.  1.
         21    1    1    2  503  501  0.31756279857E+02 -0.11869281733E+02  0.21228823846E+03  0.21497822529E+03  0.00000000000E+00 0.  1.
         21    1    1    2  504  502 -0.31756279857E+02  0.11869281733E+02  0.11035150799E+03  0.11544174494E+03  0.00000000000E+00 0.  1.
<mgrwt>
<rscale>  2 0.33901934E+02</rscale>
<asrwt>0</asrwt>
<pdfrwt beam="1">  1       21 0.50235341E-01 0.33901934E+02</pdfrwt>
<pdfrwt beam="2">  1       21 0.59847901E-03 0.33901934E+02</pdfrwt>
<totfact> 0.26292695E+07</totfact>
</mgrwt>
</event>
<event>
 4    1  0.4505197E+006  0.2099190E+02  0.7546771E-02  0.1726293E+00
         21   -1    0    0  502  501  0.00000000000E+00  0.00000000000E+00  0.69786688410E+03  0.69786688410E+03  0.00000000000E+00 0.  1.
         21   -1    0    0  503  502 -0.00000000000E+00 -0.00000000000E+00 -0.20600077306E+01  0.20600077306E+01  0.00000000000E+00 0.  1.
         21    1    1    2  503  504  0.14133757655E+02 -0.15520852490E+02  0.56470311250E+02  0.60245796701E+02  0.00000000000E+00 0.  1.
         21    1    1    2  504  501 -0.14133757655E+02  0.15520852490E+02  0.63933656512E+03  0.63968109513E+03  0.00000000000E+00 0.  1.
<mgrwt>
<rscale>  2 0.20991902E+02</rscale>
<asrwt>0</asrwt>
<pdfrwt beam="1">  1       21 0.10736395E+00 0.20991902E+02</pdfrwt>
<pdfrwt beam="2">  1       21 0.31692482E-03 0.20991902E+02</pdfrwt>
<totfact> 0.12694394E+07</totfact>
</mgrwt>
</event>
<event>
 4    1  0.4505197E+006  0.2135169E+02  0.7546771E-02  0.1719711E+00
         21   -1    0    0  504  501  0.00000000000E+00  0.00000000000E+00  0.25106319580E+03  0.25106319580E+03  0.00000000000E+00 0. -1.
         21   -1    0    0  501  502 -0.00000000000E+00 -0.00000000000E+00 -0.21991168854E+01  0.21991168854E+01  0.00000000000E+00 0. -1.
         21    1    1    2  503  502 -0.15452969741E+02 -0.14734326202E+02  0.71567604663E+02  0.74684782116E+02  0.00000000000E+00 0. -1.
         21    1    1    2  504  503  0.15452969741E+02  0.14734326202E+02  0.17729647425E+03  0.17857753057E+03  0.00000000000E+00 0. -1.
<mgrwt>
<rscale>  2 0.21351689E+02</rscale>
<asrwt>0</asrwt>
<pdfrwt beam="1">  1       21 0.38625084E-01 0.21351689E+02</pdfrwt>
<pdfrwt beam="2">  1       21 0.33832587E-03 0.21351689E+02</pdfrwt>
<totfact> 0.91590586E+07</totfact>
</mgrwt>
</event>
<event>
 4    1  0.4505197E+006  0.2426133E+02  0.7546771E-02  0.1671844E+00
         21   -1    0    0  504  501  0.00000000000E+00  0.00000000000E+00  0.98021419200E+01  0.98021419200E+01  0.00000000000E+00 0. -1.
         21   -1    0    0  503  502 -0.00000000000E+00 -0.00000000000E+00 -0.14125575118E+03  0.14125575118E+03  0.00000000000E+00 0.  1.
         21    1    1    2  503  501  0.40125082105E+01 -0.23927223501E+02 -0.84596650531E+01  0.25693932736E+02  0.00000000000E+00 0. -1.
         21    1    1    2  504  502 -0.40125082105E+01  0.23927223501E+02 -0.12299394421E+03  0.12536396036E+03  0.00000000000E+00 0.  1.
<mgrwt>
<rscale>  2 0.24261332E+02</rscale>
<asrwt>0</asrwt>
<pdfrwt beam="1">  1       21 0.15080218E-02 0.24261332E+02</pdfrwt>
<pdfrwt beam="2">  1       21 0.21731654E-01 0.24261332E+02</pdfrwt>
<totfact> 0.28983231E+07</totfact>
</mgrwt>
</event>
<event>
 4    1  0.4505197E+006  0.2908382E+02  0.7546771E-02  0.1608442E+00
         21   -1    0    0  503  501  0.00000000000E+00  0.00000000000E+00  0.60239306805E+01  0.60239306805E+01  0.00000000000E+00 0.  1.
         21   -1    0    0  504  502 -0.00000000000E+00 -0.00000000000E+00 -0.56196784938E+03  0.56196784938E+03  0.00000000000E+00 0. -1.
         21    1    1    2  503  502 -0.25658248136E+02 -0.13693899574E+02 -0.52394117991E+03  0.52474777616E+03  0.00000000000E+00 0. -1.
         21    1    1    2  504  501  0.25658248136E+02  0.13693899574E+02 -0.32002738787E+02  0.43244003894E+02  0.00000000000E+00 0.  1.
<mgrwt>
<rscale>  2 0.29083820E+02</rscale>
<asrwt>0</asrwt>
<pdfrwt beam="1">  1       21 0.92675873E-03 0.29083820E+02</pdfrwt>
<pdfrwt beam="2">  1       21 0.86456577E-01 0.29083820E+02</pdfrwt>
<totfact> 0.43554667E+06</totfact>
</mgrwt>
</event>
<event>
 4    1  0.4505197E+006  0.2492822E+02  0.7546771E-02  0.1662035E+00
         21   -1    0    0  503  501  0.00000000000E+00  0.00000000000E+00  0.48677215558E+02  0.48677215558E+02  0.00000000000E+00 0. -1.
         21   -1    0    0  504  502 -0.00000000000E+00 -0.00000000000E+00 -0.20037475851E+02  0.20037475851E+02  0.00000000000E+00 0. -1.
         21    1    1    2  503  502  0.97144712390E+01  0.22957465536E+02 -0.63771415361E+01  0.25730995112E+02  0.00000000000E+00 0. -1.
         21    1    1    2  504  501 -0.97144712390E+01 -0.22957465536E+02  0.35016881244E+02  0.42983696297E+02  0.00000000000E+00 0. -1.
<mgrwt>
<rscale>  2 0.24928220E+02</rscale>
<asrwt>0</asrwt>
<pdfrwt beam="1">  1       21 0.74888024E-02 0.24928220E+02</pdfrwt>
<pdfrwt beam="2">  1       21 0.30826886E-02 0.24928220E+02</pdfrwt>
<totfact> 0.58586183E+07</totfact>
</mgrwt>
</event>
<event>
 4    1  0.4505197E+006  0.2179708E+02  0.7546771E-02  0.1711785E+00
         21   -1    0    0  503  501  0.00000000000E+00  0.00000000000E+00  0.30488892640E+02  0.30488892640E+02  0.00000000000E+00 0.  1.
         21   -1    0    0  504  502 -0.00000000000E+00 -0.00000000000E+00 -0.17909496332E+02  0.17909496332E+02  0.00000000000E+00 0.  1.
         21    1    1    2  503  502  0.13365039789E+02  0.17218839842E+02  0.15011318629E+02  0.26466061684E+02  0.00000000000E+00 0.  1.
         21    1    1    2  504  501 -0.13365039789E+02 -0.17218839842E+02 -0.24319223220E+01  0.21932327288E+02  0.00000000000E+00 0.  1.
<mgrwt>
<rscale>  2 0.21797081E+02</rscale>
<asrwt>0</asrwt>
<pdfrwt beam="1">  1       21 0.46905988E-02 0.21797081E+02</pdfrwt>
<pdfrwt beam="2">  1       21 0.27553071E-02 0.21797081E+02</pdfrwt>
<totfact> 0.14246190E+08</totfact>
</mgrwt>
</event>
<event>
 4    1  0.4505197E+006  0.2032074E+02  0.7546771E-02  0.1739024E+00
         21   -1    0    0  504  501  0.00000000000E+00  0.00000000000E+00  0.86682916537E+02  0.86682916537E+02  0.00000000000E+00 0.  1.
         21   -1    0    0  503  502 -0.00000000000E+00 -0.00000000000E+00 -0.55671926999E+01  0.55671926999E+01  0.00000000000E+00 0. -1.
         21    1    1    2  503  501  0.50767753534E+01  0.19676347037E+02  0.23034920143E+02  0.30717093396E+02  0.00000000000E+00 0. -1.
         21    1    1    2  504  502 -0.50767753534E+01 -0.19676347037E+02  0.58080803693E+02  0.61533015840E+02  0.00000000000E+00 0.  1.
<mgrwt>
<rscale>  2 0.20320735E+02</rscale>
<asrwt>0</asrwt>
<pdfrwt beam="1">  1       21 0.13335832E-01 0.20320735E+02</pdfrwt>
<pdfrwt beam="2">  1       21 0.85649125E-03 0.20320735E+02</pdfrwt>
<totfact> 0.14996983E+08</totfact>
</mgrwt>
</event>
<event>
 4    1  0.4505197E+006  0.2568258E+02  0.7546771E-02  0.1651387E+00
         21   -1    0    0  504  501  0.00000000000E+00  0.00000000000E+00  0.59587742526E+01  0.59587742526E+01  0.00000000000E+00 0. -1.
         21   -1    0    0  503  502 -0.00000000000E+00 -0.00000000000E+00 -0.11886592899E+03  0.11886592899E+03  0.00000000000E+00 0.  1.
         21    1    1    2  503  501 -0.24811275296E+02  0.66329248462E+01 -0.40088103125E+02  0.47609359227E+02  0.00000000000E+00 0. -1.
         21    1    1    2  504  502  0.24811275296E+02 -0.66329248462E+01 -0.72819051617E+02  0.77215344020E+02  0.00000000000E+00 0.  1.
<mgrwt>
<rscale>  2 0.25682583E+02</rscale>
<asrwt>0</asrwt>
<pdfrwt beam="1">  1       21 0.91673466E-03 0.25682583E+02</pdfrwt>
<pdfrwt beam="2">  1       21 0.18287063E-01 0.25682583E+02</pdfrwt>
<totfact> 0.84385885E+07</totfact>
</mgrwt>
</event>
<event>
 4    1  0.4505197E+006  0.3640884E+02  0.7546771E-02  0.1536434E+00
         21   -1    0    0  503  501  0.00000000000E+00  0.00000000000E+00  0.20363266980E+03  0.20363266980E+03  0.00000000000E+00 0. -1.
         21   -1    0    0  501  502 -0.00000000000E+00 -0.00000000000E+00 -0.66113346817E+01  0.66113346817E+01  0.00000000000E+00 0. -1.
         21    1    1    2  503  504  0.35237536655E+02 -0.91607683081E+01  0.11153937383E+03  0.11733130690E+03  0.00000000000E+00 0. -1.
         21    1    1    2  504  502 -0.35237536655E+02  0.91607683081E+01  0.85481961294E+02  0.92912697583E+02  0.00000000000E+00 0. -1.
<mgrwt>
<rscale>  2 0.36408840E+02</rscale>
<asrwt>0</asrwt>
<pdfrwt beam="1">  1       21 0.31328098E-01 0.36408840E+02</pdfrwt>
<pdfrwt beam="2">  1       21 0.10171286E-02 0.36408840E+02</pdfrwt>
<totfact> 0.29496832E+07</totfact>
</mgrwt>
</event>
<event>
 4    1  0.4505197E+006  0.3250162E+02  0.7546771E-02  0.1571976E+00
         21   -1    0    0  502  501  0.00000000000E+00  0.00000000000E+00  0.12058946190E+03  0.12058946190E+03  0.00000000000E+00 0. -1.
         21   -1    0    0  503  502 -0.00000000000E+00 -0.00000000000E+00 -0.67399596096E+03  0.67399596096E+03  0.00000000000E+00 0. -1.
         21    1    1    2  503  504  0.32120993365E+02 -0.49595203054E+01 -0.67140570951E+03  0.67219192335E+03  0.00000000000E+00 0. -1.
         21    1    1    2  504  501 -0.32120993365E+02  0.49595203054E+01  0.11799921045E+03  0.12239349951E+03  0.00000000000E+00 0. -1.
<mgrwt>
<rscale>  2 0.32501616E+02</rscale>
<asrwt>0</asrwt>
<pdfrwt beam="1">  1       21 0.18552225E-01 0.32501616E+02</pdfrwt>
<pdfrwt beam="2">  1       21 0.10369169E+00 0.32501616E+02</pdfrwt>
<totfact> 0.23683342E+04</totfact>
</mgrwt>
</event>
<event>
 4    1  0.4505197E+006  0.2264814E+02  0.7546771E-02  0.1697278E+00
         21   -1    0    0  504  501  0.00000000000E+00  0.00000000000E+00  0.49164132790E+02  0.49164132790E+02  0.00000000000E+00 0. -1.
         21   -1    0    0  503  502 -0.00000000000E+00 -0.00000000000E+00 -0.48343758380E+02  0.48343758380E+02  0.00000000000E+00 0. -1.
         21    1    1    2  503  501 -0.10605176637E+02 -0.20011711037E+02  0.43583935581E+02  0.49117184272E+02  0.00000000000E+00 0. -1.
         21    1    1    2  504  502  0.10605176637E+02  0.20011711037E+02 -0.42763561170E+02  0.48390706898E+02  0.00000000000E+00 0. -1.
<mgrwt>
<rscale>  2 0.22648142E+02</rscale>
<asrwt>0</asrwt>
<pdfrwt beam="1">  1       21 0.75637127E-02 0.22648142E+02</pdfrwt>
<pdfrwt beam="2">  1       21 0.74375013E-02 0.22648142E+02</pdfrwt>
<totfact> 0.13873741E+07</totfact>
</mgrwt>
</event>
<event>
 4    1  0.4505197E+006  0.2041990E+02  0.7546771E-02  0.1737104E+00
         21   -1    0    0  502  501  0.00000000000E+00  0.00000000000E+00  0.28649257347E+03  0.28649257347E+03  0.00000000000E+00 0.  1.
         21   -1    0    0  504  502 -0.00000000000E+00 -0.00000000000E+00 -0.42774974319E+01  0.42774974319E+01  0.00000000000E+00 0. -1.
         21    1    1    2  503  501  0.20308636658E+02  0.21287517111E+01  0.25919611011E+03  0.25999922270E+03  0.00000000000E+00 0.  1.
         21    1    1    2  504  503 -0.20308636658E+02 -0.21287517111E+01  0.23018965922E+02  0.30770848199E+02  0.00000000000E+00 0. -1.
<mgrwt>
<rscale>  2 0.20419900E+02</rscale>
<asrwt>0</asrwt>
<pdfrwt beam="1">  1       21 0.44075765E-01 0.20419900E+02</pdfrwt>
<pdfrwt beam="2">  1       21 0.65807675E-03 0.20419900E+02</pdfrwt>
<totfact> 0.26599979E+07</totfact>
</mgrwt>
</event>
<event>
 4    1  0.4505197E+006  0.2013244E+02  0.7546771E-02  0.1742707E+00
         21   -1    0    0  504  501  0.00000000000E+00  0.00000000000E+00  0.70146647795E+02  0.70146647795E+02  0.00000000000E+00 0. -1.
         21   -1    0    0  503  502 -0.00000000000E+00 -0.00000000000E+00 -0.93930149028E+02  0.93930149028E+02  0.00000000000E+00 0. -1.
         21    1    1    2  503  501  0.20056665326E+02  0.17451369575E+01 -0.91366805947E+02  0.93558583550E+02  0.00000000000E+00 0. -1.
         21    1    1    2  504  502 -0.20056665326E+02 -0.17451369575E+01  0.67583304714E+02  0.70518213272E+02  0.00000000000E+00 0. -1.
<mgrwt>
<rscale>  2 0.20132445E+02</rscale>
<asrwt>0</asrwt>
<pdfrwt beam="1">  1       21 0.10791792E-01 0.20132445E+02</pdfrwt>
<pdfrwt beam="2">  1       21 0.14450792E-01 0.20132445E+02</pdfrwt>
<totfact> 0.25301878E+06</totfact>
</mgrwt>
</event>
<event>
 4    1  0.4505197E+006  0.2107069E+02  0.7546771E-02  0.1724838E+00
         21   -1    0    0  503  501  0.00000000000E+00  0.00000000000E+00  0.12325628720E+03  0.12325628720E+03  0.00000000000E+00 0. -1.
         21   -1    0    0  504  502 -0.00000000000E+00 -0.00000000000E+00 -0.21035285132E+02  0.21035285132E+02  0.00000000000E+00 0. -1.
         21    1    1    2  503  502  0.18970376202E+02  0.91705498525E+01  0.11678940230E+03  0.11867492847E+03  0.00000000000E+00 0. -1.
         21    1    1    2  504  501 -0.18970376202E+02 -0.91705498525E+01 -0.14568400227E+02  0.25616643867E+02  0.00000000000E+00 0. -1.
<mgrwt>
<rscale>  2 0.21070694E+02</rscale>
<asrwt>0</asrwt>
<pdfrwt beam="1">  1       21 0.18962505E-01 0.21070694E+02</pdfrwt>
<pdfrwt beam="2">  1       21 0.32361978E-02 0.21070694E+02</pdfrwt>
<totfact> 0.11014310E+07</totfact>
</mgrwt>
</event>
<event>
 4    1  0.4505197E+006  0.2037278E+02  0.7546771E-02  0.1738015E+00
         21   -1    0    0  504  501  0.00000000000E+00  0.00000000000E+00  0.33017129494E+01  0.33017129494E+01  0.00000000000E+00 0.  1.
         21   -1    0    0  503  502 -0.00000000000E+00 -0.00000000000E+00 -0.14574342766E+03  0.14574342766E+03  0.00000000000E+00 0.  1.
         21    1    1    2  503  501  0.96204244515E+01  0.17958219086E+02 -0.98851925467E+02  0.10092944748E+03  0.00000000000E+00 0.  1.
         21    1    1    2  504  502 -0.96204244515E+01 -0.17958219086E+02 -0.43589789245E+02  0.48115693135E+02  0.00000000000E+00 0.  1.
<mgrwt>
<rscale>  2 0.20372781E+02</rscale>
<asrwt>0</asrwt>
<pdfrwt beam="1">  1       21 0.50795594E-03 0.20372781E+02</pdfrwt>
<pdfrwt beam="2">  1       21 0.22422061E-01 0.20372781E+02</pdfrwt>
<totfact> 0.13336274E+08</totfact>
</mgrwt>
</event>
<event>
 4    1  0.4505197E+006  0.2454432E+02  0.7546771E-02  0.1667635E+00
         21   -1    0    0  502  501  0.00000000000E+00  0.00000000000E+00  0.11235212637E+04  0.11235212637E+04  0.00000000000E+00 0. -1.
         21   -1    0    0  504  502 -0.00000000000E+00 -0.00000000000E+00 -0.76181014826E+00  0.76181014826E+00  0.00000000000E+00 0. -1.
         21    1    1    2  503  501  0.43978681209E+01 -0.24147095221E+02  0.86730054024E+03  0.86764776872E+03  0.00000000000E+00 0. -1.
         21    1    1    2  504  503 -0.43978681209E+01  0.24147095221E+02  0.25545891332E+03  0.25663530514E+03  0.00000000000E+00 0. -1.
<mgrwt>
<rscale>  2 0.24544316E+02</rscale>
<asrwt>0</asrwt>
<pdfrwt beam="1">  1       21 0.17284810E+00 0.24544316E+02</pdfrwt>
<pdfrwt beam="2">  1       21 0.11720246E-03 0.24544316E+02</pdfrwt>
<totfact> 0.18068678E+07</totfact>
</mgrwt>
</event>
<event>
 4    1  0.4505197E+006  0.3466215E+02  0.7546771E-02  0.1551621E+00
         21   -1    0    0  503  501  0.00000000000E+00  0.00000000000E+00  0.40410454233E+03  0.40410454233E+03  0.00000000000E+00 0.  1.
         21   -1    0    0  504  502 -0.00000000000E+00 -0.00000000000E+00 -0.20001301017E+02  0.20001301017E+02  0.00000000000E+00 0.  1.
         21    1    1    2  503  502 -0.52028416910E+00  0.34658245511E+02 -0.36069355436E+01  0.34849313645E+02  0.00000000000E+00 0.  1.
         21    1    1    2  504  501  0.52028416910E+00 -0.34658245511E+02  0.38771017685E+03  0.38925652970E+03  0.00000000000E+00 0.  1.
<mgrwt>
<rscale>  2 0.34662151E+02</rscale>
<asrwt>0</asrwt>
<pdfrwt beam="1">  1       21 0.62169924E-01 0.34662151E+02</pdfrwt>
<pdfrwt beam="2">  1       21 0.30771235E-02 0.34662151E+02</pdfrwt>
<totfact> 0.13852173E+06</totfact>
</mgrwt>
</event>
<event>
 4    1  0.4505197E+006  0.2254805E+02  0.7546771E-02  0.1698943E+00
         21   -1    0    0  503  501  0.00000000000E+00  0.00000000000E+00  0.48376314527E+02  0.48376314527E+02  0.00000000000E+00 0. -1.
         21   -1    0    0  504  502 -0.00000000000E+00 -0.00000000000E+00 -0.14263814022E+02  0.14263814022E+02  0.00000000000E+00 0. -1.
         21    1    1    2  503  502  0.12893583995E+02 -0.18497842970E+02  0.98811291759E+00  0.22569693616E+02  0.00000000000E+00 0. -1.
         21    1    1    2  504  501 -0.12893583995E+02  0.18497842970E+02  0.33124387587E+02  0.40070434934E+02  0.00000000000E+00 0. -1.
<mgrwt>
<rscale>  2 0.22548053E+02</rscale>
<asrwt>0</asrwt>
<pdfrwt beam="1">  1       21 0.74425099E-02 0.22548053E+02</pdfrwt>
<pdfrwt beam="2">  1       21 0.21944329E-02 0.22548053E+02</pdfrwt>
<totfact> 0.97552184E+07</totfact>
</mgrwt>
</event>
<event>
 4    1  0.4505197E+006  0.2441159E+02  0.7546771E-02  0.1669600E+00
         21   -1    0    0  502  501  0.00000000000E+00  0.00000000000E+00  0.42768542330E+02  0.42768542330E+02  0.00000000000E+00 0.  1.
         21   -1    0    0  503  502 -0.00000000000E+00 -0.00000000000E+00 -0.15765227334E+02  0.15765227334E+02  0.00000000000E+00 0.  1.
         21    1    1    2  503  504  0.18658342019E+02 -0.15741402713E+02  0.35262862404E+01  0.24664958563E+02  0.00000000000E+00 0.  1.
         21    1    1    2  504  501 -0.18658342019E+02  0.15741402713E+02  0.23477028755E+02  0.33868811102E+02  0.00000000000E+00 0.  1.
<mgrwt>
<rscale>  2 0.24411585E+02</rscale>
<asrwt>0</asrwt>
<pdfrwt beam="1">  1       21 0.65797757E-02 0.24411585E+02</pdfrwt>
<pdfrwt beam="2">  1       21 0.24254196E-02 0.24411585E+02</pdfrwt>
<totfact> 0.10441908E+08</totfact>
</mgrwt>
</event>
<event>
 4    1  0.4505197E+006  0.2039837E+02  0.7546771E-02  0.1737520E+00
         21   -1    0    0  504  501  0.00000000000E+00  0.00000000000E+00  0.28473280724E+03  0.28473280724E+03  0.00000000000E+00 0. -1.
         21   -1    0    0  503  502 -0.00000000000E+00 -0.00000000000E+00 -0.18874431519E+01  0.18874431519E+01  0.00000000000E+00 0. -1.
         21    1    1    2  503  501 -0.63135613977E+01  0.19396708216E+02  0.73331026056E+02  0.76115259505E+02  0.00000000000E+00 0. -1.
         21    1    1    2  504  502  0.63135613977E+01 -0.19396708216E+02  0.20951433803E+03  0.21050499088E+03  0.00000000000E+00 0. -1.
<mgrwt>
<rscale>  2 0.20398366E+02</rscale>
<asrwt>0</asrwt>
<pdfrwt beam="1">  1       21 0.43805013E-01 0.20398366E+02</pdfrwt>
<pdfrwt beam="2">  1       21 0.29037610E-03 0.20398366E+02</pdfrwt>
<totfact> 0.89140424E+07</totfact>
</mgrwt>
</event>
<event>
 4    1  0.4505197E+006  0.2211131E+02  0.7546771E-02  0.1706334E+00
         21   -1    0    0  502  501  0.00000000000E+00  0.00000000000E+00  0.19882926219E+02  0.19882926219E+02  0.00000000000E+00 0.  1.
         21   -1    0    0  504  502 -0.00000000000E+00 -0.00000000000E+00 -0.33990176894E+03  0.33990176894E+03  0.00000000000E+00 0. -1.
         21    1    1    2  503  501 -0.16836579215E+01 -0.22047113567E+02  0.13253828693E+02  0.25779330784E+02  0.00000000000E+00 0.  1.
         21    1    1    2  504  503  0.16836579215E+01  0.22047113567E+02 -0.33327267142E+03  0.33400536438E+03  0.00000000000E+00 0. -1.
<mgrwt>
<rscale>  2 0.22111308E+02</rscale>
<asrwt>0</asrwt>
<pdfrwt beam="1">  1       21 0.30589117E-02 0.22111308E+02</pdfrwt>
<pdfrwt beam="2">  1       21 0.52292580E-01 0.22111308E+02</pdfrwt>
<totfact> 0.18936949E+06</totfact>
</mgrwt>
</event>
<event>
 4    1  0.4505197E+006  0.2875680E+02  0.7546771E-02  0.1612252E+00
         21   -1    0    0  504  501  0.00000000000E+00  0.00000000000E+00  0.14970456952E+04  0.14970456952E+04  0.00000000000E+00 0.  1.
         21   -1    0    0  503  502 -0.00000000000E+00 -0.00000000000E+00 -0.55306659553E+00  0.55306659553E+00  0.00000000000E+00 0.  1.
         21    1    1    2  503  501 -0.10045578999E+02 -0.26945122833E+02  0.77443368765E+03  0.77496741214E+03  0.00000000000E+00 0.  1.
         21    1    1    2  504  502  0.10045578999E+02  0.26945122833E+02  0.72205894096E+03  0.72263134967E+03  0.00000000000E+00 0.  1.
<mgrwt>
<rscale>  2 0.28756796E+02</rscale>
<asrwt>0</asrwt>
<pdfrwt beam="1">  1       21 0.23031148E+00 0.28756796E+02</pdfrwt>
<pdfrwt beam="2">  1       21 0.85088367E-04 0.28756796E+02</pdfrwt>
<totfact> 0.13746106E+07</totfact>
</mgrwt>
</event>
<event>
 4    1  0.4505197E+006  0.2716504E+02  0.7546771E-02  0.1631720E+00
         21   -1    0    0  504  501  0.00000000000E+00  0.00000000000E+00  0.15632806645E+03  0.15632806645E+03  0.00000000000E+00 0. -1.
         21   -1    0    0  503  502 -0.00000000000E+00 -0.00000000000E+00 -0.84497293921E+01  0.84497293921E+01  0.00000000000E+00 0. -1.
         21    1    1    2  503  501  0.10548378534E+01 -0.27144554190E+02  0.12867345982E+03  0.13150969078E+03  0.00000000000E+00 0. -1.
         21    1    1    2  504  502 -0.10548378534E+01  0.27144554190E+02  0.19204877233E+02  0.33268105065E+02  0.00000000000E+00 0. -1.
<mgrwt>
<rscale>  2 0.27165042E+02</rscale>
<asrwt>0</asrwt>
<pdfrwt beam="1">  1       21 0.24050470E-01 0.27165042E+02</pdfrwt>
<pdfrwt beam="2">  1       21 0.12999585E-02 0.27165042E+02</pdfrwt>
<totfact> 0.31088366E+07</totfact>
</mgrwt>
</event>
<event>
 4    1  0.4505197E+006  0.2147966E+02  0.7546771E-02  0.1717409E+00
         21   -1    0    0  504  501  0.00000000000E+00  0.00000000000E+00  0.39405399316E+01  0.39405399316E+01  0.00000000000E+00 0. -1.
         21   -1    0    0  503  502 -0.00000000000E+00 -0.00000000000E+00 -0.22587565913E+03  0.22587565913E+03  0.00000000000E+00 0. -1.
         21    1    1    2  503  501  0.21123948584E+02  0.38929125527E+01 -0.19071427721E+03  0.19192006540E+03  0.00000000000E+00 0. -1.
         21    1    1    2  504  502 -0.21123948584E+02 -0.38929125527E+01 -0.31220841990E+02  0.37896133662E+02  0.00000000000E+00 0. -1.
<mgrwt>
<rscale>  2 0.21479664E+02</rscale>
<asrwt>0</asrwt>
<pdfrwt beam="1">  1       21 0.60623698E-03 0.21479664E+02</pdfrwt>
<pdfrwt beam="2">  1       21 0.34750098E-01 0.21479664E+02</pdfrwt>
<totfact> 0.47420727E+07</totfact>
</mgrwt>
</event>
<event>
 4    1  0.4505197E+006  0.2973856E+02  0.7546771E-02  0.1600997E+00
         21   -1    0    0  502  501  0.00000000000E+00  0.00000000000E+00  0.79243600395E+02  0.79243600395E+02  0.00000000000E+00 0. -1.
         21   -1    0    0  504  502 -0.00000000000E+00 -0.00000000000E+00 -0.10057133656E+03  0.10057133656E+03  0.00000000000E+00 0.  1.
         21    1    1    2  503  501  0.97591580393E+01  0.28091647939E+02  0.74108485102E+02  0.79852673178E+02  0.00000000000E+00 0. -1.
         21    1    1    2  504  503 -0.97591580393E+01 -0.28091647939E+02 -0.95436221269E+02  0.99962263778E+02  0.00000000000E+00 0.  1.
<mgrwt>
<rscale>  2 0.29738558E+02</rscale>
<asrwt>0</asrwt>
<pdfrwt beam="1">  1       21 0.12191323E-01 0.29738558E+02</pdfrwt>
<pdfrwt beam="2">  1       21 0.15472513E-01 0.29738558E+02</pdfrwt>
<totfact> 0.19270713E+06</totfact>
</mgrwt>
</event>
<event>
 4    1  0.4505197E+006  0.2449451E+02  0.7546771E-02  0.1668370E+00
         21   -1    0    0  503  501  0.00000000000E+00  0.00000000000E+00  0.37239404142E+01  0.37239404142E+01  0.00000000000E+00 0. -1.
         21   -1    0    0  504  502 -0.00000000000E+00 -0.00000000000E+00 -0.42021283203E+03  0.42021283203E+03  0.00000000000E+00 0. -1.
         21    1    1    2  503  502  0.69453919809E+01 -0.23489201246E+02 -0.41800236174E+02  0.48448331128E+02  0.00000000000E+00 0. -1.
         21    1    1    2  504  501 -0.69453919809E+01  0.23489201246E+02 -0.37468865544E+03  0.37548844132E+03  0.00000000000E+00 0. -1.
<mgrwt>
<rscale>  2 0.24494511E+02</rscale>
<asrwt>0</asrwt>
<pdfrwt beam="1">  1       21 0.57291429E-03 0.24494511E+02</pdfrwt>
<pdfrwt beam="2">  1       21 0.64648085E-01 0.24494511E+02</pdfrwt>
<totfact> 0.15996825E+07</totfact>
</mgrwt>
</event>
<event>
 4    1  0.4505197E+006  0.3254684E+02  0.7546771E-02  0.1571531E+00
         21   -1    0    0  502  501  0.00000000000E+00  0.00000000000E+00  0.14727345065E+02  0.14727345065E+02  0.00000000000E+00 0.  1.
         21   -1    0    0  504  502 -0.00000000000E+00 -0.00000000000E+00 -0.24919765229E+03  0.24919765229E+03  0.00000000000E+00 0.  1.
         21    1    1    2  503  501  0.27477584038E+02 -0.17443607831E+02 -0.59347597106E+01  0.33083507244E+02  0.00000000000E+00 0.  1.
         21    1    1    2  504  503 -0.27477584038E+02  0.17443607831E+02 -0.22853554752E+03  0.23084149011E+03  0.00000000000E+00 0.  1.
<mgrwt>
<rscale>  2 0.32546844E+02</rscale>
<asrwt>0</asrwt>
<pdfrwt beam="1">  1       21 0.22657453E-02 0.32546844E+02</pdfrwt>
<pdfrwt beam="2">  1       21 0.38338102E-01 0.32546844E+02</pdfrwt>
<totfact> 0.57678288E+06</totfact>
</mgrwt>
</event>
<event>
 4    1  0.4505197E+006  0.2003316E+02  0.7546771E-02  0.1744669E+00
         21   -1    0    0  503  501  0.00000000000E+00  0.00000000000E+00  0.32039760071E+01  0.32039760071E+01  0.00000000000E+00 0. -1.
         21   -1    0    0  501  502 -0.00000000000E+00 -0.00000000000E+00 -0.15045126649E+03  0.15045126649E+03  0.00000000000E+00 0. -1.
         21    1    1    2  503  504 -0.70408453779E+01  0.18755110760E+02 -0.42185943463E+02  0.46700979745E+02  0.00000000000E+00 0. -1.
         21    1    1    2  504  502  0.70408453779E+01 -0.18755110760E+02 -0.10506134702E+03  0.10695426275E+03  0.00000000000E+00 0. -1.
<mgrwt>
<rscale>  2 0.20033165E+02</rscale>
<asrwt>0</asrwt>
<pdfrwt beam="1">  1       21 0.49291935E-03 0.20033165E+02</pdfrwt>
<pdfrwt beam="2">  1       21 0.23146350E-01 0.20033165E+02</pdfrwt>
<totfact> 0.13113912E+08</totfact>
</mgrwt>
</event>
<event>
 4    1  0.4505197E+006  0.2754592E+02  0.7546771E-02  0.1626915E+00
         21   -1    0    0  503  501  0.00000000000E+00  0.00000000000E+00  0.44098517367E+01  0.44098517367E+01  0.00000000000E+00 0.  1.
         21   -1    0    0  501  502 -0.00000000000E+00 -0.00000000000E+00 -0.18402532038E+03  0.18402532038E+03  0.00000000000E+00 0.  1.
         21    1    1    2  503  504  0.50854004825E+01 -0.27072433433E+02 -0.65787473574E+02  0.71321593009E+02  0.00000000000E+00 0.  1.
         21    1    1    2  504  502 -0.50854004825E+01  0.27072433433E+02 -0.11382799507E+03  0.11711357911E+03  0.00000000000E+00 0.  1.
<mgrwt>
<rscale>  2 0.27545924E+02</rscale>
<asrwt>0</asrwt>
<pdfrwt beam="1">  1       21 0.67843877E-03 0.27545924E+02</pdfrwt>
<pdfrwt beam="2">  1       21 0.28311586E-01 0.27545924E+02</pdfrwt>
<totfact> 0.61961935E+07</totfact>
</mgrwt>
</event>
<event>
 4    1  0.4505197E+006  0.2637261E+02  0.7546771E-02  0.1642035E+00
         21   -1    0    0  504  501  0.00000000000E+00  0.00000000000E+00  0.49087097530E+02  0.49087097530E+02  0.00000000000E+00 0.  1.
         21   -1    0    0  503  502 -0.00000000000E+00 -0.00000000000E+00 -0.15045685680E+02  0.15045685680E+02  0.00000000000E+00 0.  1.
         21    1    1    2  503  501 -0.13894680517E+02 -0.22415451284E+02  0.92802153142E+01  0.27957771714E+02  0.00000000000E+00 0.  1.
         21    1    1    2  504  502  0.13894680517E+02  0.22415451284E+02  0.24761196536E+02  0.36175011497E+02  0.00000000000E+00 0.  1.
<mgrwt>
<rscale>  2 0.26372611E+02</rscale>
<asrwt>0</asrwt>
<pdfrwt beam="1">  1       21 0.75518611E-02 0.26372611E+02</pdfrwt>
<pdfrwt beam="2">  1       21 0.23147209E-02 0.26372611E+02</pdfrwt>
<totfact> 0.91561936E+07</totfact>
</mgrwt>
</event>
<event>
 4    1  0.4505197E+006  0.2781744E+02  0.7546771E-02  0.1623548E+00
         21   -1    0    0  502  501  0.00000000000E+00  0.00000000000E+00  0.44555883207E+03  0.44555883207E+03  0.00000000000E+00 0.  1.
         21   -1    0    0  504  502 -0.00000000000E+00 -0.00000000000E+00 -0.56676411690E+02  0.56676411690E+02  0.00000000000E+00 0. -1.
         21    1    1    2  503  501 -0.27794939897E+02  0.11186603324E+01  0.44168143695E+03  0.44255655213E+03  0.00000000000E+00 0.  1.
         21    1    1    2  504  503  0.27794939897E+02 -0.11186603324E+01 -0.52799016568E+02  0.59678691636E+02  0.00000000000E+00 0. -1.
<mgrwt>
<rscale>  2 0.27817442E+02</rscale>
<asrwt>0</asrwt>
<pdfrwt beam="1">  1       21 0.68547510E-01 0.27817442E+02</pdfrwt>
<pdfrwt beam="2">  1       21 0.87194482E-02 0.27817442E+02</pdfrwt>
<totfact> 0.20893967E+05</totfact>
</mgrwt>
</event>
<event>
 4    1  0.4505197E+006  0.2033910E+02  0.7546771E-02  0.1738668E+00
         21   -1    0    0  502  501  0.00000000000E+00  0.00000000000E+00  0.49617590546E+01  0.49617590546E+01  0.00000000000E+00 0. -1.
         21   -1    0    0  504  502 -0.00000000000E+00 -0.00000000000E+00 -0.62262384656E+03  0.62262384656E+03  0.00000000000E+00 0. -1.
         21    1    1    2  503  501  0.31035866170E+01  0.20100914700E+02 -0.16802477893E+02  0.26381855223E+02  0.00000000000E+00 0. -1.
         21    1    1    2  504  503 -0.31035866170E+01 -0.20100914700E+02 -0.60085960961E+03  0.60120375039E+03  0.00000000000E+00 0. -1.
<mgrwt>
<rscale>  2 0.20339101E+02</rscale>
<asrwt>0</asrwt>
<pdfrwt beam="1">  1       21 0.76334781E-03 0.20339101E+02</pdfrwt>
<pdfrwt beam="2">  1       21 0.95788251E-01 0.20339101E+02</pdfrwt>
<totfact> 0.44537676E+06</totfact>
</mgrwt>
</event>
<event>
 4    1  0.4505197E+006  0.2656625E+02  0.7546771E-02  0.1639474E+00
         21   -1    0    0  503  501  0.00000000000E+00  0.00000000000E+00  0.14076153675E+03  0.14076153675E+03  0.00000000000E+00 0.  1.
         21   -1    0    0  504  502 -0.00000000000E+00 -0.00000000000E+00 -0.50482674199E+01  0.50482674199E+01  0.00000000000E+00 0.  1.
         21    1    1    2  503  502 -0.26449291302E+02 -0.24901269945E+01  0.61842227060E+02  0.67306959451E+02  0.00000000000E+00 0.  1.
         21    1    1    2  504  501  0.26449291302E+02  0.24901269945E+01  0.73871042274E+02  0.78502844722E+02  0.00000000000E+00 0.  1.
<mgrwt>
<rscale>  2 0.26566252E+02</rscale>
<asrwt>0</asrwt>
<pdfrwt beam="1">  1       21 0.21655618E-01 0.26566252E+02</pdfrwt>
<pdfrwt beam="2">  1       21 0.77665663E-03 0.26566252E+02</pdfrwt>
<totfact> 0.81146582E+07</totfact>
</mgrwt>
</event>
<event>
 4    1  0.4505197E+006  0.2010366E+02  0.7546771E-02  0.1743275E+00
         21   -1    0    0  503  501  0.00000000000E+00  0.00000000000E+00  0.56936970429E+02  0.56936970429E+02  0.00000000000E+00 0. -1.
         21   -1    0    0  501  502 -0.00000000000E+00 -0.00000000000E+00 -0.17767408125E+02  0.17767408125E+02  0.00000000000E+00 0. -1.
         21    1    1    2  503  504 -0.14119987469E+02  0.14310241629E+02  0.48529383867E+02  0.52528641332E+02  0.00000000000E+00 0. -1.
         21    1    1    2  504  502  0.14119987469E+02 -0.14310241629E+02 -0.93598215638E+01  0.22175737222E+02  0.00000000000E+00 0. -1.
<mgrwt>
<rscale>  2 0.20103658E+02</rscale>
<asrwt>0</asrwt>
<pdfrwt beam="1">  1       21 0.87595338E-02 0.20103658E+02</pdfrwt>
<pdfrwt beam="2">  1       21 0.27334474E-02 0.20103658E+02</pdfrwt>
<totfact> 0.51668005E+07</totfact>
</mgrwt>
</event>
<event>
 4    1  0.4505197E+006  0.2080721E+02  0.7546771E-02  0.1729736E+00
         21   -1    0    0  504  501  0.00000000000E+00  0.00000000000E+00  0.44177585868E+01  0.44177585868E+01  0.00000000000E+00 0.  1.
         21   -1    0    0  501  502 -0.00000000000E+00 -0.00000000000E+00 -0.18780599351E+03  0.18780599351E+03  0.00000000000E+00 0.  1.
         21    1    1    2  503  502 -0.23804346545E+01 -0.20670598822E+02 -0.15815637822E+03  0.15951921545E+03  0.00000000000E+00 0.  1.
         21    1    1    2  504  503  0.23804346545E+01  0.20670598822E+02 -0.25231856699E+02  0.32704536646E+02  0.00000000000E+00 0.  1.
<mgrwt>
<rscale>  2 0.20807213E+02</rscale>
<asrwt>0</asrwt>
<pdfrwt beam="1">  1       21 0.67965521E-03 0.20807213E+02</pdfrwt>
<pdfrwt beam="2">  1       21 0.28893228E-01 0.20807213E+02</pdfrwt>
<totfact> 0.55618842E+07</totfact>
</mgrwt>
</event>
<event>
 4    1  0.4505197E+006  0.4039361E+02  0.7546771E-02  0.1505335E+00
         21   -1    0    0  502  501  0.00000000000E+00  0.00000000000E+00  0.27890650768E+02  0.27890650768E+02  0.00000000000E+00 0. -1.
         21   -1    0    0  503  502 -0.00000000000E+00 -0.00000000000E+00 -0.66247154269E+03  0.66247154269E+03  0.00000000000E+00 0.  1.
         21    1    1    2  503  504 -0.36325225707E+02 -0.17666959547E+02 -0.64687823108E+03  0.64813817148E+03  0.00000000000E+00 0.  1.
         21    1    1    2  504  501  0.36325225707E+02  0.17666959547E+02  0.12297339152E+02  0.42224021984E+02  0.00000000000E+00 0. -1.
<mgrwt>
<rscale>  2 0.40393607E+02</rscale>
<asrwt>0</asrwt>
<pdfrwt beam="1">  1       21 0.42908691E-02 0.40393607E+02</pdfrwt>
<pdfrwt beam="2">  1       21 0.10191870E+00 0.40393607E+02</pdfrwt>
<totfact> 0.28408014E+05</totfact>
</mgrwt>
</event>
<event>
 4    1  0.4505197E+006  0.2390781E+02  0.7546771E-02  0.1677204E+00
         21   -1    0    0  502  501  0.00000000000E+00  0.00000000000E+00  0.19016475372E+02  0.19016475372E+02  0.00000000000E+00 0.  1.
         21   -1    0    0  504  502 -0.00000000000E+00 -0.00000000000E+00 -0.17094997125E+03  0.17094997125E+03  0.00000000000E+00 0. -1.
         21    1    1    2  503  501  0.20208460073E+02 -0.12775030686E+02  0.10262905522E+02  0.26017503671E+02  0.00000000000E+00 0.  1.
         21    1    1    2  504  503 -0.20208460073E+02  0.12775030686E+02 -0.16219640140E+03  0.16394894295E+03  0.00000000000E+00 0. -1.
<mgrwt>
<rscale>  2 0.23907808E+02</rscale>
<asrwt>0</asrwt>
<pdfrwt beam="1">  1       21 0.29256116E-02 0.23907808E+02</pdfrwt>
<pdfrwt beam="2">  1       21 0.26299996E-01 0.23907808E+02</pdfrwt>
<totfact> 0.74178269E+06</totfact>
</mgrwt>
</event>
<event>
 4    1  0.4505197E+006  0.2457815E+02  0.7546771E-02  0.1667136E+00
         21   -1    0    0  502  501  0.00000000000E+00  0.00000000000E+00  0.82351497465E+00  0.82351497465E+00  0.00000000000E+00 0. -1.
         21   -1    0    0  504  502 -0.00000000000E+00 -0.00000000000E+00 -0.95683163112E+03  0.95683163112E+03  0.00000000000E+00 0.  1.
         21    1    1    2  503  501  0.15421269298E+02 -0.19138177637E+02 -0.24669500319E+03  0.24791633667E+03  0.00000000000E+00 0. -1.
         21    1    1    2  504  503 -0.15421269298E+02  0.19138177637E+02 -0.70931311295E+03  0.70973880942E+03  0.00000000000E+00 0.  1.
<mgrwt>
<rscale>  2 0.24578149E+02</rscale>
<asrwt>0</asrwt>
<pdfrwt beam="1">  1       21 0.12669447E-03 0.24578149E+02</pdfrwt>
<pdfrwt beam="2">  1       21 0.14720504E+00 0.24578149E+02</pdfrwt>
<totfact> 0.23834210E+07</totfact>
</mgrwt>
</event>
<event>
 4    1  0.4505197E+006  0.3690396E+02  0.7546771E-02  0.1532315E+00
         21   -1    0    0  502  501  0.00000000000E+00  0.00000000000E+00  0.15869806693E+03  0.15869806693E+03  0.00000000000E+00 0. -1.
         21   -1    0    0  504  502 -0.00000000000E+00 -0.00000000000E+00 -0.13034098899E+02  0.13034098899E+02  0.00000000000E+00 0. -1.
         21    1    1    2  503  501 -0.36620031688E+02 -0.45689399819E+01  0.12301737814E+03  0.12843355191E+03  0.00000000000E+00 0. -1.
         21    1    1    2  504  503  0.36620031688E+02  0.45689399819E+01  0.22646589897E+02  0.43298613919E+02  0.00000000000E+00 0. -1.
<mgrwt>
<rscale>  2 0.36903956E+02</rscale>
<asrwt>0</asrwt>
<pdfrwt beam="1">  1       21 0.24415086E-01 0.36903956E+02</pdfrwt>
<pdfrwt beam="2">  1       21 0.20052461E-02 0.36903956E+02</pdfrwt>
<totfact> 0.16406383E+07</totfact>
</mgrwt>
</event>
<event>
 4    1  0.4505197E+006  0.2264721E+02  0.7546771E-02  0.1697293E+00
         21   -1    0    0  503  501  0.00000000000E+00  0.00000000000E+00  0.16362954546E+02  0.16362954546E+02  0.00000000000E+00 0.  1.
         21   -1    0    0  504  502 -0.00000000000E+00 -0.00000000000E+00 -0.31370359433E+02  0.31370359433E+02  0.00000000000E+00 0.  1.
         21    1    1    2  503  502 -0.10238490228E+02  0.20200732246E+02 -0.68246762559E+01  0.23653170431E+02  0.00000000000E+00 0.  1.
         21    1    1    2  504  501  0.10238490228E+02 -0.20200732246E+02 -0.81827286314E+01  0.24080143548E+02  0.00000000000E+00 0.  1.
<mgrwt>
<rscale>  2 0.22647213E+02</rscale>
<asrwt>0</asrwt>
<pdfrwt beam="1">  1       21 0.25173777E-02 0.22647213E+02</pdfrwt>
<pdfrwt beam="2">  1       21 0.48262091E-02 0.22647213E+02</pdfrwt>
<totfact> 0.15843457E+08</totfact>
</mgrwt>
</event>
<event>
 4    1  0.4505197E+006  0.2678860E+02  0.7546771E-02  0.1636565E+00
         21   -1    0    0  503  501  0.00000000000E+00  0.00000000000E+00  0.38811154816E+02  0.38811154816E+02  0.00000000000E+00 0.  1.
         21   -1    0    0  501  502 -0.00000000000E+00 -0.00000000000E+00 -0.41247953446E+02  0.41247953446E+02  0.00000000000E+00 0. -1.
         21    1    1    2  503  504 -0.76188725859E+01 -0.25682330791E+02  0.28514922258E+02  0.39124546333E+02  0.00000000000E+00 0.  1.
         21    1    1    2  504  502  0.76188725859E+01  0.25682330791E+02 -0.30951720889E+02  0.40934561929E+02  0.00000000000E+00 0. -1.
<mgrwt>
<rscale>  2 0.26788605E+02</rscale>
<asrwt>0</asrwt>
<pdfrwt beam="1">  1       21 0.59709469E-02 0.26788605E+02</pdfrwt>
<pdfrwt beam="2">  1       21 0.63458390E-02 0.26788605E+02</pdfrwt>
<totfact> 0.27279823E+07</totfact>
</mgrwt>
</event>
<event>
 4    1  0.4505197E+006  0.2791209E+02  0.7546771E-02  0.1622385E+00
         21   -1    0    0  503  501  0.00000000000E+00  0.00000000000E+00  0.17664026809E+01  0.17664026809E+01  0.00000000000E+00 0. -1.
         21   -1    0    0  504  502 -0.00000000000E+00 -0.00000000000E+00 -0.10947555254E+04  0.10947555254E+04  0.00000000000E+00 0.  1.
         21    1    1    2  503  502 -0.20149551263E+02  0.19315286151E+02 -0.12283459768E+03  0.12596596002E+03  0.00000000000E+00 0. -1.
         21    1    1    2  504  501  0.20149551263E+02 -0.19315286151E+02 -0.97015452506E+03  0.97055596809E+03  0.00000000000E+00 0.  1.
<mgrwt>
<rscale>  2 0.27912089E+02</rscale>
<asrwt>0</asrwt>
<pdfrwt beam="1">  1       21 0.27175496E-03 0.27912089E+02</pdfrwt>
<pdfrwt beam="2">  1       21 0.16842349E+00 0.27912089E+02</pdfrwt>
<totfact> 0.57981118E+06</totfact>
</mgrwt>
</event>
<event>
 4    1  0.4505197E+006  0.2311640E+02  0.7546771E-02  0.1689630E+00
         21   -1    0    0  502  501  0.00000000000E+00  0.00000000000E+00  0.17858691356E+03  0.17858691356E+03  0.00000000000E+00 0. -1.
         21   -1    0    0  503  502 -0.00000000000E+00 -0.00000000000E+00 -0.43747031002E+02  0.43747031002E+02  0.00000000000E+00 0. -1.
         21    1    1    2  503  504  0.17576611454E+02 -0.15014346574E+02 -0.39877911368E+02  0.46093553653E+02  0.00000000000E+00 0. -1.
         21    1    1    2  504  501 -0.17576611454E+02  0.15014346574E+02  0.17471779393E+03  0.17624039091E+03  0.00000000000E+00 0. -1.
<mgrwt>
<rscale>  2 0.23116398E+02</rscale>
<asrwt>0</asrwt>
<pdfrwt beam="1">  1       21 0.27474909E-01 0.23116398E+02</pdfrwt>
<pdfrwt beam="2">  1       21 0.67303126E-02 0.23116398E+02</pdfrwt>
<totfact> 0.18210453E+06</totfact>
</mgrwt>
</event>
<event>
 4    1  0.4505197E+006  0.2825237E+02  0.7546771E-02  0.1618251E+00
         21   -1    0    0  504  501  0.00000000000E+00  0.00000000000E+00  0.37815358613E+01  0.37815358613E+01  0.00000000000E+00 0. -1.
         21   -1    0    0  503  502 -0.00000000000E+00 -0.00000000000E+00 -0.21165582108E+03  0.21165582108E+03  0.00000000000E+00 0. -1.
         21    1    1    2  503  501 -0.14372570829E+02 -0.24323350328E+02 -0.10956906867E+03  0.11315289202E+03  0.00000000000E+00 0. -1.
         21    1    1    2  504  502  0.14372570829E+02  0.24323350328E+02 -0.98305216552E+02  0.10228446492E+03  0.00000000000E+00 0. -1.
<mgrwt>
<rscale>  2 0.28252366E+02</rscale>
<asrwt>0</asrwt>
<pdfrwt beam="1">  1       21 0.58177459E-03 0.28252366E+02</pdfrwt>
<pdfrwt beam="2">  1       21 0.32562443E-01 0.28252366E+02</pdfrwt>
<totfact> 0.60634127E+07</totfact>
</mgrwt>
</event>
<event>
 4    1  0.4505197E+006  0.3044117E+02  0.7546771E-02  0.1593263E+00
         21   -1    0    0  504  501  0.00000000000E+00  0.00000000000E+00  0.62404315869E+02  0.62404315869E+02  0.00000000000E+00 0.  1.
         21   -1    0    0  503  502 -0.00000000000E+00 -0.00000000000E+00 -0.42626161782E+02  0.42626161782E+02  0.00000000000E+00 0. -1.
         21    1    1    2  503  501  0.30421740696E+02 -0.10874192149E+01  0.52281503032E+02  0.60498102010E+02  0.00000000000E+00 0.  1.
         21    1    1    2  504  502 -0.30421740696E+02  0.10874192149E+01 -0.32503348946E+02  0.44532375641E+02  0.00000000000E+00 0. -1.
<mgrwt>
<rscale>  2 0.30441169E+02</rscale>
<asrwt>0</asrwt>
<pdfrwt beam="1">  1       21 0.96006640E-02 0.30441169E+02</pdfrwt>
<pdfrwt beam="2">  1       21 0.65578710E-02 0.30441169E+02</pdfrwt>
<totfact> 0.12157730E+07</totfact>
</mgrwt>
</event>
<event>
 4    1  0.4505197E+006  0.2020839E+02  0.7546771E-02  0.1741215E+00
         21   -1    0    0  504  501  0.00000000000E+00  0.00000000000E+00  0.15068703849E+02  0.15068703849E+02  0.00000000000E+00 0. -1.
         21   -1    0    0  501  502 -0.00000000000E+00 -0.00000000000E+00 -0.13686755000E+03  0.13686755000E+03  0.00000000000E+00 0. -1.
         21    1    1    2  503  502  0.19975542428E+02  0.30589053856E+01 -0.12893183736E+03  0.13050593045E+03  0.00000000000E+00 0. -1.
         21    1    1    2  504  503 -0.19975542428E+02 -0.30589053856E+01  0.71329912082E+01  0.21430323400E+02  0.00000000000E+00 0. -1.
<mgrwt>
<rscale>  2 0.20208394E+02</rscale>
<asrwt>0</asrwt>
<pdfrwt beam="1">  1       21 0.23182621E-02 0.20208394E+02</pdfrwt>
<pdfrwt beam="2">  1       21 0.21056546E-01 0.20208394E+02</pdfrwt>
<totfact> 0.15243298E+07</totfact>
</mgrwt>
</event>
<event>
 4    1  0.4505197E+006  0.4844575E+02  0.7546771E-02  0.1453910E+00
         21   -1    0    0  503  501  0.00000000000E+00  0.00000000000E+00  0.64934898189E+01  0.64934898189E+01  0.00000000000E+00 0. -1.
         21   -1    0    0  504  502 -0.00000000000E+00 -0.00000000000E+00 -0.52427856130E+03  0.52427856130E+03  0.00000000000E+00 0. -1.
         21    1    1    2  503  502  0.16709093872E+02  0.45473039626E+02 -0.11098889113E+03  0.12110130101E+03  0.00000000000E+00 0. -1.
         21    1    1    2  504  501 -0.16709093872E+02 -0.45473039626E+02 -0.40679618034E+03  0.40967075011E+03  0.00000000000E+00 0. -1.
<mgrwt>
<rscale>  2 0.48445755E+02</rscale>
<asrwt>0</asrwt>
<pdfrwt beam="1">  1       21 0.99899838E-03 0.48445755E+02</pdfrwt>
<pdfrwt beam="2">  1       21 0.80658245E-01 0.48445755E+02</pdfrwt>
<totfact> 0.47446689E+06</totfact>
</mgrwt>
</event>
<event>
 4    1  0.4505197E+006  0.2073544E+02  0.7546771E-02  0.1731086E+00
         21   -1    0    0  504  501  0.00000000000E+00  0.00000000000E+00  0.11684342767E+04  0.11684342767E+04  0.00000000000E+00 0. -1.
         21   -1    0    0  503  502 -0.00000000000E+00 -0.00000000000E+00 -0.99383025957E+00  0.99383025957E+00  0.00000000000E+00 0. -1.
         21    1    1    2  503  501 -0.12117355795E+02  0.16826415223E+02  0.10477258020E+04  0.10479309685E+04  0.00000000000E+00 0. -1.
         21    1    1    2  504  502  0.12117355795E+02 -0.16826415223E+02  0.11971464441E+03  0.12149713843E+03  0.00000000000E+00 0. -1.
<mgrwt>
<rscale>  2 0.20735442E+02</rscale>
<asrwt>0</asrwt>
<pdfrwt beam="1">  1       21 0.17975802E+00 0.20735442E+02</pdfrwt>
<pdfrwt beam="2">  1       21 0.15289790E-03 0.20735442E+02</pdfrwt>
<totfact> 0.10938813E+07</totfact>
</mgrwt>
</event>
<event>
 4    1  0.4505197E+006  0.2773662E+02  0.7546771E-02  0.1624545E+00
         21   -1    0    0  503  501  0.00000000000E+00  0.00000000000E+00  0.54357451188E+01  0.54357451188E+01  0.00000000000E+00 0. -1.
         21   -1    0    0  504  502 -0.00000000000E+00 -0.00000000000E+00 -0.48993702411E+03  0.48993702411E+03  0.00000000000E+00 0. -1.
         21    1    1    2  503  502 -0.69194571276E+01  0.26859656569E+02 -0.33380880274E+02  0.43400497760E+02  0.00000000000E+00 0. -1.
         21    1    1    2  504  501  0.69194571276E+01 -0.26859656569E+02 -0.45112039872E+03  0.45197227147E+03  0.00000000000E+00 0. -1.
<mgrwt>
<rscale>  2 0.27736619E+02</rscale>
<asrwt>0</asrwt>
<pdfrwt beam="1">  1       21 0.83626818E-03 0.27736619E+02</pdfrwt>
<pdfrwt beam="2">  1       21 0.75374954E-01 0.27736619E+02</pdfrwt>
<totfact> 0.67599305E+06</totfact>
</mgrwt>
</event>
<event>
 4    1  0.4505197E+006  0.3770312E+02  0.7546771E-02  0.1525828E+00
         21   -1    0    0  503  501  0.00000000000E+00  0.00000000000E+00  0.69647353616E+01  0.69647353616E+01  0.00000000000E+00 0. -1.
         21   -1    0    0  504  502 -0.00000000000E+00 -0.00000000000E+00 -0.21316236953E+03  0.21316236953E+03  0.00000000000E+00 0. -1.
         21    1    1    2  503  502  0.29226254262E+02  0.23819136350E+02 -0.80408999525E+02  0.88809528764E+02  0.00000000000E+00 0. -1.
         21    1    1    2  504  501 -0.29226254262E+02 -0.23819136350E+02 -0.12578863465E+03  0.13131757613E+03  0.00000000000E+00 0. -1.
<mgrwt>
<rscale>  2 0.37703119E+02</rscale>
<asrwt>0</asrwt>
<pdfrwt beam="1">  1       21 0.10714978E-02 0.37703119E+02</pdfrwt>
<pdfrwt beam="2">  1       21 0.32794210E-01 0.37703119E+02</pdfrwt>
<totfact> 0.25154853E+07</totfact>
</mgrwt>
</event>
<event>
 4    1  0.4505197E+006  0.2537332E+02  0.7546771E-02  0.1655697E+00
         21   -1    0    0  503  501  0.00000000000E+00  0.00000000000E+00  0.78232172929E+02  0.78232172929E+02  0.00000000000E+00 0.  1.
         21   -1    0    0  504  502 -0.00000000000E+00 -0.00000000000E+00 -0.58535216662E+02  0.58535216662E+02  0.00000000000E+00 0.  1.
         21    1    1    2  503  502 -0.10820702926E+02  0.22950329400E+02  0.73243181257E+02  0.77513668678E+02  0.00000000000E+00 0.  1.
         21    1    1    2  504  501  0.10820702926E+02 -0.22950329400E+02 -0.53546224989E+02  0.59253720912E+02  0.00000000000E+00 0.  1.
<mgrwt>
<rscale>  2 0.25373317E+02</rscale>
<asrwt>0</asrwt>
<pdfrwt beam="1">  1       21 0.12035719E-01 0.25373317E+02</pdfrwt>
<pdfrwt beam="2">  1       21 0.90054179E-02 0.25373317E+02</pdfrwt>
<totfact> 0.48060260E+06</totfact>
</mgrwt>
</event>
<event>
 4    1  0.4505197E+006  0.2179812E+02  0.7546771E-02  0.1711767E+00
         21   -1    0    0  502  501  0.00000000000E+00  0.00000000000E+00  0.62389477097E+02  0.62389477097E+02  0.00000000000E+00 0. -1.
         21   -1    0    0  503  502 -0.00000000000E+00 -0.00000000000E+00 -0.22054849787E+02  0.22054849787E+02  0.00000000000E+00 0. -1.
         21    1    1    2  503  504 -0.38272031085E+01  0.21459505186E+02 -0.13995594132E+02  0.25904333644E+02  0.00000000000E+00 0. -1.
         21    1    1    2  504  501  0.38272031085E+01 -0.21459505186E+02  0.54330221443E+02  0.58539993240E+02  0.00000000000E+00 0. -1.
<mgrwt>
<rscale>  2 0.21798116E+02</rscale>
<asrwt>0</asrwt>
<pdfrwt beam="1">  1       21 0.95983810E-02 0.21798116E+02</pdfrwt>
<pdfrwt beam="2">  1       21 0.33930539E-02 0.21798116E+02</pdfrwt>
<totfact> 0.32467963E+07</totfact>
</mgrwt>
</event>
<event>
 4    1  0.4505197E+006  0.2571314E+02  0.7546771E-02  0.1650965E+00
         21   -1    0    0  504  501  0.00000000000E+00  0.00000000000E+00  0.10903092338E+02  0.10903092338E+02  0.00000000000E+00 0. -1.
         21   -1    0    0  501  502 -0.00000000000E+00 -0.00000000000E+00 -0.19660174788E+03  0.19660174788E+03  0.00000000000E+00 0.  1.
         21    1    1    2  503  502  0.65078099419E+00 -0.25704899976E+02 -0.17912982569E+03  0.18096590798E+03  0.00000000000E+00 0.  1.
         21    1    1    2  504  503 -0.65078099419E+00  0.25704899976E+02 -0.65688298502E+01  0.26538932237E+02  0.00000000000E+00 0. -1.
<mgrwt>
<rscale>  2 0.25713137E+02</rscale>
<asrwt>0</asrwt>
<pdfrwt beam="1">  1       21 0.16773987E-02 0.25713137E+02</pdfrwt>
<pdfrwt beam="2">  1       21 0.30246424E-01 0.25713137E+02</pdfrwt>
<totfact> 0.13768258E+07</totfact>
</mgrwt>
</event>
<event>
 4    1  0.4505197E+006  0.2707041E+02  0.7546771E-02  0.1632929E+00
         21   -1    0    0  503  501  0.00000000000E+00  0.00000000000E+00  0.15491467262E+03  0.15491467262E+03  0.00000000000E+00 0.  1.
         21   -1    0    0  504  502 -0.00000000000E+00 -0.00000000000E+00 -0.10646042480E+02  0.10646042480E+02  0.00000000000E+00 0.  1.
         21    1    1    2  503  502 -0.17963050061E+02  0.20251813496E+02  0.13384131838E+03  0.13655147609E+03  0.00000000000E+00 0.  1.
         21    1    1    2  504  501  0.17963050061E+02 -0.20251813496E+02  0.10427311763E+02  0.29009239011E+02  0.00000000000E+00 0.  1.
<mgrwt>
<rscale>  2 0.27070410E+02</rscale>
<asrwt>0</asrwt>
<pdfrwt beam="1">  1       21 0.23833025E-01 0.27070410E+02</pdfrwt>
<pdfrwt beam="2">  1       21 0.16378528E-02 0.27070410E+02</pdfrwt>
<totfact> 0.22184132E+07</totfact>
</mgrwt>
</event>
<event>
 4    1  0.4505197E+006  0.2010523E+02  0.7546771E-02  0.1743244E+00
         21   -1    0    0  502  501  0.00000000000E+00  0.00000000000E+00  0.96324431885E+00  0.96324431885E+00  0.00000000000E+00 0. -1.
         21   -1    0    0  503  502 -0.00000000000E+00 -0.00000000000E+00 -0.13189066706E+04  0.13189066706E+04  0.00000000000E+00 0. -1.
         21    1    1    2  503  504  0.34907771998E+01 -0.19799865702E+02 -0.12038973709E+04  0.12040652390E+04  0.00000000000E+00 0. -1.
         21    1    1    2  504  501 -0.34907771998E+01  0.19799865702E+02 -0.11404605541E+03  0.11580467591E+03  0.00000000000E+00 0. -1.
<mgrwt>
<rscale>  2 0.20105228E+02</rscale>
<asrwt>0</asrwt>
<pdfrwt beam="1">  1       21 0.14819176E-03 0.20105228E+02</pdfrwt>
<pdfrwt beam="2">  1       21 0.20290827E+00 0.20105228E+02</pdfrwt>
<totfact> 0.84008832E+06</totfact>
</mgrwt>
</event>
<event>
 4    1  0.4505197E+006  0.4226810E+02  0.7546771E-02  0.1492154E+00
         21   -1    0    0  503  501  0.00000000000E+00  0.00000000000E+00  0.29318815571E+02  0.29318815571E+02  0.00000000000E+00 0. -1.
         21   -1    0    0  504  502 -0.00000000000E+00 -0.00000000000E+00 -0.12065045901E+03  0.12065045901E+03  0.00000000000E+00 0. -1.
         21    1    1    2  503  502  0.37290226802E+02  0.19900538245E+02 -0.98418551859E+02  0.10711117489E+03  0.00000000000E+00 0. -1.
         21    1    1    2  504  501 -0.37290226802E+02 -0.19900538245E+02  0.70869084246E+01  0.42858099682E+02  0.00000000000E+00 0. -1.
<mgrwt>
<rscale>  2 0.42268102E+02</rscale>
<asrwt>0</asrwt>
<pdfrwt beam="1">  1       21 0.45105871E-02 0.42268102E+02</pdfrwt>
<pdfrwt beam="2">  1       21 0.18561609E-01 0.42268102E+02</pdfrwt>
<totfact> 0.75436106E+06</totfact>
</mgrwt>
</event>
<event>
 4    1  0.4505197E+006  0.3260468E+02  0.7546771E-02  0.1570962E+00
         21   -1    0    0  503  501  0.00000000000E+00  0.00000000000E+00  0.12922917998E+02  0.12922917998E+02  0.00000000000E+00 0.  1.
         21   -1    0    0  504  502 -0.00000000000E+00 -0.00000000000E+00 -0.37945307078E+03  0.37945307078E+03  0.00000000000E+00 0. -1.
         21    1    1    2  503  502 -0.32473225522E+02 -0.29248557867E+01 -0.96404734385E+01  0.34000057137E+02  0.00000000000E+00 0.  1.
         21    1    1    2  504  501  0.32473225522E+02  0.29248557867E+01 -0.35688967935E+03  0.35837593164E+03  0.00000000000E+00 0. -1.
<mgrwt>
<rscale>  2 0.32604680E+02</rscale>
<asrwt>0</asrwt>
<pdfrwt beam="1">  1       21 0.19881414E-02 0.32604680E+02</pdfrwt>
<pdfrwt beam="2">  1       21 0.58377390E-01 0.32604680E+02</pdfrwt>
<totfact> 0.31046708E+06</totfact>
</mgrwt>
</event>
<event>
 4    1  0.4505197E+006  0.2303500E+02  0.7546771E-02  0.1690943E+00
         21   -1    0    0  502  501  0.00000000000E+00  0.00000000000E+00  0.21175943043E+02  0.21175943043E+02  0.00000000000E+00 0. -1.
         21   -1    0    0  504  502 -0.00000000000E+00 -0.00000000000E+00 -0.10277375829E+03  0.10277375829E+03  0.00000000000E+00 0.  1.
         21    1    1    2  503  501 -0.82267741262E+01 -0.21515837173E+02  0.13093922204E+02  0.26496449959E+02  0.00000000000E+00 0. -1.
         21    1    1    2  504  503  0.82267741262E+01  0.21515837173E+02 -0.94691737447E+02  0.97453251369E+02  0.00000000000E+00 0.  1.
<mgrwt>
<rscale>  2 0.23034996E+02</rscale>
<asrwt>0</asrwt>
<pdfrwt beam="1">  1       21 0.32578373E-02 0.23034996E+02</pdfrwt>
<pdfrwt beam="2">  1       21 0.15811348E-01 0.23034996E+02</pdfrwt>
<totfact> 0.15173441E+07</totfact>
</mgrwt>
</event>
<event>
 4    1  0.4505197E+006  0.2095177E+02  0.7546771E-02  0.1727038E+00
         21   -1    0    0  503  501  0.00000000000E+00  0.00000000000E+00  0.12326524156E+03  0.12326524156E+03  0.00000000000E+00 0.  1.
         21   -1    0    0  504  502 -0.00000000000E+00 -0.00000000000E+00 -0.24121584119E+02  0.24121584119E+02  0.00000000000E+00 0. -1.
         21    1    1    2  503  502 -0.83514734269E+01  0.19215345117E+02 -0.18464518751E+02  0.27926959181E+02  0.00000000000E+00 0. -1.
         21    1    1    2  504  501  0.83514734269E+01 -0.19215345117E+02  0.11760817619E+03  0.11945986650E+03  0.00000000000E+00 0.  1.
<mgrwt>
<rscale>  2 0.20951768E+02</rscale>
<asrwt>0</asrwt>
<pdfrwt beam="1">  1       21 0.18963883E-01 0.20951768E+02</pdfrwt>
<pdfrwt beam="2">  1       21 0.37110130E-02 0.20951768E+02</pdfrwt>
<totfact> 0.88843405E+06</totfact>
</mgrwt>
</event>
<event>
 4    1  0.4505197E+006  0.2636806E+02  0.7546771E-02  0.1642095E+00
         21   -1    0    0  504  501  0.00000000000E+00  0.00000000000E+00  0.15991496826E+03  0.15991496826E+03  0.00000000000E+00 0.  1.
         21   -1    0    0  501  502 -0.00000000000E+00 -0.00000000000E+00 -0.88356674110E+02  0.88356674110E+02  0.00000000000E+00 0.  1.
         21    1    1    2  503  502 -0.90870217518E+01 -0.24752789677E+02 -0.85263965854E+02  0.89248072439E+02  0.00000000000E+00 0.  1.
         21    1    1    2  504  503  0.90870217518E+01  0.24752789677E+02  0.15682226000E+03  0.15902356993E+03  0.00000000000E+00 0.  1.
<mgrwt>
<rscale>  2 0.26368059E+02</rscale>
<asrwt>0</asrwt>
<pdfrwt beam="1">  1       21 0.24602303E-01 0.26368059E+02</pdfrwt>
<pdfrwt beam="2">  1       21 0.13593335E-01 0.26368059E+02</pdfrwt>
<totfact> 0.70216827E+05</totfact>
</mgrwt>
</event>
<event>
 4    1  0.4505197E+006  0.2207440E+02  0.7546771E-02  0.1706968E+00
         21   -1    0    0  503  501  0.00000000000E+00  0.00000000000E+00  0.12202979569E+03  0.12202979569E+03  0.00000000000E+00 0. -1.
         21   -1    0    0  504  502 -0.00000000000E+00 -0.00000000000E+00 -0.10174763744E+02  0.10174763744E+02  0.00000000000E+00 0. -1.
         21    1    1    2  503  502  0.21703719403E+02  0.40283567109E+01  0.44038913165E+01  0.22509405866E+02  0.00000000000E+00 0. -1.
         21    1    1    2  504  501 -0.21703719403E+02 -0.40283567109E+01  0.10745114063E+03  0.10969515357E+03  0.00000000000E+00 0. -1.
<mgrwt>
<rscale>  2 0.22074399E+02</rscale>
<asrwt>0</asrwt>
<pdfrwt beam="1">  1       21 0.18773814E-01 0.22074399E+02</pdfrwt>
<pdfrwt beam="2">  1       21 0.15653484E-02 0.22074399E+02</pdfrwt>
<totfact> 0.34582108E+07</totfact>
</mgrwt>
</event>
<event>
 4    1  0.4505197E+006  0.2032400E+02  0.7546771E-02  0.1738961E+00
         21   -1    0    0  503  501  0.00000000000E+00  0.00000000000E+00  0.47070627362E+02  0.47070627362E+02  0.00000000000E+00 0.  1.
         21   -1    0    0  504  502 -0.00000000000E+00 -0.00000000000E+00 -0.90471390190E+01  0.90471390190E+01  0.00000000000E+00 0.  1.
         21    1    1    2  503  502  0.16275347223E+02  0.12172840966E+02  0.23874326463E+02  0.31353603437E+02  0.00000000000E+00 0.  1.
         21    1    1    2  504  501 -0.16275347223E+02 -0.12172840966E+02  0.14149161880E+02  0.24764162944E+02  0.00000000000E+00 0.  1.
<mgrwt>
<rscale>  2 0.20324000E+02</rscale>
<asrwt>0</asrwt>
<pdfrwt beam="1">  1       21 0.72416349E-02 0.20324000E+02</pdfrwt>
<pdfrwt beam="2">  1       21 0.13918676E-02 0.20324000E+02</pdfrwt>
<totfact> 0.19770290E+08</totfact>
</mgrwt>
</event>
<event>
 4    1  0.4505197E+006  0.2284770E+02  0.7546771E-02  0.1693991E+00
         21   -1    0    0  503  501  0.00000000000E+00  0.00000000000E+00  0.53845642750E+02  0.53845642750E+02  0.00000000000E+00 0. -1.
         21   -1    0    0  504  502 -0.00000000000E+00 -0.00000000000E+00 -0.30362997525E+02  0.30362997525E+02  0.00000000000E+00 0.  1.
         21    1    1    2  503  502 -0.17391886186E+01 -0.22781410500E+02  0.46479471492E+02  0.51791492656E+02  0.00000000000E+00 0. -1.
         21    1    1    2  504  501  0.17391886186E+01  0.22781410500E+02 -0.22996826267E+02  0.32417147619E+02  0.00000000000E+00 0.  1.
<mgrwt>
<rscale>  2 0.22847701E+02</rscale>
<asrwt>0</asrwt>
<pdfrwt beam="1">  1       21 0.82839450E-02 0.22847701E+02</pdfrwt>
<pdfrwt beam="2">  1       21 0.46712304E-02 0.22847701E+02</pdfrwt>
<totfact> 0.25278764E+07</totfact>
</mgrwt>
</event>
<event>
 4    1  0.4505197E+006  0.3803254E+02  0.7546771E-02  0.1523210E+00
         21   -1    0    0  503  501  0.00000000000E+00  0.00000000000E+00  0.60144291919E+01  0.60144291919E+01  0.00000000000E+00 0.  1.
         21   -1    0    0  504  502 -0.00000000000E+00 -0.00000000000E+00 -0.55407487362E+03  0.55407487362E+03  0.00000000000E+00 0.  1.
         21    1    1    2  503  502  0.15757917041E+02  0.34614475687E+02 -0.48470534779E+03  0.48619517486E+03  0.00000000000E+00 0.  1.
         21    1    1    2  504  501 -0.15757917041E+02 -0.34614475687E+02 -0.63355096642E+02  0.73894127961E+02  0.00000000000E+00 0.  1.
<mgrwt>
<rscale>  2 0.38032537E+02</rscale>
<asrwt>0</asrwt>
<pdfrwt beam="1">  1       21 0.92529683E-03 0.38032537E+02</pdfrwt>
<pdfrwt beam="2">  1       21 0.85242286E-01 0.38032537E+02</pdfrwt>
<totfact> 0.46314532E+06</totfact>
</mgrwt>
</event>
<event>
 4    1  0.4505197E+006  0.4658564E+02  0.7546771E-02  0.1464679E+00
         21   -1    0    0  503  501  0.00000000000E+00  0.00000000000E+00  0.53141295892E+02  0.53141295892E+02  0.00000000000E+00 0.  1.
         21   -1    0    0  504  502 -0.00000000000E+00 -0.00000000000E+00 -0.46473827667E+02  0.46473827667E+02  0.00000000000E+00 0. -1.
         21    1    1    2  503  502  0.44343949207E+02 -0.14277128936E+02  0.20677458339E+02  0.50968416939E+02  0.00000000000E+00 0.  1.
         21    1    1    2  504  501 -0.44343949207E+02  0.14277128936E+02 -0.14009990114E+02  0.48646706620E+02  0.00000000000E+00 0. -1.
<mgrwt>
<rscale>  2 0.46585644E+02</rscale>
<asrwt>0</asrwt>
<pdfrwt beam="1">  1       21 0.81755840E-02 0.46585644E+02</pdfrwt>
<pdfrwt beam="2">  1       21 0.71498196E-02 0.46585644E+02</pdfrwt>
<totfact> 0.14718665E+07</totfact>
</mgrwt>
</event>
<event>
 4    1  0.4505197E+006  0.2219562E+02  0.7546771E-02  0.1704891E+00
         21   -1    0    0  502  501  0.00000000000E+00  0.00000000000E+00  0.69763785571E+01  0.69763785571E+01  0.00000000000E+00 0. -1.
         21   -1    0    0  503  502 -0.00000000000E+00 -0.00000000000E+00 -0.12814426976E+03  0.12814426976E+03  0.00000000000E+00 0.  1.
         21    1    1    2  503  504  0.18281342295E+02 -0.12587213762E+02 -0.10585097400E+03  0.10815301255E+03  0.00000000000E+00 0.  1.
         21    1    1    2  504  501 -0.18281342295E+02  0.12587213762E+02 -0.15316917202E+02  0.26967635769E+02  0.00000000000E+00 0. -1.
<mgrwt>
<rscale>  2 0.22195617E+02</rscale>
<asrwt>0</asrwt>
<pdfrwt beam="1">  1       21 0.10732890E-02 0.22195617E+02</pdfrwt>
<pdfrwt beam="2">  1       21 0.19714503E-01 0.22195617E+02</pdfrwt>
<totfact> 0.56269309E+07</totfact>
</mgrwt>
</event>
<event>
 4    1  0.4505197E+006  0.4869195E+02  0.7546771E-02  0.1452527E+00
         21   -1    0    0  504  501  0.00000000000E+00  0.00000000000E+00  0.13348040676E+02  0.13348040676E+02  0.00000000000E+00 0.  1.
         21   -1    0    0  503  502 -0.00000000000E+00 -0.00000000000E+00 -0.21094405955E+03  0.21094405955E+03  0.00000000000E+00 0. -1.
         21    1    1    2  503  501 -0.48503035593E+02  0.42849869767E+01 -0.14337043844E+03  0.15141330257E+03  0.00000000000E+00 0. -1.
         21    1    1    2  504  502  0.48503035593E+02 -0.42849869767E+01 -0.54225580432E+02  0.72878797660E+02  0.00000000000E+00 0.  1.
<mgrwt>
<rscale>  2 0.48691946E+02</rscale>
<asrwt>0</asrwt>
<pdfrwt beam="1">  1       21 0.20535448E-02 0.48691946E+02</pdfrwt>
<pdfrwt beam="2">  1       21 0.32452932E-01 0.48691946E+02</pdfrwt>
<totfact> 0.96896301E+06</totfact>
</mgrwt>
</event>
<event>
 4    1  0.4505197E+006  0.6618176E+02  0.7546771E-02  0.1373581E+00
         21   -1    0    0  504  501  0.00000000000E+00  0.00000000000E+00  0.55729436524E+03  0.55729436524E+03  0.00000000000E+00 0. -1.
         21   -1    0    0  503  502 -0.00000000000E+00 -0.00000000000E+00 -0.22196802062E+02  0.22196802062E+02  0.00000000000E+00 0. -1.
         21    1    1    2  503  501  0.32022103750E+02  0.57919002566E+02  0.50041480572E+03  0.50477222960E+03  0.00000000000E+00 0. -1.
         21    1    1    2  504  502 -0.32022103750E+02 -0.57919002566E+02  0.34682757455E+02  0.74718937704E+02  0.00000000000E+00 0. -1.
<mgrwt>
<rscale>  2 0.66181765E+02</rscale>
<asrwt>0</asrwt>
<pdfrwt beam="1">  1       21 0.85737584E-01 0.66181765E+02</pdfrwt>
<pdfrwt beam="2">  1       21 0.34148930E-02 0.66181765E+02</pdfrwt>
<totfact> 0.60606922E+05</totfact>
</mgrwt>
</event>
<event>
 4    1  0.4505197E+006  0.2004927E+02  0.7546771E-02  0.1744350E+00
         21   -1    0    0  503  501  0.00000000000E+00  0.00000000000E+00  0.41867244368E+03  0.41867244368E+03  0.00000000000E+00 0. -1.
         21   -1    0    0  504  502 -0.00000000000E+00 -0.00000000000E+00 -0.18403743654E+01  0.18403743654E+01  0.00000000000E+00 0. -1.
         21    1    1    2  503  502 -0.52202017652E+01  0.19357760661E+02  0.63003564289E+02  0.66116734019E+02  0.00000000000E+00 0. -1.
         21    1    1    2  504  501  0.52202017652E+01 -0.19357760661E+02  0.35382850503E+03  0.35439608403E+03  0.00000000000E+00 0. -1.
<mgrwt>
<rscale>  2 0.20049274E+02</rscale>
<asrwt>0</asrwt>
<pdfrwt beam="1">  1       21 0.64411069E-01 0.20049274E+02</pdfrwt>
<pdfrwt beam="2">  1       21 0.28313485E-03 0.20049274E+02</pdfrwt>
<totfact> 0.43380647E+07</totfact>
</mgrwt>
</event>
<event>
 4    1  0.4505197E+006  0.2271000E+02  0.7546771E-02  0.1696254E+00
         21   -1    0    0  504  501  0.00000000000E+00  0.00000000000E+00  0.39408516944E+02  0.39408516944E+02  0.00000000000E+00 0. -1.
         21   -1    0    0  503  502 -0.00000000000E+00 -0.00000000000E+00 -0.55179936876E+02  0.55179936876E+02  0.00000000000E+00 0. -1.
         21    1    1    2  503  501  0.22686224115E+02 -0.10389943887E+01  0.33421084043E+02  0.40406845120E+02  0.00000000000E+00 0. -1.
         21    1    1    2  504  502 -0.22686224115E+02  0.10389943887E+01 -0.49192503975E+02  0.54181608699E+02  0.00000000000E+00 0. -1.
<mgrwt>
<rscale>  2 0.22710004E+02</rscale>
<asrwt>0</asrwt>
<pdfrwt beam="1">  1       21 0.60628488E-02 0.22710004E+02</pdfrwt>
<pdfrwt beam="2">  1       21 0.84892210E-02 0.22710004E+02</pdfrwt>
<totfact> 0.15996441E+07</totfact>
</mgrwt>
</event>
<event>
 4    1  0.4505197E+006  0.2281241E+02  0.7546771E-02  0.1694569E+00
         21   -1    0    0  503  501  0.00000000000E+00  0.00000000000E+00  0.41040970682E+01  0.41040970682E+01  0.00000000000E+00 0. -1.
         21   -1    0    0  504  502 -0.00000000000E+00 -0.00000000000E+00 -0.28473357078E+03  0.28473357078E+03  0.00000000000E+00 0. -1.
         21    1    1    2  503  502  0.13704596882E+02 -0.18237046649E+02 -0.24787196483E+03  0.24891949862E+03  0.00000000000E+00 0. -1.
         21    1    1    2  504  501 -0.13704596882E+02  0.18237046649E+02 -0.32757508884E+02  0.39918169227E+02  0.00000000000E+00 0. -1.
<mgrwt>
<rscale>  2 0.22812406E+02</rscale>
<asrwt>0</asrwt>
<pdfrwt beam="1">  1       21 0.63139936E-03 0.22812406E+02</pdfrwt>
<pdfrwt beam="2">  1       21 0.43805178E-01 0.22812406E+02</pdfrwt>
<totfact> 0.29331948E+07</totfact>
</mgrwt>
</event>
<event>
 4    1  0.4505197E+006  0.2457921E+02  0.7546771E-02  0.1667120E+00
         21   -1    0    0  502  501  0.00000000000E+00  0.00000000000E+00  0.22448658892E+03  0.22448658892E+03  0.00000000000E+00 0. -1.
         21   -1    0    0  504  502 -0.00000000000E+00 -0.00000000000E+00 -0.10606875737E+02  0.10606875737E+02  0.00000000000E+00 0. -1.
         21    1    1    2  503  501  0.18758391877E+02  0.15882705525E+02  0.20848540848E+03  0.20992928130E+03  0.00000000000E+00 0. -1.
         21    1    1    2  504  503 -0.18758391877E+02 -0.15882705525E+02  0.53943047063E+01  0.25164183354E+02  0.00000000000E+00 0. -1.
<mgrwt>
<rscale>  2 0.24579211E+02</rscale>
<asrwt>0</asrwt>
<pdfrwt beam="1">  1       21 0.34536395E-01 0.24579211E+02</pdfrwt>
<pdfrwt beam="2">  1       21 0.16318272E-02 0.24579211E+02</pdfrwt>
<totfact> 0.11158537E+07</totfact>
</mgrwt>
</event>
<event>
 4    1  0.4505197E+006  0.2101299E+02  0.7546771E-02  0.1725903E+00
         21   -1    0    0  503  501  0.00000000000E+00  0.00000000000E+00  0.60761602530E+01  0.60761602530E+01  0.00000000000E+00 0.  1.
         21   -1    0    0  504  502 -0.00000000000E+00 -0.00000000000E+00 -0.75542732179E+02  0.75542732179E+02  0.00000000000E+00 0. -1.
         21    1    1    2  503  502  0.87192810950E+01 -0.19118570399E+02 -0.26773095279E+02  0.34034456478E+02  0.00000000000E+00 0.  1.
         21    1    1    2  504  501 -0.87192810950E+01  0.19118570399E+02 -0.42693476647E+02  0.47584435954E+02  0.00000000000E+00 0. -1.
<mgrwt>
<rscale>  2 0.21012986E+02</rscale>
<asrwt>0</asrwt>
<pdfrwt beam="1">  1       21 0.93479380E-03 0.21012986E+02</pdfrwt>
<pdfrwt beam="2">  1       21 0.11621960E-01 0.21012986E+02</pdfrwt>
<totfact> 0.16735309E+08</totfact>
</mgrwt>
</event>
<event>
 4    1  0.4505197E+006  0.2508816E+02  0.7546771E-02  0.1659739E+00
         21   -1    0    0  503  501  0.00000000000E+00  0.00000000000E+00  0.40802676234E+01  0.40802676234E+01  0.00000000000E+00 0. -1.
         21   -1    0    0  504  502 -0.00000000000E+00 -0.00000000000E+00 -0.16264912740E+03  0.16264912740E+03  0.00000000000E+00 0.  1.
         21    1    1    2  503  502 -0.12137649932E+02  0.21956621988E+02 -0.98218962729E+02  0.10137248362E+03  0.00000000000E+00 0.  1.
         21    1    1    2  504  501  0.12137649932E+02 -0.21956621988E+02 -0.60349897046E+02  0.65356911405E+02  0.00000000000E+00 0. -1.
<mgrwt>
<rscale>  2 0.25088160E+02</rscale>
<asrwt>0</asrwt>
<pdfrwt beam="1">  1       21 0.62773347E-03 0.25088160E+02</pdfrwt>
<pdfrwt beam="2">  1       21 0.25022943E-01 0.25088160E+02</pdfrwt>
<totfact> 0.85025742E+07</totfact>
</mgrwt>
</event>
<event>
 4    1  0.4505197E+006  0.2207669E+02  0.7546771E-02  0.1706929E+00
         21   -1    0    0  503  501  0.00000000000E+00  0.00000000000E+00  0.42754161037E+00  0.42754161037E+00  0.00000000000E+00 0.  1.
         21   -1    0    0  504  502 -0.00000000000E+00 -0.00000000000E+00 -0.13307909039E+04  0.13307909039E+04  0.00000000000E+00 0.  1.
         21    1    1    2  503  502 -0.14392332443E+02  0.16740395892E+02 -0.41313009863E+03  0.41371954085E+03  0.00000000000E+00 0.  1.
         21    1    1    2  504  501  0.14392332443E+02 -0.16740395892E+02 -0.91723326367E+03  0.91749890467E+03  0.00000000000E+00 0.  1.
<mgrwt>
<rscale>  2 0.22076687E+02</rscale>
<asrwt>0</asrwt>
<pdfrwt beam="1">  1       21 0.65775069E-04 0.22076687E+02</pdfrwt>
<pdfrwt beam="2">  1       21 0.20473881E+00 0.22076687E+02</pdfrwt>
<totfact> 0.26348681E+07</totfact>
</mgrwt>
</event>
<event>
 4    1  0.4505197E+006  0.2127711E+02  0.7546771E-02  0.1721062E+00
         21   -1    0    0  504  501  0.00000000000E+00  0.00000000000E+00  0.57467710518E+02  0.57467710518E+02  0.00000000000E+00 0.  1.
         21   -1    0    0  503  502 -0.00000000000E+00 -0.00000000000E+00 -0.29596851476E+02  0.29596851476E+02  0.00000000000E+00 0.  1.
         21    1    1    2  503  501 -0.20848196068E+02 -0.42506799481E+01 -0.23356058732E+02  0.31594636234E+02  0.00000000000E+00 0.  1.
         21    1    1    2  504  502  0.20848196068E+02  0.42506799481E+01  0.51226917773E+02  0.55469925760E+02  0.00000000000E+00 0.  1.
<mgrwt>
<rscale>  2 0.21277114E+02</rscale>
<asrwt>0</asrwt>
<pdfrwt beam="1">  1       21 0.88411862E-02 0.21277114E+02</pdfrwt>
<pdfrwt beam="2">  1       21 0.45533618E-02 0.21277114E+02</pdfrwt>
<totfact> 0.23274408E+07</totfact>
</mgrwt>
</event>
<event>
 4    1  0.4505197E+006  0.2454559E+02  0.7546771E-02  0.1667616E+00
         21   -1    0    0  504  501  0.00000000000E+00  0.00000000000E+00  0.51109148036E+02  0.51109148036E+02  0.00000000000E+00 0. -1.
         21   -1    0    0  501  502 -0.00000000000E+00 -0.00000000000E+00 -0.12613970250E+02  0.12613970250E+02  0.00000000000E+00 0. -1.
         21    1    1    2  503  502 -0.93077876511E+01  0.22712355173E+02  0.11095574695E+02  0.26936921989E+02  0.00000000000E+00 0. -1.
         21    1    1    2  504  503  0.93077876511E+01 -0.22712355173E+02  0.27399603091E+02  0.36786196297E+02  0.00000000000E+00 0. -1.
<mgrwt>
<rscale>  2 0.24545590E+02</rscale>
<asrwt>0</asrwt>
<pdfrwt beam="1">  1       21 0.78629457E-02 0.24545590E+02</pdfrwt>
<pdfrwt beam="2">  1       21 0.19406108E-02 0.24545590E+02</pdfrwt>
<totfact> 0.11040098E+08</totfact>
</mgrwt>
</event>
<event>
 4    1  0.4505197E+006  0.2074547E+02  0.7546771E-02  0.1730897E+00
         21   -1    0    0  504  501  0.00000000000E+00  0.00000000000E+00  0.46592998001E+01  0.46592998001E+01  0.00000000000E+00 0. -1.
         21   -1    0    0  503  502 -0.00000000000E+00 -0.00000000000E+00 -0.77671760546E+03  0.77671760546E+03  0.00000000000E+00 0.  1.
         21    1    1    2  503  501 -0.93482409666E+01 -0.18519853752E+02 -0.75275178436E+03  0.75303759763E+03  0.00000000000E+00 0.  1.
         21    1    1    2  504  502  0.93482409666E+01  0.18519853752E+02 -0.19306521306E+02  0.28339307632E+02  0.00000000000E+00 0. -1.
<mgrwt>
<rscale>  2 0.20745472E+02</rscale>
<asrwt>0</asrwt>
<pdfrwt beam="1">  1       21 0.71681569E-03 0.20745472E+02</pdfrwt>
<pdfrwt beam="2">  1       21 0.11949496E+00 0.20745472E+02</pdfrwt>
<totfact> 0.30120787E+06</totfact>
</mgrwt>
</event>
<event>
 4    1  0.4505197E+006  0.3131221E+02  0.7546771E-02  0.1584021E+00
         21   -1    0    0  503  501  0.00000000000E+00  0.00000000000E+00  0.34700958205E+01  0.34700958205E+01  0.00000000000E+00 0.  1.
         21   -1    0    0  501  502 -0.00000000000E+00 -0.00000000000E+00 -0.41630760322E+03  0.41630760322E+03  0.00000000000E+00 0.  1.
         21    1    1    2  503  504 -0.30285318428E+02  0.79532241754E+01 -0.87444937187E+02  0.92882029083E+02  0.00000000000E+00 0.  1.
         21    1    1    2  504  502  0.30285318428E+02 -0.79532241754E+01 -0.32539257021E+03  0.32689566996E+03  0.00000000000E+00 0.  1.
<mgrwt>
<rscale>  2 0.31312207E+02</rscale>
<asrwt>0</asrwt>
<pdfrwt beam="1">  1       21 0.53386062E-03 0.31312207E+02</pdfrwt>
<pdfrwt beam="2">  1       21 0.64047356E-01 0.31312207E+02</pdfrwt>
<totfact> 0.18890638E+07</totfact>
</mgrwt>
</event>
<event>
 4    1  0.4505197E+006  0.2387775E+02  0.7546771E-02  0.1677665E+00
         21   -1    0    0  503  501  0.00000000000E+00  0.00000000000E+00  0.67145202426E+03  0.67145202426E+03  0.00000000000E+00 0. -1.
         21   -1    0    0  504  502 -0.00000000000E+00 -0.00000000000E+00 -0.11246445393E+01  0.11246445393E+01  0.00000000000E+00 0. -1.
         21    1    1    2  503  502 -0.12735325763E+02  0.20197983348E+02  0.16871516538E+03  0.17039646147E+03  0.00000000000E+00 0. -1.
         21    1    1    2  504  501  0.12735325763E+02 -0.20197983348E+02  0.50161221435E+03  0.50218020733E+03  0.00000000000E+00 0. -1.
<mgrwt>
<rscale>  2 0.23877752E+02</rscale>
<asrwt>0</asrwt>
<pdfrwt beam="1">  1       21 0.10329999E+00 0.23877752E+02</pdfrwt>
<pdfrwt beam="2">  1       21 0.17302277E-03 0.23877752E+02</pdfrwt>
<totfact> 0.34025850E+07</totfact>
</mgrwt>
</event>
<event>
 4    1  0.4505197E+006  0.2111963E+02  0.7546771E-02  0.1723938E+00
         21   -1    0    0  504  501  0.00000000000E+00  0.00000000000E+00  0.11055209705E+03  0.11055209705E+03  0.00000000000E+00 0.  1.
         21   -1    0    0  503  502 -0.00000000000E+00 -0.00000000000E+00 -0.14777498848E+02  0.14777498848E+02  0.00000000000E+00 0. -1.
         21    1    1    2  503  501 -0.44142087763E+01  0.20653172366E+02  0.10131702609E+03  0.10349482375E+03  0.00000000000E+00 0.  1.
         21    1    1    2  504  502  0.44142087763E+01 -0.20653172366E+02 -0.55424278849E+01  0.21834772148E+02  0.00000000000E+00 0. -1.
<mgrwt>
<rscale>  2 0.21119630E+02</rscale>
<asrwt>0</asrwt>
<pdfrwt beam="1">  1       21 0.17008014E-01 0.21119630E+02</pdfrwt>
<pdfrwt beam="2">  1       21 0.22734614E-02 0.21119630E+02</pdfrwt>
<totfact> 0.22940038E+07</totfact>
</mgrwt>
</event>
<event>
 4    1  0.4505197E+006  0.2646994E+02  0.7546771E-02  0.1640744E+00
         21   -1    0    0  504  501  0.00000000000E+00  0.00000000000E+00  0.88327843838E+02  0.88327843838E+02  0.00000000000E+00 0.  1.
         21   -1    0    0  503  502 -0.00000000000E+00 -0.00000000000E+00 -0.29524748613E+02  0.29524748613E+02  0.00000000000E+00 0. -1.
         21    1    1    2  503  501 -0.69517973451E+00 -0.26460805819E+02  0.79793980904E+02  0.84069833519E+02  0.00000000000E+00 0.  1.
         21    1    1    2  504  502  0.69517973451E+00  0.26460805819E+02 -0.20990885679E+02  0.33782758932E+02  0.00000000000E+00 0. -1.
<mgrwt>
<rscale>  2 0.26469936E+02</rscale>
<asrwt>0</asrwt>
<pdfrwt beam="1">  1       21 0.13588899E-01 0.26469936E+02</pdfrwt>
<pdfrwt beam="2">  1       21 0.45422691E-02 0.26469936E+02</pdfrwt>
<totfact> 0.11946240E+07</totfact>
</mgrwt>
</event>
<event>
 4    1  0.4505197E+006  0.2206061E+02  0.7546771E-02  0.1707206E+00
         21   -1    0    0  503  501  0.00000000000E+00  0.00000000000E+00  0.10303196587E+03  0.10303196587E+03  0.00000000000E+00 0. -1.
         21   -1    0    0  501  502 -0.00000000000E+00 -0.00000000000E+00 -0.31021433593E+02  0.31021433593E+02  0.00000000000E+00 0.  1.
         21    1    1    2  503  504 -0.20893594143E+02 -0.70801235375E+01  0.97718428525E+02  0.10017765070E+03  0.00000000000E+00 0. -1.
         21    1    1    2  504  502  0.20893594143E+02  0.70801235375E+01 -0.25707896244E+02  0.33875748771E+02  0.00000000000E+00 0.  1.
<mgrwt>
<rscale>  2 0.22060608E+02</rscale>
<asrwt>0</asrwt>
<pdfrwt beam="1">  1       21 0.15851071E-01 0.22060608E+02</pdfrwt>
<pdfrwt beam="2">  1       21 0.47725283E-02 0.22060608E+02</pdfrwt>
<totfact> 0.82134359E+06</totfact>
</mgrwt>
</event>
<event>
 4    1  0.4505197E+006  0.2280012E+02  0.7546771E-02  0.1694771E+00
         21   -1    0    0  503  501  0.00000000000E+00  0.00000000000E+00  0.14889635099E+02  0.14889635099E+02  0.00000000000E+00 0.  1.
         21   -1    0    0  504  502 -0.00000000000E+00 -0.00000000000E+00 -0.35099980912E+02  0.35099980912E+02  0.00000000000E+00 0.  1.
         21    1    1    2  503  502  0.20428499076E+02 -0.10125299913E+02 -0.11928339385E+02  0.25731897585E+02  0.00000000000E+00 0.  1.
         21    1    1    2  504  501 -0.20428499076E+02  0.10125299913E+02 -0.82820064279E+01  0.24257718427E+02  0.00000000000E+00 0.  1.
<mgrwt>
<rscale>  2 0.22800116E+02</rscale>
<asrwt>0</asrwt>
<pdfrwt beam="1">  1       21 0.22907131E-02 0.22800116E+02</pdfrwt>
<pdfrwt beam="2">  1       21 0.53999970E-02 0.22800116E+02</pdfrwt>
<totfact> 0.15356422E+08</totfact>
</mgrwt>
</event>
<event>
 4    1  0.4505197E+006  0.2294666E+02  0.7546771E-02  0.1692376E+00
         21   -1    0    0  503  501  0.00000000000E+00  0.00000000000E+00  0.93093822214E+02  0.93093822214E+02  0.00000000000E+00 0.  1.
         21   -1    0    0  501  502 -0.00000000000E+00 -0.00000000000E+00 -0.37767968433E+02  0.37767968433E+02  0.00000000000E+00 0.  1.
         21    1    1    2  503  504  0.20625109419E+02  0.10057528511E+02  0.87995765970E+02  0.90938461868E+02  0.00000000000E+00 0.  1.
         21    1    1    2  504  502 -0.20625109419E+02 -0.10057528511E+02 -0.32669912190E+02  0.39923328779E+02  0.00000000000E+00 0.  1.
<mgrwt>
<rscale>  2 0.22946656E+02</rscale>
<asrwt>0</asrwt>
<pdfrwt beam="1">  1       21 0.14322126E-01 0.22946656E+02</pdfrwt>
<pdfrwt beam="2">  1       21 0.58104567E-02 0.22946656E+02</pdfrwt>
<totfact> 0.71840118E+06</totfact>
</mgrwt>
</event>
<event>
 4    1  0.4505197E+006  0.2357340E+02  0.7546771E-02  0.1682381E+00
         21   -1    0    0  504  501  0.00000000000E+00  0.00000000000E+00  0.86844654648E+02  0.86844654648E+02  0.00000000000E+00 0.  1.
         21   -1    0    0  503  502 -0.00000000000E+00 -0.00000000000E+00 -0.65254178334E+01  0.65254178334E+01  0.00000000000E+00 0.  1.
         21    1    1    2  503  501 -0.56583220848E+01 -0.22884241512E+02  0.46661679030E+02  0.52278268987E+02  0.00000000000E+00 0.  1.
         21    1    1    2  504  502  0.56583220848E+01  0.22884241512E+02  0.33657557785E+02  0.41091803495E+02  0.00000000000E+00 0.  1.
<mgrwt>
<rscale>  2 0.23573399E+02</rscale>
<asrwt>0</asrwt>
<pdfrwt beam="1">  1       21 0.13360715E-01 0.23573399E+02</pdfrwt>
<pdfrwt beam="2">  1       21 0.10039105E-02 0.23573399E+02</pdfrwt>
<totfact> 0.12318367E+08</totfact>
</mgrwt>
</event>
<event>
 4    1  0.4505197E+006  0.2057849E+02  0.7546771E-02  0.1734063E+00
         21   -1    0    0  504  501  0.00000000000E+00  0.00000000000E+00  0.26394890046E+03  0.26394890046E+03  0.00000000000E+00 0.  1.
         21   -1    0    0  503  502 -0.00000000000E+00 -0.00000000000E+00 -0.16336908936E+01  0.16336908936E+01  0.00000000000E+00 0.  1.
         21    1    1    2  503  501 -0.18390082280E+02 -0.92346614847E+01  0.14894473445E+03  0.15035959570E+03  0.00000000000E+00 0.  1.
         21    1    1    2  504  502  0.18390082280E+02  0.92346614847E+01  0.11337047511E+03  0.11522299565E+03  0.00000000000E+00 0.  1.
<mgrwt>
<rscale>  2 0.20578486E+02</rscale>
<asrwt>0</asrwt>
<pdfrwt beam="1">  1       21 0.40607489E-01 0.20578486E+02</pdfrwt>
<pdfrwt beam="2">  1       21 0.25133727E-03 0.20578486E+02</pdfrwt>
<totfact> 0.12707871E+08</totfact>
</mgrwt>
</event>
<event>
 4    1  0.4505197E+006  0.3684722E+02  0.7546771E-02  0.1532783E+00
         21   -1    0    0  503  501  0.00000000000E+00  0.00000000000E+00  0.25648410243E+03  0.25648410243E+03  0.00000000000E+00 0. -1.
         21   -1    0    0  501  502 -0.00000000000E+00 -0.00000000000E+00 -0.39153261248E+02  0.39153261248E+02  0.00000000000E+00 0. -1.
         21    1    1    2  503  504 -0.36763249027E+02  0.24861448970E+01  0.24612874091E+03  0.24887160244E+03  0.00000000000E+00 0. -1.
         21    1    1    2  504  502  0.36763249027E+02 -0.24861448970E+01 -0.28797899733E+02  0.46765761241E+02  0.00000000000E+00 0. -1.
<mgrwt>
<rscale>  2 0.36847217E+02</rscale>
<asrwt>0</asrwt>
<pdfrwt beam="1">  1       21 0.39459092E-01 0.36847217E+02</pdfrwt>
<pdfrwt beam="2">  1       21 0.60235788E-02 0.36847217E+02</pdfrwt>
<totfact> 0.11612433E+06</totfact>
</mgrwt>
</event>
<event>
 4    1  0.4505197E+006  0.2253666E+02  0.7546771E-02  0.1699133E+00
         21   -1    0    0  503  501  0.00000000000E+00  0.00000000000E+00  0.40753160657E+02  0.40753160657E+02  0.00000000000E+00 0. -1.
         21   -1    0    0  504  502 -0.00000000000E+00 -0.00000000000E+00 -0.58632342530E+02  0.58632342530E+02  0.00000000000E+00 0. -1.
         21    1    1    2  503  502 -0.19952593082E+02  0.10478307688E+02 -0.53035868506E+02  0.57625552066E+02  0.00000000000E+00 0. -1.
         21    1    1    2  504  501  0.19952593082E+02 -0.10478307688E+02  0.35156686633E+02  0.41759951121E+02  0.00000000000E+00 0. -1.
<mgrwt>
<rscale>  2 0.22536657E+02</rscale>
<asrwt>0</asrwt>
<pdfrwt beam="1">  1       21 0.62697170E-02 0.22536657E+02</pdfrwt>
<pdfrwt beam="2">  1       21 0.90203604E-02 0.22536657E+02</pdfrwt>
<totfact> 0.13699053E+07</totfact>
</mgrwt>
</event>
<event>
 4    1  0.4505197E+006  0.2011236E+02  0.7546771E-02  0.1743103E+00
         21   -1    0    0  504  501  0.00000000000E+00  0.00000000000E+00  0.29812468922E+02  0.29812468922E+02  0.00000000000E+00 0. -1.
         21   -1    0    0  503  502 -0.00000000000E+00 -0.00000000000E+00 -0.14144027074E+03  0.14144027074E+03  0.00000000000E+00 0.  1.
         21    1    1    2  503  501 -0.19320574447E+02  0.55877036876E+01 -0.13722966990E+03  0.13869567163E+03  0.00000000000E+00 0.  1.
         21    1    1    2  504  502  0.19320574447E+02 -0.55877036876E+01  0.25601868080E+02  0.32557068029E+02  0.00000000000E+00 0. -1.
<mgrwt>
<rscale>  2 0.20112360E+02</rscale>
<asrwt>0</asrwt>
<pdfrwt beam="1">  1       21 0.45865336E-02 0.20112360E+02</pdfrwt>
<pdfrwt beam="2">  1       21 0.21760042E-01 0.20112360E+02</pdfrwt>
<totfact> 0.49776218E+06</totfact>
</mgrwt>
</event>
<event>
 4    1  0.4505197E+006  0.2068444E+02  0.7546771E-02  0.1732050E+00
         21   -1    0    0  503  501  0.00000000000E+00  0.00000000000E+00  0.33002042735E+03  0.33002042735E+03  0.00000000000E+00 0.  1.
         21   -1    0    0  504  502 -0.00000000000E+00 -0.00000000000E+00 -0.62889991218E+02  0.62889991218E+02  0.00000000000E+00 0.  1.
         21    1    1    2  503  502 -0.73686954179E+01  0.19327395473E+02  0.32798500653E+03  0.32863659321E+03  0.00000000000E+00 0.  1.
         21    1    1    2  504  501  0.73686954179E+01 -0.19327395473E+02 -0.60854570398E+02  0.64273825359E+02  0.00000000000E+00 0.  1.
<mgrwt>
<rscale>  2 0.20684436E+02</rscale>
<asrwt>0</asrwt>
<pdfrwt beam="1">  1       21 0.50772372E-01 0.20684436E+02</pdfrwt>
<pdfrwt beam="2">  1       21 0.96753835E-02 0.20684436E+02</pdfrwt>
<totfact> 0.31752186E+05</totfact>
</mgrwt>
</event>
<event>
 4    1  0.4505197E+006  0.2039934E+02  0.7546771E-02  0.1737501E+00
         21   -1    0    0  503  501  0.00000000000E+00  0.00000000000E+00  0.43663014133E+03  0.43663014133E+03  0.00000000000E+00 0.  1.
         21   -1    0    0  501  502 -0.00000000000E+00 -0.00000000000E+00 -0.18647696665E+02  0.18647696665E+02  0.00000000000E+00 0. -1.
         21    1    1    2  503  504  0.17079835570E+02  0.11154017301E+02  0.43073671094E+03  0.43121948824E+03  0.00000000000E+00 0.  1.
         21    1    1    2  504  502 -0.17079835570E+02 -0.11154017301E+02 -0.12754266271E+02  0.24058349760E+02  0.00000000000E+00 0. -1.
<mgrwt>
<rscale>  2 0.20399335E+02</rscale>
<asrwt>0</asrwt>
<pdfrwt beam="1">  1       21 0.67173860E-01 0.20399335E+02</pdfrwt>
<pdfrwt beam="2">  1       21 0.28688767E-02 0.20399335E+02</pdfrwt>
<totfact> 0.12599146E+06</totfact>
</mgrwt>
</event>
<event>
 4    1  0.4505197E+006  0.2111130E+02  0.7546771E-02  0.1724091E+00
         21   -1    0    0  504  501  0.00000000000E+00  0.00000000000E+00  0.39425695484E+02  0.39425695484E+02  0.00000000000E+00 0. -1.
         21   -1    0    0  501  502 -0.00000000000E+00 -0.00000000000E+00 -0.14366027280E+03  0.14366027280E+03  0.00000000000E+00 0. -1.
         21    1    1    2  503  502 -0.19107671428E+02 -0.89768443069E+01 -0.13998477551E+03  0.14156773720E+03  0.00000000000E+00 0. -1.
         21    1    1    2  504  503  0.19107671428E+02  0.89768443069E+01  0.35750198196E+02  0.41518231082E+02  0.00000000000E+00 0. -1.
<mgrwt>
<rscale>  2 0.21111297E+02</rscale>
<asrwt>0</asrwt>
<pdfrwt beam="1">  1       21 0.60654917E-02 0.21111297E+02</pdfrwt>
<pdfrwt beam="2">  1       21 0.22101580E-01 0.21111297E+02</pdfrwt>
<totfact> 0.31309019E+06</totfact>
</mgrwt>
</event>
<event>
 4    1  0.4505197E+006  0.2626560E+02  0.7546771E-02  0.1643462E+00
         21   -1    0    0  503  501  0.00000000000E+00  0.00000000000E+00  0.16400441891E+03  0.16400441891E+03  0.00000000000E+00 0.  1.
         21   -1    0    0  501  502 -0.00000000000E+00 -0.00000000000E+00 -0.22900587712E+02  0.22900587712E+02  0.00000000000E+00 0.  1.
         21    1    1    2  503  504  0.96660409730E+01 -0.24422313651E+02  0.15498642109E+03  0.15719628645E+03  0.00000000000E+00 0.  1.
         21    1    1    2  504  502 -0.96660409730E+01  0.24422313651E+02 -0.13882589890E+02  0.29708720171E+02  0.00000000000E+00 0.  1.
<mgrwt>
<rscale>  2 0.26265600E+02</rscale>
<asrwt>0</asrwt>
<pdfrwt beam="1">  1       21 0.25231448E-01 0.26265600E+02</pdfrwt>
<pdfrwt beam="2">  1       21 0.35231674E-02 0.26265600E+02</pdfrwt>
<totfact> 0.60633095E+06</totfact>
</mgrwt>
</event>
<event>
 4    1  0.4505197E+006  0.2245011E+02  0.7546771E-02  0.1700582E+00
         21   -1    0    0  502  501  0.00000000000E+00  0.00000000000E+00  0.66029381777E+01  0.66029381777E+01  0.00000000000E+00 0. -1.
         21   -1    0    0  503  502 -0.00000000000E+00 -0.00000000000E+00 -0.24104398545E+03  0.24104398545E+03  0.00000000000E+00 0. -1.
         21    1    1    2  503  504 -0.18932389897E+02  0.12065326796E+02 -0.21957786246E+03  0.22072255250E+03  0.00000000000E+00 0. -1.
         21    1    1    2  504  501  0.18932389897E+02 -0.12065326796E+02 -0.14863184805E+02  0.26924371124E+02  0.00000000000E+00 0. -1.
<mgrwt>
<rscale>  2 0.22450111E+02</rscale>
<asrwt>0</asrwt>
<pdfrwt beam="1">  1       21 0.10158364E-02 0.22450111E+02</pdfrwt>
<pdfrwt beam="2">  1       21 0.37083698E-01 0.22450111E+02</pdfrwt>
<totfact> 0.19681655E+07</totfact>
</mgrwt>
</event>
<event>
 4    1  0.4505197E+006  0.2610520E+02  0.7546771E-02  0.1645617E+00
         21   -1    0    0  502  501  0.00000000000E+00  0.00000000000E+00  0.12827814493E+02  0.12827814493E+02  0.00000000000E+00 0.  1.
         21   -1    0    0  504  502 -0.00000000000E+00 -0.00000000000E+00 -0.77077844115E+02  0.77077844115E+02  0.00000000000E+00 0.  1.
         21    1    1    2  503  501  0.70127763137E+01 -0.25145624235E+02 -0.70657626168E+01  0.27044527194E+02  0.00000000000E+00 0.  1.
         21    1    1    2  504  503 -0.70127763137E+01  0.25145624235E+02 -0.57184267005E+02  0.62861131414E+02  0.00000000000E+00 0.  1.
<mgrwt>
<rscale>  2 0.26105200E+02</rscale>
<asrwt>0</asrwt>
<pdfrwt beam="1">  1       21 0.19735099E-02 0.26105200E+02</pdfrwt>
<pdfrwt beam="2">  1       21 0.11858130E-01 0.26105200E+02</pdfrwt>
<totfact> 0.55311698E+07</totfact>
</mgrwt>
</event>
<event>
 4    1  0.4505197E+006  0.2131641E+02  0.7546771E-02  0.1720350E+00
         21   -1    0    0  502  501  0.00000000000E+00  0.00000000000E+00  0.16896852227E+02  0.16896852227E+02  0.00000000000E+00 0. -1.
         21   -1    0    0  503  502 -0.00000000000E+00 -0.00000000000E+00 -0.28886298046E+02  0.28886298046E+02  0.00000000000E+00 0. -1.
         21    1    1    2  503  504 -0.20503140107E+02 -0.58318610634E+01 -0.12009643123E+02  0.24466730179E+02  0.00000000000E+00 0. -1.
         21    1    1    2  504  501  0.20503140107E+02  0.58318610634E+01  0.20197304123E-01  0.21316420095E+02  0.00000000000E+00 0. -1.
<mgrwt>
<rscale>  2 0.21316411E+02</rscale>
<asrwt>0</asrwt>
<pdfrwt beam="1">  1       21 0.25995158E-02 0.21316411E+02</pdfrwt>
<pdfrwt beam="2">  1       21 0.44440458E-02 0.21316411E+02</pdfrwt>
<totfact> 0.16860469E+08</totfact>
</mgrwt>
</event>
<event>
 4    1  0.4505197E+006  0.2137026E+02  0.7546771E-02  0.1719376E+00
         21   -1    0    0  504  501  0.00000000000E+00  0.00000000000E+00  0.29776677870E+03  0.29776677870E+03  0.00000000000E+00 0. -1.
         21   -1    0    0  503  502 -0.00000000000E+00 -0.00000000000E+00 -0.16081846444E+01  0.16081846444E+01  0.00000000000E+00 0. -1.
         21    1    1    2  503  501  0.21279474176E+02  0.19676990471E+01  0.18029161626E+03  0.18155372415E+03  0.00000000000E+00 0. -1.
         21    1    1    2  504  502 -0.21279474176E+02 -0.19676990471E+01  0.11586697780E+03  0.11782123920E+03  0.00000000000E+00 0. -1.
<mgrwt>
<rscale>  2 0.21370256E+02</rscale>
<asrwt>0</asrwt>
<pdfrwt beam="1">  1       21 0.45810230E-01 0.21370256E+02</pdfrwt>
<pdfrwt beam="2">  1       21 0.24741326E-03 0.21370256E+02</pdfrwt>
<totfact> 0.10452374E+08</totfact>
</mgrwt>
</event>
<event>
 4    1  0.4505197E+006  0.2068885E+02  0.7546771E-02  0.1731967E+00
         21   -1    0    0  502  501  0.00000000000E+00  0.00000000000E+00  0.12480622414E+02  0.12480622414E+02  0.00000000000E+00 0.  1.
         21   -1    0    0  504  502 -0.00000000000E+00 -0.00000000000E+00 -0.21914151912E+03  0.21914151912E+03  0.00000000000E+00 0.  1.
         21    1    1    2  503  501 -0.15818624940E+02  0.13334148160E+02  0.30331123947E+01  0.20910001745E+02  0.00000000000E+00 0.  1.
         21    1    1    2  504  503  0.15818624940E+02 -0.13334148160E+02 -0.20969400910E+03  0.21071213979E+03  0.00000000000E+00 0.  1.
<mgrwt>
<rscale>  2 0.20688847E+02</rscale>
<asrwt>0</asrwt>
<pdfrwt beam="1">  1       21 0.19200956E-02 0.20688847E+02</pdfrwt>
<pdfrwt beam="2">  1       21 0.33714082E-01 0.20688847E+02</pdfrwt>
<totfact> 0.88119863E+06</totfact>
</mgrwt>
</event>
<event>
 4    1  0.4505197E+006  0.2471308E+02  0.7546771E-02  0.1665158E+00
         21   -1    0    0  504  501  0.00000000000E+00  0.00000000000E+00  0.37123804785E+01  0.37123804785E+01  0.00000000000E+00 0.  1.
         21   -1    0    0  503  502 -0.00000000000E+00 -0.00000000000E+00 -0.44585773994E+03  0.44585773994E+03  0.00000000000E+00 0.  1.
         21    1    1    2  503  501  0.17899857914E+02  0.17039113482E+02 -0.42510949090E+02  0.49172320407E+02  0.00000000000E+00 0.  1.
         21    1    1    2  504  502 -0.17899857914E+02 -0.17039113482E+02 -0.39963441037E+03  0.40039780002E+03  0.00000000000E+00 0.  1.
<mgrwt>
<rscale>  2 0.24713080E+02</rscale>
<asrwt>0</asrwt>
<pdfrwt beam="1">  1       21 0.57113579E-03 0.24713080E+02</pdfrwt>
<pdfrwt beam="2">  1       21 0.68593459E-01 0.24713080E+02</pdfrwt>
<totfact> 0.14264267E+07</totfact>
</mgrwt>
</event>
<event>
 4    1  0.4505197E+006  0.2239990E+02  0.7546771E-02  0.1701426E+00
         21   -1    0    0  504  501  0.00000000000E+00  0.00000000000E+00  0.35464303691E+01  0.35464303691E+01  0.00000000000E+00 0. -1.
         21   -1    0    0  503  502 -0.00000000000E+00 -0.00000000000E+00 -0.51232267988E+03  0.51232267988E+03  0.00000000000E+00 0. -1.
         21    1    1    2  503  501 -0.16033879998E+02  0.15641931678E+02 -0.34940168171E+02  0.41503863509E+02  0.00000000000E+00 0. -1.
         21    1    1    2  504  502  0.16033879998E+02 -0.15641931678E+02 -0.47383608134E+03  0.47436524674E+03  0.00000000000E+00 0. -1.
<mgrwt>
<rscale>  2 0.22399896E+02</rscale>
<asrwt>0</asrwt>
<pdfrwt beam="1">  1       21 0.54560450E-03 0.22399896E+02</pdfrwt>
<pdfrwt beam="2">  1       21 0.78818899E-01 0.22399896E+02</pdfrwt>
<totfact> 0.11249175E+07</totfact>
</mgrwt>
</event>
<event>
 4    1  0.4505197E+006  0.2065942E+02  0.7546771E-02  0.1732524E+00
         21   -1    0    0  502  501  0.00000000000E+00  0.00000000000E+00  0.17098863900E+02  0.17098863900E+02  0.00000000000E+00 0. -1.
         21   -1    0    0  504  502 -0.00000000000E+00 -0.00000000000E+00 -0.34241830327E+02  0.34241830327E+02  0.00000000000E+00 0. -1.
         21    1    1    2  503  501 -0.13434548986E+02 -0.15694727472E+02  0.47925430102E+01  0.21208018422E+02  0.00000000000E+00 0. -1.
         21    1    1    2  504  503  0.13434548986E+02  0.15694727472E+02 -0.21935509438E+02  0.30132675805E+02  0.00000000000E+00 0. -1.
<mgrwt>
<rscale>  2 0.20659419E+02</rscale>
<asrwt>0</asrwt>
<pdfrwt beam="1">  1       21 0.26305944E-02 0.20659419E+02</pdfrwt>
<pdfrwt beam="2">  1       21 0.52679739E-02 0.20659419E+02</pdfrwt>
<totfact> 0.12523612E+08</totfact>
</mgrwt>
</event>
<event>
 4    1  0.4505197E+006  0.2083236E+02  0.7546771E-02  0.1729265E+00
         21   -1    0    0  504  501  0.00000000000E+00  0.00000000000E+00  0.96101172916E+02  0.96101172916E+02  0.00000000000E+00 0.  1.
         21   -1    0    0  501  502 -0.00000000000E+00 -0.00000000000E+00 -0.35953348942E+02  0.35953348942E+02  0.00000000000E+00 0.  1.
         21    1    1    2  503  502  0.45871864891E+01  0.20321051657E+02 -0.31667556956E+02  0.37905429478E+02  0.00000000000E+00 0.  1.
         21    1    1    2  504  503 -0.45871864891E+01 -0.20321051657E+02  0.91815380931E+02  0.94149092379E+02  0.00000000000E+00 0.  1.
<mgrwt>
<rscale>  2 0.20832365E+02</rscale>
<asrwt>0</asrwt>
<pdfrwt beam="1">  1       21 0.14784796E-01 0.20832365E+02</pdfrwt>
<pdfrwt beam="2">  1       21 0.55312845E-02 0.20832365E+02</pdfrwt>
<totfact> 0.72355593E+06</totfact>
</mgrwt>
</event>
<event>
 4    1  0.4505197E+006  0.4193502E+02  0.7546771E-02  0.1494436E+00
         21   -1    0    0  503  501  0.00000000000E+00  0.00000000000E+00  0.21956091622E+01  0.21956091622E+01  0.00000000000E+00 0.  1.
         21   -1    0    0  504  502 -0.00000000000E+00 -0.00000000000E+00 -0.28097671604E+04  0.28097671604E+04  0.00000000000E+00 0. -1.
         21    1    1    2  503  502 -0.37237224042E+01  0.41769363968E+02 -0.21496618672E+03  0.21901828076E+03  0.00000000000E+00 0.  1.
         21    1    1    2  504  501  0.37237224042E+01 -0.41769363968E+02 -0.25926053645E+04  0.25929444888E+04  0.00000000000E+00 0. -1.
<mgrwt>
<rscale>  2 0.41935020E+02</rscale>
<asrwt>0</asrwt>
<pdfrwt beam="1">  1       21 0.33778666E-03 0.41935020E+02</pdfrwt>
<pdfrwt beam="2">  1       21 0.43227106E+00 0.41935020E+02</pdfrwt>
<totfact> 0.15234095E+05</totfact>
</mgrwt>
</event>
<event>
 4    1  0.4505197E+006  0.2290090E+02  0.7546771E-02  0.1693122E+00
         21   -1    0    0  504  501  0.00000000000E+00  0.00000000000E+00  0.17912701155E+03  0.17912701155E+03  0.00000000000E+00 0.  1.
         21   -1    0    0  503  502 -0.00000000000E+00 -0.00000000000E+00 -0.65944910345E+01  0.65944910345E+01  0.00000000000E+00 0.  1.
         21    1    1    2  503  501 -0.81093374708E+01 -0.21417046770E+02  0.17022976061E+02  0.28534767575E+02  0.00000000000E+00 0.  1.
         21    1    1    2  504  502  0.81093374708E+01  0.21417046770E+02  0.15550954445E+03  0.15718673501E+03  0.00000000000E+00 0.  1.
<mgrwt>
<rscale>  2 0.22900901E+02</rscale>
<asrwt>0</asrwt>
<pdfrwt beam="1">  1       21 0.27557998E-01 0.22900901E+02</pdfrwt>
<pdfrwt beam="2">  1       21 0.10145372E-02 0.22900901E+02</pdfrwt>
<totfact> 0.34117766E+07</totfact>
</mgrwt>
</event>
<event>
 4    1  0.4505197E+006  0.2038900E+02  0.7546771E-02  0.1737701E+00
         21   -1    0    0  503  501  0.00000000000E+00  0.00000000000E+00  0.39575379645E+01  0.39575379645E+01  0.00000000000E+00 0. -1.
         21   -1    0    0  504  502 -0.00000000000E+00 -0.00000000000E+00 -0.10608693521E+03  0.10608693521E+03  0.00000000000E+00 0. -1.
         21    1    1    2  503  502  0.72841604614E+01  0.19043433832E+02 -0.56523025587E+02  0.60087967075E+02  0.00000000000E+00 0. -1.
         21    1    1    2  504  501 -0.72841604614E+01 -0.19043433832E+02 -0.45606371656E+02  0.49956506096E+02  0.00000000000E+00 0. -1.
<mgrwt>
<rscale>  2 0.20389001E+02</rscale>
<asrwt>0</asrwt>
<pdfrwt beam="1">  1       21 0.60885196E-03 0.20389001E+02</pdfrwt>
<pdfrwt beam="2">  1       21 0.16321068E-01 0.20389001E+02</pdfrwt>
<totfact> 0.17690651E+08</totfact>
</mgrwt>
</event>
<event>
 4    1  0.4505197E+006  0.2706860E+02  0.7546771E-02  0.1632952E+00
         21   -1    0    0  504  501  0.00000000000E+00  0.00000000000E+00  0.71367959974E+01  0.71367959974E+01  0.00000000000E+00 0.  1.
         21   -1    0    0  503  502 -0.00000000000E+00 -0.00000000000E+00 -0.18663396453E+03  0.18663396453E+03  0.00000000000E+00 0.  1.
         21    1    1    2  503  501  0.26493852555E+02 -0.55484146575E+01 -0.24762750621E+02  0.36686549943E+02  0.00000000000E+00 0.  1.
         21    1    1    2  504  502 -0.26493852555E+02  0.55484146575E+01 -0.15473441791E+03  0.15708421059E+03  0.00000000000E+00 0.  1.
<mgrwt>
<rscale>  2 0.27068600E+02</rscale>
<asrwt>0</asrwt>
<pdfrwt beam="1">  1       21 0.10979688E-02 0.27068600E+02</pdfrwt>
<pdfrwt beam="2">  1       21 0.28712912E-01 0.27068600E+02</pdfrwt>
<totfact> 0.29156130E+07</totfact>
</mgrwt>
</event>
<event>
 4    1  0.4505197E+006  0.2062916E+02  0.7546771E-02  0.1733098E+00
         21   -1    0    0  504  501  0.00000000000E+00  0.00000000000E+00  0.27417458774E+02  0.27417458774E+02  0.00000000000E+00 0.  1.
         21   -1    0    0  503  502 -0.00000000000E+00 -0.00000000000E+00 -0.16354577256E+02  0.16354577256E+02  0.00000000000E+00 0. -1.
         21    1    1    2  503  501  0.93660448394E+01  0.18380412839E+02  0.59211125779E+00  0.20637658971E+02  0.00000000000E+00 0. -1.
         21    1    1    2  504  502 -0.93660448394E+01 -0.18380412839E+02  0.10470770260E+02  0.23134377059E+02  0.00000000000E+00 0.  1.
<mgrwt>
<rscale>  2 0.20629163E+02</rscale>
<asrwt>0</asrwt>
<pdfrwt beam="1">  1       21 0.42180706E-02 0.20629163E+02</pdfrwt>
<pdfrwt beam="2">  1       21 0.25160888E-02 0.20629163E+02</pdfrwt>
<totfact> 0.19050897E+08</totfact>
</mgrwt>
</event>
<event>
 4    1  0.4505197E+006  0.2348201E+02  0.7546771E-02  0.1683814E+00
         21   -1    0    0  502  501  0.00000000000E+00  0.00000000000E+00  0.12709513476E+04  0.12709513476E+04  0.00000000000E+00 0.  1.
         21   -1    0    0  504  502 -0.00000000000E+00 -0.00000000000E+00 -0.27260175457E+01  0.27260175457E+01  0.00000000000E+00 0.  1.
         21    1    1    2  503  501  0.18597432825E+02 -0.14336678881E+02  0.12180793824E+04  0.12183057033E+04  0.00000000000E+00 0.  1.
         21    1    1    2  504  503 -0.18597432825E+02  0.14336678881E+02  0.50145947634E+02  0.55371661824E+02  0.00000000000E+00 0.  1.
<mgrwt>
<rscale>  2 0.23482012E+02</rscale>
<asrwt>0</asrwt>
<pdfrwt beam="1">  1       21 0.19553050E+00 0.23482012E+02</pdfrwt>
<pdfrwt beam="2">  1       21 0.41938833E-03 0.23482012E+02</pdfrwt>
<totfact> 0.20779514E+06</totfact>
</mgrwt>
</event>
<event>
 4    1  0.4505197E+006  0.2416404E+02  0.7546771E-02  0.1673308E+00
         21   -1    0    0  504  501  0.00000000000E+00  0.00000000000E+00  0.23308791463E+02  0.23308791463E+02  0.00000000000E+00 0.  1.
         21   -1    0    0  503  502 -0.00000000000E+00 -0.00000000000E+00 -0.27276943282E+02  0.27276943282E+02  0.00000000000E+00 0.  1.
         21    1    1    2  503  501 -0.16834852141E+02 -0.17334599568E+02 -0.92099521242E+01  0.25859694641E+02  0.00000000000E+00 0.  1.
         21    1    1    2  504  502  0.16834852141E+02  0.17334599568E+02  0.52418003054E+01  0.24726040104E+02  0.00000000000E+00 0.  1.
<mgrwt>
<rscale>  2 0.24164035E+02</rscale>
<asrwt>0</asrwt>
<pdfrwt beam="1">  1       21 0.35859679E-02 0.24164035E+02</pdfrwt>
<pdfrwt beam="2">  1       21 0.41964528E-02 0.24164035E+02</pdfrwt>
<totfact> 0.11616709E+08</totfact>
</mgrwt>
</event>
<event>
 4    1  0.4505197E+006  0.3205780E+02  0.7546771E-02  0.1576396E+00
         21   -1    0    0  503  501  0.00000000000E+00  0.00000000000E+00  0.76915908539E+02  0.76915908539E+02  0.00000000000E+00 0.  1.
         21   -1    0    0  504  502 -0.00000000000E+00 -0.00000000000E+00 -0.19677551580E+04  0.19677551580E+04  0.00000000000E+00 0.  1.
         21    1    1    2  503  502 -0.21667975418E+02  0.23626290395E+02 -0.19642783328E+04  0.19645399134E+04  0.00000000000E+00 0.  1.
         21    1    1    2  504  501  0.21667975418E+02 -0.23626290395E+02  0.73439083275E+02  0.80131153173E+02  0.00000000000E+00 0.  1.
<mgrwt>
<rscale>  2 0.32057803E+02</rscale>
<asrwt>0</asrwt>
<pdfrwt beam="1">  1       21 0.11833218E-01 0.32057803E+02</pdfrwt>
<pdfrwt beam="2">  1       21 0.30273153E+00 0.32057803E+02</pdfrwt>
<totfact> 0.30787955E+03</totfact>
</mgrwt>
</event>
<event>
 4    1  0.4505197E+006  0.2277176E+02  0.7546771E-02  0.1695237E+00
         21   -1    0    0  503  501  0.00000000000E+00  0.00000000000E+00  0.43682169351E+02  0.43682169351E+02  0.00000000000E+00 0.  1.
         21   -1    0    0  504  502 -0.00000000000E+00 -0.00000000000E+00 -0.18088434261E+03  0.18088434261E+03  0.00000000000E+00 0. -1.
         21    1    1    2  503  502  0.93838056757E+01  0.20748431923E+02 -0.17713736866E+03  0.17859507443E+03  0.00000000000E+00 0. -1.
         21    1    1    2  504  501 -0.93838056757E+01 -0.20748431923E+02  0.39935195403E+02  0.45971437525E+02  0.00000000000E+00 0.  1.
<mgrwt>
<rscale>  2 0.22771764E+02</rscale>
<asrwt>0</asrwt>
<pdfrwt beam="1">  1       21 0.67203337E-02 0.22771764E+02</pdfrwt>
<pdfrwt beam="2">  1       21 0.27828361E-01 0.22771764E+02</pdfrwt>
<totfact> 0.17805753E+06</totfact>
</mgrwt>
</event>
<event>
 4    1  0.4505197E+006  0.3005709E+02  0.7546771E-02  0.1597458E+00
         21   -1    0    0  504  501  0.00000000000E+00  0.00000000000E+00  0.10196466655E+02  0.10196466655E+02  0.00000000000E+00 0. -1.
         21   -1    0    0  503  502 -0.00000000000E+00 -0.00000000000E+00 -0.87299459494E+03  0.87299459494E+03  0.00000000000E+00 0. -1.
         21    1    1    2  503  501 -0.27549213942E+02  0.12019545101E+02 -0.12812196698E+02  0.32673858625E+02  0.00000000000E+00 0. -1.
         21    1    1    2  504  502  0.27549213942E+02 -0.12019545101E+02 -0.84998593158E+03  0.85051720297E+03  0.00000000000E+00 0. -1.
<mgrwt>
<rscale>  2 0.30057090E+02</rscale>
<asrwt>0</asrwt>
<pdfrwt beam="1">  1       21 0.15686866E-02 0.30057090E+02</pdfrwt>
<pdfrwt beam="2">  1       21 0.13430691E+00 0.30057090E+02</pdfrwt>
<totfact> 0.72829754E+05</totfact>
</mgrwt>
</event>
<event>
 4    1  0.4505197E+006  0.2309594E+02  0.7546771E-02  0.1689960E+00
         21   -1    0    0  504  501  0.00000000000E+00  0.00000000000E+00  0.11170298977E+04  0.11170298977E+04  0.00000000000E+00 0.  1.
         21   -1    0    0  501  502 -0.00000000000E+00 -0.00000000000E+00 -0.41297863152E+02  0.41297863152E+02  0.00000000000E+00 0. -1.
         21    1    1    2  503  502 -0.17001318707E+02 -0.15632580094E+02 -0.37939626609E+02  0.44416637259E+02  0.00000000000E+00 0. -1.
         21    1    1    2  504  503  0.17001318707E+02  0.15632580094E+02  0.11136716612E+04  0.11139111236E+04  0.00000000000E+00 0.  1.
<mgrwt>
<rscale>  2 0.23095939E+02</rscale>
<asrwt>0</asrwt>
<pdfrwt beam="1">  1       21 0.17185073E+00 0.23095939E+02</pdfrwt>
<pdfrwt beam="2">  1       21 0.63535183E-02 0.23095939E+02</pdfrwt>
<totfact> 0.44899357E+04</totfact>
</mgrwt>
</event>
<event>
 4    1  0.4505197E+006  0.2036855E+02  0.7546771E-02  0.1738097E+00
         21   -1    0    0  502  501  0.00000000000E+00  0.00000000000E+00  0.88240175600E+01  0.88240175600E+01  0.00000000000E+00 0. -1.
         21   -1    0    0  503  502 -0.00000000000E+00 -0.00000000000E+00 -0.18690738901E+03  0.18690738901E+03  0.00000000000E+00 0.  1.
         21    1    1    2  503  504  0.15021605953E+02 -0.13756054526E+02 -0.17370815076E+03  0.17489825420E+03  0.00000000000E+00 0.  1.
         21    1    1    2  504  501 -0.15021605953E+02  0.13756054526E+02 -0.43752206877E+01  0.20833152368E+02  0.00000000000E+00 0. -1.
<mgrwt>
<rscale>  2 0.20368546E+02</rscale>
<asrwt>0</asrwt>
<pdfrwt beam="1">  1       21 0.13575411E-02 0.20368546E+02</pdfrwt>
<pdfrwt beam="2">  1       21 0.28754984E-01 0.20368546E+02</pdfrwt>
<totfact> 0.19848976E+07</totfact>
</mgrwt>
</event>
<event>
 4    1  0.4505197E+006  0.2200196E+02  0.7546771E-02  0.1708218E+00
         21   -1    0    0  503  501  0.00000000000E+00  0.00000000000E+00  0.81246606622E+03  0.81246606622E+03  0.00000000000E+00 0.  1.
         21   -1    0    0  504  502 -0.00000000000E+00 -0.00000000000E+00 -0.70720638204E+00  0.70720638204E+00  0.00000000000E+00 0.  1.
         21    1    1    2  503  502 -0.21078774008E+02 -0.63064647088E+01  0.24452175231E+03  0.24550962010E+03  0.00000000000E+00 0.  1.
         21    1    1    2  504  501  0.21078774008E+02  0.63064647088E+01  0.56723710753E+03  0.56766365250E+03  0.00000000000E+00 0.  1.
<mgrwt>
<rscale>  2 0.22001959E+02</rscale>
<asrwt>0</asrwt>
<pdfrwt beam="1">  1       21 0.12499403E+00 0.22001959E+02</pdfrwt>
<pdfrwt beam="2">  1       21 0.10880163E-03 0.22001959E+02</pdfrwt>
<totfact> 0.42419623E+07</totfact>
</mgrwt>
</event>
<event>
 4    1  0.4505197E+006  0.2941051E+02  0.7546771E-02  0.1604698E+00
         21   -1    0    0  502  501  0.00000000000E+00  0.00000000000E+00  0.16835489277E+03  0.16835489277E+03  0.00000000000E+00 0. -1.
         21   -1    0    0  503  502 -0.00000000000E+00 -0.00000000000E+00 -0.54114232924E+01  0.54114232924E+01  0.00000000000E+00 0.  1.
         21    1    1    2  503  504 -0.25334972379E+02  0.14937104476E+02  0.10100778777E+03  0.10520242918E+03  0.00000000000E+00 0. -1.
         21    1    1    2  504  501  0.25334972379E+02 -0.14937104476E+02  0.61935681706E+02  0.68563886879E+02  0.00000000000E+00 0.  1.
<mgrwt>
<rscale>  2 0.29410507E+02</rscale>
<asrwt>0</asrwt>
<pdfrwt beam="1">  1       21 0.25900749E-01 0.29410507E+02</pdfrwt>
<pdfrwt beam="2">  1       21 0.83252679E-03 0.29410507E+02</pdfrwt>
<totfact> 0.54358936E+07</totfact>
</mgrwt>
</event>
<event>
 4    1  0.4505197E+006  0.2267511E+02  0.7546771E-02  0.1696831E+00
         21   -1    0    0  503  501  0.00000000000E+00  0.00000000000E+00  0.84847335512E+02  0.84847335512E+02  0.00000000000E+00 0.  1.
         21   -1    0    0  504  502 -0.00000000000E+00 -0.00000000000E+00 -0.28791782538E+03  0.28791782538E+03  0.00000000000E+00 0.  1.
         21    1    1    2  503  502 -0.87758154956E+01  0.20908033374E+02 -0.28594598874E+03  0.28684363210E+03  0.00000000000E+00 0.  1.
         21    1    1    2  504  501  0.87758154956E+01 -0.20908033374E+02  0.82875498873E+02  0.85921528796E+02  0.00000000000E+00 0.  1.
<mgrwt>
<rscale>  2 0.22675114E+02</rscale>
<asrwt>0</asrwt>
<pdfrwt beam="1">  1       21 0.13053436E-01 0.22675114E+02</pdfrwt>
<pdfrwt beam="2">  1       21 0.44295050E-01 0.22675114E+02</pdfrwt>
<totfact> 0.25191971E+05</totfact>
</mgrwt>
</event>
<event>
 4    1  0.4505197E+006  0.4012447E+02  0.7546771E-02  0.1507298E+00
         21   -1    0    0  504  501  0.00000000000E+00  0.00000000000E+00  0.24354355587E+04  0.24354355587E+04  0.00000000000E+00 0. -1.
         21   -1    0    0  503  502 -0.00000000000E+00 -0.00000000000E+00 -0.13153488687E+02  0.13153488687E+02  0.00000000000E+00 0.  1.
         21    1    1    2  503  501 -0.32166598073E+02  0.23985051364E+02  0.24042739924E+04  0.24046087838E+04  0.00000000000E+00 0. -1.
         21    1    1    2  504  502  0.32166598073E+02 -0.23985051364E+02  0.18008077553E+02  0.43980263502E+02  0.00000000000E+00 0.  1.
<mgrwt>
<rscale>  2 0.40124465E+02</rscale>
<asrwt>0</asrwt>
<pdfrwt beam="1">  1       21 0.37468204E+00 0.40124465E+02</pdfrwt>
<pdfrwt beam="2">  1       21 0.20236156E-02 0.40124465E+02</pdfrwt>
<totfact> 0.21552841E+04</totfact>
</mgrwt>
</event>
<event>
 4    1  0.4505197E+006  0.2968169E+02  0.7546771E-02  0.1601634E+00
         21   -1    0    0  504  501  0.00000000000E+00  0.00000000000E+00  0.16248094964E+02  0.16248094964E+02  0.00000000000E+00 0.  1.
         21   -1    0    0  503  502 -0.00000000000E+00 -0.00000000000E+00 -0.33364262465E+03  0.33364262465E+03  0.00000000000E+00 0.  1.
         21    1    1    2  503  501  0.25253188092E+02 -0.15597416392E+02  0.14025962403E+01  0.29714814203E+02  0.00000000000E+00 0.  1.
         21    1    1    2  504  502 -0.25253188092E+02  0.15597416392E+02 -0.31879712593E+03  0.32017590541E+03  0.00000000000E+00 0.  1.
<mgrwt>
<rscale>  2 0.29681693E+02</rscale>
<asrwt>0</asrwt>
<pdfrwt beam="1">  1       21 0.24997070E-02 0.29681693E+02</pdfrwt>
<pdfrwt beam="2">  1       21 0.51329633E-01 0.29681693E+02</pdfrwt>
<totfact> 0.27827146E+06</totfact>
</mgrwt>
</event>
<event>
 4    1  0.4505197E+006  0.2095020E+02  0.7546771E-02  0.1727067E+00
         21   -1    0    0  502  501  0.00000000000E+00  0.00000000000E+00  0.30787054799E+03  0.30787054799E+03  0.00000000000E+00 0.  1.
         21   -1    0    0  504  502 -0.00000000000E+00 -0.00000000000E+00 -0.45266884780E+02  0.45266884780E+02  0.00000000000E+00 0.  1.
         21    1    1    2  503  501 -0.17604003437E+02  0.11358262052E+02  0.30506787742E+03  0.30578639748E+03  0.00000000000E+00 0.  1.
         21    1    1    2  504  503  0.17604003437E+02 -0.11358262052E+02 -0.42464214211E+02  0.47351035284E+02  0.00000000000E+00 0.  1.
<mgrwt>
<rscale>  2 0.20950204E+02</rscale>
<asrwt>0</asrwt>
<pdfrwt beam="1">  1       21 0.47364698E-01 0.20950204E+02</pdfrwt>
<pdfrwt beam="2">  1       21 0.69641363E-02 0.20950204E+02</pdfrwt>
<totfact> 0.62052923E+05</totfact>
</mgrwt>
</event>
<event>
 4    1  0.4505197E+006  0.3898179E+02  0.7546771E-02  0.1515841E+00
         21   -1    0    0  503  501  0.00000000000E+00  0.00000000000E+00  0.37230380959E+01  0.37230380959E+01  0.00000000000E+00 0. -1.
         21   -1    0    0  504  502 -0.00000000000E+00 -0.00000000000E+00 -0.66031740038E+03  0.66031740038E+03  0.00000000000E+00 0. -1.
         21    1    1    2  503  502  0.79318462901E+00  0.38973717592E+02 -0.12312069487E+03  0.12914443585E+03  0.00000000000E+00 0. -1.
         21    1    1    2  504  501 -0.79318462901E+00 -0.38973717592E+02 -0.53347366742E+03  0.53489600263E+03  0.00000000000E+00 0. -1.
<mgrwt>
<rscale>  2 0.38981788E+02</rscale>
<asrwt>0</asrwt>
<pdfrwt beam="1">  1       21 0.57277491E-03 0.38981788E+02</pdfrwt>
<pdfrwt beam="2">  1       21 0.10158732E+00 0.38981788E+02</pdfrwt>
<totfact> 0.65178562E+06</totfact>
</mgrwt>
</event>
<event>
 4    1  0.4505197E+006  0.2633331E+02  0.7546771E-02  0.1642558E+00
         21   -1    0    0  502  501  0.00000000000E+00  0.00000000000E+00  0.10103815688E+02  0.10103815688E+02  0.00000000000E+00 0.  1.
         21   -1    0    0  503  502 -0.00000000000E+00 -0.00000000000E+00 -0.14072808710E+03  0.14072808710E+03  0.00000000000E+00 0.  1.
         21    1    1    2  503  504 -0.94024018769E+01  0.24597523175E+02 -0.11929167794E+03  0.12216361051E+03  0.00000000000E+00 0.  1.
         21    1    1    2  504  501  0.94024018769E+01 -0.24597523175E+02 -0.11332593475E+02  0.28668292280E+02  0.00000000000E+00 0.  1.
<mgrwt>
<rscale>  2 0.26333312E+02</rscale>
<asrwt>0</asrwt>
<pdfrwt beam="1">  1       21 0.15544332E-02 0.26333312E+02</pdfrwt>
<pdfrwt beam="2">  1       21 0.21650475E-01 0.26333312E+02</pdfrwt>
<totfact> 0.28345744E+07</totfact>
</mgrwt>
</event>
<event>
 4    1  0.4505197E+006  0.3189966E+02  0.7546771E-02  0.1577992E+00
         21   -1    0    0  502  501  0.00000000000E+00  0.00000000000E+00  0.19684523915E+03  0.19684523915E+03  0.00000000000E+00 0.  1.
         21   -1    0    0  503  502 -0.00000000000E+00 -0.00000000000E+00 -0.22883371514E+02  0.22883371514E+02  0.00000000000E+00 0. -1.
         21    1    1    2  503  504 -0.28962736567E+02 -0.13369671720E+02 -0.96805716224E+01  0.33336192019E+02  0.00000000000E+00 0. -1.
         21    1    1    2  504  501  0.28962736567E+02  0.13369671720E+02  0.18364243926E+03  0.18639241865E+03  0.00000000000E+00 0.  1.
<mgrwt>
<rscale>  2 0.31899659E+02</rscale>
<asrwt>0</asrwt>
<pdfrwt beam="1">  1       21 0.30283882E-01 0.31899659E+02</pdfrwt>
<pdfrwt beam="2">  1       21 0.35205188E-02 0.31899659E+02</pdfrwt>
<totfact> 0.44733928E+06</totfact>
</mgrwt>
</event>
<event>
 4    1  0.4505197E+006  0.2336941E+02  0.7546771E-02  0.1685591E+00
         21   -1    0    0  503  501  0.00000000000E+00  0.00000000000E+00  0.44850296576E+02  0.44850296576E+02  0.00000000000E+00 0.  1.
         21   -1    0    0  504  502 -0.00000000000E+00 -0.00000000000E+00 -0.37622189544E+03  0.37622189544E+03  0.00000000000E+00 0. -1.
         21    1    1    2  503  502 -0.23355580185E+02 -0.80375410570E+00 -0.37278679023E+03  0.37351856730E+03  0.00000000000E+00 0. -1.
         21    1    1    2  504  501  0.23355580185E+02  0.80375410570E+00  0.41415191374E+02  0.47553624709E+02  0.00000000000E+00 0.  1.
<mgrwt>
<rscale>  2 0.23369406E+02</rscale>
<asrwt>0</asrwt>
<pdfrwt beam="1">  1       21 0.69000455E-02 0.23369406E+02</pdfrwt>
<pdfrwt beam="2">  1       21 0.57880293E-01 0.23369406E+02</pdfrwt>
<totfact> 0.42887295E+05</totfact>
</mgrwt>
</event>
<event>
 4    1  0.4505197E+006  0.2803467E+02  0.7546771E-02  0.1620887E+00
         21   -1    0    0  503  501  0.00000000000E+00  0.00000000000E+00  0.17161394407E+02  0.17161394407E+02  0.00000000000E+00 0. -1.
         21   -1    0    0  504  502 -0.00000000000E+00 -0.00000000000E+00 -0.56573672348E+02  0.56573672348E+02  0.00000000000E+00 0. -1.
         21    1    1    2  503  502 -0.19675526649E+02  0.19970390772E+02 -0.36153874643E+01  0.28266833622E+02  0.00000000000E+00 0. -1.
         21    1    1    2  504  501  0.19675526649E+02 -0.19970390772E+02 -0.35796890476E+02  0.45468233133E+02  0.00000000000E+00 0. -1.
<mgrwt>
<rscale>  2 0.28034672E+02</rscale>
<asrwt>0</asrwt>
<pdfrwt beam="1">  1       21 0.26402145E-02 0.28034672E+02</pdfrwt>
<pdfrwt beam="2">  1       21 0.87036421E-02 0.28034672E+02</pdfrwt>
<totfact> 0.59996481E+07</totfact>
</mgrwt>
</event>
<event>
 4    1  0.4505197E+006  0.2117688E+02  0.7546771E-02  0.1722889E+00
         21   -1    0    0  503  501  0.00000000000E+00  0.00000000000E+00  0.71339724946E+01  0.71339724946E+01  0.00000000000E+00 0.  1.
         21   -1    0    0  504  502 -0.00000000000E+00 -0.00000000000E+00 -0.88655651380E+02  0.88655651380E+02  0.00000000000E+00 0.  1.
         21    1    1    2  503  502 -0.11050281537E+02  0.18065205827E+02 -0.66594517244E+02  0.69880541716E+02  0.00000000000E+00 0.  1.
         21    1    1    2  504  501  0.11050281537E+02 -0.18065205827E+02 -0.14927161641E+02  0.25909082158E+02  0.00000000000E+00 0.  1.
<mgrwt>
<rscale>  2 0.21176883E+02</rscale>
<asrwt>0</asrwt>
<pdfrwt beam="1">  1       21 0.10975343E-02 0.21176883E+02</pdfrwt>
<pdfrwt beam="2">  1       21 0.13639331E-01 0.21176883E+02</pdfrwt>
<totfact> 0.10089391E+08</totfact>
</mgrwt>
</event>
<event>
 4    1  0.4505197E+006  0.2329540E+02  0.7546771E-02  0.1686766E+00
         21   -1    0    0  503  501  0.00000000000E+00  0.00000000000E+00  0.17799937468E+02  0.17799937468E+02  0.00000000000E+00 0.  1.
         21   -1    0    0  504  502 -0.00000000000E+00 -0.00000000000E+00 -0.34447308592E+02  0.34447308592E+02  0.00000000000E+00 0.  1.
         21    1    1    2  503  502  0.13783060897E+02 -0.18780388248E+02  0.53343128006E+00  0.23301508521E+02  0.00000000000E+00 0.  1.
         21    1    1    2  504  501 -0.13783060897E+02  0.18780388248E+02 -0.17180802405E+02  0.28945737539E+02  0.00000000000E+00 0.  1.
<mgrwt>
<rscale>  2 0.23295402E+02</rscale>
<asrwt>0</asrwt>
<pdfrwt beam="1">  1       21 0.27384519E-02 0.23295402E+02</pdfrwt>
<pdfrwt beam="2">  1       21 0.52995859E-02 0.23295402E+02</pdfrwt>
<totfact> 0.12083329E+08</totfact>
</mgrwt>
</event>
<event>
 4    1  0.4505197E+006  0.2198919E+02  0.7546771E-02  0.1708439E+00
         21   -1    0    0  504  501  0.00000000000E+00  0.00000000000E+00  0.25119517646E+03  0.25119517646E+03  0.00000000000E+00 0.  1.
         21   -1    0    0  503  502 -0.00000000000E+00 -0.00000000000E+00 -0.19273587935E+01  0.19273587935E+01  0.00000000000E+00 0.  1.
         21    1    1    2  503  501  0.71181404348E+01 -0.20805208491E+02  0.12010991639E+03  0.12210616953E+03  0.00000000000E+00 0.  1.
         21    1    1    2  504  502 -0.71181404348E+01  0.20805208491E+02  0.12915790128E+03  0.13101636572E+03  0.00000000000E+00 0.  1.
<mgrwt>
<rscale>  2 0.21989193E+02</rscale>
<asrwt>0</asrwt>
<pdfrwt beam="1">  1       21 0.38645386E-01 0.21989193E+02</pdfrwt>
<pdfrwt beam="2">  1       21 0.29651694E-03 0.21989193E+02</pdfrwt>
<totfact> 0.11175948E+08</totfact>
</mgrwt>
</event>
<event>
 4    1  0.4505197E+006  0.2578834E+02  0.7546771E-02  0.1649930E+00
         21   -1    0    0  503  501  0.00000000000E+00  0.00000000000E+00  0.10859971970E+03  0.10859971970E+03  0.00000000000E+00 0.  1.
         21   -1    0    0  504  502 -0.00000000000E+00 -0.00000000000E+00 -0.48502436162E+02  0.48502436162E+02  0.00000000000E+00 0. -1.
         21    1    1    2  503  502  0.18464547570E+02  0.18002749168E+02  0.10347366145E+03  0.10663881614E+03  0.00000000000E+00 0.  1.
         21    1    1    2  504  501 -0.18464547570E+02 -0.18002749168E+02 -0.43376377914E+02  0.50463339718E+02  0.00000000000E+00 0. -1.
<mgrwt>
<rscale>  2 0.25788340E+02</rscale>
<asrwt>0</asrwt>
<pdfrwt beam="1">  1       21 0.16707649E-01 0.25788340E+02</pdfrwt>
<pdfrwt beam="2">  1       21 0.74619133E-02 0.25788340E+02</pdfrwt>
<totfact> 0.37513932E+06</totfact>
</mgrwt>
</event>
<event>
 4    1  0.4505197E+006  0.7323898E+02  0.7546771E-02  0.1349413E+00
         21   -1    0    0  504  501  0.00000000000E+00  0.00000000000E+00  0.78020746354E+02  0.78020746354E+02  0.00000000000E+00 0. -1.
         21   -1    0    0  501  502 -0.00000000000E+00 -0.00000000000E+00 -0.33389520276E+03  0.33389520276E+03  0.00000000000E+00 0. -1.
         21    1    1    2  503  502 -0.64276733213E+02  0.35106260595E+02 -0.31147065866E+03  0.31996549685E+03  0.00000000000E+00 0. -1.
         21    1    1    2  504  503  0.64276733213E+02 -0.35106260595E+02  0.55596202261E+02  0.91950452262E+02  0.00000000000E+00 0. -1.
<mgrwt>
<rscale>  2 0.73238978E+02</rscale>
<asrwt>0</asrwt>
<pdfrwt beam="1">  1       21 0.12003192E-01 0.73238978E+02</pdfrwt>
<pdfrwt beam="2">  1       21 0.51368493E-01 0.73238978E+02</pdfrwt>
<totfact> 0.21822898E+05</totfact>
</mgrwt>
</event>
<event>
 4    1  0.4505197E+006  0.2283601E+02  0.7546771E-02  0.1694182E+00
         21   -1    0    0  502  501  0.00000000000E+00  0.00000000000E+00  0.12116014285E+02  0.12116014285E+02  0.00000000000E+00 0. -1.
         21   -1    0    0  504  502 -0.00000000000E+00 -0.00000000000E+00 -0.65576375277E+03  0.65576375277E+03  0.00000000000E+00 0.  1.
         21    1    1    2  503  501  0.14329499693E+02 -0.17780571640E+02  0.97102175522E+00  0.22856643948E+02  0.00000000000E+00 0. -1.
         21    1    1    2  504  503 -0.14329499693E+02  0.17780571640E+02 -0.64461876024E+03  0.64502312311E+03  0.00000000000E+00 0.  1.
<mgrwt>
<rscale>  2 0.22836009E+02</rscale>
<asrwt>0</asrwt>
<pdfrwt beam="1">  1       21 0.18640020E-02 0.22836009E+02</pdfrwt>
<pdfrwt beam="2">  1       21 0.10088674E+00 0.22836009E+02</pdfrwt>
<totfact> 0.10510148E+06</totfact>
</mgrwt>
</event>
<event>
 4    1  0.4505197E+006  0.5119000E+02  0.7546771E-02  0.1439027E+00
         21   -1    0    0  503  501  0.00000000000E+00  0.00000000000E+00  0.31327795438E+02  0.31327795438E+02  0.00000000000E+00 0. -1.
         21   -1    0    0  501  502 -0.00000000000E+00 -0.00000000000E+00 -0.11092330948E+03  0.11092330948E+03  0.00000000000E+00 0. -1.
         21    1    1    2  503  504  0.46176157928E+02  0.22094769699E+02 -0.45263960537E+01  0.51389733121E+02  0.00000000000E+00 0. -1.
         21    1    1    2  504  502 -0.46176157928E+02 -0.22094769699E+02 -0.75069117987E+02  0.90861371795E+02  0.00000000000E+00 0. -1.
<mgrwt>
<rscale>  2 0.51190003E+02</rscale>
<asrwt>0</asrwt>
<pdfrwt beam="1">  1       21 0.48196609E-02 0.51190003E+02</pdfrwt>
<pdfrwt beam="2">  1       21 0.17065124E-01 0.51190003E+02</pdfrwt>
<totfact> 0.80370333E+06</totfact>
</mgrwt>
</event>
<event>
 4    1  0.4505197E+006  0.2409436E+02  0.7546771E-02  0.1674361E+00
         21   -1    0    0  502  501  0.00000000000E+00  0.00000000000E+00  0.68101112502E+02  0.68101112502E+02  0.00000000000E+00 0. -1.
         21   -1    0    0  503  502 -0.00000000000E+00 -0.00000000000E+00 -0.26550271463E+02  0.26550271463E+02  0.00000000000E+00 0. -1.
         21    1    1    2  503  504 -0.23644413876E+02 -0.46346245348E+01 -0.18219463258E+02  0.30207397994E+02  0.00000000000E+00 0. -1.
         21    1    1    2  504  501  0.23644413876E+02  0.46346245348E+01  0.59770304297E+02  0.64443985972E+02  0.00000000000E+00 0. -1.
<mgrwt>
<rscale>  2 0.24094357E+02</rscale>
<asrwt>0</asrwt>
<pdfrwt beam="1">  1       21 0.10477094E-01 0.24094357E+02</pdfrwt>
<pdfrwt beam="2">  1       21 0.40846572E-02 0.24094357E+02</pdfrwt>
<totfact> 0.21487595E+07</totfact>
</mgrwt>
</event>
<event>
 4    1  0.4505197E+006  0.2492666E+02  0.7546771E-02  0.1662058E+00
         21   -1    0    0  504  501  0.00000000000E+00  0.00000000000E+00  0.88553289772E+01  0.88553289772E+01  0.00000000000E+00 0. -1.
         21   -1    0    0  503  502 -0.00000000000E+00 -0.00000000000E+00 -0.37230823908E+03  0.37230823908E+03  0.00000000000E+00 0. -1.
         21    1    1    2  503  501  0.21544315604E+02 -0.12537182588E+02 -0.35341295768E+03  0.35429092162E+03  0.00000000000E+00 0. -1.
         21    1    1    2  504  502 -0.21544315604E+02  0.12537182588E+02 -0.10039952420E+02  0.26872646440E+02  0.00000000000E+00 0. -1.
<mgrwt>
<rscale>  2 0.24926662E+02</rscale>
<asrwt>0</asrwt>
<pdfrwt beam="1">  1       21 0.13623589E-02 0.24926662E+02</pdfrwt>
<pdfrwt beam="2">  1       21 0.57278168E-01 0.24926662E+02</pdfrwt>
<totfact> 0.55760166E+06</totfact>
</mgrwt>
</event>
<event>
 4    1  0.4505197E+006  0.2159994E+02  0.7546771E-02  0.1715264E+00
         21   -1    0    0  504  501  0.00000000000E+00  0.00000000000E+00  0.10068993186E+03  0.10068993186E+03  0.00000000000E+00 0. -1.
         21   -1    0    0  501  502 -0.00000000000E+00 -0.00000000000E+00 -0.18330041161E+02  0.18330041161E+02  0.00000000000E+00 0.  1.
         21    1    1    2  503  502 -0.21330040384E+02  0.34039357202E+01 -0.10261352347E+02  0.23913442938E+02  0.00000000000E+00 0.  1.
         21    1    1    2  504  503  0.21330040384E+02 -0.34039357202E+01  0.92621243048E+02  0.95106530085E+02  0.00000000000E+00 0. -1.
<mgrwt>
<rscale>  2 0.21599940E+02</rscale>
<asrwt>0</asrwt>
<pdfrwt beam="1">  1       21 0.15490758E-01 0.21599940E+02</pdfrwt>
<pdfrwt beam="2">  1       21 0.28200064E-02 0.21599940E+02</pdfrwt>
<totfact> 0.19397854E+07</totfact>
</mgrwt>
</event>
<event>
 4    1  0.4505197E+006  0.2353696E+02  0.7546771E-02  0.1682951E+00
         21   -1    0    0  504  501  0.00000000000E+00  0.00000000000E+00  0.35230481220E+02  0.35230481220E+02  0.00000000000E+00 0.  1.
         21   -1    0    0  503  502 -0.00000000000E+00 -0.00000000000E+00 -0.15789560848E+02  0.15789560848E+02  0.00000000000E+00 0.  1.
         21    1    1    2  503  501 -0.22581917250E+02  0.66366667056E+01  0.80853136944E+01  0.24886957009E+02  0.00000000000E+00 0.  1.
         21    1    1    2  504  502  0.22581917250E+02 -0.66366667056E+01  0.11355606677E+02  0.26133085058E+02  0.00000000000E+00 0.  1.
<mgrwt>
<rscale>  2 0.23536957E+02</rscale>
<asrwt>0</asrwt>
<pdfrwt beam="1">  1       21 0.54200740E-02 0.23536957E+02</pdfrwt>
<pdfrwt beam="2">  1       21 0.24291632E-02 0.23536957E+02</pdfrwt>
<totfact> 0.14078414E+08</totfact>
</mgrwt>
</event>
<event>
 4    1  0.4505197E+006  0.2172976E+02  0.7546771E-02  0.1712968E+00
         21   -1    0    0  503  501  0.00000000000E+00  0.00000000000E+00  0.24406629936E+01  0.24406629936E+01  0.00000000000E+00 0.  1.
         21   -1    0    0  504  502 -0.00000000000E+00 -0.00000000000E+00 -0.37432583442E+03  0.37432583442E+03  0.00000000000E+00 0.  1.
         21    1    1    2  503  502  0.93946188427E+01 -0.19593968336E+02 -0.54997306183E+02  0.59134475104E+02  0.00000000000E+00 0.  1.
         21    1    1    2  504  501 -0.93946188427E+01  0.19593968336E+02 -0.31688786524E+03  0.31763202231E+03  0.00000000000E+00 0.  1.
<mgrwt>
<rscale>  2 0.21729760E+02</rscale>
<asrwt>0</asrwt>
<pdfrwt beam="1">  1       21 0.37548646E-03 0.21729760E+02</pdfrwt>
<pdfrwt beam="2">  1       21 0.57588613E-01 0.21729760E+02</pdfrwt>
<totfact> 0.36653543E+07</totfact>
</mgrwt>
</event>
<event>
 4    1  0.4505197E+006  0.2062116E+02  0.7546771E-02  0.1733250E+00
         21   -1    0    0  504  501  0.00000000000E+00  0.00000000000E+00  0.40292299698E+02  0.40292299698E+02  0.00000000000E+00 0. -1.
         21   -1    0    0  503  502 -0.00000000000E+00 -0.00000000000E+00 -0.26590907142E+02  0.26590907142E+02  0.00000000000E+00 0. -1.
         21    1    1    2  503  501 -0.75882302450E+01 -0.19174230911E+02 -0.19120086769E+02  0.28121345759E+02  0.00000000000E+00 0. -1.
         21    1    1    2  504  502  0.75882302450E+01  0.19174230911E+02  0.32821479325E+02  0.38761861080E+02  0.00000000000E+00 0. -1.
<mgrwt>
<rscale>  2 0.20621163E+02</rscale>
<asrwt>0</asrwt>
<pdfrwt beam="1">  1       21 0.61988153E-02 0.20621163E+02</pdfrwt>
<pdfrwt beam="2">  1       21 0.40909088E-02 0.20621163E+02</pdfrwt>
<totfact> 0.48565518E+07</totfact>
</mgrwt>
</event>
<event>
 4    1  0.4505197E+006  0.2561525E+02  0.7546771E-02  0.1652319E+00
         21   -1    0    0  504  501  0.00000000000E+00  0.00000000000E+00  0.84246849375E+01  0.84246849375E+01  0.00000000000E+00 0. -1.
         21   -1    0    0  501  502 -0.00000000000E+00 -0.00000000000E+00 -0.66693378358E+03  0.66693378358E+03  0.00000000000E+00 0. -1.
         21    1    1    2  503  502 -0.25611554618E+02  0.43494723943E+00 -0.64660514180E+03  0.64711231661E+03  0.00000000000E+00 0. -1.
         21    1    1    2  504  503  0.25611554618E+02 -0.43494723943E+00 -0.11903956845E+02  0.28246151908E+02  0.00000000000E+00 0. -1.
<mgrwt>
<rscale>  2 0.25615248E+02</rscale>
<asrwt>0</asrwt>
<pdfrwt beam="1">  1       21 0.12961054E-02 0.25615248E+02</pdfrwt>
<pdfrwt beam="2">  1       21 0.10260520E+00 0.25615248E+02</pdfrwt>
<totfact> 0.17803426E+06</totfact>
</mgrwt>
</event>
<event>
 4    1  0.4505197E+006  0.2071000E+02  0.7546771E-02  0.1731567E+00
         21   -1    0    0  504  501  0.00000000000E+00  0.00000000000E+00  0.64428802211E+01  0.64428802211E+01  0.00000000000E+00 0.  1.
         21   -1    0    0  503  502 -0.00000000000E+00 -0.00000000000E+00 -0.14665961186E+03  0.14665961186E+03  0.00000000000E+00 0.  1.
         21    1    1    2  503  501 -0.18225380263E+02 -0.98356397376E+01 -0.12667812800E+03  0.12835985513E+03  0.00000000000E+00 0.  1.
         21    1    1    2  504  502  0.18225380263E+02  0.98356397376E+01 -0.13538603632E+02  0.24742636947E+02  0.00000000000E+00 0.  1.
<mgrwt>
<rscale>  2 0.20710005E+02</rscale>
<asrwt>0</asrwt>
<pdfrwt beam="1">  1       21 0.99121233E-03 0.20710005E+02</pdfrwt>
<pdfrwt beam="2">  1       21 0.22563017E-01 0.20710005E+02</pdfrwt>
<totfact> 0.49189100E+07</totfact>
</mgrwt>
</event>
<event>
 4    1  0.4505197E+006  0.2779695E+02  0.7546771E-02  0.1623800E+00
         21   -1    0    0  502  501  0.00000000000E+00  0.00000000000E+00  0.51326608343E+03  0.51326608343E+03  0.00000000000E+00 0.  1.
         21   -1    0    0  504  502 -0.00000000000E+00 -0.00000000000E+00 -0.68844014280E+01  0.68844014280E+01  0.00000000000E+00 0.  1.
         21    1    1    2  503  501  0.16113154768E+02  0.22650306730E+02  0.48307910291E+03  0.48387817664E+03  0.00000000000E+00 0.  1.
         21    1    1    2  504  503 -0.16113154768E+02 -0.22650306730E+02  0.23302579083E+02  0.36272308218E+02  0.00000000000E+00 0.  1.
<mgrwt>
<rscale>  2 0.27796945E+02</rscale>
<asrwt>0</asrwt>
<pdfrwt beam="1">  1       21 0.78963983E-01 0.27796945E+02</pdfrwt>
<pdfrwt beam="2">  1       21 0.10591391E-02 0.27796945E+02</pdfrwt>
<totfact> 0.42930302E+06</totfact>
</mgrwt>
</event>
<event>
 4    1  0.4505197E+006  0.2645158E+02  0.7546771E-02  0.1640987E+00
         21   -1    0    0  504  501  0.00000000000E+00  0.00000000000E+00  0.95324585838E+03  0.95324585838E+03  0.00000000000E+00 0.  1.
         21   -1    0    0  501  502 -0.00000000000E+00 -0.00000000000E+00 -0.42488380519E+01  0.42488380519E+01  0.00000000000E+00 0.  1.
         21    1    1    2  503  502 -0.20156563593E+02 -0.17128889693E+02  0.39063115473E+02  0.47176402030E+02  0.00000000000E+00 0.  1.
         21    1    1    2  504  503  0.20156563593E+02  0.17128889693E+02  0.90993390485E+03  0.91031829440E+03  0.00000000000E+00 0.  1.
<mgrwt>
<rscale>  2 0.26451577E+02</rscale>
<asrwt>0</asrwt>
<pdfrwt beam="1">  1       21 0.14665304E+00 0.26451577E+02</pdfrwt>
<pdfrwt beam="2">  1       21 0.65366815E-03 0.26451577E+02</pdfrwt>
<totfact> 0.22071906E+06</totfact>
</mgrwt>
</event>
<event>
 4    1  0.4505197E+006  0.2018045E+02  0.7546771E-02  0.1741763E+00
         21   -1    0    0  503  501  0.00000000000E+00  0.00000000000E+00  0.91585915442E+01  0.91585915442E+01  0.00000000000E+00 0. -1.
         21   -1    0    0  504  502 -0.00000000000E+00 -0.00000000000E+00 -0.21974721043E+03  0.21974721043E+03  0.00000000000E+00 0.  1.
         21    1    1    2  503  502 -0.19724064451E+01 -0.20083824791E+02 -0.20751344322E+03  0.20849239680E+03  0.00000000000E+00 0.  1.
         21    1    1    2  504  501  0.19724064451E+01  0.20083824791E+02 -0.30751756630E+01  0.20413405174E+02  0.00000000000E+00 0. -1.
<mgrwt>
<rscale>  2 0.20180446E+02</rscale>
<asrwt>0</asrwt>
<pdfrwt beam="1">  1       21 0.14090140E-02 0.20180446E+02</pdfrwt>
<pdfrwt beam="2">  1       21 0.33807265E-01 0.20180446E+02</pdfrwt>
<totfact> 0.13955334E+07</totfact>
</mgrwt>
</event>
<event>
 4    1  0.4505197E+006  0.2230001E+02  0.7546771E-02  0.1703115E+00
         21   -1    0    0  503  501  0.00000000000E+00  0.00000000000E+00  0.25984547069E+02  0.25984547069E+02  0.00000000000E+00 0. -1.
         21   -1    0    0  504  502 -0.00000000000E+00 -0.00000000000E+00 -0.63569135511E+02  0.63569135511E+02  0.00000000000E+00 0. -1.
         21    1    1    2  503  502  0.36768933693E+01  0.21994793751E+02 -0.56226992680E+02  0.60487727705E+02  0.00000000000E+00 0. -1.
         21    1    1    2  504  501 -0.36768933693E+01 -0.21994793751E+02  0.18642404238E+02  0.29065954875E+02  0.00000000000E+00 0. -1.
<mgrwt>
<rscale>  2 0.22300011E+02</rscale>
<asrwt>0</asrwt>
<pdfrwt beam="1">  1       21 0.39976226E-02 0.22300011E+02</pdfrwt>
<pdfrwt beam="2">  1       21 0.97798670E-02 0.22300011E+02</pdfrwt>
<totfact> 0.24478105E+07</totfact>
</mgrwt>
</event>
<event>
 4    1  0.4505197E+006  0.2750542E+02  0.7546771E-02  0.1627422E+00
         21   -1    0    0  504  501  0.00000000000E+00  0.00000000000E+00  0.17989049445E+03  0.17989049445E+03  0.00000000000E+00 0. -1.
         21   -1    0    0  503  502 -0.00000000000E+00 -0.00000000000E+00 -0.27525883915E+02  0.27525883915E+02  0.00000000000E+00 0. -1.
         21    1    1    2  503  501  0.56709387930E+01  0.26914463452E+02 -0.19275030492E+02  0.33586823163E+02  0.00000000000E+00 0. -1.
         21    1    1    2  504  502 -0.56709387930E+01 -0.26914463452E+02  0.17163964103E+03  0.17382955520E+03  0.00000000000E+00 0. -1.
<mgrwt>
<rscale>  2 0.27505416E+02</rscale>
<asrwt>0</asrwt>
<pdfrwt beam="1">  1       21 0.27675460E-01 0.27505416E+02</pdfrwt>
<pdfrwt beam="2">  1       21 0.42347515E-02 0.27505416E+02</pdfrwt>
<totfact> 0.38604132E+06</totfact>
</mgrwt>
</event>
<event>
 4    1  0.4505197E+006  0.3300206E+02  0.7546771E-02  0.1567094E+00
         21   -1    0    0  502  501  0.00000000000E+00  0.00000000000E+00  0.38698614877E+02  0.38698614877E+02  0.00000000000E+00 0. -1.
         21   -1    0    0  504  502 -0.00000000000E+00 -0.00000000000E+00 -0.72299948021E+02  0.72299948021E+02  0.00000000000E+00 0. -1.
         21    1    1    2  503  501 -0.27215546343E+02 -0.18666822737E+02  0.26571654834E+02  0.42369671635E+02  0.00000000000E+00 0. -1.
         21    1    1    2  504  503  0.27215546343E+02  0.18666822737E+02 -0.60172987978E+02  0.68628891264E+02  0.00000000000E+00 0. -1.
<mgrwt>
<rscale>  2 0.33002064E+02</rscale>
<asrwt>0</asrwt>
<pdfrwt beam="1">  1       21 0.59536331E-02 0.33002064E+02</pdfrwt>
<pdfrwt beam="2">  1       21 0.11123069E-01 0.33002064E+02</pdfrwt>
<totfact> 0.11262005E+07</totfact>
</mgrwt>
</event>
<event>
 4    1  0.4505197E+006  0.2876501E+02  0.7546771E-02  0.1612155E+00
         21   -1    0    0  504  501  0.00000000000E+00  0.00000000000E+00  0.20481596899E+01  0.20481596899E+01  0.00000000000E+00 0.  1.
         21   -1    0    0  501  502 -0.00000000000E+00 -0.00000000000E+00 -0.20276425041E+04  0.20276425041E+04  0.00000000000E+00 0.  1.
         21    1    1    2  503  502  0.26163896039E+02 -0.11953078317E+02 -0.19209342213E+04  0.19211495798E+04  0.00000000000E+00 0.  1.
         21    1    1    2  504  503 -0.26163896039E+02  0.11953078317E+02 -0.10466012316E+03  0.10854108401E+03  0.00000000000E+00 0.  1.
<mgrwt>
<rscale>  2 0.28765005E+02</rscale>
<asrwt>0</asrwt>
<pdfrwt beam="1">  1       21 0.31510020E-03 0.28765005E+02</pdfrwt>
<pdfrwt beam="2">  1       21 0.31194628E+00 0.28765005E+02</pdfrwt>
<totfact> 0.80219182E+05</totfact>
</mgrwt>
</event>
<event>
 4    1  0.4505197E+006  0.2028156E+02  0.7546771E-02  0.1739786E+00
         21   -1    0    0  503  501  0.00000000000E+00  0.00000000000E+00  0.22098045180E+02  0.22098045180E+02  0.00000000000E+00 0. -1.
         21   -1    0    0  504  502 -0.00000000000E+00 -0.00000000000E+00 -0.49584819892E+02  0.49584819892E+02  0.00000000000E+00 0. -1.
         21    1    1    2  503  502  0.10989212510E+02 -0.17046378567E+02  0.14582566831E+02  0.24979853266E+02  0.00000000000E+00 0. -1.
         21    1    1    2  504  501 -0.10989212510E+02  0.17046378567E+02 -0.42069341543E+02  0.46703011805E+02  0.00000000000E+00 0. -1.
<mgrwt>
<rscale>  2 0.20281563E+02</rscale>
<asrwt>0</asrwt>
<pdfrwt beam="1">  1       21 0.33996993E-02 0.20281563E+02</pdfrwt>
<pdfrwt beam="2">  1       21 0.76284338E-02 0.20281563E+02</pdfrwt>
<totfact> 0.46237525E+07</totfact>
</mgrwt>
</event>
<event>
 4    1  0.4505197E+006  0.3013389E+02  0.7546771E-02  0.1596613E+00
         21   -1    0    0  503  501  0.00000000000E+00  0.00000000000E+00  0.84516736670E+01  0.84516736670E+01  0.00000000000E+00 0.  1.
         21   -1    0    0  504  502 -0.00000000000E+00 -0.00000000000E+00 -0.15897456607E+03  0.15897456607E+03  0.00000000000E+00 0.  1.
         21    1    1    2  503  502 -0.26261455695E+02  0.14777924464E+02 -0.27598884968E+02  0.40862569157E+02  0.00000000000E+00 0.  1.
         21    1    1    2  504  501  0.26261455695E+02 -0.14777924464E+02 -0.12292400744E+03  0.12656367058E+03  0.00000000000E+00 0.  1.
<mgrwt>
<rscale>  2 0.30133886E+02</rscale>
<asrwt>0</asrwt>
<pdfrwt beam="1">  1       21 0.13002576E-02 0.30133886E+02</pdfrwt>
<pdfrwt beam="2">  1       21 0.24457624E-01 0.30133886E+02</pdfrwt>
<totfact> 0.30801706E+07</totfact>
</mgrwt>
</event>
<event>
 4    1  0.4505197E+006  0.2859977E+02  0.7546771E-02  0.1614103E+00
         21   -1    0    0  503  501  0.00000000000E+00  0.00000000000E+00  0.39489438401E+03  0.39489438401E+03  0.00000000000E+00 0. -1.
         21   -1    0    0  504  502 -0.00000000000E+00 -0.00000000000E+00 -0.45951933403E+03  0.45951933403E+03  0.00000000000E+00 0. -1.
         21    1    1    2  503  502 -0.27955976181E+02  0.60340936813E+01 -0.45855541887E+03  0.45944642676E+03  0.00000000000E+00 0. -1.
         21    1    1    2  504  501  0.27955976181E+02 -0.60340936813E+01  0.39393046885E+03  0.39496729128E+03  0.00000000000E+00 0. -1.
<mgrwt>
<rscale>  2 0.28599771E+02</rscale>
<asrwt>0</asrwt>
<pdfrwt beam="1">  1       21 0.60752982E-01 0.28599771E+02</pdfrwt>
<pdfrwt beam="2">  1       21 0.70695282E-01 0.28599771E+02</pdfrwt>
<totfact> 0.59317444E+03</totfact>
</mgrwt>
</event>
<event>
 4    1  0.4505197E+006  0.3506829E+02  0.7546771E-02  0.1547995E+00
         21   -1    0    0  502  501  0.00000000000E+00  0.00000000000E+00  0.68359344145E+03  0.68359344145E+03  0.00000000000E+00 0. -1.
         21   -1    0    0  504  502 -0.00000000000E+00 -0.00000000000E+00 -0.30723091298E+01  0.30723091298E+01  0.00000000000E+00 0. -1.
         21    1    1    2  503  501  0.35008520826E+02 -0.20466147995E+01  0.56128980156E+03  0.56238423386E+03  0.00000000000E+00 0. -1.
         21    1    1    2  504  503 -0.35008520826E+02  0.20466147995E+01  0.11923133076E+03  0.12428151672E+03  0.00000000000E+00 0. -1.
<mgrwt>
<rscale>  2 0.35068293E+02</rscale>
<asrwt>0</asrwt>
<pdfrwt beam="1">  1       21 0.10516810E+00 0.35068293E+02</pdfrwt>
<pdfrwt beam="2">  1       21 0.47266349E-03 0.35068293E+02</pdfrwt>
<totfact> 0.79491510E+06</totfact>
</mgrwt>
</event>
<event>
 4    1  0.4505197E+006  0.2246179E+02  0.7546771E-02  0.1700386E+00
         21   -1    0    0  504  501  0.00000000000E+00  0.00000000000E+00  0.70038526788E+00  0.70038526788E+00  0.00000000000E+00 0.  1.
         21   -1    0    0  503  502 -0.00000000000E+00 -0.00000000000E+00 -0.77919639868E+03  0.77919639868E+03  0.00000000000E+00 0.  1.
         21    1    1    2  503  501 -0.99057832358E+00  0.22439937112E+02 -0.49639835263E+03  0.49690628544E+03  0.00000000000E+00 0.  1.
         21    1    1    2  504  502  0.99057832358E+00 -0.22439937112E+02 -0.28209766079E+03  0.28299049851E+03  0.00000000000E+00 0.  1.
<mgrwt>
<rscale>  2 0.22461790E+02</rscale>
<asrwt>0</asrwt>
<pdfrwt beam="1">  1       21 0.10775120E-03 0.22461790E+02</pdfrwt>
<pdfrwt beam="2">  1       21 0.11987680E+00 0.22461790E+02</pdfrwt>
<totfact> 0.47505528E+07</totfact>
</mgrwt>
</event>
<event>
 4    1  0.4505197E+006  0.2265449E+02  0.7546771E-02  0.1697173E+00
         21   -1    0    0  503  501  0.00000000000E+00  0.00000000000E+00  0.34274552258E+03  0.34274552258E+03  0.00000000000E+00 0.  1.
         21   -1    0    0  504  502 -0.00000000000E+00 -0.00000000000E+00 -0.79047109850E+03  0.79047109850E+03  0.00000000000E+00 0. -1.
         21    1    1    2  503  502  0.21652410946E+02 -0.66632628437E+01 -0.78993417847E+03  0.79025896533E+03  0.00000000000E+00 0. -1.
         21    1    1    2  504  501 -0.21652410946E+02  0.66632628437E+01  0.34220860255E+03  0.34295765574E+03  0.00000000000E+00 0.  1.
<mgrwt>
<rscale>  2 0.22654491E+02</rscale>
<asrwt>0</asrwt>
<pdfrwt beam="1">  1       21 0.52730081E-01 0.22654491E+02</pdfrwt>
<pdfrwt beam="2">  1       21 0.12161094E+00 0.22654491E+02</pdfrwt>
<totfact> 0.25117289E+03</totfact>
</mgrwt>
</event>
<event>
 4    1  0.4505197E+006  0.3837195E+02  0.7546771E-02  0.1520546E+00
         21   -1    0    0  503  501  0.00000000000E+00  0.00000000000E+00  0.67076206526E+02  0.67076206526E+02  0.00000000000E+00 0. -1.
         21   -1    0    0  504  502 -0.00000000000E+00 -0.00000000000E+00 -0.35056712558E+02  0.35056712558E+02  0.00000000000E+00 0. -1.
         21    1    1    2  503  502  0.16178991780E+02 -0.34794354543E+02  0.47232864022E+02  0.60855158588E+02  0.00000000000E+00 0. -1.
         21    1    1    2  504  501 -0.16178991780E+02  0.34794354543E+02 -0.15213370054E+02  0.41277760495E+02  0.00000000000E+00 0. -1.
<mgrwt>
<rscale>  2 0.38371954E+02</rscale>
<asrwt>0</asrwt>
<pdfrwt beam="1">  1       21 0.10319416E-01 0.38371954E+02</pdfrwt>
<pdfrwt beam="2">  1       21 0.53933404E-02 0.38371954E+02</pdfrwt>
<totfact> 0.15373829E+07</totfact>
</mgrwt>
</event>
<event>
 4    1  0.4505197E+006  0.2370310E+02  0.7546771E-02  0.1680360E+00
         21   -1    0    0  503  501  0.00000000000E+00  0.00000000000E+00  0.13842665861E+03  0.13842665861E+03  0.00000000000E+00 0. -1.
         21   -1    0    0  501  502 -0.00000000000E+00 -0.00000000000E+00 -0.18590212353E+02  0.18590212353E+02  0.00000000000E+00 0.  1.
         21    1    1    2  503  504 -0.23420069534E+02 -0.36520569259E+01  0.12932933904E+03  0.13148351651E+03  0.00000000000E+00 0. -1.
         21    1    1    2  504  502  0.23420069534E+02  0.36520569259E+01 -0.94928927769E+01  0.25533354461E+02  0.00000000000E+00 0.  1.
<mgrwt>
<rscale>  2 0.23703105E+02</rscale>
<asrwt>0</asrwt>
<pdfrwt beam="1">  1       21 0.21296408E-01 0.23703105E+02</pdfrwt>
<pdfrwt beam="2">  1       21 0.28600328E-02 0.23703105E+02</pdfrwt>
<totfact> 0.11160215E+07</totfact>
</mgrwt>
</event>
<event>
 4    1  0.4505197E+006  0.3055626E+02  0.7546771E-02  0.1592020E+00
         21   -1    0    0  502  501  0.00000000000E+00  0.00000000000E+00  0.63038534422E+02  0.63038534422E+02  0.00000000000E+00 0.  1.
         21   -1    0    0  503  502 -0.00000000000E+00 -0.00000000000E+00 -0.16593351136E+02  0.16593351136E+02  0.00000000000E+00 0. -1.
         21    1    1    2  503  504  0.20216803722E+02  0.22912134799E+02  0.10174549888E+02  0.32205691099E+02  0.00000000000E+00 0. -1.
         21    1    1    2  504  501 -0.20216803722E+02 -0.22912134799E+02  0.36270633397E+02  0.47426194458E+02  0.00000000000E+00 0.  1.
<mgrwt>
<rscale>  2 0.30556261E+02</rscale>
<asrwt>0</asrwt>
<pdfrwt beam="1">  1       21 0.96982360E-02 0.30556261E+02</pdfrwt>
<pdfrwt beam="2">  1       21 0.25528233E-02 0.30556261E+02</pdfrwt>
<totfact> 0.53888921E+07</totfact>
</mgrwt>
</event>
<event>
 4    1  0.4505197E+006  0.2864194E+02  0.7546771E-02  0.1613604E+00
         21   -1    0    0  504  501  0.00000000000E+00  0.00000000000E+00  0.69281796473E+02  0.69281796473E+02  0.00000000000E+00 0. -1.
         21   -1    0    0  503  502 -0.00000000000E+00 -0.00000000000E+00 -0.13355741027E+02  0.13355741027E+02  0.00000000000E+00 0. -1.
         21    1    1    2  503  501  0.25667279527E+02  0.12710288411E+02  0.14047711278E+02  0.31901392790E+02  0.00000000000E+00 0. -1.
         21    1    1    2  504  502 -0.25667279527E+02 -0.12710288411E+02  0.41878344168E+02  0.50736144710E+02  0.00000000000E+00 0. -1.
<mgrwt>
<rscale>  2 0.28641939E+02</rscale>
<asrwt>0</asrwt>
<pdfrwt beam="1">  1       21 0.10658738E-01 0.28641939E+02</pdfrwt>
<pdfrwt beam="2">  1       21 0.20547294E-02 0.28641939E+02</pdfrwt>
<totfact> 0.63555723E+07</totfact>
</mgrwt>
</event>
<event>
 4    1  0.4505197E+006  0.2322609E+02  0.7546771E-02  0.1687871E+00
         21   -1    0    0  503  501  0.00000000000E+00  0.00000000000E+00  0.63280688796E+01  0.63280688796E+01  0.00000000000E+00 0. -1.
         21   -1    0    0  501  502 -0.00000000000E+00 -0.00000000000E+00 -0.26915485423E+03  0.26915485423E+03  0.00000000000E+00 0. -1.
         21    1    1    2  503  504 -0.15106658874E+02  0.17641995608E+02 -0.17555459805E+02  0.29114349045E+02  0.00000000000E+00 0. -1.
         21    1    1    2  504  502  0.15106658874E+02 -0.17641995608E+02 -0.24527132554E+03  0.24636857406E+03  0.00000000000E+00 0. -1.
<mgrwt>
<rscale>  2 0.23226088E+02</rscale>
<asrwt>0</asrwt>
<pdfrwt beam="1">  1       21 0.97354885E-03 0.23226088E+02</pdfrwt>
<pdfrwt beam="2">  1       21 0.41408448E-01 0.23226088E+02</pdfrwt>
<totfact> 0.17173027E+07</totfact>
</mgrwt>
</event>
<event>
 4    1  0.4505197E+006  0.2101157E+02  0.7546771E-02  0.1725929E+00
         21   -1    0    0  504  501  0.00000000000E+00  0.00000000000E+00  0.14695565650E+02  0.14695565650E+02  0.00000000000E+00 0. -1.
         21   -1    0    0  503  502 -0.00000000000E+00 -0.00000000000E+00 -0.30717581327E+02  0.30717581327E+02  0.00000000000E+00 0. -1.
         21    1    1    2  503  501  0.98560239908E+01  0.18556532275E+02 -0.46439156430E+01  0.21518644276E+02  0.00000000000E+00 0. -1.
         21    1    1    2  504  502 -0.98560239908E+01 -0.18556532275E+02 -0.11378100034E+02  0.23894502702E+02  0.00000000000E+00 0. -1.
<mgrwt>
<rscale>  2 0.21011571E+02</rscale>
<asrwt>0</asrwt>
<pdfrwt beam="1">  1       21 0.22608563E-02 0.21011571E+02</pdfrwt>
<pdfrwt beam="2">  1       21 0.47257817E-02 0.21011571E+02</pdfrwt>
<totfact> 0.18882165E+08</totfact>
</mgrwt>
</event>
<event>
 4    1  0.4505197E+006  0.2132719E+02  0.7546771E-02  0.1720155E+00
         21   -1    0    0  504  501  0.00000000000E+00  0.00000000000E+00  0.56383714004E+03  0.56383714004E+03  0.00000000000E+00 0. -1.
         21   -1    0    0  503  502 -0.00000000000E+00 -0.00000000000E+00 -0.53269556811E+02  0.53269556811E+02  0.00000000000E+00 0.  1.
         21    1    1    2  503  501  0.13415562309E+02 -0.16579249915E+02  0.56149189498E+03  0.56189678498E+03  0.00000000000E+00 0. -1.
         21    1    1    2  504  502 -0.13415562309E+02  0.16579249915E+02 -0.50924311760E+02  0.55209911864E+02  0.00000000000E+00 0.  1.
<mgrwt>
<rscale>  2 0.21327185E+02</rscale>
<asrwt>0</asrwt>
<pdfrwt beam="1">  1       21 0.86744171E-01 0.21327185E+02</pdfrwt>
<pdfrwt beam="2">  1       21 0.81953168E-02 0.21327185E+02</pdfrwt>
<totfact> 0.14090458E+05</totfact>
</mgrwt>
</event>
<event>
 4    1  0.4505197E+006  0.2041442E+02  0.7546771E-02  0.1737210E+00
         21   -1    0    0  504  501  0.00000000000E+00  0.00000000000E+00  0.27317390631E+01  0.27317390631E+01  0.00000000000E+00 0. -1.
         21   -1    0    0  501  502 -0.00000000000E+00 -0.00000000000E+00 -0.24472495150E+03  0.24472495150E+03  0.00000000000E+00 0. -1.
         21    1    1    2  503  502 -0.19489075452E+02 -0.60765522519E+01 -0.19692737131E+03  0.19798267127E+03  0.00000000000E+00 0. -1.
         21    1    1    2  504  503  0.19489075452E+02  0.60765522519E+01 -0.45065841124E+02  0.49474019298E+02  0.00000000000E+00 0. -1.
<mgrwt>
<rscale>  2 0.20414420E+02</rscale>
<asrwt>0</asrwt>
<pdfrwt beam="1">  1       21 0.42026762E-03 0.20414420E+02</pdfrwt>
<pdfrwt beam="2">  1       21 0.37649986E-01 0.20414420E+02</pdfrwt>
<totfact> 0.69160144E+07</totfact>
</mgrwt>
</event>
<event>
 4    1  0.4505197E+006  0.3462158E+02  0.7546771E-02  0.1551987E+00
         21   -1    0    0  503  501  0.00000000000E+00  0.00000000000E+00  0.13573665251E+02  0.13573665251E+02  0.00000000000E+00 0.  1.
         21   -1    0    0  504  502 -0.00000000000E+00 -0.00000000000E+00 -0.12926049506E+03  0.12926049506E+03  0.00000000000E+00 0.  1.
         21    1    1    2  503  502 -0.50579107119E+01 -0.34250131567E+02 -0.98042205067E+02  0.10397561227E+03  0.00000000000E+00 0.  1.
         21    1    1    2  504  501  0.50579107119E+01  0.34250131567E+02 -0.17644624738E+02  0.38858548033E+02  0.00000000000E+00 0.  1.
<mgrwt>
<rscale>  2 0.34621582E+02</rscale>
<asrwt>0</asrwt>
<pdfrwt beam="1">  1       21 0.20882562E-02 0.34621582E+02</pdfrwt>
<pdfrwt beam="2">  1       21 0.19886230E-01 0.34621582E+02</pdfrwt>
<totfact> 0.22015045E+07</totfact>
</mgrwt>
</event>
<event>
 4    1  0.4505197E+006  0.2035014E+02  0.7546771E-02  0.1738453E+00
         21   -1    0    0  504  501  0.00000000000E+00  0.00000000000E+00  0.11056957194E+03  0.11056957194E+03  0.00000000000E+00 0. -1.
         21   -1    0    0  503  502 -0.00000000000E+00 -0.00000000000E+00 -0.10030859732E+02  0.10030859732E+02  0.00000000000E+00 0. -1.
         21    1    1    2  503  501 -0.10603678693E+02  0.17369234817E+02  0.98002274237E+02  0.10009282729E+03  0.00000000000E+00 0. -1.
         21    1    1    2  504  502  0.10603678693E+02 -0.17369234817E+02  0.25364379760E+01  0.20507604384E+02  0.00000000000E+00 0. -1.
<mgrwt>
<rscale>  2 0.20350143E+02</rscale>
<asrwt>0</asrwt>
<pdfrwt beam="1">  1       21 0.17010703E-01 0.20350143E+02</pdfrwt>
<pdfrwt beam="2">  1       21 0.15432093E-02 0.20350143E+02</pdfrwt>
<totfact> 0.41039564E+07</totfact>
</mgrwt>
</event>
<event>
 4    1  0.4505197E+006  0.2986622E+02  0.7546771E-02  0.1599572E+00
         21   -1    0    0  503  501  0.00000000000E+00  0.00000000000E+00  0.31240474984E+01  0.31240474984E+01  0.00000000000E+00 0. -1.
         21   -1    0    0  504  502 -0.00000000000E+00 -0.00000000000E+00 -0.82139874067E+03  0.82139874067E+03  0.00000000000E+00 0. -1.
         21    1    1    2  503  502 -0.25726075861E+02 -0.15171038561E+02 -0.74212427380E+03  0.74272500237E+03  0.00000000000E+00 0. -1.
         21    1    1    2  504  501  0.25726075861E+02  0.15171038561E+02 -0.76150419375E+02  0.81797785797E+02  0.00000000000E+00 0. -1.
<mgrwt>
<rscale>  2 0.29866225E+02</rscale>
<asrwt>0</asrwt>
<pdfrwt beam="1">  1       21 0.48062262E-03 0.29866225E+02</pdfrwt>
<pdfrwt beam="2">  1       21 0.12636906E+00 0.29866225E+02</pdfrwt>
<totfact> 0.50069462E+06</totfact>
</mgrwt>
</event>
<event>
 4    1  0.4505197E+006  0.2428967E+02  0.7546771E-02  0.1671419E+00
         21   -1    0    0  504  501  0.00000000000E+00  0.00000000000E+00  0.78438851040E+02  0.78438851040E+02  0.00000000000E+00 0. -1.
         21   -1    0    0  503  502 -0.00000000000E+00 -0.00000000000E+00 -0.19978684996E+02  0.19978684996E+02  0.00000000000E+00 0. -1.
         21    1    1    2  503  501 -0.22830775831E+02 -0.82911775258E+01  0.68086857609E+02  0.72289751202E+02  0.00000000000E+00 0. -1.
         21    1    1    2  504  502  0.22830775831E+02  0.82911775258E+01 -0.96266915655E+01  0.26127784834E+02  0.00000000000E+00 0. -1.
<mgrwt>
<rscale>  2 0.24289668E+02</rscale>
<asrwt>0</asrwt>
<pdfrwt beam="1">  1       21 0.12067515E-01 0.24289668E+02</pdfrwt>
<pdfrwt beam="2">  1       21 0.30736439E-02 0.24289668E+02</pdfrwt>
<totfact> 0.26574295E+07</totfact>
</mgrwt>
</event>
<event>
 4    1  0.4505197E+006  0.2838096E+02  0.7546771E-02  0.1616707E+00
         21   -1    0    0  503  501  0.00000000000E+00  0.00000000000E+00  0.19825224444E+03  0.19825224444E+03  0.00000000000E+00 0. -1.
         21   -1    0    0  504  502 -0.00000000000E+00 -0.00000000000E+00 -0.40631847534E+01  0.40631847534E+01  0.00000000000E+00 0. -1.
         21    1    1    2  503  502  0.18209462073E+01 -0.28322479466E+02  0.96245027949E+02  0.10034233450E+03  0.00000000000E+00 0. -1.
         21    1    1    2  504  501 -0.18209462073E+01  0.28322479466E+02  0.97944031742E+02  0.10197309470E+03  0.00000000000E+00 0. -1.
<mgrwt>
<rscale>  2 0.28380956E+02</rscale>
<asrwt>0</asrwt>
<pdfrwt beam="1">  1       21 0.30500338E-01 0.28380956E+02</pdfrwt>
<pdfrwt beam="2">  1       21 0.62510550E-03 0.28380956E+02</pdfrwt>
<totfact> 0.61524002E+07</totfact>
</mgrwt>
</event>
<event>
 4    1  0.4505197E+006  0.2036851E+02  0.7546771E-02  0.1738097E+00
         21   -1    0    0  503  501  0.00000000000E+00  0.00000000000E+00  0.10657741710E+02  0.10657741710E+02  0.00000000000E+00 0.  1.
         21   -1    0    0  501  502 -0.00000000000E+00 -0.00000000000E+00 -0.12522818203E+03  0.12522818203E+03  0.00000000000E+00 0.  1.
         21    1    1    2  503  504 -0.13872028959E+02 -0.14914529378E+02 -0.88234691767E+00  0.20387616587E+02  0.00000000000E+00 0.  1.
         21    1    1    2  504  502  0.13872028959E+02  0.14914529378E+02 -0.11368809340E+03  0.11549830715E+03  0.00000000000E+00 0.  1.
<mgrwt>
<rscale>  2 0.20368514E+02</rscale>
<asrwt>0</asrwt>
<pdfrwt beam="1">  1       21 0.16396525E-02 0.20368514E+02</pdfrwt>
<pdfrwt beam="2">  1       21 0.19265875E-01 0.20368514E+02</pdfrwt>
<totfact> 0.30226904E+07</totfact>
</mgrwt>
</event>
<event>
 4    1  0.4505197E+006  0.2351272E+02  0.7546771E-02  0.1683331E+00
         21   -1    0    0  504  501  0.00000000000E+00  0.00000000000E+00  0.30067996008E+02  0.30067996008E+02  0.00000000000E+00 0.  1.
         21   -1    0    0  501  502 -0.00000000000E+00 -0.00000000000E+00 -0.18101686078E+03  0.18101686078E+03  0.00000000000E+00 0. -1.
         21    1    1    2  503  502  0.22756421947E+02 -0.59154972198E+01 -0.17551318401E+03  0.17708112719E+03  0.00000000000E+00 0. -1.
         21    1    1    2  504  503 -0.22756421947E+02  0.59154972198E+01  0.24564319233E+02  0.34003729598E+02  0.00000000000E+00 0.  1.
<mgrwt>
<rscale>  2 0.23512717E+02</rscale>
<asrwt>0</asrwt>
<pdfrwt beam="1">  1       21 0.46258456E-02 0.23512717E+02</pdfrwt>
<pdfrwt beam="2">  1       21 0.27848747E-01 0.23512717E+02</pdfrwt>
<totfact> 0.32472831E+06</totfact>
</mgrwt>
</event>
<event>
 4    1  0.4505197E+006  0.2454290E+02  0.7546771E-02  0.1667655E+00
         21   -1    0    0  503  501  0.00000000000E+00  0.00000000000E+00  0.92169950641E+03  0.92169950641E+03  0.00000000000E+00 0. -1.
         21   -1    0    0  501  502 -0.00000000000E+00 -0.00000000000E+00 -0.32523744536E+01  0.32523744536E+01  0.00000000000E+00 0. -1.
         21    1    1    2  503  504 -0.17193841544E+02 -0.17513590904E+02  0.87263206429E+03  0.87297713239E+03  0.00000000000E+00 0. -1.
         21    1    1    2  504  502  0.17193841544E+02  0.17513590904E+02  0.45815067673E+02  0.51974748477E+02  0.00000000000E+00 0. -1.
<mgrwt>
<rscale>  2 0.24542902E+02</rscale>
<asrwt>0</asrwt>
<pdfrwt beam="1">  1       21 0.14179972E+00 0.24542902E+02</pdfrwt>
<pdfrwt beam="2">  1       21 0.50036603E-03 0.24542902E+02</pdfrwt>
<totfact> 0.35291696E+06</totfact>
</mgrwt>
</event>
<event>
 4    1  0.4505197E+006  0.2234016E+02  0.7546771E-02  0.1702435E+00
         21   -1    0    0  502  501  0.00000000000E+00  0.00000000000E+00  0.26393466464E+03  0.26393466464E+03  0.00000000000E+00 0. -1.
         21   -1    0    0  503  502 -0.00000000000E+00 -0.00000000000E+00 -0.19395240425E+01  0.19395240425E+01  0.00000000000E+00 0. -1.
         21    1    1    2  503  504  0.19419467325E+02  0.11043872000E+02  0.10995611306E+03  0.11220262751E+03  0.00000000000E+00 0. -1.
         21    1    1    2  504  501 -0.19419467325E+02 -0.11043872000E+02  0.15203902754E+03  0.15367156118E+03  0.00000000000E+00 0. -1.
<mgrwt>
<rscale>  2 0.22340162E+02</rscale>
<asrwt>0</asrwt>
<pdfrwt beam="1">  1       21 0.40605304E-01 0.22340162E+02</pdfrwt>
<pdfrwt beam="2">  1       21 0.29838852E-03 0.22340162E+02</pdfrwt>
<totfact> 0.10134349E+08</totfact>
</mgrwt>
</event>
<event>
 4    1  0.4505197E+006  0.2016567E+02  0.7546771E-02  0.1742053E+00
         21   -1    0    0  503  501  0.00000000000E+00  0.00000000000E+00  0.13040604899E+02  0.13040604899E+02  0.00000000000E+00 0. -1.
         21   -1    0    0  504  502 -0.00000000000E+00 -0.00000000000E+00 -0.86139528112E+02  0.86139528112E+02  0.00000000000E+00 0. -1.
         21    1    1    2  503  502 -0.24896194255E+01  0.20011396701E+02 -0.76159052571E+02  0.78783599127E+02  0.00000000000E+00 0. -1.
         21    1    1    2  504  501  0.24896194255E+01 -0.20011396701E+02  0.30601293576E+01  0.20396533885E+02  0.00000000000E+00 0. -1.
<mgrwt>
<rscale>  2 0.20165669E+02</rscale>
<asrwt>0</asrwt>
<pdfrwt beam="1">  1       21 0.20062469E-02 0.20165669E+02</pdfrwt>
<pdfrwt beam="2">  1       21 0.13252235E-01 0.20165669E+02</pdfrwt>
<totfact> 0.41930560E+07</totfact>
</mgrwt>
</event>
<event>
 4    1  0.4505197E+006  0.3149779E+02  0.7546771E-02  0.1582099E+00
         21   -1    0    0  502  501  0.00000000000E+00  0.00000000000E+00  0.27327360430E+01  0.27327360430E+01  0.00000000000E+00 0. -1.
         21   -1    0    0  503  502 -0.00000000000E+00 -0.00000000000E+00 -0.17938913942E+04  0.17938913942E+04  0.00000000000E+00 0. -1.
         21    1    1    2  503  504  0.23281983154E+02 -0.21214615286E+02 -0.16978583154E+04  0.16981504556E+04  0.00000000000E+00 0. -1.
         21    1    1    2  504  501 -0.23281983154E+02  0.21214615286E+02 -0.93300342743E+02  0.98473674641E+02  0.00000000000E+00 0. -1.
<mgrwt>
<rscale>  2 0.31497788E+02</rscale>
<asrwt>0</asrwt>
<pdfrwt beam="1">  1       21 0.42041930E-03 0.31497788E+02</pdfrwt>
<pdfrwt beam="2">  1       21 0.27598436E+00 0.31497788E+02</pdfrwt>
<totfact> 0.78731464E+05</totfact>
</mgrwt>
</event>
<event>
 4    1  0.4505197E+006  0.3507575E+02  0.7546771E-02  0.1547929E+00
         21   -1    0    0  504  501  0.00000000000E+00  0.00000000000E+00  0.17109016932E+02  0.17109016932E+02  0.00000000000E+00 0.  1.
         21   -1    0    0  503  502 -0.00000000000E+00 -0.00000000000E+00 -0.12199576430E+03  0.12199576430E+03  0.00000000000E+00 0.  1.
         21    1    1    2  503  501  0.98763960931E+01  0.33656576548E+02 -0.78780456249E+01  0.35949575068E+02  0.00000000000E+00 0.  1.
         21    1    1    2  504  502 -0.98763960931E+01 -0.33656576548E+02 -0.97008701740E+02  0.10315520616E+03  0.00000000000E+00 0.  1.
<mgrwt>
<rscale>  2 0.35075752E+02</rscale>
<asrwt>0</asrwt>
<pdfrwt beam="1">  1       21 0.26321565E-02 0.35075752E+02</pdfrwt>
<pdfrwt beam="2">  1       21 0.18768579E-01 0.35075752E+02</pdfrwt>
<totfact> 0.17011166E+07</totfact>
</mgrwt>
</event>
<event>
 4    1  0.4505197E+006  0.5280575E+02  0.7546771E-02  0.1430770E+00
         21   -1    0    0  504  501  0.00000000000E+00  0.00000000000E+00  0.29977972360E+03  0.29977972360E+03  0.00000000000E+00 0.  1.
         21   -1    0    0  503  502 -0.00000000000E+00 -0.00000000000E+00 -0.45513202548E+02  0.45513202548E+02  0.00000000000E+00 0.  1.
         21    1    1    2  503  501  0.40462301504E+02 -0.33930067418E+02 -0.26863836926E+02  0.59246207072E+02  0.00000000000E+00 0.  1.
         21    1    1    2  504  502 -0.40462301504E+02  0.33930067418E+02  0.28113035798E+03  0.28604671908E+03  0.00000000000E+00 0.  1.
<mgrwt>
<rscale>  2 0.52805751E+02</rscale>
<asrwt>0</asrwt>
<pdfrwt beam="1">  1       21 0.46119956E-01 0.52805751E+02</pdfrwt>
<pdfrwt beam="2">  1       21 0.70020314E-02 0.52805751E+02</pdfrwt>
<totfact> 0.67883436E+05</totfact>
</mgrwt>
</event>
<event>
 4    1  0.4505197E+006  0.2936848E+02  0.7546771E-02  0.1605176E+00
         21   -1    0    0  502  501  0.00000000000E+00  0.00000000000E+00  0.22459485572E+01  0.22459485572E+01  0.00000000000E+00 0. -1.
         21   -1    0    0  503  502 -0.00000000000E+00 -0.00000000000E+00 -0.40756588092E+03  0.40756588092E+03  0.00000000000E+00 0. -1.
         21    1    1    2  503  504 -0.91033804606E+01  0.27921967796E+02 -0.15341788094E+03  0.15620356594E+03  0.00000000000E+00 0. -1.
         21    1    1    2  504  501  0.91033804606E+01 -0.27921967796E+02 -0.25190205143E+03  0.25360826354E+03  0.00000000000E+00 0. -1.
<mgrwt>
<rscale>  2 0.29368483E+02</rscale>
<asrwt>0</asrwt>
<pdfrwt beam="1">  1       21 0.34553057E-03 0.29368483E+02</pdfrwt>
<pdfrwt beam="2">  1       21 0.62702439E-01 0.29368483E+02</pdfrwt>
<totfact> 0.37182479E+07</totfact>
</mgrwt>
</event>
<event>
 4    1  0.4505197E+006  0.2805959E+02  0.7546771E-02  0.1620584E+00
         21   -1    0    0  503  501  0.00000000000E+00  0.00000000000E+00  0.36462897941E+03  0.36462897941E+03  0.00000000000E+00 0. -1.
         21   -1    0    0  504  502 -0.00000000000E+00 -0.00000000000E+00 -0.65747731115E+01  0.65747731115E+01  0.00000000000E+00 0. -1.
         21    1    1    2  503  502  0.89270033150E+00  0.28045384729E+02  0.33112772227E+03  0.33231447301E+03  0.00000000000E+00 0. -1.
         21    1    1    2  504  501 -0.89270033150E+00 -0.28045384729E+02  0.26926484027E+02  0.38889279507E+02  0.00000000000E+00 0. -1.
<mgrwt>
<rscale>  2 0.28059589E+02</rscale>
<asrwt>0</asrwt>
<pdfrwt beam="1">  1       21 0.56096750E-01 0.28059589E+02</pdfrwt>
<pdfrwt beam="2">  1       21 0.10115038E-02 0.28059589E+02</pdfrwt>
<totfact> 0.92922982E+06</totfact>
</mgrwt>
</event>
<event>
 4    1  0.4505197E+006  0.2953722E+02  0.7546771E-02  0.1603261E+00
         21   -1    0    0  504  501  0.00000000000E+00  0.00000000000E+00  0.11100260761E+03  0.11100260761E+03  0.00000000000E+00 0. -1.
         21   -1    0    0  501  502 -0.00000000000E+00 -0.00000000000E+00 -0.52543651776E+03  0.52543651776E+03  0.00000000000E+00 0.  1.
         21    1    1    2  503  502  0.29509736447E+02 -0.12738366899E+01 -0.52304751926E+03  0.52388085917E+03  0.00000000000E+00 0.  1.
         21    1    1    2  504  503 -0.29509736447E+02  0.12738366899E+01  0.10861360911E+03  0.11255826619E+03  0.00000000000E+00 0. -1.
<mgrwt>
<rscale>  2 0.29537217E+02</rscale>
<asrwt>0</asrwt>
<pdfrwt beam="1">  1       21 0.17077324E-01 0.29537217E+02</pdfrwt>
<pdfrwt beam="2">  1       21 0.80836387E-01 0.29537217E+02</pdfrwt>
<totfact> 0.47385935E+04</totfact>
</mgrwt>
</event>
<event>
 4    1  0.4505197E+006  0.2093730E+02  0.7546771E-02  0.1727306E+00
         21   -1    0    0  504  501  0.00000000000E+00  0.00000000000E+00  0.45742307694E+03  0.45742307694E+03  0.00000000000E+00 0.  1.
         21   -1    0    0  503  502 -0.00000000000E+00 -0.00000000000E+00 -0.66322470224E+02  0.66322470224E+02  0.00000000000E+00 0. -1.
         21    1    1    2  503  501 -0.18535119906E+02  0.97375593086E+01  0.45552418357E+03  0.45600510145E+03  0.00000000000E+00 0.  1.
         21    1    1    2  504  502  0.18535119906E+02 -0.97375593086E+01 -0.64423576852E+02  0.67740445715E+02  0.00000000000E+00 0. -1.
<mgrwt>
<rscale>  2 0.20937305E+02</rscale>
<asrwt>0</asrwt>
<pdfrwt beam="1">  1       21 0.70372779E-01 0.20937305E+02</pdfrwt>
<pdfrwt beam="2">  1       21 0.10203457E-01 0.20937305E+02</pdfrwt>
<totfact> 0.15200291E+05</totfact>
</mgrwt>
</event>
<event>
 4    1  0.4505197E+006  0.3587770E+02  0.7546771E-02  0.1540942E+00
         21   -1    0    0  503  501  0.00000000000E+00  0.00000000000E+00  0.37633758140E+02  0.37633758140E+02  0.00000000000E+00 0.  1.
         21   -1    0    0  501  502 -0.00000000000E+00 -0.00000000000E+00 -0.10242440325E+03  0.10242440325E+03  0.00000000000E+00 0.  1.
         21    1    1    2  503  504  0.35674271423E+02 -0.38152409443E+01  0.24757165837E+02  0.43590445803E+02  0.00000000000E+00 0.  1.
         21    1    1    2  504  502 -0.35674271423E+02  0.38152409443E+01 -0.89547810944E+02  0.96467715584E+02  0.00000000000E+00 0.  1.
<mgrwt>
<rscale>  2 0.35877705E+02</rscale>
<asrwt>0</asrwt>
<pdfrwt beam="1">  1       21 0.57898089E-02 0.35877705E+02</pdfrwt>
<pdfrwt beam="2">  1       21 0.15757601E-01 0.35877705E+02</pdfrwt>
<totfact> 0.65680114E+06</totfact>
</mgrwt>
</event>
<event>
 4    1  0.4505197E+006  0.3099156E+02  0.7546771E-02  0.1587380E+00
         21   -1    0    0  504  501  0.00000000000E+00  0.00000000000E+00  0.34948186389E+01  0.34948186389E+01  0.00000000000E+00 0.  1.
         21   -1    0    0  503  502 -0.00000000000E+00 -0.00000000000E+00 -0.32247217450E+03  0.32247217450E+03  0.00000000000E+00 0.  1.
         21    1    1    2  503  501  0.42724812279E+01  0.30695643179E+02 -0.22213549845E+03  0.22428699534E+03  0.00000000000E+00 0.  1.
         21    1    1    2  504  502 -0.42724812279E+01 -0.30695643179E+02 -0.96841857407E+02  0.10167999780E+03  0.00000000000E+00 0.  1.
<mgrwt>
<rscale>  2 0.30991557E+02</rscale>
<asrwt>0</asrwt>
<pdfrwt beam="1">  1       21 0.53766423E-03 0.30991557E+02</pdfrwt>
<pdfrwt beam="2">  1       21 0.49611120E-01 0.30991557E+02</pdfrwt>
<totfact> 0.31137723E+07</totfact>
</mgrwt>
</event>
<event>
 4    1  0.4505197E+006  0.2532772E+02  0.7546771E-02  0.1656339E+00
         21   -1    0    0  502  501  0.00000000000E+00  0.00000000000E+00  0.11654163383E+01  0.11654163383E+01  0.00000000000E+00 0. -1.
         21   -1    0    0  503  502 -0.00000000000E+00 -0.00000000000E+00 -0.58620612512E+03  0.58620612512E+03  0.00000000000E+00 0.  1.
         21    1    1    2  503  504 -0.24533502346E+02 -0.62928890023E+01 -0.21997889694E+03  0.22143217536E+03  0.00000000000E+00 0. -1.
         21    1    1    2  504  501  0.24533502346E+02  0.62928890023E+01 -0.36506181184E+03  0.36593936609E+03  0.00000000000E+00 0.  1.
<mgrwt>
<rscale>  2 0.25327716E+02</rscale>
<asrwt>0</asrwt>
<pdfrwt beam="1">  1       21 0.17929437E-03 0.25327716E+02</pdfrwt>
<pdfrwt beam="2">  1       21 0.90185784E-01 0.25327716E+02</pdfrwt>
<totfact> 0.43967496E+07</totfact>
</mgrwt>
</event>
<event>
 4    1  0.4505197E+006  0.2291843E+02  0.7546771E-02  0.1692836E+00
         21   -1    0    0  502  501  0.00000000000E+00  0.00000000000E+00  0.89035040114E+02  0.89035040114E+02  0.00000000000E+00 0.  1.
         21   -1    0    0  504  502 -0.00000000000E+00 -0.00000000000E+00 -0.34275141465E+02  0.34275141465E+02  0.00000000000E+00 0.  1.
         21    1    1    2  503  501  0.63293821311E+01 -0.22027100450E+02  0.83478655376E+02  0.86567546666E+02  0.00000000000E+00 0.  1.
         21    1    1    2  504  503 -0.63293821311E+01  0.22027100450E+02 -0.28718756727E+02  0.36742634913E+02  0.00000000000E+00 0.  1.
<mgrwt>
<rscale>  2 0.22918426E+02</rscale>
<asrwt>0</asrwt>
<pdfrwt beam="1">  1       21 0.13697698E-01 0.22918426E+02</pdfrwt>
<pdfrwt beam="2">  1       21 0.52730987E-02 0.22918426E+02</pdfrwt>
<totfact> 0.90461834E+06</totfact>
</mgrwt>
</event>
<event>
 4    1  0.4505197E+006  0.3240004E+02  0.7546771E-02  0.1572980E+00
         21   -1    0    0  504  501  0.00000000000E+00  0.00000000000E+00  0.19478507763E+03  0.19478507763E+03  0.00000000000E+00 0. -1.
         21   -1    0    0  503  502 -0.00000000000E+00 -0.00000000000E+00 -0.50441420299E+02  0.50441420299E+02  0.00000000000E+00 0. -1.
         21    1    1    2  503  501 -0.55241040761E+01  0.31925649937E+02 -0.43706220665E+02  0.54405850555E+02  0.00000000000E+00 0. -1.
         21    1    1    2  504  502  0.55241040761E+01 -0.31925649937E+02  0.18804987800E+03  0.19082064737E+03  0.00000000000E+00 0. -1.
<mgrwt>
<rscale>  2 0.32400044E+02</rscale>
<asrwt>0</asrwt>
<pdfrwt beam="1">  1       21 0.29966935E-01 0.32400044E+02</pdfrwt>
<pdfrwt beam="2">  1       21 0.77602186E-02 0.32400044E+02</pdfrwt>
<totfact> 0.12729811E+06</totfact>
</mgrwt>
</event>
<event>
 4    1  0.4505197E+006  0.2873816E+02  0.7546771E-02  0.1612471E+00
         21   -1    0    0  503  501  0.00000000000E+00  0.00000000000E+00  0.92160642931E+02  0.92160642931E+02  0.00000000000E+00 0. -1.
         21   -1    0    0  504  502 -0.00000000000E+00 -0.00000000000E+00 -0.96011822869E+01  0.96011822869E+01  0.00000000000E+00 0.  1.
         21    1    1    2  503  502 -0.28365598334E+02 -0.46124488172E+01  0.54414809576E+02  0.61537414262E+02  0.00000000000E+00 0. -1.
         21    1    1    2  504  501  0.28365598334E+02  0.46124488172E+01  0.28144651068E+02  0.40224410955E+02  0.00000000000E+00 0.  1.
<mgrwt>
<rscale>  2 0.28738160E+02</rscale>
<asrwt>0</asrwt>
<pdfrwt beam="1">  1       21 0.14178560E-01 0.28738160E+02</pdfrwt>
<pdfrwt beam="2">  1       21 0.14771050E-02 0.28738160E+02</pdfrwt>
<totfact> 0.65222457E+07</totfact>
</mgrwt>
</event>
<event>
 4    1  0.4505197E+006  0.2074977E+02  0.7546771E-02  0.1730816E+00
         21   -1    0    0  504  501  0.00000000000E+00  0.00000000000E+00  0.23024901242E+02  0.23024901242E+02  0.00000000000E+00 0. -1.
         21   -1    0    0  503  502 -0.00000000000E+00 -0.00000000000E+00 -0.65855925323E+02  0.65855925323E+02  0.00000000000E+00 0. -1.
         21    1    1    2  503  501 -0.11795613936E+02 -0.17070928287E+02  0.16189982732E+02  0.26318598777E+02  0.00000000000E+00 0. -1.
         21    1    1    2  504  502  0.11795613936E+02  0.17070928287E+02 -0.59021006813E+02  0.62562227789E+02  0.00000000000E+00 0. -1.
<mgrwt>
<rscale>  2 0.20749774E+02</rscale>
<asrwt>0</asrwt>
<pdfrwt beam="1">  1       21 0.35422925E-02 0.20749774E+02</pdfrwt>
<pdfrwt beam="2">  1       21 0.10131681E-01 0.20749774E+02</pdfrwt>
<totfact> 0.27440170E+07</totfact>
</mgrwt>
</event>
<event>
 4    1  0.4505197E+006  0.2026937E+02  0.7546771E-02  0.1740024E+00
         21   -1    0    0  503  501  0.00000000000E+00  0.00000000000E+00  0.23306613518E+02  0.23306613518E+02  0.00000000000E+00 0. -1.
         21   -1    0    0  504  502 -0.00000000000E+00 -0.00000000000E+00 -0.25227783199E+03  0.25227783199E+03  0.00000000000E+00 0. -1.
         21    1    1    2  503  502  0.17538102096E+02  0.10161811955E+02 -0.24737654073E+03  0.24820556067E+03  0.00000000000E+00 0. -1.
         21    1    1    2  504  501 -0.17538102096E+02 -0.10161811955E+02  0.18405322256E+02  0.27378884833E+02  0.00000000000E+00 0. -1.
<mgrwt>
<rscale>  2 0.20269372E+02</rscale>
<asrwt>0</asrwt>
<pdfrwt beam="1">  1       21 0.35856328E-02 0.20269372E+02</pdfrwt>
<pdfrwt beam="2">  1       21 0.38811975E-01 0.20269372E+02</pdfrwt>
<totfact> 0.25824712E+06</totfact>
</mgrwt>
</event>
<event>
 4    1  0.4505197E+006  0.3596617E+02  0.7546771E-02  0.1540184E+00
         21   -1    0    0  502  501  0.00000000000E+00  0.00000000000E+00  0.47092827921E+03  0.47092827921E+03  0.00000000000E+00 0.  1.
         21   -1    0    0  503  502 -0.00000000000E+00 -0.00000000000E+00 -0.58979745411E+01  0.58979745411E+01  0.00000000000E+00 0. -1.
         21    1    1    2  503  504 -0.14235072365E+02  0.33029195963E+02  0.58249367665E+02  0.68458410036E+02  0.00000000000E+00 0. -1.
         21    1    1    2  504  501  0.14235072365E+02 -0.33029195963E+02  0.40678093701E+03  0.40836784372E+03  0.00000000000E+00 0.  1.
<mgrwt>
<rscale>  2 0.35966166E+02</rscale>
<asrwt>0</asrwt>
<pdfrwt beam="1">  1       21 0.72450475E-01 0.35966166E+02</pdfrwt>
<pdfrwt beam="2">  1       21 0.90738107E-03 0.35966166E+02</pdfrwt>
<totfact> 0.67104938E+06</totfact>
</mgrwt>
</event>
<event>
 4    1  0.4505197E+006  0.2172089E+02  0.7546771E-02  0.1713124E+00
         21   -1    0    0  504  501  0.00000000000E+00  0.00000000000E+00  0.46885030844E+01  0.46885030844E+01  0.00000000000E+00 0. -1.
         21   -1    0    0  503  502 -0.00000000000E+00 -0.00000000000E+00 -0.12113156516E+03  0.12113156516E+03  0.00000000000E+00 0. -1.
         21    1    1    2  503  501 -0.21463735977E+02  0.33324129075E+01 -0.84103711816E+02  0.86863290746E+02  0.00000000000E+00 0. -1.
         21    1    1    2  504  502  0.21463735977E+02 -0.33324129075E+01 -0.32339350258E+02  0.38956777498E+02  0.00000000000E+00 0. -1.
<mgrwt>
<rscale>  2 0.21720887E+02</rscale>
<asrwt>0</asrwt>
<pdfrwt beam="1">  1       21 0.72130826E-03 0.21720887E+02</pdfrwt>
<pdfrwt beam="2">  1       21 0.18635623E-01 0.21720887E+02</pdfrwt>
<totfact> 0.11169025E+08</totfact>
</mgrwt>
</event>
<event>
 4    1  0.4505197E+006  0.2232777E+02  0.7546771E-02  0.1702644E+00
         21   -1    0    0  502  501  0.00000000000E+00  0.00000000000E+00  0.25763491190E+01  0.25763491190E+01  0.00000000000E+00 0. -1.
         21   -1    0    0  504  502 -0.00000000000E+00 -0.00000000000E+00 -0.21356632653E+03  0.21356632653E+03  0.00000000000E+00 0. -1.
         21    1    1    2  503  501 -0.35570721339E+01 -0.22042604025E+02 -0.72370090368E+02  0.75736115125E+02  0.00000000000E+00 0. -1.
         21    1    1    2  504  503  0.35570721339E+01  0.22042604025E+02 -0.13861988704E+03  0.14040656052E+03  0.00000000000E+00 0. -1.
<mgrwt>
<rscale>  2 0.22327766E+02</rscale>
<asrwt>0</asrwt>
<pdfrwt beam="1">  1       21 0.39636119E-03 0.22327766E+02</pdfrwt>
<pdfrwt beam="2">  1       21 0.32856375E-01 0.22327766E+02</pdfrwt>
<totfact> 0.99245154E+07</totfact>
</mgrwt>
</event>
<event>
 4    1  0.4505197E+006  0.2421489E+02  0.7546771E-02  0.1672542E+00
         21   -1    0    0  502  501  0.00000000000E+00  0.00000000000E+00  0.24404151134E+03  0.24404151134E+03  0.00000000000E+00 0. -1.
         21   -1    0    0  503  502 -0.00000000000E+00 -0.00000000000E+00 -0.43332759370E+01  0.43332759370E+01  0.00000000000E+00 0. -1.
         21    1    1    2  503  504  0.12091983969E+02 -0.20979630566E+02  0.36962300292E+02  0.44187923892E+02  0.00000000000E+00 0. -1.
         21    1    1    2  504  501 -0.12091983969E+02  0.20979630566E+02  0.20274593511E+03  0.20418686338E+03  0.00000000000E+00 0. -1.
<mgrwt>
<rscale>  2 0.24214892E+02</rscale>
<asrwt>0</asrwt>
<pdfrwt beam="1">  1       21 0.37544837E-01 0.24214892E+02</pdfrwt>
<pdfrwt beam="2">  1       21 0.66665803E-03 0.24214892E+02</pdfrwt>
<totfact> 0.36699418E+07</totfact>
</mgrwt>
</event>
<event>
 4    1  0.4505197E+006  0.2591367E+02  0.7546771E-02  0.1648215E+00
         21   -1    0    0  502  501  0.00000000000E+00  0.00000000000E+00  0.44460319248E+01  0.44460319248E+01  0.00000000000E+00 0.  1.
         21   -1    0    0  503  502 -0.00000000000E+00 -0.00000000000E+00 -0.35034398642E+03  0.35034398642E+03  0.00000000000E+00 0.  1.
         21    1    1    2  503  504 -0.29808420318E+01 -0.25741651953E+02 -0.30674852738E+03  0.30784115565E+03  0.00000000000E+00 0.  1.
         21    1    1    2  504  501  0.29808420318E+01  0.25741651953E+02 -0.39149427113E+02  0.46948862688E+02  0.00000000000E+00 0.  1.
<mgrwt>
<rscale>  2 0.25913666E+02</rscale>
<asrwt>0</asrwt>
<pdfrwt beam="1">  1       21 0.68400486E-03 0.25913666E+02</pdfrwt>
<pdfrwt beam="2">  1       21 0.53899079E-01 0.25913666E+02</pdfrwt>
<totfact> 0.17866461E+07</totfact>
</mgrwt>
</event>
<event>
 4    1  0.4505197E+006  0.2353545E+02  0.7546771E-02  0.1682975E+00
         21   -1    0    0  502  501  0.00000000000E+00  0.00000000000E+00  0.36055347791E+01  0.36055347791E+01  0.00000000000E+00 0.  1.
         21   -1    0    0  504  502 -0.00000000000E+00 -0.00000000000E+00 -0.16671011978E+03  0.16671011978E+03  0.00000000000E+00 0.  1.
         21    1    1    2  503  501 -0.19198395145E+02 -0.13613921841E+02 -0.57698669540E+02  0.62314153374E+02  0.00000000000E+00 0.  1.
         21    1    1    2  504  503  0.19198395145E+02  0.13613921841E+02 -0.10540591546E+03  0.10800150118E+03  0.00000000000E+00 0.  1.
<mgrwt>
<rscale>  2 0.23535447E+02</rscale>
<asrwt>0</asrwt>
<pdfrwt beam="1">  1       21 0.55469769E-03 0.23535447E+02</pdfrwt>
<pdfrwt beam="2">  1       21 0.25647709E-01 0.23535447E+02</pdfrwt>
<totfact> 0.96136387E+07</totfact>
</mgrwt>
</event>
<event>
 4    1  0.4505197E+006  0.2716422E+02  0.7546771E-02  0.1631731E+00
         21   -1    0    0  504  501  0.00000000000E+00  0.00000000000E+00  0.54760945307E+01  0.54760945307E+01  0.00000000000E+00 0.  1.
         21   -1    0    0  501  502 -0.00000000000E+00 -0.00000000000E+00 -0.14112053999E+03  0.14112053999E+03  0.00000000000E+00 0.  1.
         21    1    1    2  503  502 -0.21402338938E+02 -0.16728255986E+02 -0.83397776973E+02  0.87710226681E+02  0.00000000000E+00 0.  1.
         21    1    1    2  504  503  0.21402338938E+02  0.16728255986E+02 -0.52246668486E+02  0.58886407840E+02  0.00000000000E+00 0.  1.
<mgrwt>
<rscale>  2 0.27164217E+02</rscale>
<asrwt>0</asrwt>
<pdfrwt beam="1">  1       21 0.84247618E-03 0.27164217E+02</pdfrwt>
<pdfrwt beam="2">  1       21 0.21710850E-01 0.27164217E+02</pdfrwt>
<totfact> 0.71881820E+07</totfact>
</mgrwt>
</event>
<event>
 4    1  0.4505197E+006  0.2060305E+02  0.7546771E-02  0.1733595E+00
         21   -1    0    0  502  501  0.00000000000E+00  0.00000000000E+00  0.77986968028E+03  0.77986968028E+03  0.00000000000E+00 0. -1.
         21   -1    0    0  503  502 -0.00000000000E+00 -0.00000000000E+00 -0.14668948189E+01  0.14668948189E+01  0.00000000000E+00 0. -1.
         21    1    1    2  503  504 -0.10223639646E+02 -0.17887502744E+02  0.79378557288E+02  0.82008785622E+02  0.00000000000E+00 0. -1.
         21    1    1    2  504  501  0.10223639646E+02  0.17887502744E+02  0.69902422818E+03  0.69932778948E+03  0.00000000000E+00 0. -1.
<mgrwt>
<rscale>  2 0.20603047E+02</rscale>
<asrwt>0</asrwt>
<pdfrwt beam="1">  1       21 0.11997962E+00 0.20603047E+02</pdfrwt>
<pdfrwt beam="2">  1       21 0.22567675E-03 0.20603047E+02</pdfrwt>
<totfact> 0.16153347E+07</totfact>
</mgrwt>
</event>
<event>
 4    1  0.4505197E+006  0.2444563E+02  0.7546771E-02  0.1669095E+00
         21   -1    0    0  503  501  0.00000000000E+00  0.00000000000E+00  0.10569271929E+02  0.10569271929E+02  0.00000000000E+00 0. -1.
         21   -1    0    0  501  502 -0.00000000000E+00 -0.00000000000E+00 -0.11027241704E+03  0.11027241704E+03  0.00000000000E+00 0. -1.
         21    1    1    2  503  504 -0.12976376902E+02 -0.20717206820E+02 -0.76750643111E+01  0.25622170636E+02  0.00000000000E+00 0. -1.
         21    1    1    2  504  502  0.12976376902E+02  0.20717206820E+02 -0.92028080802E+02  0.95219518336E+02  0.00000000000E+00 0. -1.
<mgrwt>
<rscale>  2 0.24445634E+02</rscale>
<asrwt>0</asrwt>
<pdfrwt beam="1">  1       21 0.16260418E-02 0.24445634E+02</pdfrwt>
<pdfrwt beam="2">  1       21 0.16964988E-01 0.24445634E+02</pdfrwt>
<totfact> 0.39849846E+07</totfact>
</mgrwt>
</event>
<event>
 4    1  0.4505197E+006  0.2079193E+02  0.7546771E-02  0.1730023E+00
         21   -1    0    0  504  501  0.00000000000E+00  0.00000000000E+00  0.64632717347E+02  0.64632717347E+02  0.00000000000E+00 0. -1.
         21   -1    0    0  503  502 -0.00000000000E+00 -0.00000000000E+00 -0.63617078203E+02  0.63617078203E+02  0.00000000000E+00 0. -1.
         21    1    1    2  503  501  0.15618751055E+02 -0.13724392406E+02  0.61168111938E+02  0.64605280353E+02  0.00000000000E+00 0. -1.
         21    1    1    2  504  502 -0.15618751055E+02  0.13724392406E+02 -0.60152472794E+02  0.63644515197E+02  0.00000000000E+00 0. -1.
<mgrwt>
<rscale>  2 0.20791929E+02</rscale>
<asrwt>0</asrwt>
<pdfrwt beam="1">  1       21 0.99434949E-02 0.20791929E+02</pdfrwt>
<pdfrwt beam="2">  1       21 0.97872428E-02 0.20791929E+02</pdfrwt>
<totfact> 0.55706392E+06</totfact>
</mgrwt>
</event>
<event>
 4    1  0.4505197E+006  0.2342754E+02  0.7546771E-02  0.1684672E+00
         21   -1    0    0  504  501  0.00000000000E+00  0.00000000000E+00  0.12164696838E+02  0.12164696838E+02  0.00000000000E+00 0.  1.
         21   -1    0    0  503  502 -0.00000000000E+00 -0.00000000000E+00 -0.15536214256E+03  0.15536214256E+03  0.00000000000E+00 0.  1.
         21    1    1    2  503  501 -0.10068774773E+02 -0.21153467138E+02 -0.10386308229E+01  0.23450546932E+02  0.00000000000E+00 0.  1.
         21    1    1    2  504  502  0.10068774773E+02  0.21153467138E+02 -0.14215881490E+03  0.14407629247E+03  0.00000000000E+00 0.  1.
<mgrwt>
<rscale>  2 0.23427535E+02</rscale>
<asrwt>0</asrwt>
<pdfrwt beam="1">  1       21 0.18714918E-02 0.23427535E+02</pdfrwt>
<pdfrwt beam="2">  1       21 0.23901868E-01 0.23427535E+02</pdfrwt>
<totfact> 0.17474829E+07</totfact>
</mgrwt>
</event>
<event>
 4    1  0.4505197E+006  0.4101949E+02  0.7546771E-02  0.1500840E+00
         21   -1    0    0  504  501  0.00000000000E+00  0.00000000000E+00  0.29362834939E+02  0.29362834939E+02  0.00000000000E+00 0. -1.
         21   -1    0    0  501  502 -0.00000000000E+00 -0.00000000000E+00 -0.85828762044E+02  0.85828762044E+02  0.00000000000E+00 0.  1.
         21    1    1    2  503  502  0.39003667673E+02 -0.12700899956E+02 -0.61436757694E+02  0.73872011937E+02  0.00000000000E+00 0.  1.
         21    1    1    2  504  503 -0.39003667673E+02  0.12700899956E+02  0.49708305896E+01  0.41319585046E+02  0.00000000000E+00 0. -1.
<mgrwt>
<rscale>  2 0.41019495E+02</rscale>
<asrwt>0</asrwt>
<pdfrwt beam="1">  1       21 0.45173592E-02 0.41019495E+02</pdfrwt>
<pdfrwt beam="2">  1       21 0.13204425E-01 0.41019495E+02</pdfrwt>
<totfact> 0.13593736E+07</totfact>
</mgrwt>
</event>
<event>
 4    1  0.4505197E+006  0.2720946E+02  0.7546771E-02  0.1631155E+00
         21   -1    0    0  502  501  0.00000000000E+00  0.00000000000E+00  0.16753424831E+04  0.16753424831E+04  0.00000000000E+00 0. -1.
         21   -1    0    0  504  502 -0.00000000000E+00 -0.00000000000E+00 -0.51907405758E+00  0.51907405758E+00  0.00000000000E+00 0. -1.
         21    1    1    2  503  501 -0.18758193255E+02  0.19710021412E+02  0.11604797609E+04  0.11607987036E+04  0.00000000000E+00 0. -1.
         21    1    1    2  504  503  0.18758193255E+02 -0.19710021412E+02  0.51434364814E+03  0.51506285358E+03  0.00000000000E+00 0. -1.
<mgrwt>
<rscale>  2 0.27209461E+02</rscale>
<asrwt>0</asrwt>
<pdfrwt beam="1">  1       21 0.25774067E+00 0.27209461E+02</pdfrwt>
<pdfrwt beam="2">  1       21 0.79858889E-04 0.27209461E+02</pdfrwt>
<totfact> 0.10848219E+07</totfact>
</mgrwt>
</event>
<event>
 4    1  0.4505197E+006  0.3138238E+02  0.7546771E-02  0.1583292E+00
         21   -1    0    0  503  501  0.00000000000E+00  0.00000000000E+00  0.31269787389E+02  0.31269787389E+02  0.00000000000E+00 0. -1.
         21   -1    0    0  501  502 -0.00000000000E+00 -0.00000000000E+00 -0.14040247040E+03  0.14040247040E+03  0.00000000000E+00 0.  1.
         21    1    1    2  503  504 -0.31357594173E+02 -0.12470272984E+01  0.21031749570E+02  0.37778145526E+02  0.00000000000E+00 0. -1.
         21    1    1    2  504  502  0.31357594173E+02  0.12470272984E+01 -0.13016443258E+03  0.13389411226E+03  0.00000000000E+00 0.  1.
<mgrwt>
<rscale>  2 0.31382380E+02</rscale>
<asrwt>0</asrwt>
<pdfrwt beam="1">  1       21 0.48107366E-02 0.31382380E+02</pdfrwt>
<pdfrwt beam="2">  1       21 0.21600380E-01 0.31382380E+02</pdfrwt>
<totfact> 0.50008715E+06</totfact>
</mgrwt>
</event>
<event>
 4    1  0.4505197E+006  0.3045720E+02  0.7546771E-02  0.1593089E+00
         21   -1    0    0  504  501  0.00000000000E+00  0.00000000000E+00  0.16221866241E+03  0.16221866241E+03  0.00000000000E+00 0. -1.
         21   -1    0    0  503  502 -0.00000000000E+00 -0.00000000000E+00 -0.25284318897E+02  0.25284318897E+02  0.00000000000E+00 0. -1.
         21    1    1    2  503  501 -0.29349683670E+02  0.81386179554E+01  0.15093831289E+03  0.15398056803E+03  0.00000000000E+00 0. -1.
         21    1    1    2  504  502  0.29349683670E+02 -0.81386179554E+01 -0.14003969373E+02  0.33522413278E+02  0.00000000000E+00 0. -1.
<mgrwt>
<rscale>  2 0.30457200E+02</rscale>
<asrwt>0</asrwt>
<pdfrwt beam="1">  1       21 0.24956717E-01 0.30457200E+02</pdfrwt>
<pdfrwt beam="2">  1       21 0.38898953E-02 0.30457200E+02</pdfrwt>
<totfact> 0.54017699E+06</totfact>
</mgrwt>
</event>
<event>
 4    1  0.4505197E+006  0.2179718E+02  0.7546771E-02  0.1711784E+00
         21   -1    0    0  504  501  0.00000000000E+00  0.00000000000E+00  0.15900378221E+03  0.15900378221E+03  0.00000000000E+00 0.  1.
         21   -1    0    0  503  502 -0.00000000000E+00 -0.00000000000E+00 -0.44909655200E+01  0.44909655200E+01  0.00000000000E+00 0.  1.
         21    1    1    2  503  501  0.11307842139E+02 -0.18634633494E+02  0.12454606254E+03  0.12643907052E+03  0.00000000000E+00 0.  1.
         21    1    1    2  504  502 -0.11307842139E+02  0.18634633494E+02  0.29966754147E+02  0.37055677209E+02  0.00000000000E+00 0.  1.
<mgrwt>
<rscale>  2 0.21797175E+02</rscale>
<asrwt>0</asrwt>
<pdfrwt beam="1">  1       21 0.24462116E-01 0.21797175E+02</pdfrwt>
<pdfrwt beam="2">  1       21 0.69091789E-03 0.21797175E+02</pdfrwt>
<totfact> 0.74002874E+07</totfact>
</mgrwt>
</event>
<event>
 4    1  0.4505197E+006  0.2310108E+02  0.7546771E-02  0.1689877E+00
         21   -1    0    0  504  501  0.00000000000E+00  0.00000000000E+00  0.51290051261E+02  0.51290051261E+02  0.00000000000E+00 0.  1.
         21   -1    0    0  501  502 -0.00000000000E+00 -0.00000000000E+00 -0.72686378078E+03  0.72686378078E+03  0.00000000000E+00 0. -1.
         21    1    1    2  503  502  0.89623196654E+01 -0.21291703168E+02 -0.72406900875E+03  0.72443742948E+03  0.00000000000E+00 0. -1.
         21    1    1    2  504  503 -0.89623196654E+01  0.21291703168E+02  0.48495279225E+02  0.53716402567E+02  0.00000000000E+00 0.  1.
<mgrwt>
<rscale>  2 0.23101078E+02</rscale>
<asrwt>0</asrwt>
<pdfrwt beam="1">  1       21 0.78907764E-02 0.23101078E+02</pdfrwt>
<pdfrwt beam="2">  1       21 0.11182521E+00 0.23101078E+02</pdfrwt>
<totfact> 0.86203460E+04</totfact>
</mgrwt>
</event>
<event>
 4    1  0.4505197E+006  0.2037023E+02  0.7546771E-02  0.1738064E+00
         21   -1    0    0  503  501  0.00000000000E+00  0.00000000000E+00  0.55061670846E+01  0.55061670846E+01  0.00000000000E+00 0. -1.
         21   -1    0    0  504  502 -0.00000000000E+00 -0.00000000000E+00 -0.10193550818E+03  0.10193550818E+03  0.00000000000E+00 0. -1.
         21    1    1    2  503  502 -0.20362474352E+02  0.56202122509E+00 -0.75644216907E+02  0.78338967194E+02  0.00000000000E+00 0. -1.
         21    1    1    2  504  501  0.20362474352E+02 -0.56202122509E+00 -0.20785124193E+02  0.29102708075E+02  0.00000000000E+00 0. -1.
<mgrwt>
<rscale>  2 0.20370229E+02</rscale>
<asrwt>0</asrwt>
<pdfrwt beam="1">  1       21 0.84710257E-03 0.20370229E+02</pdfrwt>
<pdfrwt beam="2">  1       21 0.15682387E-01 0.20370229E+02</pdfrwt>
<totfact> 0.11602715E+08</totfact>
</mgrwt>
</event>
<event>
 4    1  0.4505197E+006  0.2036780E+02  0.7546771E-02  0.1738111E+00
         21   -1    0    0  504  501  0.00000000000E+00  0.00000000000E+00  0.51655109519E+01  0.51655109519E+01  0.00000000000E+00 0.  1.
         21   -1    0    0  503  502 -0.00000000000E+00 -0.00000000000E+00 -0.19162265156E+03  0.19162265156E+03  0.00000000000E+00 0.  1.
         21    1    1    2  503  501  0.19386712206E+02  0.62452248752E+01 -0.16822072465E+03  0.16944928340E+03  0.00000000000E+00 0.  1.
         21    1    1    2  504  502 -0.19386712206E+02 -0.62452248752E+01 -0.18236415957E+02  0.27338879108E+02  0.00000000000E+00 0.  1.
<mgrwt>
<rscale>  2 0.20367804E+02</rscale>
<asrwt>0</asrwt>
<pdfrwt beam="1">  1       21 0.79469416E-03 0.20367804E+02</pdfrwt>
<pdfrwt beam="2">  1       21 0.29480402E-01 0.20367804E+02</pdfrwt>
<totfact> 0.42301818E+07</totfact>
</mgrwt>
</event>
<event>
 4    1  0.4505197E+006  0.2658761E+02  0.7546771E-02  0.1639193E+00
         21   -1    0    0  502  501  0.00000000000E+00  0.00000000000E+00  0.29858509101E+02  0.29858509101E+02  0.00000000000E+00 0.  1.
         21   -1    0    0  503  502 -0.00000000000E+00 -0.00000000000E+00 -0.81492376464E+02  0.81492376464E+02  0.00000000000E+00 0.  1.
         21    1    1    2  503  504  0.24983101696E+02 -0.90964707837E+01 -0.72712767221E+02  0.77421235253E+02  0.00000000000E+00 0.  1.
         21    1    1    2  504  501 -0.24983101696E+02  0.90964707837E+01  0.21078899858E+02  0.33929650312E+02  0.00000000000E+00 0.  1.
<mgrwt>
<rscale>  2 0.26587613E+02</rscale>
<asrwt>0</asrwt>
<pdfrwt beam="1">  1       21 0.45936169E-02 0.26587613E+02</pdfrwt>
<pdfrwt beam="2">  1       21 0.12537288E-01 0.26587613E+02</pdfrwt>
<totfact> 0.13461173E+07</totfact>
</mgrwt>
</event>
<event>
 4    1  0.4505197E+006  0.2028630E+02  0.7546771E-02  0.1739694E+00
         21   -1    0    0  502  501  0.00000000000E+00  0.00000000000E+00  0.80382231863E+02  0.80382231863E+02  0.00000000000E+00 0. -1.
         21   -1    0    0  503  502 -0.00000000000E+00 -0.00000000000E+00 -0.16315533077E+02  0.16315533077E+02  0.00000000000E+00 0.  1.
         21    1    1    2  503  504  0.23639112889E+01 -0.20148097120E+02 -0.80176886680E+01  0.21813235104E+02  0.00000000000E+00 0.  1.
         21    1    1    2  504  501 -0.23639112889E+01  0.20148097120E+02  0.72084387453E+02  0.74884529835E+02  0.00000000000E+00 0. -1.
<mgrwt>
<rscale>  2 0.20286298E+02</rscale>
<asrwt>0</asrwt>
<pdfrwt beam="1">  1       21 0.12366497E-01 0.20286298E+02</pdfrwt>
<pdfrwt beam="2">  1       21 0.25100820E-02 0.20286298E+02</pdfrwt>
<totfact> 0.33443196E+07</totfact>
</mgrwt>
</event>
<event>
 4    1  0.4505197E+006  0.2474081E+02  0.7546771E-02  0.1664753E+00
         21   -1    0    0  502  501  0.00000000000E+00  0.00000000000E+00  0.26504873680E+03  0.26504873680E+03  0.00000000000E+00 0. -1.
         21   -1    0    0  503  502 -0.00000000000E+00 -0.00000000000E+00 -0.93334504238E+01  0.93334504238E+01  0.00000000000E+00 0. -1.
         21    1    1    2  503  504  0.45746030182E+01  0.24314208293E+02  0.88436217509E+01  0.26273891287E+02  0.00000000000E+00 0. -1.
         21    1    1    2  504  501 -0.45746030182E+01 -0.24314208293E+02  0.24687166462E+03  0.24810829593E+03  0.00000000000E+00 0. -1.
<mgrwt>
<rscale>  2 0.24740811E+02</rscale>
<asrwt>0</asrwt>
<pdfrwt beam="1">  1       21 0.40776723E-01 0.24740811E+02</pdfrwt>
<pdfrwt beam="2">  1       21 0.14359157E-02 0.24740811E+02</pdfrwt>
<totfact> 0.99446566E+06</totfact>
</mgrwt>
</event>
<event>
 4    1  0.4505197E+006  0.2122842E+02  0.7546771E-02  0.1721948E+00
         21   -1    0    0  502  501  0.00000000000E+00  0.00000000000E+00  0.22071121711E+01  0.22071121711E+01  0.00000000000E+00 0. -1.
         21   -1    0    0  503  502 -0.00000000000E+00 -0.00000000000E+00 -0.10427302477E+04  0.10427302477E+04  0.00000000000E+00 0.  1.
         21    1    1    2  503  504  0.21142800676E+02 -0.19046416704E+01 -0.98879341079E+03  0.98902126110E+03  0.00000000000E+00 0.  1.
         21    1    1    2  504  501 -0.21142800676E+02  0.19046416704E+01 -0.51729724708E+02  0.55916098744E+02  0.00000000000E+00 0. -1.
<mgrwt>
<rscale>  2 0.21228417E+02</rscale>
<asrwt>0</asrwt>
<pdfrwt beam="1">  1       21 0.33955484E-03 0.21228417E+02</pdfrwt>
<pdfrwt beam="2">  1       21 0.16042045E+00 0.21228417E+02</pdfrwt>
<totfact> 0.45740894E+06</totfact>
</mgrwt>
</event>
<event>
 4    1  0.4505197E+006  0.2703019E+02  0.7546771E-02  0.1633445E+00
         21   -1    0    0  504  501  0.00000000000E+00  0.00000000000E+00  0.73014130875E+01  0.73014130875E+01  0.00000000000E+00 0. -1.
         21   -1    0    0  503  502 -0.00000000000E+00 -0.00000000000E+00 -0.24575061912E+03  0.24575061912E+03  0.00000000000E+00 0. -1.
         21    1    1    2  503  501  0.26310099639E+02 -0.61975645464E+01 -0.21806929787E+02  0.34730006278E+02  0.00000000000E+00 0. -1.
         21    1    1    2  504  502 -0.26310099639E+02  0.61975645464E+01 -0.21664227624E+03  0.21832202593E+03  0.00000000000E+00 0. -1.
<mgrwt>
<rscale>  2 0.27030190E+02</rscale>
<asrwt>0</asrwt>
<pdfrwt beam="1">  1       21 0.11232941E-02 0.27030190E+02</pdfrwt>
<pdfrwt beam="2">  1       21 0.37807794E-01 0.27030190E+02</pdfrwt>
<totfact> 0.16916026E+07</totfact>
</mgrwt>
</event>
<event>
 4    1  0.4505197E+006  0.2263335E+02  0.7546771E-02  0.1697523E+00
         21   -1    0    0  504  501  0.00000000000E+00  0.00000000000E+00  0.11620840576E+02  0.11620840576E+02  0.00000000000E+00 0. -1.
         21   -1    0    0  503  502 -0.00000000000E+00 -0.00000000000E+00 -0.48735841449E+02  0.48735841449E+02  0.00000000000E+00 0. -1.
         21    1    1    2  503  501  0.75273058768E+01  0.21344983628E+02 -0.27883209776E+02  0.35912978813E+02  0.00000000000E+00 0. -1.
         21    1    1    2  504  502 -0.75273058768E+01 -0.21344983628E+02 -0.92317910973E+01  0.24443703211E+02  0.00000000000E+00 0. -1.
<mgrwt>
<rscale>  2 0.22633353E+02</rscale>
<asrwt>0</asrwt>
<pdfrwt beam="1">  1       21 0.17878216E-02 0.22633353E+02</pdfrwt>
<pdfrwt beam="2">  1       21 0.74978217E-02 0.22633353E+02</pdfrwt>
<totfact> 0.13210397E+08</totfact>
</mgrwt>
</event>
<event>
 4    1  0.4505197E+006  0.2056193E+02  0.7546771E-02  0.1734379E+00
         21   -1    0    0  504  501  0.00000000000E+00  0.00000000000E+00  0.48347729325E+01  0.48347729325E+01  0.00000000000E+00 0.  1.
         21   -1    0    0  503  502 -0.00000000000E+00 -0.00000000000E+00 -0.35012226635E+03  0.35012226635E+03  0.00000000000E+00 0.  1.
         21    1    1    2  503  501  0.82927172336E+01 -0.18815523433E+02 -0.32636870306E+03  0.32701578467E+03  0.00000000000E+00 0.  1.
         21    1    1    2  504  502 -0.82927172336E+01  0.18815523433E+02 -0.18918790357E+02  0.27941254620E+02  0.00000000000E+00 0.  1.
<mgrwt>
<rscale>  2 0.20561933E+02</rscale>
<asrwt>0</asrwt>
<pdfrwt beam="1">  1       21 0.74381106E-03 0.20561933E+02</pdfrwt>
<pdfrwt beam="2">  1       21 0.53864976E-01 0.20561933E+02</pdfrwt>
<totfact> 0.15097038E+07</totfact>
</mgrwt>
</event>
<event>
 4    1  0.4505197E+006  0.2516518E+02  0.7546771E-02  0.1658641E+00
         21   -1    0    0  503  501  0.00000000000E+00  0.00000000000E+00  0.14043533767E+03  0.14043533767E+03  0.00000000000E+00 0.  1.
         21   -1    0    0  504  502 -0.00000000000E+00 -0.00000000000E+00 -0.42798603407E+02  0.42798603407E+02  0.00000000000E+00 0.  1.
         21    1    1    2  503  502 -0.77987508546E+01 -0.23926256913E+02  0.13547444013E+03  0.13779190910E+03  0.00000000000E+00 0.  1.
         21    1    1    2  504  501  0.77987508546E+01  0.23926256913E+02 -0.37837705868E+02  0.45442031976E+02  0.00000000000E+00 0.  1.
<mgrwt>
<rscale>  2 0.25165180E+02</rscale>
<asrwt>0</asrwt>
<pdfrwt beam="1">  1       21 0.21605436E-01 0.25165180E+02</pdfrwt>
<pdfrwt beam="2">  1       21 0.65844006E-02 0.25165180E+02</pdfrwt>
<totfact> 0.29268550E+06</totfact>
</mgrwt>
</event>
<event>
 4    1  0.4505197E+006  0.2105937E+02  0.7546771E-02  0.1725046E+00
         21   -1    0    0  503  501  0.00000000000E+00  0.00000000000E+00  0.13747775334E+02  0.13747775334E+02  0.00000000000E+00 0. -1.
         21   -1    0    0  504  502 -0.00000000000E+00 -0.00000000000E+00 -0.32436693207E+02  0.32436693207E+02  0.00000000000E+00 0. -1.
         21    1    1    2  503  502  0.20064194257E+02  0.63972870496E+01 -0.76379891845E+01  0.22401697515E+02  0.00000000000E+00 0. -1.
         21    1    1    2  504  501 -0.20064194257E+02 -0.63972870496E+01 -0.11050928689E+02  0.23782771025E+02  0.00000000000E+00 0. -1.
<mgrwt>
<rscale>  2 0.21059373E+02</rscale>
<asrwt>0</asrwt>
<pdfrwt beam="1">  1       21 0.21150424E-02 0.21059373E+02</pdfrwt>
<pdfrwt beam="2">  1       21 0.49902604E-02 0.21059373E+02</pdfrwt>
<totfact> 0.19200735E+08</totfact>
</mgrwt>
</event>
<event>
 4    1  0.4505197E+006  0.2029856E+02  0.7546771E-02  0.1739455E+00
         21   -1    0    0  502  501  0.00000000000E+00  0.00000000000E+00  0.13139673160E+04  0.13139673160E+04  0.00000000000E+00 0.  1.
         21   -1    0    0  503  502 -0.00000000000E+00 -0.00000000000E+00 -0.49066728414E+00  0.49066728414E+00  0.00000000000E+00 0. -1.
         21    1    1    2  503  504  0.74097795389E+01  0.18897798744E+02  0.26190032585E+03  0.26268576724E+03  0.00000000000E+00 0. -1.
         21    1    1    2  504  501 -0.74097795389E+01 -0.18897798744E+02  0.10515763229E+04  0.10517722160E+04  0.00000000000E+00 0.  1.
<mgrwt>
<rscale>  2 0.20298562E+02</rscale>
<asrwt>0</asrwt>
<pdfrwt beam="1">  1       21 0.20214600E+00 0.20298562E+02</pdfrwt>
<pdfrwt beam="2">  1       21 0.75488326E-04 0.20298562E+02</pdfrwt>
<totfact> 0.22122651E+07</totfact>
</mgrwt>
</event>
<event>
 4    1  0.4505197E+006  0.4216502E+02  0.7546771E-02  0.1492858E+00
         21   -1    0    0  502  501  0.00000000000E+00  0.00000000000E+00  0.16824443977E+01  0.16824443977E+01  0.00000000000E+00 0. -1.
         21   -1    0    0  504  502 -0.00000000000E+00 -0.00000000000E+00 -0.15927989437E+04  0.15927989437E+04  0.00000000000E+00 0. -1.
         21    1    1    2  503  501  0.38545424835E+02  0.17092067627E+02 -0.33304995722E+03  0.33570844874E+03  0.00000000000E+00 0. -1.
         21    1    1    2  504  503 -0.38545424835E+02 -0.17092067627E+02 -0.12580665421E+04  0.12587729394E+04  0.00000000000E+00 0. -1.
<mgrwt>
<rscale>  2 0.42165016E+02</rscale>
<asrwt>0</asrwt>
<pdfrwt beam="1">  1       21 0.25883680E-03 0.42165016E+02</pdfrwt>
<pdfrwt beam="2">  1       21 0.24504675E+00 0.42165016E+02</pdfrwt>
<totfact> 0.23134759E+06</totfact>
</mgrwt>
</event>
<event>
 4    1  0.4505197E+006  0.3017520E+02  0.7546771E-02  0.1596160E+00
         21   -1    0    0  503  501  0.00000000000E+00  0.00000000000E+00  0.19835786055E+01  0.19835786055E+01  0.00000000000E+00 0.  1.
         21   -1    0    0  504  502 -0.00000000000E+00 -0.00000000000E+00 -0.81897561963E+03  0.81897561963E+03  0.00000000000E+00 0.  1.
         21    1    1    2  503  502  0.37658075580E+01  0.29939296975E+02 -0.68062089056E+03  0.68128946820E+03  0.00000000000E+00 0.  1.
         21    1    1    2  504  501 -0.37658075580E+01 -0.29939296975E+02 -0.13637115046E+03  0.13966973004E+03  0.00000000000E+00 0.  1.
<mgrwt>
<rscale>  2 0.30175202E+02</rscale>
<asrwt>0</asrwt>
<pdfrwt beam="1">  1       21 0.30516643E-03 0.30175202E+02</pdfrwt>
<pdfrwt beam="2">  1       21 0.12599605E+00 0.30175202E+02</pdfrwt>
<totfact> 0.98775877E+06</totfact>
</mgrwt>
</event>
<event>
 4    1  0.4505197E+006  0.2205646E+02  0.7546771E-02  0.1707277E+00
         21   -1    0    0  504  501  0.00000000000E+00  0.00000000000E+00  0.30415223536E+02  0.30415223536E+02  0.00000000000E+00 0.  1.
         21   -1    0    0  503  502 -0.00000000000E+00 -0.00000000000E+00 -0.36503707084E+02  0.36503707084E+02  0.00000000000E+00 0. -1.
         21    1    1    2  503  501  0.15195491943E+02  0.15987010582E+02  0.22035383944E+02  0.31177646292E+02  0.00000000000E+00 0.  1.
         21    1    1    2  504  502 -0.15195491943E+02 -0.15987010582E+02 -0.28123867492E+02  0.35741284328E+02  0.00000000000E+00 0. -1.
<mgrwt>
<rscale>  2 0.22056461E+02</rscale>
<asrwt>0</asrwt>
<pdfrwt beam="1">  1       21 0.46792652E-02 0.22056461E+02</pdfrwt>
<pdfrwt beam="2">  1       21 0.56159549E-02 0.22056461E+02</pdfrwt>
<totfact> 0.46834483E+07</totfact>
</mgrwt>
</event>
<event>
 4    1  0.4505197E+006  0.2595747E+02  0.7546771E-02  0.1647618E+00
         21   -1    0    0  503  501  0.00000000000E+00  0.00000000000E+00  0.98960735834E+01  0.98960735834E+01  0.00000000000E+00 0. -1.
         21   -1    0    0  504  502 -0.00000000000E+00 -0.00000000000E+00 -0.70886769342E+02  0.70886769342E+02  0.00000000000E+00 0. -1.
         21    1    1    2  503  502 -0.14666663688E+02 -0.21416797961E+02 -0.38523150672E+02  0.46452377725E+02  0.00000000000E+00 0. -1.
         21    1    1    2  504  501  0.14666663688E+02  0.21416797961E+02 -0.22467545086E+02  0.34330465200E+02  0.00000000000E+00 0. -1.
<mgrwt>
<rscale>  2 0.25957470E+02</rscale>
<asrwt>0</asrwt>
<pdfrwt beam="1">  1       21 0.15224728E-02 0.25957470E+02</pdfrwt>
<pdfrwt beam="2">  1       21 0.10905657E-01 0.25957470E+02</pdfrwt>
<totfact> 0.94631627E+07</totfact>
</mgrwt>
</event>
<event>
 4    1  0.4505197E+006  0.2162765E+02  0.7546771E-02  0.1714772E+00
         21   -1    0    0  503  501  0.00000000000E+00  0.00000000000E+00  0.34800500124E+01  0.34800500124E+01  0.00000000000E+00 0.  1.
         21   -1    0    0  504  502 -0.00000000000E+00 -0.00000000000E+00 -0.10987265495E+04  0.10987265495E+04  0.00000000000E+00 0.  1.
         21    1    1    2  503  502  0.12159674645E+02  0.17885675153E+02 -0.31328257929E+02  0.38068554057E+02  0.00000000000E+00 0.  1.
         21    1    1    2  504  501 -0.12159674645E+02 -0.17885675153E+02 -0.10639182415E+04  0.10641380454E+04  0.00000000000E+00 0.  1.
<mgrwt>
<rscale>  2 0.21627646E+02</rscale>
<asrwt>0</asrwt>
<pdfrwt beam="1">  1       21 0.53539234E-03 0.21627646E+02</pdfrwt>
<pdfrwt beam="2">  1       21 0.16903484E+00 0.21627646E+02</pdfrwt>
<totfact> 0.20723343E+06</totfact>
</mgrwt>
</event>
<event>
 4    1  0.4505197E+006  0.2825861E+02  0.7546771E-02  0.1618175E+00
         21   -1    0    0  504  501  0.00000000000E+00  0.00000000000E+00  0.14891848426E+03  0.14891848426E+03  0.00000000000E+00 0. -1.
         21   -1    0    0  501  502 -0.00000000000E+00 -0.00000000000E+00 -0.32464556301E+02  0.32464556301E+02  0.00000000000E+00 0. -1.
         21    1    1    2  503  502 -0.26315485492E+02 -0.10297784753E+02 -0.24636766060E+02  0.37490257260E+02  0.00000000000E+00 0. -1.
         21    1    1    2  504  503  0.26315485492E+02  0.10297784753E+02  0.14109069402E+03  0.14389278331E+03  0.00000000000E+00 0. -1.
<mgrwt>
<rscale>  2 0.28258612E+02</rscale>
<asrwt>0</asrwt>
<pdfrwt beam="1">  1       21 0.22910536E-01 0.28258612E+02</pdfrwt>
<pdfrwt beam="2">  1       21 0.49945472E-02 0.28258612E+02</pdfrwt>
<totfact> 0.41815770E+06</totfact>
</mgrwt>
</event>
<event>
 4    1  0.4505197E+006  0.3198491E+02  0.7546771E-02  0.1577130E+00
         21   -1    0    0  504  501  0.00000000000E+00  0.00000000000E+00  0.15756524611E+02  0.15756524611E+02  0.00000000000E+00 0. -1.
         21   -1    0    0  503  502 -0.00000000000E+00 -0.00000000000E+00 -0.10941051054E+03  0.10941051054E+03  0.00000000000E+00 0.  1.
         21    1    1    2  503  501  0.59845523959E+01 -0.31420054265E+02 -0.69220562168E+01  0.32725365386E+02  0.00000000000E+00 0. -1.
         21    1    1    2  504  502 -0.59845523959E+01  0.31420054265E+02 -0.86731929711E+02  0.92441669764E+02  0.00000000000E+00 0.  1.
<mgrwt>
<rscale>  2 0.31984913E+02</rscale>
<asrwt>0</asrwt>
<pdfrwt beam="1">  1       21 0.24240807E-02 0.31984913E+02</pdfrwt>
<pdfrwt beam="2">  1       21 0.16832386E-01 0.31984913E+02</pdfrwt>
<totfact> 0.23047733E+07</totfact>
</mgrwt>
</event>
<event>
 4    1  0.4505197E+006  0.2506958E+02  0.7546771E-02  0.1660005E+00
         21   -1    0    0  502  501  0.00000000000E+00  0.00000000000E+00  0.39415969792E+01  0.39415969792E+01  0.00000000000E+00 0.  1.
         21   -1    0    0  503  502 -0.00000000000E+00 -0.00000000000E+00 -0.30656496355E+03  0.30656496355E+03  0.00000000000E+00 0.  1.
         21    1    1    2  503  504  0.20794081984E+02 -0.14003207812E+02 -0.25886144041E+03  0.26007254566E+03  0.00000000000E+00 0.  1.
         21    1    1    2  504  501 -0.20794081984E+02  0.14003207812E+02 -0.43761926161E+02  0.50434014870E+02  0.00000000000E+00 0.  1.
<mgrwt>
<rscale>  2 0.25069577E+02</rscale>
<asrwt>0</asrwt>
<pdfrwt beam="1">  1       21 0.60639950E-03 0.25069577E+02</pdfrwt>
<pdfrwt beam="2">  1       21 0.47163843E-01 0.25069577E+02</pdfrwt>
<totfact> 0.27574387E+07</totfact>
</mgrwt>
</event>
<event>
 4    1  0.4505197E+006  0.2100184E+02  0.7546771E-02  0.1726109E+00
         21   -1    0    0  503  501  0.00000000000E+00  0.00000000000E+00  0.27597600922E+03  0.27597600922E+03  0.00000000000E+00 0. -1.
         21   -1    0    0  504  502 -0.00000000000E+00 -0.00000000000E+00 -0.26077391356E+01  0.26077391356E+01  0.00000000000E+00 0. -1.
         21    1    1    2  503  502  0.10353919485E+02  0.18272209140E+02  0.22334950808E+03  0.22433474995E+03  0.00000000000E+00 0. -1.
         21    1    1    2  504  501 -0.10353919485E+02 -0.18272209140E+02  0.50018762004E+02  0.54248998405E+02  0.00000000000E+00 0. -1.
<mgrwt>
<rscale>  2 0.21001840E+02</rscale>
<asrwt>0</asrwt>
<pdfrwt beam="1">  1       21 0.42457824E-01 0.21001840E+02</pdfrwt>
<pdfrwt beam="2">  1       21 0.40119085E-03 0.21001840E+02</pdfrwt>
<totfact> 0.59518130E+07</totfact>
</mgrwt>
</event>
<event>
 4    1  0.4505197E+006  0.3657451E+02  0.7546771E-02  0.1535047E+00
         21   -1    0    0  504  501  0.00000000000E+00  0.00000000000E+00  0.41218603951E+02  0.41218603951E+02  0.00000000000E+00 0. -1.
         21   -1    0    0  503  502 -0.00000000000E+00 -0.00000000000E+00 -0.35678077916E+02  0.35678077916E+02  0.00000000000E+00 0. -1.
         21    1    1    2  503  501  0.10110261844E+01  0.36560537272E+02 -0.87882435360E+01  0.37615532483E+02  0.00000000000E+00 0. -1.
         21    1    1    2  504  502 -0.10110261844E+01 -0.36560537272E+02  0.14328769571E+02  0.39281149384E+02  0.00000000000E+00 0. -1.
<mgrwt>
<rscale>  2 0.36574514E+02</rscale>
<asrwt>0</asrwt>
<pdfrwt beam="1">  1       21 0.63413237E-02 0.36574514E+02</pdfrwt>
<pdfrwt beam="2">  1       21 0.54889351E-02 0.36574514E+02</pdfrwt>
<totfact> 0.33321653E+07</totfact>
</mgrwt>
</event>
<event>
 4    1  0.4505197E+006  0.2837859E+02  0.7546771E-02  0.1616735E+00
         21   -1    0    0  502  501  0.00000000000E+00  0.00000000000E+00  0.20372537287E+03  0.20372537287E+03  0.00000000000E+00 0. -1.
         21   -1    0    0  503  502 -0.00000000000E+00 -0.00000000000E+00 -0.79055736968E+03  0.79055736968E+03  0.00000000000E+00 0. -1.
         21    1    1    2  503  504  0.20745081324E+02  0.19364551889E+02 -0.78931286395E+03  0.78982285448E+03  0.00000000000E+00 0. -1.
         21    1    1    2  504  501 -0.20745081324E+02 -0.19364551889E+02  0.20248086714E+03  0.20445988807E+03  0.00000000000E+00 0. -1.
<mgrwt>
<rscale>  2 0.28378588E+02</rscale>
<asrwt>0</asrwt>
<pdfrwt beam="1">  1       21 0.31342366E-01 0.28378588E+02</pdfrwt>
<pdfrwt beam="2">  1       21 0.12162421E+00 0.28378588E+02</pdfrwt>
<totfact> 0.65175291E+03</totfact>
</mgrwt>
</event>
<event>
 4    1  0.4505197E+006  0.2596909E+02  0.7546771E-02  0.1647460E+00
         21   -1    0    0  503  501  0.00000000000E+00  0.00000000000E+00  0.53542537830E+02  0.53542537830E+02  0.00000000000E+00 0. -1.
         21   -1    0    0  504  502 -0.00000000000E+00 -0.00000000000E+00 -0.25155498469E+03  0.25155498469E+03  0.00000000000E+00 0.  1.
         21    1    1    2  503  502 -0.17183484186E+02 -0.19471037767E+02 -0.24768685089E+03  0.24904451317E+03  0.00000000000E+00 0.  1.
         21    1    1    2  504  501  0.17183484186E+02  0.19471037767E+02  0.49674404030E+02  0.56053009341E+02  0.00000000000E+00 0. -1.
<mgrwt>
<rscale>  2 0.25969086E+02</rscale>
<asrwt>0</asrwt>
<pdfrwt beam="1">  1       21 0.82373134E-02 0.25969086E+02</pdfrwt>
<pdfrwt beam="2">  1       21 0.38700767E-01 0.25969086E+02</pdfrwt>
<totfact> 0.70472605E+05</totfact>
</mgrwt>
</event>
<event>
 4    1  0.4505197E+006  0.2499448E+02  0.7546771E-02  0.1661081E+00
         21   -1    0    0  503  501  0.00000000000E+00  0.00000000000E+00  0.21406923054E+02  0.21406923054E+02  0.00000000000E+00 0.  1.
         21   -1    0    0  504  502 -0.00000000000E+00 -0.00000000000E+00 -0.16349552614E+03  0.16349552614E+03  0.00000000000E+00 0.  1.
         21    1    1    2  503  502 -0.24674409714E+02  0.39871811516E+01  0.12750590674E+02  0.28058896465E+02  0.00000000000E+00 0.  1.
         21    1    1    2  504  501  0.24674409714E+02 -0.39871811516E+01 -0.15483919376E+03  0.15684355273E+03  0.00000000000E+00 0.  1.
<mgrwt>
<rscale>  2 0.24994482E+02</rscale>
<asrwt>0</asrwt>
<pdfrwt beam="1">  1       21 0.32933727E-02 0.24994482E+02</pdfrwt>
<pdfrwt beam="2">  1       21 0.25153159E-01 0.24994482E+02</pdfrwt>
<totfact> 0.67271750E+06</totfact>
</mgrwt>
</event>
<event>
 4    1  0.4505197E+006  0.2467862E+02  0.7546771E-02  0.1665661E+00
         21   -1    0    0  502  501  0.00000000000E+00  0.00000000000E+00  0.10685622631E+03  0.10685622631E+03  0.00000000000E+00 0. -1.
         21   -1    0    0  503  502 -0.00000000000E+00 -0.00000000000E+00 -0.64699261946E+01  0.64699261946E+01  0.00000000000E+00 0. -1.
         21    1    1    2  503  504 -0.10373517363E+02  0.22392509291E+02  0.30640896480E+02  0.39343345967E+02  0.00000000000E+00 0. -1.
         21    1    1    2  504  501  0.10373517363E+02 -0.22392509291E+02  0.69745403638E+02  0.73982806539E+02  0.00000000000E+00 0. -1.
<mgrwt>
<rscale>  2 0.24678621E+02</rscale>
<asrwt>0</asrwt>
<pdfrwt beam="1">  1       21 0.16439418E-01 0.24678621E+02</pdfrwt>
<pdfrwt beam="2">  1       21 0.99537334E-03 0.24678621E+02</pdfrwt>
<totfact> 0.88737274E+07</totfact>
</mgrwt>
</event>
<event>
 4    1  0.4505197E+006  0.2095028E+02  0.7546771E-02  0.1727065E+00
         21   -1    0    0  503  501  0.00000000000E+00  0.00000000000E+00  0.36546343316E+03  0.36546343316E+03  0.00000000000E+00 0. -1.
         21   -1    0    0  504  502 -0.00000000000E+00 -0.00000000000E+00 -0.82949183567E+02  0.82949183567E+02  0.00000000000E+00 0. -1.
         21    1    1    2  503  502  0.93484910785E+01 -0.18748862894E+02  0.36383442991E+03  0.36443710916E+03  0.00000000000E+00 0. -1.
         21    1    1    2  504  501 -0.93484910785E+01  0.18748862894E+02 -0.81320180314E+02  0.83975507570E+02  0.00000000000E+00 0. -1.
<mgrwt>
<rscale>  2 0.20950278E+02</rscale>
<asrwt>0</asrwt>
<pdfrwt beam="1">  1       21 0.56225143E-01 0.20950278E+02</pdfrwt>
<pdfrwt beam="2">  1       21 0.12761413E-01 0.20950278E+02</pdfrwt>
<totfact> 0.16441855E+05</totfact>
</mgrwt>
</event>
<event>
 4    1  0.4505197E+006  0.2115143E+02  0.7546771E-02  0.1723355E+00
         21   -1    0    0  504  501  0.00000000000E+00  0.00000000000E+00  0.71242994696E+02  0.71242994696E+02  0.00000000000E+00 0.  1.
         21   -1    0    0  503  502 -0.00000000000E+00 -0.00000000000E+00 -0.25066979986E+02  0.25066979986E+02  0.00000000000E+00 0. -1.
         21    1    1    2  503  501  0.16027663248E+02  0.13802059836E+02 -0.18601091728E+02  0.28167063361E+02  0.00000000000E+00 0. -1.
         21    1    1    2  504  502 -0.16027663248E+02 -0.13802059836E+02  0.64777106438E+02  0.68142911322E+02  0.00000000000E+00 0.  1.
<mgrwt>
<rscale>  2 0.21151427E+02</rscale>
<asrwt>0</asrwt>
<pdfrwt beam="1">  1       21 0.10960461E-01 0.21151427E+02</pdfrwt>
<pdfrwt beam="2">  1       21 0.38564585E-02 0.21151427E+02</pdfrwt>
<totfact> 0.21190559E+07</totfact>
</mgrwt>
</event>
<event>
 4    1  0.4505197E+006  0.3228357E+02  0.7546771E-02  0.1574137E+00
         21   -1    0    0  504  501  0.00000000000E+00  0.00000000000E+00  0.11740153528E+02  0.11740153528E+02  0.00000000000E+00 0. -1.
         21   -1    0    0  503  502 -0.00000000000E+00 -0.00000000000E+00 -0.10757084692E+03  0.10757084692E+03  0.00000000000E+00 0. -1.
         21    1    1    2  503  501  0.20624688322E+02 -0.24836483724E+02 -0.22978729995E+02  0.39626389242E+02  0.00000000000E+00 0. -1.
         21    1    1    2  504  502 -0.20624688322E+02  0.24836483724E+02 -0.72851963393E+02  0.79684611202E+02  0.00000000000E+00 0. -1.
<mgrwt>
<rscale>  2 0.32283567E+02</rscale>
<asrwt>0</asrwt>
<pdfrwt beam="1">  1       21 0.18061774E-02 0.32283567E+02</pdfrwt>
<pdfrwt beam="2">  1       21 0.16549361E-01 0.32283567E+02</pdfrwt>
<totfact> 0.37578958E+07</totfact>
</mgrwt>
</event>
<event>
 4    1  0.4505197E+006  0.2168440E+02  0.7546771E-02  0.1713768E+00
         21   -1    0    0  504  501  0.00000000000E+00  0.00000000000E+00  0.24338541704E+03  0.24338541704E+03  0.00000000000E+00 0. -1.
         21   -1    0    0  503  502 -0.00000000000E+00 -0.00000000000E+00 -0.64081519949E+01  0.64081519949E+01  0.00000000000E+00 0. -1.
         21    1    1    2  503  501  0.20843736817E+02  0.59792930040E+01  0.22287378415E+03  0.22392618643E+03  0.00000000000E+00 0. -1.
         21    1    1    2  504  502 -0.20843736817E+02 -0.59792930040E+01  0.14103480896E+02  0.25867382602E+02  0.00000000000E+00 0. -1.
<mgrwt>
<rscale>  2 0.21684402E+02</rscale>
<asrwt>0</asrwt>
<pdfrwt beam="1">  1       21 0.37443903E-01 0.21684402E+02</pdfrwt>
<pdfrwt beam="2">  1       21 0.98586972E-03 0.21684402E+02</pdfrwt>
<totfact> 0.20069709E+07</totfact>
</mgrwt>
</event>
<event>
 4    1  0.4505197E+006  0.2593195E+02  0.7546771E-02  0.1647966E+00
         21   -1    0    0  504  501  0.00000000000E+00  0.00000000000E+00  0.26636196117E+02  0.26636196117E+02  0.00000000000E+00 0. -1.
         21   -1    0    0  503  502 -0.00000000000E+00 -0.00000000000E+00 -0.85716974206E+02  0.85716974206E+02  0.00000000000E+00 0. -1.
         21    1    1    2  503  501 -0.25877151526E+02  0.16849866088E+01 -0.76724331303E+02  0.80988203863E+02  0.00000000000E+00 0. -1.
         21    1    1    2  504  502  0.25877151526E+02 -0.16849866088E+01  0.17643553215E+02  0.31364966460E+02  0.00000000000E+00 0. -1.
<mgrwt>
<rscale>  2 0.25931952E+02</rscale>
<asrwt>0</asrwt>
<pdfrwt beam="1">  1       21 0.40978763E-02 0.25931952E+02</pdfrwt>
<pdfrwt beam="2">  1       21 0.13187227E-01 0.25931952E+02</pdfrwt>
<totfact> 0.14748610E+07</totfact>
</mgrwt>
</event>
<event>
 4    1  0.4505197E+006  0.2042444E+02  0.7546771E-02  0.1737017E+00
         21   -1    0    0  504  501  0.00000000000E+00  0.00000000000E+00  0.51228973938E+03  0.51228973938E+03  0.00000000000E+00 0.  1.
         21   -1    0    0  503  502 -0.00000000000E+00 -0.00000000000E+00 -0.32830591833E+01  0.32830591833E+01  0.00000000000E+00 0. -1.
         21    1    1    2  503  501 -0.15539653877E+02  0.13254312693E+02  0.47804578131E+03  0.47848189796E+03  0.00000000000E+00 0.  1.
         21    1    1    2  504  502  0.15539653877E+02 -0.13254312693E+02  0.30960898882E+02  0.37090900598E+02  0.00000000000E+00 0. -1.
<mgrwt>
<rscale>  2 0.20424438E+02</rscale>
<asrwt>0</asrwt>
<pdfrwt beam="1">  1       21 0.78813743E-01 0.20424438E+02</pdfrwt>
<pdfrwt beam="2">  1       21 0.50508643E-03 0.20424438E+02</pdfrwt>
<totfact> 0.12393466E+07</totfact>
</mgrwt>
</event>
<event>
 4    1  0.4505197E+006  0.2690682E+02  0.7546771E-02  0.1635033E+00
         21   -1    0    0  502  501  0.00000000000E+00  0.00000000000E+00  0.42834068380E+03  0.42834068380E+03  0.00000000000E+00 0. -1.
         21   -1    0    0  503  502 -0.00000000000E+00 -0.00000000000E+00 -0.48828984725E+03  0.48828984725E+03  0.00000000000E+00 0. -1.
         21    1    1    2  503  504  0.22767418847E+02  0.14339510046E+02 -0.48749594263E+03  0.48823792457E+03  0.00000000000E+00 0. -1.
         21    1    1    2  504  501 -0.22767418847E+02 -0.14339510046E+02  0.42754677918E+03  0.42839260649E+03  0.00000000000E+00 0. -1.
<mgrwt>
<rscale>  2 0.26906819E+02</rscale>
<asrwt>0</asrwt>
<pdfrwt beam="1">  1       21 0.65898567E-01 0.26906819E+02</pdfrwt>
<pdfrwt beam="2">  1       21 0.75121515E-01 0.26906819E+02</pdfrwt>
<totfact> 0.44679360E+03</totfact>
</mgrwt>
</event>
<event>
 4    1  0.4505197E+006  0.3260963E+02  0.7546771E-02  0.1570913E+00
         21   -1    0    0  503  501  0.00000000000E+00  0.00000000000E+00  0.11880661121E+03  0.11880661121E+03  0.00000000000E+00 0. -1.
         21   -1    0    0  504  502 -0.00000000000E+00 -0.00000000000E+00 -0.13562327245E+02  0.13562327245E+02  0.00000000000E+00 0.  1.
         21    1    1    2  503  502 -0.30506175868E+02 -0.11522218776E+02  0.14027977393E+02  0.35498907608E+02  0.00000000000E+00 0.  1.
         21    1    1    2  504  501  0.30506175868E+02  0.11522218776E+02  0.91216306574E+02  0.96870030849E+02  0.00000000000E+00 0. -1.
<mgrwt>
<rscale>  2 0.32609635E+02</rscale>
<asrwt>0</asrwt>
<pdfrwt beam="1">  1       21 0.18277940E-01 0.32609635E+02</pdfrwt>
<pdfrwt beam="2">  1       21 0.20865120E-02 0.32609635E+02</pdfrwt>
<totfact> 0.25303519E+07</totfact>
</mgrwt>
</event>
<event>
 4    1  0.4505197E+006  0.2239767E+02  0.7546771E-02  0.1701464E+00
         21   -1    0    0  503  501  0.00000000000E+00  0.00000000000E+00  0.10625326295E+03  0.10625326295E+03  0.00000000000E+00 0. -1.
         21   -1    0    0  504  502 -0.00000000000E+00 -0.00000000000E+00 -0.56192747448E+03  0.56192747448E+03  0.00000000000E+00 0.  1.
         21    1    1    2  503  502  0.51042896331E+01 -0.21808294453E+02 -0.56052099920E+03  0.56096831107E+03  0.00000000000E+00 0.  1.
         21    1    1    2  504  501 -0.51042896331E+01  0.21808294453E+02  0.10484678767E+03  0.10721242636E+03  0.00000000000E+00 0. -1.
<mgrwt>
<rscale>  2 0.22397667E+02</rscale>
<asrwt>0</asrwt>
<pdfrwt beam="1">  1       21 0.16346656E-01 0.22397667E+02</pdfrwt>
<pdfrwt beam="2">  1       21 0.86450382E-01 0.22397667E+02</pdfrwt>
<totfact> 0.44832354E+04</totfact>
</mgrwt>
</event>
<event>
 4    1  0.4505197E+006  0.3059513E+02  0.7546771E-02  0.1591602E+00
         21   -1    0    0  502  501  0.00000000000E+00  0.00000000000E+00  0.23500628793E+02  0.23500628793E+02  0.00000000000E+00 0. -1.
         21   -1    0    0  504  502 -0.00000000000E+00 -0.00000000000E+00 -0.62825207528E+03  0.62825207528E+03  0.00000000000E+00 0. -1.
         21    1    1    2  503  501 -0.22024860884E+02  0.21235996891E+02  0.13001159392E+02  0.33242927164E+02  0.00000000000E+00 0. -1.
         21    1    1    2  504  503  0.22024860884E+02 -0.21235996891E+02 -0.61775260588E+03  0.61850977691E+03  0.00000000000E+00 0. -1.
<mgrwt>
<rscale>  2 0.30595131E+02</rscale>
<asrwt>0</asrwt>
<pdfrwt beam="1">  1       21 0.36154813E-02 0.30595131E+02</pdfrwt>
<pdfrwt beam="2">  1       21 0.96654166E-01 0.30595131E+02</pdfrwt>
<totfact> 0.41857128E+05</totfact>
</mgrwt>
</event>
<event>
 4    1  0.4505197E+006  0.2152839E+02  0.7546771E-02  0.1716538E+00
         21   -1    0    0  503  501  0.00000000000E+00  0.00000000000E+00  0.65352907231E+03  0.65352907231E+03  0.00000000000E+00 0.  1.
         21   -1    0    0  504  502 -0.00000000000E+00 -0.00000000000E+00 -0.28486969827E+01  0.28486969827E+01  0.00000000000E+00 0.  1.
         21    1    1    2  503  502 -0.21213689864E+02  0.36675340160E+01  0.40921357480E+02  0.46238825043E+02  0.00000000000E+00 0.  1.
         21    1    1    2  504  501  0.21213689864E+02 -0.36675340160E+01  0.60975901785E+03  0.61013894425E+03  0.00000000000E+00 0.  1.
<mgrwt>
<rscale>  2 0.21528387E+02</rscale>
<asrwt>0</asrwt>
<pdfrwt beam="1">  1       21 0.10054281E+00 0.21528387E+02</pdfrwt>
<pdfrwt beam="2">  1       21 0.43826160E-03 0.21528387E+02</pdfrwt>
<totfact> 0.91745512E+06</totfact>
</mgrwt>
</event>
<event>
 4    1  0.4505197E+006  0.3083324E+02  0.7546771E-02  0.1589057E+00
         21   -1    0    0  503  501  0.00000000000E+00  0.00000000000E+00  0.11704417341E+04  0.11704417341E+04  0.00000000000E+00 0. -1.
         21   -1    0    0  504  502 -0.00000000000E+00 -0.00000000000E+00 -0.82473995090E+00  0.82473995090E+00  0.00000000000E+00 0. -1.
         21    1    1    2  503  502  0.27920763077E+02 -0.13081279606E+02  0.51273370718E+03  0.51365994915E+03  0.00000000000E+00 0. -1.
         21    1    1    2  504  501 -0.27920763077E+02  0.13081279606E+02  0.65688328700E+03  0.65760652493E+03  0.00000000000E+00 0. -1.
<mgrwt>
<rscale>  2 0.30833243E+02</rscale>
<asrwt>0</asrwt>
<pdfrwt beam="1">  1       21 0.18006663E+00 0.30833243E+02</pdfrwt>
<pdfrwt beam="2">  1       21 0.12688401E-03 0.30833243E+02</pdfrwt>
<totfact> 0.14984001E+07</totfact>
</mgrwt>
</event>
<event>
 4    1  0.4505197E+006  0.3445734E+02  0.7546771E-02  0.1553473E+00
         21   -1    0    0  504  501  0.00000000000E+00  0.00000000000E+00  0.22606121943E+03  0.22606121943E+03  0.00000000000E+00 0.  1.
         21   -1    0    0  503  502 -0.00000000000E+00 -0.00000000000E+00 -0.33125657034E+03  0.33125657034E+03  0.00000000000E+00 0.  1.
         21    1    1    2  503  501  0.11399083669E+02  0.32517213663E+02  0.22384329045E+03  0.22647985997E+03  0.00000000000E+00 0.  1.
         21    1    1    2  504  502 -0.11399083669E+02 -0.32517213663E+02 -0.32903864135E+03  0.33083792980E+03  0.00000000000E+00 0.  1.
<mgrwt>
<rscale>  2 0.34457340E+02</rscale>
<asrwt>0</asrwt>
<pdfrwt beam="1">  1       21 0.34778649E-01 0.34457340E+02</pdfrwt>
<pdfrwt beam="2">  1       21 0.50962549E-01 0.34457340E+02</pdfrwt>
<totfact> 0.33509671E+04</totfact>
</mgrwt>
</event>
<event>
 4    1  0.4505197E+006  0.2323446E+02  0.7546771E-02  0.1687737E+00
         21   -1    0    0  502  501  0.00000000000E+00  0.00000000000E+00  0.27739793462E+03  0.27739793462E+03  0.00000000000E+00 0.  1.
         21   -1    0    0  503  502 -0.00000000000E+00 -0.00000000000E+00 -0.42083785340E+01  0.42083785340E+01  0.00000000000E+00 0. -1.
         21    1    1    2  503  504 -0.18216672462E+01 -0.23162942136E+02  0.33359214863E+02  0.40653137347E+02  0.00000000000E+00 0. -1.
         21    1    1    2  504  501  0.18216672462E+01  0.23162942136E+02  0.23983034123E+03  0.24095317581E+03  0.00000000000E+00 0.  1.
<mgrwt>
<rscale>  2 0.23234465E+02</rscale>
<asrwt>0</asrwt>
<pdfrwt beam="1">  1       21 0.42676591E-01 0.23234465E+02</pdfrwt>
<pdfrwt beam="2">  1       21 0.64744307E-03 0.23234465E+02</pdfrwt>
<totfact> 0.29820662E+07</totfact>
</mgrwt>
</event>
<event>
 4    1  0.4505197E+006  0.2267435E+02  0.7546771E-02  0.1696844E+00
         21   -1    0    0  504  501  0.00000000000E+00  0.00000000000E+00  0.20377877499E+02  0.20377877499E+02  0.00000000000E+00 0. -1.
         21   -1    0    0  503  502 -0.00000000000E+00 -0.00000000000E+00 -0.25815132505E+02  0.25815132505E+02  0.00000000000E+00 0.  1.
         21    1    1    2  503  501  0.12897162831E+02  0.18649116657E+02 -0.61969714639E+01  0.23505931517E+02  0.00000000000E+00 0.  1.
         21    1    1    2  504  502 -0.12897162831E+02 -0.18649116657E+02  0.75971645750E+00  0.22687078487E+02  0.00000000000E+00 0. -1.
<mgrwt>
<rscale>  2 0.22674355E+02</rscale>
<asrwt>0</asrwt>
<pdfrwt beam="1">  1       21 0.31350581E-02 0.22674355E+02</pdfrwt>
<pdfrwt beam="2">  1       21 0.39715589E-02 0.22674355E+02</pdfrwt>
<totfact> 0.15343282E+08</totfact>
</mgrwt>
</event>
<event>
 4    1  0.4505197E+006  0.5195345E+02  0.7546771E-02  0.1435081E+00
         21   -1    0    0  504  501  0.00000000000E+00  0.00000000000E+00  0.37759551682E+02  0.37759551682E+02  0.00000000000E+00 0. -1.
         21   -1    0    0  503  502 -0.00000000000E+00 -0.00000000000E+00 -0.84823304396E+02  0.84823304396E+02  0.00000000000E+00 0.  1.
         21    1    1    2  503  501 -0.16034360432E+00 -0.51953200385E+02 -0.47838648951E+02  0.70623629713E+02  0.00000000000E+00 0.  1.
         21    1    1    2  504  502  0.16034360432E+00  0.51953200385E+02  0.77489623762E+00  0.51959226365E+02  0.00000000000E+00 0. -1.
<mgrwt>
<rscale>  2 0.51953448E+02</rscale>
<asrwt>0</asrwt>
<pdfrwt beam="1">  1       21 0.58091618E-02 0.51953448E+02</pdfrwt>
<pdfrwt beam="2">  1       21 0.13049739E-01 0.51953448E+02</pdfrwt>
<totfact> 0.94854171E+06</totfact>
</mgrwt>
</event>
<event>
 4    1  0.4505197E+006  0.2150459E+02  0.7546771E-02  0.1716963E+00
         21   -1    0    0  502  501  0.00000000000E+00  0.00000000000E+00  0.76467944415E+03  0.76467944415E+03  0.00000000000E+00 0. -1.
         21   -1    0    0  504  502 -0.00000000000E+00 -0.00000000000E+00 -0.10755584703E+01  0.10755584703E+01  0.00000000000E+00 0. -1.
         21    1    1    2  503  501  0.12911543814E+02  0.17197080293E+02  0.63511662368E+03  0.63548058445E+03  0.00000000000E+00 0. -1.
         21    1    1    2  504  503 -0.12911543814E+02 -0.17197080293E+02  0.12848726200E+03  0.13027441818E+03  0.00000000000E+00 0. -1.
<mgrwt>
<rscale>  2 0.21504593E+02</rscale>
<asrwt>0</asrwt>
<pdfrwt beam="1">  1       21 0.11764256E+00 0.21504593E+02</pdfrwt>
<pdfrwt beam="2">  1       21 0.16547115E-03 0.21504593E+02</pdfrwt>
<totfact> 0.26604095E+07</totfact>
</mgrwt>
</event>
<event>
 4    1  0.4505197E+006  0.3970561E+02  0.7546771E-02  0.1510389E+00
         21   -1    0    0  503  501  0.00000000000E+00  0.00000000000E+00  0.12913417289E+02  0.12913417289E+02  0.00000000000E+00 0.  1.
         21   -1    0    0  504  502 -0.00000000000E+00 -0.00000000000E+00 -0.13243967135E+03  0.13243967135E+03  0.00000000000E+00 0. -1.
         21    1    1    2  503  502 -0.35927290710E+02 -0.16904586600E+02 -0.39441792820E+02  0.55965974366E+02  0.00000000000E+00 0.  1.
         21    1    1    2  504  501  0.35927290710E+02  0.16904586600E+02 -0.80084461245E+02  0.89387114277E+02  0.00000000000E+00 0. -1.
<mgrwt>
<rscale>  2 0.39705607E+02</rscale>
<asrwt>0</asrwt>
<pdfrwt beam="1">  1       21 0.19866797E-02 0.39705607E+02</pdfrwt>
<pdfrwt beam="2">  1       21 0.20375333E-01 0.39705607E+02</pdfrwt>
<totfact> 0.23315608E+07</totfact>
</mgrwt>
</event>
<event>
 4    1  0.4505197E+006  0.2053758E+02  0.7546771E-02  0.1734844E+00
         21   -1    0    0  502  501  0.00000000000E+00  0.00000000000E+00  0.28731145749E+02  0.28731145749E+02  0.00000000000E+00 0.  1.
         21   -1    0    0  503  502 -0.00000000000E+00 -0.00000000000E+00 -0.80013047285E+02  0.80013047285E+02  0.00000000000E+00 0.  1.
         21    1    1    2  503  504  0.15925137439E+02  0.12968502616E+02 -0.74772442629E+02  0.77541667762E+02  0.00000000000E+00 0.  1.
         21    1    1    2  504  501 -0.15925137439E+02 -0.12968502616E+02  0.23490541093E+02  0.31202525273E+02  0.00000000000E+00 0.  1.
<mgrwt>
<rscale>  2 0.20537577E+02</rscale>
<asrwt>0</asrwt>
<pdfrwt beam="1">  1       21 0.44201762E-02 0.20537577E+02</pdfrwt>
<pdfrwt beam="2">  1       21 0.12309700E-01 0.20537577E+02</pdfrwt>
<totfact> 0.14005947E+07</totfact>
</mgrwt>
</event>
<event>
 4    1  0.4505197E+006  0.2872269E+02  0.7546771E-02  0.1612652E+00
         21   -1    0    0  504  501  0.00000000000E+00  0.00000000000E+00  0.87824308444E+02  0.87824308444E+02  0.00000000000E+00 0.  1.
         21   -1    0    0  501  502 -0.00000000000E+00 -0.00000000000E+00 -0.78524396771E+02  0.78524396771E+02  0.00000000000E+00 0.  1.
         21    1    1    2  503  502 -0.50836339552E+01  0.28269238794E+02 -0.73391015064E+02  0.78811384255E+02  0.00000000000E+00 0.  1.
         21    1    1    2  504  503  0.50836339552E+01 -0.28269238794E+02  0.82690926737E+02  0.87537320960E+02  0.00000000000E+00 0.  1.
<mgrwt>
<rscale>  2 0.28722695E+02</rscale>
<asrwt>0</asrwt>
<pdfrwt beam="1">  1       21 0.13511432E-01 0.28722695E+02</pdfrwt>
<pdfrwt beam="2">  1       21 0.12080676E-01 0.28722695E+02</pdfrwt>
<totfact> 0.24595676E+06</totfact>
</mgrwt>
</event>
<event>
 4    1  0.4505197E+006  0.2310368E+02  0.7546771E-02  0.1689835E+00
         21   -1    0    0  504  501  0.00000000000E+00  0.00000000000E+00  0.16966770483E+02  0.16966770483E+02  0.00000000000E+00 0.  1.
         21   -1    0    0  501  502 -0.00000000000E+00 -0.00000000000E+00 -0.48917825493E+03  0.48917825493E+03  0.00000000000E+00 0.  1.
         21    1    1    2  503  502 -0.43222021858E+01 -0.22695788135E+02 -0.48090515106E+03  0.48145980575E+03  0.00000000000E+00 0.  1.
         21    1    1    2  504  503  0.43222021858E+01  0.22695788135E+02  0.86936666143E+01  0.24685219667E+02  0.00000000000E+00 0.  1.
<mgrwt>
<rscale>  2 0.23103684E+02</rscale>
<asrwt>0</asrwt>
<pdfrwt beam="1">  1       21 0.26102721E-02 0.23103684E+02</pdfrwt>
<pdfrwt beam="2">  1       21 0.75258201E-01 0.23103684E+02</pdfrwt>
<totfact> 0.11696869E+06</totfact>
</mgrwt>
</event>
<event>
 4    1  0.4505197E+006  0.2050242E+02  0.7546771E-02  0.1735518E+00
         21   -1    0    0  503  501  0.00000000000E+00  0.00000000000E+00  0.36619289724E+02  0.36619289724E+02  0.00000000000E+00 0. -1.
         21   -1    0    0  504  502 -0.00000000000E+00 -0.00000000000E+00 -0.12819783077E+02  0.12819783077E+02  0.00000000000E+00 0. -1.
         21    1    1    2  503  502  0.20157153620E+02 -0.37467599376E+01  0.39051680995E+01  0.20871017943E+02  0.00000000000E+00 0. -1.
         21    1    1    2  504  501 -0.20157153620E+02  0.37467599376E+01  0.19894338547E+02  0.28568054858E+02  0.00000000000E+00 0. -1.
<mgrwt>
<rscale>  2 0.20502416E+02</rscale>
<asrwt>0</asrwt>
<pdfrwt beam="1">  1       21 0.56337368E-02 0.20502416E+02</pdfrwt>
<pdfrwt beam="2">  1       21 0.19722743E-02 0.20502416E+02</pdfrwt>
<totfact> 0.17470337E+08</totfact>
</mgrwt>
</event>
<event>
 4    1  0.4505197E+006  0.2545227E+02  0.7546771E-02  0.1654589E+00
         21   -1    0    0  504  501  0.00000000000E+00  0.00000000000E+00  0.21878702749E+03  0.21878702749E+03  0.00000000000E+00 0. -1.
         21   -1    0    0  503  502 -0.00000000000E+00 -0.00000000000E+00 -0.46178281706E+01  0.46178281706E+01  0.00000000000E+00 0.  1.
         21    1    1    2  503  501  0.23057295975E+02  0.10778649749E+02  0.17399422122E+03  0.17584597580E+03  0.00000000000E+00 0. -1.
         21    1    1    2  504  502 -0.23057295975E+02 -0.10778649749E+02  0.40174978104E+02  0.47558879863E+02  0.00000000000E+00 0.  1.
<mgrwt>
<rscale>  2 0.25452273E+02</rscale>
<asrwt>0</asrwt>
<pdfrwt beam="1">  1       21 0.33659535E-01 0.25452273E+02</pdfrwt>
<pdfrwt beam="2">  1       21 0.71043527E-03 0.25452273E+02</pdfrwt>
<totfact> 0.41358020E+07</totfact>
</mgrwt>
</event>
<event>
 4    1  0.4505197E+006  0.2453897E+02  0.7546771E-02  0.1667713E+00
         21   -1    0    0  502  501  0.00000000000E+00  0.00000000000E+00  0.96128968648E+01  0.96128968648E+01  0.00000000000E+00 0.  1.
         21   -1    0    0  503  502 -0.00000000000E+00 -0.00000000000E+00 -0.29644648207E+03  0.29644648207E+03  0.00000000000E+00 0. -1.
         21    1    1    2  503  504  0.20923805543E+02 -0.12820123390E+02 -0.27932006606E+03  0.28039589959E+03  0.00000000000E+00 0. -1.
         21    1    1    2  504  501 -0.20923805543E+02  0.12820123390E+02 -0.75135191428E+01  0.25663479344E+02  0.00000000000E+00 0.  1.
<mgrwt>
<rscale>  2 0.24538973E+02</rscale>
<asrwt>0</asrwt>
<pdfrwt beam="1">  1       21 0.14789072E-02 0.24538973E+02</pdfrwt>
<pdfrwt beam="2">  1       21 0.45607151E-01 0.24538973E+02</pdfrwt>
<totfact> 0.76677227E+06</totfact>
</mgrwt>
</event>
<event>
 4    1  0.4505197E+006  0.2035787E+02  0.7546771E-02  0.1738304E+00
         21   -1    0    0  502  501  0.00000000000E+00  0.00000000000E+00  0.46031055031E+01  0.46031055031E+01  0.00000000000E+00 0.  1.
         21   -1    0    0  504  502 -0.00000000000E+00 -0.00000000000E+00 -0.92054251994E+02  0.92054251994E+02  0.00000000000E+00 0.  1.
         21    1    1    2  503  501 -0.20322704991E+02 -0.11960335671E+01 -0.36568653603E+02  0.41853425915E+02  0.00000000000E+00 0.  1.
         21    1    1    2  504  503  0.20322704991E+02  0.11960335671E+01 -0.50882492888E+02  0.54803931583E+02  0.00000000000E+00 0.  1.
<mgrwt>
<rscale>  2 0.20357869E+02</rscale>
<asrwt>0</asrwt>
<pdfrwt beam="1">  1       21 0.70817014E-03 0.20357869E+02</pdfrwt>
<pdfrwt beam="2">  1       21 0.14162191E-01 0.20357869E+02</pdfrwt>
<totfact> 0.17987654E+08</totfact>
</mgrwt>
</event>
<event>
 4    1  0.4505197E+006  0.3185981E+02  0.7546771E-02  0.1578396E+00
         21   -1    0    0  502  501  0.00000000000E+00  0.00000000000E+00  0.36567194069E+02  0.36567194069E+02  0.00000000000E+00 0.  1.
         21   -1    0    0  504  502 -0.00000000000E+00 -0.00000000000E+00 -0.52427463540E+02  0.52427463540E+02  0.00000000000E+00 0.  1.
         21    1    1    2  503  501 -0.44336007016E+01  0.31549810854E+02  0.22593110749E+02  0.39057598920E+02  0.00000000000E+00 0.  1.
         21    1    1    2  504  503  0.44336007016E+01 -0.31549810854E+02 -0.38453380221E+02  0.49937058689E+02  0.00000000000E+00 0.  1.
<mgrwt>
<rscale>  2 0.31859808E+02</rscale>
<asrwt>0</asrwt>
<pdfrwt beam="1">  1       21 0.56257222E-02 0.31859808E+02</pdfrwt>
<pdfrwt beam="2">  1       21 0.80657636E-02 0.31859808E+02</pdfrwt>
<totfact> 0.20999130E+07</totfact>
</mgrwt>
</event>
<event>
 4    1  0.4505197E+006  0.2284387E+02  0.7546771E-02  0.1694053E+00
         21   -1    0    0  504  501  0.00000000000E+00  0.00000000000E+00  0.24491363876E+02  0.24491363876E+02  0.00000000000E+00 0.  1.
         21   -1    0    0  503  502 -0.00000000000E+00 -0.00000000000E+00 -0.94762697725E+02  0.94762697725E+02  0.00000000000E+00 0.  1.
         21    1    1    2  503  501  0.22467571926E+02  0.41292657251E+01 -0.87632922510E+02  0.90561425184E+02  0.00000000000E+00 0.  1.
         21    1    1    2  504  502 -0.22467571926E+02 -0.41292657251E+01  0.17361588661E+02  0.28692636417E+02  0.00000000000E+00 0.  1.
<mgrwt>
<rscale>  2 0.22843875E+02</rscale>
<asrwt>0</asrwt>
<pdfrwt beam="1">  1       21 0.37679021E-02 0.22843875E+02</pdfrwt>
<pdfrwt beam="2">  1       21 0.14578877E-01 0.22843875E+02</pdfrwt>
<totfact> 0.13848681E+07</totfact>
</mgrwt>
</event>
<event>
 4    1  0.4505197E+006  0.2152963E+02  0.7546771E-02  0.1716516E+00
         21   -1    0    0  503  501  0.00000000000E+00  0.00000000000E+00  0.77794789618E+03  0.77794789618E+03  0.00000000000E+00 0.  1.
         21   -1    0    0  504  502 -0.00000000000E+00 -0.00000000000E+00 -0.97021796614E+00  0.97021796614E+00  0.00000000000E+00 0.  1.
         21    1    1    2  503  502 -0.48523730927E+00 -0.21524156968E+02  0.14655978772E+03  0.14813269782E+03  0.00000000000E+00 0.  1.
         21    1    1    2  504  501  0.48523730927E+00  0.21524156968E+02  0.63041789049E+03  0.63078541632E+03  0.00000000000E+00 0.  1.
<mgrwt>
<rscale>  2 0.21529626E+02</rscale>
<asrwt>0</asrwt>
<pdfrwt beam="1">  1       21 0.11968379E+00 0.21529626E+02</pdfrwt>
<pdfrwt beam="2">  1       21 0.14926492E-03 0.21529626E+02</pdfrwt>
<totfact> 0.29674370E+07</totfact>
</mgrwt>
</event>
<event>
 4    1  0.4505197E+006  0.2447298E+02  0.7546771E-02  0.1668689E+00
         21   -1    0    0  504  501  0.00000000000E+00  0.00000000000E+00  0.19360695513E+02  0.19360695513E+02  0.00000000000E+00 0.  1.
         21   -1    0    0  503  502 -0.00000000000E+00 -0.00000000000E+00 -0.12187037179E+03  0.12187037179E+03  0.00000000000E+00 0.  1.
         21    1    1    2  503  501  0.74501052318E+01  0.23311432023E+02 -0.11225305369E+03  0.11488983851E+03  0.00000000000E+00 0.  1.
         21    1    1    2  504  502 -0.74501052318E+01 -0.23311432023E+02  0.97433774108E+01  0.26341228792E+02  0.00000000000E+00 0.  1.
<mgrwt>
<rscale>  2 0.24472984E+02</rscale>
<asrwt>0</asrwt>
<pdfrwt beam="1">  1       21 0.29785685E-02 0.24472984E+02</pdfrwt>
<pdfrwt beam="2">  1       21 0.18749288E-01 0.24472984E+02</pdfrwt>
<totfact> 0.13171859E+07</totfact>
</mgrwt>
</event>
<event>
 4    1  0.4505197E+006  0.2224591E+02  0.7546771E-02  0.1704033E+00
         21   -1    0    0  503  501  0.00000000000E+00  0.00000000000E+00  0.82628520215E+03  0.82628520215E+03  0.00000000000E+00 0.  1.
         21   -1    0    0  501  502 -0.00000000000E+00 -0.00000000000E+00 -0.91203945601E+01  0.91203945601E+01  0.00000000000E+00 0. -1.
         21    1    1    2  503  504  0.22601199150E+01 -0.22130805578E+02  0.81233737878E+03  0.81264192463E+03  0.00000000000E+00 0.  1.
         21    1    1    2  504  502 -0.22601199150E+01  0.22130805578E+02  0.48274288031E+01  0.22763672077E+02  0.00000000000E+00 0. -1.
<mgrwt>
<rscale>  2 0.22245914E+02</rscale>
<asrwt>0</asrwt>
<pdfrwt beam="1">  1       21 0.12712074E+00 0.22245914E+02</pdfrwt>
<pdfrwt beam="2">  1       21 0.14031383E-02 0.22245914E+02</pdfrwt>
<totfact> 0.96335502E+05</totfact>
</mgrwt>
</event>
<event>
 4    1  0.4505197E+006  0.3166109E+02  0.7546771E-02  0.1580421E+00
         21   -1    0    0  504  501  0.00000000000E+00  0.00000000000E+00  0.12224263685E+02  0.12224263685E+02  0.00000000000E+00 0.  1.
         21   -1    0    0  503  502 -0.00000000000E+00 -0.00000000000E+00 -0.18123848937E+03  0.18123848937E+03  0.00000000000E+00 0.  1.
         21    1    1    2  503  501  0.85278031977E+01 -0.30490999627E+02 -0.15608452340E+03  0.15926331320E+03  0.00000000000E+00 0.  1.
         21    1    1    2  504  502 -0.85278031977E+01  0.30490999627E+02 -0.12929702290E+02  0.34199439863E+02  0.00000000000E+00 0.  1.
<mgrwt>
<rscale>  2 0.31661088E+02</rscale>
<asrwt>0</asrwt>
<pdfrwt beam="1">  1       21 0.18806559E-02 0.31661088E+02</pdfrwt>
<pdfrwt beam="2">  1       21 0.27882845E-01 0.31661088E+02</pdfrwt>
<totfact> 0.13889120E+07</totfact>
</mgrwt>
</event>
<event>
 4    1  0.4505197E+006  0.4001991E+02  0.7546771E-02  0.1508065E+00
         21   -1    0    0  502  501  0.00000000000E+00  0.00000000000E+00  0.13726945810E+02  0.13726945810E+02  0.00000000000E+00 0.  1.
         21   -1    0    0  504  502 -0.00000000000E+00 -0.00000000000E+00 -0.24381599628E+03  0.24381599628E+03  0.00000000000E+00 0.  1.
         21    1    1    2  503  501 -0.13709052857E+02 -0.37598601224E+02 -0.22055611909E+02  0.45695108720E+02  0.00000000000E+00 0.  1.
         21    1    1    2  504  503  0.13709052857E+02  0.37598601224E+02 -0.20803343856E+03  0.21184783337E+03  0.00000000000E+00 0.  1.
<mgrwt>
<rscale>  2 0.40019907E+02</rscale>
<asrwt>0</asrwt>
<pdfrwt beam="1">  1       21 0.21118379E-02 0.40019907E+02</pdfrwt>
<pdfrwt beam="2">  1       21 0.37510153E-01 0.40019907E+02</pdfrwt>
<totfact> 0.68842534E+06</totfact>
</mgrwt>
</event>
<event>
 4    1  0.4505197E+006  0.2014404E+02  0.7546771E-02  0.1742479E+00
         21   -1    0    0  504  501  0.00000000000E+00  0.00000000000E+00  0.14935492099E+03  0.14935492099E+03  0.00000000000E+00 0.  1.
         21   -1    0    0  503  502 -0.00000000000E+00 -0.00000000000E+00 -0.15539780321E+02  0.15539780321E+02  0.00000000000E+00 0. -1.
         21    1    1    2  503  501  0.16647286057E+02 -0.11342408511E+02  0.14180157682E+03  0.14322524062E+03  0.00000000000E+00 0.  1.
         21    1    1    2  504  502 -0.16647286057E+02  0.11342408511E+02 -0.79864361522E+01  0.21669460683E+02  0.00000000000E+00 0. -1.
<mgrwt>
<rscale>  2 0.20144040E+02</rscale>
<asrwt>0</asrwt>
<pdfrwt beam="1">  1       21 0.22977679E-01 0.20144040E+02</pdfrwt>
<pdfrwt beam="2">  1       21 0.23907355E-02 0.20144040E+02</pdfrwt>
<totfact> 0.12469959E+07</totfact>
</mgrwt>
</event>
<event>
 4    1  0.4505197E+006  0.2321771E+02  0.7546771E-02  0.1688005E+00
         21   -1    0    0  504  501  0.00000000000E+00  0.00000000000E+00  0.13575953436E+03  0.13575953436E+03  0.00000000000E+00 0.  1.
         21   -1    0    0  503  502 -0.00000000000E+00 -0.00000000000E+00 -0.50057837208E+01  0.50057837208E+01  0.00000000000E+00 0.  1.
         21    1    1    2  503  501  0.18757934477E+02 -0.13682171906E+02  0.33372086037E+02  0.40654127224E+02  0.00000000000E+00 0.  1.
         21    1    1    2  504  502 -0.18757934477E+02  0.13682171906E+02  0.97381664599E+02  0.10011119085E+03  0.00000000000E+00 0.  1.
<mgrwt>
<rscale>  2 0.23217707E+02</rscale>
<asrwt>0</asrwt>
<pdfrwt beam="1">  1       21 0.20886079E-01 0.23217707E+02</pdfrwt>
<pdfrwt beam="2">  1       21 0.77012068E-03 0.23217707E+02</pdfrwt>
<totfact> 0.84625598E+07</totfact>
</mgrwt>
</event>
<event>
 4    1  0.4505197E+006  0.2649825E+02  0.7546771E-02  0.1640370E+00
         21   -1    0    0  504  501  0.00000000000E+00  0.00000000000E+00  0.10082214845E+02  0.10082214845E+02  0.00000000000E+00 0. -1.
         21   -1    0    0  503  502 -0.00000000000E+00 -0.00000000000E+00 -0.14752617350E+03  0.14752617350E+03  0.00000000000E+00 0.  1.
         21    1    1    2  503  501 -0.25333202090E+02  0.77708367486E+01 -0.11463970437E+02  0.28871779476E+02  0.00000000000E+00 0. -1.
         21    1    1    2  504  502  0.25333202090E+02 -0.77708367486E+01 -0.12597998822E+03  0.12873660887E+03  0.00000000000E+00 0.  1.
<mgrwt>
<rscale>  2 0.26498246E+02</rscale>
<asrwt>0</asrwt>
<pdfrwt beam="1">  1       21 0.15511101E-02 0.26498246E+02</pdfrwt>
<pdfrwt beam="2">  1       21 0.22696333E-01 0.26498246E+02</pdfrwt>
<totfact> 0.26191719E+07</totfact>
</mgrwt>
</event>
<event>
 4    1  0.4505197E+006  0.2270948E+02  0.7546771E-02  0.1696263E+00
         21   -1    0    0  504  501  0.00000000000E+00  0.00000000000E+00  0.64576816671E+02  0.64576816671E+02  0.00000000000E+00 0. -1.
         21   -1    0    0  501  502 -0.00000000000E+00 -0.00000000000E+00 -0.71244256810E+03  0.71244256810E+03  0.00000000000E+00 0. -1.
         21    1    1    2  503  502  0.91515995854E+01  0.20783860594E+02 -0.71025892284E+03  0.71062188125E+03  0.00000000000E+00 0. -1.
         21    1    1    2  504  503 -0.91515995854E+01 -0.20783860594E+02  0.62393171408E+02  0.66397503526E+02  0.00000000000E+00 0. -1.
<mgrwt>
<rscale>  2 0.22709483E+02</rscale>
<asrwt>0</asrwt>
<pdfrwt beam="1">  1       21 0.99348951E-02 0.22709483E+02</pdfrwt>
<pdfrwt beam="2">  1       21 0.10960655E+00 0.22709483E+02</pdfrwt>
<totfact> 0.61781582E+04</totfact>
</mgrwt>
</event>
<event>
 4    1  0.4505197E+006  0.2313775E+02  0.7546771E-02  0.1689287E+00
         21   -1    0    0  503  501  0.00000000000E+00  0.00000000000E+00  0.49662836261E+01  0.49662836261E+01  0.00000000000E+00 0. -1.
         21   -1    0    0  501  502 -0.00000000000E+00 -0.00000000000E+00 -0.18214098967E+03  0.18214098967E+03  0.00000000000E+00 0. -1.
         21    1    1    2  503  504 -0.58209799352E+01 -0.22393562408E+02 -0.28818236296E+02  0.36957356344E+02  0.00000000000E+00 0. -1.
         21    1    1    2  504  502  0.58209799352E+01  0.22393562408E+02 -0.14835646975E+03  0.15014991696E+03  0.00000000000E+00 0. -1.
<mgrwt>
<rscale>  2 0.23137749E+02</rscale>
<asrwt>0</asrwt>
<pdfrwt beam="1">  1       21 0.76404362E-03 0.23137749E+02</pdfrwt>
<pdfrwt beam="2">  1       21 0.28021691E-01 0.23137749E+02</pdfrwt>
<totfact> 0.50734555E+07</totfact>
</mgrwt>
</event>
<event>
 4    1  0.4505197E+006  0.5575703E+02  0.7546771E-02  0.1416552E+00
         21   -1    0    0  504  501  0.00000000000E+00  0.00000000000E+00  0.24295591344E+03  0.24295591344E+03  0.00000000000E+00 0.  1.
         21   -1    0    0  503  502 -0.00000000000E+00 -0.00000000000E+00 -0.17296372469E+03  0.17296372469E+03  0.00000000000E+00 0. -1.
         21    1    1    2  503  501 -0.50974262373E+02 -0.22593598067E+02 -0.16512345608E+03  0.17428310832E+03  0.00000000000E+00 0. -1.
         21    1    1    2  504  502  0.50974262373E+02  0.22593598067E+02  0.23511564482E+03  0.24163652981E+03  0.00000000000E+00 0.  1.
<mgrwt>
<rscale>  2 0.55757027E+02</rscale>
<asrwt>0</asrwt>
<pdfrwt beam="1">  1       21 0.37377833E-01 0.55757027E+02</pdfrwt>
<pdfrwt beam="2">  1       21 0.26609804E-01 0.55757027E+02</pdfrwt>
<totfact> 0.98921241E+04</totfact>
</mgrwt>
</event>
<event>
 4    1  0.4505197E+006  0.2510806E+02  0.7546771E-02  0.1659455E+00
         21   -1    0    0  503  501  0.00000000000E+00  0.00000000000E+00  0.31469164371E+03  0.31469164371E+03  0.00000000000E+00 0.  1.
         21   -1    0    0  504  502 -0.00000000000E+00 -0.00000000000E+00 -0.29075749236E+01  0.29075749236E+01  0.00000000000E+00 0. -1.
         21    1    1    2  503  502  0.23880891735E+02  0.77535726579E+01  0.24445241499E+03  0.24573847495E+03  0.00000000000E+00 0.  1.
         21    1    1    2  504  501 -0.23880891735E+02 -0.77535726579E+01  0.67331653798E+02  0.71860743680E+02  0.00000000000E+00 0. -1.
<mgrwt>
<rscale>  2 0.25108064E+02</rscale>
<asrwt>0</asrwt>
<pdfrwt beam="1">  1       21 0.48414072E-01 0.25108064E+02</pdfrwt>
<pdfrwt beam="2">  1       21 0.44731947E-03 0.25108064E+02</pdfrwt>
<totfact> 0.41141769E+07</totfact>
</mgrwt>
</event>
<event>
 4    1  0.4505197E+006  0.2579329E+02  0.7546771E-02  0.1649862E+00
         21   -1    0    0  503  501  0.00000000000E+00  0.00000000000E+00  0.18619884978E+03  0.18619884978E+03  0.00000000000E+00 0.  1.
         21   -1    0    0  501  502 -0.00000000000E+00 -0.00000000000E+00 -0.10697248265E+02  0.10697248265E+02  0.00000000000E+00 0. -1.
         21    1    1    2  503  504  0.60034025133E+01 -0.25084917587E+02  0.16809225865E+03  0.17005969937E+03  0.00000000000E+00 0.  1.
         21    1    1    2  504  502 -0.60034025133E+01  0.25084917587E+02  0.74093428660E+01  0.26836398674E+02  0.00000000000E+00 0. -1.
<mgrwt>
<rscale>  2 0.25793292E+02</rscale>
<asrwt>0</asrwt>
<pdfrwt beam="1">  1       21 0.28645975E-01 0.25793292E+02</pdfrwt>
<pdfrwt beam="2">  1       21 0.16457306E-02 0.25793292E+02</pdfrwt>
<totfact> 0.15662661E+07</totfact>
</mgrwt>
</event>
<event>
 4    1  0.4505197E+006  0.2984637E+02  0.7546771E-02  0.1599793E+00
         21   -1    0    0  504  501  0.00000000000E+00  0.00000000000E+00  0.23491177624E+03  0.23491177624E+03  0.00000000000E+00 0. -1.
         21   -1    0    0  503  502 -0.00000000000E+00 -0.00000000000E+00 -0.16205802934E+02  0.16205802934E+02  0.00000000000E+00 0.  1.
         21    1    1    2  503  501  0.21530424600E+01  0.29768609209E+02  0.21924414736E+03  0.22126635948E+03  0.00000000000E+00 0. -1.
         21    1    1    2  504  502 -0.21530424600E+01 -0.29768609209E+02 -0.53817405203E+00  0.29851219696E+02  0.00000000000E+00 0.  1.
<mgrwt>
<rscale>  2 0.29846368E+02</rscale>
<asrwt>0</asrwt>
<pdfrwt beam="1">  1       21 0.36140271E-01 0.29846368E+02</pdfrwt>
<pdfrwt beam="2">  1       21 0.24932006E-02 0.29846368E+02</pdfrwt>
<totfact> 0.54926029E+06</totfact>
</mgrwt>
</event>
<event>
 4    1  0.4505197E+006  0.2118177E+02  0.7546771E-02  0.1722799E+00
         21   -1    0    0  503  501  0.00000000000E+00  0.00000000000E+00  0.37572331240E+03  0.37572331240E+03  0.00000000000E+00 0. -1.
         21   -1    0    0  504  502 -0.00000000000E+00 -0.00000000000E+00 -0.45000588127E+02  0.45000588127E+02  0.00000000000E+00 0. -1.
         21    1    1    2  503  502  0.13522651444E+02 -0.16303535002E+02 -0.42190722443E+02  0.47209367883E+02  0.00000000000E+00 0. -1.
         21    1    1    2  504  501 -0.13522651444E+02  0.16303535002E+02  0.37291344671E+03  0.37351453264E+03  0.00000000000E+00 0. -1.
<mgrwt>
<rscale>  2 0.21181769E+02</rscale>
<asrwt>0</asrwt>
<pdfrwt beam="1">  1       21 0.57803584E-01 0.21181769E+02</pdfrwt>
<pdfrwt beam="2">  1       21 0.69231677E-02 0.21181769E+02</pdfrwt>
<totfact> 0.42520152E+05</totfact>
</mgrwt>
</event>
<event>
 4    1  0.4505197E+006  0.3889508E+02  0.7546771E-02  0.1516504E+00
         21   -1    0    0  502  501  0.00000000000E+00  0.00000000000E+00  0.22387591956E+01  0.22387591956E+01  0.00000000000E+00 0. -1.
         21   -1    0    0  503  502 -0.00000000000E+00 -0.00000000000E+00 -0.12486301683E+04  0.12486301683E+04  0.00000000000E+00 0.  1.
         21    1    1    2  503  504 -0.37815716491E+02  0.90993972298E+01 -0.10468378662E+04  0.10475601871E+04  0.00000000000E+00 0.  1.
         21    1    1    2  504  501  0.37815716491E+02 -0.90993972298E+01 -0.19955354287E+03  0.20330874039E+03  0.00000000000E+00 0. -1.
<mgrwt>
<rscale>  2 0.38895083E+02</rscale>
<asrwt>0</asrwt>
<pdfrwt beam="1">  1       21 0.34442369E-03 0.38895083E+02</pdfrwt>
<pdfrwt beam="2">  1       21 0.19209740E+00 0.38895083E+02</pdfrwt>
<totfact> 0.29897841E+06</totfact>
</mgrwt>
</event>
<event>
 4    1  0.4505197E+006  0.2029276E+02  0.7546771E-02  0.1739568E+00
         21   -1    0    0  504  501  0.00000000000E+00  0.00000000000E+00  0.28555984463E+02  0.28555984463E+02  0.00000000000E+00 0. -1.
         21   -1    0    0  503  502 -0.00000000000E+00 -0.00000000000E+00 -0.14685735786E+02  0.14685735786E+02  0.00000000000E+00 0. -1.
         21    1    1    2  503  501  0.65039391202E+01 -0.19222253214E+02  0.40303842540E+01  0.20689133378E+02  0.00000000000E+00 0. -1.
         21    1    1    2  504  502 -0.65039391202E+01  0.19222253214E+02  0.98398644223E+01  0.22552586871E+02  0.00000000000E+00 0. -1.
<mgrwt>
<rscale>  2 0.20292763E+02</rscale>
<asrwt>0</asrwt>
<pdfrwt beam="1">  1       21 0.43932284E-02 0.20292763E+02</pdfrwt>
<pdfrwt beam="2">  1       21 0.22593440E-02 0.20292763E+02</pdfrwt>
<totfact> 0.20972162E+08</totfact>
</mgrwt>
</event>
<event>
 4    1  0.4505197E+006  0.2018066E+02  0.7546771E-02  0.1741759E+00
         21   -1    0    0  502  501  0.00000000000E+00  0.00000000000E+00  0.24215918131E+02  0.24215918131E+02  0.00000000000E+00 0.  1.
         21   -1    0    0  503  502 -0.00000000000E+00 -0.00000000000E+00 -0.34646319510E+02  0.34646319510E+02  0.00000000000E+00 0.  1.
         21    1    1    2  503  504 -0.19587701456E+02 -0.48560251434E+01 -0.26327502093E+02  0.33172223245E+02  0.00000000000E+00 0.  1.
         21    1    1    2  504  501  0.19587701456E+02  0.48560251434E+01  0.15897100714E+02  0.25690014396E+02  0.00000000000E+00 0.  1.
<mgrwt>
<rscale>  2 0.20180660E+02</rscale>
<asrwt>0</asrwt>
<pdfrwt beam="1">  1       21 0.37255259E-02 0.20180660E+02</pdfrwt>
<pdfrwt beam="2">  1       21 0.53302030E-02 0.20180660E+02</pdfrwt>
<totfact> 0.71114875E+07</totfact>
</mgrwt>
</event>
<event>
 4    1  0.4505197E+006  0.3664461E+02  0.7546771E-02  0.1534463E+00
         21   -1    0    0  504  501  0.00000000000E+00  0.00000000000E+00  0.64113710161E+02  0.64113710161E+02  0.00000000000E+00 0.  1.
         21   -1    0    0  503  502 -0.00000000000E+00 -0.00000000000E+00 -0.30109545373E+02  0.30109545373E+02  0.00000000000E+00 0. -1.
         21    1    1    2  503  501  0.27877568599E+02  0.23783788431E+02  0.42994347380E+02  0.56491958098E+02  0.00000000000E+00 0.  1.
         21    1    1    2  504  502 -0.27877568599E+02 -0.23783788431E+02 -0.89901825919E+01  0.37731297435E+02  0.00000000000E+00 0. -1.
<mgrwt>
<rscale>  2 0.36644610E+02</rscale>
<asrwt>0</asrwt>
<pdfrwt beam="1">  1       21 0.98636476E-02 0.36644610E+02</pdfrwt>
<pdfrwt beam="2">  1       21 0.46322378E-02 0.36644610E+02</pdfrwt>
<totfact> 0.21074825E+07</totfact>
</mgrwt>
</event>
<event>
 4    1  0.4505197E+006  0.4987625E+02  0.7546771E-02  0.1446010E+00
         21   -1    0    0  504  501  0.00000000000E+00  0.00000000000E+00  0.14878672045E+03  0.14878672045E+03  0.00000000000E+00 0.  1.
         21   -1    0    0  503  502 -0.00000000000E+00 -0.00000000000E+00 -0.26381028495E+03  0.26381028495E+03  0.00000000000E+00 0.  1.
         21    1    1    2  503  501 -0.24948309955E+02  0.43188214149E+02 -0.25716599868E+03  0.26195799451E+03  0.00000000000E+00 0.  1.
         21    1    1    2  504  502  0.24948309955E+02 -0.43188214149E+02  0.14214243418E+03  0.15063901090E+03  0.00000000000E+00 0.  1.
<mgrwt>
<rscale>  2 0.49876247E+02</rscale>
<asrwt>0</asrwt>
<pdfrwt beam="1">  1       21 0.22890265E-01 0.49876247E+02</pdfrwt>
<pdfrwt beam="2">  1       21 0.40586197E-01 0.49876247E+02</pdfrwt>
<totfact> 0.11163399E+05</totfact>
</mgrwt>
</event>
<event>
 4    1  0.4505197E+006  0.2020401E+02  0.7546771E-02  0.1741301E+00
         21   -1    0    0  504  501  0.00000000000E+00  0.00000000000E+00  0.22198166707E+02  0.22198166707E+02  0.00000000000E+00 0. -1.
         21   -1    0    0  501  502 -0.00000000000E+00 -0.00000000000E+00 -0.35319668826E+02  0.35319668826E+02  0.00000000000E+00 0. -1.
         21    1    1    2  503  502  0.17377805965E+02 -0.10306016967E+02 -0.26472126569E+02  0.33301285425E+02  0.00000000000E+00 0. -1.
         21    1    1    2  504  503 -0.17377805965E+02  0.10306016967E+02  0.13350624450E+02  0.24216550107E+02  0.00000000000E+00 0. -1.
<mgrwt>
<rscale>  2 0.20204013E+02</rscale>
<asrwt>0</asrwt>
<pdfrwt beam="1">  1       21 0.34151026E-02 0.20204013E+02</pdfrwt>
<pdfrwt beam="2">  1       21 0.54337952E-02 0.20204013E+02</pdfrwt>
<totfact> 0.79026767E+07</totfact>
</mgrwt>
</event>
<event>
 4    1  0.4505197E+006  0.2708603E+02  0.7546771E-02  0.1632729E+00
         21   -1    0    0  503  501  0.00000000000E+00  0.00000000000E+00  0.49333717403E+02  0.49333717403E+02  0.00000000000E+00 0.  1.
         21   -1    0    0  504  502 -0.00000000000E+00 -0.00000000000E+00 -0.16172527726E+02  0.16172527726E+02  0.00000000000E+00 0.  1.
         21    1    1    2  503  502 -0.24143608346E+02  0.12277591746E+02  0.25871371276E+02  0.37456387102E+02  0.00000000000E+00 0.  1.
         21    1    1    2  504  501  0.24143608346E+02 -0.12277591746E+02  0.72898184002E+01  0.28049858027E+02  0.00000000000E+00 0.  1.
<mgrwt>
<rscale>  2 0.27086031E+02</rscale>
<asrwt>0</asrwt>
<pdfrwt beam="1">  1       21 0.75898026E-02 0.27086031E+02</pdfrwt>
<pdfrwt beam="2">  1       21 0.24880812E-02 0.27086031E+02</pdfrwt>
<totfact> 0.81737325E+07</totfact>
</mgrwt>
</event>
<event>
 4    1  0.4505197E+006  0.2042180E+02  0.7546771E-02  0.1737068E+00
         21   -1    0    0  502  501  0.00000000000E+00  0.00000000000E+00  0.35779880458E+02  0.35779880458E+02  0.00000000000E+00 0. -1.
         21   -1    0    0  504  502 -0.00000000000E+00 -0.00000000000E+00 -0.16141454187E+03  0.16141454187E+03  0.00000000000E+00 0. -1.
         21    1    1    2  503  501 -0.19833758597E+02 -0.48653625108E+01  0.32153257103E+02  0.38090440727E+02  0.00000000000E+00 0. -1.
         21    1    1    2  504  503  0.19833758597E+02  0.48653625108E+01 -0.15778791851E+03  0.15910398160E+03  0.00000000000E+00 0. -1.
<mgrwt>
<rscale>  2 0.20421796E+02</rscale>
<asrwt>0</asrwt>
<pdfrwt beam="1">  1       21 0.55045971E-02 0.20421796E+02</pdfrwt>
<pdfrwt beam="2">  1       21 0.24833006E-01 0.20421796E+02</pdfrwt>
<totfact> 0.29620631E+06</totfact>
</mgrwt>
</event>
<event>
 4    1  0.4505197E+006  0.2080694E+02  0.7546771E-02  0.1729741E+00
         21   -1    0    0  504  501  0.00000000000E+00  0.00000000000E+00  0.24098449174E+02  0.24098449174E+02  0.00000000000E+00 0.  1.
         21   -1    0    0  501  502 -0.00000000000E+00 -0.00000000000E+00 -0.33115080970E+03  0.33115080970E+03  0.00000000000E+00 0.  1.
         21    1    1    2  503  502 -0.14407806060E+02 -0.15011457397E+02 -0.32626554169E+03  0.32692832918E+03  0.00000000000E+00 0.  1.
         21    1    1    2  504  503  0.14407806060E+02  0.15011457397E+02  0.19213181157E+02  0.28320929696E+02  0.00000000000E+00 0.  1.
<mgrwt>
<rscale>  2 0.20806939E+02</rscale>
<asrwt>0</asrwt>
<pdfrwt beam="1">  1       21 0.37074539E-02 0.20806939E+02</pdfrwt>
<pdfrwt beam="2">  1       21 0.50946277E-01 0.20806939E+02</pdfrwt>
<totfact> 0.14655633E+06</totfact>
</mgrwt>
</event>
<event>
 4    1  0.4505197E+006  0.3044673E+02  0.7546771E-02  0.1593202E+00
         21   -1    0    0  504  501  0.00000000000E+00  0.00000000000E+00  0.68084138414E+02  0.68084138414E+02  0.00000000000E+00 0. -1.
         21   -1    0    0  503  502 -0.00000000000E+00 -0.00000000000E+00 -0.13905616625E+02  0.13905616625E+02  0.00000000000E+00 0. -1.
         21    1    1    2  503  501 -0.22149805738E+02 -0.20889943742E+02  0.33010003317E+02  0.44907281846E+02  0.00000000000E+00 0. -1.
         21    1    1    2  504  502  0.22149805738E+02  0.20889943742E+02  0.21168518472E+02  0.37082473193E+02  0.00000000000E+00 0. -1.
<mgrwt>
<rscale>  2 0.30446735E+02</rscale>
<asrwt>0</asrwt>
<pdfrwt beam="1">  1       21 0.10474483E-01 0.30446735E+02</pdfrwt>
<pdfrwt beam="2">  1       21 0.21393257E-02 0.30446735E+02</pdfrwt>
<totfact> 0.62344344E+07</totfact>
</mgrwt>
</event>
<event>
 4    1  0.4505197E+006  0.2120095E+02  0.7546771E-02  0.1722449E+00
         21   -1    0    0  504  501  0.00000000000E+00  0.00000000000E+00  0.49129564226E+01  0.49129564226E+01  0.00000000000E+00 0.  1.
         21   -1    0    0  503  502 -0.00000000000E+00 -0.00000000000E+00 -0.21935008393E+03  0.21935008393E+03  0.00000000000E+00 0.  1.
         21    1    1    2  503  501  0.24220017123E+01  0.21062146284E+02 -0.21607780075E+02  0.30271707222E+02  0.00000000000E+00 0.  1.
         21    1    1    2  504  502 -0.24220017123E+01 -0.21062146284E+02 -0.19282934744E+03  0.19399133313E+03  0.00000000000E+00 0.  1.
<mgrwt>
<rscale>  2 0.21200946E+02</rscale>
<asrwt>0</asrwt>
<pdfrwt beam="1">  1       21 0.75583975E-03 0.21200946E+02</pdfrwt>
<pdfrwt beam="2">  1       21 0.33746153E-01 0.21200946E+02</pdfrwt>
<totfact> 0.35978862E+07</totfact>
</mgrwt>
</event>
<event>
 4    1  0.4505197E+006  0.2851206E+02  0.7546771E-02  0.1615143E+00
         21   -1    0    0  504  501  0.00000000000E+00  0.00000000000E+00  0.30528983901E+03  0.30528983901E+03  0.00000000000E+00 0.  1.
         21   -1    0    0  503  502 -0.00000000000E+00 -0.00000000000E+00 -0.42602611205E+01  0.42602611205E+01  0.00000000000E+00 0. -1.
         21    1    1    2  503  501  0.28181565860E+02  0.43286255375E+01  0.24528955192E+03  0.24694109001E+03  0.00000000000E+00 0.  1.
         21    1    1    2  504  502 -0.28181565860E+02 -0.43286255375E+01  0.55740025967E+02  0.62609010120E+02  0.00000000000E+00 0. -1.
<mgrwt>
<rscale>  2 0.28512062E+02</rscale>
<asrwt>0</asrwt>
<pdfrwt beam="1">  1       21 0.46967650E-01 0.28512062E+02</pdfrwt>
<pdfrwt beam="2">  1       21 0.65542503E-03 0.28512062E+02</pdfrwt>
<totfact> 0.25386136E+07</totfact>
</mgrwt>
</event>
<event>
 4    1  0.4505197E+006  0.3627664E+02  0.7546771E-02  0.1537547E+00
         21   -1    0    0  504  501  0.00000000000E+00  0.00000000000E+00  0.25914558854E+02  0.25914558854E+02  0.00000000000E+00 0.  1.
         21   -1    0    0  503  502 -0.00000000000E+00 -0.00000000000E+00 -0.67276776089E+02  0.67276776089E+02  0.00000000000E+00 0.  1.
         21    1    1    2  503  501  0.21803467763E+02 -0.28993165004E+02  0.23908945255E+01  0.36355346238E+02  0.00000000000E+00 0.  1.
         21    1    1    2  504  502 -0.21803467763E+02  0.28993165004E+02 -0.43753111760E+02  0.56835988705E+02  0.00000000000E+00 0.  1.
<mgrwt>
<rscale>  2 0.36276643E+02</rscale>
<asrwt>0</asrwt>
<pdfrwt beam="1">  1       21 0.39868553E-02 0.36276643E+02</pdfrwt>
<pdfrwt beam="2">  1       21 0.10350273E-01 0.36276643E+02</pdfrwt>
<totfact> 0.24691557E+07</totfact>
</mgrwt>
</event>
<event>
 4    1  0.4505197E+006  0.2107537E+02  0.7546771E-02  0.1724752E+00
         21   -1    0    0  503  501  0.00000000000E+00  0.00000000000E+00  0.18894143034E+01  0.18894143034E+01  0.00000000000E+00 0.  1.
         21   -1    0    0  501  502 -0.00000000000E+00 -0.00000000000E+00 -0.50417682294E+03  0.50417682294E+03  0.00000000000E+00 0.  1.
         21    1    1    2  503  504  0.17641442101E+02 -0.11530431728E+02 -0.66286289805E+02  0.69556046116E+02  0.00000000000E+00 0.  1.
         21    1    1    2  504  502 -0.17641442101E+02  0.11530431728E+02 -0.43600111883E+03  0.43651019113E+03  0.00000000000E+00 0.  1.
<mgrwt>
<rscale>  2 0.21075373E+02</rscale>
<asrwt>0</asrwt>
<pdfrwt beam="1">  1       21 0.29067873E-03 0.21075373E+02</pdfrwt>
<pdfrwt beam="2">  1       21 0.77565771E-01 0.21075373E+02</pdfrwt>
<totfact> 0.28891848E+07</totfact>
</mgrwt>
</event>
<event>
 4    1  0.4505197E+006  0.2124322E+02  0.7546771E-02  0.1721679E+00
         21   -1    0    0  503  501  0.00000000000E+00  0.00000000000E+00  0.44960737378E+00  0.44960737378E+00  0.00000000000E+00 0.  1.
         21   -1    0    0  504  502 -0.00000000000E+00 -0.00000000000E+00 -0.10481097307E+04  0.10481097307E+04  0.00000000000E+00 0.  1.
         21    1    1    2  503  502  0.20880007572E+02  0.39114593940E+01 -0.63174031507E+03  0.63209738167E+03  0.00000000000E+00 0.  1.
         21    1    1    2  504  501 -0.20880007572E+02 -0.39114593940E+01 -0.41591980824E+03  0.41646195639E+03  0.00000000000E+00 0.  1.
<mgrwt>
<rscale>  2 0.21243216E+02</rscale>
<asrwt>0</asrwt>
<pdfrwt beam="1">  1       21 0.69170954E-04 0.21243216E+02</pdfrwt>
<pdfrwt beam="2">  1       21 0.16124628E+00 0.21243216E+02</pdfrwt>
<totfact> 0.44152873E+07</totfact>
</mgrwt>
</event>
<event>
 4    1  0.4505197E+006  0.2136637E+02  0.7546771E-02  0.1719446E+00
         21   -1    0    0  504  501  0.00000000000E+00  0.00000000000E+00  0.54131460935E+02  0.54131460935E+02  0.00000000000E+00 0. -1.
         21   -1    0    0  503  502 -0.00000000000E+00 -0.00000000000E+00 -0.40728516951E+02  0.40728516951E+02  0.00000000000E+00 0. -1.
         21    1    1    2  503  501  0.20202228771E+02 -0.69564151654E+01 -0.35533379983E+02  0.41462547585E+02  0.00000000000E+00 0. -1.
         21    1    1    2  504  502 -0.20202228771E+02  0.69564151654E+01  0.48936323967E+02  0.53397430300E+02  0.00000000000E+00 0. -1.
<mgrwt>
<rscale>  2 0.21366370E+02</rscale>
<asrwt>0</asrwt>
<pdfrwt beam="1">  1       21 0.83279171E-02 0.21366370E+02</pdfrwt>
<pdfrwt beam="2">  1       21 0.62659256E-02 0.21366370E+02</pdfrwt>
<totfact> 0.15450364E+07</totfact>
</mgrwt>
</event>
<event>
 4    1  0.4505197E+006  0.2101619E+02  0.7546771E-02  0.1725844E+00
         21   -1    0    0  502  501  0.00000000000E+00  0.00000000000E+00  0.71284838348E+01  0.71284838348E+01  0.00000000000E+00 0.  1.
         21   -1    0    0  504  502 -0.00000000000E+00 -0.00000000000E+00 -0.80788662270E+03  0.80788662270E+03  0.00000000000E+00 0.  1.
         21    1    1    2  503  501  0.18074526476E+02  0.10723411166E+02 -0.88098537965E+01  0.22788013917E+02  0.00000000000E+00 0.  1.
         21    1    1    2  504  503 -0.18074526476E+02 -0.10723411166E+02 -0.79194828507E+03  0.79222709262E+03  0.00000000000E+00 0.  1.
<mgrwt>
<rscale>  2 0.21016186E+02</rscale>
<asrwt>0</asrwt>
<pdfrwt beam="1">  1       21 0.10966905E-02 0.21016186E+02</pdfrwt>
<pdfrwt beam="2">  1       21 0.12429017E+00 0.21016186E+02</pdfrwt>
<totfact> 0.14631672E+06</totfact>
</mgrwt>
</event>
<event>
 4    1  0.4505197E+006  0.2599907E+02  0.7546771E-02  0.1647053E+00
         21   -1    0    0  504  501  0.00000000000E+00  0.00000000000E+00  0.18747485143E+02  0.18747485143E+02  0.00000000000E+00 0. -1.
         21   -1    0    0  501  502 -0.00000000000E+00 -0.00000000000E+00 -0.92702192075E+02  0.92702192075E+02  0.00000000000E+00 0.  1.
         21    1    1    2  503  502  0.23919912270E+02  0.10187701517E+02 -0.80537645709E+02  0.84630159173E+02  0.00000000000E+00 0.  1.
         21    1    1    2  504  503 -0.23919912270E+02 -0.10187701517E+02  0.65829387780E+01  0.26819518045E+02  0.00000000000E+00 0. -1.
<mgrwt>
<rscale>  2 0.25999067E+02</rscale>
<asrwt>0</asrwt>
<pdfrwt beam="1">  1       21 0.28842285E-02 0.25999067E+02</pdfrwt>
<pdfrwt beam="2">  1       21 0.14261876E-01 0.25999067E+02</pdfrwt>
<totfact> 0.22443919E+07</totfact>
</mgrwt>
</event>
<event>
 4    1  0.4505197E+006  0.2138771E+02  0.7546771E-02  0.1719062E+00
         21   -1    0    0  504  501  0.00000000000E+00  0.00000000000E+00  0.37958623590E+02  0.37958623590E+02  0.00000000000E+00 0.  1.
         21   -1    0    0  503  502 -0.00000000000E+00 -0.00000000000E+00 -0.16182159169E+02  0.16182159169E+02  0.00000000000E+00 0. -1.
         21    1    1    2  503  501 -0.19913958072E+02  0.78018119603E+01  0.24566141214E+02  0.32571909526E+02  0.00000000000E+00 0.  1.
         21    1    1    2  504  502  0.19913958072E+02 -0.78018119603E+01 -0.27896767933E+01  0.21568873234E+02  0.00000000000E+00 0. -1.
<mgrwt>
<rscale>  2 0.21387707E+02</rscale>
<asrwt>0</asrwt>
<pdfrwt beam="1">  1       21 0.58397882E-02 0.21387707E+02</pdfrwt>
<pdfrwt beam="2">  1       21 0.24895630E-02 0.21387707E+02</pdfrwt>
<totfact> 0.11690405E+08</totfact>
</mgrwt>
</event>
<event>
 4    1  0.4505197E+006  0.2478402E+02  0.7546771E-02  0.1664124E+00
         21   -1    0    0  503  501  0.00000000000E+00  0.00000000000E+00  0.15236358922E+03  0.15236358922E+03  0.00000000000E+00 0.  1.
         21   -1    0    0  504  502 -0.00000000000E+00 -0.00000000000E+00 -0.31169073237E+02  0.31169073237E+02  0.00000000000E+00 0.  1.
         21    1    1    2  503  502 -0.23300386104E+02  0.84462900273E+01 -0.25029054986E+02  0.35223591544E+02  0.00000000000E+00 0.  1.
         21    1    1    2  504  501  0.23300386104E+02 -0.84462900273E+01  0.14622357097E+03  0.14830907091E+03  0.00000000000E+00 0.  1.
<mgrwt>
<rscale>  2 0.24784023E+02</rscale>
<asrwt>0</asrwt>
<pdfrwt beam="1">  1       21 0.23440552E-01 0.24784023E+02</pdfrwt>
<pdfrwt beam="2">  1       21 0.47952421E-02 0.24784023E+02</pdfrwt>
<totfact> 0.42076394E+06</totfact>
</mgrwt>
</event>
<event>
 4    1  0.4505197E+006  0.2261472E+02  0.7546771E-02  0.1697833E+00
         21   -1    0    0  504  501  0.00000000000E+00  0.00000000000E+00  0.17173054922E+03  0.17173054922E+03  0.00000000000E+00 0.  1.
         21   -1    0    0  503  502 -0.00000000000E+00 -0.00000000000E+00 -0.41331549255E+02  0.41331549255E+02  0.00000000000E+00 0.  1.
         21    1    1    2  503  501  0.18562151345E+02  0.12917904163E+02  0.16782085436E+03  0.16933772429E+03  0.00000000000E+00 0.  1.
         21    1    1    2  504  502 -0.18562151345E+02 -0.12917904163E+02 -0.37421854400E+02  0.43724374178E+02  0.00000000000E+00 0.  1.
<mgrwt>
<rscale>  2 0.22614723E+02</rscale>
<asrwt>0</asrwt>
<pdfrwt beam="1">  1       21 0.26420084E-01 0.22614723E+02</pdfrwt>
<pdfrwt beam="2">  1       21 0.63587000E-02 0.22614723E+02</pdfrwt>
<totfact> 0.21353167E+06</totfact>
</mgrwt>
</event>
<event>
 4    1  0.4505197E+006  0.2144563E+02  0.7546771E-02  0.1718020E+00
         21   -1    0    0  503  501  0.00000000000E+00  0.00000000000E+00  0.72019080610E+01  0.72019080610E+01  0.00000000000E+00 0. -1.
         21   -1    0    0  504  502 -0.00000000000E+00 -0.00000000000E+00 -0.72455950658E+02  0.72455950658E+02  0.00000000000E+00 0. -1.
         21    1    1    2  503  502 -0.20664842501E+02 -0.57340424620E+01 -0.18908583225E+02  0.28591073399E+02  0.00000000000E+00 0. -1.
         21    1    1    2  504  501  0.20664842501E+02  0.57340424620E+01 -0.46345459372E+02  0.51066785320E+02  0.00000000000E+00 0. -1.
<mgrwt>
<rscale>  2 0.21445628E+02</rscale>
<asrwt>0</asrwt>
<pdfrwt beam="1">  1       21 0.11079859E-02 0.21445628E+02</pdfrwt>
<pdfrwt beam="2">  1       21 0.11147069E-01 0.21445628E+02</pdfrwt>
<totfact> 0.13990820E+08</totfact>
</mgrwt>
</event>
<event>
 4    1  0.4505197E+006  0.2010488E+02  0.7546771E-02  0.1743250E+00
         21   -1    0    0  502  501  0.00000000000E+00  0.00000000000E+00  0.93267703921E+01  0.93267703921E+01  0.00000000000E+00 0.  1.
         21   -1    0    0  503  502 -0.00000000000E+00 -0.00000000000E+00 -0.58481331895E+02  0.58481331895E+02  0.00000000000E+00 0.  1.
         21    1    1    2  503  504  0.50508131390E+01  0.19460096786E+02 -0.41829693353E+02  0.46410444151E+02  0.00000000000E+00 0.  1.
         21    1    1    2  504  501 -0.50508131390E+01 -0.19460096786E+02 -0.73248681501E+01  0.21397658136E+02  0.00000000000E+00 0.  1.
<mgrwt>
<rscale>  2 0.20104877E+02</rscale>
<asrwt>0</asrwt>
<pdfrwt beam="1">  1       21 0.14348878E-02 0.20104877E+02</pdfrwt>
<pdfrwt beam="2">  1       21 0.89971280E-02 0.20104877E+02</pdfrwt>
<totfact> 0.13226878E+08</totfact>
</mgrwt>
</event>
<event>
 4    1  0.4505197E+006  0.2197915E+02  0.7546771E-02  0.1708613E+00
         21   -1    0    0  503  501  0.00000000000E+00  0.00000000000E+00  0.32514624086E+01  0.32514624086E+01  0.00000000000E+00 0. -1.
         21   -1    0    0  504  502 -0.00000000000E+00 -0.00000000000E+00 -0.17627092010E+03  0.17627092010E+03  0.00000000000E+00 0. -1.
         21    1    1    2  503  502 -0.77504476619E+01 -0.20567299045E+02 -0.50929157423E+02  0.55469471827E+02  0.00000000000E+00 0. -1.
         21    1    1    2  504  501  0.77504476619E+01  0.20567299045E+02 -0.12209030027E+03  0.12405291068E+03  0.00000000000E+00 0. -1.
<mgrwt>
<rscale>  2 0.21979154E+02</rscale>
<asrwt>0</asrwt>
<pdfrwt beam="1">  1       21 0.50022484E-03 0.21979154E+02</pdfrwt>
<pdfrwt beam="2">  1       21 0.27118611E-01 0.21979154E+02</pdfrwt>
<totfact> 0.99467774E+07</totfact>
</mgrwt>
</event>
<event>
 4    1  0.4505197E+006  0.2212107E+02  0.7546771E-02  0.1706167E+00
         21   -1    0    0  502  501  0.00000000000E+00  0.00000000000E+00  0.35501674035E+03  0.35501674035E+03  0.00000000000E+00 0. -1.
         21   -1    0    0  503  502 -0.00000000000E+00 -0.00000000000E+00 -0.31549588952E+02  0.31549588952E+02  0.00000000000E+00 0.  1.
         21    1    1    2  503  504  0.11572912262E+02  0.18852303451E+02 -0.27280287980E+02  0.35122012413E+02  0.00000000000E+00 0.  1.
         21    1    1    2  504  501 -0.11572912262E+02 -0.18852303451E+02  0.35074743938E+03  0.35144431689E+03  0.00000000000E+00 0. -1.
<mgrwt>
<rscale>  2 0.22121068E+02</rscale>
<asrwt>0</asrwt>
<pdfrwt beam="1">  1       21 0.54617957E-01 0.22121068E+02</pdfrwt>
<pdfrwt beam="2">  1       21 0.48537832E-02 0.22121068E+02</pdfrwt>
<totfact> 0.84192054E+05</totfact>
</mgrwt>
</event>
<event>
 4    1  0.4505197E+006  0.3815806E+02  0.7546771E-02  0.1522221E+00
         21   -1    0    0  503  501  0.00000000000E+00  0.00000000000E+00  0.58022917975E+01  0.58022917975E+01  0.00000000000E+00 0. -1.
         21   -1    0    0  501  502 -0.00000000000E+00 -0.00000000000E+00 -0.63323936222E+03  0.63323936222E+03  0.00000000000E+00 0.  1.
         21    1    1    2  503  504 -0.38025994135E+02  0.31719806533E+01 -0.65453264956E+02  0.75763893674E+02  0.00000000000E+00 0. -1.
         21    1    1    2  504  502  0.38025994135E+02 -0.31719806533E+01 -0.56198380547E+03  0.56327776034E+03  0.00000000000E+00 0.  1.
<mgrwt>
<rscale>  2 0.38158062E+02</rscale>
<asrwt>0</asrwt>
<pdfrwt beam="1">  1       21 0.89265999E-03 0.38158062E+02</pdfrwt>
<pdfrwt beam="2">  1       21 0.97421471E-01 0.38158062E+02</pdfrwt>
<totfact> 0.36501565E+06</totfact>
</mgrwt>
</event>
<event>
 4    1  0.4505197E+006  0.2126345E+02  0.7546771E-02  0.1721311E+00
         21   -1    0    0  504  501  0.00000000000E+00  0.00000000000E+00  0.20158283002E+03  0.20158283002E+03  0.00000000000E+00 0.  1.
         21   -1    0    0  503  502 -0.00000000000E+00 -0.00000000000E+00 -0.94272187084E+01  0.94272187084E+01  0.00000000000E+00 0.  1.
         21    1    1    2  503  501  0.21184399692E+02 -0.18317995669E+01  0.39748592817E+01  0.21631777233E+02  0.00000000000E+00 0.  1.
         21    1    1    2  504  502 -0.21184399692E+02  0.18317995669E+01  0.18818075203E+03  0.18937827150E+03  0.00000000000E+00 0.  1.
<mgrwt>
<rscale>  2 0.21263449E+02</rscale>
<asrwt>0</asrwt>
<pdfrwt beam="1">  1       21 0.31012740E-01 0.21263449E+02</pdfrwt>
<pdfrwt beam="2">  1       21 0.14503415E-02 0.21263449E+02</pdfrwt>
<totfact> 0.15809582E+07</totfact>
</mgrwt>
</event>
<event>
 4    1  0.4505197E+006  0.2792105E+02  0.7546771E-02  0.1622275E+00
         21   -1    0    0  503  501  0.00000000000E+00  0.00000000000E+00  0.42446875208E+02  0.42446875208E+02  0.00000000000E+00 0.  1.
         21   -1    0    0  504  502 -0.00000000000E+00 -0.00000000000E+00 -0.41687900538E+02  0.41687900538E+02  0.00000000000E+00 0.  1.
         21    1    1    2  503  502  0.26740620849E+02 -0.80326961620E+01 -0.31085042945E+02  0.41783548268E+02  0.00000000000E+00 0.  1.
         21    1    1    2  504  501 -0.26740620849E+02  0.80326961620E+01  0.31844017615E+02  0.42351227478E+02  0.00000000000E+00 0.  1.
<mgrwt>
<rscale>  2 0.27921050E+02</rscale>
<asrwt>0</asrwt>
<pdfrwt beam="1">  1       21 0.65302885E-02 0.27921050E+02</pdfrwt>
<pdfrwt beam="2">  1       21 0.64135232E-02 0.27921050E+02</pdfrwt>
<totfact> 0.23394770E+07</totfact>
</mgrwt>
</event>
<event>
 4    1  0.4505197E+006  0.2786807E+02  0.7546771E-02  0.1622925E+00
         21   -1    0    0  504  501  0.00000000000E+00  0.00000000000E+00  0.11905233693E+03  0.11905233693E+03  0.00000000000E+00 0. -1.
         21   -1    0    0  503  502 -0.00000000000E+00 -0.00000000000E+00 -0.65496169536E+01  0.65496169536E+01  0.00000000000E+00 0.  1.
         21    1    1    2  503  501 -0.20513082396E+02 -0.18863792748E+02  0.60222598940E+02  0.66358048866E+02  0.00000000000E+00 0.  1.
         21    1    1    2  504  502  0.20513082396E+02  0.18863792748E+02  0.52280121037E+02  0.59243905018E+02  0.00000000000E+00 0. -1.
<mgrwt>
<rscale>  2 0.27868068E+02</rscale>
<asrwt>0</asrwt>
<pdfrwt beam="1">  1       21 0.18315743E-01 0.27868068E+02</pdfrwt>
<pdfrwt beam="2">  1       21 0.10076335E-02 0.27868068E+02</pdfrwt>
<totfact> 0.74452082E+07</totfact>
</mgrwt>
</event>
<event>
 4    1  0.4505197E+006  0.2286941E+02  0.7546771E-02  0.1693636E+00
         21   -1    0    0  503  501  0.00000000000E+00  0.00000000000E+00  0.23127606157E+03  0.23127606157E+03  0.00000000000E+00 0. -1.
         21   -1    0    0  504  502 -0.00000000000E+00 -0.00000000000E+00 -0.22870102985E+01  0.22870102985E+01  0.00000000000E+00 0. -1.
         21    1    1    2  503  502  0.13652630564E+02 -0.18347082416E+02  0.10213870537E+03  0.10466768789E+03  0.00000000000E+00 0. -1.
         21    1    1    2  504  501 -0.13652630564E+02  0.18347082416E+02  0.12685034590E+03  0.12889538397E+03  0.00000000000E+00 0. -1.
<mgrwt>
<rscale>  2 0.22869407E+02</rscale>
<asrwt>0</asrwt>
<pdfrwt beam="1">  1       21 0.35580914E-01 0.22869407E+02</pdfrwt>
<pdfrwt beam="2">  1       21 0.35184792E-03 0.22869407E+02</pdfrwt>
<totfact> 0.10265507E+08</totfact>
</mgrwt>
</event>
<event>
 4    1  0.4505197E+006  0.2117907E+02  0.7546771E-02  0.1722849E+00
         21   -1    0    0  504  501  0.00000000000E+00  0.00000000000E+00  0.23571665700E+03  0.23571665700E+03  0.00000000000E+00 0. -1.
         21   -1    0    0  503  502 -0.00000000000E+00 -0.00000000000E+00 -0.22371921563E+01  0.22371921563E+01  0.00000000000E+00 0. -1.
         21    1    1    2  503  501  0.25045339669E+01  0.21030462213E+02  0.70750868705E+02  0.73852816154E+02  0.00000000000E+00 0. -1.
         21    1    1    2  504  502 -0.25045339669E+01 -0.21030462213E+02  0.16272859614E+03  0.16410103300E+03  0.00000000000E+00 0. -1.
<mgrwt>
<rscale>  2 0.21179071E+02</rscale>
<asrwt>0</asrwt>
<pdfrwt beam="1">  1       21 0.36264081E-01 0.21179071E+02</pdfrwt>
<pdfrwt beam="2">  1       21 0.34418359E-03 0.21179071E+02</pdfrwt>
<totfact> 0.10023397E+08</totfact>
</mgrwt>
</event>
<event>
 4    1  0.4505197E+006  0.2021926E+02  0.7546771E-02  0.1741003E+00
         21   -1    0    0  504  501  0.00000000000E+00  0.00000000000E+00  0.73487006632E+01  0.73487006632E+01  0.00000000000E+00 0.  1.
         21   -1    0    0  501  502 -0.00000000000E+00 -0.00000000000E+00 -0.15774190723E+03  0.15774190723E+03  0.00000000000E+00 0. -1.
         21    1    1    2  503  502 -0.13468246924E+02  0.15080605187E+02 -0.14160975575E+03  0.14304594105E+03  0.00000000000E+00 0. -1.
         21    1    1    2  504  503  0.13468246924E+02 -0.15080605187E+02 -0.87834508228E+01  0.22044666847E+02  0.00000000000E+00 0.  1.
<mgrwt>
<rscale>  2 0.20219256E+02</rscale>
<asrwt>0</asrwt>
<pdfrwt beam="1">  1       21 0.11305694E-02 0.20219256E+02</pdfrwt>
<pdfrwt beam="2">  1       21 0.24267985E-01 0.20219256E+02</pdfrwt>
<totfact> 0.35312555E+07</totfact>
</mgrwt>
</event>
<event>
 4    1  0.4505197E+006  0.2307304E+02  0.7546771E-02  0.1690329E+00
         21   -1    0    0  503  501  0.00000000000E+00  0.00000000000E+00  0.98078795854E+01  0.98078795854E+01  0.00000000000E+00 0.  1.
         21   -1    0    0  504  502 -0.00000000000E+00 -0.00000000000E+00 -0.68429657001E+02  0.68429657001E+02  0.00000000000E+00 0. -1.
         21    1    1    2  503  502  0.12907529662E+02 -0.19124880101E+02 -0.47099656720E+02  0.52447526385E+02  0.00000000000E+00 0. -1.
         21    1    1    2  504  501 -0.12907529662E+02  0.19124880101E+02 -0.11522120696E+02  0.25790010201E+02  0.00000000000E+00 0.  1.
<mgrwt>
<rscale>  2 0.23073044E+02</rscale>
<asrwt>0</asrwt>
<pdfrwt beam="1">  1       21 0.15089045E-02 0.23073044E+02</pdfrwt>
<pdfrwt beam="2">  1       21 0.10527640E-01 0.23073044E+02</pdfrwt>
<totfact> 0.98544648E+07</totfact>
</mgrwt>
</event>
<event>
 4    1  0.4505197E+006  0.2937264E+02  0.7546771E-02  0.1605129E+00
         21   -1    0    0  504  501  0.00000000000E+00  0.00000000000E+00  0.19081146874E+03  0.19081146874E+03  0.00000000000E+00 0. -1.
         21   -1    0    0  503  502 -0.00000000000E+00 -0.00000000000E+00 -0.83247665770E+01  0.83247665770E+01  0.00000000000E+00 0. -1.
         21    1    1    2  503  501  0.15084143044E+01 -0.29333883700E+02  0.23943632370E+02  0.37895244790E+02  0.00000000000E+00 0. -1.
         21    1    1    2  504  502 -0.15084143044E+01  0.29333883700E+02  0.15854306980E+03  0.16124099053E+03  0.00000000000E+00 0. -1.
<mgrwt>
<rscale>  2 0.29372641E+02</rscale>
<asrwt>0</asrwt>
<pdfrwt beam="1">  1       21 0.29355607E-01 0.29372641E+02</pdfrwt>
<pdfrwt beam="2">  1       21 0.12807335E-02 0.29372641E+02</pdfrwt>
<totfact> 0.22520602E+07</totfact>
</mgrwt>
</event>
<event>
 4    1  0.4505197E+006  0.2445761E+02  0.7546771E-02  0.1668917E+00
         21   -1    0    0  503  501  0.00000000000E+00  0.00000000000E+00  0.97184857022E+01  0.97184857022E+01  0.00000000000E+00 0. -1.
         21   -1    0    0  504  502 -0.00000000000E+00 -0.00000000000E+00 -0.61635115930E+02  0.61635115930E+02  0.00000000000E+00 0.  1.
         21    1    1    2  503  502  0.21398576381E+02 -0.11843797830E+02 -0.24633979414E+02  0.34713218807E+02  0.00000000000E+00 0.  1.
         21    1    1    2  504  501 -0.21398576381E+02  0.11843797830E+02 -0.27282650814E+02  0.36640382826E+02  0.00000000000E+00 0. -1.
<mgrwt>
<rscale>  2 0.24457609E+02</rscale>
<asrwt>0</asrwt>
<pdfrwt beam="1">  1       21 0.14951516E-02 0.24457609E+02</pdfrwt>
<pdfrwt beam="2">  1       21 0.94823255E-02 0.24457609E+02</pdfrwt>
<totfact> 0.12082145E+08</totfact>
</mgrwt>
</event>
<event>
 4    1  0.4505197E+006  0.2445023E+02  0.7546771E-02  0.1669026E+00
         21   -1    0    0  503  501  0.00000000000E+00  0.00000000000E+00  0.20241798113E+02  0.20241798113E+02  0.00000000000E+00 0.  1.
         21   -1    0    0  504  502 -0.00000000000E+00 -0.00000000000E+00 -0.37648964657E+02  0.37648964657E+02  0.00000000000E+00 0.  1.
         21    1    1    2  503  502  0.19995420434E+02  0.14071135866E+02  0.47350799642E+01  0.24904511341E+02  0.00000000000E+00 0.  1.
         21    1    1    2  504  501 -0.19995420434E+02 -0.14071135866E+02 -0.22142246509E+02  0.32986251429E+02  0.00000000000E+00 0.  1.
<mgrwt>
<rscale>  2 0.24450229E+02</rscale>
<asrwt>0</asrwt>
<pdfrwt beam="1">  1       21 0.31141228E-02 0.24450229E+02</pdfrwt>
<pdfrwt beam="2">  1       21 0.57921484E-02 0.24450229E+02</pdfrwt>
<totfact> 0.86976816E+07</totfact>
</mgrwt>
</event>
<event>
 4    1  0.4505197E+006  0.2156449E+02  0.7546771E-02  0.1715895E+00
         21   -1    0    0  504  501  0.00000000000E+00  0.00000000000E+00  0.55423687821E+01  0.55423687821E+01  0.00000000000E+00 0.  1.
         21   -1    0    0  503  502 -0.00000000000E+00 -0.00000000000E+00 -0.24952688699E+03  0.24952688699E+03  0.00000000000E+00 0.  1.
         21    1    1    2  503  501 -0.15941149498E+02 -0.14522630391E+02 -0.18088899672E+02  0.28146675330E+02  0.00000000000E+00 0.  1.
         21    1    1    2  504  502  0.15941149498E+02  0.14522630391E+02 -0.22589561854E+03  0.22692258045E+03  0.00000000000E+00 0.  1.
<mgrwt>
<rscale>  2 0.21564486E+02</rscale>
<asrwt>0</asrwt>
<pdfrwt beam="1">  1       21 0.85267217E-03 0.21564486E+02</pdfrwt>
<pdfrwt beam="2">  1       21 0.38388750E-01 0.21564486E+02</pdfrwt>
<totfact> 0.23772140E+07</totfact>
</mgrwt>
</event>
<event>
 4    1  0.4505197E+006  0.2007684E+02  0.7546771E-02  0.1743804E+00
         21   -1    0    0  504  501  0.00000000000E+00  0.00000000000E+00  0.37966391060E+02  0.37966391060E+02  0.00000000000E+00 0. -1.
         21   -1    0    0  503  502 -0.00000000000E+00 -0.00000000000E+00 -0.71757844431E+02  0.71757844431E+02  0.00000000000E+00 0.  1.
         21    1    1    2  503  501 -0.10710179775E+02  0.16981501036E+02  0.33745534515E+02  0.39266275962E+02  0.00000000000E+00 0. -1.
         21    1    1    2  504  502  0.10710179775E+02 -0.16981501036E+02 -0.67536987885E+02  0.70457959528E+02  0.00000000000E+00 0.  1.
<mgrwt>
<rscale>  2 0.20076836E+02</rscale>
<asrwt>0</asrwt>
<pdfrwt beam="1">  1       21 0.58409833E-02 0.20076836E+02</pdfrwt>
<pdfrwt beam="2">  1       21 0.11039668E-01 0.20076836E+02</pdfrwt>
<totfact> 0.10738071E+07</totfact>
</mgrwt>
</event>
<event>
 4    1  0.4505197E+006  0.2842109E+02  0.7546771E-02  0.1616227E+00
         21   -1    0    0  503  501  0.00000000000E+00  0.00000000000E+00  0.26370120503E+02  0.26370120503E+02  0.00000000000E+00 0.  1.
         21   -1    0    0  504  502 -0.00000000000E+00 -0.00000000000E+00 -0.31143281269E+02  0.31143281269E+02  0.00000000000E+00 0.  1.
         21    1    1    2  503  502  0.28421092238E+02 -0.34849809349E-02  0.12994972123E+01  0.28450785387E+02  0.00000000000E+00 0.  1.
         21    1    1    2  504  501 -0.28421092238E+02  0.34849809349E-02 -0.60726579781E+01  0.29062616384E+02  0.00000000000E+00 0.  1.
<mgrwt>
<rscale>  2 0.28421092E+02</rscale>
<asrwt>0</asrwt>
<pdfrwt beam="1">  1       21 0.40569416E-02 0.28421092E+02</pdfrwt>
<pdfrwt beam="2">  1       21 0.47912740E-02 0.28421092E+02</pdfrwt>
<totfact> 0.80787986E+07</totfact>
</mgrwt>
</event>
<event>
 4    1  0.4505197E+006  0.2557227E+02  0.7546771E-02  0.1652916E+00
         21   -1    0    0  502  501  0.00000000000E+00  0.00000000000E+00  0.37066715615E+02  0.37066715615E+02  0.00000000000E+00 0. -1.
         21   -1    0    0  504  502 -0.00000000000E+00 -0.00000000000E+00 -0.16212304927E+03  0.16212304927E+03  0.00000000000E+00 0.  1.
         21    1    1    2  503  501  0.11466746950E+02  0.22857267525E+02  0.31491710650E+02  0.40566843653E+02  0.00000000000E+00 0. -1.
         21    1    1    2  504  503 -0.11466746950E+02 -0.22857267525E+02 -0.15654804431E+03  0.15862292123E+03  0.00000000000E+00 0.  1.
<mgrwt>
<rscale>  2 0.25572269E+02</rscale>
<asrwt>0</asrwt>
<pdfrwt beam="1">  1       21 0.57025716E-02 0.25572269E+02</pdfrwt>
<pdfrwt beam="2">  1       21 0.24942008E-01 0.25572269E+02</pdfrwt>
<totfact> 0.28657859E+06</totfact>
</mgrwt>
</event>
<event>
 4    1  0.4505197E+006  0.3771999E+02  0.7546771E-02  0.1525693E+00
         21   -1    0    0  503  501  0.00000000000E+00  0.00000000000E+00  0.63855430439E+03  0.63855430439E+03  0.00000000000E+00 0.  1.
         21   -1    0    0  504  502 -0.00000000000E+00 -0.00000000000E+00 -0.45196832922E+01  0.45196832922E+01  0.00000000000E+00 0.  1.
         21    1    1    2  503  502  0.33919986533E+02  0.16499459522E+02  0.54596676018E+03  0.54726821658E+03  0.00000000000E+00 0.  1.
         21    1    1    2  504  501 -0.33919986533E+02 -0.16499459522E+02  0.88067860914E+02  0.95805771104E+02  0.00000000000E+00 0.  1.
<mgrwt>
<rscale>  2 0.37719990E+02</rscale>
<asrwt>0</asrwt>
<pdfrwt beam="1">  1       21 0.98239052E-01 0.37719990E+02</pdfrwt>
<pdfrwt beam="2">  1       21 0.69533640E-03 0.37719990E+02</pdfrwt>
<totfact> 0.52275779E+06</totfact>
</mgrwt>
</event>
<event>
 4    1  0.4505197E+006  0.2445354E+02  0.7546771E-02  0.1668977E+00
         21   -1    0    0  504  501  0.00000000000E+00  0.00000000000E+00  0.68161156041E+01  0.68161156041E+01  0.00000000000E+00 0. -1.
         21   -1    0    0  501  502 -0.00000000000E+00 -0.00000000000E+00 -0.70139237036E+03  0.70139237036E+03  0.00000000000E+00 0. -1.
         21    1    1    2  503  502  0.10876581928E+02  0.21901495884E+02 -0.67850730627E+03  0.67894781848E+03  0.00000000000E+00 0. -1.
         21    1    1    2  504  503 -0.10876581928E+02 -0.21901495884E+02 -0.16068948494E+02  0.29260667493E+02  0.00000000000E+00 0. -1.
<mgrwt>
<rscale>  2 0.24453539E+02</rscale>
<asrwt>0</asrwt>
<pdfrwt beam="1">  1       21 0.10486341E-02 0.24453539E+02</pdfrwt>
<pdfrwt beam="2">  1       21 0.10790642E+00 0.24453539E+02</pdfrwt>
<totfact> 0.21837320E+06</totfact>
</mgrwt>
</event>
<event>
 4    1  0.4505197E+006  0.2508945E+02  0.7546771E-02  0.1659720E+00
         21   -1    0    0  504  501  0.00000000000E+00  0.00000000000E+00  0.67662291968E+03  0.67662291968E+03  0.00000000000E+00 0.  1.
         21   -1    0    0  503  502 -0.00000000000E+00 -0.00000000000E+00 -0.12149583352E+01  0.12149583352E+01  0.00000000000E+00 0.  1.
         21    1    1    2  503  501 -0.15226138706E+01 -0.25043204733E+02  0.17366138594E+03  0.17546440500E+03  0.00000000000E+00 0.  1.
         21    1    1    2  504  502  0.15226138706E+01  0.25043204733E+02  0.50174657541E+03  0.50237347302E+03  0.00000000000E+00 0.  1.
<mgrwt>
<rscale>  2 0.25089449E+02</rscale>
<asrwt>0</asrwt>
<pdfrwt beam="1">  1       21 0.10409553E+00 0.25089449E+02</pdfrwt>
<pdfrwt beam="2">  1       21 0.18691721E-03 0.25089449E+02</pdfrwt>
<totfact> 0.30212433E+07</totfact>
</mgrwt>
</event>
<event>
 4    1  0.4505197E+006  0.2343911E+02  0.7546771E-02  0.1684490E+00
         21   -1    0    0  503  501  0.00000000000E+00  0.00000000000E+00  0.18666886437E+03  0.18666886437E+03  0.00000000000E+00 0.  1.
         21   -1    0    0  504  502 -0.00000000000E+00 -0.00000000000E+00 -0.35747138145E+01  0.35747138145E+01  0.00000000000E+00 0.  1.
         21    1    1    2  503  502 -0.12544915855E+00 -0.23438774684E+02  0.13152983137E+03  0.13360197766E+03  0.00000000000E+00 0.  1.
         21    1    1    2  504  501  0.12544915855E+00  0.23438774684E+02  0.51564319185E+02  0.56641600518E+02  0.00000000000E+00 0.  1.
<mgrwt>
<rscale>  2 0.23439110E+02</rscale>
<asrwt>0</asrwt>
<pdfrwt beam="1">  1       21 0.28718279E-01 0.23439110E+02</pdfrwt>
<pdfrwt beam="2">  1       21 0.54995612E-03 0.23439110E+02</pdfrwt>
<totfact> 0.79344680E+07</totfact>
</mgrwt>
</event>
<event>
 4    1  0.4505197E+006  0.2951742E+02  0.7546771E-02  0.1603485E+00
         21   -1    0    0  503  501  0.00000000000E+00  0.00000000000E+00  0.20053235612E+03  0.20053235612E+03  0.00000000000E+00 0. -1.
         21   -1    0    0  504  502 -0.00000000000E+00 -0.00000000000E+00 -0.44271715690E+01  0.44271715690E+01  0.00000000000E+00 0. -1.
         21    1    1    2  503  502  0.18745217489E+02  0.22801207401E+02  0.84076218955E+02  0.89107176094E+02  0.00000000000E+00 0. -1.
         21    1    1    2  504  501 -0.18745217489E+02 -0.22801207401E+02  0.11202896559E+03  0.11585235159E+03  0.00000000000E+00 0. -1.
<mgrwt>
<rscale>  2 0.29517423E+02</rscale>
<asrwt>0</asrwt>
<pdfrwt beam="1">  1       21 0.30851125E-01 0.29517423E+02</pdfrwt>
<pdfrwt beam="2">  1       21 0.68110348E-03 0.29517423E+02</pdfrwt>
<totfact> 0.53449998E+07</totfact>
</mgrwt>
</event>
<event>
 4    1  0.4505197E+006  0.2232786E+02  0.7546771E-02  0.1702643E+00
         21   -1    0    0  504  501  0.00000000000E+00  0.00000000000E+00  0.15159485638E+02  0.15159485638E+02  0.00000000000E+00 0. -1.
         21   -1    0    0  503  502 -0.00000000000E+00 -0.00000000000E+00 -0.34058866891E+02  0.34058866891E+02  0.00000000000E+00 0. -1.
         21    1    1    2  503  501  0.65651743669E+01  0.21340851167E+02 -0.48827700295E+01  0.22855522006E+02  0.00000000000E+00 0. -1.
         21    1    1    2  504  502 -0.65651743669E+01 -0.21340851167E+02 -0.14016611223E+02  0.26362830523E+02  0.00000000000E+00 0. -1.
<mgrwt>
<rscale>  2 0.22327862E+02</rscale>
<asrwt>0</asrwt>
<pdfrwt beam="1">  1       21 0.23322286E-02 0.22327862E+02</pdfrwt>
<pdfrwt beam="2">  1       21 0.52398256E-02 0.22327862E+02</pdfrwt>
<totfact> 0.15572111E+08</totfact>
</mgrwt>
</event>
<event>
 4    1  0.4505197E+006  0.2689455E+02  0.7546771E-02  0.1635192E+00
         21   -1    0    0  504  501  0.00000000000E+00  0.00000000000E+00  0.59851923164E+03  0.59851923164E+03  0.00000000000E+00 0. -1.
         21   -1    0    0  501  502 -0.00000000000E+00 -0.00000000000E+00 -0.10401678629E+02  0.10401678629E+02  0.00000000000E+00 0. -1.
         21    1    1    2  503  502 -0.26202300053E+02 -0.60627108000E+01  0.78310049447E+01  0.28011455313E+02  0.00000000000E+00 0. -1.
         21    1    1    2  504  503  0.26202300053E+02  0.60627108000E+01  0.58028654807E+03  0.58090945496E+03  0.00000000000E+00 0. -1.
<mgrwt>
<rscale>  2 0.26894553E+02</rscale>
<asrwt>0</asrwt>
<pdfrwt beam="1">  1       21 0.92079855E-01 0.26894553E+02</pdfrwt>
<pdfrwt beam="2">  1       21 0.16002587E-02 0.26894553E+02</pdfrwt>
<totfact> 0.16430074E+06</totfact>
</mgrwt>
</event>
<event>
 4    1  0.4505197E+006  0.2076954E+02  0.7546771E-02  0.1730444E+00
         21   -1    0    0  503  501  0.00000000000E+00  0.00000000000E+00  0.17056971388E+02  0.17056971388E+02  0.00000000000E+00 0.  1.
         21   -1    0    0  504  502 -0.00000000000E+00 -0.00000000000E+00 -0.10618282827E+03  0.10618282827E+03  0.00000000000E+00 0. -1.
         21    1    1    2  503  502  0.53774725731E+01  0.20061318750E+02 -0.98346345952E+02  0.10051555841E+03  0.00000000000E+00 0. -1.
         21    1    1    2  504  501 -0.53774725731E+01 -0.20061318750E+02  0.92204890725E+01  0.22724241241E+02  0.00000000000E+00 0.  1.
<mgrwt>
<rscale>  2 0.20769538E+02</rscale>
<asrwt>0</asrwt>
<pdfrwt beam="1">  1       21 0.26241495E-02 0.20769538E+02</pdfrwt>
<pdfrwt beam="2">  1       21 0.16335819E-01 0.20769538E+02</pdfrwt>
<totfact> 0.19632492E+07</totfact>
</mgrwt>
</event>
<event>
 4    1  0.4505197E+006  0.2745136E+02  0.7546771E-02  0.1628099E+00
         21   -1    0    0  504  501  0.00000000000E+00  0.00000000000E+00  0.82945407517E+02  0.82945407517E+02  0.00000000000E+00 0. -1.
         21   -1    0    0  501  502 -0.00000000000E+00 -0.00000000000E+00 -0.25224009731E+02  0.25224009731E+02  0.00000000000E+00 0.  1.
         21    1    1    2  503  502  0.25621620354E+02  0.98544293786E+01 -0.14400935652E+02  0.30999421859E+02  0.00000000000E+00 0.  1.
         21    1    1    2  504  503 -0.25621620354E+02 -0.98544293786E+01  0.72122333438E+02  0.77169995390E+02  0.00000000000E+00 0. -1.
<mgrwt>
<rscale>  2 0.27451361E+02</rscale>
<asrwt>0</asrwt>
<pdfrwt beam="1">  1       21 0.12760832E-01 0.27451361E+02</pdfrwt>
<pdfrwt beam="2">  1       21 0.38806169E-02 0.27451361E+02</pdfrwt>
<totfact> 0.17185575E+07</totfact>
</mgrwt>
</event>
<event>
 4    1  0.4505197E+006  0.2728223E+02  0.7546771E-02  0.1630232E+00
         21   -1    0    0  504  501  0.00000000000E+00  0.00000000000E+00  0.29311786380E+03  0.29311786380E+03  0.00000000000E+00 0.  1.
         21   -1    0    0  503  502 -0.00000000000E+00 -0.00000000000E+00 -0.92036471431E+01  0.92036471431E+01  0.00000000000E+00 0.  1.
         21    1    1    2  503  501 -0.27095991279E+02  0.31823835038E+01  0.27058560664E+03  0.27195751659E+03  0.00000000000E+00 0.  1.
         21    1    1    2  504  502  0.27095991279E+02 -0.31823835038E+01  0.13328610015E+02  0.30363994353E+02  0.00000000000E+00 0.  1.
<mgrwt>
<rscale>  2 0.27282234E+02</rscale>
<asrwt>0</asrwt>
<pdfrwt beam="1">  1       21 0.45095049E-01 0.27282234E+02</pdfrwt>
<pdfrwt beam="2">  1       21 0.14159459E-02 0.27282234E+02</pdfrwt>
<totfact> 0.85146724E+06</totfact>
</mgrwt>
</event>
<event>
 4    1  0.4505197E+006  0.2017281E+02  0.7546771E-02  0.1741913E+00
         21   -1    0    0  503  501  0.00000000000E+00  0.00000000000E+00  0.76750369881E+01  0.76750369881E+01  0.00000000000E+00 0. -1.
         21   -1    0    0  501  502 -0.00000000000E+00 -0.00000000000E+00 -0.59317945384E+02  0.59317945384E+02  0.00000000000E+00 0. -1.
         21    1    1    2  503  504  0.76392084863E+01  0.18670422644E+02 -0.14908231351E+02  0.25083810516E+02  0.00000000000E+00 0. -1.
         21    1    1    2  504  502 -0.76392084863E+01 -0.18670422644E+02 -0.36734677045E+02  0.41909171856E+02  0.00000000000E+00 0. -1.
<mgrwt>
<rscale>  2 0.20172808E+02</rscale>
<asrwt>0</asrwt>
<pdfrwt beam="1">  1       21 0.11807749E-02 0.20172808E+02</pdfrwt>
<pdfrwt beam="2">  1       21 0.91258377E-02 0.20172808E+02</pdfrwt>
<totfact> 0.17351623E+08</totfact>
</mgrwt>
</event>
<event>
 4    1  0.4505197E+006  0.2036735E+02  0.7546771E-02  0.1738120E+00
         21   -1    0    0  504  501  0.00000000000E+00  0.00000000000E+00  0.19676296402E+03  0.19676296402E+03  0.00000000000E+00 0.  1.
         21   -1    0    0  501  502 -0.00000000000E+00 -0.00000000000E+00 -0.74057121440E+01  0.74057121440E+01  0.00000000000E+00 0.  1.
         21    1    1    2  503  502 -0.17750294292E+02  0.99877946283E+01  0.83392487455E+01  0.22008454254E+02  0.00000000000E+00 0.  1.
         21    1    1    2  504  503  0.17750294292E+02 -0.99877946283E+01  0.18101800313E+03  0.18216022191E+03  0.00000000000E+00 0.  1.
<mgrwt>
<rscale>  2 0.20367351E+02</rscale>
<asrwt>0</asrwt>
<pdfrwt beam="1">  1       21 0.30271221E-01 0.20367351E+02</pdfrwt>
<pdfrwt beam="2">  1       21 0.11393405E-02 0.20367351E+02</pdfrwt>
<totfact> 0.23546790E+07</totfact>
</mgrwt>
</event>
<event>
 4    1  0.4505197E+006  0.2733504E+02  0.7546771E-02  0.1629564E+00
         21   -1    0    0  504  501  0.00000000000E+00  0.00000000000E+00  0.20011071992E+02  0.20011071992E+02  0.00000000000E+00 0.  1.
         21   -1    0    0  503  502 -0.00000000000E+00 -0.00000000000E+00 -0.10427450072E+03  0.10427450072E+03  0.00000000000E+00 0.  1.
         21    1    1    2  503  501  0.26732797767E+02 -0.57063305006E+01 -0.91920105696E+02  0.95898438545E+02  0.00000000000E+00 0.  1.
         21    1    1    2  504  502 -0.26732797767E+02  0.57063305006E+01  0.76566769654E+01  0.28387134170E+02  0.00000000000E+00 0.  1.
<mgrwt>
<rscale>  2 0.27335045E+02</rscale>
<asrwt>0</asrwt>
<pdfrwt beam="1">  1       21 0.30786264E-02 0.27335045E+02</pdfrwt>
<pdfrwt beam="2">  1       21 0.16042231E-01 0.27335045E+02</pdfrwt>
<totfact> 0.16729621E+07</totfact>
</mgrwt>
</event>
<event>
 4    1  0.4505197E+006  0.2257767E+02  0.7546771E-02  0.1698449E+00
         21   -1    0    0  503  501  0.00000000000E+00  0.00000000000E+00  0.41288495574E+03  0.41288495574E+03  0.00000000000E+00 0. -1.
         21   -1    0    0  504  502 -0.00000000000E+00 -0.00000000000E+00 -0.15240382207E+01  0.15240382207E+01  0.00000000000E+00 0. -1.
         21    1    1    2  503  502  0.20427969704E+02 -0.96150552791E+01  0.29597736814E+03  0.29683725117E+03  0.00000000000E+00 0. -1.
         21    1    1    2  504  501 -0.20427969704E+02  0.96150552791E+01  0.11538354938E+03  0.11757174279E+03  0.00000000000E+00 0. -1.
<mgrwt>
<rscale>  2 0.22577671E+02</rscale>
<asrwt>0</asrwt>
<pdfrwt beam="1">  1       21 0.63520673E-01 0.22577671E+02</pdfrwt>
<pdfrwt beam="2">  1       21 0.23446775E-03 0.22577671E+02</pdfrwt>
<totfact> 0.60318746E+07</totfact>
</mgrwt>
</event>
<event>
 4    1  0.4505197E+006  0.2839653E+02  0.7546771E-02  0.1616521E+00
         21   -1    0    0  504  501  0.00000000000E+00  0.00000000000E+00  0.72672575636E+03  0.72672575636E+03  0.00000000000E+00 0. -1.
         21   -1    0    0  503  502 -0.00000000000E+00 -0.00000000000E+00 -0.12413406265E+01  0.12413406265E+01  0.00000000000E+00 0. -1.
         21    1    1    2  503  501 -0.26542430899E+02 -0.10092679951E+02  0.48132550257E+03  0.48216242310E+03  0.00000000000E+00 0. -1.
         21    1    1    2  504  502  0.26542430899E+02  0.10092679951E+02  0.24415891316E+03  0.24580467388E+03  0.00000000000E+00 0. -1.
<mgrwt>
<rscale>  2 0.28396528E+02</rscale>
<asrwt>0</asrwt>
<pdfrwt beam="1">  1       21 0.11180362E+00 0.28396528E+02</pdfrwt>
<pdfrwt beam="2">  1       21 0.19097606E-03 0.28396528E+02</pdfrwt>
<totfact> 0.25519622E+07</totfact>
</mgrwt>
</event>
<event>
 4    1  0.4505197E+006  0.2102272E+02  0.7546771E-02  0.1725723E+00
         21   -1    0    0  504  501  0.00000000000E+00  0.00000000000E+00  0.97402221583E+00  0.97402221583E+00  0.00000000000E+00 0.  1.
         21   -1    0    0  503  502 -0.00000000000E+00 -0.00000000000E+00 -0.74911933846E+03  0.74911933846E+03  0.00000000000E+00 0.  1.
         21    1    1    2  503  501  0.16620310216E+02 -0.12873229358E+02 -0.13856857568E+03  0.14015421832E+03  0.00000000000E+00 0.  1.
         21    1    1    2  504  502 -0.16620310216E+02  0.12873229358E+02 -0.60957674056E+03  0.60993914236E+03  0.00000000000E+00 0.  1.
<mgrwt>
<rscale>  2 0.21022720E+02</rscale>
<asrwt>0</asrwt>
<pdfrwt beam="1">  1       21 0.14984988E-03 0.21022720E+02</pdfrwt>
<pdfrwt beam="2">  1       21 0.11524889E+00 0.21022720E+02</pdfrwt>
<totfact> 0.31959240E+07</totfact>
</mgrwt>
</event>
<event>
 4    1  0.4505197E+006  0.2336853E+02  0.7546771E-02  0.1685605E+00
         21   -1    0    0  504  501  0.00000000000E+00  0.00000000000E+00  0.11794828241E+03  0.11794828241E+03  0.00000000000E+00 0.  1.
         21   -1    0    0  501  502 -0.00000000000E+00 -0.00000000000E+00 -0.14014212182E+02  0.14014212182E+02  0.00000000000E+00 0. -1.
         21    1    1    2  503  502 -0.23350243710E+02  0.92441226496E+00 -0.20259657346E+01  0.23456192285E+02  0.00000000000E+00 0. -1.
         21    1    1    2  504  503  0.23350243710E+02 -0.92441226496E+00  0.10596003596E+03  0.10850630231E+03  0.00000000000E+00 0.  1.
<mgrwt>
<rscale>  2 0.23368535E+02</rscale>
<asrwt>0</asrwt>
<pdfrwt beam="1">  1       21 0.18145889E-01 0.23368535E+02</pdfrwt>
<pdfrwt beam="2">  1       21 0.21560327E-02 0.23368535E+02</pdfrwt>
<totfact> 0.22779181E+07</totfact>
</mgrwt>
</event>
<event>
 4    1  0.4505197E+006  0.2370685E+02  0.7546771E-02  0.1680302E+00
         21   -1    0    0  504  501  0.00000000000E+00  0.00000000000E+00  0.86006299035E+01  0.86006299035E+01  0.00000000000E+00 0. -1.
         21   -1    0    0  501  502 -0.00000000000E+00 -0.00000000000E+00 -0.90522071768E+03  0.90522071768E+03  0.00000000000E+00 0. -1.
         21    1    1    2  503  502  0.10650750328E+02 -0.21179622347E+02 -0.88842018074E+03  0.88873642461E+03  0.00000000000E+00 0. -1.
         21    1    1    2  504  503 -0.10650750328E+02  0.21179622347E+02 -0.81999070433E+01  0.25084922979E+02  0.00000000000E+00 0. -1.
<mgrwt>
<rscale>  2 0.23706853E+02</rscale>
<asrwt>0</asrwt>
<pdfrwt beam="1">  1       21 0.13231749E-02 0.23706853E+02</pdfrwt>
<pdfrwt beam="2">  1       21 0.13926461E+00 0.23706853E+02</pdfrwt>
<totfact> 0.85672239E+05</totfact>
</mgrwt>
</event>
<event>
 4    1  0.4505197E+006  0.2255156E+02  0.7546771E-02  0.1698884E+00
         21   -1    0    0  503  501  0.00000000000E+00  0.00000000000E+00  0.21109167674E+01  0.21109167674E+01  0.00000000000E+00 0. -1.
         21   -1    0    0  504  502 -0.00000000000E+00 -0.00000000000E+00 -0.24296201616E+03  0.24296201616E+03  0.00000000000E+00 0. -1.
         21    1    1    2  503  502 -0.18564502332E+02 -0.12803603168E+02 -0.13164506950E+03  0.13356270933E+03  0.00000000000E+00 0. -1.
         21    1    1    2  504  501  0.18564502332E+02  0.12803603168E+02 -0.10920602989E+03  0.11151022359E+03  0.00000000000E+00 0. -1.
<mgrwt>
<rscale>  2 0.22551563E+02</rscale>
<asrwt>0</asrwt>
<pdfrwt beam="1">  1       21 0.32475644E-03 0.22551563E+02</pdfrwt>
<pdfrwt beam="2">  1       21 0.37378770E-01 0.22551563E+02</pdfrwt>
<totfact> 0.10489236E+08</totfact>
</mgrwt>
</event>
<event>
 4    1  0.4505197E+006  0.2244964E+02  0.7546771E-02  0.1700590E+00
         21   -1    0    0  503  501  0.00000000000E+00  0.00000000000E+00  0.18007315662E+02  0.18007315662E+02  0.00000000000E+00 0. -1.
         21   -1    0    0  504  502 -0.00000000000E+00 -0.00000000000E+00 -0.30645321738E+02  0.30645321738E+02  0.00000000000E+00 0.  1.
         21    1    1    2  503  502  0.18973857381E+02  0.11999134902E+02  0.84451852655E+00  0.22465522782E+02  0.00000000000E+00 0.  1.
         21    1    1    2  504  501 -0.18973857381E+02 -0.11999134902E+02 -0.13482524603E+02  0.26187114618E+02  0.00000000000E+00 0. -1.
<mgrwt>
<rscale>  2 0.22449644E+02</rscale>
<asrwt>0</asrwt>
<pdfrwt beam="1">  1       21 0.27703563E-02 0.22449644E+02</pdfrwt>
<pdfrwt beam="2">  1       21 0.47146648E-02 0.22449644E+02</pdfrwt>
<totfact> 0.14138776E+08</totfact>
</mgrwt>
</event>
<event>
 4    1  0.4505197E+006  0.2147712E+02  0.7546771E-02  0.1717455E+00
         21   -1    0    0  504  501  0.00000000000E+00  0.00000000000E+00  0.88019135497E+03  0.88019135497E+03  0.00000000000E+00 0. -1.
         21   -1    0    0  503  502 -0.00000000000E+00 -0.00000000000E+00 -0.78613247251E+00  0.78613247251E+00  0.00000000000E+00 0. -1.
         21    1    1    2  503  501  0.68000991034E+01 -0.20372167403E+02  0.69403624487E+03  0.69436847260E+03  0.00000000000E+00 0. -1.
         21    1    1    2  504  502 -0.68000991034E+01  0.20372167403E+02  0.18536897763E+03  0.18660901484E+03  0.00000000000E+00 0. -1.
<mgrwt>
<rscale>  2 0.21477117E+02</rscale>
<asrwt>0</asrwt>
<pdfrwt beam="1">  1       21 0.13541327E+00 0.21477117E+02</pdfrwt>
<pdfrwt beam="2">  1       21 0.12094416E-03 0.21477117E+02</pdfrwt>
<totfact> 0.30216021E+07</totfact>
</mgrwt>
</event>
<event>
 4    1  0.4505197E+006  0.3326474E+02  0.7546771E-02  0.1564573E+00
         21   -1    0    0  502  501  0.00000000000E+00  0.00000000000E+00  0.46853662509E+02  0.46853662509E+02  0.00000000000E+00 0. -1.
         21   -1    0    0  503  502 -0.00000000000E+00 -0.00000000000E+00 -0.30248491364E+02  0.30248491364E+02  0.00000000000E+00 0.  1.
         21    1    1    2  503  504 -0.21266158861E+02 -0.25579161634E+02 -0.97479547596E+01  0.34663606919E+02  0.00000000000E+00 0.  1.
         21    1    1    2  504  501  0.21266158861E+02  0.25579161634E+02  0.26353125905E+02  0.42438546954E+02  0.00000000000E+00 0. -1.
<mgrwt>
<rscale>  2 0.33264741E+02</rscale>
<asrwt>0</asrwt>
<pdfrwt beam="1">  1       21 0.72082558E-02 0.33264741E+02</pdfrwt>
<pdfrwt beam="2">  1       21 0.46536140E-02 0.33264741E+02</pdfrwt>
<totfact> 0.34620457E+07</totfact>
</mgrwt>
</event>
<event>
 4    1  0.4505197E+006  0.2009356E+02  0.7546771E-02  0.1743474E+00
         21   -1    0    0  504  501  0.00000000000E+00  0.00000000000E+00  0.56922615228E+02  0.56922615228E+02  0.00000000000E+00 0.  1.
         21   -1    0    0  503  502 -0.00000000000E+00 -0.00000000000E+00 -0.11552016786E+02  0.11552016786E+02  0.00000000000E+00 0. -1.
         21    1    1    2  503  501 -0.10521469785E+02 -0.17118692339E+02  0.43956467740E+02  0.48331377076E+02  0.00000000000E+00 0.  1.
         21    1    1    2  504  502  0.10521469785E+02  0.17118692339E+02  0.14141307018E+01  0.20143254937E+02  0.00000000000E+00 0. -1.
<mgrwt>
<rscale>  2 0.20093555E+02</rscale>
<asrwt>0</asrwt>
<pdfrwt beam="1">  1       21 0.87573253E-02 0.20093555E+02</pdfrwt>
<pdfrwt beam="2">  1       21 0.17772334E-02 0.20093555E+02</pdfrwt>
<totfact> 0.99933467E+07</totfact>
</mgrwt>
</event>
<event>
 4    1  0.4505197E+006  0.2113941E+02  0.7546771E-02  0.1723575E+00
         21   -1    0    0  503  501  0.00000000000E+00  0.00000000000E+00  0.94485916992E+02  0.94485916992E+02  0.00000000000E+00 0.  1.
         21   -1    0    0  501  502 -0.00000000000E+00 -0.00000000000E+00 -0.56872169786E+01  0.56872169786E+01  0.00000000000E+00 0. -1.
         21    1    1    2  503  504 -0.19901946073E+02 -0.71265114100E+01  0.64952652492E+02  0.68306088221E+02  0.00000000000E+00 0.  1.
         21    1    1    2  504  502  0.19901946073E+02  0.71265114100E+01  0.23846047522E+02  0.31867045750E+02  0.00000000000E+00 0. -1.
<mgrwt>
<rscale>  2 0.21139409E+02</rscale>
<asrwt>0</asrwt>
<pdfrwt beam="1">  1       21 0.14536294E-01 0.21139409E+02</pdfrwt>
<pdfrwt beam="2">  1       21 0.87495653E-03 0.21139409E+02</pdfrwt>
<totfact> 0.12713199E+08</totfact>
</mgrwt>
</event>
<event>
 4    1  0.4505197E+006  0.2418250E+02  0.7546771E-02  0.1673029E+00
         21   -1    0    0  504  501  0.00000000000E+00  0.00000000000E+00  0.29043979618E+02  0.29043979618E+02  0.00000000000E+00 0. -1.
         21   -1    0    0  503  502 -0.00000000000E+00 -0.00000000000E+00 -0.39706488968E+02  0.39706488968E+02  0.00000000000E+00 0. -1.
         21    1    1    2  503  501  0.11819524644E+02  0.21097208322E+02 -0.29465270630E+02  0.38118178538E+02  0.00000000000E+00 0. -1.
         21    1    1    2  504  502 -0.11819524644E+02 -0.21097208322E+02  0.18802761281E+02  0.30632290047E+02  0.00000000000E+00 0. -1.
<mgrwt>
<rscale>  2 0.24182501E+02</rscale>
<asrwt>0</asrwt>
<pdfrwt beam="1">  1       21 0.44683046E-02 0.24182501E+02</pdfrwt>
<pdfrwt beam="2">  1       21 0.61086906E-02 0.24182501E+02</pdfrwt>
<totfact> 0.45085306E+07</totfact>
</mgrwt>
</event>
<event>
 4    1  0.4505197E+006  0.6548121E+02  0.7546771E-02  0.1376170E+00
         21   -1    0    0  504  501  0.00000000000E+00  0.00000000000E+00  0.22760188578E+03  0.22760188578E+03  0.00000000000E+00 0.  1.
         21   -1    0    0  501  502 -0.00000000000E+00 -0.00000000000E+00 -0.44464000003E+03  0.44464000003E+03  0.00000000000E+00 0. -1.
         21    1    1    2  503  502 -0.10286798601E+02  0.64668162324E+02 -0.43744236756E+03  0.44231619277E+03  0.00000000000E+00 0. -1.
         21    1    1    2  504  503  0.10286798601E+02 -0.64668162324E+02  0.22040425331E+03  0.22992569305E+03  0.00000000000E+00 0.  1.
<mgrwt>
<rscale>  2 0.65481214E+02</rscale>
<asrwt>0</asrwt>
<pdfrwt beam="1">  1       21 0.35015675E-01 0.65481214E+02</pdfrwt>
<pdfrwt beam="2">  1       21 0.68406153E-01 0.65481214E+02</pdfrwt>
<totfact> 0.17150332E+04</totfact>
</mgrwt>
</event>
<event>
 4    1  0.4505197E+006  0.2184011E+02  0.7546771E-02  0.1711032E+00
         21   -1    0    0  503  501  0.00000000000E+00  0.00000000000E+00  0.40864791419E+03  0.40864791419E+03  0.00000000000E+00 0. -1.
         21   -1    0    0  504  502 -0.00000000000E+00 -0.00000000000E+00 -0.42262730814E+01  0.42262730814E+01  0.00000000000E+00 0.  1.
         21    1    1    2  503  502  0.98443546448E+01  0.19495617865E+02  0.37784175133E+03  0.37847242896E+03  0.00000000000E+00 0. -1.
         21    1    1    2  504  501 -0.98443546448E+01 -0.19495617865E+02  0.26579889779E+02  0.34401758313E+02  0.00000000000E+00 0.  1.
<mgrwt>
<rscale>  2 0.21840111E+02</rscale>
<asrwt>0</asrwt>
<pdfrwt beam="1">  1       21 0.62868879E-01 0.21840111E+02</pdfrwt>
<pdfrwt beam="2">  1       21 0.65019618E-03 0.21840111E+02</pdfrwt>
<totfact> 0.13728006E+07</totfact>
</mgrwt>
</event>
<event>
 4    1  0.4505197E+006  0.2258815E+02  0.7546771E-02  0.1698274E+00
         21   -1    0    0  504  501  0.00000000000E+00  0.00000000000E+00  0.82887284778E+03  0.82887284778E+03  0.00000000000E+00 0. -1.
         21   -1    0    0  503  502 -0.00000000000E+00 -0.00000000000E+00 -0.96292753262E+00  0.96292753262E+00  0.00000000000E+00 0. -1.
         21    1    1    2  503  501  0.22521710453E+02 -0.17311655347E+01  0.16474958845E+03  0.16629086346E+03  0.00000000000E+00 0. -1.
         21    1    1    2  504  502 -0.22521710453E+02  0.17311655347E+01  0.66316033179E+03  0.66354491185E+03  0.00000000000E+00 0. -1.
<mgrwt>
<rscale>  2 0.22588147E+02</rscale>
<asrwt>0</asrwt>
<pdfrwt beam="1">  1       21 0.12751833E+00 0.22588147E+02</pdfrwt>
<pdfrwt beam="2">  1       21 0.14814336E-03 0.22588147E+02</pdfrwt>
<totfact> 0.26211100E+07</totfact>
</mgrwt>
</event>
<event>
 4    1  0.4505197E+006  0.3066291E+02  0.7546771E-02  0.1590875E+00
         21   -1    0    0  503  501  0.00000000000E+00  0.00000000000E+00  0.24846937450E+01  0.24846937450E+01  0.00000000000E+00 0. -1.
         21   -1    0    0  501  502 -0.00000000000E+00 -0.00000000000E+00 -0.81528420392E+03  0.81528420392E+03  0.00000000000E+00 0. -1.
         21    1    1    2  503  504  0.86325717089E+00 -0.30650757031E+02 -0.10708505334E+03  0.11138861149E+03  0.00000000000E+00 0. -1.
         21    1    1    2  504  502 -0.86325717089E+00  0.30650757031E+02 -0.70571445683E+03  0.70638028618E+03  0.00000000000E+00 0. -1.
<mgrwt>
<rscale>  2 0.30662911E+02</rscale>
<asrwt>0</asrwt>
<pdfrwt beam="1">  1       21 0.38226056E-03 0.30662911E+02</pdfrwt>
<pdfrwt beam="2">  1       21 0.12542834E+00 0.30662911E+02</pdfrwt>
<totfact> 0.71745050E+06</totfact>
</mgrwt>
</event>
<event>
 4    1  0.4505197E+006  0.2264469E+02  0.7546771E-02  0.1697335E+00
         21   -1    0    0  502  501  0.00000000000E+00  0.00000000000E+00  0.31140101302E+01  0.31140101302E+01  0.00000000000E+00 0.  1.
         21   -1    0    0  504  502 -0.00000000000E+00 -0.00000000000E+00 -0.32131700968E+03  0.32131700968E+03  0.00000000000E+00 0. -1.
         21    1    1    2  503  501  0.20103556471E+02 -0.10422531738E+02 -0.45838667663E+02  0.51126955744E+02  0.00000000000E+00 0.  1.
         21    1    1    2  504  503 -0.20103556471E+02  0.10422531738E+02 -0.27236433188E+03  0.27330406406E+03  0.00000000000E+00 0. -1.
<mgrwt>
<rscale>  2 0.22644694E+02</rscale>
<asrwt>0</asrwt>
<pdfrwt beam="1">  1       21 0.47907839E-03 0.22644694E+02</pdfrwt>
<pdfrwt beam="2">  1       21 0.49433396E-01 0.22644694E+02</pdfrwt>
<totfact> 0.34903545E+07</totfact>
</mgrwt>
</event>
<event>
 4    1  0.4505197E+006  0.2194363E+02  0.7546771E-02  0.1709229E+00
         21   -1    0    0  502  501  0.00000000000E+00  0.00000000000E+00  0.18740840995E+02  0.18740840995E+02  0.00000000000E+00 0. -1.
         21   -1    0    0  504  502 -0.00000000000E+00 -0.00000000000E+00 -0.26456609911E+02  0.26456609911E+02  0.00000000000E+00 0. -1.
         21    1    1    2  503  501  0.20047329707E+02 -0.89234123629E+01 -0.20496555253E-01  0.21943635449E+02  0.00000000000E+00 0. -1.
         21    1    1    2  504  503 -0.20047329707E+02  0.89234123629E+01 -0.76952723612E+01  0.23253815457E+02  0.00000000000E+00 0. -1.
<mgrwt>
<rscale>  2 0.21943626E+02</rscale>
<asrwt>0</asrwt>
<pdfrwt beam="1">  1       21 0.28832063E-02 0.21943626E+02</pdfrwt>
<pdfrwt beam="2">  1       21 0.40702477E-02 0.21943626E+02</pdfrwt>
<totfact> 0.16646366E+08</totfact>
</mgrwt>
</event>
<event>
 4    1  0.4505197E+006  0.3367254E+02  0.7546771E-02  0.1560715E+00
         21   -1    0    0  502  501  0.00000000000E+00  0.00000000000E+00  0.17341403919E+03  0.17341403919E+03  0.00000000000E+00 0.  1.
         21   -1    0    0  503  502 -0.00000000000E+00 -0.00000000000E+00 -0.88426971934E+02  0.88426971934E+02  0.00000000000E+00 0.  1.
         21    1    1    2  503  504  0.71347906894E+01 -0.32907974000E+02 -0.83493863672E+02  0.90028135946E+02  0.00000000000E+00 0.  1.
         21    1    1    2  504  501 -0.71347906894E+01  0.32907974000E+02  0.16848093093E+03  0.17181287518E+03  0.00000000000E+00 0.  1.
<mgrwt>
<rscale>  2 0.33672541E+02</rscale>
<asrwt>0</asrwt>
<pdfrwt beam="1">  1       21 0.26679083E-01 0.33672541E+02</pdfrwt>
<pdfrwt beam="2">  1       21 0.13604150E-01 0.33672541E+02</pdfrwt>
<totfact> 0.61447214E+05</totfact>
</mgrwt>
</event>
<event>
 4    1  0.4505197E+006  0.2683334E+02  0.7546771E-02  0.1635984E+00
         21   -1    0    0  503  501  0.00000000000E+00  0.00000000000E+00  0.64151475840E+03  0.64151475840E+03  0.00000000000E+00 0.  1.
         21   -1    0    0  501  502 -0.00000000000E+00 -0.00000000000E+00 -0.11336388641E+01  0.11336388641E+01  0.00000000000E+00 0.  1.
         21    1    1    2  503  504  0.26587204809E+02 -0.36260946116E+01  0.28817859024E+03  0.28942516804E+03  0.00000000000E+00 0.  1.
         21    1    1    2  504  502 -0.26587204809E+02  0.36260946116E+01  0.35220252929E+03  0.35322322922E+03  0.00000000000E+00 0.  1.
<mgrwt>
<rscale>  2 0.26833338E+02</rscale>
<asrwt>0</asrwt>
<pdfrwt beam="1">  1       21 0.98694288E-01 0.26833338E+02</pdfrwt>
<pdfrwt beam="2">  1       21 0.17440649E-03 0.26833338E+02</pdfrwt>
<totfact> 0.38048035E+07</totfact>
</mgrwt>
</event>
<event>
 4    1  0.4505197E+006  0.2624395E+02  0.7546771E-02  0.1643752E+00
         21   -1    0    0  504  501  0.00000000000E+00  0.00000000000E+00  0.21351185988E+01  0.21351185988E+01  0.00000000000E+00 0.  1.
         21   -1    0    0  503  502 -0.00000000000E+00 -0.00000000000E+00 -0.44299117336E+03  0.44299117336E+03  0.00000000000E+00 0.  1.
         21    1    1    2  503  501 -0.21155231109E+02 -0.15530654647E+02 -0.10439265680E+03  0.10764093939E+03  0.00000000000E+00 0.  1.
         21    1    1    2  504  502  0.21155231109E+02  0.15530654647E+02 -0.33646339796E+03  0.33748535258E+03  0.00000000000E+00 0.  1.
<mgrwt>
<rscale>  2 0.26243952E+02</rscale>
<asrwt>0</asrwt>
<pdfrwt beam="1">  1       21 0.32847973E-03 0.26243952E+02</pdfrwt>
<pdfrwt beam="2">  1       21 0.68152500E-01 0.26243952E+02</pdfrwt>
<totfact> 0.33046660E+07</totfact>
</mgrwt>
</event>
<event>
 4    1  0.4505197E+006  0.2862328E+02  0.7546771E-02  0.1613825E+00
         21   -1    0    0  503  501  0.00000000000E+00  0.00000000000E+00  0.52470066897E+02  0.52470066897E+02  0.00000000000E+00 0. -1.
         21   -1    0    0  504  502 -0.00000000000E+00 -0.00000000000E+00 -0.20963352225E+02  0.20963352225E+02  0.00000000000E+00 0. -1.
         21    1    1    2  503  502 -0.10261552404E+02  0.26720641645E+02  0.34299987540E+02  0.44674168072E+02  0.00000000000E+00 0. -1.
         21    1    1    2  504  501  0.10261552404E+02 -0.26720641645E+02 -0.27932728677E+01  0.28759251050E+02  0.00000000000E+00 0. -1.
<mgrwt>
<rscale>  2 0.28623280E+02</rscale>
<asrwt>0</asrwt>
<pdfrwt beam="1">  1       21 0.80723180E-02 0.28623280E+02</pdfrwt>
<pdfrwt beam="2">  1       21 0.32251311E-02 0.28623280E+02</pdfrwt>
<totfact> 0.49885146E+07</totfact>
</mgrwt>
</event>
<event>
 4    1  0.4505197E+006  0.3980561E+02  0.7546771E-02  0.1509647E+00
         21   -1    0    0  503  501  0.00000000000E+00  0.00000000000E+00  0.41484699968E+02  0.41484699968E+02  0.00000000000E+00 0. -1.
         21   -1    0    0  504  502 -0.00000000000E+00 -0.00000000000E+00 -0.39407436880E+02  0.39407436880E+02  0.00000000000E+00 0. -1.
         21    1    1    2  503  502 -0.39677031988E+02  0.31967735863E+01  0.81345931399E+01  0.40628288596E+02  0.00000000000E+00 0. -1.
         21    1    1    2  504  501  0.39677031988E+02 -0.31967735863E+01 -0.60573300520E+01  0.40263848252E+02  0.00000000000E+00 0. -1.
<mgrwt>
<rscale>  2 0.39805605E+02</rscale>
<asrwt>0</asrwt>
<pdfrwt beam="1">  1       21 0.63822615E-02 0.39805605E+02</pdfrwt>
<pdfrwt beam="2">  1       21 0.60626826E-02 0.39805605E+02</pdfrwt>
<totfact> 0.28455220E+07</totfact>
</mgrwt>
</event>
<event>
 4    1  0.4505197E+006  0.2015214E+02  0.7546771E-02  0.1742319E+00
         21   -1    0    0  502  501  0.00000000000E+00  0.00000000000E+00  0.11975317843E+01  0.11975317843E+01  0.00000000000E+00 0. -1.
         21   -1    0    0  504  502 -0.00000000000E+00 -0.00000000000E+00 -0.33935963471E+03  0.33935963471E+03  0.00000000000E+00 0. -1.
         21    1    1    2  503  501  0.99426803476E+01  0.17528596067E+02 -0.17359332416E+03  0.17475912212E+03  0.00000000000E+00 0. -1.
         21    1    1    2  504  503 -0.99426803476E+01 -0.17528596067E+02 -0.16456877876E+03  0.16579804437E+03  0.00000000000E+00 0. -1.
<mgrwt>
<rscale>  2 0.20152136E+02</rscale>
<asrwt>0</asrwt>
<pdfrwt beam="1">  1       21 0.18423517E-03 0.20152136E+02</pdfrwt>
<pdfrwt beam="2">  1       21 0.52209313E-01 0.20152136E+02</pdfrwt>
<totfact> 0.12223452E+08</totfact>
</mgrwt>
</event>
<event>
 4    1  0.4505197E+006  0.2091413E+02  0.7546771E-02  0.1727738E+00
         21   -1    0    0  503  501  0.00000000000E+00  0.00000000000E+00  0.90902647360E+02  0.90902647360E+02  0.00000000000E+00 0.  1.
         21   -1    0    0  504  502 -0.00000000000E+00 -0.00000000000E+00 -0.49180531712E+01  0.49180531712E+01  0.00000000000E+00 0.  1.
         21    1    1    2  503  502  0.68742526839E+01 -0.19752098408E+02  0.50036104344E+02  0.54231102510E+02  0.00000000000E+00 0.  1.
         21    1    1    2  504  501 -0.68742526839E+01  0.19752098408E+02  0.35948489845E+02  0.41589598022E+02  0.00000000000E+00 0.  1.
<mgrwt>
<rscale>  2 0.20914128E+02</rscale>
<asrwt>0</asrwt>
<pdfrwt beam="1">  1       21 0.13985021E-01 0.20914128E+02</pdfrwt>
<pdfrwt beam="2">  1       21 0.75662363E-03 0.20914128E+02</pdfrwt>
<totfact> 0.16794527E+08</totfact>
</mgrwt>
</event>
<event>
 4    1  0.4505197E+006  0.2002436E+02  0.7546771E-02  0.1744844E+00
         21   -1    0    0  503  501  0.00000000000E+00  0.00000000000E+00  0.30413273070E+01  0.30413273070E+01  0.00000000000E+00 0.  1.
         21   -1    0    0  504  502 -0.00000000000E+00 -0.00000000000E+00 -0.20021822773E+03  0.20021822773E+03  0.00000000000E+00 0.  1.
         21    1    1    2  503  502 -0.15031399449E+01 -0.19967859348E+02 -0.39197322985E+02  0.44015962625E+02  0.00000000000E+00 0.  1.
         21    1    1    2  504  501  0.15031399449E+01  0.19967859348E+02 -0.15797957744E+03  0.15924359241E+03  0.00000000000E+00 0.  1.
<mgrwt>
<rscale>  2 0.20024356E+02</rscale>
<asrwt>0</asrwt>
<pdfrwt beam="1">  1       21 0.46789634E-03 0.20024356E+02</pdfrwt>
<pdfrwt beam="2">  1       21 0.30802816E-01 0.20024356E+02</pdfrwt>
<totfact> 0.84981847E+07</totfact>
</mgrwt>
</event>
<event>
 4    1  0.4505197E+006  0.2090075E+02  0.7546771E-02  0.1727987E+00
         21   -1    0    0  504  501  0.00000000000E+00  0.00000000000E+00  0.73526351288E+03  0.73526351288E+03  0.00000000000E+00 0. -1.
         21   -1    0    0  501  502 -0.00000000000E+00 -0.00000000000E+00 -0.26688861084E+01  0.26688861084E+01  0.00000000000E+00 0.  1.
         21    1    1    2  503  502 -0.20900370242E+02 -0.12580054541E+00  0.40981478443E+02  0.46003509403E+02  0.00000000000E+00 0.  1.
         21    1    1    2  504  503  0.20900370242E+02  0.12580054541E+00  0.69161314833E+03  0.69192888959E+03  0.00000000000E+00 0. -1.
<mgrwt>
<rscale>  2 0.20900749E+02</rscale>
<asrwt>0</asrwt>
<pdfrwt beam="1">  1       21 0.11311730E+00 0.20900749E+02</pdfrwt>
<pdfrwt beam="2">  1       21 0.41059845E-03 0.20900749E+02</pdfrwt>
<totfact> 0.77444721E+06</totfact>
</mgrwt>
</event>
<event>
 4    1  0.4505197E+006  0.3050316E+02  0.7546771E-02  0.1592593E+00
         21   -1    0    0  503  501  0.00000000000E+00  0.00000000000E+00  0.11985171311E+02  0.11985171311E+02  0.00000000000E+00 0.  1.
         21   -1    0    0  504  502 -0.00000000000E+00 -0.00000000000E+00 -0.10851077133E+03  0.10851077133E+03  0.00000000000E+00 0.  1.
         21    1    1    2  503  502  0.21842881115E+02 -0.21291571906E+02 -0.16123949901E+02  0.34502525270E+02  0.00000000000E+00 0.  1.
         21    1    1    2  504  501 -0.21842881115E+02  0.21291571906E+02 -0.80401650120E+02  0.85993417374E+02  0.00000000000E+00 0.  1.
<mgrwt>
<rscale>  2 0.30503155E+02</rscale>
<asrwt>0</asrwt>
<pdfrwt beam="1">  1       21 0.18438725E-02 0.30503155E+02</pdfrwt>
<pdfrwt beam="2">  1       21 0.16693965E-01 0.30503155E+02</pdfrwt>
<totfact> 0.35448266E+07</totfact>
</mgrwt>
</event>
<event>
 4    1  0.4505197E+006  0.4503284E+02  0.7546771E-02  0.1474137E+00
         21   -1    0    0  503  501  0.00000000000E+00  0.00000000000E+00  0.50447924586E+02  0.50447924586E+02  0.00000000000E+00 0.  1.
         21   -1    0    0  504  502 -0.00000000000E+00 -0.00000000000E+00 -0.47476518451E+02  0.47476518451E+02  0.00000000000E+00 0.  1.
         21    1    1    2  503  502  0.42844053995E+02 -0.13868789730E+02  0.20655311379E+02  0.49543901536E+02  0.00000000000E+00 0.  1.
         21    1    1    2  504  501 -0.42844053995E+02  0.13868789730E+02 -0.17683905244E+02  0.48380541501E+02  0.00000000000E+00 0.  1.
<mgrwt>
<rscale>  2 0.45032836E+02</rscale>
<asrwt>0</asrwt>
<pdfrwt beam="1">  1       21 0.77612192E-02 0.45032836E+02</pdfrwt>
<pdfrwt beam="2">  1       21 0.73040798E-02 0.45032836E+02</pdfrwt>
<totfact> 0.15424404E+07</totfact>
</mgrwt>
</event>
<event>
 4    1  0.4505197E+006  0.3127585E+02  0.7546771E-02  0.1584399E+00
         21   -1    0    0  502  501  0.00000000000E+00  0.00000000000E+00  0.54910729254E+02  0.54910729254E+02  0.00000000000E+00 0.  1.
         21   -1    0    0  504  502 -0.00000000000E+00 -0.00000000000E+00 -0.39411515060E+02  0.39411515060E+02  0.00000000000E+00 0.  1.
         21    1    1    2  503  501  0.30902585949E+02 -0.48175916077E+01  0.42661595954E+02  0.52897927904E+02  0.00000000000E+00 0.  1.
         21    1    1    2  504  503 -0.30902585949E+02  0.48175916077E+01 -0.27162381760E+02  0.41424316410E+02  0.00000000000E+00 0.  1.
<mgrwt>
<rscale>  2 0.31275853E+02</rscale>
<asrwt>0</asrwt>
<pdfrwt beam="1">  1       21 0.84478045E-02 0.31275853E+02</pdfrwt>
<pdfrwt beam="2">  1       21 0.60633100E-02 0.31275853E+02</pdfrwt>
<totfact> 0.17166560E+07</totfact>
</mgrwt>
</event>
<event>
 4    1  0.4505197E+006  0.2004976E+02  0.7546771E-02  0.1744340E+00
         21   -1    0    0  504  501  0.00000000000E+00  0.00000000000E+00  0.67244421264E+02  0.67244421264E+02  0.00000000000E+00 0. -1.
         21   -1    0    0  503  502 -0.00000000000E+00 -0.00000000000E+00 -0.81395380805E+01  0.81395380805E+01  0.00000000000E+00 0. -1.
         21    1    1    2  503  501 -0.89462439779E+01 -0.17943177147E+02  0.48975693510E+02  0.52920803492E+02  0.00000000000E+00 0. -1.
         21    1    1    2  504  502  0.89462439779E+01  0.17943177147E+02  0.10129189673E+02  0.22463155853E+02  0.00000000000E+00 0. -1.
<mgrwt>
<rscale>  2 0.20049760E+02</rscale>
<asrwt>0</asrwt>
<pdfrwt beam="1">  1       21 0.10345295E-01 0.20049760E+02</pdfrwt>
<pdfrwt beam="2">  1       21 0.12522367E-02 0.20049760E+02</pdfrwt>
<totfact> 0.12902843E+08</totfact>
</mgrwt>
</event>
<event>
 4    1  0.4505197E+006  0.2697189E+02  0.7546771E-02  0.1634194E+00
         21   -1    0    0  502  501  0.00000000000E+00  0.00000000000E+00  0.44034016125E+01  0.44034016125E+01  0.00000000000E+00 0. -1.
         21   -1    0    0  504  502 -0.00000000000E+00 -0.00000000000E+00 -0.40220121166E+03  0.40220121166E+03  0.00000000000E+00 0. -1.
         21    1    1    2  503  501  0.23821550903E+02  0.12649764092E+02 -0.42840416143E+02  0.50623947636E+02  0.00000000000E+00 0. -1.
         21    1    1    2  504  503 -0.23821550903E+02 -0.12649764092E+02 -0.35495739391E+03  0.35598066564E+03  0.00000000000E+00 0. -1.
<mgrwt>
<rscale>  2 0.26971889E+02</rscale>
<asrwt>0</asrwt>
<pdfrwt beam="1">  1       21 0.67744640E-03 0.26971889E+02</pdfrwt>
<pdfrwt beam="2">  1       21 0.61877109E-01 0.26971889E+02</pdfrwt>
<totfact> 0.13851833E+07</totfact>
</mgrwt>
</event>
<event>
 4    1  0.4505197E+006  0.2021732E+02  0.7546771E-02  0.1741041E+00
         21   -1    0    0  503  501  0.00000000000E+00  0.00000000000E+00  0.34445923743E+02  0.34445923743E+02  0.00000000000E+00 0.  1.
         21   -1    0    0  504  502 -0.00000000000E+00 -0.00000000000E+00 -0.13473926790E+02  0.13473926790E+02  0.00000000000E+00 0.  1.
         21    1    1    2  503  502 -0.11430441988E+00  0.20216997318E+02  0.18762618495E+02  0.27582166319E+02  0.00000000000E+00 0.  1.
         21    1    1    2  504  501  0.11430441988E+00 -0.20216997318E+02  0.22093784575E+01  0.20337684215E+02  0.00000000000E+00 0.  1.
<mgrwt>
<rscale>  2 0.20217320E+02</rscale>
<asrwt>0</asrwt>
<pdfrwt beam="1">  1       21 0.52993729E-02 0.20217320E+02</pdfrwt>
<pdfrwt beam="2">  1       21 0.20729118E-02 0.20217320E+02</pdfrwt>
<totfact> 0.17766812E+08</totfact>
</mgrwt>
</event>
<event>
 4    1  0.4505197E+006  0.2209454E+02  0.7546771E-02  0.1706622E+00
         21   -1    0    0  502  501  0.00000000000E+00  0.00000000000E+00  0.46177975978E+02  0.46177975978E+02  0.00000000000E+00 0. -1.
         21   -1    0    0  504  502 -0.00000000000E+00 -0.00000000000E+00 -0.13567368290E+02  0.13567368290E+02  0.00000000000E+00 0.  1.
         21    1    1    2  503  501  0.84682184972E+01  0.20407307129E+02  0.30342813843E+02  0.37534720735E+02  0.00000000000E+00 0. -1.
         21    1    1    2  504  503 -0.84682184972E+01 -0.20407307129E+02  0.22677938452E+01  0.22210623532E+02  0.00000000000E+00 0.  1.
<mgrwt>
<rscale>  2 0.22094545E+02</rscale>
<asrwt>0</asrwt>
<pdfrwt beam="1">  1       21 0.71043039E-02 0.22094545E+02</pdfrwt>
<pdfrwt beam="2">  1       21 0.20872875E-02 0.22094545E+02</pdfrwt>
<totfact> 0.11292999E+08</totfact>
</mgrwt>
</event>
<event>
 4    1  0.4505197E+006  0.3918778E+02  0.7546771E-02  0.1514275E+00
         21   -1    0    0  502  501  0.00000000000E+00  0.00000000000E+00  0.18652320221E+02  0.18652320221E+02  0.00000000000E+00 0.  1.
         21   -1    0    0  504  502 -0.00000000000E+00 -0.00000000000E+00 -0.26833483878E+03  0.26833483878E+03  0.00000000000E+00 0. -1.
         21    1    1    2  503  501 -0.14172487792E+02  0.36535225703E+02 -0.53726609385E+01  0.39554362755E+02  0.00000000000E+00 0.  1.
         21    1    1    2  504  503  0.14172487792E+02 -0.36535225703E+02 -0.24430985762E+03  0.24743279625E+03  0.00000000000E+00 0. -1.
<mgrwt>
<rscale>  2 0.39187780E+02</rscale>
<asrwt>0</asrwt>
<pdfrwt beam="1">  1       21 0.28695881E-02 0.39187780E+02</pdfrwt>
<pdfrwt beam="2">  1       21 0.41282277E-01 0.39187780E+02</pdfrwt>
<totfact> 0.35250802E+06</totfact>
</mgrwt>
</event>
<event>
 4    1  0.4505197E+006  0.2157438E+02  0.7546771E-02  0.1715719E+00
         21   -1    0    0  504  501  0.00000000000E+00  0.00000000000E+00  0.33108244480E+01  0.33108244480E+01  0.00000000000E+00 0.  1.
         21   -1    0    0  503  502 -0.00000000000E+00 -0.00000000000E+00 -0.65320705470E+03  0.65320705470E+03  0.00000000000E+00 0.  1.
         21    1    1    2  503  501 -0.16427909248E+02  0.13984906721E+02 -0.61574488120E+03  0.61612272523E+03  0.00000000000E+00 0.  1.
         21    1    1    2  504  502  0.16427909248E+02 -0.13984906721E+02 -0.34151349058E+02  0.40395153927E+02  0.00000000000E+00 0.  1.
<mgrwt>
<rscale>  2 0.21574379E+02</rscale>
<asrwt>0</asrwt>
<pdfrwt beam="1">  1       21 0.50935786E-03 0.21574379E+02</pdfrwt>
<pdfrwt beam="2">  1       21 0.10049334E+00 0.21574379E+02</pdfrwt>
<totfact> 0.73664194E+06</totfact>
</mgrwt>
</event>
<event>
 4    1  0.4505197E+006  0.2096154E+02  0.7546771E-02  0.1726856E+00
         21   -1    0    0  502  501  0.00000000000E+00  0.00000000000E+00  0.15548607900E+02  0.15548607900E+02  0.00000000000E+00 0.  1.
         21   -1    0    0  504  502 -0.00000000000E+00 -0.00000000000E+00 -0.56286736952E+03  0.56286736952E+03  0.00000000000E+00 0. -1.
         21    1    1    2  503  501  0.32695671303E+01  0.20704981770E+02  0.81952483021E+01  0.22506630891E+02  0.00000000000E+00 0.  1.
         21    1    1    2  504  503 -0.32695671303E+01 -0.20704981770E+02 -0.55551400992E+03  0.55590934653E+03  0.00000000000E+00 0. -1.
<mgrwt>
<rscale>  2 0.20961544E+02</rscale>
<asrwt>0</asrwt>
<pdfrwt beam="1">  1       21 0.23920932E-02 0.20961544E+02</pdfrwt>
<pdfrwt beam="2">  1       21 0.86594993E-01 0.20961544E+02</pdfrwt>
<totfact> 0.98829916E+05</totfact>
</mgrwt>
</event>
<event>
 4    1  0.4505197E+006  0.6806173E+02  0.7546771E-02  0.1366811E+00
         21   -1    0    0  503  501  0.00000000000E+00  0.00000000000E+00  0.11634176530E+03  0.11634176530E+03  0.00000000000E+00 0. -1.
         21   -1    0    0  504  502 -0.00000000000E+00 -0.00000000000E+00 -0.29601711124E+03  0.29601711124E+03  0.00000000000E+00 0.  1.
         21    1    1    2  503  502  0.26924405667E+02 -0.62509807063E+02  0.10197462957E+03  0.12260189508E+03  0.00000000000E+00 0. -1.
         21    1    1    2  504  501 -0.26924405667E+02  0.62509807063E+02 -0.28164997552E+03  0.28975698147E+03  0.00000000000E+00 0.  1.
<mgrwt>
<rscale>  2 0.68061734E+02</rscale>
<asrwt>0</asrwt>
<pdfrwt beam="1">  1       21 0.17898733E-01 0.68061734E+02</pdfrwt>
<pdfrwt beam="2">  1       21 0.45541094E-01 0.68061734E+02</pdfrwt>
<totfact> 0.13744420E+05</totfact>
</mgrwt>
</event>
<event>
 4    1  0.4505197E+006  0.2374059E+02  0.7546771E-02  0.1679779E+00
         21   -1    0    0  503  501  0.00000000000E+00  0.00000000000E+00  0.32407169433E+03  0.32407169433E+03  0.00000000000E+00 0.  1.
         21   -1    0    0  504  502 -0.00000000000E+00 -0.00000000000E+00 -0.21170366617E+02  0.21170366617E+02  0.00000000000E+00 0.  1.
         21    1    1    2  503  502  0.22933371764E+02 -0.61380679557E+01  0.31682925983E+03  0.31771747717E+03  0.00000000000E+00 0.  1.
         21    1    1    2  504  501 -0.22933371764E+02  0.61380679557E+01 -0.13927932117E+02  0.27524583771E+02  0.00000000000E+00 0.  1.
<mgrwt>
<rscale>  2 0.23740586E+02</rscale>
<asrwt>0</asrwt>
<pdfrwt beam="1">  1       21 0.49857180E-01 0.23740586E+02</pdfrwt>
<pdfrwt beam="2">  1       21 0.32569797E-02 0.23740586E+02</pdfrwt>
<totfact> 0.19004275E+06</totfact>
</mgrwt>
</event>
<event>
 4    1  0.4505197E+006  0.3337071E+02  0.7546771E-02  0.1563564E+00
         21   -1    0    0  502  501  0.00000000000E+00  0.00000000000E+00  0.45364716240E+02  0.45364716240E+02  0.00000000000E+00 0. -1.
         21   -1    0    0  504  502 -0.00000000000E+00 -0.00000000000E+00 -0.46125346542E+03  0.46125346542E+03  0.00000000000E+00 0.  1.
         21    1    1    2  503  501  0.86406115494E+01  0.32232659489E+02  0.38532036941E+02  0.50973742030E+02  0.00000000000E+00 0. -1.
         21    1    1    2  504  503 -0.86406115494E+01 -0.32232659489E+02 -0.45442078612E+03  0.45564443963E+03  0.00000000000E+00 0.  1.
<mgrwt>
<rscale>  2 0.33370713E+02</rscale>
<asrwt>0</asrwt>
<pdfrwt beam="1">  1       21 0.69791871E-02 0.33370713E+02</pdfrwt>
<pdfrwt beam="2">  1       21 0.70962072E-01 0.33370713E+02</pdfrwt>
<totfact> 0.28139734E+05</totfact>
</mgrwt>
</event>
<event>
 4    1  0.4505197E+006  0.2304353E+02  0.7546771E-02  0.1690806E+00
         21   -1    0    0  504  501  0.00000000000E+00  0.00000000000E+00  0.32033967906E+02  0.32033967906E+02  0.00000000000E+00 0.  1.
         21   -1    0    0  501  502 -0.00000000000E+00 -0.00000000000E+00 -0.47193329041E+02  0.47193329041E+02  0.00000000000E+00 0. -1.
         21    1    1    2  503  502 -0.73560028323E+01  0.21837889237E+02 -0.39486694755E+02  0.45718740650E+02  0.00000000000E+00 0. -1.
         21    1    1    2  504  503  0.73560028323E+01 -0.21837889237E+02  0.24327333620E+02  0.33508556297E+02  0.00000000000E+00 0.  1.
<mgrwt>
<rscale>  2 0.23043528E+02</rscale>
<asrwt>0</asrwt>
<pdfrwt beam="1">  1       21 0.49283028E-02 0.23043528E+02</pdfrwt>
<pdfrwt beam="2">  1       21 0.72605122E-02 0.23043528E+02</pdfrwt>
<totfact> 0.28836225E+07</totfact>
</mgrwt>
</event>
<event>
 4    1  0.4505197E+006  0.3303699E+02  0.7546771E-02  0.1566757E+00
         21   -1    0    0  503  501  0.00000000000E+00  0.00000000000E+00  0.60432149080E+03  0.60432149080E+03  0.00000000000E+00 0.  1.
         21   -1    0    0  504  502 -0.00000000000E+00 -0.00000000000E+00 -0.29423763322E+01  0.29423763322E+01  0.00000000000E+00 0.  1.
         21    1    1    2  503  502  0.10750650029E+02 -0.31238860279E+02  0.11200023296E+03  0.11677112250E+03  0.00000000000E+00 0.  1.
         21    1    1    2  504  501 -0.10750650029E+02  0.31238860279E+02  0.48937888151E+03  0.49049274463E+03  0.00000000000E+00 0.  1.
<mgrwt>
<rscale>  2 0.33036992E+02</rscale>
<asrwt>0</asrwt>
<pdfrwt beam="1">  1       21 0.92972438E-01 0.33036992E+02</pdfrwt>
<pdfrwt beam="2">  1       21 0.45267376E-03 0.33036992E+02</pdfrwt>
<totfact> 0.11066905E+07</totfact>
</mgrwt>
</event>
<event>
 4    1  0.4505197E+006  0.2483181E+02  0.7546771E-02  0.1663430E+00
         21   -1    0    0  502  501  0.00000000000E+00  0.00000000000E+00  0.22021672226E+03  0.22021672226E+03  0.00000000000E+00 0.  1.
         21   -1    0    0  504  502 -0.00000000000E+00 -0.00000000000E+00 -0.30824530701E+02  0.30824530701E+02  0.00000000000E+00 0. -1.
         21    1    1    2  503  501  0.17303970693E+02  0.17809862719E+02  0.21437996503E+03  0.21581331752E+03  0.00000000000E+00 0.  1.
         21    1    1    2  504  503 -0.17303970693E+02 -0.17809862719E+02 -0.24987773478E+02  0.35227935437E+02  0.00000000000E+00 0. -1.
<mgrwt>
<rscale>  2 0.24831806E+02</rscale>
<asrwt>0</asrwt>
<pdfrwt beam="1">  1       21 0.33879495E-01 0.24831806E+02</pdfrwt>
<pdfrwt beam="2">  1       21 0.47422356E-02 0.24831806E+02</pdfrwt>
<totfact> 0.21971444E+06</totfact>
</mgrwt>
</event>
<event>
 4    1  0.4505197E+006  0.2352231E+02  0.7546771E-02  0.1683181E+00
         21   -1    0    0  503  501  0.00000000000E+00  0.00000000000E+00  0.40382216358E+03  0.40382216358E+03  0.00000000000E+00 0.  1.
         21   -1    0    0  504  502 -0.00000000000E+00 -0.00000000000E+00 -0.17347043561E+01  0.17347043561E+01  0.00000000000E+00 0.  1.
         21    1    1    2  503  502 -0.23422108482E+02  0.21688771286E+01  0.10808571317E+03  0.11061564349E+03  0.00000000000E+00 0.  1.
         21    1    1    2  504  501  0.23422108482E+02 -0.21688771286E+01  0.29400174606E+03  0.29494122445E+03  0.00000000000E+00 0.  1.
<mgrwt>
<rscale>  2 0.23522313E+02</rscale>
<asrwt>0</asrwt>
<pdfrwt beam="1">  1       21 0.62126412E-01 0.23522313E+02</pdfrwt>
<pdfrwt beam="2">  1       21 0.26687792E-03 0.23522313E+02</pdfrwt>
<totfact> 0.52777250E+07</totfact>
</mgrwt>
</event>
<event>
 4    1  0.4505197E+006  0.2168088E+02  0.7546771E-02  0.1713830E+00
         21   -1    0    0  504  501  0.00000000000E+00  0.00000000000E+00  0.17588034064E+03  0.17588034064E+03  0.00000000000E+00 0. -1.
         21   -1    0    0  501  502 -0.00000000000E+00 -0.00000000000E+00 -0.51370274944E+02  0.51370274944E+02  0.00000000000E+00 0.  1.
         21    1    1    2  503  502 -0.37972611045E+01  0.21345762397E+02 -0.48375031656E+02  0.53011361537E+02  0.00000000000E+00 0.  1.
         21    1    1    2  504  503  0.37972611045E+01 -0.21345762397E+02  0.17288509735E+03  0.17423925405E+03  0.00000000000E+00 0. -1.
<mgrwt>
<rscale>  2 0.21680885E+02</rscale>
<asrwt>0</asrwt>
<pdfrwt beam="1">  1       21 0.27058514E-01 0.21680885E+02</pdfrwt>
<pdfrwt beam="2">  1       21 0.79031193E-02 0.21680885E+02</pdfrwt>
<totfact> 0.14316729E+06</totfact>
</mgrwt>
</event>
<event>
 4    1  0.4505197E+006  0.2302468E+02  0.7546771E-02  0.1691110E+00
         21   -1    0    0  503  501  0.00000000000E+00  0.00000000000E+00  0.21076462738E+01  0.21076462738E+01  0.00000000000E+00 0. -1.
         21   -1    0    0  504  502 -0.00000000000E+00 -0.00000000000E+00 -0.26668987175E+03  0.26668987175E+03  0.00000000000E+00 0.  1.
         21    1    1    2  503  502 -0.20346608200E+02  0.10777348561E+02 -0.16433487986E+03  0.16594001461E+03  0.00000000000E+00 0.  1.
         21    1    1    2  504  501  0.20346608200E+02 -0.10777348561E+02 -0.10024734561E+03  0.10285750342E+03  0.00000000000E+00 0. -1.
<mgrwt>
<rscale>  2 0.23024676E+02</rscale>
<asrwt>0</asrwt>
<pdfrwt beam="1">  1       21 0.32425349E-03 0.23024676E+02</pdfrwt>
<pdfrwt beam="2">  1       21 0.41029183E-01 0.23024676E+02</pdfrwt>
<totfact> 0.88736021E+07</totfact>
</mgrwt>
</event>
<event>
 4    1  0.4505197E+006  0.2654015E+02  0.7546771E-02  0.1639817E+00
         21   -1    0    0  503  501  0.00000000000E+00  0.00000000000E+00  0.21170784204E+02  0.21170784204E+02  0.00000000000E+00 0. -1.
         21   -1    0    0  501  502 -0.00000000000E+00 -0.00000000000E+00 -0.52132751924E+02  0.52132751924E+02  0.00000000000E+00 0. -1.
         21    1    1    2  503  504 -0.22498386516E+02 -0.14078434051E+02  0.65648770079E+01  0.27340031297E+02  0.00000000000E+00 0. -1.
         21    1    1    2  504  502  0.22498386516E+02  0.14078434051E+02 -0.37526844727E+02  0.45963504831E+02  0.00000000000E+00 0. -1.
<mgrwt>
<rscale>  2 0.26540153E+02</rscale>
<asrwt>0</asrwt>
<pdfrwt beam="1">  1       21 0.32570438E-02 0.26540153E+02</pdfrwt>
<pdfrwt beam="2">  1       21 0.80204233E-02 0.26540153E+02</pdfrwt>
<totfact> 0.48770246E+07</totfact>
</mgrwt>
</event>
<event>
 4    1  0.4505197E+006  0.2754908E+02  0.7546771E-02  0.1626876E+00
         21   -1    0    0  504  501  0.00000000000E+00  0.00000000000E+00  0.19000434506E+02  0.19000434506E+02  0.00000000000E+00 0.  1.
         21   -1    0    0  503  502 -0.00000000000E+00 -0.00000000000E+00 -0.46418820923E+02  0.46418820923E+02  0.00000000000E+00 0.  1.
         21    1    1    2  503  501  0.19247351666E+02 -0.19710178086E+02 -0.14927322397E+01  0.27589489228E+02  0.00000000000E+00 0.  1.
         21    1    1    2  504  502 -0.19247351666E+02  0.19710178086E+02 -0.25925654177E+02  0.37829766201E+02  0.00000000000E+00 0.  1.
<mgrwt>
<rscale>  2 0.27549077E+02</rscale>
<asrwt>0</asrwt>
<pdfrwt beam="1">  1       21 0.29231438E-02 0.27549077E+02</pdfrwt>
<pdfrwt beam="2">  1       21 0.71413571E-02 0.27549077E+02</pdfrwt>
<totfact> 0.70516015E+07</totfact>
</mgrwt>
</event>
<event>
 4    1  0.4505197E+006  0.2040084E+02  0.7546771E-02  0.1737472E+00
         21   -1    0    0  504  501  0.00000000000E+00  0.00000000000E+00  0.11494078869E+01  0.11494078869E+01  0.00000000000E+00 0.  1.
         21   -1    0    0  501  502 -0.00000000000E+00 -0.00000000000E+00 -0.78779157253E+03  0.78779157253E+03  0.00000000000E+00 0. -1.
         21    1    1    2  503  502 -0.41346115517E+01  0.19977470217E+02 -0.68329515080E+03  0.68359963241E+03  0.00000000000E+00 0. -1.
         21    1    1    2  504  503  0.41346115517E+01 -0.19977470217E+02 -0.10334701385E+03  0.10534134801E+03  0.00000000000E+00 0.  1.
<mgrwt>
<rscale>  2 0.20400841E+02</rscale>
<asrwt>0</asrwt>
<pdfrwt beam="1">  1       21 0.17683118E-03 0.20400841E+02</pdfrwt>
<pdfrwt beam="2">  1       21 0.12119925E+00 0.20400841E+02</pdfrwt>
<totfact> 0.22379897E+07</totfact>
</mgrwt>
</event>
<event>
 4    1  0.4505197E+006  0.2142885E+02  0.7546771E-02  0.1718321E+00
         21   -1    0    0  504  501  0.00000000000E+00  0.00000000000E+00  0.68344304281E+01  0.68344304281E+01  0.00000000000E+00 0.  1.
         21   -1    0    0  503  502 -0.00000000000E+00 -0.00000000000E+00 -0.28339279869E+03  0.28339279869E+03  0.00000000000E+00 0. -1.
         21    1    1    2  503  501 -0.30631533622E+01 -0.21208790660E+02 -0.11529807621E+02  0.24333766120E+02  0.00000000000E+00 0.  1.
         21    1    1    2  504  502  0.30631533622E+01  0.21208790660E+02 -0.26502856064E+03  0.26589346300E+03  0.00000000000E+00 0. -1.
<mgrwt>
<rscale>  2 0.21428852E+02</rscale>
<asrwt>0</asrwt>
<pdfrwt beam="1">  1       21 0.10514506E-02 0.21428852E+02</pdfrwt>
<pdfrwt beam="2">  1       21 0.43598903E-01 0.21428852E+02</pdfrwt>
<totfact> 0.13651737E+07</totfact>
</mgrwt>
</event>
<event>
 4    1  0.4505197E+006  0.2101760E+02  0.7546771E-02  0.1725818E+00
         21   -1    0    0  503  501  0.00000000000E+00  0.00000000000E+00  0.21110874963E+02  0.21110874963E+02  0.00000000000E+00 0. -1.
         21   -1    0    0  504  502 -0.00000000000E+00 -0.00000000000E+00 -0.25121756941E+02  0.25121756941E+02  0.00000000000E+00 0. -1.
         21    1    1    2  503  502  0.72530106306E+01  0.19726461980E+02 -0.11453970715E+02  0.23936017016E+02  0.00000000000E+00 0. -1.
         21    1    1    2  504  501 -0.72530106306E+01 -0.19726461980E+02  0.74430887373E+01  0.22296614887E+02  0.00000000000E+00 0. -1.
<mgrwt>
<rscale>  2 0.21017599E+02</rscale>
<asrwt>0</asrwt>
<pdfrwt beam="1">  1       21 0.32478269E-02 0.21017599E+02</pdfrwt>
<pdfrwt beam="2">  1       21 0.38648857E-02 0.21017599E+02</pdfrwt>
<totfact> 0.14805910E+08</totfact>
</mgrwt>
</event>
<event>
 4    1  0.4505197E+006  0.3865381E+02  0.7546771E-02  0.1518358E+00
         21   -1    0    0  504  501  0.00000000000E+00  0.00000000000E+00  0.44409240898E+01  0.44409240898E+01  0.00000000000E+00 0. -1.
         21   -1    0    0  501  502 -0.00000000000E+00 -0.00000000000E+00 -0.47518683818E+03  0.47518683818E+03  0.00000000000E+00 0. -1.
         21    1    1    2  503  502  0.11207562959E+02 -0.36993340228E+02 -0.36495635637E+03  0.36699762771E+03  0.00000000000E+00 0. -1.
         21    1    1    2  504  503 -0.11207562959E+02  0.36993340228E+02 -0.10578955772E+03  0.11263013456E+03  0.00000000000E+00 0. -1.
<mgrwt>
<rscale>  2 0.38653806E+02</rscale>
<asrwt>0</asrwt>
<pdfrwt beam="1">  1       21 0.68321955E-03 0.38653806E+02</pdfrwt>
<pdfrwt beam="2">  1       21 0.73105618E-01 0.38653806E+02</pdfrwt>
<totfact> 0.10208923E+07</totfact>
</mgrwt>
</event>
<event>
 4    1  0.4505197E+006  0.2446968E+02  0.7546771E-02  0.1668738E+00
         21   -1    0    0  503  501  0.00000000000E+00  0.00000000000E+00  0.41192776342E+02  0.41192776342E+02  0.00000000000E+00 0. -1.
         21   -1    0    0  504  502 -0.00000000000E+00 -0.00000000000E+00 -0.19783943109E+02  0.19783943109E+02  0.00000000000E+00 0. -1.
         21    1    1    2  503  502 -0.19632628531E+01  0.24390791597E+02 -0.49986810318E+01  0.24975026082E+02  0.00000000000E+00 0. -1.
         21    1    1    2  504  501  0.19632628531E+01 -0.24390791597E+02  0.26407514265E+02  0.36001693368E+02  0.00000000000E+00 0. -1.
<mgrwt>
<rscale>  2 0.24469677E+02</rscale>
<asrwt>0</asrwt>
<pdfrwt beam="1">  1       21 0.63373502E-02 0.24469677E+02</pdfrwt>
<pdfrwt beam="2">  1       21 0.30436836E-02 0.24469677E+02</pdfrwt>
<totfact> 0.77997102E+07</totfact>
</mgrwt>
</event>
<event>
 4    1  0.4505197E+006  0.2109450E+02  0.7546771E-02  0.1724399E+00
         21   -1    0    0  504  501  0.00000000000E+00  0.00000000000E+00  0.10758593704E+03  0.10758593704E+03  0.00000000000E+00 0. -1.
         21   -1    0    0  503  502 -0.00000000000E+00 -0.00000000000E+00 -0.57642623388E+01  0.57642623388E+01  0.00000000000E+00 0.  1.
         21    1    1    2  503  501  0.46730705698E+01  0.20570379090E+02  0.81032526972E+02  0.83733198386E+02  0.00000000000E+00 0. -1.
         21    1    1    2  504  502 -0.46730705698E+01 -0.20570379090E+02  0.20789147727E+02  0.29617000991E+02  0.00000000000E+00 0.  1.
<mgrwt>
<rscale>  2 0.21094504E+02</rscale>
<asrwt>0</asrwt>
<pdfrwt beam="1">  1       21 0.16551681E-01 0.21094504E+02</pdfrwt>
<pdfrwt beam="2">  1       21 0.88680967E-03 0.21094504E+02</pdfrwt>
<totfact> 0.99852383E+07</totfact>
</mgrwt>
</event>
<event>
 4    1  0.4505197E+006  0.2005241E+02  0.7546771E-02  0.1744288E+00
         21   -1    0    0  503  501  0.00000000000E+00  0.00000000000E+00  0.61869583511E+03  0.61869583511E+03  0.00000000000E+00 0. -1.
         21   -1    0    0  504  502 -0.00000000000E+00 -0.00000000000E+00 -0.25552223740E+01  0.25552223740E+01  0.00000000000E+00 0. -1.
         21    1    1    2  503  502 -0.15583029897E+02 -0.12620149121E+02  0.39841478894E+02  0.44603166088E+02  0.00000000000E+00 0. -1.
         21    1    1    2  504  501  0.15583029897E+02  0.12620149121E+02  0.57629913384E+03  0.57664789139E+03  0.00000000000E+00 0. -1.
<mgrwt>
<rscale>  2 0.20052406E+02</rscale>
<asrwt>0</asrwt>
<pdfrwt beam="1">  1       21 0.95183856E-01 0.20052406E+02</pdfrwt>
<pdfrwt beam="2">  1       21 0.39311163E-03 0.20052406E+02</pdfrwt>
<totfact> 0.11959663E+07</totfact>
</mgrwt>
</event>
<event>
 4    1  0.4505197E+006  0.2488617E+02  0.7546771E-02  0.1662642E+00
         21   -1    0    0  504  501  0.00000000000E+00  0.00000000000E+00  0.27473511250E+02  0.27473511250E+02  0.00000000000E+00 0.  1.
         21   -1    0    0  501  502 -0.00000000000E+00 -0.00000000000E+00 -0.55531945413E+02  0.55531945413E+02  0.00000000000E+00 0. -1.
         21    1    1    2  503  502  0.22754028322E+02  0.10078476353E+02 -0.46017633699E+02  0.52315811202E+02  0.00000000000E+00 0. -1.
         21    1    1    2  504  503 -0.22754028322E+02 -0.10078476353E+02  0.17959199536E+02  0.30689645460E+02  0.00000000000E+00 0.  1.
<mgrwt>
<rscale>  2 0.24886171E+02</rscale>
<asrwt>0</asrwt>
<pdfrwt beam="1">  1       21 0.42266941E-02 0.24886171E+02</pdfrwt>
<pdfrwt beam="2">  1       21 0.85433761E-02 0.24886171E+02</pdfrwt>
<totfact> 0.28723446E+07</totfact>
</mgrwt>
</event>
<event>
 4    1  0.4505197E+006  0.2268997E+02  0.7546771E-02  0.1696585E+00
         21   -1    0    0  502  501  0.00000000000E+00  0.00000000000E+00  0.22671256668E+02  0.22671256668E+02  0.00000000000E+00 0. -1.
         21   -1    0    0  503  502 -0.00000000000E+00 -0.00000000000E+00 -0.25066838766E+02  0.25066838766E+02  0.00000000000E+00 0. -1.
         21    1    1    2  503  504 -0.26152167968E+01  0.22538752704E+02 -0.85187863079E+01  0.24236428213E+02  0.00000000000E+00 0. -1.
         21    1    1    2  504  501  0.26152167968E+01 -0.22538752704E+02  0.61232042101E+01  0.23501667221E+02  0.00000000000E+00 0. -1.
<mgrwt>
<rscale>  2 0.22689970E+02</rscale>
<asrwt>0</asrwt>
<pdfrwt beam="1">  1       21 0.34878856E-02 0.22689970E+02</pdfrwt>
<pdfrwt beam="2">  1       21 0.38564368E-02 0.22689970E+02</pdfrwt>
<totfact> 0.13606254E+08</totfact>
</mgrwt>
</event>
<event>
 4    1  0.4505197E+006  0.3957666E+02  0.7546771E-02  0.1511350E+00
         21   -1    0    0  503  501  0.00000000000E+00  0.00000000000E+00  0.11693234908E+03  0.11693234908E+03  0.00000000000E+00 0. -1.
         21   -1    0    0  501  502 -0.00000000000E+00 -0.00000000000E+00 -0.29073209399E+02  0.29073209399E+02  0.00000000000E+00 0. -1.
         21    1    1    2  503  504  0.39154198708E+02  0.57672099055E+01  0.97538946897E+02  0.10526233015E+03  0.00000000000E+00 0. -1.
         21    1    1    2  504  502 -0.39154198708E+02 -0.57672099055E+01 -0.96798072204E+01  0.40743228326E+02  0.00000000000E+00 0. -1.
<mgrwt>
<rscale>  2 0.39576660E+02</rscale>
<asrwt>0</asrwt>
<pdfrwt beam="1">  1       21 0.17989592E-01 0.39576660E+02</pdfrwt>
<pdfrwt beam="2">  1       21 0.44728015E-02 0.39576660E+02</pdfrwt>
<totfact> 0.80149017E+06</totfact>
</mgrwt>
</event>
<event>
 4    1  0.4505197E+006  0.2691109E+02  0.7546771E-02  0.1634978E+00
         21   -1    0    0  504  501  0.00000000000E+00  0.00000000000E+00  0.14490295474E+02  0.14490295474E+02  0.00000000000E+00 0.  1.
         21   -1    0    0  503  502 -0.00000000000E+00 -0.00000000000E+00 -0.50740643420E+02  0.50740643420E+02  0.00000000000E+00 0.  1.
         21    1    1    2  503  501  0.19893139561E+02  0.18123741903E+02 -0.22121762809E+02  0.34836466697E+02  0.00000000000E+00 0.  1.
         21    1    1    2  504  502 -0.19893139561E+02 -0.18123741903E+02 -0.14128585137E+02  0.30394472197E+02  0.00000000000E+00 0.  1.
<mgrwt>
<rscale>  2 0.26911095E+02</rscale>
<asrwt>0</asrwt>
<pdfrwt beam="1">  1       21 0.22292761E-02 0.26911095E+02</pdfrwt>
<pdfrwt beam="2">  1       21 0.78062531E-02 0.26911095E+02</pdfrwt>
<totfact> 0.92413893E+07</totfact>
</mgrwt>
</event>
<event>
 4    1  0.4505197E+006  0.2013494E+02  0.7546771E-02  0.1742658E+00
         21   -1    0    0  503  501  0.00000000000E+00  0.00000000000E+00  0.75611097515E+02  0.75611097515E+02  0.00000000000E+00 0. -1.
         21   -1    0    0  501  502 -0.00000000000E+00 -0.00000000000E+00 -0.43552720324E+02  0.43552720324E+02  0.00000000000E+00 0. -1.
         21    1    1    2  503  504  0.15072561628E+02  0.13350413734E+02  0.71823063639E+02  0.74592011177E+02  0.00000000000E+00 0. -1.
         21    1    1    2  504  502 -0.15072561628E+02 -0.13350413734E+02 -0.39764686448E+02  0.44571806663E+02  0.00000000000E+00 0. -1.
<mgrwt>
<rscale>  2 0.20134936E+02</rscale>
<asrwt>0</asrwt>
<pdfrwt beam="1">  1       21 0.11632477E-01 0.20134936E+02</pdfrwt>
<pdfrwt beam="2">  1       21 0.67004185E-02 0.20134936E+02</pdfrwt>
<totfact> 0.79083831E+06</totfact>
</mgrwt>
</event>
<event>
 4    1  0.4505197E+006  0.2006145E+02  0.7546771E-02  0.1744109E+00
         21   -1    0    0  503  501  0.00000000000E+00  0.00000000000E+00  0.33191805978E+02  0.33191805978E+02  0.00000000000E+00 0. -1.
         21   -1    0    0  501  502 -0.00000000000E+00 -0.00000000000E+00 -0.25938531649E+02  0.25938531649E+02  0.00000000000E+00 0. -1.
         21    1    1    2  503  504  0.10334805393E+02 -0.17194574871E+02  0.25201837751E+02  0.32211709572E+02  0.00000000000E+00 0. -1.
         21    1    1    2  504  502 -0.10334805393E+02  0.17194574871E+02 -0.17948563422E+02  0.26918628055E+02  0.00000000000E+00 0. -1.
<mgrwt>
<rscale>  2 0.20061446E+02</rscale>
<asrwt>0</asrwt>
<pdfrwt beam="1">  1       21 0.51064317E-02 0.20061446E+02</pdfrwt>
<pdfrwt beam="2">  1       21 0.39905433E-02 0.20061446E+02</pdfrwt>
<totfact> 0.68238839E+07</totfact>
</mgrwt>
</event>
<event>
 4    1  0.4505197E+006  0.2671041E+02  0.7546771E-02  0.1637584E+00
         21   -1    0    0  504  501  0.00000000000E+00  0.00000000000E+00  0.27238392319E+02  0.27238392319E+02  0.00000000000E+00 0. -1.
         21   -1    0    0  503  502 -0.00000000000E+00 -0.00000000000E+00 -0.96073685064E+02  0.96073685064E+02  0.00000000000E+00 0.  1.
         21    1    1    2  503  501 -0.23597983432E+02 -0.12513245495E+02 -0.87001572142E+02  0.91009448356E+02  0.00000000000E+00 0.  1.
         21    1    1    2  504  502  0.23597983432E+02  0.12513245495E+02  0.18166279398E+02  0.32302629027E+02  0.00000000000E+00 0. -1.
<mgrwt>
<rscale>  2 0.26710412E+02</rscale>
<asrwt>0</asrwt>
<pdfrwt beam="1">  1       21 0.41905220E-02 0.26710412E+02</pdfrwt>
<pdfrwt beam="2">  1       21 0.14780567E-01 0.26710412E+02</pdfrwt>
<totfact> 0.11786039E+07</totfact>
</mgrwt>
</event>
<event>
 4    1  0.4505197E+006  0.2281704E+02  0.7546771E-02  0.1694493E+00
         21   -1    0    0  503  501  0.00000000000E+00  0.00000000000E+00  0.34076411798E+02  0.34076411798E+02  0.00000000000E+00 0. -1.
         21   -1    0    0  504  502 -0.00000000000E+00 -0.00000000000E+00 -0.26991319202E+02  0.26991319202E+02  0.00000000000E+00 0. -1.
         21    1    1    2  503  502  0.20990599613E+02  0.89449519606E+01 -0.16572025884E+02  0.28200168077E+02  0.00000000000E+00 0. -1.
         21    1    1    2  504  501 -0.20990599613E+02 -0.89449519606E+01  0.23657118480E+02  0.32867562923E+02  0.00000000000E+00 0. -1.
<mgrwt>
<rscale>  2 0.22817043E+02</rscale>
<asrwt>0</asrwt>
<pdfrwt beam="1">  1       21 0.52425249E-02 0.22817043E+02</pdfrwt>
<pdfrwt beam="2">  1       21 0.41525106E-02 0.22817043E+02</pdfrwt>
<totfact> 0.63709471E+07</totfact>
</mgrwt>
</event>
<event>
 4    1  0.4505197E+006  0.2291531E+02  0.7546771E-02  0.1692887E+00
         21   -1    0    0  504  501  0.00000000000E+00  0.00000000000E+00  0.12159329184E+02  0.12159329184E+02  0.00000000000E+00 0.  1.
         21   -1    0    0  501  502 -0.00000000000E+00 -0.00000000000E+00 -0.67016672047E+02  0.67016672047E+02  0.00000000000E+00 0. -1.
         21    1    1    2  503  502  0.71356004734E+00  0.22904193333E+02 -0.51035706550E+02  0.55944209560E+02  0.00000000000E+00 0. -1.
         21    1    1    2  504  503 -0.71356004734E+00 -0.22904193333E+02 -0.38216363129E+01  0.23231791672E+02  0.00000000000E+00 0.  1.
<mgrwt>
<rscale>  2 0.22915306E+02</rscale>
<asrwt>0</asrwt>
<pdfrwt beam="1">  1       21 0.18706661E-02 0.22915306E+02</pdfrwt>
<pdfrwt beam="2">  1       21 0.10310257E-01 0.22915306E+02</pdfrwt>
<totfact> 0.73357833E+07</totfact>
</mgrwt>
</event>
<event>
 4    1  0.4505197E+006  0.3401320E+02  0.7546771E-02  0.1557542E+00
         21   -1    0    0  503  501  0.00000000000E+00  0.00000000000E+00  0.99729483396E+03  0.99729483396E+03  0.00000000000E+00 0. -1.
         21   -1    0    0  504  502 -0.00000000000E+00 -0.00000000000E+00 -0.50516899161E+02  0.50516899161E+02  0.00000000000E+00 0.  1.
         21    1    1    2  503  502  0.11335729191E+02 -0.32068660742E+02  0.99124458912E+03  0.99182797562E+03  0.00000000000E+00 0. -1.
         21    1    1    2  504  501 -0.11335729191E+02  0.32068660742E+02 -0.44466654319E+02  0.55983757505E+02  0.00000000000E+00 0.  1.
<mgrwt>
<rscale>  2 0.34013200E+02</rscale>
<asrwt>0</asrwt>
<pdfrwt beam="1">  1       21 0.15342996E+00 0.34013200E+02</pdfrwt>
<pdfrwt beam="2">  1       21 0.77718314E-02 0.34013200E+02</pdfrwt>
<totfact> 0.41580720E+04</totfact>
</mgrwt>
</event>
<event>
 4    1  0.4505197E+006  0.2027591E+02  0.7546771E-02  0.1739896E+00
         21   -1    0    0  502  501  0.00000000000E+00  0.00000000000E+00  0.42222062654E+03  0.42222062654E+03  0.00000000000E+00 0.  1.
         21   -1    0    0  503  502 -0.00000000000E+00 -0.00000000000E+00 -0.14896149928E+01  0.14896149928E+01  0.00000000000E+00 0. -1.
         21    1    1    2  503  504 -0.56282083177E+01  0.19479114519E+02  0.85686134276E+02  0.88052406205E+02  0.00000000000E+00 0. -1.
         21    1    1    2  504  501  0.56282083177E+01 -0.19479114519E+02  0.33504487727E+03  0.33565783533E+03  0.00000000000E+00 0.  1.
<mgrwt>
<rscale>  2 0.20275913E+02</rscale>
<asrwt>0</asrwt>
<pdfrwt beam="1">  1       21 0.64956924E-01 0.20275913E+02</pdfrwt>
<pdfrwt beam="2">  1       21 0.22917187E-03 0.20275913E+02</pdfrwt>
<totfact> 0.58057171E+07</totfact>
</mgrwt>
</event>
<event>
 4    1  0.4505197E+006  0.2487403E+02  0.7546771E-02  0.1662818E+00
         21   -1    0    0  504  501  0.00000000000E+00  0.00000000000E+00  0.11547353623E+03  0.11547353623E+03  0.00000000000E+00 0. -1.
         21   -1    0    0  503  502 -0.00000000000E+00 -0.00000000000E+00 -0.65172461560E+01  0.65172461560E+01  0.00000000000E+00 0. -1.
         21    1    1    2  503  501  0.51420571526E+01  0.24336731432E+02  0.28754263470E+02  0.38020059393E+02  0.00000000000E+00 0. -1.
         21    1    1    2  504  502 -0.51420571526E+01 -0.24336731432E+02  0.80202026602E+02  0.83970722991E+02  0.00000000000E+00 0. -1.
<mgrwt>
<rscale>  2 0.24874028E+02</rscale>
<asrwt>0</asrwt>
<pdfrwt beam="1">  1       21 0.17765158E-01 0.24874028E+02</pdfrwt>
<pdfrwt beam="2">  1       21 0.10026533E-02 0.24874028E+02</pdfrwt>
<totfact> 0.76924679E+07</totfact>
</mgrwt>
</event>
<event>
 4    1  0.4505197E+006  0.2105958E+02  0.7546771E-02  0.1725043E+00
         21   -1    0    0  504  501  0.00000000000E+00  0.00000000000E+00  0.21372811670E+01  0.21372811670E+01  0.00000000000E+00 0. -1.
         21   -1    0    0  501  502 -0.00000000000E+00 -0.00000000000E+00 -0.21042353053E+03  0.21042353053E+03  0.00000000000E+00 0. -1.
         21    1    1    2  503  502 -0.28051732383E+00 -0.21057713435E+02 -0.11665028521E+03  0.11853604947E+03  0.00000000000E+00 0. -1.
         21    1    1    2  504  503  0.28051732383E+00  0.21057713435E+02 -0.91635964155E+02  0.94024762226E+02  0.00000000000E+00 0. -1.
<mgrwt>
<rscale>  2 0.21059582E+02</rscale>
<asrwt>0</asrwt>
<pdfrwt beam="1">  1       21 0.32881250E-03 0.21059582E+02</pdfrwt>
<pdfrwt beam="2">  1       21 0.32372849E-01 0.21059582E+02</pdfrwt>
<totfact> 0.13181521E+08</totfact>
</mgrwt>
</event>
<event>
 4    1  0.4505197E+006  0.2210502E+02  0.7546771E-02  0.1706442E+00
         21   -1    0    0  502  501  0.00000000000E+00  0.00000000000E+00  0.36397772747E+03  0.36397772747E+03  0.00000000000E+00 0.  1.
         21   -1    0    0  503  502 -0.00000000000E+00 -0.00000000000E+00 -0.78150511118E+01  0.78150511118E+01  0.00000000000E+00 0.  1.
         21    1    1    2  503  504 -0.22009206002E+02 -0.20559062675E+01  0.89034719087E+01  0.23830730401E+02  0.00000000000E+00 0.  1.
         21    1    1    2  504  501  0.22009206002E+02  0.20559062675E+01  0.34725920445E+03  0.34796204818E+03  0.00000000000E+00 0.  1.
<mgrwt>
<rscale>  2 0.22105020E+02</rscale>
<asrwt>0</asrwt>
<pdfrwt beam="1">  1       21 0.55996560E-01 0.22105020E+02</pdfrwt>
<pdfrwt beam="2">  1       21 0.12023158E-02 0.22105020E+02</pdfrwt>
<totfact> 0.69129795E+06</totfact>
</mgrwt>
</event>
<event>
 4    1  0.4505197E+006  0.2670990E+02  0.7546771E-02  0.1637591E+00
         21   -1    0    0  502  501  0.00000000000E+00  0.00000000000E+00  0.90688143341E+00  0.90688143341E+00  0.00000000000E+00 0. -1.
         21   -1    0    0  503  502 -0.00000000000E+00 -0.00000000000E+00 -0.86415694728E+03  0.86415694728E+03  0.00000000000E+00 0. -1.
         21    1    1    2  503  504  0.64492715452E+01 -0.25919600839E+02 -0.56114261338E+03  0.56177793777E+03  0.00000000000E+00 0. -1.
         21    1    1    2  504  501 -0.64492715452E+01  0.25919600839E+02 -0.30210745246E+03  0.30328589094E+03  0.00000000000E+00 0. -1.
<mgrwt>
<rscale>  2 0.26709901E+02</rscale>
<asrwt>0</asrwt>
<pdfrwt beam="1">  1       21 0.13951976E-03 0.26709901E+02</pdfrwt>
<pdfrwt beam="2">  1       21 0.13294766E+00 0.26709901E+02</pdfrwt>
<totfact> 0.26737053E+07</totfact>
</mgrwt>
</event>
<event>
 4    1  0.4505197E+006  0.3276576E+02  0.7546771E-02  0.1569386E+00
         21   -1    0    0  503  501  0.00000000000E+00  0.00000000000E+00  0.17712708385E+03  0.17712708385E+03  0.00000000000E+00 0.  1.
         21   -1    0    0  504  502 -0.00000000000E+00 -0.00000000000E+00 -0.19943172476E+02  0.19943172476E+02  0.00000000000E+00 0.  1.
         21    1    1    2  503  502  0.15352610153E+02 -0.28946365420E+02 -0.36172130122E+01  0.32964813658E+02  0.00000000000E+00 0.  1.
         21    1    1    2  504  501 -0.15352610153E+02  0.28946365420E+02  0.16080112439E+03  0.16410544267E+03  0.00000000000E+00 0.  1.
<mgrwt>
<rscale>  2 0.32765755E+02</rscale>
<asrwt>0</asrwt>
<pdfrwt beam="1">  1       21 0.27250319E-01 0.32765755E+02</pdfrwt>
<pdfrwt beam="2">  1       21 0.30681805E-02 0.32765755E+02</pdfrwt>
<totfact> 0.67735644E+06</totfact>
</mgrwt>
</event>
<event>
 4    1  0.4505197E+006  0.2203957E+02  0.7546771E-02  0.1707569E+00
         21   -1    0    0  502  501  0.00000000000E+00  0.00000000000E+00  0.23645840022E+03  0.23645840022E+03  0.00000000000E+00 0. -1.
         21   -1    0    0  503  502 -0.00000000000E+00 -0.00000000000E+00 -0.20564115314E+01  0.20564115314E+01  0.00000000000E+00 0. -1.
         21    1    1    2  503  504  0.17370712479E+02 -0.13564690119E+02  0.11332624878E+03  0.11544947437E+03  0.00000000000E+00 0. -1.
         21    1    1    2  504  501 -0.17370712479E+02  0.13564690119E+02  0.12107573991E+03  0.12306533738E+03  0.00000000000E+00 0. -1.
<mgrwt>
<rscale>  2 0.22039566E+02</rscale>
<asrwt>0</asrwt>
<pdfrwt beam="1">  1       21 0.36378194E-01 0.22039566E+02</pdfrwt>
<pdfrwt beam="2">  1       21 0.31637119E-03 0.22039566E+02</pdfrwt>
<totfact> 0.11390399E+08</totfact>
</mgrwt>
</event>
<event>
 4    1  0.4505197E+006  0.2045220E+02  0.7546771E-02  0.1736482E+00
         21   -1    0    0  502  501  0.00000000000E+00  0.00000000000E+00  0.58231035329E+02  0.58231035329E+02  0.00000000000E+00 0. -1.
         21   -1    0    0  504  502 -0.00000000000E+00 -0.00000000000E+00 -0.73396652920E+01  0.73396652920E+01  0.00000000000E+00 0. -1.
         21    1    1    2  503  501 -0.94758271998E+01  0.18124604892E+02  0.30230592452E+02  0.36499059215E+02  0.00000000000E+00 0. -1.
         21    1    1    2  504  503  0.94758271998E+01 -0.18124604892E+02  0.20660777585E+02  0.29071641406E+02  0.00000000000E+00 0. -1.
<mgrwt>
<rscale>  2 0.20452203E+02</rscale>
<asrwt>0</asrwt>
<pdfrwt beam="1">  1       21 0.89586205E-02 0.20452203E+02</pdfrwt>
<pdfrwt beam="2">  1       21 0.11291793E-02 0.20452203E+02</pdfrwt>
<totfact> 0.19209598E+08</totfact>
</mgrwt>
</event>
<event>
 4    1  0.4505197E+006  0.2302401E+02  0.7546771E-02  0.1691121E+00
         21   -1    0    0  503  501  0.00000000000E+00  0.00000000000E+00  0.66213919516E+03  0.66213919516E+03  0.00000000000E+00 0. -1.
         21   -1    0    0  504  502 -0.00000000000E+00 -0.00000000000E+00 -0.40248075404E+03  0.40248075404E+03  0.00000000000E+00 0. -1.
         21    1    1    2  503  502 -0.28039472029E+01  0.22852634404E+02 -0.40195106835E+03  0.40260994321E+03  0.00000000000E+00 0. -1.
         21    1    1    2  504  501  0.28039472029E+01 -0.22852634404E+02  0.66160950947E+03  0.66201000599E+03  0.00000000000E+00 0. -1.
<mgrwt>
<rscale>  2 0.23024010E+02</rscale>
<asrwt>0</asrwt>
<pdfrwt beam="1">  1       21 0.10186757E+00 0.23024010E+02</pdfrwt>
<pdfrwt beam="2">  1       21 0.61920116E-01 0.23024010E+02</pdfrwt>
<totfact> 0.27047513E+03</totfact>
</mgrwt>
</event>
<event>
 4    1  0.4505197E+006  0.2935457E+02  0.7546771E-02  0.1605335E+00
         21   -1    0    0  502  501  0.00000000000E+00  0.00000000000E+00  0.11745702494E+03  0.11745702494E+03  0.00000000000E+00 0. -1.
         21   -1    0    0  503  502 -0.00000000000E+00 -0.00000000000E+00 -0.11700909445E+02  0.11700909445E+02  0.00000000000E+00 0. -1.
         21    1    1    2  503  504  0.24170089155E+01  0.29254891363E+02  0.13436146686E+02  0.32283442172E+02  0.00000000000E+00 0. -1.
         21    1    1    2  504  501 -0.24170089155E+01 -0.29254891363E+02  0.92319968811E+02  0.96874492215E+02  0.00000000000E+00 0. -1.
<mgrwt>
<rscale>  2 0.29354567E+02</rscale>
<asrwt>0</asrwt>
<pdfrwt beam="1">  1       21 0.18070311E-01 0.29354567E+02</pdfrwt>
<pdfrwt beam="2">  1       21 0.18001400E-02 0.29354567E+02</pdfrwt>
<totfact> 0.31801266E+07</totfact>
</mgrwt>
</event>
<event>
 4    1  0.4505197E+006  0.2095211E+02  0.7546771E-02  0.1727031E+00
         21   -1    0    0  502  501  0.00000000000E+00  0.00000000000E+00  0.26399278367E+02  0.26399278367E+02  0.00000000000E+00 0. -1.
         21   -1    0    0  504  502 -0.00000000000E+00 -0.00000000000E+00 -0.29564274029E+02  0.29564274029E+02  0.00000000000E+00 0. -1.
         21    1    1    2  503  501 -0.12991481699E+02 -0.16438135447E+02  0.16926427647E+02  0.26935011539E+02  0.00000000000E+00 0. -1.
         21    1    1    2  504  503  0.12991481699E+02  0.16438135447E+02 -0.20091423309E+02  0.29028540857E+02  0.00000000000E+00 0. -1.
<mgrwt>
<rscale>  2 0.20952110E+02</rscale>
<asrwt>0</asrwt>
<pdfrwt beam="1">  1       21 0.40614274E-02 0.20952110E+02</pdfrwt>
<pdfrwt beam="2">  1       21 0.45483498E-02 0.20952110E+02</pdfrwt>
<totfact> 0.80715817E+07</totfact>
</mgrwt>
</event>
<event>
 4    1  0.4505197E+006  0.2436778E+02  0.7546771E-02  0.1670252E+00
         21   -1    0    0  504  501  0.00000000000E+00  0.00000000000E+00  0.28568379493E+01  0.28568379493E+01  0.00000000000E+00 0. -1.
         21   -1    0    0  501  502 -0.00000000000E+00 -0.00000000000E+00 -0.21035124636E+03  0.21035124636E+03  0.00000000000E+00 0. -1.
         21    1    1    2  503  502 -0.27843253197E+01  0.24208187777E+02 -0.92118546757E+02  0.95287016322E+02  0.00000000000E+00 0. -1.
         21    1    1    2  504  503  0.27843253197E+01 -0.24208187777E+02 -0.11537586166E+03  0.11792106799E+03  0.00000000000E+00 0. -1.
<mgrwt>
<rscale>  2 0.24367782E+02</rscale>
<asrwt>0</asrwt>
<pdfrwt beam="1">  1       21 0.43951351E-03 0.24367782E+02</pdfrwt>
<pdfrwt beam="2">  1       21 0.32361732E-01 0.24367782E+02</pdfrwt>
<totfact> 0.89729610E+07</totfact>
</mgrwt>
</event>
<event>
 4    1  0.4505197E+006  0.2442764E+02  0.7546771E-02  0.1669362E+00
         21   -1    0    0  504  501  0.00000000000E+00  0.00000000000E+00  0.12081037828E+02  0.12081037828E+02  0.00000000000E+00 0.  1.
         21   -1    0    0  501  502 -0.00000000000E+00 -0.00000000000E+00 -0.21822365047E+03  0.21822365047E+03  0.00000000000E+00 0. -1.
         21    1    1    2  503  502 -0.22349699549E+02 -0.98590344240E+01 -0.20435708884E+03  0.20581187864E+03  0.00000000000E+00 0. -1.
         21    1    1    2  504  503  0.22349699549E+02  0.98590344240E+01 -0.17855238006E+01  0.24492809659E+02  0.00000000000E+00 0.  1.
<mgrwt>
<rscale>  2 0.24427641E+02</rscale>
<asrwt>0</asrwt>
<pdfrwt beam="1">  1       21 0.18586212E-02 0.24427641E+02</pdfrwt>
<pdfrwt beam="2">  1       21 0.33572869E-01 0.24427641E+02</pdfrwt>
<totfact> 0.96245019E+06</totfact>
</mgrwt>
</event>
<event>
 4    1  0.4505197E+006  0.2613828E+02  0.7546771E-02  0.1645171E+00
         21   -1    0    0  503  501  0.00000000000E+00  0.00000000000E+00  0.32712236100E+03  0.32712236100E+03  0.00000000000E+00 0.  1.
         21   -1    0    0  504  502 -0.00000000000E+00 -0.00000000000E+00 -0.36142264652E+02  0.36142264652E+02  0.00000000000E+00 0.  1.
         21    1    1    2  503  502 -0.13432813492E+02 -0.22422511914E+02  0.32179630109E+03  0.32285611178E+03  0.00000000000E+00 0.  1.
         21    1    1    2  504  501  0.13432813492E+02  0.22422511914E+02 -0.30816204740E+02  0.40408513873E+02  0.00000000000E+00 0.  1.
<mgrwt>
<rscale>  2 0.26138277E+02</rscale>
<asrwt>0</asrwt>
<pdfrwt beam="1">  1       21 0.50326515E-01 0.26138277E+02</pdfrwt>
<pdfrwt beam="2">  1       21 0.55603486E-02 0.26138277E+02</pdfrwt>
<totfact> 0.80629591E+05</totfact>
</mgrwt>
</event>
<event>
 4    1  0.4505197E+006  0.2243867E+02  0.7546771E-02  0.1700774E+00
         21   -1    0    0  503  501  0.00000000000E+00  0.00000000000E+00  0.23071488761E+02  0.23071488761E+02  0.00000000000E+00 0. -1.
         21   -1    0    0  501  502 -0.00000000000E+00 -0.00000000000E+00 -0.45562839056E+02  0.45562839056E+02  0.00000000000E+00 0. -1.
         21    1    1    2  503  504 -0.46154444970E+00 -0.22433923677E+02  0.13525291832E+02  0.26199760952E+02  0.00000000000E+00 0. -1.
         21    1    1    2  504  502  0.46154444970E+00  0.22433923677E+02 -0.36016642127E+02  0.42434566864E+02  0.00000000000E+00 0. -1.
<mgrwt>
<rscale>  2 0.22438671E+02</rscale>
<asrwt>0</asrwt>
<pdfrwt beam="1">  1       21 0.35494599E-02 0.22438671E+02</pdfrwt>
<pdfrwt beam="2">  1       21 0.70096674E-02 0.22438671E+02</pdfrwt>
<totfact> 0.50904431E+07</totfact>
</mgrwt>
</event>
<event>
 4    1  0.4505197E+006  0.2345650E+02  0.7546771E-02  0.1684216E+00
         21   -1    0    0  503  501  0.00000000000E+00  0.00000000000E+00  0.18753166576E+02  0.18753166576E+02  0.00000000000E+00 0. -1.
         21   -1    0    0  504  502 -0.00000000000E+00 -0.00000000000E+00 -0.45960828154E+02  0.45960828154E+02  0.00000000000E+00 0. -1.
         21    1    1    2  503  502  0.18406594624E+02 -0.14539760274E+02  0.58546070886E+01  0.24176099326E+02  0.00000000000E+00 0. -1.
         21    1    1    2  504  501 -0.18406594624E+02  0.14539760274E+02 -0.33062268666E+02  0.40537895404E+02  0.00000000000E+00 0. -1.
<mgrwt>
<rscale>  2 0.23456499E+02</rscale>
<asrwt>0</asrwt>
<pdfrwt beam="1">  1       21 0.28851026E-02 0.23456499E+02</pdfrwt>
<pdfrwt beam="2">  1       21 0.70708965E-02 0.23456499E+02</pdfrwt>
<totfact> 0.70194993E+07</totfact>
</mgrwt>
</event>
<event>
 4    1  0.4505197E+006  0.2695738E+02  0.7546771E-02  0.1634381E+00
         21   -1    0    0  503  501  0.00000000000E+00  0.00000000000E+00  0.14558628287E+04  0.14558628287E+04  0.00000000000E+00 0.  1.
         21   -1    0    0  504  502 -0.00000000000E+00 -0.00000000000E+00 -0.50132175030E+00  0.50132175030E+00  0.00000000000E+00 0. -1.
         21    1    1    2  503  502 -0.26302682768E+02  0.59050243860E+01  0.67980235822E+03  0.68033664217E+03  0.00000000000E+00 0. -1.
         21    1    1    2  504  501  0.26302682768E+02 -0.59050243860E+01  0.77555914871E+03  0.77602750826E+03  0.00000000000E+00 0.  1.
<mgrwt>
<rscale>  2 0.26957382E+02</rscale>
<asrwt>0</asrwt>
<pdfrwt beam="1">  1       21 0.22397551E+00 0.26957382E+02</pdfrwt>
<pdfrwt beam="2">  1       21 0.77127589E-04 0.26957382E+02</pdfrwt>
<totfact> 0.16981165E+07</totfact>
</mgrwt>
</event>
<event>
 4    1  0.4505197E+006  0.2114062E+02  0.7546771E-02  0.1723553E+00
         21   -1    0    0  504  501  0.00000000000E+00  0.00000000000E+00  0.18515800755E+02  0.18515800755E+02  0.00000000000E+00 0.  1.
         21   -1    0    0  501  502 -0.00000000000E+00 -0.00000000000E+00 -0.44037861957E+03  0.44037861957E+03  0.00000000000E+00 0. -1.
         21    1    1    2  503  502 -0.19211649816E+02 -0.88225948371E+01 -0.43400191122E+03  0.43451649521E+03  0.00000000000E+00 0. -1.
         21    1    1    2  504  503  0.19211649816E+02  0.88225948371E+01  0.12139092406E+02  0.24377925112E+02  0.00000000000E+00 0.  1.
<mgrwt>
<rscale>  2 0.21140617E+02</rscale>
<asrwt>0</asrwt>
<pdfrwt beam="1">  1       21 0.28485851E-02 0.21140617E+02</pdfrwt>
<pdfrwt beam="2">  1       21 0.67750548E-01 0.21140617E+02</pdfrwt>
<totfact> 0.12565782E+06</totfact>
</mgrwt>
</event>
<event>
 4    1  0.4505197E+006  0.2799999E+02  0.7546771E-02  0.1621310E+00
         21   -1    0    0  503  501  0.00000000000E+00  0.00000000000E+00  0.19891416542E+04  0.19891416542E+04  0.00000000000E+00 0. -1.
         21   -1    0    0  501  502 -0.00000000000E+00 -0.00000000000E+00 -0.13793982604E+01  0.13793982604E+01  0.00000000000E+00 0. -1.
         21    1    1    2  503  504  0.50262241366E+01  0.27545167206E+02  0.18350188494E+04  0.18352324586E+04  0.00000000000E+00 0. -1.
         21    1    1    2  504  502 -0.50262241366E+01 -0.27545167206E+02  0.15274340653E+03  0.15528859393E+03  0.00000000000E+00 0. -1.
<mgrwt>
<rscale>  2 0.27999985E+02</rscale>
<asrwt>0</asrwt>
<pdfrwt beam="1">  1       21 0.30601950E+00 0.27999985E+02</pdfrwt>
<pdfrwt beam="2">  1       21 0.21221671E-03 0.27999985E+02</pdfrwt>
<totfact> 0.15325567E+06</totfact>
</mgrwt>
</event>
<event>
 4    1  0.4505197E+006  0.2072123E+02  0.7546771E-02  0.1731355E+00
         21   -1    0    0  503  501  0.00000000000E+00  0.00000000000E+00  0.83452136827E+03  0.83452136827E+03  0.00000000000E+00 0. -1.
         21   -1    0    0  504  502 -0.00000000000E+00 -0.00000000000E+00 -0.51497488374E+00  0.51497488374E+00  0.00000000000E+00 0. -1.
         21    1    1    2  503  502  0.42949570542E+01  0.20271225350E+02  0.42955348350E+03  0.43005297862E+03  0.00000000000E+00 0. -1.
         21    1    1    2  504  501 -0.42949570542E+01 -0.20271225350E+02  0.40445290988E+03  0.40498336453E+03  0.00000000000E+00 0. -1.
<mgrwt>
<rscale>  2 0.20721227E+02</rscale>
<asrwt>0</asrwt>
<pdfrwt beam="1">  1       21 0.12838682E+00 0.20721227E+02</pdfrwt>
<pdfrwt beam="2">  1       21 0.79227573E-04 0.20721227E+02</pdfrwt>
<totfact> 0.61760026E+07</totfact>
</mgrwt>
</event>
<event>
 4    1  0.4505197E+006  0.3038315E+02  0.7546771E-02  0.1593892E+00
         21   -1    0    0  504  501  0.00000000000E+00  0.00000000000E+00  0.63714694445E+03  0.63714694445E+03  0.00000000000E+00 0.  1.
         21   -1    0    0  503  502 -0.00000000000E+00 -0.00000000000E+00 -0.36662393026E+02  0.36662393026E+02  0.00000000000E+00 0.  1.
         21    1    1    2  503  501  0.84968678098E+01  0.29170860300E+02  0.63042278548E+03  0.63115451698E+03  0.00000000000E+00 0.  1.
         21    1    1    2  504  502 -0.84968678098E+01 -0.29170860300E+02 -0.29938234055E+02  0.42654820496E+02  0.00000000000E+00 0.  1.
<mgrwt>
<rscale>  2 0.30383151E+02</rscale>
<asrwt>0</asrwt>
<pdfrwt beam="1">  1       21 0.98022599E-01 0.30383151E+02</pdfrwt>
<pdfrwt beam="2">  1       21 0.56403686E-02 0.30383151E+02</pdfrwt>
<totfact> 0.19904127E+05</totfact>
</mgrwt>
</event>
<event>
 4    1  0.4505197E+006  0.2681536E+02  0.7546771E-02  0.1636218E+00
         21   -1    0    0  504  501  0.00000000000E+00  0.00000000000E+00  0.74770763858E+01  0.74770763858E+01  0.00000000000E+00 0. -1.
         21   -1    0    0  503  502 -0.00000000000E+00 -0.00000000000E+00 -0.34055324019E+03  0.34055324019E+03  0.00000000000E+00 0. -1.
         21    1    1    2  503  501  0.20217179300E+02 -0.17616163940E+02 -0.19126672774E+02  0.32937716713E+02  0.00000000000E+00 0. -1.
         21    1    1    2  504  502 -0.20217179300E+02  0.17616163940E+02 -0.31394949103E+03  0.31509259987E+03  0.00000000000E+00 0. -1.
<mgrwt>
<rscale>  2 0.26815361E+02</rscale>
<asrwt>0</asrwt>
<pdfrwt beam="1">  1       21 0.11503199E-02 0.26815361E+02</pdfrwt>
<pdfrwt beam="2">  1       21 0.52392787E-01 0.26815361E+02</pdfrwt>
<totfact> 0.86949765E+06</totfact>
</mgrwt>
</event>
<event>
 4    1  0.4505197E+006  0.2017574E+02  0.7546771E-02  0.1741856E+00
         21   -1    0    0  503  501  0.00000000000E+00  0.00000000000E+00  0.60827048585E+02  0.60827048585E+02  0.00000000000E+00 0. -1.
         21   -1    0    0  504  502 -0.00000000000E+00 -0.00000000000E+00 -0.13265575778E+03  0.13265575778E+03  0.00000000000E+00 0.  1.
         21    1    1    2  503  502  0.11108239426E+02 -0.16842436986E+02  0.58355310083E+02  0.61744658730E+02  0.00000000000E+00 0. -1.
         21    1    1    2  504  501 -0.11108239426E+02  0.16842436986E+02 -0.13018401927E+03  0.13173814763E+03  0.00000000000E+00 0.  1.
<mgrwt>
<rscale>  2 0.20175745E+02</rscale>
<asrwt>0</asrwt>
<pdfrwt beam="1">  1       21 0.93580075E-02 0.20175745E+02</pdfrwt>
<pdfrwt beam="2">  1       21 0.20408578E-01 0.20175745E+02</pdfrwt>
<totfact> 0.17721474E+06</totfact>
</mgrwt>
</event>
<event>
 4    1  0.4505197E+006  0.2298152E+02  0.7546771E-02  0.1691810E+00
         21   -1    0    0  503  501  0.00000000000E+00  0.00000000000E+00  0.72019171257E+01  0.72019171257E+01  0.00000000000E+00 0.  1.
         21   -1    0    0  504  502 -0.00000000000E+00 -0.00000000000E+00 -0.80874757163E+02  0.80874757163E+02  0.00000000000E+00 0.  1.
         21    1    1    2  503  502  0.86254780417E+01  0.21301437884E+02 -0.23389805535E+02  0.32790747634E+02  0.00000000000E+00 0.  1.
         21    1    1    2  504  501 -0.86254780417E+01 -0.21301437884E+02 -0.50283034502E+02  0.55285926655E+02  0.00000000000E+00 0.  1.
<mgrwt>
<rscale>  2 0.22981517E+02</rscale>
<asrwt>0</asrwt>
<pdfrwt beam="1">  1       21 0.11079872E-02 0.22981517E+02</pdfrwt>
<pdfrwt beam="2">  1       21 0.12442271E-01 0.22981517E+02</pdfrwt>
<totfact> 0.11884645E+08</totfact>
</mgrwt>
</event>
<event>
 4    1  0.4505197E+006  0.2647384E+02  0.7546771E-02  0.1640692E+00
         21   -1    0    0  504  501  0.00000000000E+00  0.00000000000E+00  0.15384872229E+03  0.15384872229E+03  0.00000000000E+00 0.  1.
         21   -1    0    0  503  502 -0.00000000000E+00 -0.00000000000E+00 -0.21871207754E+02  0.21871207754E+02  0.00000000000E+00 0.  1.
         21    1    1    2  503  501  0.19762772051E+01  0.26399974812E+02  0.14416489996E+03  0.14657551883E+03  0.00000000000E+00 0.  1.
         21    1    1    2  504  502 -0.19762772051E+01 -0.26399974812E+02 -0.12187385418E+02  0.29144411213E+02  0.00000000000E+00 0.  1.
<mgrwt>
<rscale>  2 0.26473843E+02</rscale>
<asrwt>0</asrwt>
<pdfrwt beam="1">  1       21 0.23669034E-01 0.26473843E+02</pdfrwt>
<pdfrwt beam="2">  1       21 0.33648013E-02 0.26473843E+02</pdfrwt>
<totfact> 0.73173018E+06</totfact>
</mgrwt>
</event>
<event>
 4    1  0.4505197E+006  0.2136164E+02  0.7546771E-02  0.1719532E+00
         21   -1    0    0  503  501  0.00000000000E+00  0.00000000000E+00  0.64748889392E+02  0.64748889392E+02  0.00000000000E+00 0.  1.
         21   -1    0    0  504  502 -0.00000000000E+00 -0.00000000000E+00 -0.13767536402E+02  0.13767536402E+02  0.00000000000E+00 0.  1.
         21    1    1    2  503  502  0.17577992017E+02  0.12138119551E+02  0.52918241181E+02  0.57067153418E+02  0.00000000000E+00 0.  1.
         21    1    1    2  504  501 -0.17577992017E+02 -0.12138119551E+02 -0.19368881910E+01  0.21449272376E+02  0.00000000000E+00 0.  1.
<mgrwt>
<rscale>  2 0.21361642E+02</rscale>
<asrwt>0</asrwt>
<pdfrwt beam="1">  1       21 0.99613674E-02 0.21361642E+02</pdfrwt>
<pdfrwt beam="2">  1       21 0.21180826E-02 0.21361642E+02</pdfrwt>
<totfact> 0.62980487E+07</totfact>
</mgrwt>
</event>
<event>
 4    1  0.4505197E+006  0.2289649E+02  0.7546771E-02  0.1693193E+00
         21   -1    0    0  503  501  0.00000000000E+00  0.00000000000E+00  0.22508184569E+01  0.22508184569E+01  0.00000000000E+00 0.  1.
         21   -1    0    0  504  502 -0.00000000000E+00 -0.00000000000E+00 -0.70381458899E+03  0.70381458899E+03  0.00000000000E+00 0.  1.
         21    1    1    2  503  502  0.36883899659E+01  0.22597461076E+02 -0.63955046994E+03  0.63996019647E+03  0.00000000000E+00 0.  1.
         21    1    1    2  504  501 -0.36883899659E+01 -0.22597461076E+02 -0.62013300593E+02  0.66105210975E+02  0.00000000000E+00 0.  1.
<mgrwt>
<rscale>  2 0.22896495E+02</rscale>
<asrwt>0</asrwt>
<pdfrwt beam="1">  1       21 0.34627964E-03 0.22896495E+02</pdfrwt>
<pdfrwt beam="2">  1       21 0.10827921E+00 0.22896495E+02</pdfrwt>
<totfact> 0.11114271E+07</totfact>
</mgrwt>
</event>
<event>
 4    1  0.4505197E+006  0.2039829E+02  0.7546771E-02  0.1737522E+00
         21   -1    0    0  504  501  0.00000000000E+00  0.00000000000E+00  0.73864285821E+03  0.73864285821E+03  0.00000000000E+00 0. -1.
         21   -1    0    0  503  502 -0.00000000000E+00 -0.00000000000E+00 -0.39908898042E+01  0.39908898042E+01  0.00000000000E+00 0.  1.
         21    1    1    2  503  501 -0.94229761688E+01 -0.18091366967E+02  0.23211331950E+02  0.30900743834E+02  0.00000000000E+00 0.  1.
         21    1    1    2  504  502  0.94229761688E+01  0.18091366967E+02  0.71144063646E+03  0.71173300418E+03  0.00000000000E+00 0. -1.
<mgrwt>
<rscale>  2 0.20398285E+02</rscale>
<asrwt>0</asrwt>
<pdfrwt beam="1">  1       21 0.11363725E+00 0.20398285E+02</pdfrwt>
<pdfrwt beam="2">  1       21 0.61398363E-03 0.20398285E+02</pdfrwt>
<totfact> 0.42283831E+06</totfact>
</mgrwt>
</event>
<event>
 4    1  0.4505197E+006  0.2031360E+02  0.7546771E-02  0.1739163E+00
         21   -1    0    0  502  501  0.00000000000E+00  0.00000000000E+00  0.27226294420E+01  0.27226294420E+01  0.00000000000E+00 0.  1.
         21   -1    0    0  504  502 -0.00000000000E+00 -0.00000000000E+00 -0.16624447765E+03  0.16624447765E+03  0.00000000000E+00 0.  1.
         21    1    1    2  503  501  0.12832402270E+02  0.15747117714E+02 -0.56652188460E+02  0.60183990576E+02  0.00000000000E+00 0.  1.
         21    1    1    2  504  503 -0.12832402270E+02 -0.15747117714E+02 -0.10686965974E+03  0.10878311651E+03  0.00000000000E+00 0.  1.
<mgrwt>
<rscale>  2 0.20313598E+02</rscale>
<asrwt>0</asrwt>
<pdfrwt beam="1">  1       21 0.41886609E-03 0.20313598E+02</pdfrwt>
<pdfrwt beam="2">  1       21 0.25576072E-01 0.20313598E+02</pdfrwt>
<totfact> 0.14011826E+08</totfact>
</mgrwt>
</event>
<event>
 4    1  0.4505197E+006  0.3339604E+02  0.7546771E-02  0.1563324E+00
         21   -1    0    0  504  501  0.00000000000E+00  0.00000000000E+00  0.35902291740E+03  0.35902291740E+03  0.00000000000E+00 0. -1.
         21   -1    0    0  501  502 -0.00000000000E+00 -0.00000000000E+00 -0.43194245876E+01  0.43194245876E+01  0.00000000000E+00 0. -1.
         21    1    1    2  503  502  0.29670795207E+02  0.15327727334E+02  0.81080932291E+02  0.87689297492E+02  0.00000000000E+00 0. -1.
         21    1    1    2  504  503 -0.29670795207E+02 -0.15327727334E+02  0.27362256052E+03  0.27565304449E+03  0.00000000000E+00 0. -1.
<mgrwt>
<rscale>  2 0.33396037E+02</rscale>
<asrwt>0</asrwt>
<pdfrwt beam="1">  1       21 0.55234272E-01 0.33396037E+02</pdfrwt>
<pdfrwt beam="2">  1       21 0.66452714E-03 0.33396037E+02</pdfrwt>
<totfact> 0.18556834E+07</totfact>
</mgrwt>
</event>
<event>
 4    1  0.4505197E+006  0.2292249E+02  0.7546771E-02  0.1692770E+00
         21   -1    0    0  502  501  0.00000000000E+00  0.00000000000E+00  0.33890695982E+03  0.33890695982E+03  0.00000000000E+00 0.  1.
         21   -1    0    0  504  502 -0.00000000000E+00 -0.00000000000E+00 -0.74723143732E+01  0.74723143732E+01  0.00000000000E+00 0. -1.
         21    1    1    2  503  501  0.21204629998E+02  0.87065618625E+01  0.31989641437E+03  0.32071662956E+03  0.00000000000E+00 0.  1.
         21    1    1    2  504  503 -0.21204629998E+02 -0.87065618625E+01  0.11538231073E+02  0.25662644625E+02  0.00000000000E+00 0. -1.
<mgrwt>
<rscale>  2 0.22922490E+02</rscale>
<asrwt>0</asrwt>
<pdfrwt beam="1">  1       21 0.52139520E-01 0.22922490E+02</pdfrwt>
<pdfrwt beam="2">  1       21 0.11495871E-02 0.22922490E+02</pdfrwt>
<totfact> 0.85627998E+06</totfact>
</mgrwt>
</event>
<event>
 4    1  0.4505197E+006  0.5407232E+02  0.7546771E-02  0.1424538E+00
         21   -1    0    0  503  501  0.00000000000E+00  0.00000000000E+00  0.11137237803E+03  0.11137237803E+03  0.00000000000E+00 0.  1.
         21   -1    0    0  501  502 -0.00000000000E+00 -0.00000000000E+00 -0.38501084478E+02  0.38501084478E+02  0.00000000000E+00 0. -1.
         21    1    1    2  503  504  0.19446066435E+02  0.50454594555E+02  0.78702436546E+02  0.95487638623E+02  0.00000000000E+00 0.  1.
         21    1    1    2  504  502 -0.19446066435E+02 -0.50454594555E+02 -0.58311429887E+01  0.54385823889E+02  0.00000000000E+00 0. -1.
<mgrwt>
<rscale>  2 0.54072318E+02</rscale>
<asrwt>0</asrwt>
<pdfrwt beam="1">  1       21 0.17134212E-01 0.54072318E+02</pdfrwt>
<pdfrwt beam="2">  1       21 0.59232438E-02 0.54072318E+02</pdfrwt>
<totfact> 0.57167963E+06</totfact>
</mgrwt>
</event>
<event>
 4    1  0.4505197E+006  0.2829935E+02  0.7546771E-02  0.1617685E+00
         21   -1    0    0  504  501  0.00000000000E+00  0.00000000000E+00  0.49760500804E+02  0.49760500804E+02  0.00000000000E+00 0.  1.
         21   -1    0    0  503  502 -0.00000000000E+00 -0.00000000000E+00 -0.24779158337E+02  0.24779158337E+02  0.00000000000E+00 0.  1.
         21    1    1    2  503  501  0.15094902046E+02 -0.23937362828E+02 -0.95740796585E+01  0.29875013109E+02  0.00000000000E+00 0.  1.
         21    1    1    2  504  502 -0.15094902046E+02  0.23937362828E+02  0.34555422126E+02  0.44664646033E+02  0.00000000000E+00 0.  1.
<mgrwt>
<rscale>  2 0.28299353E+02</rscale>
<asrwt>0</asrwt>
<pdfrwt beam="1">  1       21 0.76554616E-02 0.28299353E+02</pdfrwt>
<pdfrwt beam="2">  1       21 0.38121782E-02 0.28299353E+02</pdfrwt>
<totfact> 0.41683026E+07</totfact>
</mgrwt>
</event>
<event>
 4    1  0.4505197E+006  0.2193416E+02  0.7546771E-02  0.1709393E+00
         21   -1    0    0  502  501  0.00000000000E+00  0.00000000000E+00  0.12786849163E+02  0.12786849163E+02  0.00000000000E+00 0. -1.
         21   -1    0    0  503  502 -0.00000000000E+00 -0.00000000000E+00 -0.88944020346E+02  0.88944020346E+02  0.00000000000E+00 0.  1.
         21    1    1    2  503  504 -0.19415357345E+02 -0.10205460344E+02 -0.76715531785E+02  0.79789600442E+02  0.00000000000E+00 0.  1.
         21    1    1    2  504  501  0.19415357345E+02  0.10205460344E+02  0.55836060269E+00  0.21941269066E+02  0.00000000000E+00 0. -1.
<mgrwt>
<rscale>  2 0.21934163E+02</rscale>
<asrwt>0</asrwt>
<pdfrwt beam="1">  1       21 0.19672075E-02 0.21934163E+02</pdfrwt>
<pdfrwt beam="2">  1       21 0.13683696E-01 0.21934163E+02</pdfrwt>
<totfact> 0.41830445E+07</totfact>
</mgrwt>
</event>
<event>
 4    1  0.4505197E+006  0.3531045E+02  0.7546771E-02  0.1545861E+00
         21   -1    0    0  502  501  0.00000000000E+00  0.00000000000E+00  0.58592908280E+01  0.58592908280E+01  0.00000000000E+00 0.  1.
         21   -1    0    0  504  502 -0.00000000000E+00 -0.00000000000E+00 -0.71079600071E+03  0.71079600071E+03  0.00000000000E+00 0. -1.
         21    1    1    2  503  501  0.32533055866E+02 -0.13726920112E+02 -0.52536277074E+02  0.63299987903E+02  0.00000000000E+00 0.  1.
         21    1    1    2  504  503 -0.32533055866E+02  0.13726920112E+02 -0.65240043281E+03  0.65335530364E+03  0.00000000000E+00 0. -1.
<mgrwt>
<rscale>  2 0.35310453E+02</rscale>
<asrwt>0</asrwt>
<pdfrwt beam="1">  1       21 0.90142903E-03 0.35310453E+02</pdfrwt>
<pdfrwt beam="2">  1       21 0.10935327E+00 0.35310453E+02</pdfrwt>
<totfact> 0.27553355E+06</totfact>
</mgrwt>
</event>
<event>
 4    1  0.4505197E+006  0.2188227E+02  0.7546771E-02  0.1710296E+00
         21   -1    0    0  504  501  0.00000000000E+00  0.00000000000E+00  0.38601334897E+02  0.38601334897E+02  0.00000000000E+00 0.  1.
         21   -1    0    0  503  502 -0.00000000000E+00 -0.00000000000E+00 -0.13702072693E+02  0.13702072693E+02  0.00000000000E+00 0.  1.
         21    1    1    2  503  501  0.17930324927E+02  0.12543403734E+02  0.44021767009E+01  0.22320678505E+02  0.00000000000E+00 0.  1.
         21    1    1    2  504  502 -0.17930324927E+02 -0.12543403734E+02  0.20497085503E+02  0.29982729084E+02  0.00000000000E+00 0.  1.
<mgrwt>
<rscale>  2 0.21882265E+02</rscale>
<asrwt>0</asrwt>
<pdfrwt beam="1">  1       21 0.59386668E-02 0.21882265E+02</pdfrwt>
<pdfrwt beam="2">  1       21 0.21080112E-02 0.21882265E+02</pdfrwt>
<totfact> 0.14800857E+08</totfact>
</mgrwt>
</event>
<event>
 4    1  0.4505197E+006  0.2378467E+02  0.7546771E-02  0.1679098E+00
         21   -1    0    0  503  501  0.00000000000E+00  0.00000000000E+00  0.19188954150E+02  0.19188954150E+02  0.00000000000E+00 0.  1.
         21   -1    0    0  504  502 -0.00000000000E+00 -0.00000000000E+00 -0.10141694506E+03  0.10141694506E+03  0.00000000000E+00 0.  1.
         21    1    1    2  503  502  0.21936518693E+02  0.91923712388E+01  0.96734203241E+01  0.25676557443E+02  0.00000000000E+00 0.  1.
         21    1    1    2  504  501 -0.21936518693E+02 -0.91923712388E+01 -0.91901411232E+02  0.94929341764E+02  0.00000000000E+00 0.  1.
<mgrwt>
<rscale>  2 0.23784670E+02</rscale>
<asrwt>0</asrwt>
<pdfrwt beam="1">  1       21 0.29521467E-02 0.23784670E+02</pdfrwt>
<pdfrwt beam="2">  1       21 0.15602607E-01 0.23784670E+02</pdfrwt>
<totfact> 0.18226085E+07</totfact>
</mgrwt>
</event>
<event>
 4    1  0.4505197E+006  0.3482960E+02  0.7546771E-02  0.1550119E+00
         21   -1    0    0  504  501  0.00000000000E+00  0.00000000000E+00  0.96393157448E+03  0.96393157448E+03  0.00000000000E+00 0.  1.
         21   -1    0    0  503  502 -0.00000000000E+00 -0.00000000000E+00 -0.83045234090E+01  0.83045234090E+01  0.00000000000E+00 0. -1.
         21    1    1    2  503  501  0.21331508052E+02 -0.27533026032E+02  0.92558524226E+03  0.92624032597E+03  0.00000000000E+00 0.  1.
         21    1    1    2  504  502 -0.21331508052E+02  0.27533026032E+02  0.30041808817E+02  0.45995771928E+02  0.00000000000E+00 0. -1.
<mgrwt>
<rscale>  2 0.34829596E+02</rscale>
<asrwt>0</asrwt>
<pdfrwt beam="1">  1       21 0.14829708E+00 0.34829596E+02</pdfrwt>
<pdfrwt beam="2">  1       21 0.12776198E-02 0.34829596E+02</pdfrwt>
<totfact> 0.79201437E+05</totfact>
</mgrwt>
</event>
<event>
 4    1  0.4505197E+006  0.2327443E+02  0.7546771E-02  0.1687100E+00
         21   -1    0    0  504  501  0.00000000000E+00  0.00000000000E+00  0.71557982884E+03  0.71557982884E+03  0.00000000000E+00 0.  1.
         21   -1    0    0  503  502 -0.00000000000E+00 -0.00000000000E+00 -0.23611248534E+02  0.23611248534E+02  0.00000000000E+00 0. -1.
         21    1    1    2  503  501  0.90253649179E+01  0.21453251549E+02 -0.17638124780E+02  0.29202785136E+02  0.00000000000E+00 0. -1.
         21    1    1    2  504  502 -0.90253649179E+01 -0.21453251549E+02  0.70960670509E+03  0.70998829224E+03  0.00000000000E+00 0.  1.
<mgrwt>
<rscale>  2 0.23274433E+02</rscale>
<asrwt>0</asrwt>
<pdfrwt beam="1">  1       21 0.11008919E+00 0.23274433E+02</pdfrwt>
<pdfrwt beam="2">  1       21 0.36325003E-02 0.23274433E+02</pdfrwt>
<totfact> 0.30853447E+05</totfact>
</mgrwt>
</event>
<event>
 4    1  0.4505197E+006  0.2244697E+02  0.7546771E-02  0.1700635E+00
         21   -1    0    0  502  501  0.00000000000E+00  0.00000000000E+00  0.17467981714E+02  0.17467981714E+02  0.00000000000E+00 0.  1.
         21   -1    0    0  504  502 -0.00000000000E+00 -0.00000000000E+00 -0.29853756055E+02  0.29853756055E+02  0.00000000000E+00 0.  1.
         21    1    1    2  503  501 -0.63908428034E+01  0.21517988038E+02 -0.10541897152E+02  0.24799158787E+02  0.00000000000E+00 0.  1.
         21    1    1    2  504  503  0.63908428034E+01 -0.21517988038E+02 -0.18438771884E+01  0.22522578983E+02  0.00000000000E+00 0.  1.
<mgrwt>
<rscale>  2 0.22446975E+02</rscale>
<asrwt>0</asrwt>
<pdfrwt beam="1">  1       21 0.26873818E-02 0.22446975E+02</pdfrwt>
<pdfrwt beam="2">  1       21 0.45928856E-02 0.22446975E+02</pdfrwt>
<totfact> 0.15448324E+08</totfact>
</mgrwt>
</event>
<event>
 4    1  0.4505197E+006  0.2208985E+02  0.7546771E-02  0.1706703E+00
         21   -1    0    0  504  501  0.00000000000E+00  0.00000000000E+00  0.15718225940E+02  0.15718225940E+02  0.00000000000E+00 0.  1.
         21   -1    0    0  503  502 -0.00000000000E+00 -0.00000000000E+00 -0.31045133988E+02  0.31045133988E+02  0.00000000000E+00 0.  1.
         21    1    1    2  503  501 -0.83894674071E+01  0.20434733498E+02 -0.77838304243E+01  0.23421133888E+02  0.00000000000E+00 0.  1.
         21    1    1    2  504  502  0.83894674071E+01 -0.20434733498E+02 -0.75430776231E+01  0.23342226041E+02  0.00000000000E+00 0.  1.
<mgrwt>
<rscale>  2 0.22089851E+02</rscale>
<asrwt>0</asrwt>
<pdfrwt beam="1">  1       21 0.24181886E-02 0.22089851E+02</pdfrwt>
<pdfrwt beam="2">  1       21 0.47761744E-02 0.22089851E+02</pdfrwt>
<totfact> 0.17007551E+08</totfact>
</mgrwt>
</event>
<event>
 4    1  0.4505197E+006  0.2801295E+02  0.7546771E-02  0.1621152E+00
         21   -1    0    0  504  501  0.00000000000E+00  0.00000000000E+00  0.20347697909E+03  0.20347697909E+03  0.00000000000E+00 0. -1.
         21   -1    0    0  503  502 -0.00000000000E+00 -0.00000000000E+00 -0.17738601145E+02  0.17738601145E+02  0.00000000000E+00 0.  1.
         21    1    1    2  503  501 -0.27912037684E+02  0.23755532832E+01  0.19071728811E+03  0.19276360934E+03  0.00000000000E+00 0. -1.
         21    1    1    2  504  502  0.27912037684E+02 -0.23755532832E+01 -0.49789101720E+01  0.28451970891E+02  0.00000000000E+00 0.  1.
<mgrwt>
<rscale>  2 0.28012945E+02</rscale>
<asrwt>0</asrwt>
<pdfrwt beam="1">  1       21 0.31304149E-01 0.28012945E+02</pdfrwt>
<pdfrwt beam="2">  1       21 0.27290157E-02 0.28012945E+02</pdfrwt>
<totfact> 0.61753203E+06</totfact>
</mgrwt>
</event>
<event>
 4    1  0.4505197E+006  0.2840248E+02  0.7546771E-02  0.1616449E+00
         21   -1    0    0  504  501  0.00000000000E+00  0.00000000000E+00  0.24473284491E+02  0.24473284491E+02  0.00000000000E+00 0. -1.
         21   -1    0    0  501  502 -0.00000000000E+00 -0.00000000000E+00 -0.73427364187E+03  0.73427364187E+03  0.00000000000E+00 0.  1.
         21    1    1    2  503  502 -0.28146288190E+02 -0.38062396311E+01 -0.72566058087E+03  0.72621620722E+03  0.00000000000E+00 0.  1.
         21    1    1    2  504  503  0.28146288190E+02  0.38062396311E+01  0.15860223487E+02  0.32530719145E+02  0.00000000000E+00 0. -1.
<mgrwt>
<rscale>  2 0.28402482E+02</rscale>
<asrwt>0</asrwt>
<pdfrwt beam="1">  1       21 0.37651207E-02 0.28402482E+02</pdfrwt>
<pdfrwt beam="2">  1       21 0.11296518E+00 0.28402482E+02</pdfrwt>
<totfact> 0.27661580E+05</totfact>
</mgrwt>
</event>
<event>
 4    1  0.4505197E+006  0.3431011E+02  0.7546771E-02  0.1554814E+00
         21   -1    0    0  503  501  0.00000000000E+00  0.00000000000E+00  0.52517591781E+01  0.52517591781E+01  0.00000000000E+00 0. -1.
         21   -1    0    0  501  502 -0.00000000000E+00 -0.00000000000E+00 -0.27303617468E+03  0.27303617468E+03  0.00000000000E+00 0.  1.
         21    1    1    2  503  504 -0.29268254915E+02 -0.17903984497E+02 -0.75015167372E+02  0.82489143179E+02  0.00000000000E+00 0. -1.
         21    1    1    2  504  502  0.29268254915E+02  0.17903984497E+02 -0.19276924813E+03  0.19579879068E+03  0.00000000000E+00 0.  1.
<mgrwt>
<rscale>  2 0.34310106E+02</rscale>
<asrwt>0</asrwt>
<pdfrwt beam="1">  1       21 0.80796290E-03 0.34310106E+02</pdfrwt>
<pdfrwt beam="2">  1       21 0.42005568E-01 0.34310106E+02</pdfrwt>
<totfact> 0.23769812E+07</totfact>
</mgrwt>
</event>
<event>
 4    1  0.4505197E+006  0.3221585E+02  0.7546771E-02  0.1574812E+00
         21   -1    0    0  503  501  0.00000000000E+00  0.00000000000E+00  0.88884672169E+02  0.88884672169E+02  0.00000000000E+00 0.  1.
         21   -1    0    0  501  502 -0.00000000000E+00 -0.00000000000E+00 -0.14031518654E+02  0.14031518654E+02  0.00000000000E+00 0.  1.
         21    1    1    2  503  504  0.30919005095E+02 -0.90485467799E+01  0.58507973144E+02  0.66791047277E+02  0.00000000000E+00 0.  1.
         21    1    1    2  504  502 -0.30919005095E+02  0.90485467799E+01  0.16345180371E+02  0.36125143547E+02  0.00000000000E+00 0.  1.
<mgrwt>
<rscale>  2 0.32215851E+02</rscale>
<asrwt>0</asrwt>
<pdfrwt beam="1">  1       21 0.13674565E-01 0.32215851E+02</pdfrwt>
<pdfrwt beam="2">  1       21 0.21586952E-02 0.32215851E+02</pdfrwt>
<totfact> 0.39595736E+07</totfact>
</mgrwt>
</event>
<event>
 4    1  0.4505197E+006  0.3072413E+02  0.7546771E-02  0.1590220E+00
         21   -1    0    0  503  501  0.00000000000E+00  0.00000000000E+00  0.12614739221E+01  0.12614739221E+01  0.00000000000E+00 0. -1.
         21   -1    0    0  504  502 -0.00000000000E+00 -0.00000000000E+00 -0.99417904259E+03  0.99417904259E+03  0.00000000000E+00 0. -1.
         21    1    1    2  503  502  0.25791811009E+02 -0.16695938907E+02 -0.24894117441E+03  0.25082998267E+03  0.00000000000E+00 0. -1.
         21    1    1    2  504  501 -0.25791811009E+02  0.16695938907E+02 -0.74397639426E+03  0.74461053384E+03  0.00000000000E+00 0. -1.
<mgrwt>
<rscale>  2 0.30724126E+02</rscale>
<asrwt>0</asrwt>
<pdfrwt beam="1">  1       21 0.19407229E-03 0.30724126E+02</pdfrwt>
<pdfrwt beam="2">  1       21 0.15295111E+00 0.30724126E+02</pdfrwt>
<totfact> 0.12128018E+07</totfact>
</mgrwt>
</event>
<event>
 4    1  0.4505197E+006  0.2901082E+02  0.7546771E-02  0.1609287E+00
         21   -1    0    0  503  501  0.00000000000E+00  0.00000000000E+00  0.12296887700E+01  0.12296887700E+01  0.00000000000E+00 0.  1.
         21   -1    0    0  504  502 -0.00000000000E+00 -0.00000000000E+00 -0.71536836774E+03  0.71536836774E+03  0.00000000000E+00 0.  1.
         21    1    1    2  503  502  0.33607910145E+01  0.28815492995E+02 -0.43159005469E+03  0.43256398701E+03  0.00000000000E+00 0.  1.
         21    1    1    2  504  501 -0.33607910145E+01 -0.28815492995E+02 -0.28254862428E+03  0.28403406950E+03  0.00000000000E+00 0.  1.
<mgrwt>
<rscale>  2 0.29010818E+02</rscale>
<asrwt>0</asrwt>
<pdfrwt beam="1">  1       21 0.18918342E-03 0.29010818E+02</pdfrwt>
<pdfrwt beam="2">  1       21 0.11005636E+00 0.29010818E+02</pdfrwt>
<totfact> 0.26902597E+07</totfact>
</mgrwt>
</event>
<event>
 4    1  0.4505197E+006  0.2990051E+02  0.7546771E-02  0.1599191E+00
         21   -1    0    0  503  501  0.00000000000E+00  0.00000000000E+00  0.34853236789E+01  0.34853236789E+01  0.00000000000E+00 0.  1.
         21   -1    0    0  504  502 -0.00000000000E+00 -0.00000000000E+00 -0.25673175648E+03  0.25673175648E+03  0.00000000000E+00 0.  1.
         21    1    1    2  503  502  0.63680822980E+01 -0.29214520664E+02 -0.12284992076E+03  0.12643632279E+03  0.00000000000E+00 0.  1.
         21    1    1    2  504  501 -0.63680822980E+01  0.29214520664E+02 -0.13039651204E+03  0.13378075737E+03  0.00000000000E+00 0.  1.
<mgrwt>
<rscale>  2 0.29900513E+02</rscale>
<asrwt>0</asrwt>
<pdfrwt beam="1">  1       21 0.53620346E-03 0.29900513E+02</pdfrwt>
<pdfrwt beam="2">  1       21 0.39497207E-01 0.29900513E+02</pdfrwt>
<totfact> 0.48249220E+07</totfact>
</mgrwt>
</event>
<event>
 4    1  0.4505197E+006  0.2162235E+02  0.7546771E-02  0.1714866E+00
         21   -1    0    0  504  501  0.00000000000E+00  0.00000000000E+00  0.44119275579E+02  0.44119275579E+02  0.00000000000E+00 0.  1.
         21   -1    0    0  501  502 -0.00000000000E+00 -0.00000000000E+00 -0.99387215756E+02  0.99387215756E+02  0.00000000000E+00 0. -1.
         21    1    1    2  503  502 -0.49330463406E+01  0.21052103820E+02 -0.95454186840E+02  0.97872507921E+02  0.00000000000E+00 0. -1.
         21    1    1    2  504  503  0.49330463406E+01 -0.21052103820E+02  0.40186246663E+02  0.45633983415E+02  0.00000000000E+00 0.  1.
<mgrwt>
<rscale>  2 0.21622350E+02</rscale>
<asrwt>0</asrwt>
<pdfrwt beam="1">  1       21 0.67875810E-02 0.21622350E+02</pdfrwt>
<pdfrwt beam="2">  1       21 0.15290341E-01 0.21622350E+02</pdfrwt>
<totfact> 0.49551692E+06</totfact>
</mgrwt>
</event>
<event>
 4    1  0.4505197E+006  0.2209421E+02  0.7546771E-02  0.1706628E+00
         21   -1    0    0  503  501  0.00000000000E+00  0.00000000000E+00  0.10339862254E+02  0.10339862254E+02  0.00000000000E+00 0. -1.
         21   -1    0    0  504  502 -0.00000000000E+00 -0.00000000000E+00 -0.56648612376E+02  0.56648612376E+02  0.00000000000E+00 0. -1.
         21    1    1    2  503  502 -0.89048127917E+01  0.20220242652E+02 -0.94830852622E+01  0.24043352717E+02  0.00000000000E+00 0. -1.
         21    1    1    2  504  501  0.89048127917E+01 -0.20220242652E+02 -0.36825664860E+02  0.42945121914E+02  0.00000000000E+00 0. -1.
<mgrwt>
<rscale>  2 0.22094205E+02</rscale>
<asrwt>0</asrwt>
<pdfrwt beam="1">  1       21 0.15907480E-02 0.22094205E+02</pdfrwt>
<pdfrwt beam="2">  1       21 0.87151712E-02 0.22094205E+02</pdfrwt>
<totfact> 0.12261931E+08</totfact>
</mgrwt>
</event>
<event>
 4    1  0.4505197E+006  0.2518916E+02  0.7546771E-02  0.1658300E+00
         21   -1    0    0  502  501  0.00000000000E+00  0.00000000000E+00  0.25666603309E+01  0.25666603309E+01  0.00000000000E+00 0.  1.
         21   -1    0    0  503  502 -0.00000000000E+00 -0.00000000000E+00 -0.72828537590E+03  0.72828537590E+03  0.00000000000E+00 0. -1.
         21    1    1    2  503  504 -0.11658052445E+02 -0.22328980395E+02 -0.65985979586E+03  0.66034039990E+03  0.00000000000E+00 0. -1.
         21    1    1    2  504  501  0.11658052445E+02  0.22328980395E+02 -0.65858919709E+02  0.70511636328E+02  0.00000000000E+00 0.  1.
<mgrwt>
<rscale>  2 0.25189155E+02</rscale>
<asrwt>0</asrwt>
<pdfrwt beam="1">  1       21 0.39487102E-03 0.25189155E+02</pdfrwt>
<pdfrwt beam="2">  1       21 0.11204385E+00 0.25189155E+02</pdfrwt>
<totfact> 0.86218888E+06</totfact>
</mgrwt>
</event>
<event>
 4    1  0.4505197E+006  0.5786675E+02  0.7546771E-02  0.1407008E+00
         21   -1    0    0  504  501  0.00000000000E+00  0.00000000000E+00  0.22279366987E+03  0.22279366987E+03  0.00000000000E+00 0. -1.
         21   -1    0    0  503  502 -0.00000000000E+00 -0.00000000000E+00 -0.37543824481E+02  0.37543824481E+02  0.00000000000E+00 0. -1.
         21    1    1    2  503  501  0.33956735001E+02  0.46856166583E+02  0.19342557632E+03  0.20189604695E+03  0.00000000000E+00 0. -1.
         21    1    1    2  504  502 -0.33956735001E+02 -0.46856166583E+02 -0.81757309266E+01  0.58441447407E+02  0.00000000000E+00 0. -1.
<mgrwt>
<rscale>  2 0.57866745E+02</rscale>
<asrwt>0</asrwt>
<pdfrwt beam="1">  1       21 0.34275949E-01 0.57866745E+02</pdfrwt>
<pdfrwt beam="2">  1       21 0.57759731E-02 0.57866745E+02</pdfrwt>
<totfact> 0.16718970E+06</totfact>
</mgrwt>
</event>
<event>
 4    1  0.4505197E+006  0.2300540E+02  0.7546771E-02  0.1691423E+00
         21   -1    0    0  504  501  0.00000000000E+00  0.00000000000E+00  0.12448924691E+01  0.12448924691E+01  0.00000000000E+00 0.  1.
         21   -1    0    0  503  502 -0.00000000000E+00 -0.00000000000E+00 -0.47889130407E+03  0.47889130407E+03  0.00000000000E+00 0.  1.
         21    1    1    2  503  501 -0.21371153256E+02 -0.85160018971E+01 -0.31925486793E+03  0.32008267554E+03  0.00000000000E+00 0.  1.
         21    1    1    2  504  502  0.21371153256E+02  0.85160018971E+01 -0.15839154367E+03  0.16005352101E+03  0.00000000000E+00 0.  1.
<mgrwt>
<rscale>  2 0.23005401E+02</rscale>
<asrwt>0</asrwt>
<pdfrwt beam="1">  1       21 0.19152173E-03 0.23005401E+02</pdfrwt>
<pdfrwt beam="2">  1       21 0.73675657E-01 0.23005401E+02</pdfrwt>
<totfact> 0.59960070E+07</totfact>
</mgrwt>
</event>
<event>
 4    1  0.4505197E+006  0.2114843E+02  0.7546771E-02  0.1723410E+00
         21   -1    0    0  503  501  0.00000000000E+00  0.00000000000E+00  0.61961135422E+02  0.61961135422E+02  0.00000000000E+00 0.  1.
         21   -1    0    0  504  502 -0.00000000000E+00 -0.00000000000E+00 -0.42347990094E+02  0.42347990094E+02  0.00000000000E+00 0. -1.
         21    1    1    2  503  502 -0.20477164397E+02 -0.52860007660E+01  0.57308678940E+02  0.61086338470E+02  0.00000000000E+00 0.  1.
         21    1    1    2  504  501  0.20477164397E+02  0.52860007660E+01 -0.37695533612E+02  0.43222787047E+02  0.00000000000E+00 0. -1.
<mgrwt>
<rscale>  2 0.21148429E+02</rscale>
<asrwt>0</asrwt>
<pdfrwt beam="1">  1       21 0.95324824E-02 0.21148429E+02</pdfrwt>
<pdfrwt beam="2">  1       21 0.65150754E-02 0.21148429E+02</pdfrwt>
<totfact> 0.11608249E+07</totfact>
</mgrwt>
</event>
<event>
 4    1  0.4505197E+006  0.2768347E+02  0.7546771E-02  0.1625203E+00
         21   -1    0    0  502  501  0.00000000000E+00  0.00000000000E+00  0.84303735679E+02  0.84303735679E+02  0.00000000000E+00 0.  1.
         21   -1    0    0  504  502 -0.00000000000E+00 -0.00000000000E+00 -0.10479888856E+02  0.10479888856E+02  0.00000000000E+00 0.  1.
         21    1    1    2  503  501  0.36884085374E+00  0.27681010628E+02  0.54166963151E+02  0.60831195040E+02  0.00000000000E+00 0.  1.
         21    1    1    2  504  503 -0.36884085374E+00 -0.27681010628E+02  0.19656883672E+02  0.33952429495E+02  0.00000000000E+00 0.  1.
<mgrwt>
<rscale>  2 0.27683468E+02</rscale>
<asrwt>0</asrwt>
<pdfrwt beam="1">  1       21 0.12969805E-01 0.27683468E+02</pdfrwt>
<pdfrwt beam="2">  1       21 0.16122907E-02 0.27683468E+02</pdfrwt>
<totfact> 0.65789133E+07</totfact>
</mgrwt>
</event>
<event>
 4    1  0.4505197E+006  0.2274863E+02  0.7546771E-02  0.1695617E+00
         21   -1    0    0  503  501  0.00000000000E+00  0.00000000000E+00  0.70003562049E+02  0.70003562049E+02  0.00000000000E+00 0. -1.
         21   -1    0    0  504  502 -0.00000000000E+00 -0.00000000000E+00 -0.75549489546E+01  0.75549489546E+01  0.00000000000E+00 0.  1.
         21    1    1    2  503  502 -0.15192540380E+02 -0.16931833698E+02  0.25537580065E+02  0.34200413319E+02  0.00000000000E+00 0.  1.
         21    1    1    2  504  501  0.15192540380E+02  0.16931833698E+02  0.36911033030E+02  0.43358097685E+02  0.00000000000E+00 0. -1.
<mgrwt>
<rscale>  2 0.22748632E+02</rscale>
<asrwt>0</asrwt>
<pdfrwt beam="1">  1       21 0.10769778E-01 0.22748632E+02</pdfrwt>
<pdfrwt beam="2">  1       21 0.11622999E-02 0.22748632E+02</pdfrwt>
<totfact> 0.14029955E+08</totfact>
</mgrwt>
</event>
<event>
 4    1  0.4505197E+006  0.2589427E+02  0.7546771E-02  0.1648480E+00
         21   -1    0    0  503  501  0.00000000000E+00  0.00000000000E+00  0.58927777913E+02  0.58927777913E+02  0.00000000000E+00 0.  1.
         21   -1    0    0  504  502 -0.00000000000E+00 -0.00000000000E+00 -0.45433491917E+02  0.45433491917E+02  0.00000000000E+00 0. -1.
         21    1    1    2  503  502 -0.16930991651E+02 -0.19592210474E+02 -0.38429225381E+02  0.46339168669E+02  0.00000000000E+00 0. -1.
         21    1    1    2  504  501  0.16930991651E+02  0.19592210474E+02  0.51923511377E+02  0.58022101162E+02  0.00000000000E+00 0.  1.
<mgrwt>
<rscale>  2 0.25894269E+02</rscale>
<asrwt>0</asrwt>
<pdfrwt beam="1">  1       21 0.90658120E-02 0.25894269E+02</pdfrwt>
<pdfrwt beam="2">  1       21 0.69897680E-02 0.25894269E+02</pdfrwt>
<totfact> 0.11710589E+07</totfact>
</mgrwt>
</event>
<event>
 4    1  0.4505197E+006  0.2041675E+02  0.7546771E-02  0.1737165E+00
         21   -1    0    0  503  501  0.00000000000E+00  0.00000000000E+00  0.21693116369E+02  0.21693116369E+02  0.00000000000E+00 0.  1.
         21   -1    0    0  504  502 -0.00000000000E+00 -0.00000000000E+00 -0.19437650141E+02  0.19437650141E+02  0.00000000000E+00 0.  1.
         21    1    1    2  503  502 -0.17706554072E+02 -0.10164719437E+02  0.33264064987E+01  0.20685950752E+02  0.00000000000E+00 0.  1.
         21    1    1    2  504  501  0.17706554072E+02  0.10164719437E+02 -0.10709402699E+01  0.20444815758E+02  0.00000000000E+00 0.  1.
<mgrwt>
<rscale>  2 0.20416747E+02</rscale>
<asrwt>0</asrwt>
<pdfrwt beam="1">  1       21 0.33374025E-02 0.20416747E+02</pdfrwt>
<pdfrwt beam="2">  1       21 0.29904077E-02 0.20416747E+02</pdfrwt>
<totfact> 0.20974447E+08</totfact>
</mgrwt>
</event>
<event>
 4    1  0.4505197E+006  0.2942514E+02  0.7546771E-02  0.1604531E+00
         21   -1    0    0  503  501  0.00000000000E+00  0.00000000000E+00  0.32451333525E+03  0.32451333525E+03  0.00000000000E+00 0. -1.
         21   -1    0    0  504  502 -0.00000000000E+00 -0.00000000000E+00 -0.48418765445E+01  0.48418765445E+01  0.00000000000E+00 0. -1.
         21    1    1    2  503  502 -0.87162295186E+01  0.28104563025E+02  0.49495579125E+02  0.57581693903E+02  0.00000000000E+00 0. -1.
         21    1    1    2  504  501  0.87162295186E+01 -0.28104563025E+02  0.27017587958E+03  0.27177351789E+03  0.00000000000E+00 0. -1.
<mgrwt>
<rscale>  2 0.29425144E+02</rscale>
<asrwt>0</asrwt>
<pdfrwt beam="1">  1       21 0.49925111E-01 0.29425144E+02</pdfrwt>
<pdfrwt beam="2">  1       21 0.74490434E-03 0.29425144E+02</pdfrwt>
<totfact> 0.18706588E+07</totfact>
</mgrwt>
</event>
<event>
 4    1  0.4505197E+006  0.2578217E+02  0.7546771E-02  0.1650015E+00
         21   -1    0    0  504  501  0.00000000000E+00  0.00000000000E+00  0.17894881562E+02  0.17894881562E+02  0.00000000000E+00 0.  1.
         21   -1    0    0  503  502 -0.00000000000E+00 -0.00000000000E+00 -0.44352438217E+02  0.44352438217E+02  0.00000000000E+00 0. -1.
         21    1    1    2  503  501 -0.19328528381E+02 -0.17062477159E+02 -0.25774554138E+02  0.36456107543E+02  0.00000000000E+00 0. -1.
         21    1    1    2  504  502  0.19328528381E+02  0.17062477159E+02 -0.68300251697E+00  0.25791212236E+02  0.00000000000E+00 0.  1.
<mgrwt>
<rscale>  2 0.25782167E+02</rscale>
<asrwt>0</asrwt>
<pdfrwt beam="1">  1       21 0.27530587E-02 0.25782167E+02</pdfrwt>
<pdfrwt beam="2">  1       21 0.68234519E-02 0.25782167E+02</pdfrwt>
<totfact> 0.82019067E+07</totfact>
</mgrwt>
</event>
<event>
 4    1  0.4505197E+006  0.2677062E+02  0.7546771E-02  0.1636799E+00
         21   -1    0    0  504  501  0.00000000000E+00  0.00000000000E+00  0.34653077953E+03  0.34653077953E+03  0.00000000000E+00 0. -1.
         21   -1    0    0  503  502 -0.00000000000E+00 -0.00000000000E+00 -0.28978662788E+01  0.28978662788E+01  0.00000000000E+00 0. -1.
         21    1    1    2  503  501  0.17489861883E+01 -0.26713429196E+02  0.26530593539E+03  0.26665315600E+03  0.00000000000E+00 0. -1.
         21    1    1    2  504  502 -0.17489861883E+01  0.26713429196E+02  0.78326977861E+02  0.82775489808E+02  0.00000000000E+00 0. -1.
<mgrwt>
<rscale>  2 0.26770623E+02</rscale>
<asrwt>0</asrwt>
<pdfrwt beam="1">  1       21 0.53312395E-01 0.26770623E+02</pdfrwt>
<pdfrwt beam="2">  1       21 0.44582586E-03 0.26770623E+02</pdfrwt>
<totfact> 0.34693543E+07</totfact>
</mgrwt>
</event>
<event>
 4    1  0.4505197E+006  0.2175478E+02  0.7546771E-02  0.1712528E+00
         21   -1    0    0  504  501  0.00000000000E+00  0.00000000000E+00  0.64249684469E+01  0.64249684469E+01  0.00000000000E+00 0. -1.
         21   -1    0    0  503  502 -0.00000000000E+00 -0.00000000000E+00 -0.10722796465E+03  0.10722796465E+03  0.00000000000E+00 0. -1.
         21    1    1    2  503  501 -0.21503863273E+02  0.32945961827E+01 -0.18607016242E+02  0.28626762882E+02  0.00000000000E+00 0. -1.
         21    1    1    2  504  502  0.21503863273E+02 -0.32945961827E+01 -0.82195979965E+02  0.85026170218E+02  0.00000000000E+00 0. -1.
<mgrwt>
<rscale>  2 0.21754781E+02</rscale>
<asrwt>0</asrwt>
<pdfrwt beam="1">  1       21 0.98845672E-03 0.21754781E+02</pdfrwt>
<pdfrwt beam="2">  1       21 0.16496609E-01 0.21754781E+02</pdfrwt>
<totfact> 0.86124439E+07</totfact>
</mgrwt>
</event>
<event>
 4    1  0.4505197E+006  0.2157593E+02  0.7546771E-02  0.1715691E+00
         21   -1    0    0  504  501  0.00000000000E+00  0.00000000000E+00  0.11504107609E+03  0.11504107609E+03  0.00000000000E+00 0. -1.
         21   -1    0    0  503  502 -0.00000000000E+00 -0.00000000000E+00 -0.43784388978E+01  0.43784388978E+01  0.00000000000E+00 0.  1.
         21    1    1    2  503  501  0.16613781275E+02 -0.13766002718E+02  0.71770334242E+02  0.74943321493E+02  0.00000000000E+00 0. -1.
         21    1    1    2  504  502 -0.16613781275E+02  0.13766002718E+02  0.38892302952E+02  0.44476193497E+02  0.00000000000E+00 0.  1.
<mgrwt>
<rscale>  2 0.21575925E+02</rscale>
<asrwt>0</asrwt>
<pdfrwt beam="1">  1       21 0.17698625E-01 0.21575925E+02</pdfrwt>
<pdfrwt beam="2">  1       21 0.67360607E-03 0.21575925E+02</pdfrwt>
<totfact> 0.13487279E+08</totfact>
</mgrwt>
</event>
<event>
 4    1  0.4505197E+006  0.2816148E+02  0.7546771E-02  0.1619348E+00
         21   -1    0    0  502  501  0.00000000000E+00  0.00000000000E+00  0.11957584756E+01  0.11957584756E+01  0.00000000000E+00 0.  1.
         21   -1    0    0  503  502 -0.00000000000E+00 -0.00000000000E+00 -0.69450512968E+03  0.69450512968E+03  0.00000000000E+00 0.  1.
         21    1    1    2  503  504  0.11024367512E+02  0.25913934890E+02 -0.42046561496E+03  0.42140764357E+03  0.00000000000E+00 0.  1.
         21    1    1    2  504  501 -0.11024367512E+02 -0.25913934890E+02 -0.27284375625E+03  0.27429324458E+03  0.00000000000E+00 0.  1.
<mgrwt>
<rscale>  2 0.28161475E+02</rscale>
<asrwt>0</asrwt>
<pdfrwt beam="1">  1       21 0.18396312E-03 0.28161475E+02</pdfrwt>
<pdfrwt beam="2">  1       21 0.10684678E+00 0.28161475E+02</pdfrwt>
<totfact> 0.29790441E+07</totfact>
</mgrwt>
</event>
<event>
 4    1  0.4505197E+006  0.4193841E+02  0.7546771E-02  0.1494413E+00
         21   -1    0    0  503  501  0.00000000000E+00  0.00000000000E+00  0.92125039095E+02  0.92125039095E+02  0.00000000000E+00 0.  1.
         21   -1    0    0  504  502 -0.00000000000E+00 -0.00000000000E+00 -0.19103177454E+02  0.19103177454E+02  0.00000000000E+00 0. -1.
         21    1    1    2  503  502 -0.24495580667E+02  0.34041101564E+02  0.37869946317E+02  0.56506308515E+02  0.00000000000E+00 0.  1.
         21    1    1    2  504  501  0.24495580667E+02 -0.34041101564E+02  0.35151915325E+02  0.54721908034E+02  0.00000000000E+00 0. -1.
<mgrwt>
<rscale>  2 0.41938408E+02</rscale>
<asrwt>0</asrwt>
<pdfrwt beam="1">  1       21 0.14173083E-01 0.41938408E+02</pdfrwt>
<pdfrwt beam="2">  1       21 0.29389504E-02 0.41938408E+02</pdfrwt>
<totfact> 0.24039694E+07</totfact>
</mgrwt>
</event>
<event>
 4    1  0.4505197E+006  0.2022891E+02  0.7546771E-02  0.1740814E+00
         21   -1    0    0  504  501  0.00000000000E+00  0.00000000000E+00  0.74723022431E+02  0.74723022431E+02  0.00000000000E+00 0.  1.
         21   -1    0    0  503  502 -0.00000000000E+00 -0.00000000000E+00 -0.26277436013E+02  0.26277436013E+02  0.00000000000E+00 0.  1.
         21    1    1    2  503  501  0.15922081415E+01 -0.20166151818E+02 -0.20708089110E+02  0.28948812765E+02  0.00000000000E+00 0.  1.
         21    1    1    2  504  502 -0.15922081415E+01  0.20166151818E+02  0.69153675528E+02  0.72051645678E+02  0.00000000000E+00 0.  1.
<mgrwt>
<rscale>  2 0.20228910E+02</rscale>
<asrwt>0</asrwt>
<pdfrwt beam="1">  1       21 0.11495850E-01 0.20228910E+02</pdfrwt>
<pdfrwt beam="2">  1       21 0.40426825E-02 0.20228910E+02</pdfrwt>
<totfact> 0.18000157E+07</totfact>
</mgrwt>
</event>
<event>
 4    1  0.4505197E+006  0.2402765E+02  0.7546771E-02  0.1675374E+00
         21   -1    0    0  504  501  0.00000000000E+00  0.00000000000E+00  0.13050102512E+03  0.13050102512E+03  0.00000000000E+00 0. -1.
         21   -1    0    0  501  502 -0.00000000000E+00 -0.00000000000E+00 -0.74275738831E+01  0.74275738831E+01  0.00000000000E+00 0.  1.
         21    1    1    2  503  502  0.15203759690E+02  0.18605741551E+02  0.17681154886E+02  0.29832049301E+02  0.00000000000E+00 0.  1.
         21    1    1    2  504  503 -0.15203759690E+02 -0.18605741551E+02  0.10539229635E+03  0.10809654970E+03  0.00000000000E+00 0. -1.
<mgrwt>
<rscale>  2 0.24027649E+02</rscale>
<asrwt>0</asrwt>
<pdfrwt beam="1">  1       21 0.20077079E-01 0.24027649E+02</pdfrwt>
<pdfrwt beam="2">  1       21 0.11427038E-02 0.24027649E+02</pdfrwt>
<totfact> 0.50608160E+07</totfact>
</mgrwt>
</event>
<event>
 4    1  0.4505197E+006  0.2456966E+02  0.7546771E-02  0.1667261E+00
         21   -1    0    0  502  501  0.00000000000E+00  0.00000000000E+00  0.69818279721E+01  0.69818279721E+01  0.00000000000E+00 0. -1.
         21   -1    0    0  504  502 -0.00000000000E+00 -0.00000000000E+00 -0.23847104334E+03  0.23847104334E+03  0.00000000000E+00 0. -1.
         21    1    1    2  503  501 -0.20137927659E+02  0.14075934751E+02 -0.17760885777E+02  0.30316944653E+02  0.00000000000E+00 0. -1.
         21    1    1    2  504  503  0.20137927659E+02 -0.14075934751E+02 -0.21372832959E+03  0.21513592666E+03  0.00000000000E+00 0. -1.
<mgrwt>
<rscale>  2 0.24569657E+02</rscale>
<asrwt>0</asrwt>
<pdfrwt beam="1">  1       21 0.10741275E-02 0.24569657E+02</pdfrwt>
<pdfrwt beam="2">  1       21 0.36687847E-01 0.24569657E+02</pdfrwt>
<totfact> 0.18810628E+07</totfact>
</mgrwt>
</event>
<event>
 4    1  0.4505197E+006  0.2382868E+02  0.7546771E-02  0.1678419E+00
         21   -1    0    0  504  501  0.00000000000E+00  0.00000000000E+00  0.20887967526E+02  0.20887967526E+02  0.00000000000E+00 0. -1.
         21   -1    0    0  503  502 -0.00000000000E+00 -0.00000000000E+00 -0.59002112955E+02  0.59002112955E+02  0.00000000000E+00 0. -1.
         21    1    1    2  503  501 -0.51304448273E+01 -0.23269823704E+02 -0.48391007714E+02  0.53939742184E+02  0.00000000000E+00 0. -1.
         21    1    1    2  504  502  0.51304448273E+01  0.23269823704E+02  0.10276862284E+02  0.25950338297E+02  0.00000000000E+00 0. -1.
<mgrwt>
<rscale>  2 0.23828684E+02</rscale>
<asrwt>0</asrwt>
<pdfrwt beam="1">  1       21 0.32135334E-02 0.23828684E+02</pdfrwt>
<pdfrwt beam="2">  1       21 0.90772482E-02 0.23828684E+02</pdfrwt>
<totfact> 0.39611926E+07</totfact>
</mgrwt>
</event>
<event>
 4    1  0.4505197E+006  0.3531529E+02  0.7546771E-02  0.1545818E+00
         21   -1    0    0  503  501  0.00000000000E+00  0.00000000000E+00  0.37167744555E+02  0.37167744555E+02  0.00000000000E+00 0.  1.
         21   -1    0    0  504  502 -0.00000000000E+00 -0.00000000000E+00 -0.12449634281E+03  0.12449634281E+03  0.00000000000E+00 0.  1.
         21    1    1    2  503  502  0.93131858503E+01  0.34065148510E+02  0.25420985530E+02  0.43513173626E+02  0.00000000000E+00 0.  1.
         21    1    1    2  504  501 -0.93131858503E+01 -0.34065148510E+02 -0.11274958378E+03  0.11815091374E+03  0.00000000000E+00 0.  1.
<mgrwt>
<rscale>  2 0.35315291E+02</rscale>
<asrwt>0</asrwt>
<pdfrwt beam="1">  1       21 0.57181146E-02 0.35315291E+02</pdfrwt>
<pdfrwt beam="2">  1       21 0.19153283E-01 0.35315291E+02</pdfrwt>
<totfact> 0.47510104E+06</totfact>
</mgrwt>
</event>
<event>
 4    1  0.4505197E+006  0.3169177E+02  0.7546771E-02  0.1580107E+00
         21   -1    0    0  502  501  0.00000000000E+00  0.00000000000E+00  0.24538105436E+01  0.24538105436E+01  0.00000000000E+00 0.  1.
         21   -1    0    0  504  502 -0.00000000000E+00 -0.00000000000E+00 -0.17585108758E+04  0.17585108758E+04  0.00000000000E+00 0. -1.
         21    1    1    2  503  501 -0.87271570156E+01  0.30466459367E+02 -0.10679397703E+03  0.11139713617E+03  0.00000000000E+00 0.  1.
         21    1    1    2  504  503  0.87271570156E+01 -0.30466459367E+02 -0.16492630882E+04  0.16495675501E+04  0.00000000000E+00 0. -1.
<mgrwt>
<rscale>  2 0.31691772E+02</rscale>
<asrwt>0</asrwt>
<pdfrwt beam="1">  1       21 0.37750701E-03 0.31691772E+02</pdfrwt>
<pdfrwt beam="2">  1       21 0.27054178E+00 0.31691772E+02</pdfrwt>
<totfact> 0.98330824E+05</totfact>
</mgrwt>
</event>
<event>
 4    1  0.4505197E+006  0.2074269E+02  0.7546771E-02  0.1730950E+00
         21   -1    0    0  504  501  0.00000000000E+00  0.00000000000E+00  0.49358487114E+01  0.49358487114E+01  0.00000000000E+00 0. -1.
         21   -1    0    0  503  502 -0.00000000000E+00 -0.00000000000E+00 -0.83042486270E+03  0.83042486270E+03  0.00000000000E+00 0.  1.
         21    1    1    2  503  501  0.19126546215E+02  0.80271014489E+01 -0.17593869224E+02  0.27199326500E+02  0.00000000000E+00 0. -1.
         21    1    1    2  504  502 -0.19126546215E+02 -0.80271014489E+01 -0.80789514477E+03  0.80816138492E+03  0.00000000000E+00 0.  1.
<mgrwt>
<rscale>  2 0.20742689E+02</rscale>
<asrwt>0</asrwt>
<pdfrwt beam="1">  1       21 0.75936191E-03 0.20742689E+02</pdfrwt>
<pdfrwt beam="2">  1       21 0.12775758E+00 0.20742689E+02</pdfrwt>
<totfact> 0.23758205E+06</totfact>
</mgrwt>
</event>
<event>
 4    1  0.4505197E+006  0.2611542E+02  0.7546771E-02  0.1645479E+00
         21   -1    0    0  504  501  0.00000000000E+00  0.00000000000E+00  0.14074676070E+02  0.14074676070E+02  0.00000000000E+00 0. -1.
         21   -1    0    0  503  502 -0.00000000000E+00 -0.00000000000E+00 -0.48466403416E+02  0.48466403416E+02  0.00000000000E+00 0. -1.
         21    1    1    2  503  501 -0.12766421508E+02  0.22782312191E+02 -0.16758141143E+02  0.31029833410E+02  0.00000000000E+00 0. -1.
         21    1    1    2  504  502  0.12766421508E+02 -0.22782312191E+02 -0.17633586202E+02  0.31511246076E+02  0.00000000000E+00 0. -1.
<mgrwt>
<rscale>  2 0.26115422E+02</rscale>
<asrwt>0</asrwt>
<pdfrwt beam="1">  1       21 0.21653348E-02 0.26115422E+02</pdfrwt>
<pdfrwt beam="2">  1       21 0.74563697E-02 0.26115422E+02</pdfrwt>
<totfact> 0.10339127E+08</totfact>
</mgrwt>
</event>
<event>
 4    1  0.4505197E+006  0.2907937E+02  0.7546771E-02  0.1608494E+00
         21   -1    0    0  503  501  0.00000000000E+00  0.00000000000E+00  0.37379366302E+02  0.37379366302E+02  0.00000000000E+00 0.  1.
         21   -1    0    0  501  502 -0.00000000000E+00 -0.00000000000E+00 -0.44915144692E+03  0.44915144692E+03  0.00000000000E+00 0.  1.
         21    1    1    2  503  504  0.13240281031E+02  0.25890248766E+02  0.31173955480E+02  0.42631274004E+02  0.00000000000E+00 0.  1.
         21    1    1    2  504  502 -0.13240281031E+02 -0.25890248766E+02 -0.44294603610E+03  0.44389953922E+03  0.00000000000E+00 0.  1.
<mgrwt>
<rscale>  2 0.29079375E+02</rscale>
<asrwt>0</asrwt>
<pdfrwt beam="1">  1       21 0.57506720E-02 0.29079375E+02</pdfrwt>
<pdfrwt beam="2">  1       21 0.69100220E-01 0.29079375E+02</pdfrwt>
<totfact> 0.40628374E+05</totfact>
</mgrwt>
</event>
<event>
 4    1  0.4505197E+006  0.2280605E+02  0.7546771E-02  0.1694673E+00
         21   -1    0    0  504  501  0.00000000000E+00  0.00000000000E+00  0.75323295283E+01  0.75323295283E+01  0.00000000000E+00 0.  1.
         21   -1    0    0  501  502 -0.00000000000E+00 -0.00000000000E+00 -0.11587805732E+03  0.11587805732E+03  0.00000000000E+00 0.  1.
         21    1    1    2  503  502  0.55490782433E+01  0.22120658064E+02 -0.93398409841E+02  0.96142491873E+02  0.00000000000E+00 0.  1.
         21    1    1    2  504  503 -0.55490782433E+01 -0.22120658064E+02 -0.14947317952E+02  0.27267894978E+02  0.00000000000E+00 0.  1.
<mgrwt>
<rscale>  2 0.22806047E+02</rscale>
<asrwt>0</asrwt>
<pdfrwt beam="1">  1       21 0.11588200E-02 0.22806047E+02</pdfrwt>
<pdfrwt beam="2">  1       21 0.17827393E-01 0.22806047E+02</pdfrwt>
<totfact> 0.60107405E+07</totfact>
</mgrwt>
</event>
<event>
 4    1  0.4505197E+006  0.2227698E+02  0.7546771E-02  0.1703505E+00
         21   -1    0    0  504  501  0.00000000000E+00  0.00000000000E+00  0.17445438790E+03  0.17445438790E+03  0.00000000000E+00 0.  1.
         21   -1    0    0  503  502 -0.00000000000E+00 -0.00000000000E+00 -0.36047703164E+01  0.36047703164E+01  0.00000000000E+00 0.  1.
         21    1    1    2  503  501 -0.20786390530E+02 -0.80118616050E+01  0.12630688586E+03  0.12825635802E+03  0.00000000000E+00 0.  1.
         21    1    1    2  504  502  0.20786390530E+02  0.80118616050E+01  0.44542731719E+02  0.49802800189E+02  0.00000000000E+00 0.  1.
<mgrwt>
<rscale>  2 0.22276983E+02</rscale>
<asrwt>0</asrwt>
<pdfrwt beam="1">  1       21 0.26839130E-01 0.22276983E+02</pdfrwt>
<pdfrwt beam="2">  1       21 0.55458019E-03 0.22276983E+02</pdfrwt>
<totfact> 0.87351736E+07</totfact>
</mgrwt>
</event>
<event>
 4    1  0.4505197E+006  0.2507152E+02  0.7546771E-02  0.1659977E+00
         21   -1    0    0  502  501  0.00000000000E+00  0.00000000000E+00  0.56367641886E+02  0.56367641886E+02  0.00000000000E+00 0.  1.
         21   -1    0    0  504  502 -0.00000000000E+00 -0.00000000000E+00 -0.11454975710E+03  0.11454975710E+03  0.00000000000E+00 0.  1.
         21    1    1    2  503  501  0.24480553256E+02 -0.54114290380E+01  0.52101440363E+02  0.57819902628E+02  0.00000000000E+00 0.  1.
         21    1    1    2  504  503 -0.24480553256E+02  0.54114290380E+01 -0.11028355558E+03  0.11309749636E+03  0.00000000000E+00 0.  1.
<mgrwt>
<rscale>  2 0.25071519E+02</rscale>
<asrwt>0</asrwt>
<pdfrwt beam="1">  1       21 0.86719450E-02 0.25071519E+02</pdfrwt>
<pdfrwt beam="2">  1       21 0.17623039E-01 0.25071519E+02</pdfrwt>
<totfact> 0.26644396E+06</totfact>
</mgrwt>
</event>
<event>
 4    1  0.4505197E+006  0.3039553E+02  0.7546771E-02  0.1593757E+00
         21   -1    0    0  503  501  0.00000000000E+00  0.00000000000E+00  0.71157672652E+03  0.71157672652E+03  0.00000000000E+00 0. -1.
         21   -1    0    0  504  502 -0.00000000000E+00 -0.00000000000E+00 -0.43760136541E+01  0.43760136541E+01  0.00000000000E+00 0. -1.
         21    1    1    2  503  502 -0.21855004947E+02 -0.21124554118E+02  0.53390894883E+02  0.61436761668E+02  0.00000000000E+00 0. -1.
         21    1    1    2  504  501  0.21855004947E+02  0.21124554118E+02  0.65380981799E+03  0.65451597851E+03  0.00000000000E+00 0. -1.
<mgrwt>
<rscale>  2 0.30395526E+02</rscale>
<asrwt>0</asrwt>
<pdfrwt beam="1">  1       21 0.10947325E+00 0.30395526E+02</pdfrwt>
<pdfrwt beam="2">  1       21 0.67323344E-03 0.30395526E+02</pdfrwt>
<totfact> 0.42107809E+06</totfact>
</mgrwt>
</event>
<event>
 4    1  0.4505197E+006  0.2574570E+02  0.7546771E-02  0.1650517E+00
         21   -1    0    0  504  501  0.00000000000E+00  0.00000000000E+00  0.79636799628E+00  0.79636799628E+00  0.00000000000E+00 0. -1.
         21   -1    0    0  501  502 -0.00000000000E+00 -0.00000000000E+00 -0.16829312057E+04  0.16829312057E+04  0.00000000000E+00 0. -1.
         21    1    1    2  503  502 -0.11714275529E+02 -0.22926332655E+02 -0.14395777370E+04  0.14398079393E+04  0.00000000000E+00 0. -1.
         21    1    1    2  504  503  0.11714275529E+02  0.22926332655E+02 -0.24255710064E+03  0.24391963441E+03  0.00000000000E+00 0. -1.
<mgrwt>
<rscale>  2 0.25745698E+02</rscale>
<asrwt>0</asrwt>
<pdfrwt beam="1">  1       21 0.12251916E-03 0.25745698E+02</pdfrwt>
<pdfrwt beam="2">  1       21 0.25891036E+00 0.25745698E+02</pdfrwt>
<totfact> 0.57874158E+06</totfact>
</mgrwt>
</event>
<event>
 4    1  0.4505197E+006  0.2531492E+02  0.7546771E-02  0.1656519E+00
         21   -1    0    0  503  501  0.00000000000E+00  0.00000000000E+00  0.58508732267E+02  0.58508732267E+02  0.00000000000E+00 0.  1.
         21   -1    0    0  504  502 -0.00000000000E+00 -0.00000000000E+00 -0.31260236922E+02  0.31260236922E+02  0.00000000000E+00 0. -1.
         21    1    1    2  503  502 -0.13160916789E+02 -0.21624878142E+02  0.49800678859E+02  0.55865487559E+02  0.00000000000E+00 0.  1.
         21    1    1    2  504  501  0.13160916789E+02  0.21624878142E+02 -0.22552183514E+02  0.33903481630E+02  0.00000000000E+00 0. -1.
<mgrwt>
<rscale>  2 0.25314918E+02</rscale>
<asrwt>0</asrwt>
<pdfrwt beam="1">  1       21 0.90013434E-02 0.25314918E+02</pdfrwt>
<pdfrwt beam="2">  1       21 0.48092672E-02 0.25314918E+02</pdfrwt>
<totfact> 0.21543596E+07</totfact>
</mgrwt>
</event>
<event>
 4    1  0.4505197E+006  0.2991229E+02  0.7546771E-02  0.1599060E+00
         21   -1    0    0  503  501  0.00000000000E+00  0.00000000000E+00  0.20224000246E+03  0.20224000246E+03  0.00000000000E+00 0. -1.
         21   -1    0    0  504  502 -0.00000000000E+00 -0.00000000000E+00 -0.61309868246E+01  0.61309868246E+01  0.00000000000E+00 0. -1.
         21    1    1    2  503  502 -0.29568162459E+02  0.45242422626E+01  0.43083336496E+02  0.52449202881E+02  0.00000000000E+00 0. -1.
         21    1    1    2  504  501  0.29568162459E+02 -0.45242422626E+01  0.15302567914E+03  0.15592178640E+03  0.00000000000E+00 0. -1.
<mgrwt>
<rscale>  2 0.29912288E+02</rscale>
<asrwt>0</asrwt>
<pdfrwt beam="1">  1       21 0.31113841E-01 0.29912288E+02</pdfrwt>
<pdfrwt beam="2">  1       21 0.94322890E-03 0.29912288E+02</pdfrwt>
<totfact> 0.32313801E+07</totfact>
</mgrwt>
</event>
<event>
 4    1  0.4505197E+006  0.3281156E+02  0.7546771E-02  0.1568940E+00
         21   -1    0    0  504  501  0.00000000000E+00  0.00000000000E+00  0.14674656418E+02  0.14674656418E+02  0.00000000000E+00 0. -1.
         21   -1    0    0  501  502 -0.00000000000E+00 -0.00000000000E+00 -0.28570397143E+03  0.28570397143E+03  0.00000000000E+00 0. -1.
         21    1    1    2  503  502 -0.77649377113E+01  0.31879529923E+02 -0.26499274350E+03  0.26701639049E+03  0.00000000000E+00 0. -1.
         21    1    1    2  504  503  0.77649377113E+01 -0.31879529923E+02 -0.60365715164E+01  0.33362237356E+02  0.00000000000E+00 0. -1.
<mgrwt>
<rscale>  2 0.32811563E+02</rscale>
<asrwt>0</asrwt>
<pdfrwt beam="1">  1       21 0.22576397E-02 0.32811563E+02</pdfrwt>
<pdfrwt beam="2">  1       21 0.43954452E-01 0.32811563E+02</pdfrwt>
<totfact> 0.44664961E+06</totfact>
</mgrwt>
</event>
<event>
 4    1  0.4505197E+006  0.2139449E+02  0.7546771E-02  0.1718939E+00
         21   -1    0    0  503  501  0.00000000000E+00  0.00000000000E+00  0.13327553336E+03  0.13327553336E+03  0.00000000000E+00 0. -1.
         21   -1    0    0  504  502 -0.00000000000E+00 -0.00000000000E+00 -0.34465043919E+01  0.34465043919E+01  0.00000000000E+00 0. -1.
         21    1    1    2  503  502  0.19714978049E+02 -0.83092639859E+01  0.60866686507E+02  0.64517267099E+02  0.00000000000E+00 0. -1.
         21    1    1    2  504  501 -0.19714978049E+02  0.83092639859E+01  0.68962342465E+02  0.72204770658E+02  0.00000000000E+00 0. -1.
<mgrwt>
<rscale>  2 0.21394491E+02</rscale>
<asrwt>0</asrwt>
<pdfrwt beam="1">  1       21 0.20503924E-01 0.21394491E+02</pdfrwt>
<pdfrwt beam="2">  1       21 0.53023155E-03 0.21394491E+02</pdfrwt>
<totfact> 0.14852280E+08</totfact>
</mgrwt>
</event>
<event>
 4    1  0.4505197E+006  0.2198361E+02  0.7546771E-02  0.1708536E+00
         21   -1    0    0  504  501  0.00000000000E+00  0.00000000000E+00  0.85536231820E+02  0.85536231820E+02  0.00000000000E+00 0.  1.
         21   -1    0    0  503  502 -0.00000000000E+00 -0.00000000000E+00 -0.48537925525E+02  0.48537925525E+02  0.00000000000E+00 0.  1.
         21    1    1    2  503  501  0.16743080229E+02 -0.14245993921E+02 -0.44515569974E+02  0.49647910817E+02  0.00000000000E+00 0.  1.
         21    1    1    2  504  502 -0.16743080229E+02  0.14245993921E+02  0.81513876269E+02  0.84426246528E+02  0.00000000000E+00 0.  1.
<mgrwt>
<rscale>  2 0.21983609E+02</rscale>
<asrwt>0</asrwt>
<pdfrwt beam="1">  1       21 0.13159420E-01 0.21983609E+02</pdfrwt>
<pdfrwt beam="2">  1       21 0.74673732E-02 0.21983609E+02</pdfrwt>
<totfact> 0.54888617E+06</totfact>
</mgrwt>
</event>
<event>
 4    1  0.4505197E+006  0.3649692E+02  0.7546771E-02  0.1535696E+00
         21   -1    0    0  504  501  0.00000000000E+00  0.00000000000E+00  0.14903352142E+04  0.14903352142E+04  0.00000000000E+00 0.  1.
         21   -1    0    0  503  502 -0.00000000000E+00 -0.00000000000E+00 -0.90884775338E+00  0.90884775338E+00  0.00000000000E+00 0. -1.
         21    1    1    2  503  501 -0.27795261547E+02 -0.23652663743E+02  0.84073337984E+03  0.84152518741E+03  0.00000000000E+00 0.  1.
         21    1    1    2  504  502  0.27795261547E+02  0.23652663743E+02  0.64869298661E+03  0.64971887454E+03  0.00000000000E+00 0. -1.
<mgrwt>
<rscale>  2 0.36496919E+02</rscale>
<asrwt>0</asrwt>
<pdfrwt beam="1">  1       21 0.22928039E+00 0.36496919E+02</pdfrwt>
<pdfrwt beam="2">  1       21 0.13982392E-03 0.36496919E+02</pdfrwt>
<totfact> 0.69083186E+06</totfact>
</mgrwt>
</event>
<event>
 4    1  0.4505197E+006  0.2968566E+02  0.7546771E-02  0.1601589E+00
         21   -1    0    0  503  501  0.00000000000E+00  0.00000000000E+00  0.36842516385E+03  0.36842516385E+03  0.00000000000E+00 0. -1.
         21   -1    0    0  504  502 -0.00000000000E+00 -0.00000000000E+00 -0.24158279703E+01  0.24158279703E+01  0.00000000000E+00 0. -1.
         21    1    1    2  503  502  0.10176389294E+02  0.27886906015E+02  0.20145573888E+03  0.20363116941E+03  0.00000000000E+00 0. -1.
         21    1    1    2  504  501 -0.10176389294E+02 -0.27886906015E+02  0.16455359700E+03  0.16720982241E+03  0.00000000000E+00 0. -1.
<mgrwt>
<rscale>  2 0.29685660E+02</rscale>
<asrwt>0</asrwt>
<pdfrwt beam="1">  1       21 0.56680750E-01 0.29685660E+02</pdfrwt>
<pdfrwt beam="2">  1       21 0.37166613E-03 0.29685660E+02</pdfrwt>
<totfact> 0.41023522E+07</totfact>
</mgrwt>
</event>
<event>
 4    1  0.4505197E+006  0.2781867E+02  0.7546771E-02  0.1623533E+00
         21   -1    0    0  503  501  0.00000000000E+00  0.00000000000E+00  0.11235044042E+03  0.11235044042E+03  0.00000000000E+00 0. -1.
         21   -1    0    0  501  502 -0.00000000000E+00 -0.00000000000E+00 -0.76620105410E+01  0.76620105410E+01  0.00000000000E+00 0. -1.
         21    1    1    2  503  504 -0.13950060832E+01  0.27783670997E+02  0.71415367596E+02  0.76642241258E+02  0.00000000000E+00 0. -1.
         21    1    1    2  504  502  0.13950060832E+01 -0.27783670997E+02  0.33273062283E+02  0.43370209704E+02  0.00000000000E+00 0. -1.
<mgrwt>
<rscale>  2 0.27818670E+02</rscale>
<asrwt>0</asrwt>
<pdfrwt beam="1">  1       21 0.17284682E-01 0.27818670E+02</pdfrwt>
<pdfrwt beam="2">  1       21 0.11787709E-02 0.27818670E+02</pdfrwt>
<totfact> 0.64897314E+07</totfact>
</mgrwt>
</event>
<event>
 4    1  0.4505197E+006  0.2273944E+02  0.7546771E-02  0.1695769E+00
         21   -1    0    0  503  501  0.00000000000E+00  0.00000000000E+00  0.15826020154E+03  0.15826020154E+03  0.00000000000E+00 0.  1.
         21   -1    0    0  504  502 -0.00000000000E+00 -0.00000000000E+00 -0.34266007167E+01  0.34266007167E+01  0.00000000000E+00 0.  1.
         21    1    1    2  503  502 -0.19978415011E+02  0.10860245890E+02  0.94848311434E+02  0.97536066094E+02  0.00000000000E+00 0.  1.
         21    1    1    2  504  501  0.19978415011E+02 -0.10860245890E+02  0.59985289389E+02  0.64150736162E+02  0.00000000000E+00 0.  1.
<mgrwt>
<rscale>  2 0.22739437E+02</rscale>
<asrwt>0</asrwt>
<pdfrwt beam="1">  1       21 0.24347718E-01 0.22739437E+02</pdfrwt>
<pdfrwt beam="2">  1       21 0.52716946E-03 0.22739437E+02</pdfrwt>
<totfact> 0.11265656E+08</totfact>
</mgrwt>
</event>
<event>
 4    1  0.4505197E+006  0.2059001E+02  0.7546771E-02  0.1733843E+00
         21   -1    0    0  502  501  0.00000000000E+00  0.00000000000E+00  0.10041395369E+03  0.10041395369E+03  0.00000000000E+00 0.  1.
         21   -1    0    0  503  502 -0.00000000000E+00 -0.00000000000E+00 -0.13370549310E+02  0.13370549310E+02  0.00000000000E+00 0.  1.
         21    1    1    2  503  504 -0.91992186144E+01 -0.18420722250E+02 -0.35385657634E+01  0.20891866335E+02  0.00000000000E+00 0.  1.
         21    1    1    2  504  501  0.91992186144E+01  0.18420722250E+02  0.90581970140E+02  0.92892636660E+02  0.00000000000E+00 0.  1.
<mgrwt>
<rscale>  2 0.20590013E+02</rscale>
<asrwt>0</asrwt>
<pdfrwt beam="1">  1       21 0.15448300E-01 0.20590013E+02</pdfrwt>
<pdfrwt beam="2">  1       21 0.20570076E-02 0.20590013E+02</pdfrwt>
<totfact> 0.31322313E+07</totfact>
</mgrwt>
</event>
<event>
 4    1  0.4505197E+006  0.2217119E+02  0.7546771E-02  0.1705308E+00
         21   -1    0    0  503  501  0.00000000000E+00  0.00000000000E+00  0.73367503085E+03  0.73367503085E+03  0.00000000000E+00 0.  1.
         21   -1    0    0  504  502 -0.00000000000E+00 -0.00000000000E+00 -0.15220196473E+01  0.15220196473E+01  0.00000000000E+00 0. -1.
         21    1    1    2  503  502 -0.68274685269E+00  0.22160670377E+02  0.64111198381E+03  0.64149523556E+03  0.00000000000E+00 0.  1.
         21    1    1    2  504  501  0.68274685269E+00 -0.22160670377E+02  0.91041027394E+02  0.93701814944E+02  0.00000000000E+00 0. -1.
<mgrwt>
<rscale>  2 0.22171185E+02</rscale>
<asrwt>0</asrwt>
<pdfrwt beam="1">  1       21 0.11287280E+00 0.22171185E+02</pdfrwt>
<pdfrwt beam="2">  1       21 0.23415746E-03 0.22171185E+02</pdfrwt>
<totfact> 0.17799296E+07</totfact>
</mgrwt>
</event>
<event>
 4    1  0.4505197E+006  0.2012660E+02  0.7546771E-02  0.1742822E+00
         21   -1    0    0  504  501  0.00000000000E+00  0.00000000000E+00  0.20584574307E+02  0.20584574307E+02  0.00000000000E+00 0. -1.
         21   -1    0    0  503  502 -0.00000000000E+00 -0.00000000000E+00 -0.26308897410E+02  0.26308897410E+02  0.00000000000E+00 0.  1.
         21    1    1    2  503  501  0.11727879635E+02  0.16356552334E+02 -0.14632545597E+02  0.24883555929E+02  0.00000000000E+00 0.  1.
         21    1    1    2  504  502 -0.11727879635E+02 -0.16356552334E+02  0.89082224944E+01  0.22009915788E+02  0.00000000000E+00 0. -1.
<mgrwt>
<rscale>  2 0.20126598E+02</rscale>
<asrwt>0</asrwt>
<pdfrwt beam="1">  1       21 0.31668576E-02 0.20126598E+02</pdfrwt>
<pdfrwt beam="2">  1       21 0.40475227E-02 0.20126598E+02</pdfrwt>
<totfact> 0.14130555E+08</totfact>
</mgrwt>
</event>
<event>
 4    1  0.4505197E+006  0.2037333E+02  0.7546771E-02  0.1738004E+00
         21   -1    0    0  504  501  0.00000000000E+00  0.00000000000E+00  0.11977606447E+04  0.11977606447E+04  0.00000000000E+00 0. -1.
         21   -1    0    0  503  502 -0.00000000000E+00 -0.00000000000E+00 -0.50841101794E+01  0.50841101794E+01  0.00000000000E+00 0. -1.
         21    1    1    2  503  501  0.53916928909E+01  0.19646939689E+02  0.11769020112E+04  0.11770783392E+04  0.00000000000E+00 0. -1.
         21    1    1    2  504  502 -0.53916928909E+01 -0.19646939689E+02  0.15774523279E+02  0.25766415662E+02  0.00000000000E+00 0. -1.
<mgrwt>
<rscale>  2 0.20373330E+02</rscale>
<asrwt>0</asrwt>
<pdfrwt beam="1">  1       21 0.18427064E+00 0.20373330E+02</pdfrwt>
<pdfrwt beam="2">  1       21 0.78217175E-03 0.20373330E+02</pdfrwt>
<totfact> 0.95226589E+05</totfact>
</mgrwt>
</event>
<event>
 4    1  0.4505197E+006  0.4717279E+02  0.7546771E-02  0.1461216E+00
         21   -1    0    0  504  501  0.00000000000E+00  0.00000000000E+00  0.73143432000E+02  0.73143432000E+02  0.00000000000E+00 0. -1.
         21   -1    0    0  503  502 -0.00000000000E+00 -0.00000000000E+00 -0.49689490998E+02  0.49689490998E+02  0.00000000000E+00 0. -1.
         21    1    1    2  503  501  0.44328057171E+02  0.16133685117E+02  0.49969731074E+02  0.68718603534E+02  0.00000000000E+00 0. -1.
         21    1    1    2  504  502 -0.44328057171E+02 -0.16133685117E+02 -0.26515790072E+02  0.54114319465E+02  0.00000000000E+00 0. -1.
<mgrwt>
<rscale>  2 0.47172794E+02</rscale>
<asrwt>0</asrwt>
<pdfrwt beam="1">  1       21 0.11252836E-01 0.47172794E+02</pdfrwt>
<pdfrwt beam="2">  1       21 0.76445371E-02 0.47172794E+02</pdfrwt>
<totfact> 0.76747708E+06</totfact>
</mgrwt>
</event>
<event>
 4    1  0.4505197E+006  0.2819022E+02  0.7546771E-02  0.1619000E+00
         21   -1    0    0  503  501  0.00000000000E+00  0.00000000000E+00  0.26950878292E+02  0.26950878292E+02  0.00000000000E+00 0. -1.
         21   -1    0    0  504  502 -0.00000000000E+00 -0.00000000000E+00 -0.32566370779E+02  0.32566370779E+02  0.00000000000E+00 0.  1.
         21    1    1    2  503  502 -0.23147197458E+02 -0.16090242307E+02 -0.11959204432E+02  0.30622070771E+02  0.00000000000E+00 0.  1.
         21    1    1    2  504  501  0.23147197458E+02  0.16090242307E+02  0.63437119452E+01  0.28895178299E+02  0.00000000000E+00 0. -1.
<mgrwt>
<rscale>  2 0.28190223E+02</rscale>
<asrwt>0</asrwt>
<pdfrwt beam="1">  1       21 0.41462890E-02 0.28190223E+02</pdfrwt>
<pdfrwt beam="2">  1       21 0.50102109E-02 0.28190223E+02</pdfrwt>
<totfact> 0.72494809E+07</totfact>
</mgrwt>
</event>
<event>
 4    1  0.4505197E+006  0.3568295E+02  0.7546771E-02  0.1542618E+00
         21   -1    0    0  502  501  0.00000000000E+00  0.00000000000E+00  0.13625848515E+03  0.13625848515E+03  0.00000000000E+00 0. -1.
         21   -1    0    0  503  502 -0.00000000000E+00 -0.00000000000E+00 -0.14682674490E+02  0.14682674490E+02  0.00000000000E+00 0. -1.
         21    1    1    2  503  504 -0.28810463545E+02 -0.21053028184E+02  0.15281778322E+02  0.38817593358E+02  0.00000000000E+00 0. -1.
         21    1    1    2  504  501  0.28810463545E+02  0.21053028184E+02  0.10629403234E+03  0.11212356629E+03  0.00000000000E+00 0. -1.
<mgrwt>
<rscale>  2 0.35682948E+02</rscale>
<asrwt>0</asrwt>
<pdfrwt beam="1">  1       21 0.20962843E-01 0.35682948E+02</pdfrwt>
<pdfrwt beam="2">  1       21 0.22588731E-02 0.35682948E+02</pdfrwt>
<totfact> 0.17823129E+07</totfact>
</mgrwt>
</event>
<event>
 4    1  0.4505197E+006  0.2050706E+02  0.7546771E-02  0.1735429E+00
         21   -1    0    0  504  501  0.00000000000E+00  0.00000000000E+00  0.23372599702E+02  0.23372599702E+02  0.00000000000E+00 0.  1.
         21   -1    0    0  503  502 -0.00000000000E+00 -0.00000000000E+00 -0.27391391467E+02  0.27391391467E+02  0.00000000000E+00 0.  1.
         21    1    1    2  503  501 -0.19642294445E+02 -0.58923433257E+01  0.12858488824E+02  0.24204961801E+02  0.00000000000E+00 0.  1.
         21    1    1    2  504  502  0.19642294445E+02  0.58923433257E+01 -0.16877280589E+02  0.26559029369E+02  0.00000000000E+00 0.  1.
<mgrwt>
<rscale>  2 0.20507058E+02</rscale>
<asrwt>0</asrwt>
<pdfrwt beam="1">  1       21 0.35957846E-02 0.20507058E+02</pdfrwt>
<pdfrwt beam="2">  1       21 0.42140602E-02 0.20507058E+02</pdfrwt>
<totfact> 0.10947157E+08</totfact>
</mgrwt>
</event>
<event>
 4    1  0.4505197E+006  0.2169419E+02  0.7546771E-02  0.1713595E+00
         21   -1    0    0  503  501  0.00000000000E+00  0.00000000000E+00  0.48545798131E+03  0.48545798131E+03  0.00000000000E+00 0.  1.
         21   -1    0    0  504  502 -0.00000000000E+00 -0.00000000000E+00 -0.45324163144E+01  0.45324163144E+01  0.00000000000E+00 0.  1.
         21    1    1    2  503  502  0.21630399457E+02  0.16623850000E+01  0.45768148785E+03  0.45819535356E+03  0.00000000000E+00 0.  1.
         21    1    1    2  504  501 -0.21630399457E+02 -0.16623850000E+01  0.23244077141E+02  0.31795044058E+02  0.00000000000E+00 0.  1.
<mgrwt>
<rscale>  2 0.21694186E+02</rscale>
<asrwt>0</asrwt>
<pdfrwt beam="1">  1       21 0.74685802E-01 0.21694186E+02</pdfrwt>
<pdfrwt beam="2">  1       21 0.69729520E-03 0.21694186E+02</pdfrwt>
<totfact> 0.87011289E+06</totfact>
</mgrwt>
</event>
<event>
 4    1  0.4505197E+006  0.2604843E+02  0.7546771E-02  0.1646384E+00
         21   -1    0    0  503  501  0.00000000000E+00  0.00000000000E+00  0.65740408781E+02  0.65740408781E+02  0.00000000000E+00 0.  1.
         21   -1    0    0  504  502 -0.00000000000E+00 -0.00000000000E+00 -0.10931254627E+02  0.10931254627E+02  0.00000000000E+00 0.  1.
         21    1    1    2  503  502 -0.26023481219E+02  0.11398568975E+01  0.18348311501E+02  0.31861911171E+02  0.00000000000E+00 0.  1.
         21    1    1    2  504  501  0.26023481219E+02 -0.11398568975E+01  0.36460842653E+02  0.44809752237E+02  0.00000000000E+00 0.  1.
<mgrwt>
<rscale>  2 0.26048433E+02</rscale>
<asrwt>0</asrwt>
<pdfrwt beam="1">  1       21 0.10113909E-01 0.26048433E+02</pdfrwt>
<pdfrwt beam="2">  1       21 0.16817315E-02 0.26048433E+02</pdfrwt>
<totfact> 0.92239619E+07</totfact>
</mgrwt>
</event>
<event>
 4    1  0.4505197E+006  0.4526160E+02  0.7546771E-02  0.1472715E+00
         21   -1    0    0  503  501  0.00000000000E+00  0.00000000000E+00  0.66435639746E+01  0.66435639746E+01  0.00000000000E+00 0. -1.
         21   -1    0    0  504  502 -0.00000000000E+00 -0.00000000000E+00 -0.52689411675E+03  0.52689411675E+03  0.00000000000E+00 0. -1.
         21    1    1    2  503  502 -0.45261290429E+02 -0.16842992823E+00 -0.43192898814E+03  0.43429398289E+03  0.00000000000E+00 0. -1.
         21    1    1    2  504  501  0.45261290429E+02  0.16842992823E+00 -0.88321564635E+02  0.99243697833E+02  0.00000000000E+00 0. -1.
<mgrwt>
<rscale>  2 0.45261604E+02</rscale>
<asrwt>0</asrwt>
<pdfrwt beam="1">  1       21 0.10220866E-02 0.45261604E+02</pdfrwt>
<pdfrwt beam="2">  1       21 0.81060648E-01 0.45261604E+02</pdfrwt>
<totfact> 0.45061734E+06</totfact>
</mgrwt>
</event>
<event>
 4    1  0.4505197E+006  0.2114428E+02  0.7546771E-02  0.1723486E+00
         21   -1    0    0  503  501  0.00000000000E+00  0.00000000000E+00  0.12136146063E+01  0.12136146063E+01  0.00000000000E+00 0.  1.
         21   -1    0    0  504  502 -0.00000000000E+00 -0.00000000000E+00 -0.36873833058E+03  0.36873833058E+03  0.00000000000E+00 0.  1.
         21    1    1    2  503  502  0.15670679041E+02 -0.14195434082E+02 -0.18946747165E+03  0.19064365540E+03  0.00000000000E+00 0.  1.
         21    1    1    2  504  501 -0.15670679041E+02  0.14195434082E+02 -0.17805724432E+03  0.17930828979E+03  0.00000000000E+00 0.  1.
<mgrwt>
<rscale>  2 0.21144279E+02</rscale>
<asrwt>0</asrwt>
<pdfrwt beam="1">  1       21 0.18671008E-03 0.21144279E+02</pdfrwt>
<pdfrwt beam="2">  1       21 0.56728930E-01 0.21144279E+02</pdfrwt>
<totfact> 0.10326316E+08</totfact>
</mgrwt>
</event>
<event>
 4    1  0.4505197E+006  0.2175642E+02  0.7546771E-02  0.1712499E+00
         21   -1    0    0  503  501  0.00000000000E+00  0.00000000000E+00  0.13007591937E+01  0.13007591937E+01  0.00000000000E+00 0. -1.
         21   -1    0    0  504  502 -0.00000000000E+00 -0.00000000000E+00 -0.36743020150E+03  0.36743020150E+03  0.00000000000E+00 0. -1.
         21    1    1    2  503  502 -0.14159820881E+02 -0.16517911571E+02 -0.16498477664E+03  0.16641309580E+03  0.00000000000E+00 0. -1.
         21    1    1    2  504  501  0.14159820881E+02  0.16517911571E+02 -0.20114466567E+03  0.20231786489E+03  0.00000000000E+00 0. -1.
<mgrwt>
<rscale>  2 0.21756423E+02</rscale>
<asrwt>0</asrwt>
<pdfrwt beam="1">  1       21 0.20011664E-03 0.21756423E+02</pdfrwt>
<pdfrwt beam="2">  1       21 0.56527768E-01 0.21756423E+02</pdfrwt>
<totfact> 0.94821703E+07</totfact>
</mgrwt>
</event>
<event>
 4    1  0.4505197E+006  0.2065493E+02  0.7546771E-02  0.1732609E+00
         21   -1    0    0  502  501  0.00000000000E+00  0.00000000000E+00  0.24542429966E+01  0.24542429966E+01  0.00000000000E+00 0.  1.
         21   -1    0    0  503  502 -0.00000000000E+00 -0.00000000000E+00 -0.49666921271E+03  0.49666921271E+03  0.00000000000E+00 0.  1.
         21    1    1    2  503  504  0.13647887746E+02  0.15503585042E+02 -0.44831127284E+03  0.44878683509E+03  0.00000000000E+00 0.  1.
         21    1    1    2  504  501 -0.13647887746E+02 -0.15503585042E+02 -0.45903696875E+02  0.50336620624E+02  0.00000000000E+00 0.  1.
<mgrwt>
<rscale>  2 0.20654927E+02</rscale>
<asrwt>0</asrwt>
<pdfrwt beam="1">  1       21 0.37757571E-03 0.20654927E+02</pdfrwt>
<pdfrwt beam="2">  1       21 0.76410675E-01 0.20654927E+02</pdfrwt>
<totfact> 0.20281574E+07</totfact>
</mgrwt>
</event>
<event>
 4    1  0.4505197E+006  0.2069729E+02  0.7546771E-02  0.1731807E+00
         21   -1    0    0  503  501  0.00000000000E+00  0.00000000000E+00  0.82758461281E+01  0.82758461281E+01  0.00000000000E+00 0. -1.
         21   -1    0    0  501  502 -0.00000000000E+00 -0.00000000000E+00 -0.60956977211E+03  0.60956977211E+03  0.00000000000E+00 0.  1.
         21    1    1    2  503  504 -0.20594741574E+02 -0.20577452353E+01 -0.51313798558E+01  0.21323901031E+02  0.00000000000E+00 0. -1.
         21    1    1    2  504  502  0.20594741574E+02  0.20577452353E+01 -0.59616254612E+03  0.59652171721E+03  0.00000000000E+00 0.  1.
<mgrwt>
<rscale>  2 0.20697287E+02</rscale>
<asrwt>0</asrwt>
<pdfrwt beam="1">  1       21 0.12732070E-02 0.20697287E+02</pdfrwt>
<pdfrwt beam="2">  1       21 0.93779974E-01 0.20697287E+02</pdfrwt>
<totfact> 0.21743625E+06</totfact>
</mgrwt>
</event>
<event>
 4    1  0.4505197E+006  0.2152968E+02  0.7546771E-02  0.1716515E+00
         21   -1    0    0  503  501  0.00000000000E+00  0.00000000000E+00  0.62616212832E+01  0.62616212832E+01  0.00000000000E+00 0.  1.
         21   -1    0    0  504  502 -0.00000000000E+00 -0.00000000000E+00 -0.76184917110E+02  0.76184917110E+02  0.00000000000E+00 0.  1.
         21    1    1    2  503  502  0.19016213018E+02  0.10095081686E+02 -0.28023276243E+02  0.35338803647E+02  0.00000000000E+00 0.  1.
         21    1    1    2  504  501 -0.19016213018E+02 -0.10095081686E+02 -0.41900019584E+02  0.47107734747E+02  0.00000000000E+00 0.  1.
<mgrwt>
<rscale>  2 0.21529678E+02</rscale>
<asrwt>0</asrwt>
<pdfrwt beam="1">  1       21 0.96332636E-03 0.21529678E+02</pdfrwt>
<pdfrwt beam="2">  1       21 0.11720756E-01 0.21529678E+02</pdfrwt>
<totfact> 0.15893285E+08</totfact>
</mgrwt>
</event>
<event>
 4    1  0.4505197E+006  0.2342195E+02  0.7546771E-02  0.1684760E+00
         21   -1    0    0  504  501  0.00000000000E+00  0.00000000000E+00  0.82088184999E+02  0.82088184999E+02  0.00000000000E+00 0. -1.
         21   -1    0    0  503  502 -0.00000000000E+00 -0.00000000000E+00 -0.18743876352E+02  0.18743876352E+02  0.00000000000E+00 0.  1.
         21    1    1    2  503  501  0.71480042232E+01  0.22304564040E+02  0.72113918072E+02  0.75822191482E+02  0.00000000000E+00 0. -1.
         21    1    1    2  504  502 -0.71480042232E+01 -0.22304564040E+02 -0.87696094258E+01  0.25009869869E+02  0.00000000000E+00 0.  1.
<mgrwt>
<rscale>  2 0.23421946E+02</rscale>
<asrwt>0</asrwt>
<pdfrwt beam="1">  1       21 0.12628951E-01 0.23421946E+02</pdfrwt>
<pdfrwt beam="2">  1       21 0.28836733E-02 0.23421946E+02</pdfrwt>
<totfact> 0.26965029E+07</totfact>
</mgrwt>
</event>
<event>
 4    1  0.4505197E+006  0.2162833E+02  0.7546771E-02  0.1714760E+00
         21   -1    0    0  504  501  0.00000000000E+00  0.00000000000E+00  0.10971738930E+02  0.10971738930E+02  0.00000000000E+00 0. -1.
         21   -1    0    0  503  502 -0.00000000000E+00 -0.00000000000E+00 -0.27508632411E+03  0.27508632411E+03  0.00000000000E+00 0. -1.
         21    1    1    2  503  501 -0.71650288817E+01 -0.20407035193E+02 -0.57861857331E+00  0.21636069968E+02  0.00000000000E+00 0. -1.
         21    1    1    2  504  502  0.71650288817E+01  0.20407035193E+02 -0.26353596660E+03  0.26442199307E+03  0.00000000000E+00 0. -1.
<mgrwt>
<rscale>  2 0.21628332E+02</rscale>
<asrwt>0</asrwt>
<pdfrwt beam="1">  1       21 0.16879599E-02 0.21628332E+02</pdfrwt>
<pdfrwt beam="2">  1       21 0.42320972E-01 0.21628332E+02</pdfrwt>
<totfact> 0.70766170E+06</totfact>
</mgrwt>
</event>
<event>
 4    1  0.4505197E+006  0.2102054E+02  0.7546771E-02  0.1725763E+00
         21   -1    0    0  504  501  0.00000000000E+00  0.00000000000E+00  0.20668981507E+02  0.20668981507E+02  0.00000000000E+00 0.  1.
         21   -1    0    0  503  502 -0.00000000000E+00 -0.00000000000E+00 -0.12787388662E+03  0.12787388662E+03  0.00000000000E+00 0.  1.
         21    1    1    2  503  501 -0.18567140089E+02 -0.98551812273E+01  0.14176853159E+02  0.25354416845E+02  0.00000000000E+00 0.  1.
         21    1    1    2  504  502  0.18567140089E+02  0.98551812273E+01 -0.12138175827E+03  0.12318845128E+03  0.00000000000E+00 0.  1.
<mgrwt>
<rscale>  2 0.21020544E+02</rscale>
<asrwt>0</asrwt>
<pdfrwt beam="1">  1       21 0.31798433E-02 0.21020544E+02</pdfrwt>
<pdfrwt beam="2">  1       21 0.19672905E-01 0.21020544E+02</pdfrwt>
<totfact> 0.10615641E+07</totfact>
</mgrwt>
</event>
<event>
 4    1  0.4505197E+006  0.2208852E+02  0.7546771E-02  0.1706726E+00
         21   -1    0    0  504  501  0.00000000000E+00  0.00000000000E+00  0.21269118894E+02  0.21269118894E+02  0.00000000000E+00 0.  1.
         21   -1    0    0  501  502 -0.00000000000E+00 -0.00000000000E+00 -0.24732560014E+02  0.24732560014E+02  0.00000000000E+00 0.  1.
         21    1    1    2  503  502  0.22076137307E+02  0.73944373481E+00 -0.79248261529E+01  0.23467114970E+02  0.00000000000E+00 0.  1.
         21    1    1    2  504  503 -0.22076137307E+02 -0.73944373481E+00  0.44613850332E+01  0.22534563938E+02  0.00000000000E+00 0.  1.
<mgrwt>
<rscale>  2 0.22088518E+02</rscale>
<asrwt>0</asrwt>
<pdfrwt beam="1">  1       21 0.32721721E-02 0.22088518E+02</pdfrwt>
<pdfrwt beam="2">  1       21 0.38050092E-02 0.22088518E+02</pdfrwt>
<totfact> 0.15229329E+08</totfact>
</mgrwt>
</event>
<event>
 4    1  0.4505197E+006  0.3428702E+02  0.7546771E-02  0.1555025E+00
         21   -1    0    0  502  501  0.00000000000E+00  0.00000000000E+00  0.23386830639E+02  0.23386830639E+02  0.00000000000E+00 0. -1.
         21   -1    0    0  504  502 -0.00000000000E+00 -0.00000000000E+00 -0.18080092431E+03  0.18080092431E+03  0.00000000000E+00 0. -1.
         21    1    1    2  503  501  0.32791001047E+02 -0.10017500108E+02  0.80410707473E+01  0.35217309335E+02  0.00000000000E+00 0. -1.
         21    1    1    2  504  503 -0.32791001047E+02  0.10017500108E+02 -0.16545516442E+03  0.16897044562E+03  0.00000000000E+00 0. -1.
<mgrwt>
<rscale>  2 0.34287025E+02</rscale>
<asrwt>0</asrwt>
<pdfrwt beam="1">  1       21 0.35979739E-02 0.34287025E+02</pdfrwt>
<pdfrwt beam="2">  1       21 0.27815527E-01 0.34287025E+02</pdfrwt>
<totfact> 0.50983438E+06</totfact>
</mgrwt>
</event>
<event>
 4    1  0.4505197E+006  0.3135282E+02  0.7546771E-02  0.1583599E+00
         21   -1    0    0  504  501  0.00000000000E+00  0.00000000000E+00  0.12257277475E+04  0.12257277475E+04  0.00000000000E+00 0.  1.
         21   -1    0    0  503  502 -0.00000000000E+00 -0.00000000000E+00 -0.58676072300E+01  0.58676072300E+01  0.00000000000E+00 0.  1.
         21    1    1    2  503  501  0.31288507366E+02  0.20071847568E+01  0.11820992761E+04  0.11825149886E+04  0.00000000000E+00 0.  1.
         21    1    1    2  504  502 -0.31288507366E+02 -0.20071847568E+01  0.37760864081E+02  0.49080366135E+02  0.00000000000E+00 0.  1.
<mgrwt>
<rscale>  2 0.31352823E+02</rscale>
<asrwt>0</asrwt>
<pdfrwt beam="1">  1       21 0.18857330E+00 0.31352823E+02</pdfrwt>
<pdfrwt beam="2">  1       21 0.90270978E-03 0.31352823E+02</pdfrwt>
<totfact> 0.73576538E+05</totfact>
</mgrwt>
</event>
<event>
 4    1  0.4505197E+006  0.2461579E+02  0.7546771E-02  0.1666583E+00
         21   -1    0    0  503  501  0.00000000000E+00  0.00000000000E+00  0.71450986528E+01  0.71450986528E+01  0.00000000000E+00 0.  1.
         21   -1    0    0  501  502 -0.00000000000E+00 -0.00000000000E+00 -0.14054977640E+03  0.14054977640E+03  0.00000000000E+00 0.  1.
         21    1    1    2  503  504 -0.73350031129E+01 -0.23497546011E+02 -0.20194714313E+02  0.31839651778E+02  0.00000000000E+00 0.  1.
         21    1    1    2  504  502  0.73350031129E+01  0.23497546011E+02 -0.11320996344E+03  0.11585522328E+03  0.00000000000E+00 0.  1.
<mgrwt>
<rscale>  2 0.24615786E+02</rscale>
<asrwt>0</asrwt>
<pdfrwt beam="1">  1       21 0.10992461E-02 0.24615786E+02</pdfrwt>
<pdfrwt beam="2">  1       21 0.21623040E-01 0.24615786E+02</pdfrwt>
<totfact> 0.47383522E+07</totfact>
</mgrwt>
</event>
<event>
 4    1  0.4505197E+006  0.2464269E+02  0.7546771E-02  0.1666188E+00
         21   -1    0    0  503  501  0.00000000000E+00  0.00000000000E+00  0.33517182399E+02  0.33517182399E+02  0.00000000000E+00 0. -1.
         21   -1    0    0  501  502 -0.00000000000E+00 -0.00000000000E+00 -0.72211091490E+02  0.72211091490E+02  0.00000000000E+00 0.  1.
         21    1    1    2  503  504  0.29935934656E+01 -0.24460181877E+02  0.26407181351E+02  0.36119265306E+02  0.00000000000E+00 0. -1.
         21    1    1    2  504  502 -0.29935934656E+01  0.24460181877E+02 -0.65101090442E+02  0.69609008584E+02  0.00000000000E+00 0.  1.
<mgrwt>
<rscale>  2 0.24642689E+02</rscale>
<asrwt>0</asrwt>
<pdfrwt beam="1">  1       21 0.51564897E-02 0.24642689E+02</pdfrwt>
<pdfrwt beam="2">  1       21 0.11109399E-01 0.24642689E+02</pdfrwt>
<totfact> 0.13520066E+07</totfact>
</mgrwt>
</event>
<event>
 4    1  0.4505197E+006  0.6185929E+02  0.7546771E-02  0.1390191E+00
         21   -1    0    0  504  501  0.00000000000E+00  0.00000000000E+00  0.11769275568E+03  0.11769275568E+03  0.00000000000E+00 0.  1.
         21   -1    0    0  503  502 -0.00000000000E+00 -0.00000000000E+00 -0.32939292197E+02  0.32939292197E+02  0.00000000000E+00 0.  1.
         21    1    1    2  503  501 -0.34464733682E+02  0.51368808347E+02  0.33811015053E+02  0.70496504010E+02  0.00000000000E+00 0.  1.
         21    1    1    2  504  502  0.34464733682E+02 -0.51368808347E+02  0.50942448433E+02  0.80135543869E+02  0.00000000000E+00 0.  1.
<mgrwt>
<rscale>  2 0.61859295E+02</rscale>
<asrwt>0</asrwt>
<pdfrwt beam="1">  1       21 0.18106578E-01 0.61859295E+02</pdfrwt>
<pdfrwt beam="2">  1       21 0.50675835E-02 0.61859295E+02</pdfrwt>
<totfact> 0.67884167E+06</totfact>
</mgrwt>
</event>
<event>
 4    1  0.4505197E+006  0.3092742E+02  0.7546771E-02  0.1588058E+00
         21   -1    0    0  503  501  0.00000000000E+00  0.00000000000E+00  0.40686857653E+01  0.40686857653E+01  0.00000000000E+00 0.  1.
         21   -1    0    0  504  502 -0.00000000000E+00 -0.00000000000E+00 -0.23569064930E+03  0.23569064930E+03  0.00000000000E+00 0.  1.
         21    1    1    2  503  502  0.26791733417E+02  0.15450190446E+02 -0.12186522706E+03  0.12572843326E+03  0.00000000000E+00 0.  1.
         21    1    1    2  504  501 -0.26791733417E+02 -0.15450190446E+02 -0.10975673647E+03  0.11403090180E+03  0.00000000000E+00 0.  1.
<mgrwt>
<rscale>  2 0.30927421E+02</rscale>
<asrwt>0</asrwt>
<pdfrwt beam="1">  1       21 0.62595162E-03 0.30927421E+02</pdfrwt>
<pdfrwt beam="2">  1       21 0.36260102E-01 0.30927421E+02</pdfrwt>
<totfact> 0.45319142E+07</totfact>
</mgrwt>
</event>
<event>
 4    1  0.4505197E+006  0.2063554E+02  0.7546771E-02  0.1732977E+00
         21   -1    0    0  503  501  0.00000000000E+00  0.00000000000E+00  0.99345068666E+02  0.99345068666E+02  0.00000000000E+00 0.  1.
         21   -1    0    0  501  502 -0.00000000000E+00 -0.00000000000E+00 -0.12327762087E+03  0.12327762087E+03  0.00000000000E+00 0.  1.
         21    1    1    2  503  504  0.11237301493E+02  0.17307476272E+02  0.97392816139E+02  0.99554941189E+02  0.00000000000E+00 0.  1.
         21    1    1    2  504  502 -0.11237301493E+02 -0.17307476272E+02 -0.12132536834E+03  0.12306774834E+03  0.00000000000E+00 0.  1.
<mgrwt>
<rscale>  2 0.20635544E+02</rscale>
<asrwt>0</asrwt>
<pdfrwt beam="1">  1       21 0.15283857E-01 0.20635544E+02</pdfrwt>
<pdfrwt beam="2">  1       21 0.18965788E-01 0.20635544E+02</pdfrwt>
<totfact> 0.89082222E+05</totfact>
</mgrwt>
</event>
<event>
 4    1  0.4505197E+006  0.2223201E+02  0.7546771E-02  0.1704270E+00
         21   -1    0    0  503  501  0.00000000000E+00  0.00000000000E+00  0.54459007008E+01  0.54459007008E+01  0.00000000000E+00 0. -1.
         21   -1    0    0  504  502 -0.00000000000E+00 -0.00000000000E+00 -0.12559274897E+04  0.12559274897E+04  0.00000000000E+00 0. -1.
         21    1    1    2  503  502  0.18931259799E+02 -0.11656317249E+02 -0.17769408323E+02  0.28460748436E+02  0.00000000000E+00 0. -1.
         21    1    1    2  504  501 -0.18931259799E+02  0.11656317249E+02 -0.12327121806E+04  0.12329126419E+04  0.00000000000E+00 0. -1.
<mgrwt>
<rscale>  2 0.22232011E+02</rscale>
<asrwt>0</asrwt>
<pdfrwt beam="1">  1       21 0.83783140E-03 0.22232011E+02</pdfrwt>
<pdfrwt beam="2">  1       21 0.19321949E+00 0.22232011E+02</pdfrwt>
<totfact> 0.76643581E+05</totfact>
</mgrwt>
</event>
<event>
 4    1  0.4505197E+006  0.2367426E+02  0.7546771E-02  0.1680808E+00
         21   -1    0    0  504  501  0.00000000000E+00  0.00000000000E+00  0.14875049588E+01  0.14875049588E+01  0.00000000000E+00 0.  1.
         21   -1    0    0  501  502 -0.00000000000E+00 -0.00000000000E+00 -0.48430498758E+03  0.48430498758E+03  0.00000000000E+00 0. -1.
         21    1    1    2  503  502 -0.21181655580E+02 -0.10573940216E+02 -0.35585571708E+03  0.35664234482E+03  0.00000000000E+00 0. -1.
         21    1    1    2  504  503  0.21181655580E+02  0.10573940216E+02 -0.12696176555E+03  0.12915014772E+03  0.00000000000E+00 0.  1.
<mgrwt>
<rscale>  2 0.23674263E+02</rscale>
<asrwt>0</asrwt>
<pdfrwt beam="1">  1       21 0.22884667E-03 0.23674263E+02</pdfrwt>
<pdfrwt beam="2">  1       21 0.74508538E-01 0.23674263E+02</pdfrwt>
<totfact> 0.45578661E+07</totfact>
</mgrwt>
</event>
<event>
 4    1  0.4505197E+006  0.2033238E+02  0.7546771E-02  0.1738798E+00
         21   -1    0    0  504  501  0.00000000000E+00  0.00000000000E+00  0.63452876440E+02  0.63452876440E+02  0.00000000000E+00 0. -1.
         21   -1    0    0  503  502 -0.00000000000E+00 -0.00000000000E+00 -0.81033815893E+01  0.81033815893E+01  0.00000000000E+00 0. -1.
         21    1    1    2  503  501  0.14046058885E+02 -0.14700813955E+02  0.11835304557E+02  0.23526158528E+02  0.00000000000E+00 0. -1.
         21    1    1    2  504  502 -0.14046058885E+02  0.14700813955E+02  0.43514190294E+02  0.48030099501E+02  0.00000000000E+00 0. -1.
<mgrwt>
<rscale>  2 0.20332381E+02</rscale>
<asrwt>0</asrwt>
<pdfrwt beam="1">  1       21 0.97619807E-02 0.20332381E+02</pdfrwt>
<pdfrwt beam="2">  1       21 0.12466741E-02 0.20332381E+02</pdfrwt>
<totfact> 0.14354816E+08</totfact>
</mgrwt>
</event>
<event>
 4    1  0.4505197E+006  0.2087889E+02  0.7546771E-02  0.1728395E+00
         21   -1    0    0  504  501  0.00000000000E+00  0.00000000000E+00  0.83412504277E+03  0.83412504277E+03  0.00000000000E+00 0. -1.
         21   -1    0    0  503  502 -0.00000000000E+00 -0.00000000000E+00 -0.52284254778E+00  0.52284254778E+00  0.00000000000E+00 0.  1.
         21    1    1    2  503  501  0.20482900561E+02  0.40470884357E+01  0.42546396346E+03  0.42597595278E+03  0.00000000000E+00 0. -1.
         21    1    1    2  504  502 -0.20482900561E+02 -0.40470884357E+01  0.40813823677E+03  0.40867193255E+03  0.00000000000E+00 0.  1.
<mgrwt>
<rscale>  2 0.20878892E+02</rscale>
<asrwt>0</asrwt>
<pdfrwt beam="1">  1       21 0.12832587E+00 0.20878892E+02</pdfrwt>
<pdfrwt beam="2">  1       21 0.80437982E-04 0.20878892E+02</pdfrwt>
<totfact> 0.60621212E+07</totfact>
</mgrwt>
</event>
<event>
 4    1  0.4505197E+006  0.2053825E+02  0.7546771E-02  0.1734831E+00
         21   -1    0    0  503  501  0.00000000000E+00  0.00000000000E+00  0.18704935900E+02  0.18704935900E+02  0.00000000000E+00 0.  1.
         21   -1    0    0  504  502 -0.00000000000E+00 -0.00000000000E+00 -0.81877665317E+02  0.81877665317E+02  0.00000000000E+00 0.  1.
         21    1    1    2  503  502  0.19035623019E+02  0.77113519065E+01 -0.74395273282E+02  0.77178213108E+02  0.00000000000E+00 0.  1.
         21    1    1    2  504  501 -0.19035623019E+02 -0.77113519065E+01  0.11222543866E+02  0.23404388109E+02  0.00000000000E+00 0.  1.
<mgrwt>
<rscale>  2 0.20538254E+02</rscale>
<asrwt>0</asrwt>
<pdfrwt beam="1">  1       21 0.28776825E-02 0.20538254E+02</pdfrwt>
<pdfrwt beam="2">  1       21 0.12596564E-01 0.20538254E+02</pdfrwt>
<totfact> 0.26340795E+07</totfact>
</mgrwt>
</event>
<event>
 4    1  0.4505197E+006  0.2829050E+02  0.7546771E-02  0.1617792E+00
         21   -1    0    0  503  501  0.00000000000E+00  0.00000000000E+00  0.18499780974E+02  0.18499780974E+02  0.00000000000E+00 0. -1.
         21   -1    0    0  504  502 -0.00000000000E+00 -0.00000000000E+00 -0.44646785363E+02  0.44646785363E+02  0.00000000000E+00 0. -1.
         21    1    1    2  503  502 -0.46282456525E+01 -0.27909353315E+02 -0.75146190259E+01  0.29271524719E+02  0.00000000000E+00 0. -1.
         21    1    1    2  504  501  0.46282456525E+01  0.27909353315E+02 -0.18632385364E+02  0.33875041618E+02  0.00000000000E+00 0. -1.
<mgrwt>
<rscale>  2 0.28290505E+02</rscale>
<asrwt>0</asrwt>
<pdfrwt beam="1">  1       21 0.28461202E-02 0.28290505E+02</pdfrwt>
<pdfrwt beam="2">  1       21 0.68687360E-02 0.28290505E+02</pdfrwt>
<totfact> 0.78870288E+07</totfact>
</mgrwt>
</event>
<event>
 4    1  0.4505197E+006  0.2135262E+02  0.7546771E-02  0.1719695E+00
         21   -1    0    0  503  501  0.00000000000E+00  0.00000000000E+00  0.63498200662E+01  0.63498200662E+01  0.00000000000E+00 0. -1.
         21   -1    0    0  501  502 -0.00000000000E+00 -0.00000000000E+00 -0.81157540307E+02  0.81157540307E+02  0.00000000000E+00 0. -1.
         21    1    1    2  503  504  0.20019423983E+02 -0.74267755181E+01 -0.22549021031E+02  0.31054672446E+02  0.00000000000E+00 0. -1.
         21    1    1    2  504  502 -0.20019423983E+02  0.74267755181E+01 -0.52258699210E+02  0.56452687928E+02  0.00000000000E+00 0. -1.
<mgrwt>
<rscale>  2 0.21352619E+02</rscale>
<asrwt>0</asrwt>
<pdfrwt beam="1">  1       21 0.97689544E-03 0.21352619E+02</pdfrwt>
<pdfrwt beam="2">  1       21 0.12485775E-01 0.21352619E+02</pdfrwt>
<totfact> 0.13969176E+08</totfact>
</mgrwt>
</event>
<event>
 4    1  0.4505197E+006  0.2967177E+02  0.7546771E-02  0.1601745E+00
         21   -1    0    0  503  501  0.00000000000E+00  0.00000000000E+00  0.96379710105E+02  0.96379710105E+02  0.00000000000E+00 0.  1.
         21   -1    0    0  501  502 -0.00000000000E+00 -0.00000000000E+00 -0.40337168455E+02  0.40337168455E+02  0.00000000000E+00 0.  1.
         21    1    1    2  503  504 -0.27410080193E+02  0.11362277991E+02  0.88143197705E+02  0.93003425523E+02  0.00000000000E+00 0.  1.
         21    1    1    2  504  502  0.27410080193E+02 -0.11362277991E+02 -0.32100656055E+02  0.43713453038E+02  0.00000000000E+00 0.  1.
<mgrwt>
<rscale>  2 0.29671769E+02</rscale>
<asrwt>0</asrwt>
<pdfrwt beam="1">  1       21 0.14827648E-01 0.29671769E+02</pdfrwt>
<pdfrwt beam="2">  1       21 0.62057182E-02 0.29671769E+02</pdfrwt>
<totfact> 0.63489057E+06</totfact>
</mgrwt>
</event>
<event>
 4    1  0.4505197E+006  0.2433045E+02  0.7546771E-02  0.1670809E+00
         21   -1    0    0  503  501  0.00000000000E+00  0.00000000000E+00  0.73146846540E+02  0.73146846540E+02  0.00000000000E+00 0. -1.
         21   -1    0    0  504  502 -0.00000000000E+00 -0.00000000000E+00 -0.55210542056E+02  0.55210542056E+02  0.00000000000E+00 0. -1.
         21    1    1    2  503  502 -0.10731904801E+01 -0.24306768793E+02  0.68256808322E+02  0.72463526200E+02  0.00000000000E+00 0. -1.
         21    1    1    2  504  501  0.10731904801E+01  0.24306768793E+02 -0.50320503839E+02  0.55893862396E+02  0.00000000000E+00 0. -1.
<mgrwt>
<rscale>  2 0.24330449E+02</rscale>
<asrwt>0</asrwt>
<pdfrwt beam="1">  1       21 0.11253361E-01 0.24330449E+02</pdfrwt>
<pdfrwt beam="2">  1       21 0.84939295E-02 0.24330449E+02</pdfrwt>
<totfact> 0.58845860E+06</totfact>
</mgrwt>
</event>
<event>
 4    1  0.4505197E+006  0.2361082E+02  0.7546771E-02  0.1681796E+00
         21   -1    0    0  502  501  0.00000000000E+00  0.00000000000E+00  0.12655974562E+03  0.12655974562E+03  0.00000000000E+00 0. -1.
         21   -1    0    0  504  502 -0.00000000000E+00 -0.00000000000E+00 -0.73184353355E+01  0.73184353355E+01  0.00000000000E+00 0. -1.
         21    1    1    2  503  501  0.34484651593E+00  0.23608300635E+02  0.10185716689E+03  0.10455789413E+03  0.00000000000E+00 0. -1.
         21    1    1    2  504  503 -0.34484651593E+00 -0.23608300635E+02  0.17384143395E+02  0.29320286827E+02  0.00000000000E+00 0. -1.
<mgrwt>
<rscale>  2 0.23610819E+02</rscale>
<asrwt>0</asrwt>
<pdfrwt beam="1">  1       21 0.19470729E-01 0.23610819E+02</pdfrwt>
<pdfrwt beam="2">  1       21 0.11259132E-02 0.23610819E+02</pdfrwt>
<totfact> 0.54357409E+07</totfact>
</mgrwt>
</event>
<event>
 4    1  0.4505197E+006  0.4723022E+02  0.7546771E-02  0.1460880E+00
         21   -1    0    0  504  501  0.00000000000E+00  0.00000000000E+00  0.16905753243E+02  0.16905753243E+02  0.00000000000E+00 0. -1.
         21   -1    0    0  503  502 -0.00000000000E+00 -0.00000000000E+00 -0.25859197386E+03  0.25859197386E+03  0.00000000000E+00 0.  1.
         21    1    1    2  503  501 -0.45817739451E+02 -0.11464225130E+02 -0.21724186240E+03  0.22231671212E+03  0.00000000000E+00 0.  1.
         21    1    1    2  504  502  0.45817739451E+02  0.11464225130E+02 -0.24444358210E+02  0.53181014983E+02  0.00000000000E+00 0. -1.
<mgrwt>
<rscale>  2 0.47230220E+02</rscale>
<asrwt>0</asrwt>
<pdfrwt beam="1">  1       21 0.26008851E-02 0.47230220E+02</pdfrwt>
<pdfrwt beam="2">  1       21 0.39783381E-01 0.47230220E+02</pdfrwt>
<totfact> 0.45038505E+06</totfact>
</mgrwt>
</event>
<event>
 4    1  0.4505197E+006  0.2720399E+02  0.7546771E-02  0.1631224E+00
         21   -1    0    0  504  501  0.00000000000E+00  0.00000000000E+00  0.21569683502E+03  0.21569683502E+03  0.00000000000E+00 0.  1.
         21   -1    0    0  503  502 -0.00000000000E+00 -0.00000000000E+00 -0.47772241085E+01  0.47772241085E+01  0.00000000000E+00 0.  1.
         21    1    1    2  503  501 -0.26230472795E+02  0.72124608107E+01  0.46940752396E+02  0.54253954045E+02  0.00000000000E+00 0.  1.
         21    1    1    2  504  502  0.26230472795E+02 -0.72124608107E+01  0.16397885852E+03  0.16622010509E+03  0.00000000000E+00 0.  1.
<mgrwt>
<rscale>  2 0.27203994E+02</rscale>
<asrwt>0</asrwt>
<pdfrwt beam="1">  1       21 0.33184121E-01 0.27203994E+02</pdfrwt>
<pdfrwt beam="2">  1       21 0.73495773E-03 0.27203994E+02</pdfrwt>
<totfact> 0.40946449E+07</totfact>
</mgrwt>
</event>
<event>
 4    1  0.4505197E+006  0.3918396E+02  0.7546771E-02  0.1514304E+00
         21   -1    0    0  503  501  0.00000000000E+00  0.00000000000E+00  0.31923176435E+03  0.31923176435E+03  0.00000000000E+00 0. -1.
         21   -1    0    0  504  502 -0.00000000000E+00 -0.00000000000E+00 -0.82317979496E+02  0.82317979496E+02  0.00000000000E+00 0. -1.
         21    1    1    2  503  502  0.13378528364E+02 -0.36829304802E+02 -0.76364339701E+02  0.85830618612E+02  0.00000000000E+00 0. -1.
         21    1    1    2  504  501 -0.13378528364E+02  0.36829304802E+02  0.31327812456E+03  0.31571912524E+03  0.00000000000E+00 0. -1.
<mgrwt>
<rscale>  2 0.39183960E+02</rscale>
<asrwt>0</asrwt>
<pdfrwt beam="1">  1       21 0.49112579E-01 0.39183960E+02</pdfrwt>
<pdfrwt beam="2">  1       21 0.12664305E-01 0.39183960E+02</pdfrwt>
<totfact> 0.21909182E+05</totfact>
</mgrwt>
</event>
<event>
 4    1  0.4505197E+006  0.3216430E+02  0.7546771E-02  0.1575328E+00
         21   -1    0    0  504  501  0.00000000000E+00  0.00000000000E+00  0.34570077478E+02  0.34570077478E+02  0.00000000000E+00 0.  1.
         21   -1    0    0  503  502 -0.00000000000E+00 -0.00000000000E+00 -0.71093172717E+02  0.71093172717E+02  0.00000000000E+00 0.  1.
         21    1    1    2  503  501 -0.29175458225E+02 -0.13540116083E+02 -0.58464306069E+02  0.66727934107E+02  0.00000000000E+00 0.  1.
         21    1    1    2  504  502  0.29175458225E+02  0.13540116083E+02  0.21941210830E+02  0.38935316087E+02  0.00000000000E+00 0.  1.
<mgrwt>
<rscale>  2 0.32164299E+02</rscale>
<asrwt>0</asrwt>
<pdfrwt beam="1">  1       21 0.53184735E-02 0.32164299E+02</pdfrwt>
<pdfrwt beam="2">  1       21 0.10937411E-01 0.32164299E+02</pdfrwt>
<totfact> 0.13855272E+07</totfact>
</mgrwt>
</event>
<event>
 4    1  0.4505197E+006  0.2224093E+02  0.7546771E-02  0.1704118E+00
         21   -1    0    0  504  501  0.00000000000E+00  0.00000000000E+00  0.24339389094E+01  0.24339389094E+01  0.00000000000E+00 0. -1.
         21   -1    0    0  503  502 -0.00000000000E+00 -0.00000000000E+00 -0.80234586079E+03  0.80234586079E+03  0.00000000000E+00 0.  1.
         21    1    1    2  503  501  0.15631175517E+02 -0.15821668254E+02 -0.52243489941E+02  0.56780639971E+02  0.00000000000E+00 0. -1.
         21    1    1    2  504  502 -0.15631175517E+02  0.15821668254E+02 -0.74766843194E+03  0.74799915973E+03  0.00000000000E+00 0.  1.
<mgrwt>
<rscale>  2 0.22240927E+02</rscale>
<asrwt>0</asrwt>
<pdfrwt beam="1">  1       21 0.37445166E-03 0.22240927E+02</pdfrwt>
<pdfrwt beam="2">  1       21 0.12343798E+00 0.22240927E+02</pdfrwt>
<totfact> 0.73526715E+06</totfact>
</mgrwt>
</event>
<event>
 4    1  0.4505197E+006  0.3194847E+02  0.7546771E-02  0.1577498E+00
         21   -1    0    0  503  501  0.00000000000E+00  0.00000000000E+00  0.24772997925E+02  0.24772997925E+02  0.00000000000E+00 0. -1.
         21   -1    0    0  501  502 -0.00000000000E+00 -0.00000000000E+00 -0.46759383463E+02  0.46759383463E+02  0.00000000000E+00 0. -1.
         21    1    1    2  503  504 -0.31350374177E+02  0.61529636004E+01  0.13367505943E+01  0.31976426070E+02  0.00000000000E+00 0. -1.
         21    1    1    2  504  502  0.31350374177E+02 -0.61529636004E+01 -0.23323136132E+02  0.39555955318E+02  0.00000000000E+00 0. -1.
<mgrwt>
<rscale>  2 0.31948473E+02</rscale>
<asrwt>0</asrwt>
<pdfrwt beam="1">  1       21 0.38112306E-02 0.31948473E+02</pdfrwt>
<pdfrwt beam="2">  1       21 0.71937511E-02 0.31948473E+02</pdfrwt>
<totfact> 0.47416040E+07</totfact>
</mgrwt>
</event>
<event>
 4    1  0.4505197E+006  0.5449585E+02  0.7546771E-02  0.1422498E+00
         21   -1    0    0  503  501  0.00000000000E+00  0.00000000000E+00  0.23345388698E+03  0.23345388698E+03  0.00000000000E+00 0.  1.
         21   -1    0    0  504  502 -0.00000000000E+00 -0.00000000000E+00 -0.16753006634E+02  0.16753006634E+02  0.00000000000E+00 0.  1.
         21    1    1    2  503  502  0.53462959857E+02 -0.10559808314E+02  0.46977571360E+02  0.71949217086E+02  0.00000000000E+00 0.  1.
         21    1    1    2  504  501 -0.53462959857E+02  0.10559808314E+02  0.16972330898E+03  0.17825767653E+03  0.00000000000E+00 0.  1.
<mgrwt>
<rscale>  2 0.54495850E+02</rscale>
<asrwt>0</asrwt>
<pdfrwt beam="1">  1       21 0.35915980E-01 0.54495850E+02</pdfrwt>
<pdfrwt beam="2">  1       21 0.25773858E-02 0.54495850E+02</pdfrwt>
<totfact> 0.56385265E+06</totfact>
</mgrwt>
</event>
<event>
 4    1  0.4505197E+006  0.3912577E+02  0.7546771E-02  0.1514745E+00
         21   -1    0    0  503  501  0.00000000000E+00  0.00000000000E+00  0.30230622175E+02  0.30230622175E+02  0.00000000000E+00 0.  1.
         21   -1    0    0  504  502 -0.00000000000E+00 -0.00000000000E+00 -0.31881502733E+03  0.31881502733E+03  0.00000000000E+00 0. -1.
         21    1    1    2  503  502  0.28142715053E+02  0.27181130126E+02 -0.30435610973E+03  0.30686066508E+03  0.00000000000E+00 0. -1.
         21    1    1    2  504  501 -0.28142715053E+02 -0.27181130126E+02  0.15771704575E+02  0.42184984422E+02  0.00000000000E+00 0.  1.
<mgrwt>
<rscale>  2 0.39125775E+02</rscale>
<asrwt>0</asrwt>
<pdfrwt beam="1">  1       21 0.46508647E-02 0.39125775E+02</pdfrwt>
<pdfrwt beam="2">  1       21 0.49048469E-01 0.39125775E+02</pdfrwt>
<totfact> 0.11616511E+06</totfact>
</mgrwt>
</event>
<event>
 4    1  0.4505197E+006  0.2025661E+02  0.7546771E-02  0.1740273E+00
         21   -1    0    0  502  501  0.00000000000E+00  0.00000000000E+00  0.30317322059E+03  0.30317322059E+03  0.00000000000E+00 0. -1.
         21   -1    0    0  504  502 -0.00000000000E+00 -0.00000000000E+00 -0.21601677431E+02  0.21601677431E+02  0.00000000000E+00 0. -1.
         21    1    1    2  503  501 -0.42643873128E+01  0.19802658996E+02  0.29800375024E+03  0.29869142180E+03  0.00000000000E+00 0. -1.
         21    1    1    2  504  503  0.42643873128E+01 -0.19802658996E+02 -0.16432207076E+02  0.26083476223E+02  0.00000000000E+00 0. -1.
<mgrwt>
<rscale>  2 0.20256611E+02</rscale>
<asrwt>0</asrwt>
<pdfrwt beam="1">  1       21 0.46642031E-01 0.20256611E+02</pdfrwt>
<pdfrwt beam="2">  1       21 0.33233352E-02 0.20256611E+02</pdfrwt>
<totfact> 0.20539394E+06</totfact>
</mgrwt>
</event>
<event>
 4    1  0.4505197E+006  0.3564682E+02  0.7546771E-02  0.1542931E+00
         21   -1    0    0  504  501  0.00000000000E+00  0.00000000000E+00  0.19589297436E+04  0.19589297436E+04  0.00000000000E+00 0. -1.
         21   -1    0    0  503  502 -0.00000000000E+00 -0.00000000000E+00 -0.12686147596E+03  0.12686147596E+03  0.00000000000E+00 0. -1.
         21    1    1    2  503  501 -0.45532784031E+01 -0.35354819715E+02  0.19562600588E+04  0.19565848086E+04  0.00000000000E+00 0. -1.
         21    1    1    2  504  502  0.45532784031E+01  0.35354819715E+02 -0.12419179120E+03  0.12920641092E+03  0.00000000000E+00 0. -1.
<mgrwt>
<rscale>  2 0.35646818E+02</rscale>
<asrwt>0</asrwt>
<pdfrwt beam="1">  1       21 0.30137378E+00 0.35646818E+02</pdfrwt>
<pdfrwt beam="2">  1       21 0.19517152E-01 0.35646818E+02</pdfrwt>
<totfact> 0.12769095E+03</totfact>
</mgrwt>
</event>
<event>
 4    1  0.4505197E+006  0.2141934E+02  0.7546771E-02  0.1718492E+00
         21   -1    0    0  503  501  0.00000000000E+00  0.00000000000E+00  0.12210249166E+03  0.12210249166E+03  0.00000000000E+00 0. -1.
         21   -1    0    0  504  502 -0.00000000000E+00 -0.00000000000E+00 -0.46032640696E+01  0.46032640696E+01  0.00000000000E+00 0. -1.
         21    1    1    2  503  502  0.47438924062E+01 -0.20887402690E+02  0.31592521838E+02  0.38169039055E+02  0.00000000000E+00 0. -1.
         21    1    1    2  504  501 -0.47438924062E+01  0.20887402690E+02  0.85906705748E+02  0.88536716670E+02  0.00000000000E+00 0. -1.
<mgrwt>
<rscale>  2 0.21419340E+02</rscale>
<asrwt>0</asrwt>
<pdfrwt beam="1">  1       21 0.18784996E-01 0.21419340E+02</pdfrwt>
<pdfrwt beam="2">  1       21 0.70819457E-03 0.21419340E+02</pdfrwt>
<totfact> 0.11274991E+08</totfact>
</mgrwt>
</event>
<event>
 4    1  0.4505197E+006  0.2797668E+02  0.7546771E-02  0.1621595E+00
         21   -1    0    0  504  501  0.00000000000E+00  0.00000000000E+00  0.13486977412E+03  0.13486977412E+03  0.00000000000E+00 0.  1.
         21   -1    0    0  501  502 -0.00000000000E+00 -0.00000000000E+00 -0.16012259029E+03  0.16012259029E+03  0.00000000000E+00 0.  1.
         21    1    1    2  503  502  0.11547322376E+01 -0.27952840028E+02 -0.15742506483E+03  0.15989166867E+03  0.00000000000E+00 0.  1.
         21    1    1    2  504  503 -0.11547322376E+01  0.27952840028E+02  0.13217224867E+03  0.13510069574E+03  0.00000000000E+00 0.  1.
<mgrwt>
<rscale>  2 0.27976681E+02</rscale>
<asrwt>0</asrwt>
<pdfrwt beam="1">  1       21 0.20749196E-01 0.27976681E+02</pdfrwt>
<pdfrwt beam="2">  1       21 0.24634245E-01 0.27976681E+02</pdfrwt>
<totfact> 0.33798397E+05</totfact>
</mgrwt>
</event>
<event>
 4    1  0.4505197E+006  0.2087014E+02  0.7546771E-02  0.1728558E+00
         21   -1    0    0  504  501  0.00000000000E+00  0.00000000000E+00  0.65654162905E+03  0.65654162905E+03  0.00000000000E+00 0.  1.
         21   -1    0    0  501  502 -0.00000000000E+00 -0.00000000000E+00 -0.89917709734E+00  0.89917709734E+00  0.00000000000E+00 0. -1.
         21    1    1    2  503  502 -0.14062249963E+02  0.15421273771E+02  0.15950079459E+03  0.16086039299E+03  0.00000000000E+00 0. -1.
         21    1    1    2  504  503  0.14062249963E+02 -0.15421273771E+02  0.49614165737E+03  0.49658041316E+03  0.00000000000E+00 0.  1.
<mgrwt>
<rscale>  2 0.20870136E+02</rscale>
<asrwt>0</asrwt>
<pdfrwt beam="1">  1       21 0.10100602E+00 0.20870136E+02</pdfrwt>
<pdfrwt beam="2">  1       21 0.13833546E-03 0.20870136E+02</pdfrwt>
<totfact> 0.47875621E+07</totfact>
</mgrwt>
</event>
<event>
 4    1  0.4505197E+006  0.2658904E+02  0.7546771E-02  0.1639174E+00
         21   -1    0    0  502  501  0.00000000000E+00  0.00000000000E+00  0.25074727983E+01  0.25074727983E+01  0.00000000000E+00 0.  1.
         21   -1    0    0  503  502 -0.00000000000E+00 -0.00000000000E+00 -0.65193954760E+03  0.65193954760E+03  0.00000000000E+00 0.  1.
         21    1    1    2  503  504 -0.11203483856E+02  0.24113465938E+02 -0.57122723711E+03  0.57184572544E+03  0.00000000000E+00 0.  1.
         21    1    1    2  504  501  0.11203483856E+02 -0.24113465938E+02 -0.78204837691E+02  0.82601294955E+02  0.00000000000E+00 0.  1.
<mgrwt>
<rscale>  2 0.26589045E+02</rscale>
<asrwt>0</asrwt>
<pdfrwt beam="1">  1       21 0.38576479E-03 0.26589045E+02</pdfrwt>
<pdfrwt beam="2">  1       21 0.10029846E+00 0.26589045E+02</pdfrwt>
<totfact> 0.11510241E+07</totfact>
</mgrwt>
</event>
<event>
 4    1  0.4505197E+006  0.2375675E+02  0.7546771E-02  0.1679529E+00
         21   -1    0    0  504  501  0.00000000000E+00  0.00000000000E+00  0.53199271157E+02  0.53199271157E+02  0.00000000000E+00 0. -1.
         21   -1    0    0  503  502 -0.00000000000E+00 -0.00000000000E+00 -0.29441340143E+02  0.29441340143E+02  0.00000000000E+00 0. -1.
         21    1    1    2  503  501 -0.23756145341E+02 -0.16969009124E+00 -0.21168532130E+02  0.31819647842E+02  0.00000000000E+00 0. -1.
         21    1    1    2  504  502  0.23756145341E+02  0.16969009124E+00  0.44926463144E+02  0.50820963458E+02  0.00000000000E+00 0. -1.
<mgrwt>
<rscale>  2 0.23756751E+02</rscale>
<asrwt>0</asrwt>
<pdfrwt beam="1">  1       21 0.81845032E-02 0.23756751E+02</pdfrwt>
<pdfrwt beam="2">  1       21 0.45294369E-02 0.23756751E+02</pdfrwt>
<totfact> 0.27324284E+07</totfact>
</mgrwt>
</event>
<event>
 4    1  0.4505197E+006  0.2996207E+02  0.7546771E-02  0.1598508E+00
         21   -1    0    0  504  501  0.00000000000E+00  0.00000000000E+00  0.87613690887E+00  0.87613690887E+00  0.00000000000E+00 0.  1.
         21   -1    0    0  503  502 -0.00000000000E+00 -0.00000000000E+00 -0.13527470940E+04  0.13527470940E+04  0.00000000000E+00 0.  1.
         21    1    1    2  503  501  0.12805308978E+02 -0.27087818669E+02 -0.34261146553E+03  0.34391909248E+03  0.00000000000E+00 0.  1.
         21    1    1    2  504  502 -0.12805308978E+02  0.27087818669E+02 -0.10092594915E+04  0.10097041384E+04  0.00000000000E+00 0.  1.
<mgrwt>
<rscale>  2 0.29962074E+02</rscale>
<asrwt>0</asrwt>
<pdfrwt beam="1">  1       21 0.13479000E-03 0.29962074E+02</pdfrwt>
<pdfrwt beam="2">  1       21 0.20811539E+00 0.29962074E+02</pdfrwt>
<totfact> 0.93906799E+06</totfact>
</mgrwt>
</event>
<event>
 4    1  0.4505197E+006  0.2103963E+02  0.7546771E-02  0.1725411E+00
         21   -1    0    0  503  501  0.00000000000E+00  0.00000000000E+00  0.21119261578E+02  0.21119261578E+02  0.00000000000E+00 0. -1.
         21   -1    0    0  504  502 -0.00000000000E+00 -0.00000000000E+00 -0.28796251396E+02  0.28796251396E+02  0.00000000000E+00 0.  1.
         21    1    1    2  503  502 -0.10795762964E+01 -0.21011910345E+02  0.91806868528E+01  0.22955410526E+02  0.00000000000E+00 0. -1.
         21    1    1    2  504  501  0.10795762964E+01  0.21011910345E+02 -0.16857676671E+02  0.26960102449E+02  0.00000000000E+00 0.  1.
<mgrwt>
<rscale>  2 0.21039626E+02</rscale>
<asrwt>0</asrwt>
<pdfrwt beam="1">  1       21 0.32491172E-02 0.21039626E+02</pdfrwt>
<pdfrwt beam="2">  1       21 0.44301925E-02 0.21039626E+02</pdfrwt>
<totfact> 0.11941993E+08</totfact>
</mgrwt>
</event>
<event>
 4    1  0.4505197E+006  0.2185361E+02  0.7546771E-02  0.1710796E+00
         21   -1    0    0  503  501  0.00000000000E+00  0.00000000000E+00  0.17010835901E+03  0.17010835901E+03  0.00000000000E+00 0. -1.
         21   -1    0    0  501  502 -0.00000000000E+00 -0.00000000000E+00 -0.45197833799E+02  0.45197833799E+02  0.00000000000E+00 0. -1.
         21    1    1    2  503  504  0.20640901931E+02  0.71786858346E+01  0.16671127242E+03  0.16813752916E+03  0.00000000000E+00 0. -1.
         21    1    1    2  504  502 -0.20640901931E+02 -0.71786858346E+01 -0.41800747206E+02  0.47168663643E+02  0.00000000000E+00 0. -1.
<mgrwt>
<rscale>  2 0.21853612E+02</rscale>
<asrwt>0</asrwt>
<pdfrwt beam="1">  1       21 0.26170516E-01 0.21853612E+02</pdfrwt>
<pdfrwt beam="2">  1       21 0.69535130E-02 0.21853612E+02</pdfrwt>
<totfact> 0.18720282E+06</totfact>
</mgrwt>
</event>
<event>
 4    1  0.4505197E+006  0.2142313E+02  0.7546771E-02  0.1718424E+00
         21   -1    0    0  503  501  0.00000000000E+00  0.00000000000E+00  0.55384116838E+03  0.55384116838E+03  0.00000000000E+00 0.  1.
         21   -1    0    0  501  502 -0.00000000000E+00 -0.00000000000E+00 -0.74771542860E+01  0.74771542860E+01  0.00000000000E+00 0. -1.
         21    1    1    2  503  504  0.21377017594E+02 -0.14048329623E+01  0.53783233814E+03  0.53825883587E+03  0.00000000000E+00 0.  1.
         21    1    1    2  504  502 -0.21377017594E+02  0.14048329623E+01  0.85316759496E+01  0.23059486797E+02  0.00000000000E+00 0. -1.
<mgrwt>
<rscale>  2 0.21423129E+02</rscale>
<asrwt>0</asrwt>
<pdfrwt beam="1">  1       21 0.85206301E-01 0.21423129E+02</pdfrwt>
<pdfrwt beam="2">  1       21 0.11503319E-02 0.21423129E+02</pdfrwt>
<totfact> 0.31209714E+06</totfact>
</mgrwt>
</event>
<event>
 4    1  0.4505197E+006  0.2114006E+02  0.7546771E-02  0.1723563E+00
         21   -1    0    0  502  501  0.00000000000E+00  0.00000000000E+00  0.22729796417E+03  0.22729796417E+03  0.00000000000E+00 0.  1.
         21   -1    0    0  503  502 -0.00000000000E+00 -0.00000000000E+00 -0.22334324554E+01  0.22334324554E+01  0.00000000000E+00 0.  1.
         21    1    1    2  503  504  0.98563817532E+01 -0.18701705504E+02  0.72830451486E+02  0.75836513064E+02  0.00000000000E+00 0.  1.
         21    1    1    2  504  501 -0.98563817532E+01  0.18701705504E+02  0.15223408023E+03  0.15369488357E+03  0.00000000000E+00 0.  1.
<mgrwt>
<rscale>  2 0.21140058E+02</rscale>
<asrwt>0</asrwt>
<pdfrwt beam="1">  1       21 0.34968899E-01 0.21140058E+02</pdfrwt>
<pdfrwt beam="2">  1       21 0.34360517E-03 0.21140058E+02</pdfrwt>
<totfact> 0.10741601E+08</totfact>
</mgrwt>
</event>
<event>
 4    1  0.4505197E+006  0.2820369E+02  0.7546771E-02  0.1618838E+00
         21   -1    0    0  502  501  0.00000000000E+00  0.00000000000E+00  0.13441938806E+01  0.13441938806E+01  0.00000000000E+00 0.  1.
         21   -1    0    0  503  502 -0.00000000000E+00 -0.00000000000E+00 -0.12974542240E+04  0.12974542240E+04  0.00000000000E+00 0.  1.
         21    1    1    2  503  504 -0.15605786374E+02  0.23492713605E+02 -0.11269851733E+04  0.11273380278E+04  0.00000000000E+00 0.  1.
         21    1    1    2  504  501  0.15605786374E+02 -0.23492713605E+02 -0.16912485679E+03  0.17146039002E+03  0.00000000000E+00 0.  1.
<mgrwt>
<rscale>  2 0.28203691E+02</rscale>
<asrwt>0</asrwt>
<pdfrwt beam="1">  1       21 0.20679900E-03 0.28203691E+02</pdfrwt>
<pdfrwt beam="2">  1       21 0.19960840E+00 0.28203691E+02</pdfrwt>
<totfact> 0.56123583E+06</totfact>
</mgrwt>
</event>
<event>
 4    1  0.4505197E+006  0.3018798E+02  0.7546771E-02  0.1596020E+00
         21   -1    0    0  503  501  0.00000000000E+00  0.00000000000E+00  0.29202861662E+02  0.29202861662E+02  0.00000000000E+00 0.  1.
         21   -1    0    0  504  502 -0.00000000000E+00 -0.00000000000E+00 -0.34222754415E+02  0.34222754415E+02  0.00000000000E+00 0.  1.
         21    1    1    2  503  502 -0.19768418586E+02  0.22814995564E+02 -0.11925000174E+02  0.32457973214E+02  0.00000000000E+00 0.  1.
         21    1    1    2  504  501  0.19768418586E+02 -0.22814995564E+02  0.69051074212E+01  0.30967642863E+02  0.00000000000E+00 0.  1.
<mgrwt>
<rscale>  2 0.30187984E+02</rscale>
<asrwt>0</asrwt>
<pdfrwt beam="1">  1       21 0.44927479E-02 0.30187984E+02</pdfrwt>
<pdfrwt beam="2">  1       21 0.52650391E-02 0.30187984E+02</pdfrwt>
<totfact> 0.59858126E+07</totfact>
</mgrwt>
</event>
<event>
 4    1  0.4505197E+006  0.2348534E+02  0.7546771E-02  0.1683762E+00
         21   -1    0    0  503  501  0.00000000000E+00  0.00000000000E+00  0.83325905611E+01  0.83325905611E+01  0.00000000000E+00 0.  1.
         21   -1    0    0  504  502 -0.00000000000E+00 -0.00000000000E+00 -0.68028533855E+02  0.68028533855E+02  0.00000000000E+00 0.  1.
         21    1    1    2  503  502  0.13015231360E+01  0.23449243955E+02 -0.36119189294E+02  0.43083138694E+02  0.00000000000E+00 0.  1.
         21    1    1    2  504  501 -0.13015231360E+01 -0.23449243955E+02 -0.23576754001E+02  0.33277985722E+02  0.00000000000E+00 0.  1.
<mgrwt>
<rscale>  2 0.23485336E+02</rscale>
<asrwt>0</asrwt>
<pdfrwt beam="1">  1       21 0.12819370E-02 0.23485336E+02</pdfrwt>
<pdfrwt beam="2">  1       21 0.10465928E-01 0.23485336E+02</pdfrwt>
<totfact> 0.12808433E+08</totfact>
</mgrwt>
</event>
<event>
 4    1  0.4505197E+006  0.2734471E+02  0.7546771E-02  0.1629442E+00
         21   -1    0    0  504  501  0.00000000000E+00  0.00000000000E+00  0.23944917575E+03  0.23944917575E+03  0.00000000000E+00 0.  1.
         21   -1    0    0  503  502 -0.00000000000E+00 -0.00000000000E+00 -0.36544677073E+01  0.36544677073E+01  0.00000000000E+00 0.  1.
         21    1    1    2  503  501 -0.14776006666E+01  0.27304758511E+02  0.16426355570E+03  0.16652401890E+03  0.00000000000E+00 0.  1.
         21    1    1    2  504  502  0.14776006666E+01 -0.27304758511E+02  0.71531152342E+02  0.76579624552E+02  0.00000000000E+00 0.  1.
<mgrwt>
<rscale>  2 0.27344710E+02</rscale>
<asrwt>0</asrwt>
<pdfrwt beam="1">  1       21 0.36838322E-01 0.27344710E+02</pdfrwt>
<pdfrwt beam="2">  1       21 0.56222599E-03 0.27344710E+02</pdfrwt>
<totfact> 0.50321556E+07</totfact>
</mgrwt>
</event>
<event>
 4    1  0.4505197E+006  0.2703422E+02  0.7546771E-02  0.1633393E+00
         21   -1    0    0  504  501  0.00000000000E+00  0.00000000000E+00  0.28193699910E+02  0.28193699910E+02  0.00000000000E+00 0. -1.
         21   -1    0    0  503  502 -0.00000000000E+00 -0.00000000000E+00 -0.23998307954E+03  0.23998307954E+03  0.00000000000E+00 0. -1.
         21    1    1    2  503  501  0.23668255291E+02  0.13063795518E+02  0.20744839934E+02  0.34076347306E+02  0.00000000000E+00 0. -1.
         21    1    1    2  504  502 -0.23668255291E+02 -0.13063795518E+02 -0.23253421956E+03  0.23410043214E+03  0.00000000000E+00 0. -1.
<mgrwt>
<rscale>  2 0.27034220E+02</rscale>
<asrwt>0</asrwt>
<pdfrwt beam="1">  1       21 0.43374924E-02 0.27034220E+02</pdfrwt>
<pdfrwt beam="2">  1       21 0.36920473E-01 0.27034220E+02</pdfrwt>
<totfact> 0.21781534E+06</totfact>
</mgrwt>
</event>
<event>
 4    1  0.4505197E+006  0.2624617E+02  0.7546771E-02  0.1643722E+00
         21   -1    0    0  503  501  0.00000000000E+00  0.00000000000E+00  0.56733802086E+01  0.56733802086E+01  0.00000000000E+00 0.  1.
         21   -1    0    0  501  502 -0.00000000000E+00 -0.00000000000E+00 -0.34905251662E+03  0.34905251662E+03  0.00000000000E+00 0. -1.
         21    1    1    2  503  504  0.23788109780E+02 -0.11089954340E+02 -0.28459315285E+02  0.38714259397E+02  0.00000000000E+00 0.  1.
         21    1    1    2  504  502 -0.23788109780E+02  0.11089954340E+02 -0.31491982113E+03  0.31601163743E+03  0.00000000000E+00 0. -1.
<mgrwt>
<rscale>  2 0.26246166E+02</rscale>
<asrwt>0</asrwt>
<pdfrwt beam="1">  1       21 0.87282767E-03 0.26246166E+02</pdfrwt>
<pdfrwt beam="2">  1       21 0.53700390E-01 0.26246166E+02</pdfrwt>
<totfact> 0.12520053E+07</totfact>
</mgrwt>
</event>
<event>
 4    1  0.4505197E+006  0.2235022E+02  0.7546771E-02  0.1702265E+00
         21   -1    0    0  504  501  0.00000000000E+00  0.00000000000E+00  0.70759144394E+03  0.70759144394E+03  0.00000000000E+00 0.  1.
         21   -1    0    0  503  502 -0.00000000000E+00 -0.00000000000E+00 -0.12488128326E+01  0.12488128326E+01  0.00000000000E+00 0.  1.
         21    1    1    2  503  501  0.10425915625E+02 -0.19769485230E+02  0.58684520479E+03  0.58727065877E+03  0.00000000000E+00 0.  1.
         21    1    1    2  504  502 -0.10425915625E+02  0.19769485230E+02  0.11949742631E+03  0.12156959800E+03  0.00000000000E+00 0.  1.
<mgrwt>
<rscale>  2 0.22350218E+02</rscale>
<asrwt>0</asrwt>
<pdfrwt beam="1">  1       21 0.10885990E+00 0.22350218E+02</pdfrwt>
<pdfrwt beam="2">  1       21 0.19212562E-03 0.22350218E+02</pdfrwt>
<totfact> 0.25711951E+07</totfact>
</mgrwt>
</event>
<event>
 4    1  0.4505197E+006  0.2225933E+02  0.7546771E-02  0.1703805E+00
         21   -1    0    0  502  501  0.00000000000E+00  0.00000000000E+00  0.52344844465E+01  0.52344844465E+01  0.00000000000E+00 0. -1.
         21   -1    0    0  504  502 -0.00000000000E+00 -0.00000000000E+00 -0.96838571971E+02  0.96838571971E+02  0.00000000000E+00 0. -1.
         21    1    1    2  503  501 -0.43272431502E+01 -0.21834668949E+02 -0.53463208652E+02  0.57911937290E+02  0.00000000000E+00 0. -1.
         21    1    1    2  504  503  0.43272431502E+01  0.21834668949E+02 -0.38140878873E+02  0.44161119127E+02  0.00000000000E+00 0. -1.
<mgrwt>
<rscale>  2 0.22259331E+02</rscale>
<asrwt>0</asrwt>
<pdfrwt beam="1">  1       21 0.80530528E-03 0.22259331E+02</pdfrwt>
<pdfrwt beam="2">  1       21 0.14898242E-01 0.22259331E+02</pdfrwt>
<totfact> 0.14011629E+08</totfact>
</mgrwt>
</event>
<event>
 4    1  0.4505197E+006  0.3139214E+02  0.7546771E-02  0.1583191E+00
         21   -1    0    0  504  501  0.00000000000E+00  0.00000000000E+00  0.19240685371E+01  0.19240685371E+01  0.00000000000E+00 0. -1.
         21   -1    0    0  503  502 -0.00000000000E+00 -0.00000000000E+00 -0.62621957406E+03  0.62621957406E+03  0.00000000000E+00 0.  1.
         21    1    1    2  503  501 -0.30760191843E+02  0.62671260202E+01 -0.44617607061E+03  0.44727905412E+03  0.00000000000E+00 0.  1.
         21    1    1    2  504  502  0.30760191843E+02 -0.62671260202E+01 -0.17811943491E+03  0.18086458848E+03  0.00000000000E+00 0. -1.
<mgrwt>
<rscale>  2 0.31392137E+02</rscale>
<asrwt>0</asrwt>
<pdfrwt beam="1">  1       21 0.29601003E-03 0.31392137E+02</pdfrwt>
<pdfrwt beam="2">  1       21 0.96341639E-01 0.31392137E+02</pdfrwt>
<totfact> 0.19049940E+07</totfact>
</mgrwt>
</event>
<event>
 4    1  0.4505197E+006  0.2876562E+02  0.7546771E-02  0.1612148E+00
         21   -1    0    0  504  501  0.00000000000E+00  0.00000000000E+00  0.11680462935E+04  0.11680462935E+04  0.00000000000E+00 0. -1.
         21   -1    0    0  503  502 -0.00000000000E+00 -0.00000000000E+00 -0.15332275500E+01  0.15332275500E+01  0.00000000000E+00 0. -1.
         21    1    1    2  503  501  0.14207480334E+02  0.25012163571E+02  0.10121744996E+04  0.10125831712E+04  0.00000000000E+00 0. -1.
         21    1    1    2  504  502 -0.14207480334E+02 -0.25012163571E+02  0.15433856636E+03  0.15699634993E+03  0.00000000000E+00 0. -1.
<mgrwt>
<rscale>  2 0.28765619E+02</rscale>
<asrwt>0</asrwt>
<pdfrwt beam="1">  1       21 0.17969872E+00 0.28765619E+02</pdfrwt>
<pdfrwt beam="2">  1       21 0.23588210E-03 0.28765619E+02</pdfrwt>
<totfact> 0.60811395E+06</totfact>
</mgrwt>
</event>
<event>
 4    1  0.4505197E+006  0.3073748E+02  0.7546771E-02  0.1590077E+00
         21   -1    0    0  503  501  0.00000000000E+00  0.00000000000E+00  0.26677473886E+03  0.26677473886E+03  0.00000000000E+00 0.  1.
         21   -1    0    0  504  502 -0.00000000000E+00 -0.00000000000E+00 -0.64294155369E+01  0.64294155369E+01  0.00000000000E+00 0.  1.
         21    1    1    2  503  502  0.26497705094E+02  0.15577678394E+02  0.22172323424E+03  0.22384366205E+03  0.00000000000E+00 0.  1.
         21    1    1    2  504  501 -0.26497705094E+02 -0.15577678394E+02  0.38622089087E+02  0.49360492348E+02  0.00000000000E+00 0.  1.
<mgrwt>
<rscale>  2 0.30737476E+02</rscale>
<asrwt>0</asrwt>
<pdfrwt beam="1">  1       21 0.41042259E-01 0.30737476E+02</pdfrwt>
<pdfrwt beam="2">  1       21 0.98914106E-03 0.30737476E+02</pdfrwt>
<totfact> 0.17957119E+07</totfact>
</mgrwt>
</event>
<event>
 4    1  0.4505197E+006  0.2246049E+02  0.7546771E-02  0.1700408E+00
         21   -1    0    0  504  501  0.00000000000E+00  0.00000000000E+00  0.20438407851E+02  0.20438407851E+02  0.00000000000E+00 0. -1.
         21   -1    0    0  503  502 -0.00000000000E+00 -0.00000000000E+00 -0.25023659535E+02  0.25023659535E+02  0.00000000000E+00 0. -1.
         21    1    1    2  503  501  0.17432235111E+01 -0.22392739253E+02  0.36101179589E+00  0.22463390862E+02  0.00000000000E+00 0. -1.
         21    1    1    2  504  502 -0.17432235111E+01  0.22392739253E+02 -0.49462634801E+01  0.22998676525E+02  0.00000000000E+00 0. -1.
<mgrwt>
<rscale>  2 0.22460490E+02</rscale>
<asrwt>0</asrwt>
<pdfrwt beam="1">  1       21 0.31443704E-02 0.22460490E+02</pdfrwt>
<pdfrwt beam="2">  1       21 0.38497938E-02 0.22460490E+02</pdfrwt>
<totfact> 0.15992524E+08</totfact>
</mgrwt>
</event>
<event>
 4    1  0.4505197E+006  0.2049551E+02  0.7546771E-02  0.1735650E+00
         21   -1    0    0  503  501  0.00000000000E+00  0.00000000000E+00  0.99663979543E+02  0.99663979543E+02  0.00000000000E+00 0.  1.
         21   -1    0    0  501  502 -0.00000000000E+00 -0.00000000000E+00 -0.15018484084E+02  0.15018484084E+02  0.00000000000E+00 0.  1.
         21    1    1    2  503  504 -0.13200170899E+02  0.15678690347E+02  0.90956690930E+02  0.93237253648E+02  0.00000000000E+00 0.  1.
         21    1    1    2  504  502  0.13200170899E+02 -0.15678690347E+02 -0.63111954718E+01  0.21445209980E+02  0.00000000000E+00 0.  1.
<mgrwt>
<rscale>  2 0.20495508E+02</rscale>
<asrwt>0</asrwt>
<pdfrwt beam="1">  1       21 0.15332920E-01 0.20495508E+02</pdfrwt>
<pdfrwt beam="2">  1       21 0.23105361E-02 0.20495508E+02</pdfrwt>
<totfact> 0.26518707E+07</totfact>
</mgrwt>
</event>
<event>
 4    1  0.4505197E+006  0.5587666E+02  0.7546771E-02  0.1415998E+00
         21   -1    0    0  503  501  0.00000000000E+00  0.00000000000E+00  0.32715434896E+02  0.32715434896E+02  0.00000000000E+00 0.  1.
         21   -1    0    0  501  502 -0.00000000000E+00 -0.00000000000E+00 -0.95446895546E+02  0.95446895546E+02  0.00000000000E+00 0.  1.
         21    1    1    2  503  504 -0.53072233687E+02 -0.17479674271E+02 -0.32077920266E+02  0.64429759969E+02  0.00000000000E+00 0.  1.
         21    1    1    2  504  502  0.53072233687E+02  0.17479674271E+02 -0.30653540384E+02  0.63732570473E+02  0.00000000000E+00 0.  1.
<mgrwt>
<rscale>  2 0.55876659E+02</rscale>
<asrwt>0</asrwt>
<pdfrwt beam="1">  1       21 0.50331438E-02 0.55876659E+02</pdfrwt>
<pdfrwt beam="2">  1       21 0.14684138E-01 0.55876659E+02</pdfrwt>
<totfact> 0.98523242E+06</totfact>
</mgrwt>
</event>
<event>
 4    1  0.4505197E+006  0.2093146E+02  0.7546771E-02  0.1727415E+00
         21   -1    0    0  503  501  0.00000000000E+00  0.00000000000E+00  0.11397063231E+03  0.11397063231E+03  0.00000000000E+00 0.  1.
         21   -1    0    0  504  502 -0.00000000000E+00 -0.00000000000E+00 -0.52003277385E+02  0.52003277385E+02  0.00000000000E+00 0.  1.
         21    1    1    2  503  502 -0.18515179051E+02 -0.97629033534E+01  0.11084445628E+03  0.11280345573E+03  0.00000000000E+00 0.  1.
         21    1    1    2  504  501  0.18515179051E+02  0.97629033534E+01 -0.48877101358E+02  0.53170453960E+02  0.00000000000E+00 0.  1.
<mgrwt>
<rscale>  2 0.20931463E+02</rscale>
<asrwt>0</asrwt>
<pdfrwt beam="1">  1       21 0.17533943E-01 0.20931463E+02</pdfrwt>
<pdfrwt beam="2">  1       21 0.80005042E-02 0.20931463E+02</pdfrwt>
<totfact> 0.29897985E+06</totfact>
</mgrwt>
</event>
<event>
 4    1  0.4505197E+006  0.3336574E+02  0.7546771E-02  0.1563611E+00
         21   -1    0    0  502  501  0.00000000000E+00  0.00000000000E+00  0.30990517086E+03  0.30990517086E+03  0.00000000000E+00 0. -1.
         21   -1    0    0  503  502 -0.00000000000E+00 -0.00000000000E+00 -0.47373122875E+01  0.47373122875E+01  0.00000000000E+00 0. -1.
         21    1    1    2  503  504  0.19009979317E+02 -0.27420668325E+02  0.75239966569E+02  0.82306287331E+02  0.00000000000E+00 0. -1.
         21    1    1    2  504  501 -0.19009979317E+02  0.27420668325E+02  0.22992789200E+03  0.23233619581E+03  0.00000000000E+00 0. -1.
<mgrwt>
<rscale>  2 0.33365736E+02</rscale>
<asrwt>0</asrwt>
<pdfrwt beam="1">  1       21 0.47677703E-01 0.33365736E+02</pdfrwt>
<pdfrwt beam="2">  1       21 0.72881752E-03 0.33365736E+02</pdfrwt>
<totfact> 0.21610045E+07</totfact>
</mgrwt>
</event>
<event>
 4    1  0.4505197E+006  0.2592009E+02  0.7546771E-02  0.1648128E+00
         21   -1    0    0  504  501  0.00000000000E+00  0.00000000000E+00  0.75903128928E+02  0.75903128928E+02  0.00000000000E+00 0.  1.
         21   -1    0    0  503  502 -0.00000000000E+00 -0.00000000000E+00 -0.88514278925E+01  0.88514278925E+01  0.00000000000E+00 0.  1.
         21    1    1    2  503  501  0.19013367880E+02 -0.17616546279E+02  0.33502069377E+02  0.42358464484E+02  0.00000000000E+00 0.  1.
         21    1    1    2  504  502 -0.19013367880E+02  0.17616546279E+02  0.33549631658E+02  0.42396092336E+02  0.00000000000E+00 0.  1.
<mgrwt>
<rscale>  2 0.25920086E+02</rscale>
<asrwt>0</asrwt>
<pdfrwt beam="1">  1       21 0.11677404E-01 0.25920086E+02</pdfrwt>
<pdfrwt beam="2">  1       21 0.13617582E-02 0.25920086E+02</pdfrwt>
<totfact> 0.99997417E+07</totfact>
</mgrwt>
</event>
<event>
 4    1  0.4505197E+006  0.2282475E+02  0.7546771E-02  0.1694367E+00
         21   -1    0    0  504  501  0.00000000000E+00  0.00000000000E+00  0.54510691226E+02  0.54510691226E+02  0.00000000000E+00 0. -1.
         21   -1    0    0  503  502 -0.00000000000E+00 -0.00000000000E+00 -0.14871974633E+03  0.14871974633E+03  0.00000000000E+00 0.  1.
         21    1    1    2  503  501 -0.16693104086E+02  0.15566291813E+02  0.51191424564E+02  0.56049363187E+02  0.00000000000E+00 0. -1.
         21    1    1    2  504  502  0.16693104086E+02 -0.15566291813E+02 -0.14540047967E+03  0.14718107437E+03  0.00000000000E+00 0.  1.
<mgrwt>
<rscale>  2 0.22824749E+02</rscale>
<asrwt>0</asrwt>
<pdfrwt beam="1">  1       21 0.83862602E-02 0.22824749E+02</pdfrwt>
<pdfrwt beam="2">  1       21 0.22879961E-01 0.22824749E+02</pdfrwt>
<totfact> 0.17622947E+06</totfact>
</mgrwt>
</event>
<event>
 4    1  0.4505197E+006  0.2095702E+02  0.7546771E-02  0.1726940E+00
         21   -1    0    0  503  501  0.00000000000E+00  0.00000000000E+00  0.13649330886E+04  0.13649330886E+04  0.00000000000E+00 0.  1.
         21   -1    0    0  504  502 -0.00000000000E+00 -0.00000000000E+00 -0.38162526197E+00  0.38162526197E+00  0.00000000000E+00 0.  1.
         21    1    1    2  503  502 -0.82397909508E+01  0.19269206789E+02  0.41192337383E+03  0.41245613391E+03  0.00000000000E+00 0.  1.
         21    1    1    2  504  501  0.82397909508E+01 -0.19269206789E+02  0.95262808951E+03  0.95285857996E+03  0.00000000000E+00 0.  1.
<mgrwt>
<rscale>  2 0.20957015E+02</rscale>
<asrwt>0</asrwt>
<pdfrwt beam="1">  1       21 0.20998580E+00 0.20957015E+02</pdfrwt>
<pdfrwt beam="2">  1       21 0.58712671E-04 0.20957015E+02</pdfrwt>
<totfact> 0.28726586E+07</totfact>
</mgrwt>
</event>
<event>
 4    1  0.4505197E+006  0.2060800E+02  0.7546771E-02  0.1733501E+00
         21   -1    0    0  503  501  0.00000000000E+00  0.00000000000E+00  0.79996914606E+02  0.79996914606E+02  0.00000000000E+00 0.  1.
         21   -1    0    0  501  502 -0.00000000000E+00 -0.00000000000E+00 -0.14459860835E+03  0.14459860835E+03  0.00000000000E+00 0. -1.
         21    1    1    2  503  504 -0.17551227826E+02  0.10800190617E+02  0.77916175055E+02  0.80595409613E+02  0.00000000000E+00 0.  1.
         21    1    1    2  504  502  0.17551227826E+02 -0.10800190617E+02 -0.14251786880E+03  0.14400011334E+03  0.00000000000E+00 0. -1.
<mgrwt>
<rscale>  2 0.20608001E+02</rscale>
<asrwt>0</asrwt>
<pdfrwt beam="1">  1       21 0.12307218E-01 0.20608001E+02</pdfrwt>
<pdfrwt beam="2">  1       21 0.22245939E-01 0.20608001E+02</pdfrwt>
<totfact> 0.97153394E+05</totfact>
</mgrwt>
</event>
<event>
 4    1  0.4505197E+006  0.3179766E+02  0.7546771E-02  0.1579028E+00
         21   -1    0    0  504  501  0.00000000000E+00  0.00000000000E+00  0.21583308873E+03  0.21583308873E+03  0.00000000000E+00 0.  1.
         21   -1    0    0  503  502 -0.00000000000E+00 -0.00000000000E+00 -0.92433088680E+01  0.92433088680E+01  0.00000000000E+00 0. -1.
         21    1    1    2  503  501  0.10756843321E+02  0.29922927242E+02  0.18232766873E+03  0.18507963161E+03  0.00000000000E+00 0.  1.
         21    1    1    2  504  502 -0.10756843321E+02 -0.29922927242E+02  0.24262111138E+02  0.39996765993E+02  0.00000000000E+00 0. -1.
<mgrwt>
<rscale>  2 0.31797661E+02</rscale>
<asrwt>0</asrwt>
<pdfrwt beam="1">  1       21 0.33205087E-01 0.31797661E+02</pdfrwt>
<pdfrwt beam="2">  1       21 0.14220477E-02 0.31797661E+02</pdfrwt>
<totfact> 0.15488901E+07</totfact>
</mgrwt>
</event>
<event>
 4    1  0.4505197E+006  0.3147656E+02  0.7546771E-02  0.1582318E+00
         21   -1    0    0  504  501  0.00000000000E+00  0.00000000000E+00  0.12201653187E+03  0.12201653187E+03  0.00000000000E+00 0. -1.
         21   -1    0    0  503  502 -0.00000000000E+00 -0.00000000000E+00 -0.15858947274E+02  0.15858947274E+02  0.00000000000E+00 0. -1.
         21    1    1    2  503  501  0.15997446582E+02  0.27108220953E+02  0.49216315389E+01  0.31859008104E+02  0.00000000000E+00 0. -1.
         21    1    1    2  504  502 -0.15997446582E+02 -0.27108220953E+02  0.10123595306E+03  0.10601647104E+03  0.00000000000E+00 0. -1.
<mgrwt>
<rscale>  2 0.31476562E+02</rscale>
<asrwt>0</asrwt>
<pdfrwt beam="1">  1       21 0.18771774E-01 0.31476562E+02</pdfrwt>
<pdfrwt beam="2">  1       21 0.24398381E-02 0.31476562E+02</pdfrwt>
<totfact> 0.18799584E+07</totfact>
</mgrwt>
</event>
<event>
 4    1  0.4505197E+006  0.2062480E+02  0.7546771E-02  0.1733181E+00
         21   -1    0    0  504  501  0.00000000000E+00  0.00000000000E+00  0.17167855683E+04  0.17167855683E+04  0.00000000000E+00 0.  1.
         21   -1    0    0  501  502 -0.00000000000E+00 -0.00000000000E+00 -0.43072917071E+00  0.43072917071E+00  0.00000000000E+00 0. -1.
         21    1    1    2  503  502 -0.86176970154E+01 -0.18738137148E+02  0.29860034568E+03  0.29931179216E+03  0.00000000000E+00 0. -1.
         21    1    1    2  504  503  0.86176970154E+01  0.18738137148E+02  0.14177544934E+04  0.14179045053E+04  0.00000000000E+00 0.  1.
<mgrwt>
<rscale>  2 0.20624803E+02</rscale>
<asrwt>0</asrwt>
<pdfrwt beam="1">  1       21 0.26411538E+00 0.20624803E+02</pdfrwt>
<pdfrwt beam="2">  1       21 0.66267401E-04 0.20624803E+02</pdfrwt>
<totfact> 0.12885977E+07</totfact>
</mgrwt>
</event>
<event>
 4    1  0.4505197E+006  0.2219602E+02  0.7546771E-02  0.1704884E+00
         21   -1    0    0  504  501  0.00000000000E+00  0.00000000000E+00  0.66614816281E+01  0.66614816281E+01  0.00000000000E+00 0.  1.
         21   -1    0    0  503  502 -0.00000000000E+00 -0.00000000000E+00 -0.15529842049E+03  0.15529842049E+03  0.00000000000E+00 0.  1.
         21    1    1    2  503  501  0.10204457369E+02  0.19711223950E+02 -0.15711424300E+02  0.27193972739E+02  0.00000000000E+00 0.  1.
         21    1    1    2  504  502 -0.10204457369E+02 -0.19711223950E+02 -0.13292551456E+03  0.13476592938E+03  0.00000000000E+00 0.  1.
<mgrwt>
<rscale>  2 0.22196020E+02</rscale>
<asrwt>0</asrwt>
<pdfrwt beam="1">  1       21 0.10248433E-02 0.22196020E+02</pdfrwt>
<pdfrwt beam="2">  1       21 0.23892065E-01 0.22196020E+02</pdfrwt>
<totfact> 0.43039076E+07</totfact>
</mgrwt>
</event>
<event>
 4    1  0.4505197E+006  0.3339859E+02  0.7546771E-02  0.1563299E+00
         21   -1    0    0  504  501  0.00000000000E+00  0.00000000000E+00  0.18372464908E+03  0.18372464908E+03  0.00000000000E+00 0. -1.
         21   -1    0    0  503  502 -0.00000000000E+00 -0.00000000000E+00 -0.93392297897E+01  0.93392297897E+01  0.00000000000E+00 0. -1.
         21    1    1    2  503  501  0.30852383150E+02 -0.12790478905E+02  0.14429390401E+03  0.14810873247E+03  0.00000000000E+00 0. -1.
         21    1    1    2  504  502 -0.30852383150E+02  0.12790478905E+02  0.30091515274E+02  0.44955146403E+02  0.00000000000E+00 0. -1.
<mgrwt>
<rscale>  2 0.33398591E+02</rscale>
<asrwt>0</asrwt>
<pdfrwt beam="1">  1       21 0.28265328E-01 0.33398591E+02</pdfrwt>
<pdfrwt beam="2">  1       21 0.14368047E-02 0.33398591E+02</pdfrwt>
<totfact> 0.20706899E+07</totfact>
</mgrwt>
</event>
<event>
 4    1  0.4505197E+006  0.3346953E+02  0.7546771E-02  0.1562627E+00
         21   -1    0    0  502  501  0.00000000000E+00  0.00000000000E+00  0.25848089336E+02  0.25848089336E+02  0.00000000000E+00 0.  1.
         21   -1    0    0  503  502 -0.00000000000E+00 -0.00000000000E+00 -0.51315171002E+02  0.51315171002E+02  0.00000000000E+00 0. -1.
         21    1    1    2  503  504 -0.32293321364E+02  0.87949400101E+01 -0.27945206993E+02  0.43602111972E+02  0.00000000000E+00 0. -1.
         21    1    1    2  504  501  0.32293321364E+02 -0.87949400101E+01  0.24781253280E+01  0.33561148366E+02  0.00000000000E+00 0.  1.
<mgrwt>
<rscale>  2 0.33469532E+02</rscale>
<asrwt>0</asrwt>
<pdfrwt beam="1">  1       21 0.39766292E-02 0.33469532E+02</pdfrwt>
<pdfrwt beam="2">  1       21 0.78946416E-02 0.33469532E+02</pdfrwt>
<totfact> 0.38383576E+07</totfact>
</mgrwt>
</event>
<event>
 4    1  0.4505197E+006  0.2106722E+02  0.7546771E-02  0.1724902E+00
         21   -1    0    0  503  501  0.00000000000E+00  0.00000000000E+00  0.44384606246E+00  0.44384606246E+00  0.00000000000E+00 0. -1.
         21   -1    0    0  504  502 -0.00000000000E+00 -0.00000000000E+00 -0.10656933964E+04  0.10656933964E+04  0.00000000000E+00 0. -1.
         21    1    1    2  503  502  0.11360325827E+02  0.17741780848E+02 -0.40023212569E+03  0.40078620513E+03  0.00000000000E+00 0. -1.
         21    1    1    2  504  501 -0.11360325827E+02 -0.17741780848E+02 -0.66501742462E+03  0.66535103731E+03  0.00000000000E+00 0. -1.
<mgrwt>
<rscale>  2 0.21067221E+02</rscale>
<asrwt>0</asrwt>
<pdfrwt beam="1">  1       21 0.68284238E-04 0.21067221E+02</pdfrwt>
<pdfrwt beam="2">  1       21 0.16395228E+00 0.21067221E+02</pdfrwt>
<totfact> 0.43127337E+07</totfact>
</mgrwt>
</event>
<event>
 4    1  0.4505197E+006  0.2998081E+02  0.7546771E-02  0.1598301E+00
         21   -1    0    0  504  501  0.00000000000E+00  0.00000000000E+00  0.32584113793E+01  0.32584113793E+01  0.00000000000E+00 0. -1.
         21   -1    0    0  503  502 -0.00000000000E+00 -0.00000000000E+00 -0.27591254072E+03  0.27591254072E+03  0.00000000000E+00 0. -1.
         21    1    1    2  503  501  0.32563971141E+01 -0.29803433031E+02 -0.13430952461E+03  0.13761503241E+03  0.00000000000E+00 0. -1.
         21    1    1    2  504  502 -0.32563971141E+01  0.29803433031E+02 -0.13834460472E+03  0.14155591969E+03  0.00000000000E+00 0. -1.
<mgrwt>
<rscale>  2 0.29980806E+02</rscale>
<asrwt>0</asrwt>
<pdfrwt beam="1">  1       21 0.50129406E-03 0.29980806E+02</pdfrwt>
<pdfrwt beam="2">  1       21 0.42448083E-01 0.29980806E+02</pdfrwt>
<totfact> 0.46499081E+07</totfact>
</mgrwt>
</event>
<event>
 4    1  0.4505197E+006  0.2514407E+02  0.7546771E-02  0.1658941E+00
         21   -1    0    0  504  501  0.00000000000E+00  0.00000000000E+00  0.80833447045E+02  0.80833447045E+02  0.00000000000E+00 0.  1.
         21   -1    0    0  503  502 -0.00000000000E+00 -0.00000000000E+00 -0.10900146316E+02  0.10900146316E+02  0.00000000000E+00 0.  1.
         21    1    1    2  503  501 -0.24911933901E+02 -0.34088183749E+01  0.10589965984E+02  0.27283179304E+02  0.00000000000E+00 0.  1.
         21    1    1    2  504  502  0.24911933901E+02  0.34088183749E+01  0.59343334745E+02  0.64450414057E+02  0.00000000000E+00 0.  1.
<mgrwt>
<rscale>  2 0.25144075E+02</rscale>
<asrwt>0</asrwt>
<pdfrwt beam="1">  1       21 0.12435915E-01 0.25144075E+02</pdfrwt>
<pdfrwt beam="2">  1       21 0.16769456E-02 0.25144075E+02</pdfrwt>
<totfact> 0.64965365E+07</totfact>
</mgrwt>
</event>
<event>
 4    1  0.4505197E+006  0.2095136E+02  0.7546771E-02  0.1727045E+00
         21   -1    0    0  504  501  0.00000000000E+00  0.00000000000E+00  0.62640730909E+03  0.62640730909E+03  0.00000000000E+00 0. -1.
         21   -1    0    0  503  502 -0.00000000000E+00 -0.00000000000E+00 -0.70318819928E+00  0.70318819928E+00  0.00000000000E+00 0. -1.
         21    1    1    2  503  501 -0.19858851530E+02  0.66772272077E+01  0.33128874313E+03  0.33195058468E+03  0.00000000000E+00 0. -1.
         21    1    1    2  504  502  0.19858851530E+02 -0.66772272077E+01  0.29441537776E+03  0.29515991261E+03  0.00000000000E+00 0. -1.
<mgrwt>
<rscale>  2 0.20951357E+02</rscale>
<asrwt>0</asrwt>
<pdfrwt beam="1">  1       21 0.96369909E-01 0.20951357E+02</pdfrwt>
<pdfrwt beam="2">  1       21 0.10818330E-03 0.20951357E+02</pdfrwt>
<totfact> 0.75323380E+07</totfact>
</mgrwt>
</event>
<event>
 4    1  0.4505197E+006  0.2329283E+02  0.7546771E-02  0.1686807E+00
         21   -1    0    0  504  501  0.00000000000E+00  0.00000000000E+00  0.93402175108E+02  0.93402175108E+02  0.00000000000E+00 0.  1.
         21   -1    0    0  501  502 -0.00000000000E+00 -0.00000000000E+00 -0.37049630738E+02  0.37049630738E+02  0.00000000000E+00 0.  1.
         21    1    1    2  503  502  0.21624770202E+02 -0.86559346721E+01 -0.31718559016E+02  0.39352546009E+02  0.00000000000E+00 0.  1.
         21    1    1    2  504  503 -0.21624770202E+02  0.86559346721E+01  0.88071103386E+02  0.91099259838E+02  0.00000000000E+00 0.  1.
<mgrwt>
<rscale>  2 0.23292829E+02</rscale>
<asrwt>0</asrwt>
<pdfrwt beam="1">  1       21 0.14369565E-01 0.23292829E+02</pdfrwt>
<pdfrwt beam="2">  1       21 0.56999432E-02 0.23292829E+02</pdfrwt>
<totfact> 0.73872205E+06</totfact>
</mgrwt>
</event>
<event>
 4    1  0.4505197E+006  0.2028241E+02  0.7546771E-02  0.1739770E+00
         21   -1    0    0  503  501  0.00000000000E+00  0.00000000000E+00  0.77957901534E+01  0.77957901534E+01  0.00000000000E+00 0.  1.
         21   -1    0    0  504  502 -0.00000000000E+00 -0.00000000000E+00 -0.53405338081E+02  0.53405338081E+02  0.00000000000E+00 0.  1.
         21    1    1    2  503  502 -0.20228458430E+02  0.14783497403E+01 -0.26145040718E+02  0.33089865557E+02  0.00000000000E+00 0.  1.
         21    1    1    2  504  501  0.20228458430E+02 -0.14783497403E+01 -0.19464507210E+02  0.28111262678E+02  0.00000000000E+00 0.  1.
<mgrwt>
<rscale>  2 0.20282407E+02</rscale>
<asrwt>0</asrwt>
<pdfrwt beam="1">  1       21 0.11993523E-02 0.20282407E+02</pdfrwt>
<pdfrwt beam="2">  1       21 0.82162060E-02 0.20282407E+02</pdfrwt>
<totfact> 0.20150185E+08</totfact>
</mgrwt>
</event>
<event>
 4    1  0.4505197E+006  0.2124983E+02  0.7546771E-02  0.1721558E+00
         21   -1    0    0  502  501  0.00000000000E+00  0.00000000000E+00  0.10051554077E+03  0.10051554077E+03  0.00000000000E+00 0.  1.
         21   -1    0    0  504  502 -0.00000000000E+00 -0.00000000000E+00 -0.13408719493E+04  0.13408719493E+04  0.00000000000E+00 0. -1.
         21    1    1    2  503  501  0.55717057604E+00  0.21242528157E+02  0.99307238655E+02  0.10155532035E+03  0.00000000000E+00 0.  1.
         21    1    1    2  504  503 -0.55717057604E+00 -0.21242528157E+02 -0.13396636472E+04  0.13398321697E+04  0.00000000000E+00 0. -1.
<mgrwt>
<rscale>  2 0.21249834E+02</rscale>
<asrwt>0</asrwt>
<pdfrwt beam="1">  1       21 0.15463931E-01 0.21249834E+02</pdfrwt>
<pdfrwt beam="2">  1       21 0.20628797E+00 0.21249834E+02</pdfrwt>
<totfact> 0.65758475E+03</totfact>
</mgrwt>
</event>
<event>
 4    1  0.4505197E+006  0.3421221E+02  0.7546771E-02  0.1555710E+00
         21   -1    0    0  503  501  0.00000000000E+00  0.00000000000E+00  0.49856728040E+01  0.49856728040E+01  0.00000000000E+00 0.  1.
         21   -1    0    0  504  502 -0.00000000000E+00 -0.00000000000E+00 -0.24950162671E+03  0.24950162671E+03  0.00000000000E+00 0.  1.
         21    1    1    2  503  502 -0.33875963288E+02  0.47848311149E+01 -0.91336728301E+02  0.97533960414E+02  0.00000000000E+00 0.  1.
         21    1    1    2  504  501  0.33875963288E+02 -0.47848311149E+01 -0.15317922561E+03  0.15695333910E+03  0.00000000000E+00 0.  1.
<mgrwt>
<rscale>  2 0.34212213E+02</rscale>
<asrwt>0</asrwt>
<pdfrwt beam="1">  1       21 0.76702643E-03 0.34212213E+02</pdfrwt>
<pdfrwt beam="2">  1       21 0.38384873E-01 0.34212213E+02</pdfrwt>
<totfact> 0.30546558E+07</totfact>
</mgrwt>
</event>
<event>
 4    1  0.4505197E+006  0.3282090E+02  0.7546771E-02  0.1568849E+00
         21   -1    0    0  503  501  0.00000000000E+00  0.00000000000E+00  0.27894353022E+02  0.27894353022E+02  0.00000000000E+00 0.  1.
         21   -1    0    0  501  502 -0.00000000000E+00 -0.00000000000E+00 -0.89332355571E+02  0.89332355571E+02  0.00000000000E+00 0.  1.
         21    1    1    2  503  504  0.21392280523E+02  0.24891402457E+02  0.13444100033E+02  0.35467667078E+02  0.00000000000E+00 0.  1.
         21    1    1    2  504  502 -0.21392280523E+02 -0.24891402457E+02 -0.74882102582E+02  0.81759041514E+02  0.00000000000E+00 0.  1.
<mgrwt>
<rscale>  2 0.32820902E+02</rscale>
<asrwt>0</asrwt>
<pdfrwt beam="1">  1       21 0.42914390E-02 0.32820902E+02</pdfrwt>
<pdfrwt beam="2">  1       21 0.13743439E-01 0.32820902E+02</pdfrwt>
<totfact> 0.13316733E+07</totfact>
</mgrwt>
</event>
<event>
 4    1  0.4505197E+006  0.2521740E+02  0.7546771E-02  0.1657899E+00
         21   -1    0    0  503  501  0.00000000000E+00  0.00000000000E+00  0.47888872269E+02  0.47888872269E+02  0.00000000000E+00 0. -1.
         21   -1    0    0  501  502 -0.00000000000E+00 -0.00000000000E+00 -0.29825660526E+02  0.29825660526E+02  0.00000000000E+00 0.  1.
         21    1    1    2  503  504  0.22688304077E+02  0.11007190165E+02  0.37973843330E+02  0.45584319173E+02  0.00000000000E+00 0. -1.
         21    1    1    2  504  502 -0.22688304077E+02 -0.11007190165E+02 -0.19910631587E+02  0.32130213622E+02  0.00000000000E+00 0.  1.
<mgrwt>
<rscale>  2 0.25217402E+02</rscale>
<asrwt>0</asrwt>
<pdfrwt beam="1">  1       21 0.73675188E-02 0.25217402E+02</pdfrwt>
<pdfrwt beam="2">  1       21 0.45885632E-02 0.25217402E+02</pdfrwt>
<totfact> 0.32217285E+07</totfact>
</mgrwt>
</event>
<event>
 4    1  0.4505197E+006  0.2757523E+02  0.7546771E-02  0.1626549E+00
         21   -1    0    0  503  501  0.00000000000E+00  0.00000000000E+00  0.70969193998E+03  0.70969193998E+03  0.00000000000E+00 0.  1.
         21   -1    0    0  501  502 -0.00000000000E+00 -0.00000000000E+00 -0.66176488297E+01  0.66176488297E+01  0.00000000000E+00 0.  1.
         21    1    1    2  503  504  0.18121015977E+02  0.20785137417E+02  0.67941869142E+03  0.67997805215E+03  0.00000000000E+00 0.  1.
         21    1    1    2  504  502 -0.18121015977E+02 -0.20785137417E+02  0.23655599736E+02  0.36331536664E+02  0.00000000000E+00 0.  1.
<mgrwt>
<rscale>  2 0.27575227E+02</rscale>
<asrwt>0</asrwt>
<pdfrwt beam="1">  1       21 0.10918332E+00 0.27575227E+02</pdfrwt>
<pdfrwt beam="2">  1       21 0.10181004E-02 0.27575227E+02</pdfrwt>
<totfact> 0.22502937E+06</totfact>
</mgrwt>
</event>
<event>
 4    1  0.4505197E+006  0.2237783E+02  0.7546771E-02  0.1701798E+00
         21   -1    0    0  502  501  0.00000000000E+00  0.00000000000E+00  0.80720016760E+01  0.80720016760E+01  0.00000000000E+00 0. -1.
         21   -1    0    0  504  502 -0.00000000000E+00 -0.00000000000E+00 -0.71358924275E+02  0.71358924275E+02  0.00000000000E+00 0. -1.
         21    1    1    2  503  501  0.10590899925E+02 -0.19712938308E+02 -0.17289367765E+02  0.28278778893E+02  0.00000000000E+00 0. -1.
         21    1    1    2  504  503 -0.10590899925E+02  0.19712938308E+02 -0.45997554834E+02  0.51152147058E+02  0.00000000000E+00 0. -1.
<mgrwt>
<rscale>  2 0.22377826E+02</rscale>
<asrwt>0</asrwt>
<pdfrwt beam="1">  1       21 0.12418464E-02 0.22377826E+02</pdfrwt>
<pdfrwt beam="2">  1       21 0.10978296E-01 0.22377826E+02</pdfrwt>
<totfact> 0.12238608E+08</totfact>
</mgrwt>
</event>
<event>
 4    1  0.4505197E+006  0.3947387E+02  0.7546771E-02  0.1512119E+00
         21   -1    0    0  503  501  0.00000000000E+00  0.00000000000E+00  0.11293120568E+04  0.11293120568E+04  0.00000000000E+00 0.  1.
         21   -1    0    0  504  502 -0.00000000000E+00 -0.00000000000E+00 -0.18567643466E+01  0.18567643466E+01  0.00000000000E+00 0.  1.
         21    1    1    2  503  502 -0.38325521849E+02 -0.94520440741E+01  0.85039439361E+03  0.85131005600E+03  0.00000000000E+00 0.  1.
         21    1    1    2  504  501  0.38325521849E+02  0.94520440741E+01  0.27706089889E+03  0.27985876519E+03  0.00000000000E+00 0.  1.
<mgrwt>
<rscale>  2 0.39473874E+02</rscale>
<asrwt>0</asrwt>
<pdfrwt beam="1">  1       21 0.17373977E+00 0.39473874E+02</pdfrwt>
<pdfrwt beam="2">  1       21 0.28565696E-03 0.39473874E+02</pdfrwt>
<totfact> 0.51260669E+06</totfact>
</mgrwt>
</event>
<event>
 4    1  0.4505197E+006  0.3339136E+02  0.7546771E-02  0.1563368E+00
         21   -1    0    0  503  501  0.00000000000E+00  0.00000000000E+00  0.88637272983E+03  0.88637272983E+03  0.00000000000E+00 0. -1.
         21   -1    0    0  504  502 -0.00000000000E+00 -0.00000000000E+00 -0.12642696461E+01  0.12642696461E+01  0.00000000000E+00 0. -1.
         21    1    1    2  503  502 -0.32388823847E+02 -0.81207866522E+01  0.41109326076E+03  0.41244715071E+03  0.00000000000E+00 0. -1.
         21    1    1    2  504  501  0.32388823847E+02  0.81207866522E+01  0.47401519942E+03  0.47518984877E+03  0.00000000000E+00 0. -1.
<mgrwt>
<rscale>  2 0.33391362E+02</rscale>
<asrwt>0</asrwt>
<pdfrwt beam="1">  1       21 0.13636454E+00 0.33391362E+02</pdfrwt>
<pdfrwt beam="2">  1       21 0.19450373E-03 0.33391362E+02</pdfrwt>
<totfact> 0.16084949E+07</totfact>
</mgrwt>
</event>
<event>
 4    1  0.4505197E+006  0.4921645E+02  0.7546771E-02  0.1449614E+00
         21   -1    0    0  504  501  0.00000000000E+00  0.00000000000E+00  0.22966763300E+03  0.22966763300E+03  0.00000000000E+00 0.  1.
         21   -1    0    0  501  502 -0.00000000000E+00 -0.00000000000E+00 -0.25551185678E+02  0.25551185678E+02  0.00000000000E+00 0.  1.
         21    1    1    2  503  502 -0.47426623059E+02 -0.13151979951E+02  0.42700705911E+01  0.49401342636E+02  0.00000000000E+00 0.  1.
         21    1    1    2  504  503  0.47426623059E+02  0.13151979951E+02  0.19984637673E+03  0.20581747604E+03  0.00000000000E+00 0.  1.
<mgrwt>
<rscale>  2 0.49216452E+02</rscale>
<asrwt>0</asrwt>
<pdfrwt beam="1">  1       21 0.35333481E-01 0.49216452E+02</pdfrwt>
<pdfrwt beam="2">  1       21 0.39309518E-02 0.49216452E+02</pdfrwt>
<totfact> 0.29300540E+06</totfact>
</mgrwt>
</event>
<event>
 4    1  0.4505197E+006  0.9602465E+02  0.7546771E-02  0.1288885E+00
         21   -1    0    0  504  501  0.00000000000E+00  0.00000000000E+00  0.21453551753E+03  0.21453551753E+03  0.00000000000E+00 0.  1.
         21   -1    0    0  503  502 -0.00000000000E+00 -0.00000000000E+00 -0.44563572481E+02  0.44563572481E+02  0.00000000000E+00 0.  1.
         21    1    1    2  503  501 -0.93729332554E+02 -0.20869742378E+02  0.60564798570E+02  0.11352897760E+03  0.00000000000E+00 0.  1.
         21    1    1    2  504  502  0.93729332554E+02  0.20869742378E+02  0.10940714647E+03  0.14557011241E+03  0.00000000000E+00 0.  1.
<mgrwt>
<rscale>  2 0.96024653E+02</rscale>
<asrwt>0</asrwt>
<pdfrwt beam="1">  1       21 0.33005464E-01 0.96024653E+02</pdfrwt>
<pdfrwt beam="2">  1       21 0.68559343E-02 0.96024653E+02</pdfrwt>
<totfact> 0.13749475E+06</totfact>
</mgrwt>
</event>
<event>
 4    1  0.4505197E+006  0.2168247E+02  0.7546771E-02  0.1713802E+00
         21   -1    0    0  503  501  0.00000000000E+00  0.00000000000E+00  0.79223065180E+01  0.79223065180E+01  0.00000000000E+00 0.  1.
         21   -1    0    0  504  502 -0.00000000000E+00 -0.00000000000E+00 -0.62522266275E+02  0.62522266275E+02  0.00000000000E+00 0. -1.
         21    1    1    2  503  502 -0.21680541852E+02 -0.28889012090E+00 -0.35243241004E+02  0.41378924454E+02  0.00000000000E+00 0. -1.
         21    1    1    2  504  501  0.21680541852E+02  0.28889012090E+00 -0.19356718753E+02  0.29065648339E+02  0.00000000000E+00 0.  1.
<mgrwt>
<rscale>  2 0.21682466E+02</rscale>
<asrwt>0</asrwt>
<pdfrwt beam="1">  1       21 0.12188164E-02 0.21682466E+02</pdfrwt>
<pdfrwt beam="2">  1       21 0.96188102E-02 0.21682466E+02</pdfrwt>
<totfact> 0.15519033E+08</totfact>
</mgrwt>
</event>
<event>
 4    1  0.4505197E+006  0.2697114E+02  0.7546771E-02  0.1634204E+00
         21   -1    0    0  503  501  0.00000000000E+00  0.00000000000E+00  0.21447302688E+02  0.21447302688E+02  0.00000000000E+00 0.  1.
         21   -1    0    0  501  502 -0.00000000000E+00 -0.00000000000E+00 -0.23016270515E+03  0.23016270515E+03  0.00000000000E+00 0. -1.
         21    1    1    2  503  504  0.16021781762E+02 -0.21696659508E+02  0.11808497583E+02  0.29442879272E+02  0.00000000000E+00 0.  1.
         21    1    1    2  504  502 -0.16021781762E+02  0.21696659508E+02 -0.22052390004E+03  0.22216712857E+03  0.00000000000E+00 0. -1.
<mgrwt>
<rscale>  2 0.26971142E+02</rscale>
<asrwt>0</asrwt>
<pdfrwt beam="1">  1       21 0.32995849E-02 0.26971142E+02</pdfrwt>
<pdfrwt beam="2">  1       21 0.35409649E-01 0.26971142E+02</pdfrwt>
<totfact> 0.36292577E+06</totfact>
</mgrwt>
</event>
<event>
 4    1  0.4505197E+006  0.2222735E+02  0.7546771E-02  0.1704350E+00
         21   -1    0    0  503  501  0.00000000000E+00  0.00000000000E+00  0.83274707094E+03  0.83274707094E+03  0.00000000000E+00 0. -1.
         21   -1    0    0  504  502 -0.00000000000E+00 -0.00000000000E+00 -0.60981735607E+00  0.60981735607E+00  0.00000000000E+00 0. -1.
         21    1    1    2  503  502 -0.11544538922E+02 -0.18994172518E+02  0.48467907292E+03  0.48518847750E+03  0.00000000000E+00 0. -1.
         21    1    1    2  504  501  0.11544538922E+02  0.18994172518E+02  0.34745818067E+03  0.34816841080E+03  0.00000000000E+00 0. -1.
<mgrwt>
<rscale>  2 0.22227347E+02</rscale>
<asrwt>0</asrwt>
<pdfrwt beam="1">  1       21 0.12811402E+00 0.22227347E+02</pdfrwt>
<pdfrwt beam="2">  1       21 0.93818721E-04 0.22227347E+02</pdfrwt>
<totfact> 0.49607291E+07</totfact>
</mgrwt>
</event>
<event>
 4    1  0.4505197E+006  0.2341598E+02  0.7546771E-02  0.1684855E+00
         21   -1    0    0  503  501  0.00000000000E+00  0.00000000000E+00  0.14516698415E+04  0.14516698415E+04  0.00000000000E+00 0. -1.
         21   -1    0    0  501  502 -0.00000000000E+00 -0.00000000000E+00 -0.13059575653E+01  0.13059575653E+01  0.00000000000E+00 0. -1.
         21    1    1    2  503  504 -0.22427995675E+02  0.67300269650E+01  0.13376678175E+04  0.13378727512E+04  0.00000000000E+00 0. -1.
         21    1    1    2  504  502  0.22427995675E+02 -0.67300269650E+01  0.11269606640E+03  0.11510304790E+03  0.00000000000E+00 0. -1.
<mgrwt>
<rscale>  2 0.23415983E+02</rscale>
<asrwt>0</asrwt>
<pdfrwt beam="1">  1       21 0.22333253E+00 0.23415983E+02</pdfrwt>
<pdfrwt beam="2">  1       21 0.20091771E-03 0.23415983E+02</pdfrwt>
<totfact> 0.42830964E+06</totfact>
</mgrwt>
</event>
<event>
 4    1  0.4505197E+006  0.2060279E+02  0.7546771E-02  0.1733600E+00
         21   -1    0    0  503  501  0.00000000000E+00  0.00000000000E+00  0.71423651376E+01  0.71423651376E+01  0.00000000000E+00 0. -1.
         21   -1    0    0  504  502 -0.00000000000E+00 -0.00000000000E+00 -0.11542162254E+03  0.11542162254E+03  0.00000000000E+00 0.  1.
         21    1    1    2  503  502 -0.15926241446E+02 -0.13070187394E+02 -0.96822000287E+02  0.98989770708E+02  0.00000000000E+00 0.  1.
         21    1    1    2  504  501  0.15926241446E+02  0.13070187394E+02 -0.11457257114E+02  0.23574216969E+02  0.00000000000E+00 0. -1.
<mgrwt>
<rscale>  2 0.20602790E+02</rscale>
<asrwt>0</asrwt>
<pdfrwt beam="1">  1       21 0.10988255E-02 0.20602790E+02</pdfrwt>
<pdfrwt beam="2">  1       21 0.17757171E-01 0.20602790E+02</pdfrwt>
<totfact> 0.63813674E+07</totfact>
</mgrwt>
</event>
<event>
 4    1  0.4505197E+006  0.2425389E+02  0.7546771E-02  0.1671956E+00
         21   -1    0    0  502  501  0.00000000000E+00  0.00000000000E+00  0.14154983935E+03  0.14154983935E+03  0.00000000000E+00 0. -1.
         21   -1    0    0  504  502 -0.00000000000E+00 -0.00000000000E+00 -0.67738955050E+01  0.67738955050E+01  0.00000000000E+00 0. -1.
         21    1    1    2  503  501  0.45796862695E+01 -0.23817592134E+02  0.11349372193E+03  0.11605634898E+03  0.00000000000E+00 0. -1.
         21    1    1    2  504  503 -0.45796862695E+01  0.23817592134E+02  0.21282221912E+02  0.32267385870E+02  0.00000000000E+00 0. -1.
<mgrwt>
<rscale>  2 0.24253891E+02</rscale>
<asrwt>0</asrwt>
<pdfrwt beam="1">  1       21 0.21776896E-01 0.24253891E+02</pdfrwt>
<pdfrwt beam="2">  1       21 0.10421379E-02 0.24253891E+02</pdfrwt>
<totfact> 0.50536435E+07</totfact>
</mgrwt>
</event>
<event>
 4    1  0.4505197E+006  0.2034962E+02  0.7546771E-02  0.1738464E+00
         21   -1    0    0  503  501  0.00000000000E+00  0.00000000000E+00  0.23411342405E+02  0.23411342405E+02  0.00000000000E+00 0.  1.
         21   -1    0    0  501  502 -0.00000000000E+00 -0.00000000000E+00 -0.61445546271E+02  0.61445546271E+02  0.00000000000E+00 0.  1.
         21    1    1    2  503  504  0.33523768544E+01  0.20071585401E+02  0.16787336712E+02  0.26380326855E+02  0.00000000000E+00 0.  1.
         21    1    1    2  504  502 -0.33523768544E+01 -0.20071585401E+02 -0.54821540579E+02  0.58476561822E+02  0.00000000000E+00 0.  1.
<mgrwt>
<rscale>  2 0.20349618E+02</rscale>
<asrwt>0</asrwt>
<pdfrwt beam="1">  1       21 0.36017450E-02 0.20349618E+02</pdfrwt>
<pdfrwt beam="2">  1       21 0.94531608E-02 0.20349618E+02</pdfrwt>
<totfact> 0.29822598E+07</totfact>
</mgrwt>
</event>
<event>
 4    1  0.4505197E+006  0.3932279E+02  0.7546771E-02  0.1513255E+00
         21   -1    0    0  503  501  0.00000000000E+00  0.00000000000E+00  0.34203244256E+02  0.34203244256E+02  0.00000000000E+00 0. -1.
         21   -1    0    0  504  502 -0.00000000000E+00 -0.00000000000E+00 -0.16163183349E+03  0.16163183349E+03  0.00000000000E+00 0. -1.
         21    1    1    2  503  502  0.38589628095E+02  0.75579238935E+01 -0.14681731778E+03  0.15199212615E+03  0.00000000000E+00 0. -1.
         21    1    1    2  504  501 -0.38589628095E+02 -0.75579238935E+01  0.19388728549E+02  0.43842951598E+02  0.00000000000E+00 0. -1.
<mgrwt>
<rscale>  2 0.39322787E+02</rscale>
<asrwt>0</asrwt>
<pdfrwt beam="1">  1       21 0.52620376E-02 0.39322787E+02</pdfrwt>
<pdfrwt beam="2">  1       21 0.24866436E-01 0.39322787E+02</pdfrwt>
<totfact> 0.34450426E+06</totfact>
</mgrwt>
</event>
<event>
 4    1  0.4505197E+006  0.2170830E+02  0.7546771E-02  0.1713346E+00
         21   -1    0    0  502  501  0.00000000000E+00  0.00000000000E+00  0.49926307321E+02  0.49926307321E+02  0.00000000000E+00 0.  1.
         21   -1    0    0  504  502 -0.00000000000E+00 -0.00000000000E+00 -0.13696268279E+03  0.13696268279E+03  0.00000000000E+00 0.  1.
         21    1    1    2  503  501  0.21112934840E+02  0.50491677278E+01  0.46648925233E+02  0.51452622263E+02  0.00000000000E+00 0.  1.
         21    1    1    2  504  503 -0.21112934840E+02 -0.50491677278E+01 -0.13368530070E+03  0.13543636785E+03  0.00000000000E+00 0.  1.
<mgrwt>
<rscale>  2 0.21708296E+02</rscale>
<asrwt>0</asrwt>
<pdfrwt beam="1">  1       21 0.76809703E-02 0.21708296E+02</pdfrwt>
<pdfrwt beam="2">  1       21 0.21071182E-01 0.21708296E+02</pdfrwt>
<totfact> 0.23352050E+06</totfact>
</mgrwt>
</event>
<event>
 4    1  0.4505197E+006  0.2235650E+02  0.7546771E-02  0.1702158E+00
         21   -1    0    0  503  501  0.00000000000E+00  0.00000000000E+00  0.38786611701E+02  0.38786611701E+02  0.00000000000E+00 0.  1.
         21   -1    0    0  501  502 -0.00000000000E+00 -0.00000000000E+00 -0.16532881754E+02  0.16532881754E+02  0.00000000000E+00 0.  1.
         21    1    1    2  503  504 -0.94564476341E+01  0.20258056315E+02  0.24117219114E+02  0.32885460394E+02  0.00000000000E+00 0.  1.
         21    1    1    2  504  502  0.94564476341E+01 -0.20258056315E+02 -0.18634891671E+01  0.22434033061E+02  0.00000000000E+00 0.  1.
<mgrwt>
<rscale>  2 0.22356503E+02</rscale>
<asrwt>0</asrwt>
<pdfrwt beam="1">  1       21 0.59671710E-02 0.22356503E+02</pdfrwt>
<pdfrwt beam="2">  1       21 0.25435203E-02 0.22356503E+02</pdfrwt>
<totfact> 0.11069784E+08</totfact>
</mgrwt>
</event>
<event>
 4    1  0.4505197E+006  0.2216676E+02  0.7546771E-02  0.1705384E+00
         21   -1    0    0  503  501  0.00000000000E+00  0.00000000000E+00  0.69912707647E+03  0.69912707647E+03  0.00000000000E+00 0.  1.
         21   -1    0    0  504  502 -0.00000000000E+00 -0.00000000000E+00 -0.10769772833E+01  0.10769772833E+01  0.00000000000E+00 0. -1.
         21    1    1    2  503  502  0.12521306787E+01  0.22131368013E+02  0.55537980403E+03  0.55582199669E+03  0.00000000000E+00 0.  1.
         21    1    1    2  504  501 -0.12521306787E+01 -0.22131368013E+02  0.14267029516E+03  0.14438205706E+03  0.00000000000E+00 0. -1.
<mgrwt>
<rscale>  2 0.22166761E+02</rscale>
<asrwt>0</asrwt>
<pdfrwt beam="1">  1       21 0.10755765E+00 0.22166761E+02</pdfrwt>
<pdfrwt beam="2">  1       21 0.16568937E-03 0.22166761E+02</pdfrwt>
<totfact> 0.32621345E+07</totfact>
</mgrwt>
</event>
<event>
 4    1  0.4505197E+006  0.2230453E+02  0.7546771E-02  0.1703038E+00
         21   -1    0    0  502  501  0.00000000000E+00  0.00000000000E+00  0.32205526066E+02  0.32205526066E+02  0.00000000000E+00 0.  1.
         21   -1    0    0  504  502 -0.00000000000E+00 -0.00000000000E+00 -0.17983416429E+02  0.17983416429E+02  0.00000000000E+00 0. -1.
         21    1    1    2  503  501  0.56398734733E+00  0.22297397515E+02  0.16534657886E+02  0.27764850605E+02  0.00000000000E+00 0. -1.
         21    1    1    2  504  503 -0.56398734733E+00 -0.22297397515E+02 -0.23125482492E+01  0.22424091890E+02  0.00000000000E+00 0.  1.
<mgrwt>
<rscale>  2 0.22304529E+02</rscale>
<asrwt>0</asrwt>
<pdfrwt beam="1">  1       21 0.49546963E-02 0.22304529E+02</pdfrwt>
<pdfrwt beam="2">  1       21 0.27666795E-02 0.22304529E+02</pdfrwt>
<totfact> 0.13068164E+08</totfact>
</mgrwt>
</event>
<event>
 4    1  0.4505197E+006  0.2622753E+02  0.7546771E-02  0.1643972E+00
         21   -1    0    0  504  501  0.00000000000E+00  0.00000000000E+00  0.35733524087E+02  0.35733524087E+02  0.00000000000E+00 0.  1.
         21   -1    0    0  503  502 -0.00000000000E+00 -0.00000000000E+00 -0.48476756689E+02  0.48476756689E+02  0.00000000000E+00 0.  1.
         21    1    1    2  503  501  0.32418769229E+01 -0.26026396886E+02  0.26321475977E+02  0.37157814770E+02  0.00000000000E+00 0.  1.
         21    1    1    2  504  502 -0.32418769229E+01  0.26026396886E+02 -0.39064708579E+02  0.47052466006E+02  0.00000000000E+00 0.  1.
<mgrwt>
<rscale>  2 0.26227526E+02</rscale>
<asrwt>0</asrwt>
<pdfrwt beam="1">  1       21 0.54974653E-02 0.26227526E+02</pdfrwt>
<pdfrwt beam="2">  1       21 0.74579625E-02 0.26227526E+02</pdfrwt>
<totfact> 0.23855895E+07</totfact>
</mgrwt>
</event>
<event>
 4    1  0.4505197E+006  0.2019564E+02  0.7546771E-02  0.1741465E+00
         21   -1    0    0  503  501  0.00000000000E+00  0.00000000000E+00  0.28810029295E+02  0.28810029295E+02  0.00000000000E+00 0.  1.
         21   -1    0    0  504  502 -0.00000000000E+00 -0.00000000000E+00 -0.14664808081E+02  0.14664808081E+02  0.00000000000E+00 0.  1.
         21    1    1    2  503  502 -0.10732693569E+02  0.17107689193E+02  0.11117598876E+02  0.23053519157E+02  0.00000000000E+00 0.  1.
         21    1    1    2  504  501  0.10732693569E+02 -0.17107689193E+02  0.30276223384E+01  0.20421318218E+02  0.00000000000E+00 0.  1.
<mgrwt>
<rscale>  2 0.20195637E+02</rscale>
<asrwt>0</asrwt>
<pdfrwt beam="1">  1       21 0.44323122E-02 0.20195637E+02</pdfrwt>
<pdfrwt beam="2">  1       21 0.22561243E-02 0.20195637E+02</pdfrwt>
<totfact> 0.20693793E+08</totfact>
</mgrwt>
</event>
<event>
 4    1  0.4505197E+006  0.2338723E+02  0.7546771E-02  0.1685309E+00
         21   -1    0    0  504  501  0.00000000000E+00  0.00000000000E+00  0.70322504306E+02  0.70322504306E+02  0.00000000000E+00 0.  1.
         21   -1    0    0  503  502 -0.00000000000E+00 -0.00000000000E+00 -0.12607960852E+02  0.12607960852E+02  0.00000000000E+00 0.  1.
         21    1    1    2  503  501  0.20416799763E+02 -0.11406882519E+02  0.31925141826E+01  0.23604127355E+02  0.00000000000E+00 0.  1.
         21    1    1    2  504  502 -0.20416799763E+02  0.11406882519E+02  0.54522029271E+02  0.59326337804E+02  0.00000000000E+00 0.  1.
<mgrwt>
<rscale>  2 0.23387233E+02</rscale>
<asrwt>0</asrwt>
<pdfrwt beam="1">  1       21 0.10818847E-01 0.23387233E+02</pdfrwt>
<pdfrwt beam="2">  1       21 0.19396863E-02 0.23387233E+02</pdfrwt>
<totfact> 0.64418176E+07</totfact>
</mgrwt>
</event>
<event>
 4    1  0.4505197E+006  0.4763195E+02  0.7546771E-02  0.1458549E+00
         21   -1    0    0  502  501  0.00000000000E+00  0.00000000000E+00  0.80092728766E+02  0.80092728766E+02  0.00000000000E+00 0.  1.
         21   -1    0    0  504  502 -0.00000000000E+00 -0.00000000000E+00 -0.81423204168E+02  0.81423204168E+02  0.00000000000E+00 0.  1.
         21    1    1    2  503  501 -0.47536995357E+02  0.30060688179E+01  0.64548969418E+02  0.80220769320E+02  0.00000000000E+00 0.  1.
         21    1    1    2  504  503  0.47536995357E+02 -0.30060688179E+01 -0.65879444820E+02  0.81295163614E+02  0.00000000000E+00 0.  1.
<mgrwt>
<rscale>  2 0.47631947E+02</rscale>
<asrwt>0</asrwt>
<pdfrwt beam="1">  1       21 0.12321958E-01 0.47631947E+02</pdfrwt>
<pdfrwt beam="2">  1       21 0.12526647E-01 0.47631947E+02</pdfrwt>
<totfact> 0.28427030E+06</totfact>
</mgrwt>
</event>
<event>
 4    1  0.4505197E+006  0.3508251E+02  0.7546771E-02  0.1547869E+00
         21   -1    0    0  503  501  0.00000000000E+00  0.00000000000E+00  0.21547986649E+02  0.21547986649E+02  0.00000000000E+00 0. -1.
         21   -1    0    0  504  502 -0.00000000000E+00 -0.00000000000E+00 -0.70082132633E+02  0.70082132633E+02  0.00000000000E+00 0. -1.
         21    1    1    2  503  502 -0.49080870208E+01 -0.34737494022E+02 -0.45622508365E+01  0.35377916019E+02  0.00000000000E+00 0. -1.
         21    1    1    2  504  501  0.49080870208E+01  0.34737494022E+02 -0.43971895147E+02  0.56252203263E+02  0.00000000000E+00 0. -1.
<mgrwt>
<rscale>  2 0.35082514E+02</rscale>
<asrwt>0</asrwt>
<pdfrwt beam="1">  1       21 0.33150749E-02 0.35082514E+02</pdfrwt>
<pdfrwt beam="2">  1       21 0.10781866E-01 0.35082514E+02</pdfrwt>
<totfact> 0.30743332E+07</totfact>
</mgrwt>
</event>
<event>
 4    1  0.4505197E+006  0.2012517E+02  0.7546771E-02  0.1742850E+00
         21   -1    0    0  504  501  0.00000000000E+00  0.00000000000E+00  0.62498737889E+03  0.62498737889E+03  0.00000000000E+00 0.  1.
         21   -1    0    0  503  502 -0.00000000000E+00 -0.00000000000E+00 -0.65020423757E+00  0.65020423757E+00  0.00000000000E+00 0.  1.
         21    1    1    2  503  501 -0.65887419120E+01  0.19016075095E+02  0.33017741764E+03  0.33079018992E+03  0.00000000000E+00 0.  1.
         21    1    1    2  504  502  0.65887419120E+01 -0.19016075095E+02  0.29415975701E+03  0.29484739320E+03  0.00000000000E+00 0.  1.
<mgrwt>
<rscale>  2 0.20125174E+02</rscale>
<asrwt>0</asrwt>
<pdfrwt beam="1">  1       21 0.96151424E-01 0.20125174E+02</pdfrwt>
<pdfrwt beam="2">  1       21 0.10003192E-03 0.20125174E+02</pdfrwt>
<totfact> 0.83749030E+07</totfact>
</mgrwt>
</event>
<event>
 4    1  0.4505197E+006  0.2149179E+02  0.7546771E-02  0.1717192E+00
         21   -1    0    0  502  501  0.00000000000E+00  0.00000000000E+00  0.52503506238E+03  0.52503506238E+03  0.00000000000E+00 0.  1.
         21   -1    0    0  504  502 -0.00000000000E+00 -0.00000000000E+00 -0.43276282726E+01  0.43276282726E+01  0.00000000000E+00 0. -1.
         21    1    1    2  503  501  0.43319515327E+01 -0.21050684757E+02  0.49660523986E+03  0.49707007694E+03  0.00000000000E+00 0.  1.
         21    1    1    2  504  503 -0.43319515327E+01  0.21050684757E+02  0.24102194247E+02  0.32292613712E+02  0.00000000000E+00 0. -1.
<mgrwt>
<rscale>  2 0.21491792E+02</rscale>
<asrwt>0</asrwt>
<pdfrwt beam="1">  1       21 0.80774575E-01 0.21491792E+02</pdfrwt>
<pdfrwt beam="2">  1       21 0.66578938E-03 0.21491792E+02</pdfrwt>
<totfact> 0.79038078E+06</totfact>
</mgrwt>
</event>
<event>
 4    1  0.4505197E+006  0.3234210E+02  0.7546771E-02  0.1573555E+00
         21   -1    0    0  503  501  0.00000000000E+00  0.00000000000E+00  0.14249307174E+03  0.14249307174E+03  0.00000000000E+00 0.  1.
         21   -1    0    0  504  502 -0.00000000000E+00 -0.00000000000E+00 -0.23612582869E+03  0.23612582869E+03  0.00000000000E+00 0. -1.
         21    1    1    2  503  502  0.18187651238E+01  0.32290924036E+02  0.13952716821E+03  0.14322654206E+03  0.00000000000E+00 0.  1.
         21    1    1    2  504  501 -0.18187651238E+01 -0.32290924036E+02 -0.23315992516E+03  0.23539235838E+03  0.00000000000E+00 0. -1.
<mgrwt>
<rscale>  2 0.32342104E+02</rscale>
<asrwt>0</asrwt>
<pdfrwt beam="1">  1       21 0.21922011E-01 0.32342104E+02</pdfrwt>
<pdfrwt beam="2">  1       21 0.36327051E-01 0.32342104E+02</pdfrwt>
<totfact> 0.15038637E+05</totfact>
</mgrwt>
</event>
<event>
 4    1  0.4505197E+006  0.3922294E+02  0.7546771E-02  0.1514009E+00
         21   -1    0    0  503  501  0.00000000000E+00  0.00000000000E+00  0.12287324584E+03  0.12287324584E+03  0.00000000000E+00 0. -1.
         21   -1    0    0  501  502 -0.00000000000E+00 -0.00000000000E+00 -0.43029900298E+02  0.43029900298E+02  0.00000000000E+00 0.  1.
         21    1    1    2  503  504  0.31529933230E+02 -0.23330288601E+02  0.10977000269E+03  0.11656711606E+03  0.00000000000E+00 0. -1.
         21    1    1    2  504  502 -0.31529933230E+02  0.23330288601E+02 -0.29926657150E+02  0.49336030078E+02  0.00000000000E+00 0.  1.
<mgrwt>
<rscale>  2 0.39222940E+02</rscale>
<asrwt>0</asrwt>
<pdfrwt beam="1">  1       21 0.18903576E-01 0.39222940E+02</pdfrwt>
<pdfrwt beam="2">  1       21 0.66199847E-02 0.39222940E+02</pdfrwt>
<totfact> 0.38700272E+06</totfact>
</mgrwt>
</event>
<event>
 4    1  0.4505197E+006  0.3115439E+02  0.7546771E-02  0.1585668E+00
         21   -1    0    0  503  501  0.00000000000E+00  0.00000000000E+00  0.51017928540E+02  0.51017928540E+02  0.00000000000E+00 0.  1.
         21   -1    0    0  504  502 -0.00000000000E+00 -0.00000000000E+00 -0.22657950161E+02  0.22657950161E+02  0.00000000000E+00 0.  1.
         21    1    1    2  503  502  0.20257891342E+02 -0.23668839331E+02 -0.57157723845E+00  0.31159634424E+02  0.00000000000E+00 0.  1.
         21    1    1    2  504  501 -0.20257891342E+02  0.23668839331E+02  0.28931555617E+02  0.42516244276E+02  0.00000000000E+00 0.  1.
<mgrwt>
<rscale>  2 0.31154392E+02</rscale>
<asrwt>0</asrwt>
<pdfrwt beam="1">  1       21 0.78489120E-02 0.31154392E+02</pdfrwt>
<pdfrwt beam="2">  1       21 0.34858385E-02 0.31154392E+02</pdfrwt>
<totfact> 0.47081145E+07</totfact>
</mgrwt>
</event>
<event>
 4    1  0.4505197E+006  0.2269037E+02  0.7546771E-02  0.1696579E+00
         21   -1    0    0  504  501  0.00000000000E+00  0.00000000000E+00  0.70404544787E+01  0.70404544787E+01  0.00000000000E+00 0. -1.
         21   -1    0    0  501  502 -0.00000000000E+00 -0.00000000000E+00 -0.79271747577E+02  0.79271747577E+02  0.00000000000E+00 0. -1.
         21    1    1    2  503  502  0.13907925185E+02 -0.17928264640E+02 -0.48130160021E+02  0.53210575636E+02  0.00000000000E+00 0. -1.
         21    1    1    2  504  503 -0.13907925185E+02  0.17928264640E+02 -0.24101133078E+02  0.33101626419E+02  0.00000000000E+00 0. -1.
<mgrwt>
<rscale>  2 0.22690374E+02</rscale>
<asrwt>0</asrwt>
<pdfrwt beam="1">  1       21 0.10831469E-02 0.22690374E+02</pdfrwt>
<pdfrwt beam="2">  1       21 0.12195653E-01 0.22690374E+02</pdfrwt>
<totfact> 0.12670155E+08</totfact>
</mgrwt>
</event>
<event>
 4    1  0.4505197E+006  0.2972589E+02  0.7546771E-02  0.1601138E+00
         21   -1    0    0  504  501  0.00000000000E+00  0.00000000000E+00  0.10451972874E+03  0.10451972874E+03  0.00000000000E+00 0. -1.
         21   -1    0    0  501  502 -0.00000000000E+00 -0.00000000000E+00 -0.19867066020E+03  0.19867066020E+03  0.00000000000E+00 0.  1.
         21    1    1    2  503  502 -0.29547592695E+02  0.32508877281E+01 -0.19541012509E+03  0.19765815311E+03  0.00000000000E+00 0.  1.
         21    1    1    2  504  503  0.29547592695E+02 -0.32508877281E+01  0.10125919362E+03  0.10553223583E+03  0.00000000000E+00 0. -1.
<mgrwt>
<rscale>  2 0.29725889E+02</rscale>
<asrwt>0</asrwt>
<pdfrwt beam="1">  1       21 0.16079959E-01 0.29725889E+02</pdfrwt>
<pdfrwt beam="2">  1       21 0.30564716E-01 0.29725889E+02</pdfrwt>
<totfact> 0.35727404E+05</totfact>
</mgrwt>
</event>
<event>
 4    1  0.4505197E+006  0.2025025E+02  0.7546771E-02  0.1740397E+00
         21   -1    0    0  503  501  0.00000000000E+00  0.00000000000E+00  0.77458793547E+01  0.77458793547E+01  0.00000000000E+00 0.  1.
         21   -1    0    0  504  502 -0.00000000000E+00 -0.00000000000E+00 -0.53456150197E+02  0.53456150197E+02  0.00000000000E+00 0.  1.
         21    1    1    2  503  502  0.20129046008E+02 -0.22123116176E+01 -0.25859834157E+02  0.32845149391E+02  0.00000000000E+00 0.  1.
         21    1    1    2  504  501 -0.20129046008E+02  0.22123116176E+01 -0.19850436685E+02  0.28356880161E+02  0.00000000000E+00 0.  1.
<mgrwt>
<rscale>  2 0.20250255E+02</rscale>
<asrwt>0</asrwt>
<pdfrwt beam="1">  1       21 0.11916737E-02 0.20250255E+02</pdfrwt>
<pdfrwt beam="2">  1       21 0.82240232E-02 0.20250255E+02</pdfrwt>
<totfact> 0.20303831E+08</totfact>
</mgrwt>
</event>
<event>
 4    1  0.4505197E+006  0.3495470E+02  0.7546771E-02  0.1549003E+00
         21   -1    0    0  504  501  0.00000000000E+00  0.00000000000E+00  0.13866088155E+02  0.13866088155E+02  0.00000000000E+00 0.  1.
         21   -1    0    0  503  502 -0.00000000000E+00 -0.00000000000E+00 -0.88872745559E+02  0.88872745559E+02  0.00000000000E+00 0.  1.
         21    1    1    2  503  501 -0.12556661432E+02 -0.32621482628E+02 -0.42242010987E+02  0.54828992033E+02  0.00000000000E+00 0.  1.
         21    1    1    2  504  502  0.12556661432E+02  0.32621482628E+02 -0.32764646416E+02  0.47909841681E+02  0.00000000000E+00 0.  1.
<mgrwt>
<rscale>  2 0.34954697E+02</rscale>
<asrwt>0</asrwt>
<pdfrwt beam="1">  1       21 0.21332443E-02 0.34954697E+02</pdfrwt>
<pdfrwt beam="2">  1       21 0.13672730E-01 0.34954697E+02</pdfrwt>
<totfact> 0.41013966E+07</totfact>
</mgrwt>
</event>
<event>
 4    1  0.4505197E+006  0.2278324E+02  0.7546771E-02  0.1695048E+00
         21   -1    0    0  504  501  0.00000000000E+00  0.00000000000E+00  0.12185109809E+01  0.12185109809E+01  0.00000000000E+00 0.  1.
         21   -1    0    0  503  502 -0.00000000000E+00 -0.00000000000E+00 -0.57036532278E+03  0.57036532278E+03  0.00000000000E+00 0. -1.
         21    1    1    2  503  501  0.20861427463E+02 -0.91584234612E+01 -0.14078729837E+03  0.14261886011E+03  0.00000000000E+00 0.  1.
         21    1    1    2  504  502 -0.20861427463E+02  0.91584234612E+01 -0.42835951343E+03  0.42896497366E+03  0.00000000000E+00 0. -1.
<mgrwt>
<rscale>  2 0.22783237E+02</rscale>
<asrwt>0</asrwt>
<pdfrwt beam="1">  1       21 0.18746261E-03 0.22783237E+02</pdfrwt>
<pdfrwt beam="2">  1       21 0.87748802E-01 0.22783237E+02</pdfrwt>
<totfact> 0.42753304E+07</totfact>
</mgrwt>
</event>
<event>
 4    1  0.4505197E+006  0.2471634E+02  0.7546771E-02  0.1665110E+00
         21   -1    0    0  504  501  0.00000000000E+00  0.00000000000E+00  0.95892842731E+01  0.95892842731E+01  0.00000000000E+00 0.  1.
         21   -1    0    0  503  502 -0.00000000000E+00 -0.00000000000E+00 -0.19846535901E+03  0.19846535901E+03  0.00000000000E+00 0.  1.
         21    1    1    2  503  501 -0.21292351915E+02  0.12551226729E+02 -0.18015841815E+03  0.18184596001E+03  0.00000000000E+00 0.  1.
         21    1    1    2  504  502  0.21292351915E+02 -0.12551226729E+02 -0.87176565885E+01  0.26208683272E+02  0.00000000000E+00 0.  1.
<mgrwt>
<rscale>  2 0.24716342E+02</rscale>
<asrwt>0</asrwt>
<pdfrwt beam="1">  1       21 0.14752746E-02 0.24716342E+02</pdfrwt>
<pdfrwt beam="2">  1       21 0.30533130E-01 0.24716342E+02</pdfrwt>
<totfact> 0.16344972E+07</totfact>
</mgrwt>
</event>
<event>
 4    1  0.4505197E+006  0.2812652E+02  0.7546771E-02  0.1619771E+00
         21   -1    0    0  503  501  0.00000000000E+00  0.00000000000E+00  0.18188207862E+03  0.18188207862E+03  0.00000000000E+00 0. -1.
         21   -1    0    0  504  502 -0.00000000000E+00 -0.00000000000E+00 -0.64428800907E+01  0.64428800907E+01  0.00000000000E+00 0. -1.
         21    1    1    2  503  502 -0.14861569834E+02  0.23879588839E+02  0.34046200186E+02  0.44161575698E+02  0.00000000000E+00 0. -1.
         21    1    1    2  504  501  0.14861569834E+02 -0.23879588839E+02  0.14139299834E+03  0.14416338301E+03  0.00000000000E+00 0. -1.
<mgrwt>
<rscale>  2 0.28126518E+02</rscale>
<asrwt>0</asrwt>
<pdfrwt beam="1">  1       21 0.27981854E-01 0.28126518E+02</pdfrwt>
<pdfrwt beam="2">  1       21 0.99121246E-03 0.28126518E+02</pdfrwt>
<totfact> 0.35960206E+07</totfact>
</mgrwt>
</event>
<event>
 4    1  0.4505197E+006  0.2746295E+02  0.7546771E-02  0.1627954E+00
         21   -1    0    0  502  501  0.00000000000E+00  0.00000000000E+00  0.20111862584E+01  0.20111862584E+01  0.00000000000E+00 0.  1.
         21   -1    0    0  503  502 -0.00000000000E+00 -0.00000000000E+00 -0.46694452874E+03  0.46694452874E+03  0.00000000000E+00 0.  1.
         21    1    1    2  503  504  0.24142300991E+02  0.13090562724E+02 -0.33650903182E+03  0.33762781584E+03  0.00000000000E+00 0.  1.
         21    1    1    2  504  501 -0.24142300991E+02 -0.13090562724E+02 -0.12842431066E+03  0.13132789916E+03  0.00000000000E+00 0.  1.
<mgrwt>
<rscale>  2 0.27462948E+02</rscale>
<asrwt>0</asrwt>
<pdfrwt beam="1">  1       21 0.30941341E-03 0.27462948E+02</pdfrwt>
<pdfrwt beam="2">  1       21 0.71837588E-01 0.27462948E+02</pdfrwt>
<totfact> 0.32647348E+07</totfact>
</mgrwt>
</event>
<event>
 4    1  0.4505197E+006  0.2144011E+02  0.7546771E-02  0.1718119E+00
         21   -1    0    0  504  501  0.00000000000E+00  0.00000000000E+00  0.18793826760E+02  0.18793826760E+02  0.00000000000E+00 0. -1.
         21   -1    0    0  503  502 -0.00000000000E+00 -0.00000000000E+00 -0.26012751707E+02  0.26012751707E+02  0.00000000000E+00 0. -1.
         21    1    1    2  503  501 -0.18272378951E+02 -0.11215989462E+02 -0.90847776634E+01  0.23285434016E+02  0.00000000000E+00 0. -1.
         21    1    1    2  504  502  0.18272378951E+02  0.11215989462E+02  0.18658527162E+01  0.21521144451E+02  0.00000000000E+00 0. -1.
<mgrwt>
<rscale>  2 0.21440108E+02</rscale>
<asrwt>0</asrwt>
<pdfrwt beam="1">  1       21 0.28913580E-02 0.21440108E+02</pdfrwt>
<pdfrwt beam="2">  1       21 0.40019618E-02 0.21440108E+02</pdfrwt>
<totfact> 0.16897482E+08</totfact>
</mgrwt>
</event>
<event>
 4    1  0.4505197E+006  0.2582183E+02  0.7546771E-02  0.1649471E+00
         21   -1    0    0  503  501  0.00000000000E+00  0.00000000000E+00  0.61772502075E+02  0.61772502075E+02  0.00000000000E+00 0.  1.
         21   -1    0    0  504  502 -0.00000000000E+00 -0.00000000000E+00 -0.36594230398E+02  0.36594230398E+02  0.00000000000E+00 0. -1.
         21    1    1    2  503  502 -0.22472916377E+02 -0.12717498189E+02 -0.28708434684E+02  0.38612704550E+02  0.00000000000E+00 0. -1.
         21    1    1    2  504  501  0.22472916377E+02  0.12717498189E+02  0.53886706361E+02  0.59754027924E+02  0.00000000000E+00 0.  1.
<mgrwt>
<rscale>  2 0.25821827E+02</rscale>
<asrwt>0</asrwt>
<pdfrwt beam="1">  1       21 0.95034619E-02 0.25821827E+02</pdfrwt>
<pdfrwt beam="2">  1       21 0.56298816E-02 0.25821827E+02</pdfrwt>
<totfact> 0.15362931E+07</totfact>
</mgrwt>
</event>
<event>
 4    1  0.4505197E+006  0.2064224E+02  0.7546771E-02  0.1732850E+00
         21   -1    0    0  502  501  0.00000000000E+00  0.00000000000E+00  0.21017441996E+02  0.21017441996E+02  0.00000000000E+00 0.  1.
         21   -1    0    0  504  502 -0.00000000000E+00 -0.00000000000E+00 -0.23793157478E+02  0.23793157478E+02  0.00000000000E+00 0.  1.
         21    1    1    2  503  501 -0.17207237184E+02  0.11402324926E+02  0.72292295310E+01  0.21871529092E+02  0.00000000000E+00 0.  1.
         21    1    1    2  504  503  0.17207237184E+02 -0.11402324926E+02 -0.10004945013E+02  0.22939070381E+02  0.00000000000E+00 0.  1.
<mgrwt>
<rscale>  2 0.20642239E+02</rscale>
<asrwt>0</asrwt>
<pdfrwt beam="1">  1       21 0.32334526E-02 0.20642239E+02</pdfrwt>
<pdfrwt beam="2">  1       21 0.36604858E-02 0.20642239E+02</pdfrwt>
<totfact> 0.16141073E+08</totfact>
</mgrwt>
</event>
<event>
 4    1  0.4505197E+006  0.2121136E+02  0.7546771E-02  0.1722259E+00
         21   -1    0    0  503  501  0.00000000000E+00  0.00000000000E+00  0.28459471217E+01  0.28459471217E+01  0.00000000000E+00 0. -1.
         21   -1    0    0  504  502 -0.00000000000E+00 -0.00000000000E+00 -0.16601530789E+03  0.16601530789E+03  0.00000000000E+00 0. -1.
         21    1    1    2  503  502 -0.17677454202E+01  0.21137567043E+02 -0.10002962548E+03  0.10225383923E+03  0.00000000000E+00 0. -1.
         21    1    1    2  504  501  0.17677454202E+01 -0.21137567043E+02 -0.63139735291E+02  0.66607415781E+02  0.00000000000E+00 0. -1.
<mgrwt>
<rscale>  2 0.21211357E+02</rscale>
<asrwt>0</asrwt>
<pdfrwt beam="1">  1       21 0.43783804E-03 0.21211357E+02</pdfrwt>
<pdfrwt beam="2">  1       21 0.25540815E-01 0.21211357E+02</pdfrwt>
<totfact> 0.13331152E+08</totfact>
</mgrwt>
</event>
<event>
 4    1  0.4505197E+006  0.2759267E+02  0.7546771E-02  0.1626332E+00
         21   -1    0    0  504  501  0.00000000000E+00  0.00000000000E+00  0.11270382762E+04  0.11270382762E+04  0.00000000000E+00 0.  1.
         21   -1    0    0  501  502 -0.00000000000E+00 -0.00000000000E+00 -0.18088689266E+02  0.18088689266E+02  0.00000000000E+00 0.  1.
         21    1    1    2  503  502 -0.14822337596E+02 -0.23273460139E+02 -0.72955391533E+01  0.28540857208E+02  0.00000000000E+00 0.  1.
         21    1    1    2  504  503  0.14822337596E+02  0.23273460139E+02  0.11162451261E+04  0.11165861083E+04  0.00000000000E+00 0.  1.
<mgrwt>
<rscale>  2 0.27592674E+02</rscale>
<asrwt>0</asrwt>
<pdfrwt beam="1">  1       21 0.17339045E+00 0.27592674E+02</pdfrwt>
<pdfrwt beam="2">  1       21 0.27828762E-02 0.27592674E+02</pdfrwt>
<totfact> 0.16147215E+05</totfact>
</mgrwt>
</event>
<event>
 4    1  0.4505197E+006  0.2210905E+02  0.7546771E-02  0.1706373E+00
         21   -1    0    0  502  501  0.00000000000E+00  0.00000000000E+00  0.89033653200E+02  0.89033653200E+02  0.00000000000E+00 0.  1.
         21   -1    0    0  503  502 -0.00000000000E+00 -0.00000000000E+00 -0.14418599699E+02  0.14418599699E+02  0.00000000000E+00 0. -1.
         21    1    1    2  503  504 -0.17095413042E+02 -0.14019882701E+02 -0.33963576686E+01  0.22368404133E+02  0.00000000000E+00 0. -1.
         21    1    1    2  504  501  0.17095413042E+02  0.14019882701E+02  0.78011411169E+02  0.81083848766E+02  0.00000000000E+00 0.  1.
<mgrwt>
<rscale>  2 0.22109054E+02</rscale>
<asrwt>0</asrwt>
<pdfrwt beam="1">  1       21 0.13697485E-01 0.22109054E+02</pdfrwt>
<pdfrwt beam="2">  1       21 0.22182462E-02 0.22109054E+02</pdfrwt>
<totfact> 0.34800713E+07</totfact>
</mgrwt>
</event>
<event>
 4    1  0.4505197E+006  0.2799065E+02  0.7546771E-02  0.1621424E+00
         21   -1    0    0  503  501  0.00000000000E+00  0.00000000000E+00  0.98310963134E+02  0.98310963134E+02  0.00000000000E+00 0.  1.
         21   -1    0    0  501  502 -0.00000000000E+00 -0.00000000000E+00 -0.58525950968E+02  0.58525950968E+02  0.00000000000E+00 0. -1.
         21    1    1    2  503  504 -0.23396373948E+02 -0.15365092408E+02  0.92776624322E+02  0.96907060626E+02  0.00000000000E+00 0.  1.
         21    1    1    2  504  502  0.23396373948E+02  0.15365092408E+02 -0.52991612157E+02  0.59929853476E+02  0.00000000000E+00 0. -1.
<mgrwt>
<rscale>  2 0.27990648E+02</rscale>
<asrwt>0</asrwt>
<pdfrwt beam="1">  1       21 0.15124763E-01 0.27990648E+02</pdfrwt>
<pdfrwt beam="2">  1       21 0.90039925E-02 0.27990648E+02</pdfrwt>
<totfact> 0.33052849E+06</totfact>
</mgrwt>
</event>
<event>
 4    1  0.4505197E+006  0.2252992E+02  0.7546771E-02  0.1699245E+00
         21   -1    0    0  502  501  0.00000000000E+00  0.00000000000E+00  0.10683024183E+03  0.10683024183E+03  0.00000000000E+00 0.  1.
         21   -1    0    0  503  502 -0.00000000000E+00 -0.00000000000E+00 -0.85746311902E+01  0.85746311902E+01  0.00000000000E+00 0. -1.
         21    1    1    2  503  504  0.18793140828E+02  0.12426394805E+02  0.10597764924E+02  0.24897992919E+02  0.00000000000E+00 0. -1.
         21    1    1    2  504  501 -0.18793140828E+02 -0.12426394805E+02  0.87657845712E+02  0.90506880097E+02  0.00000000000E+00 0.  1.
<mgrwt>
<rscale>  2 0.22529923E+02</rscale>
<asrwt>0</asrwt>
<pdfrwt beam="1">  1       21 0.16435421E-01 0.22529923E+02</pdfrwt>
<pdfrwt beam="2">  1       21 0.13191741E-02 0.22529923E+02</pdfrwt>
<totfact> 0.56657689E+07</totfact>
</mgrwt>
</event>
<event>
 4    1  0.4505197E+006  0.3330845E+02  0.7546771E-02  0.1564156E+00
         21   -1    0    0  504  501  0.00000000000E+00  0.00000000000E+00  0.30658935737E+02  0.30658935737E+02  0.00000000000E+00 0. -1.
         21   -1    0    0  501  502 -0.00000000000E+00 -0.00000000000E+00 -0.34889524443E+03  0.34889524443E+03  0.00000000000E+00 0.  1.
         21    1    1    2  503  502 -0.21031896050E+01 -0.33241983508E+02 -0.33878418372E+03  0.34041764938E+03  0.00000000000E+00 0.  1.
         21    1    1    2  504  503  0.21031896050E+01  0.33241983508E+02  0.20547875022E+02  0.39136530786E+02  0.00000000000E+00 0. -1.
<mgrwt>
<rscale>  2 0.33308450E+02</rscale>
<asrwt>0</asrwt>
<pdfrwt beam="1">  1       21 0.47167596E-02 0.33308450E+02</pdfrwt>
<pdfrwt beam="2">  1       21 0.53676189E-01 0.33308450E+02</pdfrwt>
<totfact> 0.94021649E+05</totfact>
</mgrwt>
</event>
<event>
 4    1  0.4505197E+006  0.7928727E+02  0.7546771E-02  0.1331086E+00
         21   -1    0    0  504  501  0.00000000000E+00  0.00000000000E+00  0.45316862419E+03  0.45316862419E+03  0.00000000000E+00 0. -1.
         21   -1    0    0  503  502 -0.00000000000E+00 -0.00000000000E+00 -0.40886452558E+02  0.40886452558E+02  0.00000000000E+00 0. -1.
         21    1    1    2  503  501  0.60438780161E+02  0.51318858624E+02  0.53466478571E+01  0.79467339462E+02  0.00000000000E+00 0. -1.
         21    1    1    2  504  502 -0.60438780161E+02 -0.51318858624E+02  0.40693552378E+03  0.41458773729E+03  0.00000000000E+00 0. -1.
<mgrwt>
<rscale>  2 0.79287271E+02</rscale>
<asrwt>0</asrwt>
<pdfrwt beam="1">  1       21 0.69718247E-01 0.79287271E+02</pdfrwt>
<pdfrwt beam="2">  1       21 0.62902238E-02 0.79287271E+02</pdfrwt>
<totfact> 0.34744669E+05</totfact>
</mgrwt>
</event>
<event>
 4    1  0.4505197E+006  0.2006740E+02  0.7546771E-02  0.1743991E+00
         21   -1    0    0  503  501  0.00000000000E+00  0.00000000000E+00  0.10789307212E+02  0.10789307212E+02  0.00000000000E+00 0.  1.
         21   -1    0    0  504  502 -0.00000000000E+00 -0.00000000000E+00 -0.55043859500E+02  0.55043859500E+02  0.00000000000E+00 0.  1.
         21    1    1    2  503  502  0.94236111452E+01 -0.17717108344E+02 -0.34510063568E+01  0.20361969943E+02  0.00000000000E+00 0.  1.
         21    1    1    2  504  501 -0.94236111452E+01  0.17717108344E+02 -0.40803545931E+02  0.45471196769E+02  0.00000000000E+00 0.  1.
<mgrwt>
<rscale>  2 0.20067396E+02</rscale>
<asrwt>0</asrwt>
<pdfrwt beam="1">  1       21 0.16598934E-02 0.20067396E+02</pdfrwt>
<pdfrwt beam="2">  1       21 0.84682862E-02 0.20067396E+02</pdfrwt>
<totfact> 0.11703989E+08</totfact>
</mgrwt>
</event>
<event>
 4    1  0.4505197E+006  0.2284194E+02  0.7546771E-02  0.1694085E+00
         21   -1    0    0  504  501  0.00000000000E+00  0.00000000000E+00  0.99979528414E+02  0.99979528414E+02  0.00000000000E+00 0.  1.
         21   -1    0    0  501  502 -0.00000000000E+00 -0.00000000000E+00 -0.89186612516E+01  0.89186612516E+01  0.00000000000E+00 0.  1.
         21    1    1    2  503  502  0.14588308846E+02  0.17576556471E+02  0.10459708614E+02  0.25122889894E+02  0.00000000000E+00 0.  1.
         21    1    1    2  504  503 -0.14588308846E+02 -0.17576556471E+02  0.80601158548E+02  0.83775299771E+02  0.00000000000E+00 0.  1.
<mgrwt>
<rscale>  2 0.22841937E+02</rscale>
<asrwt>0</asrwt>
<pdfrwt beam="1">  1       21 0.15381465E-01 0.22841937E+02</pdfrwt>
<pdfrwt beam="2">  1       21 0.13721018E-02 0.22841937E+02</pdfrwt>
<totfact> 0.60000632E+07</totfact>
</mgrwt>
</event>
<event>
 4    1  0.4505197E+006  0.2847075E+02  0.7546771E-02  0.1615635E+00
         21   -1    0    0  502  501  0.00000000000E+00  0.00000000000E+00  0.26516154052E+03  0.26516154052E+03  0.00000000000E+00 0. -1.
         21   -1    0    0  504  502 -0.00000000000E+00 -0.00000000000E+00 -0.10020225455E+02  0.10020225455E+02  0.00000000000E+00 0. -1.
         21    1    1    2  503  501 -0.27317573401E+02  0.80208174760E+01  0.24226921673E+03  0.24393637839E+03  0.00000000000E+00 0. -1.
         21    1    1    2  504  503  0.27317573401E+02 -0.80208174760E+01  0.12872098336E+02  0.31245387581E+02  0.00000000000E+00 0. -1.
<mgrwt>
<rscale>  2 0.28470745E+02</rscale>
<asrwt>0</asrwt>
<pdfrwt beam="1">  1       21 0.40794078E-01 0.28470745E+02</pdfrwt>
<pdfrwt beam="2">  1       21 0.15415734E-02 0.28470745E+02</pdfrwt>
<totfact> 0.91222820E+06</totfact>
</mgrwt>
</event>
<event>
 4    1  0.4505197E+006  0.2346972E+02  0.7546771E-02  0.1684007E+00
         21   -1    0    0  504  501  0.00000000000E+00  0.00000000000E+00  0.23811743808E+01  0.23811743808E+01  0.00000000000E+00 0.  1.
         21   -1    0    0  503  502 -0.00000000000E+00 -0.00000000000E+00 -0.80431219840E+03  0.80431219840E+03  0.00000000000E+00 0.  1.
         21    1    1    2  503  501 -0.19922446295E+02 -0.12406604056E+02 -0.74140366305E+03  0.74177504627E+03  0.00000000000E+00 0.  1.
         21    1    1    2  504  502  0.19922446295E+02  0.12406604056E+02 -0.60527360968E+02  0.64918326506E+02  0.00000000000E+00 0.  1.
<mgrwt>
<rscale>  2 0.23469719E+02</rscale>
<asrwt>0</asrwt>
<pdfrwt beam="1">  1       21 0.36633477E-03 0.23469719E+02</pdfrwt>
<pdfrwt beam="2">  1       21 0.12374026E+00 0.23469719E+02</pdfrwt>
<totfact> 0.76105768E+06</totfact>
</mgrwt>
</event>
<event>
 4    1  0.4505197E+006  0.3487291E+02  0.7546771E-02  0.1549732E+00
         21   -1    0    0  503  501  0.00000000000E+00  0.00000000000E+00  0.97713539722E+02  0.97713539722E+02  0.00000000000E+00 0. -1.
         21   -1    0    0  504  502 -0.00000000000E+00 -0.00000000000E+00 -0.43696718402E+02  0.43696718402E+02  0.00000000000E+00 0. -1.
         21    1    1    2  503  502 -0.14816234792E+02  0.31568952508E+02 -0.32785664927E+02  0.47864594437E+02  0.00000000000E+00 0. -1.
         21    1    1    2  504  501  0.14816234792E+02 -0.31568952508E+02  0.86802486247E+02  0.93545663686E+02  0.00000000000E+00 0. -1.
<mgrwt>
<rscale>  2 0.34872906E+02</rscale>
<asrwt>0</asrwt>
<pdfrwt beam="1">  1       21 0.15032852E-01 0.34872906E+02</pdfrwt>
<pdfrwt beam="2">  1       21 0.67225721E-02 0.34872906E+02</pdfrwt>
<totfact> 0.55613636E+06</totfact>
</mgrwt>
</event>
<event>
 4    1  0.4505197E+006  0.2876308E+02  0.7546771E-02  0.1612178E+00
         21   -1    0    0  503  501  0.00000000000E+00  0.00000000000E+00  0.48883114073E+02  0.48883114073E+02  0.00000000000E+00 0.  1.
         21   -1    0    0  501  502 -0.00000000000E+00 -0.00000000000E+00 -0.42851353562E+02  0.42851353562E+02  0.00000000000E+00 0.  1.
         21    1    1    2  503  504 -0.27004139349E+02 -0.99041121342E+01  0.38693546009E+02  0.48213125618E+02  0.00000000000E+00 0.  1.
         21    1    1    2  504  502  0.27004139349E+02  0.99041121342E+01 -0.32661785498E+02  0.43521342018E+02  0.00000000000E+00 0.  1.
<mgrwt>
<rscale>  2 0.28763084E+02</rscale>
<asrwt>0</asrwt>
<pdfrwt beam="1">  1       21 0.75204791E-02 0.28763084E+02</pdfrwt>
<pdfrwt beam="2">  1       21 0.65925159E-02 0.28763084E+02</pdfrwt>
<totfact> 0.17870769E+07</totfact>
</mgrwt>
</event>
<event>
 4    1  0.4505197E+006  0.2258247E+02  0.7546771E-02  0.1698369E+00
         21   -1    0    0  504  501  0.00000000000E+00  0.00000000000E+00  0.13947816361E+03  0.13947816361E+03  0.00000000000E+00 0. -1.
         21   -1    0    0  503  502 -0.00000000000E+00 -0.00000000000E+00 -0.25587094697E+02  0.25587094697E+02  0.00000000000E+00 0.  1.
         21    1    1    2  503  501 -0.22215962612E+02  0.40520264479E+01 -0.19463165305E+02  0.29812459087E+02  0.00000000000E+00 0.  1.
         21    1    1    2  504  502  0.22215962612E+02 -0.40520264479E+01  0.13335423422E+03  0.13525279922E+03  0.00000000000E+00 0. -1.
<mgrwt>
<rscale>  2 0.22582469E+02</rscale>
<asrwt>0</asrwt>
<pdfrwt beam="1">  1       21 0.21458179E-01 0.22582469E+02</pdfrwt>
<pdfrwt beam="2">  1       21 0.39364762E-02 0.22582469E+02</pdfrwt>
<totfact> 0.66208727E+06</totfact>
</mgrwt>
</event>
<event>
 4    1  0.4505197E+006  0.2135734E+02  0.7546771E-02  0.1719609E+00
         21   -1    0    0  503  501  0.00000000000E+00  0.00000000000E+00  0.57408694439E+02  0.57408694439E+02  0.00000000000E+00 0. -1.
         21   -1    0    0  504  502 -0.00000000000E+00 -0.00000000000E+00 -0.22539505495E+02  0.22539505495E+02  0.00000000000E+00 0. -1.
         21    1    1    2  503  502 -0.51740940829E+01 -0.20721122888E+02 -0.14731249201E+02  0.25945055142E+02  0.00000000000E+00 0. -1.
         21    1    1    2  504  501  0.51740940829E+01  0.20721122888E+02  0.49600438145E+02  0.54003144793E+02  0.00000000000E+00 0. -1.
<mgrwt>
<rscale>  2 0.21357345E+02</rscale>
<asrwt>0</asrwt>
<pdfrwt beam="1">  1       21 0.88321068E-02 0.21357345E+02</pdfrwt>
<pdfrwt beam="2">  1       21 0.34676163E-02 0.21357345E+02</pdfrwt>
<totfact> 0.35794726E+07</totfact>
</mgrwt>
</event>
<event>
 4    1  0.4505197E+006  0.2043753E+02  0.7546771E-02  0.1736765E+00
         21   -1    0    0  504  501  0.00000000000E+00  0.00000000000E+00  0.51013309789E+01  0.51013309789E+01  0.00000000000E+00 0. -1.
         21   -1    0    0  503  502 -0.00000000000E+00 -0.00000000000E+00 -0.11765174898E+03  0.11765174898E+03  0.00000000000E+00 0.  1.
         21    1    1    2  503  501 -0.33378593470E+01  0.20163122965E+02 -0.22431478265E+02  0.30345741874E+02  0.00000000000E+00 0. -1.
         21    1    1    2  504  502  0.33378593470E+01 -0.20163122965E+02 -0.90118939733E+02  0.92407338082E+02  0.00000000000E+00 0.  1.
<mgrwt>
<rscale>  2 0.20437535E+02</rscale>
<asrwt>0</asrwt>
<pdfrwt beam="1">  1       21 0.78482017E-03 0.20437535E+02</pdfrwt>
<pdfrwt beam="2">  1       21 0.18100269E-01 0.20437535E+02</pdfrwt>
<totfact> 0.10181904E+08</totfact>
</mgrwt>
</event>
<event>
 4    1  0.4505197E+006  0.3699742E+02  0.7546771E-02  0.1531546E+00
         21   -1    0    0  503  501  0.00000000000E+00  0.00000000000E+00  0.51222637646E+01  0.51222637646E+01  0.00000000000E+00 0.  1.
         21   -1    0    0  504  502 -0.00000000000E+00 -0.00000000000E+00 -0.56530167304E+03  0.56530167304E+03  0.00000000000E+00 0.  1.
         21    1    1    2  503  502  0.26306991768E+02  0.26014442692E+02 -0.48719437056E+03  0.48859713850E+03  0.00000000000E+00 0.  1.
         21    1    1    2  504  501 -0.26306991768E+02 -0.26014442692E+02 -0.72985038709E+02  0.81826798298E+02  0.00000000000E+00 0.  1.
<mgrwt>
<rscale>  2 0.36997419E+02</rscale>
<asrwt>0</asrwt>
<pdfrwt beam="1">  1       21 0.78804041E-03 0.36997419E+02</pdfrwt>
<pdfrwt beam="2">  1       21 0.86969507E-01 0.36997419E+02</pdfrwt>
<totfact> 0.56436903E+06</totfact>
</mgrwt>
</event>
<event>
 4    1  0.4505197E+006  0.2792155E+02  0.7546771E-02  0.1622269E+00
         21   -1    0    0  504  501  0.00000000000E+00  0.00000000000E+00  0.46101443616E+02  0.46101443616E+02  0.00000000000E+00 0. -1.
         21   -1    0    0  501  502 -0.00000000000E+00 -0.00000000000E+00 -0.31869037675E+02  0.31869037675E+02  0.00000000000E+00 0. -1.
         21    1    1    2  503  502 -0.18973722563E+02  0.20484400155E+02 -0.19592684622E+02  0.34109911878E+02  0.00000000000E+00 0. -1.
         21    1    1    2  504  503  0.18973722563E+02 -0.20484400155E+02  0.33825090563E+02  0.43860569413E+02  0.00000000000E+00 0. -1.
<mgrwt>
<rscale>  2 0.27921547E+02</rscale>
<asrwt>0</asrwt>
<pdfrwt beam="1">  1       21 0.70925298E-02 0.27921547E+02</pdfrwt>
<pdfrwt beam="2">  1       21 0.49029288E-02 0.27921547E+02</pdfrwt>
<totfact> 0.31536745E+07</totfact>
</mgrwt>
</event>
<event>
 4    1  0.4505197E+006  0.2641446E+02  0.7546771E-02  0.1641479E+00
         21   -1    0    0  503  501  0.00000000000E+00  0.00000000000E+00  0.13122726008E+03  0.13122726008E+03  0.00000000000E+00 0.  1.
         21   -1    0    0  501  502 -0.00000000000E+00 -0.00000000000E+00 -0.67717024826E+01  0.67717024826E+01  0.00000000000E+00 0.  1.
         21    1    1    2  503  504  0.53398156092E+01  0.25869095614E+02  0.94209157338E+02  0.97842164045E+02  0.00000000000E+00 0.  1.
         21    1    1    2  504  502 -0.53398156092E+01 -0.25869095614E+02  0.30246400263E+02  0.40156798521E+02  0.00000000000E+00 0.  1.
<mgrwt>
<rscale>  2 0.26414461E+02</rscale>
<asrwt>0</asrwt>
<pdfrwt beam="1">  1       21 0.20188807E-01 0.26414461E+02</pdfrwt>
<pdfrwt beam="2">  1       21 0.10418005E-02 0.26414461E+02</pdfrwt>
<totfact> 0.58940136E+07</totfact>
</mgrwt>
</event>
<event>
 4    1  0.4505197E+006  0.2113932E+02  0.7546771E-02  0.1723577E+00
         21   -1    0    0  504  501  0.00000000000E+00  0.00000000000E+00  0.33748862761E+02  0.33748862761E+02  0.00000000000E+00 0. -1.
         21   -1    0    0  503  502 -0.00000000000E+00 -0.00000000000E+00 -0.13308549203E+02  0.13308549203E+02  0.00000000000E+00 0. -1.
         21    1    1    2  503  501 -0.11501990622E+01 -0.21108006916E+02  0.85447084326E+01  0.22800941999E+02  0.00000000000E+00 0. -1.
         21    1    1    2  504  502  0.11501990622E+01  0.21108006916E+02  0.11895605125E+02  0.24256469965E+02  0.00000000000E+00 0. -1.
<mgrwt>
<rscale>  2 0.21139322E+02</rscale>
<asrwt>0</asrwt>
<pdfrwt beam="1">  1       21 0.51921327E-02 0.21139322E+02</pdfrwt>
<pdfrwt beam="2">  1       21 0.20474691E-02 0.21139322E+02</pdfrwt>
<totfact> 0.18971189E+08</totfact>
</mgrwt>
</event>
<event>
 4    1  0.4505197E+006  0.2039689E+02  0.7546771E-02  0.1737549E+00
         21   -1    0    0  504  501  0.00000000000E+00  0.00000000000E+00  0.25303862831E+02  0.25303862831E+02  0.00000000000E+00 0. -1.
         21   -1    0    0  503  502 -0.00000000000E+00 -0.00000000000E+00 -0.39043954970E+02  0.39043954970E+02  0.00000000000E+00 0. -1.
         21    1    1    2  503  501  0.30616045120E+00 -0.20394593404E+02  0.17609583475E+02  0.26946810656E+02  0.00000000000E+00 0. -1.
         21    1    1    2  504  502 -0.30616045120E+00  0.20394593404E+02 -0.31349675615E+02  0.37401007145E+02  0.00000000000E+00 0. -1.
<mgrwt>
<rscale>  2 0.20396891E+02</rscale>
<asrwt>0</asrwt>
<pdfrwt beam="1">  1       21 0.38929020E-02 0.20396891E+02</pdfrwt>
<pdfrwt beam="2">  1       21 0.60067623E-02 0.20396891E+02</pdfrwt>
<totfact> 0.55045041E+07</totfact>
</mgrwt>
</event>
<event>
 4    1  0.4505197E+006  0.2202764E+02  0.7546771E-02  0.1707774E+00
         21   -1    0    0  504  501  0.00000000000E+00  0.00000000000E+00  0.86099093836E+00  0.86099093836E+00  0.00000000000E+00 0. -1.
         21   -1    0    0  503  502 -0.00000000000E+00 -0.00000000000E+00 -0.84537543541E+03  0.84537543541E+03  0.00000000000E+00 0. -1.
         21    1    1    2  503  501 -0.11844390371E+02  0.18572224151E+02 -0.66655636617E+03  0.66692023989E+03  0.00000000000E+00 0. -1.
         21    1    1    2  504  502  0.11844390371E+02 -0.18572224151E+02 -0.17795807831E+03  0.17931618647E+03  0.00000000000E+00 0. -1.
<mgrwt>
<rscale>  2 0.22027644E+02</rscale>
<asrwt>0</asrwt>
<pdfrwt beam="1">  1       21 0.13246066E-03 0.22027644E+02</pdfrwt>
<pdfrwt beam="2">  1       21 0.13005725E+00 0.22027644E+02</pdfrwt>
<totfact> 0.29263074E+07</totfact>
</mgrwt>
</event>
<event>
 4    1  0.4505197E+006  0.2075669E+02  0.7546771E-02  0.1730686E+00
         21   -1    0    0  504  501  0.00000000000E+00  0.00000000000E+00  0.42787566804E+03  0.42787566804E+03  0.00000000000E+00 0.  1.
         21   -1    0    0  503  502 -0.00000000000E+00 -0.00000000000E+00 -0.11250290333E+02  0.11250290333E+02  0.00000000000E+00 0.  1.
         21    1    1    2  503  501  0.89408504894E+01 -0.18732362389E+02 -0.11942959372E+01  0.20791020921E+02  0.00000000000E+00 0.  1.
         21    1    1    2  504  502 -0.89408504894E+01  0.18732362389E+02  0.41781967364E+03  0.41833493745E+03  0.00000000000E+00 0.  1.
<mgrwt>
<rscale>  2 0.20756691E+02</rscale>
<asrwt>0</asrwt>
<pdfrwt beam="1">  1       21 0.65827013E-01 0.20756691E+02</pdfrwt>
<pdfrwt beam="2">  1       21 0.17308142E-02 0.20756691E+02</pdfrwt>
<totfact> 0.28552174E+06</totfact>
</mgrwt>
</event>
<event>
 4    1  0.4505197E+006  0.2178277E+02  0.7546771E-02  0.1712036E+00
         21   -1    0    0  503  501  0.00000000000E+00  0.00000000000E+00  0.16068228819E+03  0.16068228819E+03  0.00000000000E+00 0.  1.
         21   -1    0    0  501  502 -0.00000000000E+00 -0.00000000000E+00 -0.30444295457E+02  0.30444295457E+02  0.00000000000E+00 0. -1.
         21    1    1    2  503  504 -0.20164172390E+02 -0.82398503969E+01  0.15592948776E+03  0.15744362208E+03  0.00000000000E+00 0.  1.
         21    1    1    2  504  502  0.20164172390E+02  0.82398503969E+01 -0.25691495027E+02  0.33682961560E+02  0.00000000000E+00 0. -1.
<mgrwt>
<rscale>  2 0.21782768E+02</rscale>
<asrwt>0</asrwt>
<pdfrwt beam="1">  1       21 0.24720352E-01 0.21782768E+02</pdfrwt>
<pdfrwt beam="2">  1       21 0.46837378E-02 0.21782768E+02</pdfrwt>
<totfact> 0.38962573E+06</totfact>
</mgrwt>
</event>
<event>
 4    1  0.4505197E+006  0.2155056E+02  0.7546771E-02  0.1716143E+00
         21   -1    0    0  504  501  0.00000000000E+00  0.00000000000E+00  0.42981760945E+03  0.42981760945E+03  0.00000000000E+00 0.  1.
         21   -1    0    0  503  502 -0.00000000000E+00 -0.00000000000E+00 -0.19811727904E+02  0.19811727904E+02  0.00000000000E+00 0.  1.
         21    1    1    2  503  501 -0.19661432037E+02 -0.88235264659E+01  0.42360102889E+03  0.42414886326E+03  0.00000000000E+00 0.  1.
         21    1    1    2  504  502  0.19661432037E+02  0.88235264659E+01 -0.13595147340E+02  0.25480474097E+02  0.00000000000E+00 0.  1.
<mgrwt>
<rscale>  2 0.21550558E+02</rscale>
<asrwt>0</asrwt>
<pdfrwt beam="1">  1       21 0.66125779E-01 0.21550558E+02</pdfrwt>
<pdfrwt beam="2">  1       21 0.30479585E-02 0.21550558E+02</pdfrwt>
<totfact> 0.11907782E+06</totfact>
</mgrwt>
</event>
<event>
 4    1  0.4505197E+006  0.5966296E+02  0.7546771E-02  0.1399252E+00
         21   -1    0    0  504  501  0.00000000000E+00  0.00000000000E+00  0.25350197242E+02  0.25350197242E+02  0.00000000000E+00 0.  1.
         21   -1    0    0  501  502 -0.00000000000E+00 -0.00000000000E+00 -0.97437645725E+03  0.97437645725E+03  0.00000000000E+00 0. -1.
         21    1    1    2  503  502  0.49032028993E+02 -0.33993070885E+02 -0.93695764611E+03  0.93885531332E+03  0.00000000000E+00 0. -1.
         21    1    1    2  504  503 -0.49032028993E+02  0.33993070885E+02 -0.12068613899E+02  0.60871341178E+02  0.00000000000E+00 0.  1.
<mgrwt>
<rscale>  2 0.59662959E+02</rscale>
<asrwt>0</asrwt>
<pdfrwt beam="1">  1       21 0.39000306E-02 0.59662959E+02</pdfrwt>
<pdfrwt beam="2">  1       21 0.14990406E+00 0.59662959E+02</pdfrwt>
<totfact> 0.13185492E+05</totfact>
</mgrwt>
</event>
<event>
 4    1  0.4505197E+006  0.2656871E+02  0.7546771E-02  0.1639441E+00
         21   -1    0    0  503  501  0.00000000000E+00  0.00000000000E+00  0.48496942363E+02  0.48496942363E+02  0.00000000000E+00 0.  1.
         21   -1    0    0  504  502 -0.00000000000E+00 -0.00000000000E+00 -0.16549035949E+02  0.16549035949E+02  0.00000000000E+00 0.  1.
         21    1    1    2  503  502 -0.23365635857E+02  0.12646875164E+02  0.27261980709E+02  0.38067203504E+02  0.00000000000E+00 0.  1.
         21    1    1    2  504  501  0.23365635857E+02 -0.12646875164E+02  0.46859257044E+01  0.26978774808E+02  0.00000000000E+00 0.  1.
<mgrwt>
<rscale>  2 0.26568711E+02</rscale>
<asrwt>0</asrwt>
<pdfrwt beam="1">  1       21 0.74610680E-02 0.26568711E+02</pdfrwt>
<pdfrwt beam="2">  1       21 0.25460056E-02 0.26568711E+02</pdfrwt>
<totfact> 0.80704802E+07</totfact>
</mgrwt>
</event>
<event>
 4    1  0.4505197E+006  0.3203869E+02  0.7546771E-02  0.1576589E+00
         21   -1    0    0  503  501  0.00000000000E+00  0.00000000000E+00  0.67532318971E+01  0.67532318971E+01  0.00000000000E+00 0.  1.
         21   -1    0    0  504  502 -0.00000000000E+00 -0.00000000000E+00 -0.15379817243E+03  0.15379817243E+03  0.00000000000E+00 0.  1.
         21    1    1    2  503  502  0.35743746203E+01 -0.31838676490E+02 -0.64837459648E+02  0.72321322224E+02  0.00000000000E+00 0.  1.
         21    1    1    2  504  501 -0.35743746203E+01  0.31838676490E+02 -0.82207480882E+02  0.88230082101E+02  0.00000000000E+00 0.  1.
<mgrwt>
<rscale>  2 0.32038687E+02</rscale>
<asrwt>0</asrwt>
<pdfrwt beam="1">  1       21 0.10389587E-02 0.32038687E+02</pdfrwt>
<pdfrwt beam="2">  1       21 0.23661258E-01 0.32038687E+02</pdfrwt>
<totfact> 0.46575524E+07</totfact>
</mgrwt>
</event>
<event>
 4    1  0.4505197E+006  0.2039695E+02  0.7546771E-02  0.1737548E+00
         21   -1    0    0  504  501  0.00000000000E+00  0.00000000000E+00  0.16504007813E+03  0.16504007813E+03  0.00000000000E+00 0. -1.
         21   -1    0    0  503  502 -0.00000000000E+00 -0.00000000000E+00 -0.32409210090E+01  0.32409210090E+01  0.00000000000E+00 0. -1.
         21    1    1    2  503  501  0.17932630178E+02  0.97188659703E+01  0.41238096273E+02  0.46006696959E+02  0.00000000000E+00 0. -1.
         21    1    1    2  504  502 -0.17932630178E+02 -0.97188659703E+01  0.12056106084E+03  0.12227430218E+03  0.00000000000E+00 0. -1.
<mgrwt>
<rscale>  2 0.20396950E+02</rscale>
<asrwt>0</asrwt>
<pdfrwt beam="1">  1       21 0.25390775E-01 0.20396950E+02</pdfrwt>
<pdfrwt beam="2">  1       21 0.49860336E-03 0.20396950E+02</pdfrwt>
<totfact> 0.11008272E+08</totfact>
</mgrwt>
</event>
<event>
 4    1  0.4505197E+006  0.4536520E+02  0.7546771E-02  0.1472075E+00
         21   -1    0    0  504  501  0.00000000000E+00  0.00000000000E+00  0.30563397602E+02  0.30563397602E+02  0.00000000000E+00 0. -1.
         21   -1    0    0  503  502 -0.00000000000E+00 -0.00000000000E+00 -0.11986719993E+03  0.11986719993E+03  0.00000000000E+00 0. -1.
         21    1    1    2  503  501 -0.32744165871E+02  0.31397782960E+02 -0.94444729736E+02  0.10477503590E+03  0.00000000000E+00 0. -1.
         21    1    1    2  504  502  0.32744165871E+02 -0.31397782960E+02  0.51409274057E+01  0.45655561633E+02  0.00000000000E+00 0. -1.
<mgrwt>
<rscale>  2 0.45365198E+02</rscale>
<asrwt>0</asrwt>
<pdfrwt beam="1">  1       21 0.47020612E-02 0.45365198E+02</pdfrwt>
<pdfrwt beam="2">  1       21 0.18441108E-01 0.45365198E+02</pdfrwt>
<totfact> 0.71921362E+06</totfact>
</mgrwt>
</event>
<event>
 4    1  0.4505197E+006  0.2373833E+02  0.7546771E-02  0.1679814E+00
         21   -1    0    0  504  501  0.00000000000E+00  0.00000000000E+00  0.10457796980E+03  0.10457796980E+03  0.00000000000E+00 0.  1.
         21   -1    0    0  501  502 -0.00000000000E+00 -0.00000000000E+00 -0.15544603116E+03  0.15544603116E+03  0.00000000000E+00 0. -1.
         21    1    1    2  503  502 -0.14524707587E+02 -0.18776085316E+02 -0.15317277917E+03  0.15500131867E+03  0.00000000000E+00 0. -1.
         21    1    1    2  504  503  0.14524707587E+02  0.18776085316E+02  0.10230471781E+03  0.10502268230E+03  0.00000000000E+00 0.  1.
<mgrwt>
<rscale>  2 0.23738334E+02</rscale>
<asrwt>0</asrwt>
<pdfrwt beam="1">  1       21 0.16088919E-01 0.23738334E+02</pdfrwt>
<pdfrwt beam="2">  1       21 0.23914774E-01 0.23738334E+02</pdfrwt>
<totfact> 0.55002161E+05</totfact>
</mgrwt>
</event>
<event>
 4    1  0.4505197E+006  0.3402607E+02  0.7546771E-02  0.1557423E+00
         21   -1    0    0  503  501  0.00000000000E+00  0.00000000000E+00  0.64758493762E+02  0.64758493762E+02  0.00000000000E+00 0. -1.
         21   -1    0    0  504  502 -0.00000000000E+00 -0.00000000000E+00 -0.30938200472E+02  0.30938200472E+02  0.00000000000E+00 0. -1.
         21    1    1    2  503  502 -0.17271793839E+02 -0.29316524420E+02 -0.14177576510E+02  0.36861594406E+02  0.00000000000E+00 0. -1.
         21    1    1    2  504  501  0.17271793839E+02  0.29316524420E+02  0.47997869799E+02  0.58835099828E+02  0.00000000000E+00 0. -1.
<mgrwt>
<rscale>  2 0.34026070E+02</rscale>
<asrwt>0</asrwt>
<pdfrwt beam="1">  1       21 0.99628452E-02 0.34026070E+02</pdfrwt>
<pdfrwt beam="2">  1       21 0.47597231E-02 0.34026070E+02</pdfrwt>
<totfact> 0.19582228E+07</totfact>
</mgrwt>
</event>
<event>
 4    1  0.4505197E+006  0.2621842E+02  0.7546771E-02  0.1644094E+00
         21   -1    0    0  503  501  0.00000000000E+00  0.00000000000E+00  0.31051475653E+03  0.31051475653E+03  0.00000000000E+00 0.  1.
         21   -1    0    0  504  502 -0.00000000000E+00 -0.00000000000E+00 -0.15470445287E+02  0.15470445287E+02  0.00000000000E+00 0. -1.
         21    1    1    2  503  502 -0.25908857862E+02 -0.40170646735E+01 -0.33586261134E+01  0.26432670952E+02  0.00000000000E+00 0. -1.
         21    1    1    2  504  501  0.25908857862E+02  0.40170646735E+01  0.29840293736E+03  0.29955253087E+03  0.00000000000E+00 0.  1.
<mgrwt>
<rscale>  2 0.26218423E+02</rscale>
<asrwt>0</asrwt>
<pdfrwt beam="1">  1       21 0.47771496E-01 0.26218423E+02</pdfrwt>
<pdfrwt beam="2">  1       21 0.23800687E-02 0.26218423E+02</pdfrwt>
<totfact> 0.34061093E+06</totfact>
</mgrwt>
</event>
<event>
 4    1  0.4505197E+006  0.2511339E+02  0.7546771E-02  0.1659379E+00
         21   -1    0    0  503  501  0.00000000000E+00  0.00000000000E+00  0.14881423448E+03  0.14881423448E+03  0.00000000000E+00 0.  1.
         21   -1    0    0  504  502 -0.00000000000E+00 -0.00000000000E+00 -0.84325625052E+01  0.84325625052E+01  0.00000000000E+00 0. -1.
         21    1    1    2  503  502 -0.41064975094E+01 -0.24775374086E+02  0.14739416963E+02  0.29119287342E+02  0.00000000000E+00 0. -1.
         21    1    1    2  504  501  0.41064975094E+01  0.24775374086E+02  0.12564225501E+03  0.12812750964E+03  0.00000000000E+00 0.  1.
<mgrwt>
<rscale>  2 0.25113393E+02</rscale>
<asrwt>0</asrwt>
<pdfrwt beam="1">  1       21 0.22894496E-01 0.25113393E+02</pdfrwt>
<pdfrwt beam="2">  1       21 0.12973174E-02 0.25113393E+02</pdfrwt>
<totfact> 0.33479089E+07</totfact>
</mgrwt>
</event>
<event>
 4    1  0.4505197E+006  0.2976189E+02  0.7546771E-02  0.1600736E+00
         21   -1    0    0  504  501  0.00000000000E+00  0.00000000000E+00  0.34855623098E+02  0.34855623098E+02  0.00000000000E+00 0.  1.
         21   -1    0    0  503  502 -0.00000000000E+00 -0.00000000000E+00 -0.77647158284E+02  0.77647158284E+02  0.00000000000E+00 0. -1.
         21    1    1    2  503  501  0.17987852755E+02  0.23710905605E+02  0.24741269038E+02  0.38702716764E+02  0.00000000000E+00 0.  1.
         21    1    1    2  504  502 -0.17987852755E+02 -0.23710905605E+02 -0.67532804224E+02  0.73800064618E+02  0.00000000000E+00 0. -1.
<mgrwt>
<rscale>  2 0.29761887E+02</rscale>
<asrwt>0</asrwt>
<pdfrwt beam="1">  1       21 0.53624036E-02 0.29761887E+02</pdfrwt>
<pdfrwt beam="2">  1       21 0.11945716E-01 0.29761887E+02</pdfrwt>
<totfact> 0.11630953E+07</totfact>
</mgrwt>
</event>
<event>
 4    1  0.4505197E+006  0.2084287E+02  0.7546771E-02  0.1729068E+00
         21   -1    0    0  504  501  0.00000000000E+00  0.00000000000E+00  0.50910799766E+01  0.50910799766E+01  0.00000000000E+00 0. -1.
         21   -1    0    0  503  502 -0.00000000000E+00 -0.00000000000E+00 -0.12606374085E+03  0.12606374085E+03  0.00000000000E+00 0.  1.
         21    1    1    2  503  501 -0.12293842691E+02 -0.16831117960E+02 -0.97762640649E+02  0.99959786947E+02  0.00000000000E+00 0.  1.
         21    1    1    2  504  502  0.12293842691E+02  0.16831117960E+02 -0.23210020222E+02  0.31195033877E+02  0.00000000000E+00 0. -1.
<mgrwt>
<rscale>  2 0.20842867E+02</rscale>
<asrwt>0</asrwt>
<pdfrwt beam="1">  1       21 0.78324311E-03 0.20842867E+02</pdfrwt>
<pdfrwt beam="2">  1       21 0.19394421E-01 0.20842867E+02</pdfrwt>
<totfact> 0.91152925E+07</totfact>
</mgrwt>
</event>
<event>
 4    1  0.4505197E+006  0.2153594E+02  0.7546771E-02  0.1716403E+00
         21   -1    0    0  503  501  0.00000000000E+00  0.00000000000E+00  0.24354808777E+01  0.24354808777E+01  0.00000000000E+00 0. -1.
         21   -1    0    0  504  502 -0.00000000000E+00 -0.00000000000E+00 -0.39319436018E+03  0.39319436018E+03  0.00000000000E+00 0.  1.
         21    1    1    2  503  502 -0.21402647606E+02 -0.23923494307E+01 -0.53327331682E+02  0.57511746319E+02  0.00000000000E+00 0. -1.
         21    1    1    2  504  501  0.21402647606E+02  0.23923494307E+01 -0.33743154763E+03  0.33811809474E+03  0.00000000000E+00 0.  1.
<mgrwt>
<rscale>  2 0.21535939E+02</rscale>
<asrwt>0</asrwt>
<pdfrwt beam="1">  1       21 0.37468947E-03 0.21535939E+02</pdfrwt>
<pdfrwt beam="2">  1       21 0.60491423E-01 0.21535939E+02</pdfrwt>
<totfact> 0.33274675E+07</totfact>
</mgrwt>
</event>
<event>
 4    1  0.4505197E+006  0.2199167E+02  0.7546771E-02  0.1708396E+00
         21   -1    0    0  503  501  0.00000000000E+00  0.00000000000E+00  0.15241533470E+03  0.15241533470E+03  0.00000000000E+00 0.  1.
         21   -1    0    0  504  502 -0.00000000000E+00 -0.00000000000E+00 -0.78301298049E+01  0.78301298049E+01  0.00000000000E+00 0.  1.
         21    1    1    2  503  502  0.62430550813E+01  0.21086907637E+02  0.13408349370E+03  0.13587500393E+03  0.00000000000E+00 0.  1.
         21    1    1    2  504  501 -0.62430550813E+01 -0.21086907637E+02  0.10501711190E+02  0.24370460569E+02  0.00000000000E+00 0.  1.
<mgrwt>
<rscale>  2 0.21991667E+02</rscale>
<asrwt>0</asrwt>
<pdfrwt beam="1">  1       21 0.23448511E-01 0.21991667E+02</pdfrwt>
<pdfrwt beam="2">  1       21 0.12046355E-02 0.21991667E+02</pdfrwt>
<totfact> 0.34809103E+07</totfact>
</mgrwt>
</event>
<event>
 4    1  0.4505197E+006  0.2222878E+02  0.7546771E-02  0.1704325E+00
         21   -1    0    0  502  501  0.00000000000E+00  0.00000000000E+00  0.10918806427E+02  0.10918806427E+02  0.00000000000E+00 0. -1.
         21   -1    0    0  504  502 -0.00000000000E+00 -0.00000000000E+00 -0.55856911652E+03  0.55856911652E+03  0.00000000000E+00 0. -1.
         21    1    1    2  503  501 -0.12330524809E+02 -0.18495324001E+02 -0.85942799513E+00  0.22245392072E+02  0.00000000000E+00 0. -1.
         21    1    1    2  504  503  0.12330524809E+02  0.18495324001E+02 -0.54679088210E+03  0.54724253087E+03  0.00000000000E+00 0. -1.
<mgrwt>
<rscale>  2 0.22228784E+02</rscale>
<asrwt>0</asrwt>
<pdfrwt beam="1">  1       21 0.16798161E-02 0.22228784E+02</pdfrwt>
<pdfrwt beam="2">  1       21 0.85933723E-01 0.22228784E+02</pdfrwt>
<totfact> 0.17358914E+06</totfact>
</mgrwt>
</event>
<event>
 4    1  0.4505197E+006  0.2549012E+02  0.7546771E-02  0.1654060E+00
         21   -1    0    0  504  501  0.00000000000E+00  0.00000000000E+00  0.63133584445E+00  0.63133584445E+00  0.00000000000E+00 0. -1.
         21   -1    0    0  503  502 -0.00000000000E+00 -0.00000000000E+00 -0.18907360352E+04  0.18907360352E+04  0.00000000000E+00 0. -1.
         21    1    1    2  503  501 -0.22073377065E+02 -0.12748021140E+02 -0.30667556704E+03  0.30773308148E+03  0.00000000000E+00 0. -1.
         21    1    1    2  504  502  0.22073377065E+02  0.12748021140E+02 -0.15834291323E+04  0.15836342895E+04  0.00000000000E+00 0. -1.
<mgrwt>
<rscale>  2 0.25490116E+02</rscale>
<asrwt>0</asrwt>
<pdfrwt beam="1">  1       21 0.97128913E-04 0.25490116E+02</pdfrwt>
<pdfrwt beam="2">  1       21 0.29088150E+00 0.25490116E+02</pdfrwt>
<totfact> 0.56163218E+06</totfact>
</mgrwt>
</event>
<event>
 4    1  0.4505197E+006  0.2049111E+02  0.7546771E-02  0.1735735E+00
         21   -1    0    0  502  501  0.00000000000E+00  0.00000000000E+00  0.85272886264E+02  0.85272886264E+02  0.00000000000E+00 0.  1.
         21   -1    0    0  503  502 -0.00000000000E+00 -0.00000000000E+00 -0.28290569774E+02  0.28290569774E+02  0.00000000000E+00 0.  1.
         21    1    1    2  503  504 -0.26169333130E+01  0.20323313432E+02 -0.23113042034E+02  0.30888478772E+02  0.00000000000E+00 0.  1.
         21    1    1    2  504  501  0.26169333130E+01 -0.20323313432E+02  0.80095358523E+02  0.82674977265E+02  0.00000000000E+00 0.  1.
<mgrwt>
<rscale>  2 0.20491106E+02</rscale>
<asrwt>0</asrwt>
<pdfrwt beam="1">  1       21 0.13118905E-01 0.20491106E+02</pdfrwt>
<pdfrwt beam="2">  1       21 0.43523954E-02 0.20491106E+02</pdfrwt>
<totfact> 0.12894860E+07</totfact>
</mgrwt>
</event>
<event>
 4    1  0.4505197E+006  0.2420882E+02  0.7546771E-02  0.1672633E+00
         21   -1    0    0  504  501  0.00000000000E+00  0.00000000000E+00  0.19543871735E+02  0.19543871735E+02  0.00000000000E+00 0.  1.
         21   -1    0    0  501  502 -0.00000000000E+00 -0.00000000000E+00 -0.52171067788E+02  0.52171067788E+02  0.00000000000E+00 0.  1.
         21    1    1    2  503  502 -0.13048798161E+02  0.20391075721E+02 -0.39695662585E+02  0.46495297940E+02  0.00000000000E+00 0.  1.
         21    1    1    2  504  503  0.13048798161E+02 -0.20391075721E+02  0.70684665316E+01  0.25219641583E+02  0.00000000000E+00 0.  1.
<mgrwt>
<rscale>  2 0.24208823E+02</rscale>
<asrwt>0</asrwt>
<pdfrwt beam="1">  1       21 0.30067495E-02 0.24208823E+02</pdfrwt>
<pdfrwt beam="2">  1       21 0.80263182E-02 0.24208823E+02</pdfrwt>
<totfact> 0.53998683E+07</totfact>
</mgrwt>
</event>
<event>
 4    1  0.4505197E+006  0.2554869E+02  0.7546771E-02  0.1653244E+00
         21   -1    0    0  504  501  0.00000000000E+00  0.00000000000E+00  0.71168740483E+02  0.71168740483E+02  0.00000000000E+00 0. -1.
         21   -1    0    0  503  502 -0.00000000000E+00 -0.00000000000E+00 -0.85901204193E+03  0.85901204193E+03  0.00000000000E+00 0.  1.
         21    1    1    2  503  501  0.44666167418E+01 -0.25155215617E+02  0.68679195338E+02  0.73277332171E+02  0.00000000000E+00 0. -1.
         21    1    1    2  504  502 -0.44666167418E+01  0.25155215617E+02 -0.85652249679E+03  0.85690345024E+03  0.00000000000E+00 0.  1.
<mgrwt>
<rscale>  2 0.25548690E+02</rscale>
<asrwt>0</asrwt>
<pdfrwt beam="1">  1       21 0.10949037E-01 0.25548690E+02</pdfrwt>
<pdfrwt beam="2">  1       21 0.13215570E+00 0.25548690E+02</pdfrwt>
<totfact> 0.34188533E+04</totfact>
</mgrwt>
</event>
<event>
 4    1  0.4505197E+006  0.2900896E+02  0.7546771E-02  0.1609309E+00
         21   -1    0    0  503  501  0.00000000000E+00  0.00000000000E+00  0.45472935082E+02  0.45472935082E+02  0.00000000000E+00 0. -1.
         21   -1    0    0  504  502 -0.00000000000E+00 -0.00000000000E+00 -0.21360391236E+02  0.21360391236E+02  0.00000000000E+00 0. -1.
         21    1    1    2  503  502  0.23968667440E+02  0.16340826604E+02  0.24272001716E+02  0.37823930259E+02  0.00000000000E+00 0. -1.
         21    1    1    2  504  501 -0.23968667440E+02 -0.16340826604E+02 -0.15945787066E+00  0.29009396060E+02  0.00000000000E+00 0. -1.
<mgrwt>
<rscale>  2 0.29008958E+02</rscale>
<asrwt>0</asrwt>
<pdfrwt beam="1">  1       21 0.69958362E-02 0.29008958E+02</pdfrwt>
<pdfrwt beam="2">  1       21 0.32862140E-02 0.29008958E+02</pdfrwt>
<totfact> 0.61443874E+07</totfact>
</mgrwt>
</event>
<event>
 4    1  0.4505197E+006  0.2438356E+02  0.7546771E-02  0.1670017E+00
         21   -1    0    0  502  501  0.00000000000E+00  0.00000000000E+00  0.38196594353E+02  0.38196594353E+02  0.00000000000E+00 0. -1.
         21   -1    0    0  504  502 -0.00000000000E+00 -0.00000000000E+00 -0.10282462661E+03  0.10282462661E+03  0.00000000000E+00 0.  1.
         21    1    1    2  503  501  0.90027109983E+01  0.22660740225E+02  0.32640710254E+02  0.40742777504E+02  0.00000000000E+00 0. -1.
         21    1    1    2  504  503 -0.90027109983E+01 -0.22660740225E+02 -0.97268742515E+02  0.10027844346E+03  0.00000000000E+00 0.  1.
<mgrwt>
<rscale>  2 0.24383559E+02</rscale>
<asrwt>0</asrwt>
<pdfrwt beam="1">  1       21 0.58763992E-02 0.24383559E+02</pdfrwt>
<pdfrwt beam="2">  1       21 0.15819173E-01 0.24383559E+02</pdfrwt>
<totfact> 0.60192026E+06</totfact>
</mgrwt>
</event>
<event>
 4    1  0.4505197E+006  0.7667626E+02  0.7546771E-02  0.1338757E+00
         21   -1    0    0  504  501  0.00000000000E+00  0.00000000000E+00  0.66524592771E+01  0.66524592771E+01  0.00000000000E+00 0.  1.
         21   -1    0    0  503  502 -0.00000000000E+00 -0.00000000000E+00 -0.88515889116E+03  0.88515889116E+03  0.00000000000E+00 0.  1.
         21    1    1    2  503  501  0.12557350848E+02  0.75641005466E+02 -0.42159475392E+03  0.42851065950E+03  0.00000000000E+00 0.  1.
         21    1    1    2  504  502 -0.12557350848E+02 -0.75641005466E+02 -0.45691167797E+03  0.46330069094E+03  0.00000000000E+00 0.  1.
<mgrwt>
<rscale>  2 0.76676259E+02</rscale>
<asrwt>0</asrwt>
<pdfrwt beam="1">  1       21 0.10234551E-02 0.76676259E+02</pdfrwt>
<pdfrwt beam="2">  1       21 0.13617831E+00 0.76676259E+02</pdfrwt>
<totfact> 0.13965146E+06</totfact>
</mgrwt>
</event>
<event>
 4    1  0.4505197E+006  0.2628817E+02  0.7546771E-02  0.1643160E+00
         21   -1    0    0  504  501  0.00000000000E+00  0.00000000000E+00  0.34180752923E+03  0.34180752923E+03  0.00000000000E+00 0.  1.
         21   -1    0    0  503  502 -0.00000000000E+00 -0.00000000000E+00 -0.25423170419E+02  0.25423170419E+02  0.00000000000E+00 0. -1.
         21    1    1    2  503  501 -0.16066885108E+02 -0.20806808784E+02 -0.17970834337E+02  0.31843664607E+02  0.00000000000E+00 0. -1.
         21    1    1    2  504  502  0.16066885108E+02  0.20806808784E+02  0.33435519315E+03  0.33538703505E+03  0.00000000000E+00 0.  1.
<mgrwt>
<rscale>  2 0.26288174E+02</rscale>
<asrwt>0</asrwt>
<pdfrwt beam="1">  1       21 0.52585771E-01 0.26288174E+02</pdfrwt>
<pdfrwt beam="2">  1       21 0.39112572E-02 0.26288174E+02</pdfrwt>
<totfact> 0.12970372E+06</totfact>
</mgrwt>
</event>
<event>
 4    1  0.4505197E+006  0.2829814E+02  0.7546771E-02  0.1617700E+00
         21   -1    0    0  502  501  0.00000000000E+00  0.00000000000E+00  0.15082209072E+01  0.15082209072E+01  0.00000000000E+00 0.  1.
         21   -1    0    0  504  502 -0.00000000000E+00 -0.00000000000E+00 -0.12688319719E+04  0.12688319719E+04  0.00000000000E+00 0.  1.
         21    1    1    2  503  501  0.12234986876E+02 -0.25516462009E+02 -0.14928606994E+03  0.15194444845E+03  0.00000000000E+00 0.  1.
         21    1    1    2  504  503 -0.12234986876E+02  0.25516462009E+02 -0.11180376811E+04  0.11183957444E+04  0.00000000000E+00 0.  1.
<mgrwt>
<rscale>  2 0.28298140E+02</rscale>
<asrwt>0</asrwt>
<pdfrwt beam="1">  1       21 0.23203380E-03 0.28298140E+02</pdfrwt>
<pdfrwt beam="2">  1       21 0.19520508E+00 0.28298140E+02</pdfrwt>
<totfact> 0.50316084E+06</totfact>
</mgrwt>
</event>
<event>
 4    1  0.4505197E+006  0.2476223E+02  0.7546771E-02  0.1664441E+00
         21   -1    0    0  504  501  0.00000000000E+00  0.00000000000E+00  0.68024254016E+00  0.68024254016E+00  0.00000000000E+00 0.  1.
         21   -1    0    0  501  502 -0.00000000000E+00 -0.00000000000E+00 -0.16763726298E+04  0.16763726298E+04  0.00000000000E+00 0.  1.
         21    1    1    2  503  502  0.14582691180E+02 -0.20012830410E+02 -0.14079784777E+04  0.14081962086E+04  0.00000000000E+00 0.  1.
         21    1    1    2  504  503 -0.14582691180E+02  0.20012830410E+02 -0.26771390960E+03  0.26885666377E+03  0.00000000000E+00 0.  1.
<mgrwt>
<rscale>  2 0.24762235E+02</rscale>
<asrwt>0</asrwt>
<pdfrwt beam="1">  1       21 0.10465302E-03 0.24762235E+02</pdfrwt>
<pdfrwt beam="2">  1       21 0.25790269E+00 0.24762235E+02</pdfrwt>
<totfact> 0.73208057E+06</totfact>
</mgrwt>
</event>
<event>
 4    1  0.4505197E+006  0.2343318E+02  0.7546771E-02  0.1684583E+00
         21   -1    0    0  503  501  0.00000000000E+00  0.00000000000E+00  0.24137876394E+03  0.24137876394E+03  0.00000000000E+00 0.  1.
         21   -1    0    0  504  502 -0.00000000000E+00 -0.00000000000E+00 -0.13015822152E+03  0.13015822152E+03  0.00000000000E+00 0.  1.
         21    1    1    2  503  502 -0.44851417297E+00 -0.23428886734E+02 -0.12852763426E+03  0.13064634196E+03  0.00000000000E+00 0.  1.
         21    1    1    2  504  501  0.44851417297E+00  0.23428886734E+02  0.23974817668E+03  0.24089064349E+03  0.00000000000E+00 0.  1.
<mgrwt>
<rscale>  2 0.23433179E+02</rscale>
<asrwt>0</asrwt>
<pdfrwt beam="1">  1       21 0.37135194E-01 0.23433179E+02</pdfrwt>
<pdfrwt beam="2">  1       21 0.20024342E-01 0.23433179E+02</pdfrwt>
<totfact> 0.16896496E+05</totfact>
</mgrwt>
</event>
<event>
 4    1  0.4505197E+006  0.2051198E+02  0.7546771E-02  0.1735334E+00
         21   -1    0    0  503  501  0.00000000000E+00  0.00000000000E+00  0.31943690684E+02  0.31943690684E+02  0.00000000000E+00 0. -1.
         21   -1    0    0  504  502 -0.00000000000E+00 -0.00000000000E+00 -0.42781456425E+02  0.42781456425E+02  0.00000000000E+00 0. -1.
         21    1    1    2  503  502  0.56480636058E+01  0.19719039401E+02  0.25664557031E+02  0.32854385172E+02  0.00000000000E+00 0. -1.
         21    1    1    2  504  501 -0.56480636058E+01 -0.19719039401E+02 -0.36502322773E+02  0.41870761937E+02  0.00000000000E+00 0. -1.
<mgrwt>
<rscale>  2 0.20511975E+02</rscale>
<asrwt>0</asrwt>
<pdfrwt beam="1">  1       21 0.49144140E-02 0.20511975E+02</pdfrwt>
<pdfrwt beam="2">  1       21 0.65817625E-02 0.20511975E+02</pdfrwt>
<totfact> 0.32989212E+07</totfact>
</mgrwt>
</event>
<event>
 4    1  0.4505197E+006  0.2979021E+02  0.7546771E-02  0.1600419E+00
         21   -1    0    0  504  501  0.00000000000E+00  0.00000000000E+00  0.51647588004E+02  0.51647588004E+02  0.00000000000E+00 0.  1.
         21   -1    0    0  501  502 -0.00000000000E+00 -0.00000000000E+00 -0.29476582280E+02  0.29476582280E+02  0.00000000000E+00 0. -1.
         21    1    1    2  503  502  0.65654644995E+01  0.29057718603E+02 -0.15109735893E+02  0.33403000662E+02  0.00000000000E+00 0. -1.
         21    1    1    2  504  503 -0.65654644995E+01 -0.29057718603E+02  0.37280741617E+02  0.47721169621E+02  0.00000000000E+00 0.  1.
<mgrwt>
<rscale>  2 0.29790205E+02</rscale>
<asrwt>0</asrwt>
<pdfrwt beam="1">  1       21 0.79457828E-02 0.29790205E+02</pdfrwt>
<pdfrwt beam="2">  1       21 0.45348588E-02 0.29790205E+02</pdfrwt>
<totfact> 0.30071997E+07</totfact>
</mgrwt>
</event>
<event>
 4    1  0.4505197E+006  0.2791937E+02  0.7546771E-02  0.1622296E+00
         21   -1    0    0  503  501  0.00000000000E+00  0.00000000000E+00  0.50840761336E+02  0.50840761336E+02  0.00000000000E+00 0.  1.
         21   -1    0    0  504  502 -0.00000000000E+00 -0.00000000000E+00 -0.30535324341E+02  0.30535324341E+02  0.00000000000E+00 0. -1.
         21    1    1    2  503  502  0.26036082626E+02  0.10080348809E+02  0.38862816667E+02  0.47851954505E+02  0.00000000000E+00 0.  1.
         21    1    1    2  504  501 -0.26036082626E+02 -0.10080348809E+02 -0.18557379672E+02  0.33524131173E+02  0.00000000000E+00 0. -1.
<mgrwt>
<rscale>  2 0.27919367E+02</rscale>
<asrwt>0</asrwt>
<pdfrwt beam="1">  1       21 0.78216556E-02 0.27919367E+02</pdfrwt>
<pdfrwt beam="2">  1       21 0.46977422E-02 0.27919367E+02</pdfrwt>
<totfact> 0.28769819E+07</totfact>
</mgrwt>
</event>
<event>
 4    1  0.4505197E+006  0.2026081E+02  0.7546771E-02  0.1740191E+00
         21   -1    0    0  504  501  0.00000000000E+00  0.00000000000E+00  0.16863274795E+02  0.16863274795E+02  0.00000000000E+00 0.  1.
         21   -1    0    0  503  502 -0.00000000000E+00 -0.00000000000E+00 -0.61266846565E+02  0.61266846565E+02  0.00000000000E+00 0. -1.
         21    1    1    2  503  501  0.12787703818E+02  0.15715433999E+02  0.81252571425E+01  0.21829338935E+02  0.00000000000E+00 0.  1.
         21    1    1    2  504  502 -0.12787703818E+02 -0.15715433999E+02 -0.52528828913E+02  0.56300782425E+02  0.00000000000E+00 0. -1.
<mgrwt>
<rscale>  2 0.20260805E+02</rscale>
<asrwt>0</asrwt>
<pdfrwt beam="1">  1       21 0.25943499E-02 0.20260805E+02</pdfrwt>
<pdfrwt beam="2">  1       21 0.94256690E-02 0.20260805E+02</pdfrwt>
<totfact> 0.49786245E+07</totfact>
</mgrwt>
</event>
<event>
 4    1  0.4505197E+006  0.2126332E+02  0.7546771E-02  0.1721313E+00
         21   -1    0    0  503  501  0.00000000000E+00  0.00000000000E+00  0.43455695612E+02  0.43455695612E+02  0.00000000000E+00 0.  1.
         21   -1    0    0  504  502 -0.00000000000E+00 -0.00000000000E+00 -0.35638103345E+03  0.35638103345E+03  0.00000000000E+00 0.  1.
         21    1    1    2  503  502 -0.18502948372E+02 -0.10477102598E+02 -0.35344116036E+03  0.35408019235E+03  0.00000000000E+00 0.  1.
         21    1    1    2  504  501  0.18502948372E+02  0.10477102598E+02  0.40515822522E+02  0.45756536713E+02  0.00000000000E+00 0.  1.
<mgrwt>
<rscale>  2 0.21263320E+02</rscale>
<asrwt>0</asrwt>
<pdfrwt beam="1">  1       21 0.66854919E-02 0.21263320E+02</pdfrwt>
<pdfrwt beam="2">  1       21 0.54827849E-01 0.21263320E+02</pdfrwt>
<totfact> 0.49935382E+05</totfact>
</mgrwt>
</event>
<event>
 4    1  0.4505197E+006  0.2973153E+02  0.7546771E-02  0.1601075E+00
         21   -1    0    0  504  501  0.00000000000E+00  0.00000000000E+00  0.16647565035E+02  0.16647565035E+02  0.00000000000E+00 0.  1.
         21   -1    0    0  501  502 -0.00000000000E+00 -0.00000000000E+00 -0.53819515223E+02  0.53819515223E+02  0.00000000000E+00 0.  1.
         21    1    1    2  503  502  0.15232256529E+02  0.25533158704E+02 -0.14508394889E+02  0.33082583857E+02  0.00000000000E+00 0.  1.
         21    1    1    2  504  503 -0.15232256529E+02 -0.25533158704E+02 -0.22663555299E+02  0.37384496401E+02  0.00000000000E+00 0.  1.
<mgrwt>
<rscale>  2 0.29731529E+02</rscale>
<asrwt>0</asrwt>
<pdfrwt beam="1">  1       21 0.25611639E-02 0.29731529E+02</pdfrwt>
<pdfrwt beam="2">  1       21 0.82799254E-02 0.29731529E+02</pdfrwt>
<totfact> 0.69289358E+07</totfact>
</mgrwt>
</event>
<event>
 4    1  0.4505197E+006  0.2233845E+02  0.7546771E-02  0.1702464E+00
         21   -1    0    0  502  501  0.00000000000E+00  0.00000000000E+00  0.56746710059E+02  0.56746710059E+02  0.00000000000E+00 0.  1.
         21   -1    0    0  503  502 -0.00000000000E+00 -0.00000000000E+00 -0.48700821180E+02  0.48700821180E+02  0.00000000000E+00 0.  1.
         21    1    1    2  503  504 -0.21226615829E+02 -0.69596763159E+01 -0.43704059433E+02  0.49082085580E+02  0.00000000000E+00 0.  1.
         21    1    1    2  504  501  0.21226615829E+02  0.69596763159E+01  0.51749948312E+02  0.56365445658E+02  0.00000000000E+00 0.  1.
<mgrwt>
<rscale>  2 0.22338449E+02</rscale>
<asrwt>0</asrwt>
<pdfrwt beam="1">  1       21 0.87302631E-02 0.22338449E+02</pdfrwt>
<pdfrwt beam="2">  1       21 0.74924340E-02 0.22338449E+02</pdfrwt>
<totfact> 0.10817865E+07</totfact>
</mgrwt>
</event>
<event>
 4    1  0.4505197E+006  0.3030278E+02  0.7546771E-02  0.1594766E+00
         21   -1    0    0  504  501  0.00000000000E+00  0.00000000000E+00  0.92285733484E+02  0.92285733484E+02  0.00000000000E+00 0. -1.
         21   -1    0    0  503  502 -0.00000000000E+00 -0.00000000000E+00 -0.10081991403E+02  0.10081991403E+02  0.00000000000E+00 0. -1.
         21    1    1    2  503  501  0.19913906838E+02 -0.22840639488E+02  0.35249159431E+02  0.46483994432E+02  0.00000000000E+00 0. -1.
         21    1    1    2  504  502 -0.19913906838E+02  0.22840639488E+02  0.46954582649E+02  0.55883730455E+02  0.00000000000E+00 0. -1.
<mgrwt>
<rscale>  2 0.30302780E+02</rscale>
<asrwt>0</asrwt>
<pdfrwt beam="1">  1       21 0.14197805E-01 0.30302780E+02</pdfrwt>
<pdfrwt beam="2">  1       21 0.15510757E-02 0.30302780E+02</pdfrwt>
<totfact> 0.61107721E+07</totfact>
</mgrwt>
</event>
<event>
 4    1  0.4505197E+006  0.2350498E+02  0.7546771E-02  0.1683453E+00
         21   -1    0    0  502  501  0.00000000000E+00  0.00000000000E+00  0.28970703895E+03  0.28970703895E+03  0.00000000000E+00 0. -1.
         21   -1    0    0  504  502 -0.00000000000E+00 -0.00000000000E+00 -0.44322610047E+02  0.44322610047E+02  0.00000000000E+00 0.  1.
         21    1    1    2  503  501  0.13728774910E+02  0.19078910554E+02  0.28607450910E+03  0.28703851457E+03  0.00000000000E+00 0. -1.
         21    1    1    2  504  503 -0.13728774910E+02 -0.19078910554E+02 -0.40690080197E+02  0.46991134429E+02  0.00000000000E+00 0.  1.
<mgrwt>
<rscale>  2 0.23504980E+02</rscale>
<asrwt>0</asrwt>
<pdfrwt beam="1">  1       21 0.44570312E-01 0.23504980E+02</pdfrwt>
<pdfrwt beam="2">  1       21 0.68188633E-02 0.23504980E+02</pdfrwt>
<totfact> 0.72803402E+05</totfact>
</mgrwt>
</event>
<event>
 4    1  0.4505197E+006  0.2859349E+02  0.7546771E-02  0.1614177E+00
         21   -1    0    0  503  501  0.00000000000E+00  0.00000000000E+00  0.76168580162E+03  0.76168580162E+03  0.00000000000E+00 0. -1.
         21   -1    0    0  504  502 -0.00000000000E+00 -0.00000000000E+00 -0.12322865490E+02  0.12322865490E+02  0.00000000000E+00 0. -1.
         21    1    1    2  503  502  0.22817610570E+02  0.17232077802E+02  0.74444669052E+03  0.74499561266E+03  0.00000000000E+00 0. -1.
         21    1    1    2  504  501 -0.22817610570E+02 -0.17232077802E+02  0.49162456065E+01  0.29013054447E+02  0.00000000000E+00 0. -1.
<mgrwt>
<rscale>  2 0.28593493E+02</rscale>
<asrwt>0</asrwt>
<pdfrwt beam="1">  1       21 0.11718239E+00 0.28593493E+02</pdfrwt>
<pdfrwt beam="2">  1       21 0.18958261E-02 0.28593493E+02</pdfrwt>
<totfact> 0.74422800E+05</totfact>
</mgrwt>
</event>
<event>
 4    1  0.4505197E+006  0.2001518E+02  0.7546771E-02  0.1745026E+00
         21   -1    0    0  502  501  0.00000000000E+00  0.00000000000E+00  0.22558667054E+03  0.22558667054E+03  0.00000000000E+00 0. -1.
         21   -1    0    0  503  502 -0.00000000000E+00 -0.00000000000E+00 -0.55745238324E+01  0.55745238324E+01  0.00000000000E+00 0. -1.
         21    1    1    2  503  504  0.15962852848E+02  0.12074545143E+02  0.14595337499E+02  0.24771580252E+02  0.00000000000E+00 0. -1.
         21    1    1    2  504  501 -0.15962852848E+02 -0.12074545143E+02  0.20541680921E+03  0.20638961412E+03  0.00000000000E+00 0. -1.
<mgrwt>
<rscale>  2 0.20015177E+02</rscale>
<asrwt>0</asrwt>
<pdfrwt beam="1">  1       21 0.34705635E-01 0.20015177E+02</pdfrwt>
<pdfrwt beam="2">  1       21 0.85761923E-03 0.20015177E+02</pdfrwt>
<totfact> 0.27933983E+07</totfact>
</mgrwt>
</event>
<event>
 4    1  0.4505197E+006  0.4579910E+02  0.7546771E-02  0.1469414E+00
         21   -1    0    0  503  501  0.00000000000E+00  0.00000000000E+00  0.93644366076E+03  0.93644366076E+03  0.00000000000E+00 0.  1.
         21   -1    0    0  504  502 -0.00000000000E+00 -0.00000000000E+00 -0.35720686537E+01  0.35720686537E+01  0.00000000000E+00 0. -1.
         21    1    1    2  503  502 -0.45795928808E+02 -0.53866959865E+00  0.17940938919E+03  0.18516286396E+03  0.00000000000E+00 0. -1.
         21    1    1    2  504  501  0.45795928808E+02  0.53866959865E+00  0.75346220292E+03  0.75485286546E+03  0.00000000000E+00 0.  1.
<mgrwt>
<rscale>  2 0.45799097E+02</rscale>
<asrwt>0</asrwt>
<pdfrwt beam="1">  1       21 0.14406806E+00 0.45799097E+02</pdfrwt>
<pdfrwt beam="2">  1       21 0.54954977E-03 0.45799097E+02</pdfrwt>
<totfact> 0.31035537E+06</totfact>
</mgrwt>
</event>
<event>
 4    1  0.4505197E+006  0.2490558E+02  0.7546771E-02  0.1662362E+00
         21   -1    0    0  504  501  0.00000000000E+00  0.00000000000E+00  0.87682028689E+01  0.87682028689E+01  0.00000000000E+00 0.  1.
         21   -1    0    0  501  502 -0.00000000000E+00 -0.00000000000E+00 -0.11019736081E+03  0.11019736081E+03  0.00000000000E+00 0.  1.
         21    1    1    2  503  502  0.20769834999E+02  0.13744161568E+02 -0.86306692502E+02  0.89828354064E+02  0.00000000000E+00 0.  1.
         21    1    1    2  504  503 -0.20769834999E+02 -0.13744161568E+02 -0.15122465434E+02  0.29137209611E+02  0.00000000000E+00 0.  1.
<mgrwt>
<rscale>  2 0.24905582E+02</rscale>
<asrwt>0</asrwt>
<pdfrwt beam="1">  1       21 0.13489543E-02 0.24905582E+02</pdfrwt>
<pdfrwt beam="2">  1       21 0.16953440E-01 0.24905582E+02</pdfrwt>
<totfact> 0.53260771E+07</totfact>
</mgrwt>
</event>
<event>
 4    1  0.4505197E+006  0.2834099E+02  0.7546771E-02  0.1617186E+00
         21   -1    0    0  503  501  0.00000000000E+00  0.00000000000E+00  0.12726573012E+02  0.12726573012E+02  0.00000000000E+00 0. -1.
         21   -1    0    0  504  502 -0.00000000000E+00 -0.00000000000E+00 -0.70759784819E+02  0.70759784819E+02  0.00000000000E+00 0. -1.
         21    1    1    2  503  502  0.14436769020E+02 -0.24388349996E+02 -0.15294134224E+02  0.32204385679E+02  0.00000000000E+00 0. -1.
         21    1    1    2  504  501 -0.14436769020E+02  0.24388349996E+02 -0.42739077582E+02  0.51281972152E+02  0.00000000000E+00 0. -1.
<mgrwt>
<rscale>  2 0.28340994E+02</rscale>
<asrwt>0</asrwt>
<pdfrwt beam="1">  1       21 0.19579343E-02 0.28340994E+02</pdfrwt>
<pdfrwt beam="2">  1       21 0.10886121E-01 0.28340994E+02</pdfrwt>
<totfact> 0.65930262E+07</totfact>
</mgrwt>
</event>
<event>
 4    1  0.4505197E+006  0.2303073E+02  0.7546771E-02  0.1691013E+00
         21   -1    0    0  503  501  0.00000000000E+00  0.00000000000E+00  0.66312960693E+01  0.66312960693E+01  0.00000000000E+00 0. -1.
         21   -1    0    0  504  502 -0.00000000000E+00 -0.00000000000E+00 -0.15666635093E+03  0.15666635093E+03  0.00000000000E+00 0. -1.
         21    1    1    2  503  502 -0.19488694207E+02  0.12272131692E+02 -0.17895634838E+02  0.29166216149E+02  0.00000000000E+00 0. -1.
         21    1    1    2  504  501  0.19488694207E+02 -0.12272131692E+02 -0.13213942002E+03  0.13413143085E+03  0.00000000000E+00 0. -1.
<mgrwt>
<rscale>  2 0.23030728E+02</rscale>
<asrwt>0</asrwt>
<pdfrwt beam="1">  1       21 0.10201994E-02 0.23030728E+02</pdfrwt>
<pdfrwt beam="2">  1       21 0.24102516E-01 0.23030728E+02</pdfrwt>
<totfact> 0.43052640E+07</totfact>
</mgrwt>
</event>
<event>
 4    1  0.4505197E+006  0.2224380E+02  0.7546771E-02  0.1704069E+00
         21   -1    0    0  503  501  0.00000000000E+00  0.00000000000E+00  0.23490157538E+01  0.23490157538E+01  0.00000000000E+00 0. -1.
         21   -1    0    0  501  502 -0.00000000000E+00 -0.00000000000E+00 -0.39667955976E+03  0.39667955976E+03  0.00000000000E+00 0. -1.
         21    1    1    2  503  504 -0.18810329086E+02 -0.11872571751E+02 -0.60530313392E+02  0.64488024312E+02  0.00000000000E+00 0. -1.
         21    1    1    2  504  502  0.18810329086E+02  0.11872571751E+02 -0.33380023062E+03  0.33454055120E+03  0.00000000000E+00 0. -1.
<mgrwt>
<rscale>  2 0.22243796E+02</rscale>
<asrwt>0</asrwt>
<pdfrwt beam="1">  1       21 0.36138714E-03 0.22243796E+02</pdfrwt>
<pdfrwt beam="2">  1       21 0.61027607E-01 0.22243796E+02</pdfrwt>
<totfact> 0.34716423E+07</totfact>
</mgrwt>
</event>
<event>
 4    1  0.4505197E+006  0.2707718E+02  0.7546771E-02  0.1632842E+00
         21   -1    0    0  504  501  0.00000000000E+00  0.00000000000E+00  0.85420459912E+03  0.85420459912E+03  0.00000000000E+00 0. -1.
         21   -1    0    0  501  502 -0.00000000000E+00 -0.00000000000E+00 -0.16550231411E+01  0.16550231411E+01  0.00000000000E+00 0.  1.
         21    1    1    2  503  502  0.18376207700E+02  0.19886897190E+02  0.12936735544E+03  0.13217067126E+03  0.00000000000E+00 0.  1.
         21    1    1    2  504  503 -0.18376207700E+02 -0.19886897190E+02  0.72318222054E+03  0.72368895100E+03  0.00000000000E+00 0. -1.
<mgrwt>
<rscale>  2 0.27077180E+02</rscale>
<asrwt>0</asrwt>
<pdfrwt beam="1">  1       21 0.13141574E+00 0.27077180E+02</pdfrwt>
<pdfrwt beam="2">  1       21 0.25461963E-03 0.27077180E+02</pdfrwt>
<totfact> 0.11509856E+07</totfact>
</mgrwt>
</event>
<event>
 4    1  0.4505197E+006  0.2255699E+02  0.7546771E-02  0.1698793E+00
         21   -1    0    0  503  501  0.00000000000E+00  0.00000000000E+00  0.21019011914E+03  0.21019011914E+03  0.00000000000E+00 0.  1.
         21   -1    0    0  501  502 -0.00000000000E+00 -0.00000000000E+00 -0.35989857809E+02  0.35989857809E+02  0.00000000000E+00 0.  1.
         21    1    1    2  503  504 -0.14390941409E+02  0.17370050648E+02  0.20597842392E+03  0.20720986698E+03  0.00000000000E+00 0.  1.
         21    1    1    2  504  502  0.14390941409E+02 -0.17370050648E+02 -0.31778162583E+02  0.38970109973E+02  0.00000000000E+00 0.  1.
<mgrwt>
<rscale>  2 0.22556991E+02</rscale>
<asrwt>0</asrwt>
<pdfrwt beam="1">  1       21 0.32336941E-01 0.22556991E+02</pdfrwt>
<pdfrwt beam="2">  1       21 0.55369014E-02 0.22556991E+02</pdfrwt>
<totfact> 0.18478943E+06</totfact>
</mgrwt>
</event>
<event>
 4    1  0.4505197E+006  0.2647255E+02  0.7546771E-02  0.1640710E+00
         21   -1    0    0  503  501  0.00000000000E+00  0.00000000000E+00  0.57027808504E+02  0.57027808504E+02  0.00000000000E+00 0.  1.
         21   -1    0    0  504  502 -0.00000000000E+00 -0.00000000000E+00 -0.14839258533E+02  0.14839258533E+02  0.00000000000E+00 0.  1.
         21    1    1    2  503  502  0.21093315912E+02  0.15995867935E+02  0.61967454933E+01  0.27188148555E+02  0.00000000000E+00 0.  1.
         21    1    1    2  504  501 -0.21093315912E+02 -0.15995867935E+02  0.35991804478E+02  0.44678918482E+02  0.00000000000E+00 0.  1.
<mgrwt>
<rscale>  2 0.26472547E+02</rscale>
<asrwt>0</asrwt>
<pdfrwt beam="1">  1       21 0.87735089E-02 0.26472547E+02</pdfrwt>
<pdfrwt beam="2">  1       21 0.22829629E-02 0.26472547E+02</pdfrwt>
<totfact> 0.73194526E+07</totfact>
</mgrwt>
</event>
<event>
 4    1  0.4505197E+006  0.2108449E+02  0.7546771E-02  0.1724584E+00
         21   -1    0    0  502  501  0.00000000000E+00  0.00000000000E+00  0.13619541149E+02  0.13619541149E+02  0.00000000000E+00 0. -1.
         21   -1    0    0  503  502 -0.00000000000E+00 -0.00000000000E+00 -0.32671285911E+02  0.32671285911E+02  0.00000000000E+00 0. -1.
         21    1    1    2  503  504  0.20199073697E+02 -0.60459283759E+01 -0.10230239563E+02  0.23435307330E+02  0.00000000000E+00 0. -1.
         21    1    1    2  504  501 -0.20199073697E+02  0.60459283759E+01 -0.88215051991E+01  0.22855519730E+02  0.00000000000E+00 0. -1.
<mgrwt>
<rscale>  2 0.21084493E+02</rscale>
<asrwt>0</asrwt>
<pdfrwt beam="1">  1       21 0.20953140E-02 0.21084493E+02</pdfrwt>
<pdfrwt beam="2">  1       21 0.50263516E-02 0.21084493E+02</pdfrwt>
<totfact> 0.19264309E+08</totfact>
</mgrwt>
</event>
<event>
 4    1  0.4505197E+006  0.2242080E+02  0.7546771E-02  0.1701074E+00
         21   -1    0    0  502  501  0.00000000000E+00  0.00000000000E+00  0.16588637180E+02  0.16588637180E+02  0.00000000000E+00 0. -1.
         21   -1    0    0  503  502 -0.00000000000E+00 -0.00000000000E+00 -0.30790940035E+02  0.30790940035E+02  0.00000000000E+00 0. -1.
         21    1    1    2  503  504 -0.12840280578E+02  0.18379871322E+02 -0.10082034867E+02  0.24583325694E+02  0.00000000000E+00 0. -1.
         21    1    1    2  504  501  0.12840280578E+02 -0.18379871322E+02 -0.41202679873E+01  0.22796251521E+02  0.00000000000E+00 0. -1.
<mgrwt>
<rscale>  2 0.22420805E+02</rscale>
<asrwt>0</asrwt>
<pdfrwt beam="1">  1       21 0.25520980E-02 0.22420805E+02</pdfrwt>
<pdfrwt beam="2">  1       21 0.47370677E-02 0.22420805E+02</pdfrwt>
<totfact> 0.15928011E+08</totfact>
</mgrwt>
</event>
<event>
 4    1  0.4505197E+006  0.2063437E+02  0.7546771E-02  0.1732999E+00
         21   -1    0    0  504  501  0.00000000000E+00  0.00000000000E+00  0.49391120518E+03  0.49391120518E+03  0.00000000000E+00 0.  1.
         21   -1    0    0  503  502 -0.00000000000E+00 -0.00000000000E+00 -0.13909643231E+02  0.13909643231E+02  0.00000000000E+00 0. -1.
         21    1    1    2  503  501  0.20267513666E+02  0.38736641341E+01 -0.59157356952E+01  0.21465630968E+02  0.00000000000E+00 0. -1.
         21    1    1    2  504  502 -0.20267513666E+02 -0.38736641341E+01  0.48591729765E+03  0.48635521744E+03  0.00000000000E+00 0.  1.
<mgrwt>
<rscale>  2 0.20634374E+02</rscale>
<asrwt>0</asrwt>
<pdfrwt beam="1">  1       21 0.75986326E-01 0.20634374E+02</pdfrwt>
<pdfrwt beam="2">  1       21 0.21399455E-02 0.20634374E+02</pdfrwt>
<totfact> 0.15390604E+06</totfact>
</mgrwt>
</event>
<event>
 4    1  0.4505197E+006  0.2091756E+02  0.7546771E-02  0.1727674E+00
         21   -1    0    0  502  501  0.00000000000E+00  0.00000000000E+00  0.76299556001E+03  0.76299556001E+03  0.00000000000E+00 0. -1.
         21   -1    0    0  503  502 -0.00000000000E+00 -0.00000000000E+00 -0.80619337493E+00  0.80619337493E+00  0.00000000000E+00 0.  1.
         21    1    1    2  503  504 -0.34278487019E+01 -0.20634775966E+02  0.17590079477E+03  0.17714015278E+03  0.00000000000E+00 0.  1.
         21    1    1    2  504  501  0.34278487019E+01  0.20634775966E+02  0.58628857186E+03  0.58666160060E+03  0.00000000000E+00 0. -1.
<mgrwt>
<rscale>  2 0.20917555E+02</rscale>
<asrwt>0</asrwt>
<pdfrwt beam="1">  1       21 0.11738335E+00 0.20917555E+02</pdfrwt>
<pdfrwt beam="2">  1       21 0.12403036E-03 0.20917555E+02</pdfrwt>
<totfact> 0.40140991E+07</totfact>
</mgrwt>
</event>
<event>
 4    1  0.4505197E+006  0.2486033E+02  0.7546771E-02  0.1663016E+00
         21   -1    0    0  504  501  0.00000000000E+00  0.00000000000E+00  0.57189795308E+02  0.57189795308E+02  0.00000000000E+00 0. -1.
         21   -1    0    0  503  502 -0.00000000000E+00 -0.00000000000E+00 -0.10808258235E+02  0.10808258235E+02  0.00000000000E+00 0. -1.
         21    1    1    2  503  501  0.73737786588E+01  0.23741594015E+02  0.23592214948E+02  0.34272853751E+02  0.00000000000E+00 0. -1.
         21    1    1    2  504  502 -0.73737786588E+01 -0.23741594015E+02  0.22789322125E+02  0.33725199791E+02  0.00000000000E+00 0. -1.
<mgrwt>
<rscale>  2 0.24860328E+02</rscale>
<asrwt>0</asrwt>
<pdfrwt beam="1">  1       21 0.87984298E-02 0.24860328E+02</pdfrwt>
<pdfrwt beam="2">  1       21 0.16628090E-02 0.24860328E+02</pdfrwt>
<totfact> 0.11674530E+08</totfact>
</mgrwt>
</event>
<event>
 4    1  0.4505197E+006  0.2543848E+02  0.7546771E-02  0.1654783E+00
         21   -1    0    0  503  501  0.00000000000E+00  0.00000000000E+00  0.30965117297E+02  0.30965117297E+02  0.00000000000E+00 0.  1.
         21   -1    0    0  504  502 -0.00000000000E+00 -0.00000000000E+00 -0.45079957563E+02  0.45079957563E+02  0.00000000000E+00 0.  1.
         21    1    1    2  503  502  0.22851598303E+02 -0.11176792339E+02 -0.34905354266E+02  0.43191434202E+02  0.00000000000E+00 0.  1.
         21    1    1    2  504  501 -0.22851598303E+02  0.11176792339E+02  0.20790514000E+02  0.32853640657E+02  0.00000000000E+00 0.  1.
<mgrwt>
<rscale>  2 0.25438479E+02</rscale>
<asrwt>0</asrwt>
<pdfrwt beam="1">  1       21 0.47638642E-02 0.25438479E+02</pdfrwt>
<pdfrwt beam="2">  1       21 0.69353781E-02 0.25438479E+02</pdfrwt>
<totfact> 0.33552385E+07</totfact>
</mgrwt>
</event>
<event>
 4    1  0.4505197E+006  0.3290265E+02  0.7546771E-02  0.1568055E+00
         21   -1    0    0  502  501  0.00000000000E+00  0.00000000000E+00  0.83606515257E+01  0.83606515257E+01  0.00000000000E+00 0. -1.
         21   -1    0    0  503  502 -0.00000000000E+00 -0.00000000000E+00 -0.18087591664E+03  0.18087591664E+03  0.00000000000E+00 0.  1.
         21    1    1    2  503  504  0.11236457251E+02 -0.30924523417E+02 -0.13669184818E+03  0.14059603650E+03  0.00000000000E+00 0.  1.
         21    1    1    2  504  501 -0.11236457251E+02  0.30924523417E+02 -0.35823416936E+02  0.48640531669E+02  0.00000000000E+00 0. -1.
<mgrwt>
<rscale>  2 0.32902646E+02</rscale>
<asrwt>0</asrwt>
<pdfrwt beam="1">  1       21 0.12862541E-02 0.32902646E+02</pdfrwt>
<pdfrwt beam="2">  1       21 0.27827064E-01 0.32902646E+02</pdfrwt>
<totfact> 0.25186520E+07</totfact>
</mgrwt>
</event>
<event>
 4    1  0.4505197E+006  0.2458184E+02  0.7546771E-02  0.1667082E+00
         21   -1    0    0  502  501  0.00000000000E+00  0.00000000000E+00  0.15287792391E+02  0.15287792391E+02  0.00000000000E+00 0.  1.
         21   -1    0    0  503  502 -0.00000000000E+00 -0.00000000000E+00 -0.86926357406E+02  0.86926357406E+02  0.00000000000E+00 0.  1.
         21    1    1    2  503  504  0.52413924346E+01 -0.24016554398E+02 -0.73558731390E+02  0.77557424168E+02  0.00000000000E+00 0.  1.
         21    1    1    2  504  501 -0.52413924346E+01  0.24016554398E+02  0.19201663751E+01  0.24656725629E+02  0.00000000000E+00 0.  1.
<mgrwt>
<rscale>  2 0.24581845E+02</rscale>
<asrwt>0</asrwt>
<pdfrwt beam="1">  1       21 0.23519681E-02 0.24581845E+02</pdfrwt>
<pdfrwt beam="2">  1       21 0.13373286E-01 0.24581845E+02</pdfrwt>
<totfact> 0.33967709E+07</totfact>
</mgrwt>
</event>
<event>
 4    1  0.4505197E+006  0.2039179E+02  0.7546771E-02  0.1737647E+00
         21   -1    0    0  503  501  0.00000000000E+00  0.00000000000E+00  0.13611182433E+01  0.13611182433E+01  0.00000000000E+00 0. -1.
         21   -1    0    0  504  502 -0.00000000000E+00 -0.00000000000E+00 -0.14364962949E+04  0.14364962949E+04  0.00000000000E+00 0. -1.
         21    1    1    2  503  502 -0.11374567573E+02  0.16924668317E+02 -0.79651347934E+02  0.82220206840E+02  0.00000000000E+00 0. -1.
         21    1    1    2  504  501  0.11374567573E+02 -0.16924668317E+02 -0.13554838287E+04  0.13556372063E+04  0.00000000000E+00 0. -1.
<mgrwt>
<rscale>  2 0.20391792E+02</rscale>
<asrwt>0</asrwt>
<pdfrwt beam="1">  1       21 0.20940195E-03 0.20391792E+02</pdfrwt>
<pdfrwt beam="2">  1       21 0.22100034E+00 0.20391792E+02</pdfrwt>
<totfact> 0.41043503E+06</totfact>
</mgrwt>
</event>
<event>
 4    1  0.4505197E+006  0.2012976E+02  0.7546771E-02  0.1742760E+00
         21   -1    0    0  503  501  0.00000000000E+00  0.00000000000E+00  0.16950609691E+01  0.16950609691E+01  0.00000000000E+00 0. -1.
         21   -1    0    0  504  502 -0.00000000000E+00 -0.00000000000E+00 -0.46978250985E+03  0.46978250985E+03  0.00000000000E+00 0.  1.
         21    1    1    2  503  502  0.97575654315E+01 -0.17606735126E+02 -0.68834072734E+02  0.71717060551E+02  0.00000000000E+00 0. -1.
         21    1    1    2  504  501 -0.97575654315E+01  0.17606735126E+02 -0.39925337614E+03  0.39976051026E+03  0.00000000000E+00 0.  1.
<mgrwt>
<rscale>  2 0.20129759E+02</rscale>
<asrwt>0</asrwt>
<pdfrwt beam="1">  1       21 0.26077859E-03 0.20129759E+02</pdfrwt>
<pdfrwt beam="2">  1       21 0.72274238E-01 0.20129759E+02</pdfrwt>
<totfact> 0.38717065E+07</totfact>
</mgrwt>
</event>
<event>
 4    1  0.4505197E+006  0.4094900E+02  0.7546771E-02  0.1501342E+00
         21   -1    0    0  504  501  0.00000000000E+00  0.00000000000E+00  0.15239876651E+02  0.15239876651E+02  0.00000000000E+00 0.  1.
         21   -1    0    0  503  502 -0.00000000000E+00 -0.00000000000E+00 -0.38504162958E+03  0.38504162958E+03  0.00000000000E+00 0. -1.
         21    1    1    2  503  501  0.10353669030E+02  0.39618459735E+02 -0.35404557801E+03  0.35640579698E+03  0.00000000000E+00 0. -1.
         21    1    1    2  504  502 -0.10353669030E+02 -0.39618459735E+02 -0.15756174923E+02  0.43875709252E+02  0.00000000000E+00 0.  1.
<mgrwt>
<rscale>  2 0.40949003E+02</rscale>
<asrwt>0</asrwt>
<pdfrwt beam="1">  1       21 0.23445964E-02 0.40949003E+02</pdfrwt>
<pdfrwt beam="2">  1       21 0.59237175E-01 0.40949003E+02</pdfrwt>
<totfact> 0.23770382E+06</totfact>
</mgrwt>
</event>
<event>
 4    1  0.4505197E+006  0.3402504E+02  0.7546771E-02  0.1557433E+00
         21   -1    0    0  504  501  0.00000000000E+00  0.00000000000E+00  0.10432263790E+03  0.10432263790E+03  0.00000000000E+00 0.  1.
         21   -1    0    0  503  502 -0.00000000000E+00 -0.00000000000E+00 -0.13527595521E+02  0.13527595521E+02  0.00000000000E+00 0. -1.
         21    1    1    2  503  501  0.33263288722E+02 -0.71594110657E+01  0.70373143641E+02  0.78167019192E+02  0.00000000000E+00 0.  1.
         21    1    1    2  504  502 -0.33263288722E+02  0.71594110657E+01  0.20421898735E+02  0.39683214226E+02  0.00000000000E+00 0. -1.
<mgrwt>
<rscale>  2 0.34025043E+02</rscale>
<asrwt>0</asrwt>
<pdfrwt beam="1">  1       21 0.16049636E-01 0.34025043E+02</pdfrwt>
<pdfrwt beam="2">  1       21 0.20811686E-02 0.34025043E+02</pdfrwt>
<totfact> 0.32138531E+07</totfact>
</mgrwt>
</event>
<event>
 4    1  0.4505197E+006  0.2439084E+02  0.7546771E-02  0.1669909E+00
         21   -1    0    0  504  501  0.00000000000E+00  0.00000000000E+00  0.13372557270E+02  0.13372557270E+02  0.00000000000E+00 0.  1.
         21   -1    0    0  503  502 -0.00000000000E+00 -0.00000000000E+00 -0.59538797549E+02  0.59538797549E+02  0.00000000000E+00 0.  1.
         21    1    1    2  503  501 -0.21950592781E+02  0.10634118094E+02 -0.47536184779E+01  0.24849746069E+02  0.00000000000E+00 0.  1.
         21    1    1    2  504  502  0.21950592781E+02 -0.10634118094E+02 -0.41412621802E+02  0.48061608749E+02  0.00000000000E+00 0.  1.
<mgrwt>
<rscale>  2 0.24390838E+02</rscale>
<asrwt>0</asrwt>
<pdfrwt beam="1">  1       21 0.20573165E-02 0.24390838E+02</pdfrwt>
<pdfrwt beam="2">  1       21 0.91598152E-02 0.24390838E+02</pdfrwt>
<totfact> 0.78416101E+07</totfact>
</mgrwt>
</event>
<event>
 4    1  0.4505197E+006  0.3183161E+02  0.7546771E-02  0.1578682E+00
         21   -1    0    0  502  501  0.00000000000E+00  0.00000000000E+00  0.52915948912E+02  0.52915948912E+02  0.00000000000E+00 0. -1.
         21   -1    0    0  503  502 -0.00000000000E+00 -0.00000000000E+00 -0.92697743285E+02  0.92697743285E+02  0.00000000000E+00 0. -1.
         21    1    1    2  503  504 -0.42099553034E+01 -0.31551983862E+02 -0.84743480432E+02  0.90524631372E+02  0.00000000000E+00 0. -1.
         21    1    1    2  504  501  0.42099553034E+01  0.31551983862E+02  0.44961686059E+02  0.55089060825E+02  0.00000000000E+00 0. -1.
<mgrwt>
<rscale>  2 0.31831610E+02</rscale>
<asrwt>0</asrwt>
<pdfrwt beam="1">  1       21 0.81409153E-02 0.31831610E+02</pdfrwt>
<pdfrwt beam="2">  1       21 0.14261191E-01 0.31831610E+02</pdfrwt>
<totfact> 0.43909386E+06</totfact>
</mgrwt>
</event>
<event>
 4    1  0.4505197E+006  0.5996743E+02  0.7546771E-02  0.1397968E+00
         21   -1    0    0  503  501  0.00000000000E+00  0.00000000000E+00  0.48461462569E+03  0.48461462569E+03  0.00000000000E+00 0. -1.
         21   -1    0    0  504  502 -0.00000000000E+00 -0.00000000000E+00 -0.10370996643E+02  0.10370996643E+02  0.00000000000E+00 0. -1.
         21    1    1    2  503  502  0.57583588162E+02 -0.16739869661E+02  0.10511438310E+03  0.12101705002E+03  0.00000000000E+00 0. -1.
         21    1    1    2  504  501 -0.57583588162E+02  0.16739869661E+02  0.36912924595E+03  0.37396857231E+03  0.00000000000E+00 0. -1.
<mgrwt>
<rscale>  2 0.59967432E+02</rscale>
<asrwt>0</asrwt>
<pdfrwt beam="1">  1       21 0.74556079E-01 0.59967432E+02</pdfrwt>
<pdfrwt beam="2">  1       21 0.15955383E-02 0.59967432E+02</pdfrwt>
<totfact> 0.27574236E+06</totfact>
</mgrwt>
</event>
<event>
 4    1  0.4505197E+006  0.3381460E+02  0.7546771E-02  0.1559386E+00
         21   -1    0    0  504  501  0.00000000000E+00  0.00000000000E+00  0.11175645738E+02  0.11175645738E+02  0.00000000000E+00 0. -1.
         21   -1    0    0  503  502 -0.00000000000E+00 -0.00000000000E+00 -0.82938315721E+03  0.82938315721E+03  0.00000000000E+00 0.  1.
         21    1    1    2  503  501  0.29497774516E+02 -0.16532050112E+02 -0.15600529778E+02  0.37239816214E+02  0.00000000000E+00 0. -1.
         21    1    1    2  504  502 -0.29497774516E+02  0.16532050112E+02 -0.80260698169E+03  0.80331898673E+03  0.00000000000E+00 0.  1.
<mgrwt>
<rscale>  2 0.33814603E+02</rscale>
<asrwt>0</asrwt>
<pdfrwt beam="1">  1       21 0.17193308E-02 0.33814603E+02</pdfrwt>
<pdfrwt beam="2">  1       21 0.12759736E+00 0.33814603E+02</pdfrwt>
<totfact> 0.71611013E+05</totfact>
</mgrwt>
</event>
<event>
 4    1  0.4505197E+006  0.2743884E+02  0.7546771E-02  0.1628256E+00
         21   -1    0    0  504  501  0.00000000000E+00  0.00000000000E+00  0.90918542651E+02  0.90918542651E+02  0.00000000000E+00 0.  1.
         21   -1    0    0  503  502 -0.00000000000E+00 -0.00000000000E+00 -0.15759839042E+02  0.15759839042E+02  0.00000000000E+00 0. -1.
         21    1    1    2  503  501 -0.86901924250E+01  0.26026341938E+02  0.83507417769E+00  0.27451543999E+02  0.00000000000E+00 0. -1.
         21    1    1    2  504  502  0.86901924250E+01 -0.26026341938E+02  0.74323629432E+02  0.79226837694E+02  0.00000000000E+00 0.  1.
<mgrwt>
<rscale>  2 0.27438840E+02</rscale>
<asrwt>0</asrwt>
<pdfrwt beam="1">  1       21 0.13987468E-01 0.27438840E+02</pdfrwt>
<pdfrwt beam="2">  1       21 0.24245907E-02 0.27438840E+02</pdfrwt>
<totfact> 0.30752306E+07</totfact>
</mgrwt>
</event>
<event>
 4    1  0.4505197E+006  0.2877000E+02  0.7546771E-02  0.1612097E+00
         21   -1    0    0  502  501  0.00000000000E+00  0.00000000000E+00  0.46383783297E+00  0.46383783297E+00  0.00000000000E+00 0. -1.
         21   -1    0    0  504  502 -0.00000000000E+00 -0.00000000000E+00 -0.18270319812E+04  0.18270319812E+04  0.00000000000E+00 0. -1.
         21    1    1    2  503  501  0.11643849530E+02  0.26308428686E+02 -0.10527206551E+04  0.10531137120E+04  0.00000000000E+00 0. -1.
         21    1    1    2  504  503 -0.11643849530E+02 -0.26308428686E+02 -0.77384748822E+03  0.77438210702E+03  0.00000000000E+00 0. -1.
<mgrwt>
<rscale>  2 0.28769996E+02</rscale>
<asrwt>0</asrwt>
<pdfrwt beam="1">  1       21 0.71359382E-04 0.28769996E+02</pdfrwt>
<pdfrwt beam="2">  1       21 0.28108296E+00 0.28769996E+02</pdfrwt>
<totfact> 0.97671909E+06</totfact>
</mgrwt>
</event>
<event>
 4    1  0.4505197E+006  0.2131388E+02  0.7546771E-02  0.1720395E+00
         21   -1    0    0  503  501  0.00000000000E+00  0.00000000000E+00  0.97603348553E+03  0.97603348553E+03  0.00000000000E+00 0. -1.
         21   -1    0    0  504  502 -0.00000000000E+00 -0.00000000000E+00 -0.20861286981E+01  0.20861286981E+01  0.00000000000E+00 0. -1.
         21    1    1    2  503  502 -0.19244092591E+02  0.91622343975E+01  0.91803761447E+03  0.91828500108E+03  0.00000000000E+00 0. -1.
         21    1    1    2  504  501  0.19244092591E+02 -0.91622343975E+01  0.55909742361E+02  0.59834613141E+02  0.00000000000E+00 0. -1.
<mgrwt>
<rscale>  2 0.21313884E+02</rscale>
<asrwt>0</asrwt>
<pdfrwt beam="1">  1       21 0.15015863E+00 0.21313884E+02</pdfrwt>
<pdfrwt beam="2">  1       21 0.32094366E-03 0.21313884E+02</pdfrwt>
<totfact> 0.58137082E+06</totfact>
</mgrwt>
</event>
<event>
 4    1  0.4505197E+006  0.2765957E+02  0.7546771E-02  0.1625500E+00
         21   -1    0    0  503  501  0.00000000000E+00  0.00000000000E+00  0.10057537505E+03  0.10057537505E+03  0.00000000000E+00 0.  1.
         21   -1    0    0  504  502 -0.00000000000E+00 -0.00000000000E+00 -0.13570353613E+02  0.13570353613E+02  0.00000000000E+00 0. -1.
         21    1    1    2  503  502 -0.26925111279E+02  0.63316888391E+01  0.56679748133E+01  0.28234337949E+02  0.00000000000E+00 0. -1.
         21    1    1    2  504  501  0.26925111279E+02 -0.63316888391E+01  0.81337046620E+02  0.85911390711E+02  0.00000000000E+00 0.  1.
<mgrwt>
<rscale>  2 0.27659572E+02</rscale>
<asrwt>0</asrwt>
<pdfrwt beam="1">  1       21 0.15473134E-01 0.27659572E+02</pdfrwt>
<pdfrwt beam="2">  1       21 0.20877468E-02 0.27659572E+02</pdfrwt>
<totfact> 0.32680296E+07</totfact>
</mgrwt>
</event>
<event>
 4    1  0.4505197E+006  0.2997013E+02  0.7546771E-02  0.1598419E+00
         21   -1    0    0  502  501  0.00000000000E+00  0.00000000000E+00  0.23003396954E+02  0.23003396954E+02  0.00000000000E+00 0. -1.
         21   -1    0    0  504  502 -0.00000000000E+00 -0.00000000000E+00 -0.52502971847E+02  0.52502971847E+02  0.00000000000E+00 0.  1.
         21    1    1    2  503  501  0.26580881758E+02 -0.13844333657E+02  0.43629345212E+01  0.30286037164E+02  0.00000000000E+00 0. -1.
         21    1    1    2  504  503 -0.26580881758E+02  0.13844333657E+02 -0.33862509414E+02  0.45220331636E+02  0.00000000000E+00 0.  1.
<mgrwt>
<rscale>  2 0.29970133E+02</rscale>
<asrwt>0</asrwt>
<pdfrwt beam="1">  1       21 0.35389841E-02 0.29970133E+02</pdfrwt>
<pdfrwt beam="2">  1       21 0.80773803E-02 0.29970133E+02</pdfrwt>
<totfact> 0.43483448E+07</totfact>
</mgrwt>
</event>
<event>
 4    1  0.4505197E+006  0.2358119E+02  0.7546771E-02  0.1682259E+00
         21   -1    0    0  504  501  0.00000000000E+00  0.00000000000E+00  0.27445534587E+03  0.27445534587E+03  0.00000000000E+00 0.  1.
         21   -1    0    0  501  502 -0.00000000000E+00 -0.00000000000E+00 -0.79336346711E+01  0.79336346711E+01  0.00000000000E+00 0. -1.
         21    1    1    2  503  502 -0.23518189296E+02  0.17225353988E+01  0.11422225481E+02  0.26201900520E+02  0.00000000000E+00 0. -1.
         21    1    1    2  504  503  0.23518189296E+02 -0.17225353988E+01  0.25509948572E+03  0.25618708002E+03  0.00000000000E+00 0.  1.
<mgrwt>
<rscale>  2 0.23581186E+02</rscale>
<asrwt>0</asrwt>
<pdfrwt beam="1">  1       21 0.42223892E-01 0.23581186E+02</pdfrwt>
<pdfrwt beam="2">  1       21 0.12205594E-02 0.23581186E+02</pdfrwt>
<totfact> 0.11806430E+07</totfact>
</mgrwt>
</event>
<event>
 4    1  0.4505197E+006  0.2013983E+02  0.7546771E-02  0.1742562E+00
         21   -1    0    0  502  501  0.00000000000E+00  0.00000000000E+00  0.70375858068E+00  0.70375858068E+00  0.00000000000E+00 0. -1.
         21   -1    0    0  503  502 -0.00000000000E+00 -0.00000000000E+00 -0.62084091411E+03  0.62084091411E+03  0.00000000000E+00 0. -1.
         21    1    1    2  503  504  0.14766098201E+02 -0.13695803763E+02 -0.39325987062E+03  0.39377523860E+03  0.00000000000E+00 0. -1.
         21    1    1    2  504  501 -0.14766098201E+02  0.13695803763E+02 -0.22687728491E+03  0.22776943409E+03  0.00000000000E+00 0. -1.
<mgrwt>
<rscale>  2 0.20139829E+02</rscale>
<asrwt>0</asrwt>
<pdfrwt beam="1">  1       21 0.10827002E-03 0.20139829E+02</pdfrwt>
<pdfrwt beam="2">  1       21 0.95514457E-01 0.20139829E+02</pdfrwt>
<totfact> 0.75949456E+07</totfact>
</mgrwt>
</event>
<event>
 4    1  0.4505197E+006  0.2029146E+02  0.7546771E-02  0.1739593E+00
         21   -1    0    0  503  501  0.00000000000E+00  0.00000000000E+00  0.89959203958E+02  0.89959203958E+02  0.00000000000E+00 0.  1.
         21   -1    0    0  504  502 -0.00000000000E+00 -0.00000000000E+00 -0.47820586136E+01  0.47820586136E+01  0.00000000000E+00 0.  1.
         21    1    1    2  503  502  0.11843566134E+02  0.16476442653E+02  0.32779196625E+02  0.38551510381E+02  0.00000000000E+00 0.  1.
         21    1    1    2  504  501 -0.11843566134E+02 -0.16476442653E+02  0.52397948720E+02  0.56189752191E+02  0.00000000000E+00 0.  1.
<mgrwt>
<rscale>  2 0.20291457E+02</rscale>
<asrwt>0</asrwt>
<pdfrwt beam="1">  1       21 0.13839876E-01 0.20291457E+02</pdfrwt>
<pdfrwt beam="2">  1       21 0.73570139E-03 0.20291457E+02</pdfrwt>
<totfact> 0.17653295E+08</totfact>
</mgrwt>
</event>
<event>
 4    1  0.4505197E+006  0.2746553E+02  0.7546771E-02  0.1627921E+00
         21   -1    0    0  504  501  0.00000000000E+00  0.00000000000E+00  0.53948653084E+03  0.53948653084E+03  0.00000000000E+00 0.  1.
         21   -1    0    0  503  502 -0.00000000000E+00 -0.00000000000E+00 -0.14886285533E+01  0.14886285533E+01  0.00000000000E+00 0.  1.
         21    1    1    2  503  501 -0.26343113790E+02  0.77714706157E+01  0.20236354112E+03  0.20421889769E+03  0.00000000000E+00 0.  1.
         21    1    1    2  504  502  0.26343113790E+02 -0.77714706157E+01  0.33563436116E+03  0.33675626169E+03  0.00000000000E+00 0.  1.
<mgrwt>
<rscale>  2 0.27465531E+02</rscale>
<asrwt>0</asrwt>
<pdfrwt beam="1">  1       21 0.82997772E-01 0.27465531E+02</pdfrwt>
<pdfrwt beam="2">  1       21 0.22902021E-03 0.27465531E+02</pdfrwt>
<totfact> 0.37415465E+07</totfact>
</mgrwt>
</event>
<event>
 4    1  0.4505197E+006  0.2061495E+02  0.7546771E-02  0.1733369E+00
         21   -1    0    0  504  501  0.00000000000E+00  0.00000000000E+00  0.10201663501E+02  0.10201663501E+02  0.00000000000E+00 0. -1.
         21   -1    0    0  503  502 -0.00000000000E+00 -0.00000000000E+00 -0.27829673989E+03  0.27829673989E+03  0.00000000000E+00 0.  1.
         21    1    1    2  503  501 -0.24593161821E+01 -0.20467723953E+02 -0.10318930595E+01  0.20640754909E+02  0.00000000000E+00 0. -1.
         21    1    1    2  504  502  0.24593161821E+01  0.20467723953E+02 -0.26706318333E+03  0.26785764848E+03  0.00000000000E+00 0.  1.
<mgrwt>
<rscale>  2 0.20614945E+02</rscale>
<asrwt>0</asrwt>
<pdfrwt beam="1">  1       21 0.15694866E-02 0.20614945E+02</pdfrwt>
<pdfrwt beam="2">  1       21 0.42814886E-01 0.20614945E+02</pdfrwt>
<totfact> 0.76669401E+06</totfact>
</mgrwt>
</event>
<event>
 4    1  0.4505197E+006  0.3209826E+02  0.7546771E-02  0.1575990E+00
         21   -1    0    0  502  501  0.00000000000E+00  0.00000000000E+00  0.42194779291E+02  0.42194779291E+02  0.00000000000E+00 0. -1.
         21   -1    0    0  504  502 -0.00000000000E+00 -0.00000000000E+00 -0.36358020518E+03  0.36358020518E+03  0.00000000000E+00 0.  1.
         21    1    1    2  503  501  0.21736634205E+01  0.32024579704E+02  0.35263523835E+02  0.47684532410E+02  0.00000000000E+00 0. -1.
         21    1    1    2  504  503 -0.21736634205E+01 -0.32024579704E+02 -0.35664894972E+03  0.35809045206E+03  0.00000000000E+00 0.  1.
<mgrwt>
<rscale>  2 0.32098263E+02</rscale>
<asrwt>0</asrwt>
<pdfrwt beam="1">  1       21 0.64915045E-02 0.32098263E+02</pdfrwt>
<pdfrwt beam="2">  1       21 0.55935416E-01 0.32098263E+02</pdfrwt>
<totfact> 0.51489115E+05</totfact>
</mgrwt>
</event>
<event>
 4    1  0.4505197E+006  0.2359906E+02  0.7546771E-02  0.1681980E+00
         21   -1    0    0  503  501  0.00000000000E+00  0.00000000000E+00  0.37796558471E+03  0.37796558471E+03  0.00000000000E+00 0. -1.
         21   -1    0    0  504  502 -0.00000000000E+00 -0.00000000000E+00 -0.76645524140E+01  0.76645524140E+01  0.00000000000E+00 0. -1.
         21    1    1    2  503  502  0.79998349589E+01 -0.22201761800E+02  0.11857379640E+02  0.26410472134E+02  0.00000000000E+00 0. -1.
         21    1    1    2  504  501 -0.79998349589E+01  0.22201761800E+02  0.35844365265E+03  0.35921966499E+03  0.00000000000E+00 0. -1.
<mgrwt>
<rscale>  2 0.23599059E+02</rscale>
<asrwt>0</asrwt>
<pdfrwt beam="1">  1       21 0.58148537E-01 0.23599059E+02</pdfrwt>
<pdfrwt beam="2">  1       21 0.11791622E-02 0.23599059E+02</pdfrwt>
<totfact> 0.66778599E+06</totfact>
</mgrwt>
</event>
<event>
 4    1  0.4505197E+006  0.2088626E+02  0.7546771E-02  0.1728257E+00
         21   -1    0    0  502  501  0.00000000000E+00  0.00000000000E+00  0.25368328213E+03  0.25368328213E+03  0.00000000000E+00 0.  1.
         21   -1    0    0  503  502 -0.00000000000E+00 -0.00000000000E+00 -0.22594804101E+01  0.22594804101E+01  0.00000000000E+00 0. -1.
         21    1    1    2  503  504 -0.33474743243E+01  0.20616262661E+02  0.63158053682E+02  0.66521993471E+02  0.00000000000E+00 0. -1.
         21    1    1    2  504  501  0.33474743243E+01 -0.20616262661E+02  0.18826574804E+03  0.18942076907E+03  0.00000000000E+00 0.  1.
<mgrwt>
<rscale>  2 0.20886260E+02</rscale>
<asrwt>0</asrwt>
<pdfrwt beam="1">  1       21 0.39028175E-01 0.20886260E+02</pdfrwt>
<pdfrwt beam="2">  1       21 0.34761257E-03 0.20886260E+02</pdfrwt>
<totfact> 0.85845656E+07</totfact>
</mgrwt>
</event>
<event>
 4    1  0.4505197E+006  0.2122206E+02  0.7546771E-02  0.1722064E+00
         21   -1    0    0  503  501  0.00000000000E+00  0.00000000000E+00  0.10608256899E+03  0.10608256899E+03  0.00000000000E+00 0.  1.
         21   -1    0    0  501  502 -0.00000000000E+00 -0.00000000000E+00 -0.17479638954E+02  0.17479638954E+02  0.00000000000E+00 0.  1.
         21    1    1    2  503  504 -0.14587724914E+02 -0.15413443455E+02  0.98058698171E+02  0.10032888041E+03  0.00000000000E+00 0.  1.
         21    1    1    2  504  502  0.14587724914E+02  0.15413443455E+02 -0.94557681349E+01  0.23233327535E+02  0.00000000000E+00 0.  1.
<mgrwt>
<rscale>  2 0.21222063E+02</rscale>
<asrwt>0</asrwt>
<pdfrwt beam="1">  1       21 0.16320395E-01 0.21222063E+02</pdfrwt>
<pdfrwt beam="2">  1       21 0.26891753E-02 0.21222063E+02</pdfrwt>
<totfact> 0.19025899E+07</totfact>
</mgrwt>
</event>
<event>
 4    1  0.4505197E+006  0.2183087E+02  0.7546771E-02  0.1711194E+00
         21   -1    0    0  503  501  0.00000000000E+00  0.00000000000E+00  0.20822020232E+02  0.20822020232E+02  0.00000000000E+00 0. -1.
         21   -1    0    0  501  502 -0.00000000000E+00 -0.00000000000E+00 -0.10801540758E+03  0.10801540758E+03  0.00000000000E+00 0.  1.
         21    1    1    2  503  504  0.21188038057E+02  0.52586906163E+01  0.13590973688E+02  0.25715780166E+02  0.00000000000E+00 0. -1.
         21    1    1    2  504  502 -0.21188038057E+02 -0.52586906163E+01 -0.10078436104E+03  0.10312164765E+03  0.00000000000E+00 0.  1.
<mgrwt>
<rscale>  2 0.21830868E+02</rscale>
<asrwt>0</asrwt>
<pdfrwt beam="1">  1       21 0.32033877E-02 0.21830868E+02</pdfrwt>
<pdfrwt beam="2">  1       21 0.16617755E-01 0.21830868E+02</pdfrwt>
<totfact> 0.14146450E+07</totfact>
</mgrwt>
</event>
<event>
 4    1  0.4505197E+006  0.2346353E+02  0.7546771E-02  0.1684105E+00
         21   -1    0    0  502  501  0.00000000000E+00  0.00000000000E+00  0.62924040738E+03  0.62924040738E+03  0.00000000000E+00 0. -1.
         21   -1    0    0  504  502 -0.00000000000E+00 -0.00000000000E+00 -0.10562877188E+01  0.10562877188E+01  0.00000000000E+00 0. -1.
         21    1    1    2  503  501 -0.23452832264E+02 -0.70830069984E+00  0.44467910122E+03  0.44529769828E+03  0.00000000000E+00 0. -1.
         21    1    1    2  504  503  0.23452832264E+02  0.70830069984E+00  0.18350501844E+03  0.18499899682E+03  0.00000000000E+00 0. -1.
<mgrwt>
<rscale>  2 0.23463526E+02</rscale>
<asrwt>0</asrwt>
<pdfrwt beam="1">  1       21 0.96805917E-01 0.23463526E+02</pdfrwt>
<pdfrwt beam="2">  1       21 0.16250631E-03 0.23463526E+02</pdfrwt>
<totfact> 0.42781408E+07</totfact>
</mgrwt>
</event>
<event>
 4    1  0.4505197E+006  0.2057960E+02  0.7546771E-02  0.1734042E+00
         21   -1    0    0  503  501  0.00000000000E+00  0.00000000000E+00  0.58816209693E+01  0.58816209693E+01  0.00000000000E+00 0.  1.
         21   -1    0    0  501  502 -0.00000000000E+00 -0.00000000000E+00 -0.87470934575E+02  0.87470934575E+02  0.00000000000E+00 0.  1.
         21    1    1    2  503  504 -0.19405439608E+02 -0.68519290864E+01 -0.21169224548E+02  0.29523822357E+02  0.00000000000E+00 0.  1.
         21    1    1    2  504  502  0.19405439608E+02  0.68519290864E+01 -0.60420089058E+02  0.63828733188E+02  0.00000000000E+00 0.  1.
<mgrwt>
<rscale>  2 0.20579602E+02</rscale>
<asrwt>0</asrwt>
<pdfrwt beam="1">  1       21 0.90486478E-03 0.20579602E+02</pdfrwt>
<pdfrwt beam="2">  1       21 0.13457067E-01 0.20579602E+02</pdfrwt>
<totfact> 0.13661806E+08</totfact>
</mgrwt>
</event>
<event>
 4    1  0.4505197E+006  0.2095275E+02  0.7546771E-02  0.1727019E+00
         21   -1    0    0  503  501  0.00000000000E+00  0.00000000000E+00  0.10083843426E+02  0.10083843426E+02  0.00000000000E+00 0. -1.
         21   -1    0    0  504  502 -0.00000000000E+00 -0.00000000000E+00 -0.49396223442E+03  0.49396223442E+03  0.00000000000E+00 0. -1.
         21    1    1    2  503  502  0.53855240403E+01 -0.20248803975E+02 -0.48259970966E+03  0.48305434238E+03  0.00000000000E+00 0. -1.
         21    1    1    2  504  501 -0.53855240403E+01  0.20248803975E+02 -0.12786813292E+01  0.20991735458E+02  0.00000000000E+00 0. -1.
<mgrwt>
<rscale>  2 0.20952755E+02</rscale>
<asrwt>0</asrwt>
<pdfrwt beam="1">  1       21 0.15513603E-02 0.20952755E+02</pdfrwt>
<pdfrwt beam="2">  1       21 0.75994202E-01 0.20952755E+02</pdfrwt>
<totfact> 0.25166460E+06</totfact>
</mgrwt>
</event>
<event>
 4    1  0.4505197E+006  0.2131691E+02  0.7546771E-02  0.1720341E+00
         21   -1    0    0  502  501  0.00000000000E+00  0.00000000000E+00  0.22561125312E+02  0.22561125312E+02  0.00000000000E+00 0.  1.
         21   -1    0    0  504  502 -0.00000000000E+00 -0.00000000000E+00 -0.29783127481E+02  0.29783127481E+02  0.00000000000E+00 0.  1.
         21    1    1    2  503  501  0.65825428597E+01  0.20275131687E+02  0.11280315466E+02  0.24117552787E+02  0.00000000000E+00 0.  1.
         21    1    1    2  504  503 -0.65825428597E+01 -0.20275131687E+02 -0.18502317634E+02  0.28226700006E+02  0.00000000000E+00 0.  1.
<mgrwt>
<rscale>  2 0.21316914E+02</rscale>
<asrwt>0</asrwt>
<pdfrwt beam="1">  1       21 0.34709423E-02 0.21316914E+02</pdfrwt>
<pdfrwt beam="2">  1       21 0.45820196E-02 0.21316914E+02</pdfrwt>
<totfact> 0.10255021E+08</totfact>
</mgrwt>
</event>
<event>
 4    1  0.4505197E+006  0.3094473E+02  0.7546771E-02  0.1587875E+00
         21   -1    0    0  503  501  0.00000000000E+00  0.00000000000E+00  0.17155657993E+02  0.17155657993E+02  0.00000000000E+00 0. -1.
         21   -1    0    0  504  502 -0.00000000000E+00 -0.00000000000E+00 -0.55942454131E+02  0.55942454131E+02  0.00000000000E+00 0. -1.
         21    1    1    2  503  502  0.23932133487E+02  0.19617059476E+02 -0.17662060803E+02  0.35630386296E+02  0.00000000000E+00 0. -1.
         21    1    1    2  504  501 -0.23932133487E+02 -0.19617059476E+02 -0.21124735334E+02  0.37467725828E+02  0.00000000000E+00 0. -1.
<mgrwt>
<rscale>  2 0.30944725E+02</rscale>
<asrwt>0</asrwt>
<pdfrwt beam="1">  1       21 0.26393320E-02 0.30944725E+02</pdfrwt>
<pdfrwt beam="2">  1       21 0.86065315E-02 0.30944725E+02</pdfrwt>
<totfact> 0.62567101E+07</totfact>
</mgrwt>
</event>
<event>
 4    1  0.4505197E+006  0.2141516E+02  0.7546771E-02  0.1718567E+00
         21   -1    0    0  503  501  0.00000000000E+00  0.00000000000E+00  0.38091269085E+03  0.38091269085E+03  0.00000000000E+00 0.  1.
         21   -1    0    0  504  502 -0.00000000000E+00 -0.00000000000E+00 -0.13120942226E+01  0.13120942226E+01  0.00000000000E+00 0.  1.
         21    1    1    2  503  502  0.14546897169E+02  0.15716137484E+02  0.13493993861E+03  0.13662868010E+03  0.00000000000E+00 0.  1.
         21    1    1    2  504  501 -0.14546897169E+02 -0.15716137484E+02  0.24466065802E+03  0.24559610497E+03  0.00000000000E+00 0.  1.
<mgrwt>
<rscale>  2 0.21415163E+02</rscale>
<asrwt>0</asrwt>
<pdfrwt beam="1">  1       21 0.58601864E-01 0.21415163E+02</pdfrwt>
<pdfrwt beam="2">  1       21 0.20186095E-03 0.21415163E+02</pdfrwt>
<totfact> 0.86837080E+07</totfact>
</mgrwt>
</event>
<event>
 4    1  0.4505197E+006  0.2104134E+02  0.7546771E-02  0.1725379E+00
         21   -1    0    0  504  501  0.00000000000E+00  0.00000000000E+00  0.14348129325E+03  0.14348129325E+03  0.00000000000E+00 0. -1.
         21   -1    0    0  503  502 -0.00000000000E+00 -0.00000000000E+00 -0.16505343822E+03  0.16505343822E+03  0.00000000000E+00 0.  1.
         21    1    1    2  503  501  0.57166456917E+01  0.20249890492E+02  0.14203247043E+03  0.14358259211E+03  0.00000000000E+00 0. -1.
         21    1    1    2  504  502 -0.57166456917E+01 -0.20249890492E+02 -0.16360461539E+03  0.16495213936E+03  0.00000000000E+00 0.  1.
<mgrwt>
<rscale>  2 0.21041343E+02</rscale>
<asrwt>0</asrwt>
<pdfrwt beam="1">  1       21 0.22074045E-01 0.21041343E+02</pdfrwt>
<pdfrwt beam="2">  1       21 0.25392837E-01 0.21041343E+02</pdfrwt>
<totfact> 0.28372385E+05</totfact>
</mgrwt>
</event>
<event>
 4    1  0.4505197E+006  0.2982514E+02  0.7546771E-02  0.1600030E+00
         21   -1    0    0  502  501  0.00000000000E+00  0.00000000000E+00  0.49488571874E+03  0.49488571874E+03  0.00000000000E+00 0.  1.
         21   -1    0    0  503  502 -0.00000000000E+00 -0.00000000000E+00 -0.69634061466E+02  0.69634061466E+02  0.00000000000E+00 0. -1.
         21    1    1    2  503  504 -0.24235196903E+02 -0.17383730776E+02 -0.65967258396E+02  0.72396257119E+02  0.00000000000E+00 0. -1.
         21    1    1    2  504  501  0.24235196903E+02  0.17383730776E+02  0.49121891567E+03  0.49212352309E+03  0.00000000000E+00 0.  1.
<mgrwt>
<rscale>  2 0.29825138E+02</rscale>
<asrwt>0</asrwt>
<pdfrwt beam="1">  1       21 0.76136262E-01 0.29825138E+02</pdfrwt>
<pdfrwt beam="2">  1       21 0.10712933E-01 0.29825138E+02</pdfrwt>
<totfact> 0.11919844E+05</totfact>
</mgrwt>
</event>
<event>
 4    1  0.4505197E+006  0.4499006E+02  0.7546771E-02  0.1474404E+00
         21   -1    0    0  503  501  0.00000000000E+00  0.00000000000E+00  0.23009029740E+02  0.23009029740E+02  0.00000000000E+00 0.  1.
         21   -1    0    0  501  502 -0.00000000000E+00 -0.00000000000E+00 -0.22996471579E+03  0.22996471579E+03  0.00000000000E+00 0.  1.
         21    1    1    2  503  504 -0.26441111955E+02 -0.36400175803E+02 -0.40859672347E+01  0.45175218075E+02  0.00000000000E+00 0.  1.
         21    1    1    2  504  502  0.26441111955E+02  0.36400175803E+02 -0.20286971882E+03  0.20779852745E+03  0.00000000000E+00 0.  1.
<mgrwt>
<rscale>  2 0.44990057E+02</rscale>
<asrwt>0</asrwt>
<pdfrwt beam="1">  1       21 0.35398507E-02 0.44990057E+02</pdfrwt>
<pdfrwt beam="2">  1       21 0.35379187E-01 0.44990057E+02</pdfrwt>
<totfact> 0.34348871E+06</totfact>
</mgrwt>
</event>
<event>
 4    1  0.4505197E+006  0.4148207E+02  0.7546771E-02  0.1497580E+00
         21   -1    0    0  503  501  0.00000000000E+00  0.00000000000E+00  0.83106881309E+01  0.83106881309E+01  0.00000000000E+00 0. -1.
         21   -1    0    0  501  502 -0.00000000000E+00 -0.00000000000E+00 -0.23481697703E+03  0.23481697703E+03  0.00000000000E+00 0. -1.
         21    1    1    2  503  504 -0.28443156364E+02  0.30195183591E+02 -0.71453587414E+02  0.82621894255E+02  0.00000000000E+00 0. -1.
         21    1    1    2  504  502  0.28443156364E+02 -0.30195183591E+02 -0.15505270148E+03  0.16050577090E+03  0.00000000000E+00 0. -1.
<mgrwt>
<rscale>  2 0.41482072E+02</rscale>
<asrwt>0</asrwt>
<pdfrwt beam="1">  1       21 0.12785674E-02 0.41482072E+02</pdfrwt>
<pdfrwt beam="2">  1       21 0.36125689E-01 0.41482072E+02</pdfrwt>
<totfact> 0.16208741E+07</totfact>
</mgrwt>
</event>
<event>
 4    1  0.4505197E+006  0.3327118E+02  0.7546771E-02  0.1564512E+00
         21   -1    0    0  503  501  0.00000000000E+00  0.00000000000E+00  0.58250840765E+02  0.58250840765E+02  0.00000000000E+00 0. -1.
         21   -1    0    0  504  502 -0.00000000000E+00 -0.00000000000E+00 -0.19878365181E+02  0.19878365181E+02  0.00000000000E+00 0. -1.
         21    1    1    2  503  502  0.33269578713E+02  0.32613788490E+00  0.10991071630E+02  0.35039618851E+02  0.00000000000E+00 0. -1.
         21    1    1    2  504  501 -0.33269578713E+02 -0.32613788490E+00  0.27381403954E+02  0.43089587096E+02  0.00000000000E+00 0. -1.
<mgrwt>
<rscale>  2 0.33271177E+02</rscale>
<asrwt>0</asrwt>
<pdfrwt beam="1">  1       21 0.89616677E-02 0.33271177E+02</pdfrwt>
<pdfrwt beam="2">  1       21 0.30582101E-02 0.33271177E+02</pdfrwt>
<totfact> 0.47135106E+07</totfact>
</mgrwt>
</event>
<event>
 4    1  0.4505197E+006  0.2198825E+02  0.7546771E-02  0.1708455E+00
         21   -1    0    0  503  501  0.00000000000E+00  0.00000000000E+00  0.53547456482E+01  0.53547456482E+01  0.00000000000E+00 0.  1.
         21   -1    0    0  501  502 -0.00000000000E+00 -0.00000000000E+00 -0.17729421287E+03  0.17729421287E+03  0.00000000000E+00 0.  1.
         21    1    1    2  503  504 -0.92245078154E+01 -0.19959753227E+02 -0.21994994496E+02  0.31100853303E+02  0.00000000000E+00 0.  1.
         21    1    1    2  504  502  0.92245078154E+01  0.19959753227E+02 -0.14994447272E+03  0.15154810521E+03  0.00000000000E+00 0.  1.
<mgrwt>
<rscale>  2 0.21988254E+02</rscale>
<asrwt>0</asrwt>
<pdfrwt beam="1">  1       21 0.82380717E-03 0.21988254E+02</pdfrwt>
<pdfrwt beam="2">  1       21 0.27276028E-01 0.21988254E+02</pdfrwt>
<totfact> 0.47004439E+07</totfact>
</mgrwt>
</event>
<event>
 4    1  0.4505197E+006  0.2387749E+02  0.7546771E-02  0.1677669E+00
         21   -1    0    0  504  501  0.00000000000E+00  0.00000000000E+00  0.10665303786E+03  0.10665303786E+03  0.00000000000E+00 0. -1.
         21   -1    0    0  503  502 -0.00000000000E+00 -0.00000000000E+00 -0.11904735586E+02  0.11904735586E+02  0.00000000000E+00 0.  1.
         21    1    1    2  503  501  0.22533588396E+02 -0.78975964130E+01  0.91374924892E+02  0.94443165630E+02  0.00000000000E+00 0. -1.
         21    1    1    2  504  502 -0.22533588396E+02  0.78975964130E+01  0.33733773802E+01  0.24114607814E+02  0.00000000000E+00 0.  1.
<mgrwt>
<rscale>  2 0.23877492E+02</rscale>
<asrwt>0</asrwt>
<pdfrwt beam="1">  1       21 0.16408159E-01 0.23877492E+02</pdfrwt>
<pdfrwt beam="2">  1       21 0.18314979E-02 0.23877492E+02</pdfrwt>
<totfact> 0.34983987E+07</totfact>
</mgrwt>
</event>
<event>
 4    1  0.4505197E+006  0.2310880E+02  0.7546771E-02  0.1689753E+00
         21   -1    0    0  503  501  0.00000000000E+00  0.00000000000E+00  0.29454309813E+02  0.29454309813E+02  0.00000000000E+00 0. -1.
         21   -1    0    0  504  502 -0.00000000000E+00 -0.00000000000E+00 -0.19997613353E+02  0.19997613353E+02  0.00000000000E+00 0. -1.
         21    1    1    2  503  502 -0.60373063546E+01 -0.22306218849E+02  0.12283945184E+02  0.26170819182E+02  0.00000000000E+00 0. -1.
         21    1    1    2  504  501  0.60373063546E+01  0.22306218849E+02 -0.28272487249E+01  0.23281103984E+02  0.00000000000E+00 0. -1.
<mgrwt>
<rscale>  2 0.23108796E+02</rscale>
<asrwt>0</asrwt>
<pdfrwt beam="1">  1       21 0.45314323E-02 0.23108796E+02</pdfrwt>
<pdfrwt beam="2">  1       21 0.30765559E-02 0.23108796E+02</pdfrwt>
<totfact> 0.12903057E+08</totfact>
</mgrwt>
</event>
<event>
 4    1  0.4505197E+006  0.2438418E+02  0.7546771E-02  0.1670008E+00
         21   -1    0    0  503  501  0.00000000000E+00  0.00000000000E+00  0.13695581232E+01  0.13695581232E+01  0.00000000000E+00 0. -1.
         21   -1    0    0  501  502 -0.00000000000E+00 -0.00000000000E+00 -0.83881212683E+03  0.83881212683E+03  0.00000000000E+00 0.  1.
         21    1    1    2  503  504  0.23931090845E+02 -0.46787937642E+01 -0.12693876137E+03  0.12925957356E+03  0.00000000000E+00 0. -1.
         21    1    1    2  504  502 -0.23931090845E+02  0.46787937642E+01 -0.71050380734E+03  0.71092211139E+03  0.00000000000E+00 0.  1.
<mgrwt>
<rscale>  2 0.24384180E+02</rscale>
<asrwt>0</asrwt>
<pdfrwt beam="1">  1       21 0.21070158E-03 0.24384180E+02</pdfrwt>
<pdfrwt beam="2">  1       21 0.12904782E+00 0.24384180E+02</pdfrwt>
<totfact> 0.15559573E+07</totfact>
</mgrwt>
</event>
<event>
 4    1  0.4505197E+006  0.2184110E+02  0.7546771E-02  0.1711015E+00
         21   -1    0    0  503  501  0.00000000000E+00  0.00000000000E+00  0.27220280163E+02  0.27220280163E+02  0.00000000000E+00 0.  1.
         21   -1    0    0  501  502 -0.00000000000E+00 -0.00000000000E+00 -0.42493938831E+02  0.42493938831E+02  0.00000000000E+00 0.  1.
         21    1    1    2  503  504 -0.20659025349E+02  0.70879087256E+01  0.19082677645E+02  0.29003144047E+02  0.00000000000E+00 0.  1.
         21    1    1    2  504  502  0.20659025349E+02 -0.70879087256E+01 -0.34356336313E+02  0.40711074947E+02  0.00000000000E+00 0.  1.
<mgrwt>
<rscale>  2 0.21841103E+02</rscale>
<asrwt>0</asrwt>
<pdfrwt beam="1">  1       21 0.41877355E-02 0.21841103E+02</pdfrwt>
<pdfrwt beam="2">  1       21 0.65375290E-02 0.21841103E+02</pdfrwt>
<totfact> 0.43628131E+07</totfact>
</mgrwt>
</event>
<event>
 4    1  0.4505197E+006  0.2481789E+02  0.7546771E-02  0.1663631E+00
         21   -1    0    0  504  501  0.00000000000E+00  0.00000000000E+00  0.75631769411E+03  0.75631769411E+03  0.00000000000E+00 0. -1.
         21   -1    0    0  501  502 -0.00000000000E+00 -0.00000000000E+00 -0.51100910508E+01  0.51100910508E+01  0.00000000000E+00 0. -1.
         21    1    1    2  503  502 -0.21702363220E+02 -0.12038904916E+02  0.26542194779E+02  0.36337527497E+02  0.00000000000E+00 0. -1.
         21    1    1    2  504  503  0.21702363220E+02  0.12038904916E+02  0.72466540828E+03  0.72509025766E+03  0.00000000000E+00 0. -1.
<mgrwt>
<rscale>  2 0.24817893E+02</rscale>
<asrwt>0</asrwt>
<pdfrwt beam="1">  1       21 0.11635648E+00 0.24817893E+02</pdfrwt>
<pdfrwt beam="2">  1       21 0.78616846E-03 0.24817893E+02</pdfrwt>
<totfact> 0.28469490E+06</totfact>
</mgrwt>
</event>
<event>
 4    1  0.4505197E+006  0.2930698E+02  0.7546771E-02  0.1605878E+00
         21   -1    0    0  504  501  0.00000000000E+00  0.00000000000E+00  0.60484244730E+01  0.60484244730E+01  0.00000000000E+00 0.  1.
         21   -1    0    0  503  502 -0.00000000000E+00 -0.00000000000E+00 -0.19115067857E+03  0.19115067857E+03  0.00000000000E+00 0.  1.
         21    1    1    2  503  501 -0.20669785679E+02 -0.20776401463E+02 -0.42555127952E+02  0.51670473317E+02  0.00000000000E+00 0.  1.
         21    1    1    2  504  502  0.20669785679E+02  0.20776401463E+02 -0.14254712615E+03  0.14552862973E+03  0.00000000000E+00 0.  1.
<mgrwt>
<rscale>  2 0.29306977E+02</rscale>
<asrwt>0</asrwt>
<pdfrwt beam="1">  1       21 0.93052692E-03 0.29306977E+02</pdfrwt>
<pdfrwt beam="2">  1       21 0.29407794E-01 0.29306977E+02</pdfrwt>
<totfact> 0.36442472E+07</totfact>
</mgrwt>
</event>
<event>
 4    1  0.4505197E+006  0.2309889E+02  0.7546771E-02  0.1689912E+00
         21   -1    0    0  503  501  0.00000000000E+00  0.00000000000E+00  0.23360127989E+01  0.23360127989E+01  0.00000000000E+00 0. -1.
         21   -1    0    0  501  502 -0.00000000000E+00 -0.00000000000E+00 -0.40210452701E+03  0.40210452701E+03  0.00000000000E+00 0. -1.
         21    1    1    2  503  504 -0.19170025268E+02  0.12886776928E+02 -0.66975525444E+02  0.70846876409E+02  0.00000000000E+00 0. -1.
         21    1    1    2  504  502  0.19170025268E+02 -0.12886776928E+02 -0.33279298877E+03  0.33359366340E+03  0.00000000000E+00 0. -1.
<mgrwt>
<rscale>  2 0.23098894E+02</rscale>
<asrwt>0</asrwt>
<pdfrwt beam="1">  1       21 0.35938616E-03 0.23098894E+02</pdfrwt>
<pdfrwt beam="2">  1       21 0.61862308E-01 0.23098894E+02</pdfrwt>
<totfact> 0.34343349E+07</totfact>
</mgrwt>
</event>
<event>
 4    1  0.4505197E+006  0.2559937E+02  0.7546771E-02  0.1652539E+00
         21   -1    0    0  503  501  0.00000000000E+00  0.00000000000E+00  0.18686806994E+04  0.18686806994E+04  0.00000000000E+00 0. -1.
         21   -1    0    0  501  502 -0.00000000000E+00 -0.00000000000E+00 -0.11130912427E+01  0.11130912427E+01  0.00000000000E+00 0.  1.
         21    1    1    2  503  504  0.15897713957E+02  0.20064656821E+02  0.17075150096E+04  0.17077068940E+04  0.00000000000E+00 0. -1.
         21    1    1    2  504  502 -0.15897713957E+02 -0.20064656821E+02  0.16005259855E+03  0.16208689665E+03  0.00000000000E+00 0.  1.
<mgrwt>
<rscale>  2 0.25599370E+02</rscale>
<asrwt>0</asrwt>
<pdfrwt beam="1">  1       21 0.28748683E+00 0.25599370E+02</pdfrwt>
<pdfrwt beam="2">  1       21 0.17124630E-03 0.25599370E+02</pdfrwt>
<totfact> 0.25852808E+06</totfact>
</mgrwt>
</event>
<event>
 4    1  0.4505197E+006  0.2737880E+02  0.7546771E-02  0.1629012E+00
         21   -1    0    0  503  501  0.00000000000E+00  0.00000000000E+00  0.12137714619E+02  0.12137714619E+02  0.00000000000E+00 0. -1.
         21   -1    0    0  504  502 -0.00000000000E+00 -0.00000000000E+00 -0.91269714970E+02  0.91269714970E+02  0.00000000000E+00 0. -1.
         21    1    1    2  503  502  0.26874903870E+02  0.52285771518E+01 -0.10165336033E+02  0.29205008710E+02  0.00000000000E+00 0. -1.
         21    1    1    2  504  501 -0.26874903870E+02 -0.52285771518E+01 -0.68966664319E+02  0.74202420879E+02  0.00000000000E+00 0. -1.
<mgrwt>
<rscale>  2 0.27378796E+02</rscale>
<asrwt>0</asrwt>
<pdfrwt beam="1">  1       21 0.18673407E-02 0.27378796E+02</pdfrwt>
<pdfrwt beam="2">  1       21 0.14041495E-01 0.27378796E+02</pdfrwt>
<totfact> 0.45743216E+07</totfact>
</mgrwt>
</event>
<event>
 4    1  0.4505197E+006  0.2082838E+02  0.7546771E-02  0.1729339E+00
         21   -1    0    0  503  501  0.00000000000E+00  0.00000000000E+00  0.59796541890E+02  0.59796541890E+02  0.00000000000E+00 0.  1.
         21   -1    0    0  504  502 -0.00000000000E+00 -0.00000000000E+00 -0.10435981937E+02  0.10435981937E+02  0.00000000000E+00 0.  1.
         21    1    1    2  503  502  0.18328870217E+02  0.98931205067E+01  0.52926294061E+01  0.21490305787E+02  0.00000000000E+00 0.  1.
         21    1    1    2  504  501 -0.18328870217E+02 -0.98931205067E+01  0.44067930547E+02  0.48742218040E+02  0.00000000000E+00 0.  1.
<mgrwt>
<rscale>  2 0.20828378E+02</rscale>
<asrwt>0</asrwt>
<pdfrwt beam="1">  1       21 0.91994678E-02 0.20828378E+02</pdfrwt>
<pdfrwt beam="2">  1       21 0.16055357E-02 0.20828378E+02</pdfrwt>
<totfact> 0.10874703E+08</totfact>
</mgrwt>
</event>
<event>
 4    1  0.4505197E+006  0.2299065E+02  0.7546771E-02  0.1691662E+00
         21   -1    0    0  502  501  0.00000000000E+00  0.00000000000E+00  0.71965573515E+02  0.71965573515E+02  0.00000000000E+00 0. -1.
         21   -1    0    0  504  502 -0.00000000000E+00 -0.00000000000E+00 -0.38399826440E+02  0.38399826440E+02  0.00000000000E+00 0.  1.
         21    1    1    2  503  501 -0.21427398091E+01  0.22890577243E+02  0.66408333710E+02  0.70275434161E+02  0.00000000000E+00 0. -1.
         21    1    1    2  504  503  0.21427398091E+01 -0.22890577243E+02 -0.32842586635E+02  0.40089965793E+02  0.00000000000E+00 0.  1.
<mgrwt>
<rscale>  2 0.22990647E+02</rscale>
<asrwt>0</asrwt>
<pdfrwt beam="1">  1       21 0.11071627E-01 0.22990647E+02</pdfrwt>
<pdfrwt beam="2">  1       21 0.59076656E-02 0.22990647E+02</pdfrwt>
<totfact> 0.10785054E+07</totfact>
</mgrwt>
</event>
<event>
 4    1  0.4505197E+006  0.2702342E+02  0.7546771E-02  0.1633532E+00
         21   -1    0    0  504  501  0.00000000000E+00  0.00000000000E+00  0.37328208105E+02  0.37328208105E+02  0.00000000000E+00 0.  1.
         21   -1    0    0  501  502 -0.00000000000E+00 -0.00000000000E+00 -0.80441272793E+02  0.80441272793E+02  0.00000000000E+00 0. -1.
         21    1    1    2  503  502 -0.18148331775E+02  0.20022565295E+02 -0.72782855576E+02  0.77637678565E+02  0.00000000000E+00 0. -1.
         21    1    1    2  504  503  0.18148331775E+02 -0.20022565295E+02  0.29669790888E+02  0.40131802334E+02  0.00000000000E+00 0.  1.
<mgrwt>
<rscale>  2 0.27023417E+02</rscale>
<asrwt>0</asrwt>
<pdfrwt beam="1">  1       21 0.57428013E-02 0.27023417E+02</pdfrwt>
<pdfrwt beam="2">  1       21 0.12375580E-01 0.27023417E+02</pdfrwt>
<totfact> 0.96466573E+06</totfact>
</mgrwt>
</event>
<event>
 4    1  0.4505197E+006  0.2857570E+02  0.7546771E-02  0.1614388E+00
         21   -1    0    0  503  501  0.00000000000E+00  0.00000000000E+00  0.15882059586E+02  0.15882059586E+02  0.00000000000E+00 0. -1.
         21   -1    0    0  501  502 -0.00000000000E+00 -0.00000000000E+00 -0.51465785006E+02  0.51465785006E+02  0.00000000000E+00 0. -1.
         21    1    1    2  503  504  0.13121390580E+02  0.25385024541E+02 -0.18853411255E+02  0.34234799220E+02  0.00000000000E+00 0. -1.
         21    1    1    2  504  502 -0.13121390580E+02 -0.25385024541E+02 -0.16730314165E+02  0.33113045372E+02  0.00000000000E+00 0. -1.
<mgrwt>
<rscale>  2 0.28575695E+02</rscale>
<asrwt>0</asrwt>
<pdfrwt beam="1">  1       21 0.24433937E-02 0.28575695E+02</pdfrwt>
<pdfrwt beam="2">  1       21 0.79178132E-02 0.28575695E+02</pdfrwt>
<totfact> 0.79501767E+07</totfact>
</mgrwt>
</event>
<event>
 4    1  0.4505197E+006  0.2774907E+02  0.7546771E-02  0.1624391E+00
         21   -1    0    0  502  501  0.00000000000E+00  0.00000000000E+00  0.11121064122E+03  0.11121064122E+03  0.00000000000E+00 0. -1.
         21   -1    0    0  503  502 -0.00000000000E+00 -0.00000000000E+00 -0.14472413042E+03  0.14472413042E+03  0.00000000000E+00 0.  1.
         21    1    1    2  503  504 -0.48583770879E+01  0.27320449452E+02 -0.14162550594E+03  0.14431837970E+03  0.00000000000E+00 0.  1.
         21    1    1    2  504  501  0.48583770879E+01 -0.27320449452E+02  0.10811201674E+03  0.11161639194E+03  0.00000000000E+00 0. -1.
<mgrwt>
<rscale>  2 0.27749068E+02</rscale>
<asrwt>0</asrwt>
<pdfrwt beam="1">  1       21 0.17109329E-01 0.27749068E+02</pdfrwt>
<pdfrwt beam="2">  1       21 0.22265251E-01 0.27749068E+02</pdfrwt>
<totfact> 0.56711848E+05</totfact>
</mgrwt>
</event>
<event>
 4    1  0.4505197E+006  0.2019184E+02  0.7546771E-02  0.1741540E+00
         21   -1    0    0  504  501  0.00000000000E+00  0.00000000000E+00  0.52457473175E+02  0.52457473175E+02  0.00000000000E+00 0.  1.
         21   -1    0    0  503  502 -0.00000000000E+00 -0.00000000000E+00 -0.92417736722E+01  0.92417736722E+01  0.00000000000E+00 0.  1.
         21    1    1    2  503  501 -0.18479303667E+02 -0.81379307536E+01  0.93061202942E+01  0.22233183665E+02  0.00000000000E+00 0.  1.
         21    1    1    2  504  502  0.18479303667E+02  0.81379307536E+01  0.33909579209E+02  0.39466063182E+02  0.00000000000E+00 0.  1.
<mgrwt>
<rscale>  2 0.20191844E+02</rscale>
<asrwt>0</asrwt>
<pdfrwt beam="1">  1       21 0.80703803E-02 0.20191844E+02</pdfrwt>
<pdfrwt beam="2">  1       21 0.14218114E-02 0.20191844E+02</pdfrwt>
<totfact> 0.16031047E+08</totfact>
</mgrwt>
</event>
<event>
 4    1  0.4505197E+006  0.3106567E+02  0.7546771E-02  0.1586599E+00
         21   -1    0    0  502  501  0.00000000000E+00  0.00000000000E+00  0.47382375551E+03  0.47382375551E+03  0.00000000000E+00 0.  1.
         21   -1    0    0  503  502 -0.00000000000E+00 -0.00000000000E+00 -0.17168399267E+03  0.17168399267E+03  0.00000000000E+00 0.  1.
         21    1    1    2  503  504  0.26256869884E+02  0.16602782635E+02 -0.16976377700E+03  0.17258277895E+03  0.00000000000E+00 0.  1.
         21    1    1    2  504  501 -0.26256869884E+02 -0.16602782635E+02  0.47190353985E+03  0.47292496924E+03  0.00000000000E+00 0.  1.
<mgrwt>
<rscale>  2 0.31065666E+02</rscale>
<asrwt>0</asrwt>
<pdfrwt beam="1">  1       21 0.72895962E-01 0.31065666E+02</pdfrwt>
<pdfrwt beam="2">  1       21 0.26412922E-01 0.31065666E+02</pdfrwt>
<totfact> 0.27084284E+04</totfact>
</mgrwt>
</event>
<event>
 4    1  0.4505197E+006  0.2127250E+02  0.7546771E-02  0.1721146E+00
         21   -1    0    0  502  501  0.00000000000E+00  0.00000000000E+00  0.45963223879E+02  0.45963223879E+02  0.00000000000E+00 0. -1.
         21   -1    0    0  503  502 -0.00000000000E+00 -0.00000000000E+00 -0.24047569525E+02  0.24047569525E+02  0.00000000000E+00 0.  1.
         21    1    1    2  503  504  0.62530843240E+00 -0.21263310045E+02 -0.15943832265E+02  0.26584302737E+02  0.00000000000E+00 0.  1.
         21    1    1    2  504  501 -0.62530843240E+00  0.21263310045E+02  0.37859486619E+02  0.43426490668E+02  0.00000000000E+00 0. -1.
<mgrwt>
<rscale>  2 0.21272503E+02</rscale>
<asrwt>0</asrwt>
<pdfrwt beam="1">  1       21 0.70712652E-02 0.21272503E+02</pdfrwt>
<pdfrwt beam="2">  1       21 0.36996261E-02 0.21272503E+02</pdfrwt>
<totfact> 0.46382764E+07</totfact>
</mgrwt>
</event>
<event>
 4    1  0.4505197E+006  0.3255970E+02  0.7546771E-02  0.1571404E+00
         21   -1    0    0  502  501  0.00000000000E+00  0.00000000000E+00  0.29154907897E+03  0.29154907897E+03  0.00000000000E+00 0.  1.
         21   -1    0    0  504  502 -0.00000000000E+00 -0.00000000000E+00 -0.20179191459E+03  0.20179191459E+03  0.00000000000E+00 0. -1.
         21    1    1    2  503  501 -0.10800792026E+02 -0.30716073866E+02  0.28931652239E+03  0.29114289349E+03  0.00000000000E+00 0.  1.
         21    1    1    2  504  503  0.10800792026E+02  0.30716073866E+02 -0.19955935801E+03  0.20219810007E+03  0.00000000000E+00 0. -1.
<mgrwt>
<rscale>  2 0.32559704E+02</rscale>
<asrwt>0</asrwt>
<pdfrwt beam="1">  1       21 0.44853705E-01 0.32559704E+02</pdfrwt>
<pdfrwt beam="2">  1       21 0.31044910E-01 0.32559704E+02</pdfrwt>
<totfact> 0.53372569E+04</totfact>
</mgrwt>
</event>
<event>
 4    1  0.4505197E+006  0.2840939E+02  0.7546771E-02  0.1616367E+00
         21   -1    0    0  504  501  0.00000000000E+00  0.00000000000E+00  0.15207250454E+02  0.15207250454E+02  0.00000000000E+00 0.  1.
         21   -1    0    0  503  502 -0.00000000000E+00 -0.00000000000E+00 -0.12244815863E+03  0.12244815863E+03  0.00000000000E+00 0. -1.
         21    1    1    2  503  501  0.39436496021E+01  0.28134344455E+02 -0.18133527538E+01  0.28467208474E+02  0.00000000000E+00 0.  1.
         21    1    1    2  504  502 -0.39436496021E+01 -0.28134344455E+02 -0.10542755542E+03  0.10918820061E+03  0.00000000000E+00 0. -1.
<mgrwt>
<rscale>  2 0.28409395E+02</rscale>
<asrwt>0</asrwt>
<pdfrwt beam="1">  1       21 0.23395769E-02 0.28409395E+02</pdfrwt>
<pdfrwt beam="2">  1       21 0.18838179E-01 0.28409395E+02</pdfrwt>
<totfact> 0.19575344E+07</totfact>
</mgrwt>
</event>
<event>
 4    1  0.4505197E+006  0.2611687E+02  0.7546771E-02  0.1645459E+00
         21   -1    0    0  503  501  0.00000000000E+00  0.00000000000E+00  0.17887117685E+02  0.17887117685E+02  0.00000000000E+00 0.  1.
         21   -1    0    0  504  502 -0.00000000000E+00 -0.00000000000E+00 -0.88458040508E+02  0.88458040508E+02  0.00000000000E+00 0. -1.
         21    1    1    2  503  502 -0.21038518407E+02  0.15474877880E+02 -0.75391589700E+02  0.79787109859E+02  0.00000000000E+00 0. -1.
         21    1    1    2  504  501  0.21038518407E+02 -0.15474877880E+02  0.48206668770E+01  0.26558048334E+02  0.00000000000E+00 0.  1.
<mgrwt>
<rscale>  2 0.26116874E+02</rscale>
<asrwt>0</asrwt>
<pdfrwt beam="1">  1       21 0.27518643E-02 0.26116874E+02</pdfrwt>
<pdfrwt beam="2">  1       21 0.13608929E-01 0.26116874E+02</pdfrwt>
<totfact> 0.26180869E+07</totfact>
</mgrwt>
</event>
<event>
 4    1  0.4505197E+006  0.2405661E+02  0.7546771E-02  0.1674934E+00
         21   -1    0    0  503  501  0.00000000000E+00  0.00000000000E+00  0.21967307904E+02  0.21967307904E+02  0.00000000000E+00 0. -1.
         21   -1    0    0  504  502 -0.00000000000E+00 -0.00000000000E+00 -0.29575301299E+02  0.29575301299E+02  0.00000000000E+00 0. -1.
         21    1    1    2  503  502 -0.20878472477E+01  0.23965833273E+02  0.47136418434E+01  0.24514050870E+02  0.00000000000E+00 0. -1.
         21    1    1    2  504  501  0.20878472477E+01 -0.23965833273E+02 -0.12321635239E+02  0.27028558333E+02  0.00000000000E+00 0. -1.
<mgrwt>
<rscale>  2 0.24056606E+02</rscale>
<asrwt>0</asrwt>
<pdfrwt beam="1">  1       21 0.33795858E-02 0.24056606E+02</pdfrwt>
<pdfrwt beam="2">  1       21 0.45500463E-02 0.24056606E+02</pdfrwt>
<totfact> 0.11200365E+08</totfact>
</mgrwt>
</event>
<event>
 4    1  0.4505197E+006  0.2170844E+02  0.7546771E-02  0.1713344E+00
         21   -1    0    0  503  501  0.00000000000E+00  0.00000000000E+00  0.31419230292E+02  0.31419230292E+02  0.00000000000E+00 0.  1.
         21   -1    0    0  504  502 -0.00000000000E+00 -0.00000000000E+00 -0.51184889203E+02  0.51184889203E+02  0.00000000000E+00 0. -1.
         21    1    1    2  503  502 -0.21622356394E+02 -0.19313012473E+01 -0.44610096523E+02  0.49611661254E+02  0.00000000000E+00 0. -1.
         21    1    1    2  504  501  0.21622356394E+02  0.19313012473E+01  0.24844437612E+02  0.32992458241E+02  0.00000000000E+00 0.  1.
<mgrwt>
<rscale>  2 0.21708437E+02</rscale>
<asrwt>0</asrwt>
<pdfrwt beam="1">  1       21 0.48337277E-02 0.21708437E+02</pdfrwt>
<pdfrwt beam="2">  1       21 0.78745984E-02 0.21708437E+02</pdfrwt>
<totfact> 0.25695535E+07</totfact>
</mgrwt>
</event>
<event>
 4    1  0.4505197E+006  0.2704559E+02  0.7546771E-02  0.1633247E+00
         21   -1    0    0  503  501  0.00000000000E+00  0.00000000000E+00  0.65524708835E+01  0.65524708835E+01  0.00000000000E+00 0.  1.
         21   -1    0    0  504  502 -0.00000000000E+00 -0.00000000000E+00 -0.12451877813E+03  0.12451877813E+03  0.00000000000E+00 0.  1.
         21    1    1    2  503  502 -0.27015005369E+02 -0.12857701662E+01 -0.80066356576E+02  0.84510858328E+02  0.00000000000E+00 0.  1.
         21    1    1    2  504  501  0.27015005369E+02  0.12857701662E+01 -0.37899950673E+02  0.46560390688E+02  0.00000000000E+00 0.  1.
<mgrwt>
<rscale>  2 0.27045586E+02</rscale>
<asrwt>0</asrwt>
<pdfrwt beam="1">  1       21 0.10080725E-02 0.27045586E+02</pdfrwt>
<pdfrwt beam="2">  1       21 0.19156734E-01 0.27045586E+02</pdfrwt>
<totfact> 0.68296108E+07</totfact>
</mgrwt>
</event>
<event>
 4    1  0.4505197E+006  0.5550920E+02  0.7546771E-02  0.1417706E+00
         21   -1    0    0  503  501  0.00000000000E+00  0.00000000000E+00  0.26181911232E+03  0.26181911232E+03  0.00000000000E+00 0. -1.
         21   -1    0    0  504  502 -0.00000000000E+00 -0.00000000000E+00 -0.12207071840E+02  0.12207071840E+02  0.00000000000E+00 0.  1.
         21    1    1    2  503  502 -0.55508834662E+02  0.20084262511E+00  0.15077032756E+03  0.16066413021E+03  0.00000000000E+00 0. -1.
         21    1    1    2  504  501  0.55508834662E+02 -0.20084262511E+00  0.98841712921E+02  0.11336205395E+03  0.00000000000E+00 0.  1.
<mgrwt>
<rscale>  2 0.55509198E+02</rscale>
<asrwt>0</asrwt>
<pdfrwt beam="1">  1       21 0.40279859E-01 0.55509198E+02</pdfrwt>
<pdfrwt beam="2">  1       21 0.18780113E-02 0.55509198E+02</pdfrwt>
<totfact> 0.74703704E+06</totfact>
</mgrwt>
</event>
<event>
 4    1  0.4505197E+006  0.2910581E+02  0.7546771E-02  0.1608188E+00
         21   -1    0    0  502  501  0.00000000000E+00  0.00000000000E+00  0.15193134312E+02  0.15193134312E+02  0.00000000000E+00 0. -1.
         21   -1    0    0  504  502 -0.00000000000E+00 -0.00000000000E+00 -0.72871963527E+02  0.72871963527E+02  0.00000000000E+00 0. -1.
         21    1    1    2  503  501  0.28670968185E+02 -0.50123876588E+01 -0.75010652721E+01  0.30056853243E+02  0.00000000000E+00 0. -1.
         21    1    1    2  504  503 -0.28670968185E+02  0.50123876588E+01 -0.50177763943E+02  0.58008244595E+02  0.00000000000E+00 0. -1.
<mgrwt>
<rscale>  2 0.29105815E+02</rscale>
<asrwt>0</asrwt>
<pdfrwt beam="1">  1       21 0.23374053E-02 0.29105815E+02</pdfrwt>
<pdfrwt beam="2">  1       21 0.11211071E-01 0.29105815E+02</pdfrwt>
<totfact> 0.47981085E+07</totfact>
</mgrwt>
</event>
<event>
 4    1  0.4505197E+006  0.3408258E+02  0.7546771E-02  0.1556902E+00
         21   -1    0    0  503  501  0.00000000000E+00  0.00000000000E+00  0.42821074657E+02  0.42821074657E+02  0.00000000000E+00 0.  1.
         21   -1    0    0  504  502 -0.00000000000E+00 -0.00000000000E+00 -0.81866619752E+03  0.81866619752E+03  0.00000000000E+00 0. -1.
         21    1    1    2  503  502 -0.35874844868E+01 -0.33893242470E+02  0.35624389563E+02  0.49302323087E+02  0.00000000000E+00 0.  1.
         21    1    1    2  504  501  0.35874844868E+01  0.33893242470E+02 -0.81146951243E+03  0.81218494909E+03  0.00000000000E+00 0. -1.
<mgrwt>
<rscale>  2 0.34082575E+02</rscale>
<asrwt>0</asrwt>
<pdfrwt beam="1">  1       21 0.65878582E-02 0.34082575E+02</pdfrwt>
<pdfrwt beam="2">  1       21 0.12594864E+00 0.34082575E+02</pdfrwt>
<totfact> 0.87364044E+04</totfact>
</mgrwt>
</event>
<event>
 4    1  0.4505197E+006  0.2225433E+02  0.7546771E-02  0.1703890E+00
         21   -1    0    0  504  501  0.00000000000E+00  0.00000000000E+00  0.17733003914E+03  0.17733003914E+03  0.00000000000E+00 0.  1.
         21   -1    0    0  503  502 -0.00000000000E+00 -0.00000000000E+00 -0.50128326250E+03  0.50128326250E+03  0.00000000000E+00 0.  1.
         21    1    1    2  503  501  0.16386697523E+02 -0.15057599713E+02 -0.50033673758E+03  0.50083141489E+03  0.00000000000E+00 0.  1.
         21    1    1    2  504  502 -0.16386697523E+02  0.15057599713E+02  0.17638351423E+03  0.17778188675E+03  0.00000000000E+00 0.  1.
<mgrwt>
<rscale>  2 0.22254329E+02</rscale>
<asrwt>0</asrwt>
<pdfrwt beam="1">  1       21 0.27281544E-01 0.22254329E+02</pdfrwt>
<pdfrwt beam="2">  1       21 0.77120502E-01 0.22254329E+02</pdfrwt>
<totfact> 0.23238028E+04</totfact>
</mgrwt>
</event>
<event>
 4    1  0.4505197E+006  0.2675160E+02  0.7546771E-02  0.1637047E+00
         21   -1    0    0  503  501  0.00000000000E+00  0.00000000000E+00  0.20182433706E+03  0.20182433706E+03  0.00000000000E+00 0. -1.
         21   -1    0    0  504  502 -0.00000000000E+00 -0.00000000000E+00 -0.37117478709E+01  0.37117478709E+01  0.00000000000E+00 0. -1.
         21    1    1    2  503  502 -0.24479116232E+02 -0.10789846329E+02  0.77332769633E+02  0.81829121799E+02  0.00000000000E+00 0. -1.
         21    1    1    2  504  501  0.24479116232E+02  0.10789846329E+02  0.12077981955E+03  0.12370696313E+03  0.00000000000E+00 0. -1.
<mgrwt>
<rscale>  2 0.26751596E+02</rscale>
<asrwt>0</asrwt>
<pdfrwt beam="1">  1       21 0.31049889E-01 0.26751596E+02</pdfrwt>
<pdfrwt beam="2">  1       21 0.57103829E-03 0.26751596E+02</pdfrwt>
<totfact> 0.67212233E+07</totfact>
</mgrwt>
</event>
<event>
 4    1  0.4505197E+006  0.2112715E+02  0.7546771E-02  0.1723800E+00
         21   -1    0    0  503  501  0.00000000000E+00  0.00000000000E+00  0.54752324934E+01  0.54752324934E+01  0.00000000000E+00 0. -1.
         21   -1    0    0  504  502 -0.00000000000E+00 -0.00000000000E+00 -0.26735582753E+03  0.26735582753E+03  0.00000000000E+00 0. -1.
         21    1    1    2  503  502  0.20204793012E+02  0.61743624778E+01 -0.24467170424E+03  0.24558216399E+03  0.00000000000E+00 0. -1.
         21    1    1    2  504  501 -0.20204793012E+02 -0.61743624778E+01 -0.17208890792E+02  0.27248896032E+02  0.00000000000E+00 0. -1.
<mgrwt>
<rscale>  2 0.21127149E+02</rscale>
<asrwt>0</asrwt>
<pdfrwt beam="1">  1       21 0.84234368E-03 0.21127149E+02</pdfrwt>
<pdfrwt beam="2">  1       21 0.41131655E-01 0.21127149E+02</pdfrwt>
<totfact> 0.21172882E+07</totfact>
</mgrwt>
</event>
<event>
 4    1  0.4505197E+006  0.2206794E+02  0.7546771E-02  0.1707080E+00
         21   -1    0    0  502  501  0.00000000000E+00  0.00000000000E+00  0.62972839256E+03  0.62972839256E+03  0.00000000000E+00 0. -1.
         21   -1    0    0  503  502 -0.00000000000E+00 -0.00000000000E+00 -0.61468585474E+02  0.61468585474E+02  0.00000000000E+00 0. -1.
         21    1    1    2  503  504  0.17950278215E+02  0.12836728550E+02 -0.59287706852E+02  0.63261570259E+02  0.00000000000E+00 0. -1.
         21    1    1    2  504  501 -0.17950278215E+02 -0.12836728550E+02  0.62754751393E+03  0.62793540777E+03  0.00000000000E+00 0. -1.
<mgrwt>
<rscale>  2 0.22067943E+02</rscale>
<asrwt>0</asrwt>
<pdfrwt beam="1">  1       21 0.96881286E-01 0.22067943E+02</pdfrwt>
<pdfrwt beam="2">  1       21 0.94567059E-02 0.22067943E+02</pdfrwt>
<totfact> 0.87957146E+04</totfact>
</mgrwt>
</event>
<event>
 4    1  0.4505197E+006  0.2041893E+02  0.7546771E-02  0.1737123E+00
         21   -1    0    0  504  501  0.00000000000E+00  0.00000000000E+00  0.36027918247E+00  0.36027918247E+00  0.00000000000E+00 0. -1.
         21   -1    0    0  503  502 -0.00000000000E+00 -0.00000000000E+00 -0.13792689163E+04  0.13792689163E+04  0.00000000000E+00 0. -1.
         21    1    1    2  503  501 -0.64972818862E+01 -0.19357634560E+02 -0.41269390488E+03  0.41319873162E+03  0.00000000000E+00 0. -1.
         21    1    1    2  504  502  0.64972818862E+01  0.19357634560E+02 -0.96621473227E+03  0.96643046390E+03  0.00000000000E+00 0. -1.
<mgrwt>
<rscale>  2 0.20418930E+02</rscale>
<asrwt>0</asrwt>
<pdfrwt beam="1">  1       21 0.55426793E-04 0.20418930E+02</pdfrwt>
<pdfrwt beam="2">  1       21 0.21219818E+00 0.20418930E+02</pdfrwt>
<totfact> 0.30183637E+07</totfact>
</mgrwt>
</event>
<event>
 4    1  0.4505197E+006  0.2136298E+02  0.7546771E-02  0.1719508E+00
         21   -1    0    0  503  501  0.00000000000E+00  0.00000000000E+00  0.43500901795E+01  0.43500901795E+01  0.00000000000E+00 0. -1.
         21   -1    0    0  501  502 -0.00000000000E+00 -0.00000000000E+00 -0.16777344307E+03  0.16777344307E+03  0.00000000000E+00 0. -1.
         21    1    1    2  503  504  0.20125637632E+02  0.71648844931E+01 -0.29032295418E+02  0.36045125012E+02  0.00000000000E+00 0. -1.
         21    1    1    2  504  502 -0.20125637632E+02 -0.71648844931E+01 -0.13439105748E+03  0.13607840824E+03  0.00000000000E+00 0. -1.
<mgrwt>
<rscale>  2 0.21362979E+02</rscale>
<asrwt>0</asrwt>
<pdfrwt beam="1">  1       21 0.66924477E-03 0.21362979E+02</pdfrwt>
<pdfrwt beam="2">  1       21 0.25811294E-01 0.21362979E+02</pdfrwt>
<totfact> 0.70142239E+07</totfact>
</mgrwt>
</event>
<event>
 4    1  0.4505197E+006  0.2473378E+02  0.7546771E-02  0.1664855E+00
         21   -1    0    0  504  501  0.00000000000E+00  0.00000000000E+00  0.25301514799E+01  0.25301514799E+01  0.00000000000E+00 0. -1.
         21   -1    0    0  503  502 -0.00000000000E+00 -0.00000000000E+00 -0.10561561970E+04  0.10561561970E+04  0.00000000000E+00 0.  1.
         21    1    1    2  503  501  0.13564301322E+02 -0.20682587429E+02 -0.61994202112E+02  0.66746091935E+02  0.00000000000E+00 0. -1.
         21    1    1    2  504  502 -0.13564301322E+02  0.20682587429E+02 -0.99163184344E+03  0.99194025658E+03  0.00000000000E+00 0.  1.
<mgrwt>
<rscale>  2 0.24733776E+02</rscale>
<asrwt>0</asrwt>
<pdfrwt beam="1">  1       21 0.38925346E-03 0.24733776E+02</pdfrwt>
<pdfrwt beam="2">  1       21 0.16248583E+00 0.24733776E+02</pdfrwt>
<totfact> 0.36937215E+06</totfact>
</mgrwt>
</event>
<event>
 4    1  0.4505197E+006  0.2254579E+02  0.7546771E-02  0.1698980E+00
         21   -1    0    0  503  501  0.00000000000E+00  0.00000000000E+00  0.99169988628E+01  0.99169988628E+01  0.00000000000E+00 0.  1.
         21   -1    0    0  504  502 -0.00000000000E+00 -0.00000000000E+00 -0.13510281874E+03  0.13510281874E+03  0.00000000000E+00 0. -1.
         21    1    1    2  503  502  0.20563819620E+02 -0.92434860157E+01 -0.11971533230E+03  0.12181984033E+03  0.00000000000E+00 0. -1.
         21    1    1    2  504  501 -0.20563819620E+02  0.92434860157E+01 -0.54704875799E+01  0.23199977272E+02  0.00000000000E+00 0.  1.
<mgrwt>
<rscale>  2 0.22545791E+02</rscale>
<asrwt>0</asrwt>
<pdfrwt beam="1">  1       21 0.15256922E-02 0.22545791E+02</pdfrwt>
<pdfrwt beam="2">  1       21 0.20785049E-01 0.22545791E+02</pdfrwt>
<totfact> 0.30271670E+07</totfact>
</mgrwt>
</event>
<event>
 4    1  0.4505197E+006  0.3757303E+02  0.7546771E-02  0.1526871E+00
         21   -1    0    0  503  501  0.00000000000E+00  0.00000000000E+00  0.44257322648E+01  0.44257322648E+01  0.00000000000E+00 0. -1.
         21   -1    0    0  504  502 -0.00000000000E+00 -0.00000000000E+00 -0.36284009289E+03  0.36284009289E+03  0.00000000000E+00 0.  1.
         21    1    1    2  503  502  0.67209509183E+00 -0.37567017652E+02 -0.11536411446E+03  0.12132852687E+03  0.00000000000E+00 0. -1.
         21    1    1    2  504  501 -0.67209509183E+00  0.37567017652E+02 -0.24305024617E+03  0.24593729829E+03  0.00000000000E+00 0.  1.
<mgrwt>
<rscale>  2 0.37573029E+02</rscale>
<asrwt>0</asrwt>
<pdfrwt beam="1">  1       21 0.68088174E-03 0.37573029E+02</pdfrwt>
<pdfrwt beam="2">  1       21 0.55821565E-01 0.37573029E+02</pdfrwt>
<totfact> 0.17830423E+07</totfact>
</mgrwt>
</event>
<event>
 4    1  0.4505197E+006  0.2088032E+02  0.7546771E-02  0.1728368E+00
         21   -1    0    0  503  501  0.00000000000E+00  0.00000000000E+00  0.12601919170E+03  0.12601919170E+03  0.00000000000E+00 0. -1.
         21   -1    0    0  504  502 -0.00000000000E+00 -0.00000000000E+00 -0.13284478771E+02  0.13284478771E+02  0.00000000000E+00 0. -1.
         21    1    1    2  503  502  0.20110349780E+02  0.56179537345E+01 -0.35319610622E+01  0.21176928989E+02  0.00000000000E+00 0. -1.
         21    1    1    2  504  501 -0.20110349780E+02 -0.56179537345E+01  0.11626667399E+03  0.11812674148E+03  0.00000000000E+00 0. -1.
<mgrwt>
<rscale>  2 0.20880315E+02</rscale>
<asrwt>0</asrwt>
<pdfrwt beam="1">  1       21 0.19387567E-01 0.20880315E+02</pdfrwt>
<pdfrwt beam="2">  1       21 0.20437660E-02 0.20880315E+02</pdfrwt>
<totfact> 0.21498350E+07</totfact>
</mgrwt>
</event>
<event>
 4    1  0.4505197E+006  0.2440225E+02  0.7546771E-02  0.1669739E+00
         21   -1    0    0  503  501  0.00000000000E+00  0.00000000000E+00  0.44390665334E+02  0.44390665334E+02  0.00000000000E+00 0.  1.
         21   -1    0    0  504  502 -0.00000000000E+00 -0.00000000000E+00 -0.19970745604E+02  0.19970745604E+02  0.00000000000E+00 0.  1.
         21    1    1    2  503  502 -0.20146855949E+02 -0.13768592174E+02  0.30648752410E+02  0.39176727267E+02  0.00000000000E+00 0.  1.
         21    1    1    2  504  501  0.20146855949E+02  0.13768592174E+02 -0.62288326795E+01  0.25184683671E+02  0.00000000000E+00 0.  1.
<mgrwt>
<rscale>  2 0.24402253E+02</rscale>
<asrwt>0</asrwt>
<pdfrwt beam="1">  1       21 0.68293331E-02 0.24402253E+02</pdfrwt>
<pdfrwt beam="2">  1       21 0.30724224E-02 0.24402253E+02</pdfrwt>
<totfact> 0.68053368E+07</totfact>
</mgrwt>
</event>
<event>
 4    1  0.4505197E+006  0.2169501E+02  0.7546771E-02  0.1713581E+00
         21   -1    0    0  504  501  0.00000000000E+00  0.00000000000E+00  0.92956339095E+02  0.92956339095E+02  0.00000000000E+00 0.  1.
         21   -1    0    0  503  502 -0.00000000000E+00 -0.00000000000E+00 -0.18261580744E+03  0.18261580744E+03  0.00000000000E+00 0. -1.
         21    1    1    2  503  501  0.21237839677E+02  0.44303312986E+01  0.91032715645E+02  0.93582204437E+02  0.00000000000E+00 0.  1.
         21    1    1    2  504  502 -0.21237839677E+02 -0.44303312986E+01 -0.18069218399E+03  0.18198994209E+03  0.00000000000E+00 0. -1.
<mgrwt>
<rscale>  2 0.21695015E+02</rscale>
<asrwt>0</asrwt>
<pdfrwt beam="1">  1       21 0.14300975E-01 0.21695015E+02</pdfrwt>
<pdfrwt beam="2">  1       21 0.28094739E-01 0.21695015E+02</pdfrwt>
<totfact> 0.50074802E+05</totfact>
</mgrwt>
</event>
<event>
 4    1  0.4505197E+006  0.2254680E+02  0.7546771E-02  0.1698963E+00
         21   -1    0    0  504  501  0.00000000000E+00  0.00000000000E+00  0.61098947386E+01  0.61098947386E+01  0.00000000000E+00 0. -1.
         21   -1    0    0  503  502 -0.00000000000E+00 -0.00000000000E+00 -0.13805054539E+03  0.13805054539E+03  0.00000000000E+00 0.  1.
         21    1    1    2  503  501 -0.22546651048E+02  0.82902969109E-01 -0.11140398586E+03  0.11366268698E+03  0.00000000000E+00 0.  1.
         21    1    1    2  504  502  0.22546651048E+02 -0.82902969109E-01 -0.20536664799E+02  0.30497753154E+02  0.00000000000E+00 0. -1.
<mgrwt>
<rscale>  2 0.22546803E+02</rscale>
<asrwt>0</asrwt>
<pdfrwt beam="1">  1       21 0.93998371E-03 0.22546803E+02</pdfrwt>
<pdfrwt beam="2">  1       21 0.21238548E-01 0.22546803E+02</pdfrwt>
<totfact> 0.60532756E+07</totfact>
</mgrwt>
</event>
<event>
 4    1  0.4505197E+006  0.4770540E+02  0.7546771E-02  0.1458126E+00
         21   -1    0    0  504  501  0.00000000000E+00  0.00000000000E+00  0.64985867520E+03  0.64985867520E+03  0.00000000000E+00 0. -1.
         21   -1    0    0  503  502 -0.00000000000E+00 -0.00000000000E+00 -0.11775747794E+02  0.11775747794E+02  0.00000000000E+00 0. -1.
         21    1    1    2  503  501 -0.45928552653E+02 -0.12898584832E+02  0.41744589906E+02  0.63390979057E+02  0.00000000000E+00 0. -1.
         21    1    1    2  504  502  0.45928552653E+02  0.12898584832E+02  0.59633833750E+03  0.59824344394E+03  0.00000000000E+00 0. -1.
<mgrwt>
<rscale>  2 0.47705403E+02</rscale>
<asrwt>0</asrwt>
<pdfrwt beam="1">  1       21 0.99978230E-01 0.47705403E+02</pdfrwt>
<pdfrwt beam="2">  1       21 0.18116540E-02 0.47705403E+02</pdfrwt>
<totfact> 0.11712644E+06</totfact>
</mgrwt>
</event>
<event>
 4    1  0.4505197E+006  0.2739353E+02  0.7546771E-02  0.1628826E+00
         21   -1    0    0  503  501  0.00000000000E+00  0.00000000000E+00  0.85780123693E+02  0.85780123693E+02  0.00000000000E+00 0. -1.
         21   -1    0    0  504  502 -0.00000000000E+00 -0.00000000000E+00 -0.20402637882E+03  0.20402637882E+03  0.00000000000E+00 0.  1.
         21    1    1    2  503  502 -0.18742002540E+02 -0.19978555063E+02  0.82639593076E+02  0.87061516558E+02  0.00000000000E+00 0. -1.
         21    1    1    2  504  501  0.18742002540E+02  0.19978555063E+02 -0.20088584820E+03  0.20274498595E+03  0.00000000000E+00 0.  1.
<mgrwt>
<rscale>  2 0.27393527E+02</rscale>
<asrwt>0</asrwt>
<pdfrwt beam="1">  1       21 0.13196942E-01 0.27393527E+02</pdfrwt>
<pdfrwt beam="2">  1       21 0.31388673E-01 0.27393527E+02</pdfrwt>
<totfact> 0.47555306E+05</totfact>
</mgrwt>
</event>
<event>
 4    1  0.4505197E+006  0.2128952E+02  0.7546771E-02  0.1720837E+00
         21   -1    0    0  503  501  0.00000000000E+00  0.00000000000E+00  0.14874058189E+01  0.14874058189E+01  0.00000000000E+00 0. -1.
         21   -1    0    0  501  502 -0.00000000000E+00 -0.00000000000E+00 -0.39531325194E+03  0.39531325194E+03  0.00000000000E+00 0. -1.
         21    1    1    2  503  504  0.20785890612E+02 -0.46032829351E+01 -0.10193607462E+03  0.10413552118E+03  0.00000000000E+00 0. -1.
         21    1    1    2  504  502 -0.20785890612E+02  0.46032829351E+01 -0.29188977150E+03  0.29266513658E+03  0.00000000000E+00 0. -1.
<mgrwt>
<rscale>  2 0.21289515E+02</rscale>
<asrwt>0</asrwt>
<pdfrwt beam="1">  1       21 0.22883185E-03 0.21289515E+02</pdfrwt>
<pdfrwt beam="2">  1       21 0.60817373E-01 0.21289515E+02</pdfrwt>
<totfact> 0.67204882E+07</totfact>
</mgrwt>
</event>
<event>
 4    1  0.4505197E+006  0.2216147E+02  0.7546771E-02  0.1705474E+00
         21   -1    0    0  502  501  0.00000000000E+00  0.00000000000E+00  0.15170495365E+02  0.15170495365E+02  0.00000000000E+00 0. -1.
         21   -1    0    0  504  502 -0.00000000000E+00 -0.00000000000E+00 -0.44846075441E+02  0.44846075441E+02  0.00000000000E+00 0. -1.
         21    1    1    2  503  501  0.19782764901E+02  0.99886326359E+01  0.98733797885E+00  0.22183448905E+02  0.00000000000E+00 0. -1.
         21    1    1    2  504  503 -0.19782764901E+02 -0.99886326359E+01 -0.30662918056E+02  0.37833121900E+02  0.00000000000E+00 0. -1.
<mgrwt>
<rscale>  2 0.22161466E+02</rscale>
<asrwt>0</asrwt>
<pdfrwt beam="1">  1       21 0.23339224E-02 0.22161466E+02</pdfrwt>
<pdfrwt beam="2">  1       21 0.68993961E-02 0.22161466E+02</pdfrwt>
<totfact> 0.99809807E+07</totfact>
</mgrwt>
</event>
<event>
 4    1  0.4505197E+006  0.3055348E+02  0.7546771E-02  0.1592050E+00
         21   -1    0    0  504  501  0.00000000000E+00  0.00000000000E+00  0.15054442393E+02  0.15054442393E+02  0.00000000000E+00 0.  1.
         21   -1    0    0  501  502 -0.00000000000E+00 -0.00000000000E+00 -0.64154614120E+03  0.64154614120E+03  0.00000000000E+00 0. -1.
         21    1    1    2  503  502 -0.27218812005E+02 -0.13879900671E+02 -0.62527692378E+03  0.62602296027E+03  0.00000000000E+00 0. -1.
         21    1    1    2  504  503  0.27218812005E+02  0.13879900671E+02 -0.12147750210E+01  0.30577623321E+02  0.00000000000E+00 0.  1.
<mgrwt>
<rscale>  2 0.30553484E+02</rscale>
<asrwt>0</asrwt>
<pdfrwt beam="1">  1       21 0.23160680E-02 0.30553484E+02</pdfrwt>
<pdfrwt beam="2">  1       21 0.98699407E-01 0.30553484E+02</pdfrwt>
<totfact> 0.80475736E+05</totfact>
</mgrwt>
</event>
<event>
 4    1  0.4505197E+006  0.3029416E+02  0.7546771E-02  0.1594860E+00
         21   -1    0    0  504  501  0.00000000000E+00  0.00000000000E+00  0.13598967680E+03  0.13598967680E+03  0.00000000000E+00 0.  1.
         21   -1    0    0  503  502 -0.00000000000E+00 -0.00000000000E+00 -0.12475055362E+02  0.12475055362E+02  0.00000000000E+00 0. -1.
         21    1    1    2  503  501  0.14088754322E+02  0.26818710187E+02  0.11205129473E+03  0.11607423859E+03  0.00000000000E+00 0.  1.
         21    1    1    2  504  502 -0.14088754322E+02 -0.26818710187E+02  0.11463326710E+02  0.32390493570E+02  0.00000000000E+00 0. -1.
<mgrwt>
<rscale>  2 0.30294161E+02</rscale>
<asrwt>0</asrwt>
<pdfrwt beam="1">  1       21 0.20921488E-01 0.30294161E+02</pdfrwt>
<pdfrwt beam="2">  1       21 0.19192394E-02 0.30294161E+02</pdfrwt>
<totfact> 0.22394759E+07</totfact>
</mgrwt>
</event>
<event>
 4    1  0.4505197E+006  0.3806580E+02  0.7546771E-02  0.1522947E+00
         21   -1    0    0  502  501  0.00000000000E+00  0.00000000000E+00  0.46079958564E+03  0.46079958564E+03  0.00000000000E+00 0. -1.
         21   -1    0    0  504  502 -0.00000000000E+00 -0.00000000000E+00 -0.29986402625E+02  0.29986402625E+02  0.00000000000E+00 0. -1.
         21    1    1    2  503  501  0.25610408530E+02 -0.28162242628E+02  0.44757667717E+03  0.44919248311E+03  0.00000000000E+00 0. -1.
         21    1    1    2  504  503 -0.25610408530E+02  0.28162242628E+02 -0.16763494156E+02  0.41593505157E+02  0.00000000000E+00 0. -1.
<mgrwt>
<rscale>  2 0.38065797E+02</rscale>
<asrwt>0</asrwt>
<pdfrwt beam="1">  1       21 0.70892239E-01 0.38065797E+02</pdfrwt>
<pdfrwt beam="2">  1       21 0.46132931E-02 0.38065797E+02</pdfrwt>
<totfact> 0.55512749E+05</totfact>
</mgrwt>
</event>
<event>
 4    1  0.4505197E+006  0.2431307E+02  0.7546771E-02  0.1671069E+00
         21   -1    0    0  503  501  0.00000000000E+00  0.00000000000E+00  0.75048008026E+00  0.75048008026E+00  0.00000000000E+00 0. -1.
         21   -1    0    0  504  502 -0.00000000000E+00 -0.00000000000E+00 -0.13560801945E+04  0.13560801945E+04  0.00000000000E+00 0.  1.
         21    1    1    2  503  502 -0.27974036952E+01  0.24151599110E+02 -0.23844024468E+03  0.23967660605E+03  0.00000000000E+00 0. -1.
         21    1    1    2  504  501  0.27974036952E+01 -0.24151599110E+02 -0.11168894698E+04  0.11171540686E+04  0.00000000000E+00 0.  1.
<mgrwt>
<rscale>  2 0.24313067E+02</rscale>
<asrwt>0</asrwt>
<pdfrwt beam="1">  1       21 0.11545920E-03 0.24313067E+02</pdfrwt>
<pdfrwt beam="2">  1       21 0.20862642E+00 0.24313067E+02</pdfrwt>
<totfact> 0.11419967E+07</totfact>
</mgrwt>
</event>
<event>
 4    1  0.4505197E+006  0.2779944E+02  0.7546771E-02  0.1623769E+00
         21   -1    0    0  502  501  0.00000000000E+00  0.00000000000E+00  0.36254024223E+01  0.36254024223E+01  0.00000000000E+00 0. -1.
         21   -1    0    0  503  502 -0.00000000000E+00 -0.00000000000E+00 -0.33192573550E+03  0.33192573550E+03  0.00000000000E+00 0.  1.
         21    1    1    2  503  504  0.18035158151E+02 -0.21155193065E+02 -0.26450645418E+03  0.26596329338E+03  0.00000000000E+00 0.  1.
         21    1    1    2  504  501 -0.18035158151E+02  0.21155193065E+02 -0.63793878901E+02  0.69587844545E+02  0.00000000000E+00 0. -1.
<mgrwt>
<rscale>  2 0.27799445E+02</rscale>
<asrwt>0</asrwt>
<pdfrwt beam="1">  1       21 0.55775429E-03 0.27799445E+02</pdfrwt>
<pdfrwt beam="2">  1       21 0.51065491E-01 0.27799445E+02</pdfrwt>
<totfact> 0.27292223E+07</totfact>
</mgrwt>
</event>
<event>
 4    1  0.4505197E+006  0.2103967E+02  0.7546771E-02  0.1725410E+00
         21   -1    0    0  504  501  0.00000000000E+00  0.00000000000E+00  0.62023883380E+02  0.62023883380E+02  0.00000000000E+00 0.  1.
         21   -1    0    0  503  502 -0.00000000000E+00 -0.00000000000E+00 -0.18220298464E+02  0.18220298464E+02  0.00000000000E+00 0.  1.
         21    1    1    2  503  501  0.51459396389E+01  0.20400657183E+02  0.53194227860E+02  0.57203963026E+02  0.00000000000E+00 0.  1.
         21    1    1    2  504  502 -0.51459396389E+01 -0.20400657183E+02 -0.93906429446E+01  0.23040218818E+02  0.00000000000E+00 0.  1.
<mgrwt>
<rscale>  2 0.21039665E+02</rscale>
<asrwt>0</asrwt>
<pdfrwt beam="1">  1       21 0.95421358E-02 0.21039665E+02</pdfrwt>
<pdfrwt beam="2">  1       21 0.28031229E-02 0.21039665E+02</pdfrwt>
<totfact> 0.43725891E+07</totfact>
</mgrwt>
</event>
<event>
 4    1  0.4505197E+006  0.2019403E+02  0.7546771E-02  0.1741497E+00
         21   -1    0    0  504  501  0.00000000000E+00  0.00000000000E+00  0.27243700332E+02  0.27243700332E+02  0.00000000000E+00 0. -1.
         21   -1    0    0  503  502 -0.00000000000E+00 -0.00000000000E+00 -0.63531241133E+03  0.63531241133E+03  0.00000000000E+00 0. -1.
         21    1    1    2  503  501  0.62935087545E+01  0.19188297307E+02 -0.63138653693E+03  0.63170939365E+03  0.00000000000E+00 0. -1.
         21    1    1    2  504  502 -0.62935087545E+01 -0.19188297307E+02  0.23317825933E+02  0.30846718014E+02  0.00000000000E+00 0. -1.
<mgrwt>
<rscale>  2 0.20194034E+02</rscale>
<asrwt>0</asrwt>
<pdfrwt beam="1">  1       21 0.41913384E-02 0.20194034E+02</pdfrwt>
<pdfrwt beam="2">  1       21 0.97740373E-01 0.20194034E+02</pdfrwt>
<totfact> 0.31824142E+05</totfact>
</mgrwt>
</event>
<event>
 4    1  0.4505197E+006  0.2449157E+02  0.7546771E-02  0.1668414E+00
         21   -1    0    0  503  501  0.00000000000E+00  0.00000000000E+00  0.35939921218E+02  0.35939921218E+02  0.00000000000E+00 0.  1.
         21   -1    0    0  504  502 -0.00000000000E+00 -0.00000000000E+00 -0.47705156302E+02  0.47705156302E+02  0.00000000000E+00 0.  1.
         21    1    1    2  503  502  0.14571670220E+02 -0.19685102231E+02 -0.39604732760E+02  0.46565777990E+02  0.00000000000E+00 0.  1.
         21    1    1    2  504  501 -0.14571670220E+02  0.19685102231E+02  0.27839497675E+02  0.37079299530E+02  0.00000000000E+00 0.  1.
<mgrwt>
<rscale>  2 0.24491566E+02</rscale>
<asrwt>0</asrwt>
<pdfrwt beam="1">  1       21 0.55292186E-02 0.24491566E+02</pdfrwt>
<pdfrwt beam="2">  1       21 0.73392548E-02 0.24491566E+02</pdfrwt>
<totfact> 0.23916026E+07</totfact>
</mgrwt>
</event>
<event>
 4    1  0.4505197E+006  0.3206195E+02  0.7546771E-02  0.1576355E+00
         21   -1    0    0  503  501  0.00000000000E+00  0.00000000000E+00  0.65161548031E+01  0.65161548031E+01  0.00000000000E+00 0.  1.
         21   -1    0    0  501  502 -0.00000000000E+00 -0.00000000000E+00 -0.23155833616E+03  0.23155833616E+03  0.00000000000E+00 0.  1.
         21    1    1    2  503  504  0.32005630204E+02 -0.18994972059E+01 -0.45318652141E+02  0.55513500036E+02  0.00000000000E+00 0.  1.
         21    1    1    2  504  502 -0.32005630204E+02  0.18994972059E+01 -0.17972352921E+03  0.18256099093E+03  0.00000000000E+00 0.  1.
<mgrwt>
<rscale>  2 0.32061947E+02</rscale>
<asrwt>0</asrwt>
<pdfrwt beam="1">  1       21 0.10024853E-02 0.32061947E+02</pdfrwt>
<pdfrwt beam="2">  1       21 0.35624360E-01 0.32061947E+02</pdfrwt>
<totfact> 0.23184723E+07</totfact>
</mgrwt>
</event>
<event>
 4    1  0.4505197E+006  0.2692763E+02  0.7546771E-02  0.1634765E+00
         21   -1    0    0  504  501  0.00000000000E+00  0.00000000000E+00  0.40896166090E+01  0.40896166090E+01  0.00000000000E+00 0. -1.
         21   -1    0    0  503  502 -0.00000000000E+00 -0.00000000000E+00 -0.19049065937E+03  0.19049065937E+03  0.00000000000E+00 0. -1.
         21    1    1    2  503  501 -0.17583304447E+02  0.20394236985E+02 -0.11880000006E+03  0.12181353583E+03  0.00000000000E+00 0. -1.
         21    1    1    2  504  502  0.17583304447E+02 -0.20394236985E+02 -0.67601042699E+02  0.72766740145E+02  0.00000000000E+00 0. -1.
<mgrwt>
<rscale>  2 0.26927634E+02</rscale>
<asrwt>0</asrwt>
<pdfrwt beam="1">  1       21 0.62917181E-03 0.26927634E+02</pdfrwt>
<pdfrwt beam="2">  1       21 0.29306254E-01 0.26927634E+02</pdfrwt>
<totfact> 0.64772801E+07</totfact>
</mgrwt>
</event>
<event>
 4    1  0.4505197E+006  0.2051787E+02  0.7546771E-02  0.1735221E+00
         21   -1    0    0  502  501  0.00000000000E+00  0.00000000000E+00  0.16215466008E+02  0.16215466008E+02  0.00000000000E+00 0. -1.
         21   -1    0    0  504  502 -0.00000000000E+00 -0.00000000000E+00 -0.20085692998E+03  0.20085692998E+03  0.00000000000E+00 0. -1.
         21    1    1    2  503  501  0.77126666742E+01  0.19013094325E+02  0.89584137527E+01  0.22388304090E+02  0.00000000000E+00 0. -1.
         21    1    1    2  504  503 -0.77126666742E+01 -0.19013094325E+02 -0.19359987773E+03  0.19468409190E+03  0.00000000000E+00 0. -1.
<mgrwt>
<rscale>  2 0.20517870E+02</rscale>
<asrwt>0</asrwt>
<pdfrwt beam="1">  1       21 0.24946872E-02 0.20517870E+02</pdfrwt>
<pdfrwt beam="2">  1       21 0.30901064E-01 0.20517870E+02</pdfrwt>
<totfact> 0.69059983E+06</totfact>
</mgrwt>
</event>
<event>
 4    1  0.4505197E+006  0.2124058E+02  0.7546771E-02  0.1721727E+00
         21   -1    0    0  502  501  0.00000000000E+00  0.00000000000E+00  0.11941011935E+03  0.11941011935E+03  0.00000000000E+00 0. -1.
         21   -1    0    0  504  502 -0.00000000000E+00 -0.00000000000E+00 -0.18961706552E+02  0.18961706552E+02  0.00000000000E+00 0.  1.
         21    1    1    2  503  501  0.14934334338E+02  0.15103902604E+02  0.11213468756E+03  0.11412865709E+03  0.00000000000E+00 0. -1.
         21    1    1    2  504  503 -0.14934334338E+02 -0.15103902604E+02 -0.11686274762E+02  0.24243168807E+02  0.00000000000E+00 0.  1.
<mgrwt>
<rscale>  2 0.21240579E+02</rscale>
<asrwt>0</asrwt>
<pdfrwt beam="1">  1       21 0.18370787E-01 0.21240579E+02</pdfrwt>
<pdfrwt beam="2">  1       21 0.29171857E-02 0.21240579E+02</pdfrwt>
<totfact> 0.13692428E+07</totfact>
</mgrwt>
</event>
<event>
 4    1  0.4505197E+006  0.2560265E+02  0.7546771E-02  0.1652494E+00
         21   -1    0    0  503  501  0.00000000000E+00  0.00000000000E+00  0.40898171556E+03  0.40898171556E+03  0.00000000000E+00 0.  1.
         21   -1    0    0  504  502 -0.00000000000E+00 -0.00000000000E+00 -0.24104030733E+01  0.24104030733E+01  0.00000000000E+00 0.  1.
         21    1    1    2  503  502  0.24301296836E+02 -0.80586989273E+01  0.32235320730E+03  0.32336834402E+03  0.00000000000E+00 0.  1.
         21    1    1    2  504  501 -0.24301296836E+02  0.80586989273E+01  0.84218105191E+02  0.88023774620E+02  0.00000000000E+00 0.  1.
<mgrwt>
<rscale>  2 0.25602649E+02</rscale>
<asrwt>0</asrwt>
<pdfrwt beam="1">  1       21 0.62920209E-01 0.25602649E+02</pdfrwt>
<pdfrwt beam="2">  1       21 0.37083157E-03 0.25602649E+02</pdfrwt>
<totfact> 0.32388242E+07</totfact>
</mgrwt>
</event>
<event>
 4    1  0.4505197E+006  0.5092417E+02  0.7546771E-02  0.1440420E+00
         21   -1    0    0  503  501  0.00000000000E+00  0.00000000000E+00  0.16345646254E+03  0.16345646254E+03  0.00000000000E+00 0. -1.
         21   -1    0    0  501  502 -0.00000000000E+00 -0.00000000000E+00 -0.22056523581E+02  0.22056523581E+02  0.00000000000E+00 0.  1.
         21    1    1    2  503  504  0.47027016151E+02 -0.19537923028E+02  0.11984360482E+03  0.13021428608E+03  0.00000000000E+00 0. -1.
         21    1    1    2  504  502 -0.47027016151E+02  0.19537923028E+02  0.21556334142E+02  0.55298700039E+02  0.00000000000E+00 0.  1.
<mgrwt>
<rscale>  2 0.50924166E+02</rscale>
<asrwt>0</asrwt>
<pdfrwt beam="1">  1       21 0.25147147E-01 0.50924166E+02</pdfrwt>
<pdfrwt beam="2">  1       21 0.33933114E-02 0.50924166E+02</pdfrwt>
<totfact> 0.70460123E+06</totfact>
</mgrwt>
</event>
<event>
 4    1  0.4505197E+006  0.3760108E+02  0.7546771E-02  0.1526645E+00
         21   -1    0    0  504  501  0.00000000000E+00  0.00000000000E+00  0.35220345359E+03  0.35220345359E+03  0.00000000000E+00 0.  1.
         21   -1    0    0  503  502 -0.00000000000E+00 -0.00000000000E+00 -0.10374302739E+02  0.10374302739E+02  0.00000000000E+00 0. -1.
         21    1    1    2  503  501  0.93177192661E+01 -0.36428299930E+02  0.31285995648E+03  0.31511139824E+03  0.00000000000E+00 0.  1.
         21    1    1    2  504  502 -0.93177192661E+01  0.36428299930E+02  0.28969194367E+02  0.47466358090E+02  0.00000000000E+00 0. -1.
<mgrwt>
<rscale>  2 0.37601076E+02</rscale>
<asrwt>0</asrwt>
<pdfrwt beam="1">  1       21 0.54185137E-01 0.37601076E+02</pdfrwt>
<pdfrwt beam="2">  1       21 0.15960468E-02 0.37601076E+02</pdfrwt>
<totfact> 0.51483170E+06</totfact>
</mgrwt>
</event>
<event>
 4    1  0.4505197E+006  0.2294751E+02  0.7546771E-02  0.1692362E+00
         21   -1    0    0  504  501  0.00000000000E+00  0.00000000000E+00  0.23992910585E+01  0.23992910585E+01  0.00000000000E+00 0. -1.
         21   -1    0    0  503  502 -0.00000000000E+00 -0.00000000000E+00 -0.29098572745E+03  0.29098572745E+03  0.00000000000E+00 0. -1.
         21    1    1    2  503  501  0.22884518444E+02 -0.16990714116E+01 -0.71573346123E+02  0.75162037647E+02  0.00000000000E+00 0. -1.
         21    1    1    2  504  502 -0.22884518444E+02  0.16990714116E+01 -0.21701309027E+03  0.21822298086E+03  0.00000000000E+00 0. -1.
<mgrwt>
<rscale>  2 0.22947506E+02</rscale>
<asrwt>0</asrwt>
<pdfrwt beam="1">  1       21 0.36912172E-03 0.22947506E+02</pdfrwt>
<pdfrwt beam="2">  1       21 0.44767033E-01 0.22947506E+02</pdfrwt>
<totfact> 0.62148107E+07</totfact>
</mgrwt>
</event>
<event>
 4    1  0.4505197E+006  0.2879749E+02  0.7546771E-02  0.1611774E+00
         21   -1    0    0  504  501  0.00000000000E+00  0.00000000000E+00  0.14918423667E+03  0.14918423667E+03  0.00000000000E+00 0.  1.
         21   -1    0    0  503  502 -0.00000000000E+00 -0.00000000000E+00 -0.26793756204E+03  0.26793756204E+03  0.00000000000E+00 0.  1.
         21    1    1    2  503  501  0.22523391678E+02 -0.17944142982E+02  0.14700940359E+03  0.14980340512E+03  0.00000000000E+00 0.  1.
         21    1    1    2  504  502 -0.22523391678E+02  0.17944142982E+02 -0.26576272897E+03  0.26731839359E+03  0.00000000000E+00 0.  1.
<mgrwt>
<rscale>  2 0.28797490E+02</rscale>
<asrwt>0</asrwt>
<pdfrwt beam="1">  1       21 0.22951421E-01 0.28797490E+02</pdfrwt>
<pdfrwt beam="2">  1       21 0.41221163E-01 0.28797490E+02</pdfrwt>
<totfact> 0.10911290E+05</totfact>
</mgrwt>
</event>
<event>
 4    1  0.4505197E+006  0.3029560E+02  0.7546771E-02  0.1594844E+00
         21   -1    0    0  502  501  0.00000000000E+00  0.00000000000E+00  0.94702271923E+02  0.94702271923E+02  0.00000000000E+00 0.  1.
         21   -1    0    0  504  502 -0.00000000000E+00 -0.00000000000E+00 -0.12885752870E+02  0.12885752870E+02  0.00000000000E+00 0. -1.
         21    1    1    2  503  501  0.29409009011E+02  0.72755497020E+01  0.67690810370E+02  0.74161103302E+02  0.00000000000E+00 0.  1.
         21    1    1    2  504  503 -0.29409009011E+02 -0.72755497020E+01  0.14125708684E+02  0.33426921490E+02  0.00000000000E+00 0. -1.
<mgrwt>
<rscale>  2 0.30295601E+02</rscale>
<asrwt>0</asrwt>
<pdfrwt beam="1">  1       21 0.14569580E-01 0.30295601E+02</pdfrwt>
<pdfrwt beam="2">  1       21 0.19824236E-02 0.30295601E+02</pdfrwt>
<totfact> 0.40033702E+07</totfact>
</mgrwt>
</event>
<event>
 4    1  0.4505197E+006  0.3625907E+02  0.7546771E-02  0.1537696E+00
         21   -1    0    0  504  501  0.00000000000E+00  0.00000000000E+00  0.90931485737E+02  0.90931485737E+02  0.00000000000E+00 0. -1.
         21   -1    0    0  501  502 -0.00000000000E+00 -0.00000000000E+00 -0.20224009807E+04  0.20224009807E+04  0.00000000000E+00 0. -1.
         21    1    1    2  503  502  0.24308709635E+02  0.26903664286E+02 -0.20186170950E+04  0.20189427175E+04  0.00000000000E+00 0. -1.
         21    1    1    2  504  503 -0.24308709635E+02 -0.26903664286E+02  0.87147600001E+02  0.94389748924E+02  0.00000000000E+00 0. -1.
<mgrwt>
<rscale>  2 0.36259075E+02</rscale>
<asrwt>0</asrwt>
<pdfrwt beam="1">  1       21 0.13989460E-01 0.36259075E+02</pdfrwt>
<pdfrwt beam="2">  1       21 0.31113859E+00 0.36259075E+02</pdfrwt>
<totfact> 0.20287834E+03</totfact>
</mgrwt>
</event>
<event>
 4    1  0.4505197E+006  0.2125525E+02  0.7546771E-02  0.1721460E+00
         21   -1    0    0  502  501  0.00000000000E+00  0.00000000000E+00  0.12677614416E+03  0.12677614416E+03  0.00000000000E+00 0. -1.
         21   -1    0    0  504  502 -0.00000000000E+00 -0.00000000000E+00 -0.37611438726E+01  0.37611438726E+01  0.00000000000E+00 0. -1.
         21    1    1    2  503  501 -0.15962170574E+01  0.21195224382E+02  0.76463813562E+02  0.79363091107E+02  0.00000000000E+00 0. -1.
         21    1    1    2  504  503  0.15962170574E+01 -0.21195224382E+02  0.46551186726E+02  0.51174196927E+02  0.00000000000E+00 0. -1.
<mgrwt>
<rscale>  2 0.21255245E+02</rscale>
<asrwt>0</asrwt>
<pdfrwt beam="1">  1       21 0.19504019E-01 0.21255245E+02</pdfrwt>
<pdfrwt beam="2">  1       21 0.57863762E-03 0.21255245E+02</pdfrwt>
<totfact> 0.14215601E+08</totfact>
</mgrwt>
</event>
<event>
 4    1  0.4505197E+006  0.3562113E+02  0.7546771E-02  0.1543153E+00
         21   -1    0    0  502  501  0.00000000000E+00  0.00000000000E+00  0.12273857701E+03  0.12273857701E+03  0.00000000000E+00 0.  1.
         21   -1    0    0  504  502 -0.00000000000E+00 -0.00000000000E+00 -0.23352593433E+02  0.23352593433E+02  0.00000000000E+00 0. -1.
         21    1    1    2  503  501 -0.23368872563E+02 -0.26884210068E+02  0.10422388278E+03  0.11014301021E+03  0.00000000000E+00 0.  1.
         21    1    1    2  504  503  0.23368872563E+02  0.26884210068E+02 -0.48378992005E+01  0.35948160238E+02  0.00000000000E+00 0. -1.
<mgrwt>
<rscale>  2 0.35621131E+02</rscale>
<asrwt>0</asrwt>
<pdfrwt beam="1">  1       21 0.18882858E-01 0.35621131E+02</pdfrwt>
<pdfrwt beam="2">  1       21 0.35927067E-02 0.35621131E+02</pdfrwt>
<totfact> 0.10309886E+07</totfact>
</mgrwt>
</event>
<event>
 4    1  0.4505197E+006  0.2273344E+02  0.7546771E-02  0.1695868E+00
         21   -1    0    0  502  501  0.00000000000E+00  0.00000000000E+00  0.20290790171E+02  0.20290790171E+02  0.00000000000E+00 0. -1.
         21   -1    0    0  504  502 -0.00000000000E+00 -0.00000000000E+00 -0.35110610734E+02  0.35110610734E+02  0.00000000000E+00 0.  1.
         21    1    1    2  503  501 -0.18311137932E+02 -0.13472623625E+02  0.71052078826E+01  0.23817920539E+02  0.00000000000E+00 0. -1.
         21    1    1    2  504  503  0.18311137932E+02  0.13472623625E+02 -0.21925028446E+02  0.31583480367E+02  0.00000000000E+00 0.  1.
<mgrwt>
<rscale>  2 0.22733441E+02</rscale>
<asrwt>0</asrwt>
<pdfrwt beam="1">  1       21 0.31216601E-02 0.22733441E+02</pdfrwt>
<pdfrwt beam="2">  1       21 0.54016323E-02 0.22733441E+02</pdfrwt>
<totfact> 0.94924778E+07</totfact>
</mgrwt>
</event>
<event>
 4    1  0.4505197E+006  0.3076168E+02  0.7546771E-02  0.1589819E+00
         21   -1    0    0  504  501  0.00000000000E+00  0.00000000000E+00  0.42273426449E+02  0.42273426449E+02  0.00000000000E+00 0.  1.
         21   -1    0    0  503  502 -0.00000000000E+00 -0.00000000000E+00 -0.40271012139E+02  0.40271012139E+02  0.00000000000E+00 0.  1.
         21    1    1    2  503  501 -0.28553182964E+02 -0.11445391140E+02 -0.26504385977E+02  0.40604971515E+02  0.00000000000E+00 0.  1.
         21    1    1    2  504  502  0.28553182964E+02  0.11445391140E+02  0.28506800288E+02  0.41939467073E+02  0.00000000000E+00 0.  1.
<mgrwt>
<rscale>  2 0.30761685E+02</rscale>
<asrwt>0</asrwt>
<pdfrwt beam="1">  1       21 0.65036041E-02 0.30761685E+02</pdfrwt>
<pdfrwt beam="2">  1       21 0.61955403E-02 0.30761685E+02</pdfrwt>
<totfact> 0.25400147E+07</totfact>
</mgrwt>
</event>
<event>
 4    1  0.4505197E+006  0.2023553E+02  0.7546771E-02  0.1740684E+00
         21   -1    0    0  503  501  0.00000000000E+00  0.00000000000E+00  0.65692497788E+00  0.65692497788E+00  0.00000000000E+00 0. -1.
         21   -1    0    0  504  502 -0.00000000000E+00 -0.00000000000E+00 -0.63327301467E+03  0.63327301467E+03  0.00000000000E+00 0. -1.
         21    1    1    2  503  502 -0.16473294363E+02 -0.11751899644E+02 -0.27657759306E+03  0.27731686129E+03  0.00000000000E+00 0. -1.
         21    1    1    2  504  501  0.16473294363E+02  0.11751899644E+02 -0.35603849663E+03  0.35661307836E+03  0.00000000000E+00 0. -1.
<mgrwt>
<rscale>  2 0.20235527E+02</rscale>
<asrwt>0</asrwt>
<pdfrwt beam="1">  1       21 0.10106528E-03 0.20235527E+02</pdfrwt>
<pdfrwt beam="2">  1       21 0.97426715E-01 0.20235527E+02</pdfrwt>
<totfact> 0.80335937E+07</totfact>
</mgrwt>
</event>
<event>
 4    1  0.4505197E+006  0.2162278E+02  0.7546771E-02  0.1714859E+00
         21   -1    0    0  502  501  0.00000000000E+00  0.00000000000E+00  0.18978334387E+02  0.18978334387E+02  0.00000000000E+00 0. -1.
         21   -1    0    0  503  502 -0.00000000000E+00 -0.00000000000E+00 -0.40728548289E+03  0.40728548289E+03  0.00000000000E+00 0. -1.
         21    1    1    2  503  504 -0.30869809256E+01 -0.21401286227E+02 -0.40073903161E+03  0.40132196048E+03  0.00000000000E+00 0. -1.
         21    1    1    2  504  501  0.30869809256E+01  0.21401286227E+02  0.12431883104E+02  0.24941856806E+02  0.00000000000E+00 0. -1.
<mgrwt>
<rscale>  2 0.21622777E+02</rscale>
<asrwt>0</asrwt>
<pdfrwt beam="1">  1       21 0.29197439E-02 0.21622777E+02</pdfrwt>
<pdfrwt beam="2">  1       21 0.62659301E-01 0.21622777E+02</pdfrwt>
<totfact> 0.14194585E+06</totfact>
</mgrwt>
</event>
<event>
 4    1  0.4505197E+006  0.2253216E+02  0.7546771E-02  0.1699208E+00
         21   -1    0    0  504  501  0.00000000000E+00  0.00000000000E+00  0.15053481420E+02  0.15053481420E+02  0.00000000000E+00 0.  1.
         21   -1    0    0  503  502 -0.00000000000E+00 -0.00000000000E+00 -0.27276867945E+03  0.27276867945E+03  0.00000000000E+00 0.  1.
         21    1    1    2  503  501  0.11503840217E+02  0.19374204495E+02 -0.26357833298E+03  0.26453966764E+03  0.00000000000E+00 0.  1.
         21    1    1    2  504  502 -0.11503840217E+02 -0.19374204495E+02  0.58631349489E+01  0.23282493230E+02  0.00000000000E+00 0.  1.
<mgrwt>
<rscale>  2 0.22532158E+02</rscale>
<asrwt>0</asrwt>
<pdfrwt beam="1">  1       21 0.23159204E-02 0.22532158E+02</pdfrwt>
<pdfrwt beam="2">  1       21 0.41964410E-01 0.22532158E+02</pdfrwt>
<totfact> 0.44600374E+06</totfact>
</mgrwt>
</event>
<event>
 4    1  0.4505197E+006  0.2034586E+02  0.7546771E-02  0.1738536E+00
         21   -1    0    0  504  501  0.00000000000E+00  0.00000000000E+00  0.12568120626E+02  0.12568120626E+02  0.00000000000E+00 0. -1.
         21   -1    0    0  503  502 -0.00000000000E+00 -0.00000000000E+00 -0.42197147971E+02  0.42197147971E+02  0.00000000000E+00 0. -1.
         21    1    1    2  503  501  0.85430210511E+01 -0.18465392669E+02 -0.27642156105E+02  0.34322627074E+02  0.00000000000E+00 0. -1.
         21    1    1    2  504  502 -0.85430210511E+01  0.18465392669E+02 -0.19868712399E+01  0.20442641523E+02  0.00000000000E+00 0. -1.
<mgrwt>
<rscale>  2 0.20345858E+02</rscale>
<asrwt>0</asrwt>
<pdfrwt beam="1">  1       21 0.19335571E-02 0.20345858E+02</pdfrwt>
<pdfrwt beam="2">  1       21 0.64918688E-02 0.20345858E+02</pdfrwt>
<totfact> 0.14319798E+08</totfact>
</mgrwt>
</event>
<event>
 4    1  0.4505197E+006  0.2575541E+02  0.7546771E-02  0.1650383E+00
         21   -1    0    0  504  501  0.00000000000E+00  0.00000000000E+00  0.12656882960E+01  0.12656882960E+01  0.00000000000E+00 0.  1.
         21   -1    0    0  503  502 -0.00000000000E+00 -0.00000000000E+00 -0.61207912312E+03  0.61207912312E+03  0.00000000000E+00 0.  1.
         21    1    1    2  503  501  0.58160157684E+01  0.25090138261E+02 -0.18913536059E+03  0.19088092022E+03  0.00000000000E+00 0.  1.
         21    1    1    2  504  502 -0.58160157684E+01 -0.25090138261E+02 -0.42167807423E+03  0.42246389120E+03  0.00000000000E+00 0.  1.
<mgrwt>
<rscale>  2 0.25755409E+02</rscale>
<asrwt>0</asrwt>
<pdfrwt beam="1">  1       21 0.19472109E-03 0.25755409E+02</pdfrwt>
<pdfrwt beam="2">  1       21 0.94166108E-01 0.25755409E+02</pdfrwt>
<totfact> 0.35659567E+07</totfact>
</mgrwt>
</event>
<event>
 4    1  0.4505197E+006  0.2018767E+02  0.7546771E-02  0.1741622E+00
         21   -1    0    0  504  501  0.00000000000E+00  0.00000000000E+00  0.12839555825E+04  0.12839555825E+04  0.00000000000E+00 0.  1.
         21   -1    0    0  503  502 -0.00000000000E+00 -0.00000000000E+00 -0.92567495460E+00  0.92567495460E+00  0.00000000000E+00 0.  1.
         21    1    1    2  503  501 -0.13225367090E+02 -0.15252266220E+02  0.12074047921E+03  0.12241652372E+03  0.00000000000E+00 0.  1.
         21    1    1    2  504  502  0.13225367090E+02  0.15252266220E+02  0.11622894283E+04  0.11624647337E+04  0.00000000000E+00 0.  1.
<mgrwt>
<rscale>  2 0.20187669E+02</rscale>
<asrwt>0</asrwt>
<pdfrwt beam="1">  1       21 0.19753020E+00 0.20187669E+02</pdfrwt>
<pdfrwt beam="2">  1       21 0.14241256E-03 0.20187669E+02</pdfrwt>
<totfact> 0.95267217E+06</totfact>
</mgrwt>
</event>
<event>
 4    1  0.4505197E+006  0.2634652E+02  0.7546771E-02  0.1642382E+00
         21   -1    0    0  502  501  0.00000000000E+00  0.00000000000E+00  0.97812855369E+02  0.97812855369E+02  0.00000000000E+00 0. -1.
         21   -1    0    0  503  502 -0.00000000000E+00 -0.00000000000E+00 -0.11357420867E+02  0.11357420867E+02  0.00000000000E+00 0. -1.
         21    1    1    2  503  504  0.21792205194E+02 -0.14806721349E+02  0.97942872552E+01  0.28108135248E+02  0.00000000000E+00 0. -1.
         21    1    1    2  504  501 -0.21792205194E+02  0.14806721349E+02  0.76661147247E+02  0.81062140988E+02  0.00000000000E+00 0. -1.
<mgrwt>
<rscale>  2 0.26346522E+02</rscale>
<asrwt>0</asrwt>
<pdfrwt beam="1">  1       21 0.15048131E-01 0.26346522E+02</pdfrwt>
<pdfrwt beam="2">  1       21 0.17472956E-02 0.26346522E+02</pdfrwt>
<totfact> 0.44615104E+07</totfact>
</mgrwt>
</event>
<event>
 4    1  0.4505197E+006  0.2389116E+02  0.7546771E-02  0.1677459E+00
         21   -1    0    0  503  501  0.00000000000E+00  0.00000000000E+00  0.49248111476E+01  0.49248111476E+01  0.00000000000E+00 0.  1.
         21   -1    0    0  501  502 -0.00000000000E+00 -0.00000000000E+00 -0.61195125103E+03  0.61195125103E+03  0.00000000000E+00 0. -1.
         21    1    1    2  503  504 -0.23563660220E+02  0.39422570252E+01 -0.25815305693E+02  0.35174102426E+02  0.00000000000E+00 0.  1.
         21    1    1    2  504  502  0.23563660220E+02 -0.39422570252E+01 -0.58121113419E+03  0.58170195975E+03  0.00000000000E+00 0. -1.
<mgrwt>
<rscale>  2 0.23891159E+02</rscale>
<asrwt>0</asrwt>
<pdfrwt beam="1">  1       21 0.75766299E-03 0.23891159E+02</pdfrwt>
<pdfrwt beam="2">  1       21 0.94146380E-01 0.23891159E+02</pdfrwt>
<totfact> 0.47841857E+06</totfact>
</mgrwt>
</event>
<event>
 4    1  0.4505197E+006  0.2006667E+02  0.7546771E-02  0.1744005E+00
         21   -1    0    0  502  501  0.00000000000E+00  0.00000000000E+00  0.41484600539E+02  0.41484600539E+02  0.00000000000E+00 0. -1.
         21   -1    0    0  503  502 -0.00000000000E+00 -0.00000000000E+00 -0.21285988819E+02  0.21285988819E+02  0.00000000000E+00 0. -1.
         21    1    1    2  503  504 -0.16328033742E+02 -0.11664758548E+02 -0.13049230490E+02  0.23936451162E+02  0.00000000000E+00 0. -1.
         21    1    1    2  504  501  0.16328033742E+02  0.11664758548E+02  0.33247842210E+02  0.38834138197E+02  0.00000000000E+00 0. -1.
<mgrwt>
<rscale>  2 0.20066671E+02</rscale>
<asrwt>0</asrwt>
<pdfrwt beam="1">  1       21 0.63822463E-02 0.20066671E+02</pdfrwt>
<pdfrwt beam="2">  1       21 0.32747675E-02 0.20066671E+02</pdfrwt>
<totfact> 0.65120408E+07</totfact>
</mgrwt>
</event>
<event>
 4    1  0.4505197E+006  0.3951166E+02  0.7546771E-02  0.1511836E+00
         21   -1    0    0  504  501  0.00000000000E+00  0.00000000000E+00  0.31169774814E+02  0.31169774814E+02  0.00000000000E+00 0. -1.
         21   -1    0    0  503  502 -0.00000000000E+00 -0.00000000000E+00 -0.78132713869E+02  0.78132713869E+02  0.00000000000E+00 0.  1.
         21    1    1    2  503  501 -0.22398250141E+02 -0.32549802754E+02  0.92619560831E+01  0.40582694578E+02  0.00000000000E+00 0. -1.
         21    1    1    2  504  502  0.22398250141E+02  0.32549802754E+02 -0.56224895138E+02  0.68719794106E+02  0.00000000000E+00 0.  1.
<mgrwt>
<rscale>  2 0.39511660E+02</rscale>
<asrwt>0</asrwt>
<pdfrwt beam="1">  1       21 0.47953500E-02 0.39511660E+02</pdfrwt>
<pdfrwt beam="2">  1       21 0.12020417E-01 0.39511660E+02</pdfrwt>
<totfact> 0.14420007E+07</totfact>
</mgrwt>
</event>
<event>
 4    1  0.4505197E+006  0.2837743E+02  0.7546771E-02  0.1616749E+00
         21   -1    0    0  503  501  0.00000000000E+00  0.00000000000E+00  0.10624580172E+03  0.10624580172E+03  0.00000000000E+00 0. -1.
         21   -1    0    0  504  502 -0.00000000000E+00 -0.00000000000E+00 -0.75879685394E+01  0.75879685394E+01  0.00000000000E+00 0. -1.
         21    1    1    2  503  502  0.26184284010E+02 -0.10939009146E+02  0.51242368544E+02  0.58575242075E+02  0.00000000000E+00 0. -1.
         21    1    1    2  504  501 -0.26184284010E+02  0.10939009146E+02  0.47415464632E+02  0.55258528179E+02  0.00000000000E+00 0. -1.
<mgrwt>
<rscale>  2 0.28377432E+02</rscale>
<asrwt>0</asrwt>
<pdfrwt beam="1">  1       21 0.16345507E-01 0.28377432E+02</pdfrwt>
<pdfrwt beam="2">  1       21 0.11673799E-02 0.28377432E+02</pdfrwt>
<totfact> 0.72901671E+07</totfact>
</mgrwt>
</event>
<event>
 4    1  0.4505197E+006  0.2162008E+02  0.7546771E-02  0.1714907E+00
         21   -1    0    0  503  501  0.00000000000E+00  0.00000000000E+00  0.12141717899E+01  0.12141717899E+01  0.00000000000E+00 0.  1.
         21   -1    0    0  504  502 -0.00000000000E+00 -0.00000000000E+00 -0.57735925567E+03  0.57735925567E+03  0.00000000000E+00 0.  1.
         21    1    1    2  503  502  0.21615352330E+02 -0.45209755825E+00 -0.12108338699E+03  0.12299843273E+03  0.00000000000E+00 0.  1.
         21    1    1    2  504  501 -0.21615352330E+02  0.45209755825E+00 -0.45506169689E+03  0.45557499473E+03  0.00000000000E+00 0.  1.
<mgrwt>
<rscale>  2 0.21620080E+02</rscale>
<asrwt>0</asrwt>
<pdfrwt beam="1">  1       21 0.18679570E-03 0.21620080E+02</pdfrwt>
<pdfrwt beam="2">  1       21 0.88824481E-01 0.21620080E+02</pdfrwt>
<totfact> 0.41390933E+07</totfact>
</mgrwt>
</event>
<event>
 4    1  0.4505197E+006  0.2577136E+02  0.7546771E-02  0.1650164E+00
         21   -1    0    0  502  501  0.00000000000E+00  0.00000000000E+00  0.91780765999E+01  0.91780765999E+01  0.00000000000E+00 0. -1.
         21   -1    0    0  503  502 -0.00000000000E+00 -0.00000000000E+00 -0.84197994509E+02  0.84197994509E+02  0.00000000000E+00 0.  1.
         21    1    1    2  503  504  0.25540908099E+02 -0.34387305955E+01 -0.20006681776E+02  0.32625606053E+02  0.00000000000E+00 0.  1.
         21    1    1    2  504  501 -0.25540908099E+02  0.34387305955E+01 -0.55013236133E+02  0.60750465056E+02  0.00000000000E+00 0. -1.
<mgrwt>
<rscale>  2 0.25771357E+02</rscale>
<asrwt>0</asrwt>
<pdfrwt beam="1">  1       21 0.14120118E-02 0.25771357E+02</pdfrwt>
<pdfrwt beam="2">  1       21 0.12953538E-01 0.25771357E+02</pdfrwt>
<totfact> 0.79336370E+07</totfact>
</mgrwt>
</event>
<event>
 4    1  0.4505197E+006  0.4699827E+02  0.7546771E-02  0.1462239E+00
         21   -1    0    0  504  501  0.00000000000E+00  0.00000000000E+00  0.62248178996E+02  0.62248178996E+02  0.00000000000E+00 0. -1.
         21   -1    0    0  501  502 -0.00000000000E+00 -0.00000000000E+00 -0.82871684054E+02  0.82871684054E+02  0.00000000000E+00 0.  1.
         21    1    1    2  503  502 -0.16102310690E+02 -0.44153738734E+02 -0.65180475862E+02  0.80357522905E+02  0.00000000000E+00 0.  1.
         21    1    1    2  504  503  0.16102310690E+02  0.44153738734E+02  0.44556970804E+02  0.64762340145E+02  0.00000000000E+00 0. -1.
<mgrwt>
<rscale>  2 0.46998266E+02</rscale>
<asrwt>0</asrwt>
<pdfrwt beam="1">  1       21 0.95766430E-02 0.46998266E+02</pdfrwt>
<pdfrwt beam="2">  1       21 0.12749490E-01 0.46998266E+02</pdfrwt>
<totfact> 0.42366965E+06</totfact>
</mgrwt>
</event>
<event>
 4    1  0.4505197E+006  0.2957048E+02  0.7546771E-02  0.1602886E+00
         21   -1    0    0  504  501  0.00000000000E+00  0.00000000000E+00  0.47775451714E+03  0.47775451714E+03  0.00000000000E+00 0.  1.
         21   -1    0    0  503  502 -0.00000000000E+00 -0.00000000000E+00 -0.42908393790E+01  0.42908393790E+01  0.00000000000E+00 0. -1.
         21    1    1    2  503  501 -0.14712643623E+02  0.25650562700E+02  0.54213801808E+02  0.61753943645E+02  0.00000000000E+00 0. -1.
         21    1    1    2  504  502  0.14712643623E+02 -0.25650562700E+02  0.41924987595E+03  0.42029141287E+03  0.00000000000E+00 0.  1.
<mgrwt>
<rscale>  2 0.29570479E+02</rscale>
<asrwt>0</asrwt>
<pdfrwt beam="1">  1       21 0.73500653E-01 0.29570479E+02</pdfrwt>
<pdfrwt beam="2">  1       21 0.66012951E-03 0.29570479E+02</pdfrwt>
<totfact> 0.10256406E+07</totfact>
</mgrwt>
</event>
<event>
 4    1  0.4505197E+006  0.2227958E+02  0.7546771E-02  0.1703461E+00
         21   -1    0    0  504  501  0.00000000000E+00  0.00000000000E+00  0.74937293511E+03  0.74937293511E+03  0.00000000000E+00 0.  1.
         21   -1    0    0  503  502 -0.00000000000E+00 -0.00000000000E+00 -0.23658040478E+01  0.23658040478E+01  0.00000000000E+00 0.  1.
         21    1    1    2  503  501 -0.11172329889E+02  0.19275853202E+02  0.54564831828E+02  0.58938106046E+02  0.00000000000E+00 0.  1.
         21    1    1    2  504  502  0.11172329889E+02 -0.19275853202E+02  0.69244229924E+03  0.69280063311E+03  0.00000000000E+00 0.  1.
<mgrwt>
<rscale>  2 0.22279575E+02</rscale>
<asrwt>0</asrwt>
<pdfrwt beam="1">  1       21 0.11528795E+00 0.22279575E+02</pdfrwt>
<pdfrwt beam="2">  1       21 0.36397045E-03 0.22279575E+02</pdfrwt>
<totfact> 0.89452823E+06</totfact>
</mgrwt>
</event>
<event>
 4    1  0.4505197E+006  0.2030930E+02  0.7546771E-02  0.1739246E+00
         21   -1    0    0  503  501  0.00000000000E+00  0.00000000000E+00  0.16973669605E+02  0.16973669605E+02  0.00000000000E+00 0.  1.
         21   -1    0    0  504  502 -0.00000000000E+00 -0.00000000000E+00 -0.31860539023E+02  0.31860539023E+02  0.00000000000E+00 0. -1.
         21    1    1    2  503  502  0.18146393635E+02  0.91200965402E+01  0.44506528937E+01  0.20791249939E+02  0.00000000000E+00 0.  1.
         21    1    1    2  504  501 -0.18146393635E+02 -0.91200965402E+01 -0.19337522312E+02  0.28042958689E+02  0.00000000000E+00 0. -1.
<mgrwt>
<rscale>  2 0.20309302E+02</rscale>
<asrwt>0</asrwt>
<pdfrwt beam="1">  1       21 0.26113338E-02 0.20309302E+02</pdfrwt>
<pdfrwt beam="2">  1       21 0.49016213E-02 0.20309302E+02</pdfrwt>
<totfact> 0.14125856E+08</totfact>
</mgrwt>
</event>
<event>
 4    1  0.4505197E+006  0.2182800E+02  0.7546771E-02  0.1711244E+00
         21   -1    0    0  503  501  0.00000000000E+00  0.00000000000E+00  0.21795485331E+03  0.21795485331E+03  0.00000000000E+00 0. -1.
         21   -1    0    0  504  502 -0.00000000000E+00 -0.00000000000E+00 -0.49574738788E+02  0.49574738788E+02  0.00000000000E+00 0.  1.
         21    1    1    2  503  502  0.18285428488E+02  0.11920758287E+02  0.21497234680E+03  0.21607769728E+03  0.00000000000E+00 0. -1.
         21    1    1    2  504  501 -0.18285428488E+02 -0.11920758287E+02 -0.46592232271E+02  0.51451894825E+02  0.00000000000E+00 0.  1.
<mgrwt>
<rscale>  2 0.21827995E+02</rscale>
<asrwt>0</asrwt>
<pdfrwt beam="1">  1       21 0.33531515E-01 0.21827995E+02</pdfrwt>
<pdfrwt beam="2">  1       21 0.76268830E-02 0.21827995E+02</pdfrwt>
<totfact> 0.10283568E+06</totfact>
</mgrwt>
</event>
<event>
 4    1  0.4505197E+006  0.3016383E+02  0.7546771E-02  0.1596285E+00
         21   -1    0    0  504  501  0.00000000000E+00  0.00000000000E+00  0.13702097673E+02  0.13702097673E+02  0.00000000000E+00 0. -1.
         21   -1    0    0  503  502 -0.00000000000E+00 -0.00000000000E+00 -0.39483756034E+03  0.39483756034E+03  0.00000000000E+00 0. -1.
         21    1    1    2  503  501  0.29751632300E+02  0.49695965965E+01 -0.37687062817E+03  0.37807582162E+03  0.00000000000E+00 0. -1.
         21    1    1    2  504  502 -0.29751632300E+02 -0.49695965965E+01 -0.42648344999E+01  0.30463836399E+02  0.00000000000E+00 0. -1.
<mgrwt>
<rscale>  2 0.30163828E+02</rscale>
<asrwt>0</asrwt>
<pdfrwt beam="1">  1       21 0.21080154E-02 0.30163828E+02</pdfrwt>
<pdfrwt beam="2">  1       21 0.60744229E-01 0.30163828E+02</pdfrwt>
<totfact> 0.25954452E+06</totfact>
</mgrwt>
</event>
<event>
 4    1  0.4505197E+006  0.2797652E+02  0.7546771E-02  0.1621597E+00
         21   -1    0    0  504  501  0.00000000000E+00  0.00000000000E+00  0.27205355738E+01  0.27205355738E+01  0.00000000000E+00 0. -1.
         21   -1    0    0  503  502 -0.00000000000E+00 -0.00000000000E+00 -0.29085366388E+03  0.29085366388E+03  0.00000000000E+00 0. -1.
         21    1    1    2  503  501 -0.35972203271E+01 -0.27744286308E+02 -0.15936259325E+03  0.16179963395E+03  0.00000000000E+00 0. -1.
         21    1    1    2  504  502  0.35972203271E+01  0.27744286308E+02 -0.12877053505E+03  0.13177456551E+03  0.00000000000E+00 0. -1.
<mgrwt>
<rscale>  2 0.27976515E+02</rscale>
<asrwt>0</asrwt>
<pdfrwt beam="1">  1       21 0.41854379E-03 0.27976515E+02</pdfrwt>
<pdfrwt beam="2">  1       21 0.44746733E-01 0.27976515E+02</pdfrwt>
<totfact> 0.54104778E+07</totfact>
</mgrwt>
</event>
<event>
 4    1  0.4505197E+006  0.3752972E+02  0.7546771E-02  0.1527219E+00
         21   -1    0    0  503  501  0.00000000000E+00  0.00000000000E+00  0.51837543163E+02  0.51837543163E+02  0.00000000000E+00 0.  1.
         21   -1    0    0  504  502 -0.00000000000E+00 -0.00000000000E+00 -0.28080524275E+02  0.28080524275E+02  0.00000000000E+00 0.  1.
         21    1    1    2  503  502 -0.31827327381E+02 -0.19887208124E+02  0.19069862822E+02  0.42096787090E+02  0.00000000000E+00 0.  1.
         21    1    1    2  504  501  0.31827327381E+02  0.19887208124E+02  0.46871560661E+01  0.37821280348E+02  0.00000000000E+00 0.  1.
<mgrwt>
<rscale>  2 0.37529719E+02</rscale>
<asrwt>0</asrwt>
<pdfrwt beam="1">  1       21 0.79750066E-02 0.37529719E+02</pdfrwt>
<pdfrwt beam="2">  1       21 0.43200807E-02 0.37529719E+02</pdfrwt>
<totfact> 0.33786466E+07</totfact>
</mgrwt>
</event>
<event>
 4    1  0.4505197E+006  0.2691897E+02  0.7546771E-02  0.1634876E+00
         21   -1    0    0  503  501  0.00000000000E+00  0.00000000000E+00  0.52215740911E+01  0.52215740911E+01  0.00000000000E+00 0. -1.
         21   -1    0    0  504  502 -0.00000000000E+00 -0.00000000000E+00 -0.11052471054E+04  0.11052471054E+04  0.00000000000E+00 0.  1.
         21    1    1    2  503  502 -0.17362425946E+02  0.20571266722E+02 -0.30805226602E+02  0.40909568995E+02  0.00000000000E+00 0. -1.
         21    1    1    2  504  501  0.17362425946E+02 -0.20571266722E+02 -0.10692203047E+04  0.10695591105E+04  0.00000000000E+00 0.  1.
<mgrwt>
<rscale>  2 0.26918968E+02</rscale>
<asrwt>0</asrwt>
<pdfrwt beam="1">  1       21 0.80331916E-03 0.26918968E+02</pdfrwt>
<pdfrwt beam="2">  1       21 0.17003800E+00 0.26918968E+02</pdfrwt>
<totfact> 0.11339864E+06</totfact>
</mgrwt>
</event>
<event>
 4    1  0.4505197E+006  0.2683822E+02  0.7546771E-02  0.1635921E+00
         21   -1    0    0  503  501  0.00000000000E+00  0.00000000000E+00  0.15963611380E+03  0.15963611380E+03  0.00000000000E+00 0. -1.
         21   -1    0    0  504  502 -0.00000000000E+00 -0.00000000000E+00 -0.50885687609E+01  0.50885687609E+01  0.00000000000E+00 0. -1.
         21    1    1    2  503  502 -0.24441838256E+02 -0.11085433999E+02  0.49551570339E+02  0.56352891916E+02  0.00000000000E+00 0. -1.
         21    1    1    2  504  501  0.24441838256E+02  0.11085433999E+02  0.10499597470E+03  0.10837179064E+03  0.00000000000E+00 0. -1.
<mgrwt>
<rscale>  2 0.26838225E+02</rscale>
<asrwt>0</asrwt>
<pdfrwt beam="1">  1       21 0.24559398E-01 0.26838225E+02</pdfrwt>
<pdfrwt beam="2">  1       21 0.78285685E-03 0.26838225E+02</pdfrwt>
<totfact> 0.64252975E+07</totfact>
</mgrwt>
</event>
<event>
 4    1  0.4505197E+006  0.2046268E+02  0.7546771E-02  0.1736281E+00
         21   -1    0    0  504  501  0.00000000000E+00  0.00000000000E+00  0.19570362879E+03  0.19570362879E+03  0.00000000000E+00 0. -1.
         21   -1    0    0  503  502 -0.00000000000E+00 -0.00000000000E+00 -0.74653236617E+01  0.74653236617E+01  0.00000000000E+00 0. -1.
         21    1    1    2  503  501  0.89869999088E+01 -0.18383558822E+02  0.17992040083E+03  0.18108029169E+03  0.00000000000E+00 0. -1.
         21    1    1    2  504  502 -0.89869999088E+01  0.18383558822E+02  0.83179042918E+01  0.22088660759E+02  0.00000000000E+00 0. -1.
<mgrwt>
<rscale>  2 0.20462683E+02</rscale>
<asrwt>0</asrwt>
<pdfrwt beam="1">  1       21 0.30108247E-01 0.20462683E+02</pdfrwt>
<pdfrwt beam="2">  1       21 0.11485115E-02 0.20462683E+02</pdfrwt>
<totfact> 0.23518455E+07</totfact>
</mgrwt>
</event>
<event>
 4    1  0.4505197E+006  0.2429751E+02  0.7546771E-02  0.1671302E+00
         21   -1    0    0  503  501  0.00000000000E+00  0.00000000000E+00  0.14128965292E+03  0.14128965292E+03  0.00000000000E+00 0.  1.
         21   -1    0    0  501  502 -0.00000000000E+00 -0.00000000000E+00 -0.12265610277E+02  0.12265610277E+02  0.00000000000E+00 0.  1.
         21    1    1    2  503  504  0.14750448578E+02  0.19307853994E+02  0.12685516328E+03  0.12916114512E+03  0.00000000000E+00 0.  1.
         21    1    1    2  504  502 -0.14750448578E+02 -0.19307853994E+02  0.21688793679E+01  0.24394118078E+02  0.00000000000E+00 0.  1.
<mgrwt>
<rscale>  2 0.24297509E+02</rscale>
<asrwt>0</asrwt>
<pdfrwt beam="1">  1       21 0.21736869E-01 0.24297509E+02</pdfrwt>
<pdfrwt beam="2">  1       21 0.18870171E-02 0.24297509E+02</pdfrwt>
<totfact> 0.20570995E+07</totfact>
</mgrwt>
</event>
<event>
 4    1  0.4505197E+006  0.3568249E+02  0.7546771E-02  0.1542622E+00
         21   -1    0    0  504  501  0.00000000000E+00  0.00000000000E+00  0.49679714420E+01  0.49679714420E+01  0.00000000000E+00 0.  1.
         21   -1    0    0  503  502 -0.00000000000E+00 -0.00000000000E+00 -0.13055890143E+04  0.13055890143E+04  0.00000000000E+00 0.  1.
         21    1    1    2  503  501  0.20907374271E+02  0.28915769688E+02 -0.62858557807E+02  0.72280276183E+02  0.00000000000E+00 0.  1.
         21    1    1    2  504  502 -0.20907374271E+02 -0.28915769688E+02 -0.12377624851E+04  0.12382767096E+04  0.00000000000E+00 0.  1.
<mgrwt>
<rscale>  2 0.35682489E+02</rscale>
<asrwt>0</asrwt>
<pdfrwt beam="1">  1       21 0.76430242E-03 0.35682489E+02</pdfrwt>
<pdfrwt beam="2">  1       21 0.20086008E+00 0.35682489E+02</pdfrwt>
<totfact> 0.80257090E+05</totfact>
</mgrwt>
</event>
<event>
 4    1  0.4505197E+006  0.2469289E+02  0.7546771E-02  0.1665453E+00
         21   -1    0    0  503  501  0.00000000000E+00  0.00000000000E+00  0.34813081869E+01  0.34813081869E+01  0.00000000000E+00 0.  1.
         21   -1    0    0  501  502 -0.00000000000E+00 -0.00000000000E+00 -0.49188328110E+03  0.49188328110E+03  0.00000000000E+00 0.  1.
         21    1    1    2  503  504 -0.13193549410E+02 -0.20872684894E+02 -0.45448200343E+02  0.51723086094E+02  0.00000000000E+00 0.  1.
         21    1    1    2  504  502  0.13193549410E+02  0.20872684894E+02 -0.44295377257E+03  0.44364150320E+03  0.00000000000E+00 0.  1.
<mgrwt>
<rscale>  2 0.24692888E+02</rscale>
<asrwt>0</asrwt>
<pdfrwt beam="1">  1       21 0.53558648E-03 0.24692888E+02</pdfrwt>
<pdfrwt beam="2">  1       21 0.75674266E-01 0.24692888E+02</pdfrwt>
<totfact> 0.12804771E+07</totfact>
</mgrwt>
</event>
<event>
 4    1  0.4505197E+006  0.3505583E+02  0.7546771E-02  0.1548105E+00
         21   -1    0    0  503  501  0.00000000000E+00  0.00000000000E+00  0.26293828374E+02  0.26293828374E+02  0.00000000000E+00 0.  1.
         21   -1    0    0  504  502 -0.00000000000E+00 -0.00000000000E+00 -0.90267194738E+02  0.90267194738E+02  0.00000000000E+00 0.  1.
         21    1    1    2  503  502 -0.50348663885E+01 -0.34692378528E+02  0.84849364815E+01  0.36068062806E+02  0.00000000000E+00 0.  1.
         21    1    1    2  504  501  0.50348663885E+01  0.34692378528E+02 -0.72458302846E+02  0.80492960306E+02  0.00000000000E+00 0.  1.
<mgrwt>
<rscale>  2 0.35055827E+02</rscale>
<asrwt>0</asrwt>
<pdfrwt beam="1">  1       21 0.40452043E-02 0.35055827E+02</pdfrwt>
<pdfrwt beam="2">  1       21 0.13887261E-01 0.35055827E+02</pdfrwt>
<totfact> 0.14536414E+07</totfact>
</mgrwt>
</event>
<event>
 4    1  0.4505197E+006  0.3083984E+02  0.7546771E-02  0.1588987E+00
         21   -1    0    0  503  501  0.00000000000E+00  0.00000000000E+00  0.59483276417E+02  0.59483276417E+02  0.00000000000E+00 0. -1.
         21   -1    0    0  504  502 -0.00000000000E+00 -0.00000000000E+00 -0.16034905535E+02  0.16034905535E+02  0.00000000000E+00 0. -1.
         21    1    1    2  503  502 -0.10958826511E+02 -0.28827073171E+02  0.23737868622E+02  0.38917636526E+02  0.00000000000E+00 0. -1.
         21    1    1    2  504  501  0.10958826511E+02  0.28827073171E+02  0.19710502260E+02  0.36600545426E+02  0.00000000000E+00 0. -1.
<mgrwt>
<rscale>  2 0.30839845E+02</rscale>
<asrwt>0</asrwt>
<pdfrwt beam="1">  1       21 0.91512732E-02 0.30839845E+02</pdfrwt>
<pdfrwt beam="2">  1       21 0.24669086E-02 0.30839845E+02</pdfrwt>
<totfact> 0.62754416E+07</totfact>
</mgrwt>
</event>
<event>
 4    1  0.4505197E+006  0.2067798E+02  0.7546771E-02  0.1732172E+00
         21   -1    0    0  503  501  0.00000000000E+00  0.00000000000E+00  0.22856628634E+01  0.22856628634E+01  0.00000000000E+00 0.  1.
         21   -1    0    0  504  502 -0.00000000000E+00 -0.00000000000E+00 -0.39804391969E+03  0.39804391969E+03  0.00000000000E+00 0.  1.
         21    1    1    2  503  502 -0.16476985457E+02 -0.12493509669E+02 -0.52153267392E+02  0.56102960112E+02  0.00000000000E+00 0.  1.
         21    1    1    2  504  501  0.16476985457E+02  0.12493509669E+02 -0.34360498943E+03  0.34422662244E+03  0.00000000000E+00 0.  1.
<mgrwt>
<rscale>  2 0.20677979E+02</rscale>
<asrwt>0</asrwt>
<pdfrwt beam="1">  1       21 0.35164035E-03 0.20677979E+02</pdfrwt>
<pdfrwt beam="2">  1       21 0.61237541E-01 0.20677979E+02</pdfrwt>
<totfact> 0.35295322E+07</totfact>
</mgrwt>
</event>
<event>
 4    1  0.4505197E+006  0.3026876E+02  0.7546771E-02  0.1595137E+00
         21   -1    0    0  503  501  0.00000000000E+00  0.00000000000E+00  0.76276428522E+02  0.76276428522E+02  0.00000000000E+00 0. -1.
         21   -1    0    0  501  502 -0.00000000000E+00 -0.00000000000E+00 -0.45922309360E+02  0.45922309360E+02  0.00000000000E+00 0.  1.
         21    1    1    2  503  504  0.27705188469E+02  0.12191005649E+02  0.67681208891E+02  0.74141379295E+02  0.00000000000E+00 0. -1.
         21    1    1    2  504  502 -0.27705188469E+02 -0.12191005649E+02 -0.37327089728E+02  0.48057358588E+02  0.00000000000E+00 0.  1.
<mgrwt>
<rscale>  2 0.30268764E+02</rscale>
<asrwt>0</asrwt>
<pdfrwt beam="1">  1       21 0.11734835E-01 0.30268764E+02</pdfrwt>
<pdfrwt beam="2">  1       21 0.70649707E-02 0.30268764E+02</pdfrwt>
<totfact> 0.76772916E+06</totfact>
</mgrwt>
</event>
<event>
 4    1  0.4505197E+006  0.2336080E+02  0.7546771E-02  0.1685728E+00
         21   -1    0    0  503  501  0.00000000000E+00  0.00000000000E+00  0.29954193114E+02  0.29954193114E+02  0.00000000000E+00 0.  1.
         21   -1    0    0  501  502 -0.00000000000E+00 -0.00000000000E+00 -0.18476459388E+02  0.18476459388E+02  0.00000000000E+00 0.  1.
         21    1    1    2  503  504 -0.23293202131E+02  0.17758851420E+01  0.85989062194E+01  0.24893136036E+02  0.00000000000E+00 0.  1.
         21    1    1    2  504  502  0.23293202131E+02 -0.17758851420E+01  0.28788275072E+01  0.23537516465E+02  0.00000000000E+00 0.  1.
<mgrwt>
<rscale>  2 0.23360801E+02</rscale>
<asrwt>0</asrwt>
<pdfrwt beam="1">  1       21 0.46083374E-02 0.23360801E+02</pdfrwt>
<pdfrwt beam="2">  1       21 0.28425322E-02 0.23360801E+02</pdfrwt>
<totfact> 0.14256480E+08</totfact>
</mgrwt>
</event>
<event>
 4    1  0.4505197E+006  0.2263929E+02  0.7546771E-02  0.1697425E+00
         21   -1    0    0  504  501  0.00000000000E+00  0.00000000000E+00  0.17991874804E+02  0.17991874804E+02  0.00000000000E+00 0.  1.
         21   -1    0    0  501  502 -0.00000000000E+00 -0.00000000000E+00 -0.64586364865E+02  0.64586364865E+02  0.00000000000E+00 0. -1.
         21    1    1    2  503  502 -0.70888600187E+01 -0.21500824594E+02 -0.54165638647E+02  0.58706505642E+02  0.00000000000E+00 0. -1.
         21    1    1    2  504  503  0.70888600187E+01  0.21500824594E+02  0.75711485867E+01  0.23871734028E+02  0.00000000000E+00 0.  1.
<mgrwt>
<rscale>  2 0.22639289E+02</rscale>
<asrwt>0</asrwt>
<pdfrwt beam="1">  1       21 0.27679807E-02 0.22639289E+02</pdfrwt>
<pdfrwt beam="2">  1       21 0.99363641E-02 0.22639289E+02</pdfrwt>
<totfact> 0.42501853E+07</totfact>
</mgrwt>
</event>
<event>
 4    1  0.4505197E+006  0.3014749E+02  0.7546771E-02  0.1596464E+00
         21   -1    0    0  502  501  0.00000000000E+00  0.00000000000E+00  0.44229160859E+01  0.44229160859E+01  0.00000000000E+00 0.  1.
         21   -1    0    0  503  502 -0.00000000000E+00 -0.00000000000E+00 -0.21236076695E+03  0.21236076695E+03  0.00000000000E+00 0.  1.
         21    1    1    2  503  504 -0.14398519237E+02  0.26486856817E+02 -0.12346377100E+03  0.12709120226E+03  0.00000000000E+00 0.  1.
         21    1    1    2  504  501  0.14398519237E+02 -0.26486856817E+02 -0.84474079861E+02  0.89692480781E+02  0.00000000000E+00 0.  1.
<mgrwt>
<rscale>  2 0.30147486E+02</rscale>
<asrwt>0</asrwt>
<pdfrwt beam="1">  1       21 0.68044860E-03 0.30147486E+02</pdfrwt>
<pdfrwt beam="2">  1       21 0.32670889E-01 0.30147486E+02</pdfrwt>
<totfact> 0.48349398E+07</totfact>
</mgrwt>
</event>
<event>
 4    1  0.4505197E+006  0.2024111E+02  0.7546771E-02  0.1740575E+00
         21   -1    0    0  504  501  0.00000000000E+00  0.00000000000E+00  0.75924488659E+03  0.75924488659E+03  0.00000000000E+00 0.  1.
         21   -1    0    0  503  502 -0.00000000000E+00 -0.00000000000E+00 -0.67257268715E+00  0.67257268715E+00  0.00000000000E+00 0.  1.
         21    1    1    2  503  501 -0.19861806011E+02  0.39001550251E+01  0.21035182906E+03  0.21132343584E+03  0.00000000000E+00 0.  1.
         21    1    1    2  504  502  0.19861806011E+02 -0.39001550251E+01  0.54822048484E+03  0.54859402343E+03  0.00000000000E+00 0.  1.
<mgrwt>
<rscale>  2 0.20241110E+02</rscale>
<asrwt>0</asrwt>
<pdfrwt beam="1">  1       21 0.11680622E+00 0.20241110E+02</pdfrwt>
<pdfrwt beam="2">  1       21 0.10347333E-03 0.20241110E+02</pdfrwt>
<totfact> 0.52126675E+07</totfact>
</mgrwt>
</event>
<event>
 4    1  0.4505197E+006  0.2544851E+02  0.7546771E-02  0.1654642E+00
         21   -1    0    0  504  501  0.00000000000E+00  0.00000000000E+00  0.33091098168E+02  0.33091098168E+02  0.00000000000E+00 0.  1.
         21   -1    0    0  503  502 -0.00000000000E+00 -0.00000000000E+00 -0.20205429328E+02  0.20205429328E+02  0.00000000000E+00 0.  1.
         21    1    1    2  503  501  0.25180554681E+02  0.36832263322E+01  0.11164771693E+02  0.27789901353E+02  0.00000000000E+00 0.  1.
         21    1    1    2  504  502 -0.25180554681E+02 -0.36832263322E+01  0.17208971463E+01  0.25506626143E+02  0.00000000000E+00 0.  1.
<mgrwt>
<rscale>  2 0.25448507E+02</rscale>
<asrwt>0</asrwt>
<pdfrwt beam="1">  1       21 0.50909382E-02 0.25448507E+02</pdfrwt>
<pdfrwt beam="2">  1       21 0.31085276E-02 0.25448507E+02</pdfrwt>
<totfact> 0.10841394E+08</totfact>
</mgrwt>
</event>
<event>
 4    1  0.4505197E+006  0.2649261E+02  0.7546771E-02  0.1640444E+00
         21   -1    0    0  504  501  0.00000000000E+00  0.00000000000E+00  0.28023106171E+01  0.28023106171E+01  0.00000000000E+00 0. -1.
         21   -1    0    0  503  502 -0.00000000000E+00 -0.00000000000E+00 -0.16613840593E+04  0.16613840593E+04  0.00000000000E+00 0.  1.
         21    1    1    2  503  501 -0.26472262058E+02 -0.10380248552E+01 -0.15961034653E+04  0.15963233163E+04  0.00000000000E+00 0.  1.
         21    1    1    2  504  502  0.26472262058E+02  0.10380248552E+01 -0.62478283336E+02  0.67863053591E+02  0.00000000000E+00 0. -1.
<mgrwt>
<rscale>  2 0.26492606E+02</rscale>
<asrwt>0</asrwt>
<pdfrwt beam="1">  1       21 0.43112452E-03 0.26492606E+02</pdfrwt>
<pdfrwt beam="2">  1       21 0.25559766E+00 0.26492606E+02</pdfrwt>
<totfact> 0.96475104E+05</totfact>
</mgrwt>
</event>
<event>
 4    1  0.4505197E+006  0.2646798E+02  0.7546771E-02  0.1640770E+00
         21   -1    0    0  504  501  0.00000000000E+00  0.00000000000E+00  0.13115539583E+01  0.13115539583E+01  0.00000000000E+00 0.  1.
         21   -1    0    0  503  502 -0.00000000000E+00 -0.00000000000E+00 -0.54724793904E+03  0.54724793904E+03  0.00000000000E+00 0.  1.
         21    1    1    2  503  501 -0.83378035985E+01 -0.25120406796E+02 -0.23051951743E+03  0.23203405294E+03  0.00000000000E+00 0.  1.
         21    1    1    2  504  502  0.83378035985E+01  0.25120406796E+02 -0.31541686765E+03  0.31652544006E+03  0.00000000000E+00 0.  1.
<mgrwt>
<rscale>  2 0.26467977E+02</rscale>
<asrwt>0</asrwt>
<pdfrwt beam="1">  1       21 0.20177687E-03 0.26467977E+02</pdfrwt>
<pdfrwt beam="2">  1       21 0.84192265E-01 0.26467977E+02</pdfrwt>
<totfact> 0.43315247E+07</totfact>
</mgrwt>
</event>
<event>
 4    1  0.4505197E+006  0.2459621E+02  0.7546771E-02  0.1666870E+00
         21   -1    0    0  504  501  0.00000000000E+00  0.00000000000E+00  0.50482065920E+01  0.50482065920E+01  0.00000000000E+00 0.  1.
         21   -1    0    0  503  502 -0.00000000000E+00 -0.00000000000E+00 -0.34160706081E+03  0.34160706081E+03  0.00000000000E+00 0. -1.
         21    1    1    2  503  501 -0.16550835020E+02 -0.18194591576E+02 -0.28625342899E+02  0.37741006327E+02  0.00000000000E+00 0.  1.
         21    1    1    2  504  502  0.16550835020E+02  0.18194591576E+02 -0.30793351132E+03  0.30891426108E+03  0.00000000000E+00 0. -1.
<mgrwt>
<rscale>  2 0.24596205E+02</rscale>
<asrwt>0</asrwt>
<pdfrwt beam="1">  1       21 0.77664731E-03 0.24596205E+02</pdfrwt>
<pdfrwt beam="2">  1       21 0.52554922E-01 0.24596205E+02</pdfrwt>
<totfact> 0.15385937E+07</totfact>
</mgrwt>
</event>
<event>
 4    1  0.4505197E+006  0.2475804E+02  0.7546771E-02  0.1664502E+00
         21   -1    0    0  504  501  0.00000000000E+00  0.00000000000E+00  0.31771686252E+02  0.31771686252E+02  0.00000000000E+00 0. -1.
         21   -1    0    0  503  502 -0.00000000000E+00 -0.00000000000E+00 -0.23723315006E+03  0.23723315006E+03  0.00000000000E+00 0. -1.
         21    1    1    2  503  501 -0.20659312900E+02  0.13643810558E+02  0.26186612998E+02  0.36037473224E+02  0.00000000000E+00 0. -1.
         21    1    1    2  504  502  0.20659312900E+02 -0.13643810558E+02 -0.23164807680E+03  0.23296736308E+03  0.00000000000E+00 0. -1.
<mgrwt>
<rscale>  2 0.24758045E+02</rscale>
<asrwt>0</asrwt>
<pdfrwt beam="1">  1       21 0.48879518E-02 0.24758045E+02</pdfrwt>
<pdfrwt beam="2">  1       21 0.36497407E-01 0.24758045E+02</pdfrwt>
<totfact> 0.18224896E+06</totfact>
</mgrwt>
</event>
<event>
 4    1  0.4505197E+006  0.2111336E+02  0.7546771E-02  0.1724053E+00
         21   -1    0    0  502  501  0.00000000000E+00  0.00000000000E+00  0.43749486647E+03  0.43749486647E+03  0.00000000000E+00 0.  1.
         21   -1    0    0  503  502 -0.00000000000E+00 -0.00000000000E+00 -0.10987683926E+01  0.10987683926E+01  0.00000000000E+00 0.  1.
         21    1    1    2  503  504 -0.10654539320E+02 -0.18227853163E+02  0.15908238379E+03  0.16047734628E+03  0.00000000000E+00 0.  1.
         21    1    1    2  504  501  0.10654539320E+02  0.18227853163E+02  0.27731371429E+03  0.27811628858E+03  0.00000000000E+00 0.  1.
<mgrwt>
<rscale>  2 0.21113357E+02</rscale>
<asrwt>0</asrwt>
<pdfrwt beam="1">  1       21 0.67306763E-01 0.21113357E+02</pdfrwt>
<pdfrwt beam="2">  1       21 0.16904164E-03 0.21113357E+02</pdfrwt>
<totfact> 0.84562481E+07</totfact>
</mgrwt>
</event>
<event>
 4    1  0.4505197E+006  0.3287405E+02  0.7546771E-02  0.1568333E+00
         21   -1    0    0  502  501  0.00000000000E+00  0.00000000000E+00  0.10746028444E+03  0.10746028444E+03  0.00000000000E+00 0. -1.
         21   -1    0    0  504  502 -0.00000000000E+00 -0.00000000000E+00 -0.16611656984E+02  0.16611656984E+02  0.00000000000E+00 0. -1.
         21    1    1    2  503  501 -0.75515871546E+01 -0.31994944336E+02  0.84393365882E+02  0.90570100676E+02  0.00000000000E+00 0. -1.
         21    1    1    2  504  503  0.75515871546E+01  0.31994944336E+02  0.64552615747E+01  0.33501840749E+02  0.00000000000E+00 0. -1.
<mgrwt>
<rscale>  2 0.32874046E+02</rscale>
<asrwt>0</asrwt>
<pdfrwt beam="1">  1       21 0.16532351E-01 0.32874046E+02</pdfrwt>
<pdfrwt beam="2">  1       21 0.25556396E-02 0.32874046E+02</pdfrwt>
<totfact> 0.22002134E+07</totfact>
</mgrwt>
</event>
<event>
 4    1  0.4505197E+006  0.2061224E+02  0.7546771E-02  0.1733420E+00
         21   -1    0    0  503  501  0.00000000000E+00  0.00000000000E+00  0.62055129618E+02  0.62055129618E+02  0.00000000000E+00 0. -1.
         21   -1    0    0  501  502 -0.00000000000E+00 -0.00000000000E+00 -0.38629829413E+02  0.38629829413E+02  0.00000000000E+00 0.  1.
         21    1    1    2  503  504  0.20447894699E+02 -0.25976778923E+01  0.57376494745E+02  0.60966601326E+02  0.00000000000E+00 0. -1.
         21    1    1    2  504  502 -0.20447894699E+02  0.25976778923E+01 -0.33951194541E+02  0.39718357705E+02  0.00000000000E+00 0.  1.
<mgrwt>
<rscale>  2 0.20612237E+02</rscale>
<asrwt>0</asrwt>
<pdfrwt beam="1">  1       21 0.95469430E-02 0.20612237E+02</pdfrwt>
<pdfrwt beam="2">  1       21 0.59430507E-02 0.20612237E+02</pdfrwt>
<totfact> 0.13345792E+07</totfact>
</mgrwt>
</event>
<event>
 4    1  0.4505197E+006  0.2029667E+02  0.7546771E-02  0.1739492E+00
         21   -1    0    0  503  501  0.00000000000E+00  0.00000000000E+00  0.21011134877E+03  0.21011134877E+03  0.00000000000E+00 0. -1.
         21   -1    0    0  501  502 -0.00000000000E+00 -0.00000000000E+00 -0.12042342860E+03  0.12042342860E+03  0.00000000000E+00 0.  1.
         21    1    1    2  503  504 -0.15244206748E+02 -0.13400333969E+02  0.20876044368E+03  0.20974479168E+03  0.00000000000E+00 0. -1.
         21    1    1    2  504  502  0.15244206748E+02  0.13400333969E+02 -0.11907252351E+03  0.12078998570E+03  0.00000000000E+00 0.  1.
<mgrwt>
<rscale>  2 0.20296669E+02</rscale>
<asrwt>0</asrwt>
<pdfrwt beam="1">  1       21 0.32324823E-01 0.20296669E+02</pdfrwt>
<pdfrwt beam="2">  1       21 0.18526681E-01 0.20296669E+02</pdfrwt>
<totfact> 0.24872444E+05</totfact>
</mgrwt>
</event>
<event>
 4    1  0.4505197E+006  0.2571049E+02  0.7546771E-02  0.1651002E+00
         21   -1    0    0  504  501  0.00000000000E+00  0.00000000000E+00  0.65161946631E+02  0.65161946631E+02  0.00000000000E+00 0. -1.
         21   -1    0    0  503  502 -0.00000000000E+00 -0.00000000000E+00 -0.83365954811E+02  0.83365954811E+02  0.00000000000E+00 0.  1.
         21    1    1    2  503  501 -0.16387471148E+02 -0.19811110226E+02 -0.78701026234E+02  0.82794207704E+02  0.00000000000E+00 0.  1.
         21    1    1    2  504  502  0.16387471148E+02  0.19811110226E+02  0.60497018054E+02  0.65733693738E+02  0.00000000000E+00 0. -1.
<mgrwt>
<rscale>  2 0.25710490E+02</rscale>
<asrwt>0</asrwt>
<pdfrwt beam="1">  1       21 0.10024915E-01 0.25710490E+02</pdfrwt>
<pdfrwt beam="2">  1       21 0.12825532E-01 0.25710490E+02</pdfrwt>
<totfact> 0.36218614E+06</totfact>
</mgrwt>
</event>
<event>
 4    1  0.4505197E+006  0.2340241E+02  0.7546771E-02  0.1685069E+00
         21   -1    0    0  502  501  0.00000000000E+00  0.00000000000E+00  0.28134187912E+03  0.28134187912E+03  0.00000000000E+00 0.  1.
         21   -1    0    0  504  502 -0.00000000000E+00 -0.00000000000E+00 -0.26664267063E+02  0.26664267063E+02  0.00000000000E+00 0.  1.
         21    1    1    2  503  501 -0.15270299765E+02 -0.17733890821E+02  0.27561379492E+03  0.27660556193E+03  0.00000000000E+00 0.  1.
         21    1    1    2  504  503  0.15270299765E+02  0.17733890821E+02 -0.20936182865E+02  0.31400584254E+02  0.00000000000E+00 0.  1.
<mgrwt>
<rscale>  2 0.23402413E+02</rscale>
<asrwt>0</asrwt>
<pdfrwt beam="1">  1       21 0.43283364E-01 0.23402413E+02</pdfrwt>
<pdfrwt beam="2">  1       21 0.41021951E-02 0.23402413E+02</pdfrwt>
<totfact> 0.17334540E+06</totfact>
</mgrwt>
</event>
<event>
 4    1  0.4505197E+006  0.2129453E+02  0.7546771E-02  0.1720746E+00
         21   -1    0    0  503  501  0.00000000000E+00  0.00000000000E+00  0.12144487931E+03  0.12144487931E+03  0.00000000000E+00 0.  1.
         21   -1    0    0  504  502 -0.00000000000E+00 -0.00000000000E+00 -0.75022696410E+02  0.75022696410E+02  0.00000000000E+00 0.  1.
         21    1    1    2  503  502  0.17547406442E+02  0.12064228775E+02 -0.72546970189E+02  0.75607671386E+02  0.00000000000E+00 0.  1.
         21    1    1    2  504  501 -0.17547406442E+02 -0.12064228775E+02  0.11896915309E+03  0.12085990433E+03  0.00000000000E+00 0.  1.
<mgrwt>
<rscale>  2 0.21294532E+02</rscale>
<asrwt>0</asrwt>
<pdfrwt beam="1">  1       21 0.18683828E-01 0.21294532E+02</pdfrwt>
<pdfrwt beam="2">  1       21 0.11541953E-01 0.21294532E+02</pdfrwt>
<totfact> 0.14702680E+06</totfact>
</mgrwt>
</event>
<event>
 4    1  0.4505197E+006  0.2088518E+02  0.7546771E-02  0.1728277E+00
         21   -1    0    0  504  501  0.00000000000E+00  0.00000000000E+00  0.78143750293E+02  0.78143750293E+02  0.00000000000E+00 0.  1.
         21   -1    0    0  503  502 -0.00000000000E+00 -0.00000000000E+00 -0.71496709137E+01  0.71496709137E+01  0.00000000000E+00 0. -1.
         21    1    1    2  503  501  0.19964427328E+02 -0.61328776917E+01  0.15526771041E+02  0.26024434024E+02  0.00000000000E+00 0. -1.
         21    1    1    2  504  502 -0.19964427328E+02  0.61328776917E+01  0.55467308338E+02  0.59268987182E+02  0.00000000000E+00 0.  1.
<mgrwt>
<rscale>  2 0.20885175E+02</rscale>
<asrwt>0</asrwt>
<pdfrwt beam="1">  1       21 0.12022115E-01 0.20885175E+02</pdfrwt>
<pdfrwt beam="2">  1       21 0.10999494E-02 0.20885175E+02</pdfrwt>
<totfact> 0.12374594E+08</totfact>
</mgrwt>
</event>
<event>
 4    1  0.4505197E+006  0.2449862E+02  0.7546771E-02  0.1668310E+00
         21   -1    0    0  503  501  0.00000000000E+00  0.00000000000E+00  0.61743058065E+01  0.61743058065E+01  0.00000000000E+00 0. -1.
         21   -1    0    0  504  502 -0.00000000000E+00 -0.00000000000E+00 -0.11581089880E+03  0.11581089880E+03  0.00000000000E+00 0. -1.
         21    1    1    2  503  502  0.19358717317E+02  0.15014078004E+02 -0.79264454426E+02  0.82964065775E+02  0.00000000000E+00 0. -1.
         21    1    1    2  504  501 -0.19358717317E+02 -0.15014078004E+02 -0.30372138563E+02  0.39021138827E+02  0.00000000000E+00 0. -1.
<mgrwt>
<rscale>  2 0.24498622E+02</rscale>
<asrwt>0</asrwt>
<pdfrwt beam="1">  1       21 0.94989315E-03 0.24498622E+02</pdfrwt>
<pdfrwt beam="2">  1       21 0.17817062E-01 0.24498622E+02</pdfrwt>
<totfact> 0.82706533E+07</totfact>
</mgrwt>
</event>
<event>
 4    1  0.4505197E+006  0.3395312E+02  0.7546771E-02  0.1558099E+00
         21   -1    0    0  502  501  0.00000000000E+00  0.00000000000E+00  0.62222351543E+03  0.62222351543E+03  0.00000000000E+00 0. -1.
         21   -1    0    0  503  502 -0.00000000000E+00 -0.00000000000E+00 -0.19064153424E+01  0.19064153424E+01  0.00000000000E+00 0. -1.
         21    1    1    2  503  504 -0.26725977896E+02  0.20941270206E+02  0.25779275005E+03  0.26001906982E+03  0.00000000000E+00 0. -1.
         21    1    1    2  504  501  0.26725977896E+02 -0.20941270206E+02  0.36252435004E+03  0.36411086095E+03  0.00000000000E+00 0. -1.
<mgrwt>
<rscale>  2 0.33953125E+02</rscale>
<asrwt>0</asrwt>
<pdfrwt beam="1">  1       21 0.95726533E-01 0.33953125E+02</pdfrwt>
<pdfrwt beam="2">  1       21 0.29329516E-03 0.33953125E+02</pdfrwt>
<totfact> 0.19816409E+07</totfact>
</mgrwt>
</event>
<event>
 4    1  0.4505197E+006  0.2220543E+02  0.7546771E-02  0.1704723E+00
         21   -1    0    0  504  501  0.00000000000E+00  0.00000000000E+00  0.39772042131E+03  0.39772042131E+03  0.00000000000E+00 0.  1.
         21   -1    0    0  503  502 -0.00000000000E+00 -0.00000000000E+00 -0.34845569163E+02  0.34845569163E+02  0.00000000000E+00 0.  1.
         21    1    1    2  503  501 -0.21682745123E+02 -0.47895527101E+01  0.39383801545E+03  0.39446351374E+03  0.00000000000E+00 0.  1.
         21    1    1    2  504  502  0.21682745123E+02  0.47895527101E+01 -0.30963163310E+02  0.38102476735E+02  0.00000000000E+00 0.  1.
<mgrwt>
<rscale>  2 0.22205433E+02</rscale>
<asrwt>0</asrwt>
<pdfrwt beam="1">  1       21 0.61187754E-01 0.22205433E+02</pdfrwt>
<pdfrwt beam="2">  1       21 0.53608571E-02 0.22205433E+02</pdfrwt>
<totfact> 0.57394551E+05</totfact>
</mgrwt>
</event>
<event>
 4    1  0.4505197E+006  0.2096300E+02  0.7546771E-02  0.1726829E+00
         21   -1    0    0  503  501  0.00000000000E+00  0.00000000000E+00  0.97581606823E+01  0.97581606823E+01  0.00000000000E+00 0.  1.
         21   -1    0    0  504  502 -0.00000000000E+00 -0.00000000000E+00 -0.11109215301E+03  0.11109215301E+03  0.00000000000E+00 0. -1.
         21    1    1    2  503  502  0.11154777335E+02  0.17748760748E+02 -0.97262047427E+02  0.99495494547E+02  0.00000000000E+00 0. -1.
         21    1    1    2  504  501 -0.11154777335E+02 -0.17748760748E+02 -0.40719449016E+01  0.21354819146E+02  0.00000000000E+00 0.  1.
<mgrwt>
<rscale>  2 0.20963005E+02</rscale>
<asrwt>0</asrwt>
<pdfrwt beam="1">  1       21 0.15012556E-02 0.20963005E+02</pdfrwt>
<pdfrwt beam="2">  1       21 0.17091099E-01 0.20963005E+02</pdfrwt>
<totfact> 0.42765531E+07</totfact>
</mgrwt>
</event>
<event>
 4    1  0.4505197E+006  0.2165686E+02  0.7546771E-02  0.1714255E+00
         21   -1    0    0  504  501  0.00000000000E+00  0.00000000000E+00  0.16683574135E+03  0.16683574135E+03  0.00000000000E+00 0. -1.
         21   -1    0    0  503  502 -0.00000000000E+00 -0.00000000000E+00 -0.48542745056E+01  0.48542745056E+01  0.00000000000E+00 0.  1.
         21    1    1    2  503  501  0.25331157763E+01  0.21508208736E+02  0.13668210592E+03  0.13838720244E+03  0.00000000000E+00 0. -1.
         21    1    1    2  504  502 -0.25331157763E+01 -0.21508208736E+02  0.25299360919E+02  0.33302813417E+02  0.00000000000E+00 0.  1.
<mgrwt>
<rscale>  2 0.21656863E+02</rscale>
<asrwt>0</asrwt>
<pdfrwt beam="1">  1       21 0.25667033E-01 0.21656863E+02</pdfrwt>
<pdfrwt beam="2">  1       21 0.74681159E-03 0.21656863E+02</pdfrwt>
<totfact> 0.60419422E+07</totfact>
</mgrwt>
</event>
<event>
 4    1  0.4505197E+006  0.3033060E+02  0.7546771E-02  0.1594463E+00
         21   -1    0    0  504  501  0.00000000000E+00  0.00000000000E+00  0.22740975138E+03  0.22740975138E+03  0.00000000000E+00 0. -1.
         21   -1    0    0  501  502 -0.00000000000E+00 -0.00000000000E+00 -0.15614638485E+03  0.15614638485E+03  0.00000000000E+00 0. -1.
         21    1    1    2  503  502  0.18930933038E+02 -0.23697364270E+02 -0.15364586389E+03  0.15661097276E+03  0.00000000000E+00 0. -1.
         21    1    1    2  504  503 -0.18930933038E+02  0.23697364270E+02  0.22490923041E+03  0.22694516347E+03  0.00000000000E+00 0. -1.
<mgrwt>
<rscale>  2 0.30330600E+02</rscale>
<asrwt>0</asrwt>
<pdfrwt beam="1">  1       21 0.34986115E-01 0.30330600E+02</pdfrwt>
<pdfrwt beam="2">  1       21 0.24022521E-01 0.30330600E+02</pdfrwt>
<totfact> 0.13706804E+05</totfact>
</mgrwt>
</event>
<event>
 4    1  0.4505197E+006  0.2042774E+02  0.7546771E-02  0.1736953E+00
         21   -1    0    0  502  501  0.00000000000E+00  0.00000000000E+00  0.70559461405E+02  0.70559461405E+02  0.00000000000E+00 0.  1.
         21   -1    0    0  504  502 -0.00000000000E+00 -0.00000000000E+00 -0.87950230567E+02  0.87950230567E+02  0.00000000000E+00 0. -1.
         21    1    1    2  503  501  0.31040083863E+01 -0.20190537650E+02  0.67848417864E+02  0.70856901466E+02  0.00000000000E+00 0.  1.
         21    1    1    2  504  503 -0.31040083863E+01  0.20190537650E+02 -0.85239187026E+02  0.87652790507E+02  0.00000000000E+00 0. -1.
<mgrwt>
<rscale>  2 0.20427743E+02</rscale>
<asrwt>0</asrwt>
<pdfrwt beam="1">  1       21 0.10855302E-01 0.20427743E+02</pdfrwt>
<pdfrwt beam="2">  1       21 0.13530805E-01 0.20427743E+02</pdfrwt>
<totfact> 0.28054128E+06</totfact>
</mgrwt>
</event>
<event>
 4    1  0.4505197E+006  0.2088440E+02  0.7546771E-02  0.1728292E+00
         21   -1    0    0  503  501  0.00000000000E+00  0.00000000000E+00  0.25138270650E+01  0.25138270650E+01  0.00000000000E+00 0. -1.
         21   -1    0    0  504  502 -0.00000000000E+00 -0.00000000000E+00 -0.22154598497E+03  0.22154598497E+03  0.00000000000E+00 0. -1.
         21    1    1    2  503  502  0.19865766662E+02 -0.64427871690E+01 -0.16168526329E+03  0.16302847162E+03  0.00000000000E+00 0. -1.
         21    1    1    2  504  501 -0.19865766662E+02  0.64427871690E+01 -0.57346894608E+02  0.61031340414E+02  0.00000000000E+00 0. -1.
<mgrwt>
<rscale>  2 0.20884401E+02</rscale>
<asrwt>0</asrwt>
<pdfrwt beam="1">  1       21 0.38674259E-03 0.20884401E+02</pdfrwt>
<pdfrwt beam="2">  1       21 0.34084001E-01 0.20884401E+02</pdfrwt>
<totfact> 0.94443093E+07</totfact>
</mgrwt>
</event>
<event>
 4    1  0.4505197E+006  0.2607615E+02  0.7546771E-02  0.1646009E+00
         21   -1    0    0  503  501  0.00000000000E+00  0.00000000000E+00  0.40398690594E+01  0.40398690594E+01  0.00000000000E+00 0.  1.
         21   -1    0    0  504  502 -0.00000000000E+00 -0.00000000000E+00 -0.23381064300E+03  0.23381064300E+03  0.00000000000E+00 0. -1.
         21    1    1    2  503  502  0.12636703372E+02 -0.22809627464E+02 -0.17782910838E+03  0.17973079081E+03  0.00000000000E+00 0. -1.
         21    1    1    2  504  501 -0.12636703372E+02  0.22809627464E+02 -0.51941665558E+02  0.58119721249E+02  0.00000000000E+00 0.  1.
<mgrwt>
<rscale>  2 0.26076146E+02</rscale>
<asrwt>0</asrwt>
<pdfrwt beam="1">  1       21 0.62151820E-03 0.26076146E+02</pdfrwt>
<pdfrwt beam="2">  1       21 0.35970875E-01 0.26076146E+02</pdfrwt>
<totfact> 0.44854946E+07</totfact>
</mgrwt>
</event>
<event>
 4    1  0.4505197E+006  0.2042942E+02  0.7546771E-02  0.1736921E+00
         21   -1    0    0  503  501  0.00000000000E+00  0.00000000000E+00  0.45876880180E+02  0.45876880180E+02  0.00000000000E+00 0. -1.
         21   -1    0    0  504  502 -0.00000000000E+00 -0.00000000000E+00 -0.16757947900E+02  0.16757947900E+02  0.00000000000E+00 0. -1.
         21    1    1    2  503  502 -0.18086352798E+02  0.94997386769E+01  0.35733561240E+02  0.41161251090E+02  0.00000000000E+00 0. -1.
         21    1    1    2  504  501  0.18086352798E+02 -0.94997386769E+01 -0.66146289591E+01  0.21473576989E+02  0.00000000000E+00 0. -1.
<mgrwt>
<rscale>  2 0.20429420E+02</rscale>
<asrwt>0</asrwt>
<pdfrwt beam="1">  1       21 0.70579815E-02 0.20429420E+02</pdfrwt>
<pdfrwt beam="2">  1       21 0.25781458E-02 0.20429420E+02</pdfrwt>
<totfact> 0.80627650E+07</totfact>
</mgrwt>
</event>
<event>
 4    1  0.4505197E+006  0.2475887E+02  0.7546771E-02  0.1664490E+00
         21   -1    0    0  502  501  0.00000000000E+00  0.00000000000E+00  0.73330735781E+03  0.73330735781E+03  0.00000000000E+00 0.  1.
         21   -1    0    0  504  502 -0.00000000000E+00 -0.00000000000E+00 -0.28392612831E+02  0.28392612831E+02  0.00000000000E+00 0.  1.
         21    1    1    2  503  501  0.20222309495E+02  0.14284960146E+02  0.72765893906E+03  0.72808003233E+03  0.00000000000E+00 0.  1.
         21    1    1    2  504  503 -0.20222309495E+02 -0.14284960146E+02 -0.22744194079E+02  0.33619938310E+02  0.00000000000E+00 0.  1.
<mgrwt>
<rscale>  2 0.24758875E+02</rscale>
<asrwt>0</asrwt>
<pdfrwt beam="1">  1       21 0.11281650E+00 0.24758875E+02</pdfrwt>
<pdfrwt beam="2">  1       21 0.43680948E-02 0.24758875E+02</pdfrwt>
<totfact> 0.21872191E+05</totfact>
</mgrwt>
</event>
<event>
 4    1  0.4505197E+006  0.2124925E+02  0.7546771E-02  0.1721569E+00
         21   -1    0    0  503  501  0.00000000000E+00  0.00000000000E+00  0.13042410433E+03  0.13042410433E+03  0.00000000000E+00 0. -1.
         21   -1    0    0  501  502 -0.00000000000E+00 -0.00000000000E+00 -0.48121283189E+02  0.48121283189E+02  0.00000000000E+00 0.  1.
         21    1    1    2  503  504  0.58633018285E+00  0.21241160642E+02  0.12715287033E+03  0.12891618643E+03  0.00000000000E+00 0. -1.
         21    1    1    2  504  502 -0.58633018285E+00 -0.21241160642E+02 -0.44850049193E+02  0.49629201093E+02  0.00000000000E+00 0.  1.
<mgrwt>
<rscale>  2 0.21249251E+02</rscale>
<asrwt>0</asrwt>
<pdfrwt beam="1">  1       21 0.20065247E-01 0.21249251E+02</pdfrwt>
<pdfrwt beam="2">  1       21 0.74032744E-02 0.21249251E+02</pdfrwt>
<totfact> 0.26917172E+06</totfact>
</mgrwt>
</event>
<event>
 4    1  0.4505197E+006  0.2040590E+02  0.7546771E-02  0.1737375E+00
         21   -1    0    0  503  501  0.00000000000E+00  0.00000000000E+00  0.62671881327E+02  0.62671881327E+02  0.00000000000E+00 0.  1.
         21   -1    0    0  504  502 -0.00000000000E+00 -0.00000000000E+00 -0.67530149880E+01  0.67530149880E+01  0.00000000000E+00 0.  1.
         21    1    1    2  503  502  0.20141553008E+02 -0.32739369109E+01  0.32366994041E+02  0.38262555112E+02  0.00000000000E+00 0.  1.
         21    1    1    2  504  501 -0.20141553008E+02  0.32739369109E+01  0.23551872298E+02  0.31162341203E+02  0.00000000000E+00 0.  1.
<mgrwt>
<rscale>  2 0.20405902E+02</rscale>
<asrwt>0</asrwt>
<pdfrwt beam="1">  1       21 0.96418275E-02 0.20405902E+02</pdfrwt>
<pdfrwt beam="2">  1       21 0.10389254E-02 0.20405902E+02</pdfrwt>
<totfact> 0.19281367E+08</totfact>
</mgrwt>
</event>
<event>
 4    1  0.4505197E+006  0.2585336E+02  0.7546771E-02  0.1649039E+00
         21   -1    0    0  502  501  0.00000000000E+00  0.00000000000E+00  0.60954036025E+01  0.60954036025E+01  0.00000000000E+00 0. -1.
         21   -1    0    0  503  502 -0.00000000000E+00 -0.00000000000E+00 -0.21257614566E+03  0.21257614566E+03  0.00000000000E+00 0. -1.
         21    1    1    2  503  504 -0.24779505092E+01 -0.25734330018E+02 -0.17931779014E+03  0.18117192344E+03  0.00000000000E+00 0. -1.
         21    1    1    2  504  501  0.24779505092E+01  0.25734330018E+02 -0.27162951910E+02  0.37499625821E+02  0.00000000000E+00 0. -1.
<mgrwt>
<rscale>  2 0.25853355E+02</rscale>
<asrwt>0</asrwt>
<pdfrwt beam="1">  1       21 0.93775418E-03 0.25853355E+02</pdfrwt>
<pdfrwt beam="2">  1       21 0.32704030E-01 0.25853355E+02</pdfrwt>
<totfact> 0.28865226E+07</totfact>
</mgrwt>
</event>
<event>
 4    1  0.4505197E+006  0.2764667E+02  0.7546771E-02  0.1625660E+00
         21   -1    0    0  503  501  0.00000000000E+00  0.00000000000E+00  0.11494920607E+01  0.11494920607E+01  0.00000000000E+00 0.  1.
         21   -1    0    0  501  502 -0.00000000000E+00 -0.00000000000E+00 -0.67235151026E+03  0.67235151026E+03  0.00000000000E+00 0. -1.
         21    1    1    2  503  504  0.15576478991E+02  0.22841002994E+02 -0.30023433128E+03  0.30150454689E+03  0.00000000000E+00 0. -1.
         21    1    1    2  504  502 -0.15576478991E+02 -0.22841002994E+02 -0.37096768693E+03  0.37199645544E+03  0.00000000000E+00 0.  1.
<mgrwt>
<rscale>  2 0.27646666E+02</rscale>
<asrwt>0</asrwt>
<pdfrwt beam="1">  1       21 0.17684435E-03 0.27646666E+02</pdfrwt>
<pdfrwt beam="2">  1       21 0.10343903E+00 0.27646666E+02</pdfrwt>
<totfact> 0.33799383E+07</totfact>
</mgrwt>
</event>
<event>
 4    1  0.4505197E+006  0.4574661E+02  0.7546771E-02  0.1469734E+00
         21   -1    0    0  503  501  0.00000000000E+00  0.00000000000E+00  0.45354952322E+03  0.45354952322E+03  0.00000000000E+00 0.  1.
         21   -1    0    0  501  502 -0.00000000000E+00 -0.00000000000E+00 -0.20793633707E+02  0.20793633707E+02  0.00000000000E+00 0. -1.
         21    1    1    2  503  504  0.49849599276E+01  0.45474199328E+02  0.42558656189E+03  0.42803816920E+03  0.00000000000E+00 0.  1.
         21    1    1    2  504  502 -0.49849599276E+01 -0.45474199328E+02  0.71693276230E+01  0.46304987728E+02  0.00000000000E+00 0. -1.
<mgrwt>
<rscale>  2 0.45746613E+02</rscale>
<asrwt>0</asrwt>
<pdfrwt beam="1">  1       21 0.69776842E-01 0.45746613E+02</pdfrwt>
<pdfrwt beam="2">  1       21 0.31990209E-02 0.45746613E+02</pdfrwt>
<totfact> 0.10408383E+06</totfact>
</mgrwt>
</event>
<event>
 4    1  0.4505197E+006  0.2304864E+02  0.7546771E-02  0.1690723E+00
         21   -1    0    0  504  501  0.00000000000E+00  0.00000000000E+00  0.16651127228E+02  0.16651127228E+02  0.00000000000E+00 0. -1.
         21   -1    0    0  503  502 -0.00000000000E+00 -0.00000000000E+00 -0.45107896626E+02  0.45107896626E+02  0.00000000000E+00 0. -1.
         21    1    1    2  503  501 -0.60191639452E+01 -0.22248810146E+02 -0.30935170368E+02  0.38577514866E+02  0.00000000000E+00 0. -1.
         21    1    1    2  504  502  0.60191639452E+01  0.22248810146E+02  0.24784009705E+01  0.23181508987E+02  0.00000000000E+00 0. -1.
<mgrwt>
<rscale>  2 0.23048642E+02</rscale>
<asrwt>0</asrwt>
<pdfrwt beam="1">  1       21 0.25617119E-02 0.23048642E+02</pdfrwt>
<pdfrwt beam="2">  1       21 0.69396763E-02 0.23048642E+02</pdfrwt>
<totfact> 0.86596523E+07</totfact>
</mgrwt>
</event>
<event>
 4    1  0.4505197E+006  0.2417355E+02  0.7546771E-02  0.1673164E+00
         21   -1    0    0  504  501  0.00000000000E+00  0.00000000000E+00  0.19699499498E+03  0.19699499498E+03  0.00000000000E+00 0.  1.
         21   -1    0    0  503  502 -0.00000000000E+00 -0.00000000000E+00 -0.35207599787E+01  0.35207599787E+01  0.00000000000E+00 0. -1.
         21    1    1    2  503  501 -0.73625296011E+01 -0.23025069227E+02  0.56953271426E+02  0.61871122353E+02  0.00000000000E+00 0. -1.
         21    1    1    2  504  502  0.73625296011E+01  0.23025069227E+02  0.13652096358E+03  0.13864463261E+03  0.00000000000E+00 0.  1.
<mgrwt>
<rscale>  2 0.24173553E+02</rscale>
<asrwt>0</asrwt>
<pdfrwt beam="1">  1       21 0.30306914E-01 0.24173553E+02</pdfrwt>
<pdfrwt beam="2">  1       21 0.54165554E-03 0.24173553E+02</pdfrwt>
<totfact> 0.74170847E+07</totfact>
</mgrwt>
</event>
<event>
 4    1  0.4505197E+006  0.3361493E+02  0.7546771E-02  0.1561256E+00
         21   -1    0    0  503  501  0.00000000000E+00  0.00000000000E+00  0.41937324136E+02  0.41937324136E+02  0.00000000000E+00 0.  1.
         21   -1    0    0  504  502 -0.00000000000E+00 -0.00000000000E+00 -0.10631702458E+03  0.10631702458E+03  0.00000000000E+00 0.  1.
         21    1    1    2  503  502  0.10776855073E+02 -0.31840583145E+02 -0.96238833125E+02  0.10194055298E+03  0.00000000000E+00 0.  1.
         21    1    1    2  504  501 -0.10776855073E+02  0.31840583145E+02  0.31859132682E+02  0.46313795737E+02  0.00000000000E+00 0.  1.
<mgrwt>
<rscale>  2 0.33614927E+02</rscale>
<asrwt>0</asrwt>
<pdfrwt beam="1">  1       21 0.64518962E-02 0.33614927E+02</pdfrwt>
<pdfrwt beam="2">  1       21 0.16356465E-01 0.33614927E+02</pdfrwt>
<totfact> 0.51135672E+06</totfact>
</mgrwt>
</event>
<event>
 4    1  0.4505197E+006  0.2476851E+02  0.7546771E-02  0.1664349E+00
         21   -1    0    0  504  501  0.00000000000E+00  0.00000000000E+00  0.44540415440E+03  0.44540415440E+03  0.00000000000E+00 0. -1.
         21   -1    0    0  503  502 -0.00000000000E+00 -0.00000000000E+00 -0.29625302158E+01  0.29625302158E+01  0.00000000000E+00 0. -1.
         21    1    1    2  503  501 -0.23737135279E+02 -0.70730042628E+01  0.57233297122E+02  0.62362883833E+02  0.00000000000E+00 0. -1.
         21    1    1    2  504  502  0.23737135279E+02  0.70730042628E+01  0.38520832707E+03  0.38600380079E+03  0.00000000000E+00 0. -1.
<mgrwt>
<rscale>  2 0.24768508E+02</rscale>
<asrwt>0</asrwt>
<pdfrwt beam="1">  1       21 0.68523663E-01 0.24768508E+02</pdfrwt>
<pdfrwt beam="2">  1       21 0.45577423E-03 0.24768508E+02</pdfrwt>
<totfact> 0.19965583E+07</totfact>
</mgrwt>
</event>
<event>
 4    1  0.4505197E+006  0.2035294E+02  0.7546771E-02  0.1738399E+00
         21   -1    0    0  502  501  0.00000000000E+00  0.00000000000E+00  0.14162902671E+01  0.14162902671E+01  0.00000000000E+00 0. -1.
         21   -1    0    0  504  502 -0.00000000000E+00 -0.00000000000E+00 -0.44127092787E+03  0.44127092787E+03  0.00000000000E+00 0. -1.
         21    1    1    2  503  501  0.15726153437E+02  0.12920144446E+02 -0.91399560848E+02  0.93638249437E+02  0.00000000000E+00 0. -1.
         21    1    1    2  504  503 -0.15726153437E+02 -0.12920144446E+02 -0.34845507676E+03  0.34904896870E+03  0.00000000000E+00 0. -1.
<mgrwt>
<rscale>  2 0.20352937E+02</rscale>
<asrwt>0</asrwt>
<pdfrwt beam="1">  1       21 0.21789052E-03 0.20352937E+02</pdfrwt>
<pdfrwt beam="2">  1       21 0.67887925E-01 0.20352937E+02</pdfrwt>
<totfact> 0.57163975E+07</totfact>
</mgrwt>
</event>
<event>
 4    1  0.4505197E+006  0.2221118E+02  0.7546771E-02  0.1704625E+00
         21   -1    0    0  503  501  0.00000000000E+00  0.00000000000E+00  0.21903946811E+02  0.21903946811E+02  0.00000000000E+00 0.  1.
         21   -1    0    0  501  502 -0.00000000000E+00 -0.00000000000E+00 -0.30003952443E+02  0.30003952443E+02  0.00000000000E+00 0.  1.
         21    1    1    2  503  504 -0.10710907129E+02  0.19457979917E+02  0.89098696314E+01  0.23931616970E+02  0.00000000000E+00 0.  1.
         21    1    1    2  504  502  0.10710907129E+02 -0.19457979917E+02 -0.17009875263E+02  0.27976282284E+02  0.00000000000E+00 0.  1.
<mgrwt>
<rscale>  2 0.22211180E+02</rscale>
<asrwt>0</asrwt>
<pdfrwt beam="1">  1       21 0.33698380E-02 0.22211180E+02</pdfrwt>
<pdfrwt beam="2">  1       21 0.46159927E-02 0.22211180E+02</pdfrwt>
<totfact> 0.10743779E+08</totfact>
</mgrwt>
</event>
<event>
 4    1  0.4505197E+006  0.2866289E+02  0.7546771E-02  0.1613357E+00
         21   -1    0    0  504  501  0.00000000000E+00  0.00000000000E+00  0.17084038019E+04  0.17084038019E+04  0.00000000000E+00 0.  1.
         21   -1    0    0  501  502 -0.00000000000E+00 -0.00000000000E+00 -0.21923023942E+01  0.21923023942E+01  0.00000000000E+00 0.  1.
         21    1    1    2  503  502 -0.17539670686E+02 -0.22669833805E+02  0.97415076110E+02  0.10154436698E+03  0.00000000000E+00 0.  1.
         21    1    1    2  504  503  0.17539670686E+02  0.22669833805E+02  0.16087964234E+04  0.16090517373E+04  0.00000000000E+00 0.  1.
<mgrwt>
<rscale>  2 0.28662893E+02</rscale>
<asrwt>0</asrwt>
<pdfrwt beam="1">  1       21 0.26283029E+00 0.28662893E+02</pdfrwt>
<pdfrwt beam="2">  1       21 0.33727866E-03 0.28662893E+02</pdfrwt>
<totfact> 0.12727510E+06</totfact>
</mgrwt>
</event>
<event>
 4    1  0.4505197E+006  0.3493860E+02  0.7546771E-02  0.1549146E+00
         21   -1    0    0  503  501  0.00000000000E+00  0.00000000000E+00  0.27514701870E+03  0.27514701870E+03  0.00000000000E+00 0. -1.
         21   -1    0    0  504  502 -0.00000000000E+00 -0.00000000000E+00 -0.36036020659E+02  0.36036020659E+02  0.00000000000E+00 0.  1.
         21    1    1    2  503  502  0.25076925553E+02  0.24328038908E+02  0.26525476327E+03  0.26754587477E+03  0.00000000000E+00 0. -1.
         21    1    1    2  504  501 -0.25076925553E+02 -0.24328038908E+02 -0.26143765231E+02  0.43637164582E+02  0.00000000000E+00 0.  1.
<mgrwt>
<rscale>  2 0.34938599E+02</rscale>
<asrwt>0</asrwt>
<pdfrwt beam="1">  1       21 0.42330309E-01 0.34938599E+02</pdfrwt>
<pdfrwt beam="2">  1       21 0.55440034E-02 0.34938599E+02</pdfrwt>
<totfact> 0.11573534E+06</totfact>
</mgrwt>
</event>
<event>
 4    1  0.4505197E+006  0.3070175E+02  0.7546771E-02  0.1590459E+00
         21   -1    0    0  503  501  0.00000000000E+00  0.00000000000E+00  0.24470225306E+03  0.24470225306E+03  0.00000000000E+00 0. -1.
         21   -1    0    0  504  502 -0.00000000000E+00 -0.00000000000E+00 -0.12566106823E+03  0.12566106823E+03  0.00000000000E+00 0.  1.
         21    1    1    2  503  502  0.30511771069E+02  0.34102044349E+01 -0.12280069459E+03  0.12658044185E+03  0.00000000000E+00 0.  1.
         21    1    1    2  504  501 -0.30511771069E+02 -0.34102044349E+01  0.24184187942E+03  0.24378287944E+03  0.00000000000E+00 0. -1.
<mgrwt>
<rscale>  2 0.30701754E+02</rscale>
<asrwt>0</asrwt>
<pdfrwt beam="1">  1       21 0.37646500E-01 0.30701754E+02</pdfrwt>
<pdfrwt beam="2">  1       21 0.19332472E-01 0.30701754E+02</pdfrwt>
<totfact> 0.17567619E+05</totfact>
</mgrwt>
</event>
<event>
 4    1  0.4505197E+006  0.2047136E+02  0.7546771E-02  0.1736114E+00
         21   -1    0    0  503  501  0.00000000000E+00  0.00000000000E+00  0.44088945670E+03  0.44088945670E+03  0.00000000000E+00 0.  1.
         21   -1    0    0  501  502 -0.00000000000E+00 -0.00000000000E+00 -0.18514835554E+01  0.18514835554E+01  0.00000000000E+00 0.  1.
         21    1    1    2  503  504 -0.17184093520E+02 -0.11125802990E+02  0.37394202868E+03  0.37450195911E+03  0.00000000000E+00 0.  1.
         21    1    1    2  504  502  0.17184093520E+02  0.11125802990E+02  0.65095944458E+02  0.68238981141E+02  0.00000000000E+00 0.  1.
<mgrwt>
<rscale>  2 0.20471360E+02</rscale>
<asrwt>0</asrwt>
<pdfrwt beam="1">  1       21 0.67829063E-01 0.20471360E+02</pdfrwt>
<pdfrwt beam="2">  1       21 0.28484398E-03 0.20471360E+02</pdfrwt>
<totfact> 0.38933949E+07</totfact>
</mgrwt>
</event>
<event>
 4    1  0.4505197E+006  0.2136532E+02  0.7546771E-02  0.1719465E+00
         21   -1    0    0  503  501  0.00000000000E+00  0.00000000000E+00  0.78052183832E+02  0.78052183832E+02  0.00000000000E+00 0.  1.
         21   -1    0    0  504  502 -0.00000000000E+00 -0.00000000000E+00 -0.58486067509E+01  0.58486067509E+01  0.00000000000E+00 0.  1.
         21    1    1    2  503  502 -0.21145000701E+02 -0.30603750585E+01  0.36376523587E+02  0.42186827546E+02  0.00000000000E+00 0.  1.
         21    1    1    2  504  501  0.21145000701E+02  0.30603750585E+01  0.35827053494E+02  0.41713963037E+02  0.00000000000E+00 0.  1.
<mgrwt>
<rscale>  2 0.21365321E+02</rscale>
<asrwt>0</asrwt>
<pdfrwt beam="1">  1       21 0.12008028E-01 0.21365321E+02</pdfrwt>
<pdfrwt beam="2">  1       21 0.89978571E-03 0.21365321E+02</pdfrwt>
<totfact> 0.16864101E+08</totfact>
</mgrwt>
</event>
<event>
 4    1  0.4505197E+006  0.2152096E+02  0.7546771E-02  0.1716671E+00
         21   -1    0    0  502  501  0.00000000000E+00  0.00000000000E+00  0.28954413887E+03  0.28954413887E+03  0.00000000000E+00 0.  1.
         21   -1    0    0  503  502 -0.00000000000E+00 -0.00000000000E+00 -0.45447437368E+02  0.45447437368E+02  0.00000000000E+00 0. -1.
         21    1    1    2  503  504 -0.19288869887E+02 -0.95441608461E+01 -0.42473405261E+02  0.47614511047E+02  0.00000000000E+00 0. -1.
         21    1    1    2  504  501  0.19288869887E+02  0.95441608461E+01  0.28657010677E+03  0.28737706520E+03  0.00000000000E+00 0.  1.
<mgrwt>
<rscale>  2 0.21520955E+02</rscale>
<asrwt>0</asrwt>
<pdfrwt beam="1">  1       21 0.44545251E-01 0.21520955E+02</pdfrwt>
<pdfrwt beam="2">  1       21 0.69919136E-02 0.21520955E+02</pdfrwt>
<totfact> 0.69485891E+05</totfact>
</mgrwt>
</event>
<event>
 4    1  0.4505197E+006  0.2135203E+02  0.7546771E-02  0.1719705E+00
         21   -1    0    0  502  501  0.00000000000E+00  0.00000000000E+00  0.32194781702E+03  0.32194781702E+03  0.00000000000E+00 0. -1.
         21   -1    0    0  503  502 -0.00000000000E+00 -0.00000000000E+00 -0.16084658206E+03  0.16084658206E+03  0.00000000000E+00 0.  1.
         21    1    1    2  503  504  0.89903671845E+01  0.19367049081E+02 -0.15978159971E+03  0.16120195066E+03  0.00000000000E+00 0.  1.
         21    1    1    2  504  501 -0.89903671845E+01 -0.19367049081E+02  0.32088283467E+03  0.32159244841E+03  0.00000000000E+00 0. -1.
<mgrwt>
<rscale>  2 0.21352033E+02</rscale>
<asrwt>0</asrwt>
<pdfrwt beam="1">  1       21 0.49530433E-01 0.21352033E+02</pdfrwt>
<pdfrwt beam="2">  1       21 0.24745628E-01 0.21352033E+02</pdfrwt>
<totfact> 0.67329855E+04</totfact>
</mgrwt>
</event>
<event>
 4    1  0.4505197E+006  0.2207188E+02  0.7546771E-02  0.1707012E+00
         21   -1    0    0  503  501  0.00000000000E+00  0.00000000000E+00  0.95939011345E+01  0.95939011345E+01  0.00000000000E+00 0. -1.
         21   -1    0    0  504  502 -0.00000000000E+00 -0.00000000000E+00 -0.14476912213E+03  0.14476912213E+03  0.00000000000E+00 0.  1.
         21    1    1    2  503  502  0.60741739283E+01  0.21219620329E+02 -0.53981747352E+01  0.22722415503E+02  0.00000000000E+00 0. -1.
         21    1    1    2  504  501 -0.60741739283E+01 -0.21219620329E+02 -0.12977704626E+03  0.13164060776E+03  0.00000000000E+00 0.  1.
<mgrwt>
<rscale>  2 0.22071880E+02</rscale>
<asrwt>0</asrwt>
<pdfrwt beam="1">  1       21 0.14759849E-02 0.22071880E+02</pdfrwt>
<pdfrwt beam="2">  1       21 0.22272171E-01 0.22071880E+02</pdfrwt>
<totfact> 0.28059004E+07</totfact>
</mgrwt>
</event>
<event>
 4    1  0.4505197E+006  0.2917602E+02  0.7546771E-02  0.1607379E+00
         21   -1    0    0  504  501  0.00000000000E+00  0.00000000000E+00  0.23054775309E+02  0.23054775309E+02  0.00000000000E+00 0. -1.
         21   -1    0    0  501  502 -0.00000000000E+00 -0.00000000000E+00 -0.24791272045E+03  0.24791272045E+03  0.00000000000E+00 0. -1.
         21    1    1    2  503  502 -0.13162711940E+02 -0.26038106279E+02 -0.23741715666E+03  0.23920314848E+03  0.00000000000E+00 0. -1.
         21    1    1    2  504  503  0.13162711940E+02  0.26038106279E+02  0.12559211520E+02  0.31764347282E+02  0.00000000000E+00 0. -1.
<mgrwt>
<rscale>  2 0.29176017E+02</rscale>
<asrwt>0</asrwt>
<pdfrwt beam="1">  1       21 0.35468884E-02 0.29176017E+02</pdfrwt>
<pdfrwt beam="2">  1       21 0.38140419E-01 0.29176017E+02</pdfrwt>
<totfact> 0.28439383E+06</totfact>
</mgrwt>
</event>
<event>
 4    1  0.4505197E+006  0.3282497E+02  0.7546771E-02  0.1568810E+00
         21   -1    0    0  504  501  0.00000000000E+00  0.00000000000E+00  0.63958732752E+03  0.63958732752E+03  0.00000000000E+00 0. -1.
         21   -1    0    0  503  502 -0.00000000000E+00 -0.00000000000E+00 -0.11482701373E+02  0.11482701373E+02  0.00000000000E+00 0.  1.
         21    1    1    2  503  501  0.54721747593E+00 -0.32820404326E+02  0.13343876833E+02  0.35433563693E+02  0.00000000000E+00 0.  1.
         21    1    1    2  504  502 -0.54721747593E+00  0.32820404326E+02  0.61476074932E+03  0.61563646520E+03  0.00000000000E+00 0. -1.
<mgrwt>
<rscale>  2 0.32824966E+02</rscale>
<asrwt>0</asrwt>
<pdfrwt beam="1">  1       21 0.98398023E-01 0.32824966E+02</pdfrwt>
<pdfrwt beam="2">  1       21 0.17665699E-02 0.32824966E+02</pdfrwt>
<totfact> 0.12387942E+06</totfact>
</mgrwt>
</event>
<event>
 4    1  0.4505197E+006  0.2060257E+02  0.7546771E-02  0.1733604E+00
         21   -1    0    0  504  501  0.00000000000E+00  0.00000000000E+00  0.79559941191E+02  0.79559941191E+02  0.00000000000E+00 0.  1.
         21   -1    0    0  503  502 -0.00000000000E+00 -0.00000000000E+00 -0.34746803114E+02  0.34746803114E+02  0.00000000000E+00 0.  1.
         21    1    1    2  503  501 -0.20698606803E+01 -0.20498335635E+02 -0.30176263533E+02  0.36538650328E+02  0.00000000000E+00 0.  1.
         21    1    1    2  504  502  0.20698606803E+01  0.20498335635E+02  0.74989401610E+02  0.77768093977E+02  0.00000000000E+00 0.  1.
<mgrwt>
<rscale>  2 0.20602575E+02</rscale>
<asrwt>0</asrwt>
<pdfrwt beam="1">  1       21 0.12239991E-01 0.20602575E+02</pdfrwt>
<pdfrwt beam="2">  1       21 0.53456620E-02 0.20602575E+02</pdfrwt>
<totfact> 0.10472245E+07</totfact>
</mgrwt>
</event>
<event>
 4    1  0.4505197E+006  0.2956041E+02  0.7546771E-02  0.1602999E+00
         21   -1    0    0  503  501  0.00000000000E+00  0.00000000000E+00  0.58142432001E+01  0.58142432001E+01  0.00000000000E+00 0. -1.
         21   -1    0    0  504  502 -0.00000000000E+00 -0.00000000000E+00 -0.32474081940E+03  0.32474081940E+03  0.00000000000E+00 0.  1.
         21    1    1    2  503  502  0.71287602634E+01 -0.28687955153E+02 -0.28060197771E+03  0.28215472331E+03  0.00000000000E+00 0.  1.
         21    1    1    2  504  501 -0.71287602634E+01  0.28687955153E+02 -0.38324598498E+02  0.48400339294E+02  0.00000000000E+00 0. -1.
<mgrwt>
<rscale>  2 0.29560413E+02</rscale>
<asrwt>0</asrwt>
<pdfrwt beam="1">  1       21 0.89449877E-03 0.29560413E+02</pdfrwt>
<pdfrwt beam="2">  1       21 0.49960136E-01 0.29560413E+02</pdfrwt>
<totfact> 0.14191467E+07</totfact>
</mgrwt>
</event>
<event>
 4    1  0.4505197E+006  0.2671551E+02  0.7546771E-02  0.1637518E+00
         21   -1    0    0  504  501  0.00000000000E+00  0.00000000000E+00  0.85459178888E+02  0.85459178888E+02  0.00000000000E+00 0. -1.
         21   -1    0    0  503  502 -0.00000000000E+00 -0.00000000000E+00 -0.41722006657E+02  0.41722006657E+02  0.00000000000E+00 0. -1.
         21    1    1    2  503  501 -0.16057509277E+02 -0.21351223482E+02  0.78739632829E+02  0.83148350113E+02  0.00000000000E+00 0. -1.
         21    1    1    2  504  502  0.16057509277E+02  0.21351223482E+02 -0.35002460598E+02  0.44032835433E+02  0.00000000000E+00 0. -1.
<mgrwt>
<rscale>  2 0.26715508E+02</rscale>
<asrwt>0</asrwt>
<pdfrwt beam="1">  1       21 0.13147566E-01 0.26715508E+02</pdfrwt>
<pdfrwt beam="2">  1       21 0.64187703E-02 0.26715508E+02</pdfrwt>
<totfact> 0.72595854E+06</totfact>
</mgrwt>
</event>
<event>
 4    1  0.4505197E+006  0.2260791E+02  0.7546771E-02  0.1697946E+00
         21   -1    0    0  504  501  0.00000000000E+00  0.00000000000E+00  0.55395315126E+01  0.55395315126E+01  0.00000000000E+00 0. -1.
         21   -1    0    0  503  502 -0.00000000000E+00 -0.00000000000E+00 -0.10705061858E+03  0.10705061858E+03  0.00000000000E+00 0. -1.
         21    1    1    2  503  501 -0.12532438607E+02  0.18816362606E+02 -0.29835526373E+02  0.37433623296E+02  0.00000000000E+00 0. -1.
         21    1    1    2  504  502  0.12532438607E+02 -0.18816362606E+02 -0.71675560694E+02  0.75156526795E+02  0.00000000000E+00 0. -1.
<mgrwt>
<rscale>  2 0.22607908E+02</rscale>
<asrwt>0</asrwt>
<pdfrwt beam="1">  1       21 0.85223563E-03 0.22607908E+02</pdfrwt>
<pdfrwt beam="2">  1       21 0.16469326E-01 0.22607908E+02</pdfrwt>
<totfact> 0.10899550E+08</totfact>
</mgrwt>
</event>
<event>
 4    1  0.4505197E+006  0.2789390E+02  0.7546771E-02  0.1622608E+00
         21   -1    0    0  503  501  0.00000000000E+00  0.00000000000E+00  0.16881023821E+04  0.16881023821E+04  0.00000000000E+00 0.  1.
         21   -1    0    0  504  502 -0.00000000000E+00 -0.00000000000E+00 -0.76858644744E+00  0.76858644744E+00  0.00000000000E+00 0.  1.
         21    1    1    2  503  502  0.60469027287E+01 -0.27230584677E+02  0.13779414880E+04  0.13782237896E+04  0.00000000000E+00 0.  1.
         21    1    1    2  504  501 -0.60469027287E+01  0.27230584677E+02  0.30939230766E+03  0.31064717899E+03  0.00000000000E+00 0.  1.
<mgrwt>
<rscale>  2 0.27893902E+02</rscale>
<asrwt>0</asrwt>
<pdfrwt beam="1">  1       21 0.25970509E+00 0.27893902E+02</pdfrwt>
<pdfrwt beam="2">  1       21 0.11824542E-03 0.27893902E+02</pdfrwt>
<totfact> 0.60540255E+06</totfact>
</mgrwt>
</event>
<event>
 4    1  0.4505197E+006  0.3153838E+02  0.7546771E-02  0.1581681E+00
         21   -1    0    0  504  501  0.00000000000E+00  0.00000000000E+00  0.12508090946E+01  0.12508090946E+01  0.00000000000E+00 0. -1.
         21   -1    0    0  503  502 -0.00000000000E+00 -0.00000000000E+00 -0.16667005699E+04  0.16667005699E+04  0.00000000000E+00 0.  1.
         21    1    1    2  503  501  0.30776464502E+02  0.68904842087E+01 -0.14357747502E+04  0.14361210962E+04  0.00000000000E+00 0.  1.
         21    1    1    2  504  502 -0.30776464502E+02 -0.68904842087E+01 -0.22967501057E+03  0.23183028280E+03  0.00000000000E+00 0. -1.
<mgrwt>
<rscale>  2 0.31538382E+02</rscale>
<asrwt>0</asrwt>
<pdfrwt beam="1">  1       21 0.19243143E-03 0.31538382E+02</pdfrwt>
<pdfrwt beam="2">  1       21 0.25641645E+00 0.31538382E+02</pdfrwt>
<totfact> 0.31185064E+06</totfact>
</mgrwt>
</event>
<event>
 4    1  0.4505197E+006  0.2182453E+02  0.7546771E-02  0.1711304E+00
         21   -1    0    0  504  501  0.00000000000E+00  0.00000000000E+00  0.21362947708E+01  0.21362947708E+01  0.00000000000E+00 0.  1.
         21   -1    0    0  503  502 -0.00000000000E+00 -0.00000000000E+00 -0.37553154102E+03  0.37553154102E+03  0.00000000000E+00 0. -1.
         21    1    1    2  503  501 -0.78936519228E+01 -0.20347004370E+02 -0.66334846489E+02  0.69832815970E+02  0.00000000000E+00 0.  1.
         21    1    1    2  504  502  0.78936519228E+01  0.20347004370E+02 -0.30706039976E+03  0.30783501982E+03  0.00000000000E+00 0. -1.
<mgrwt>
<rscale>  2 0.21824535E+02</rscale>
<asrwt>0</asrwt>
<pdfrwt beam="1">  1       21 0.32866049E-03 0.21824535E+02</pdfrwt>
<pdfrwt beam="2">  1       21 0.57774126E-01 0.21824535E+02</pdfrwt>
<totfact> 0.44281897E+07</totfact>
</mgrwt>
</event>
<event>
 4    1  0.4505197E+006  0.2418969E+02  0.7546771E-02  0.1672921E+00
         21   -1    0    0  503  501  0.00000000000E+00  0.00000000000E+00  0.18448684282E+03  0.18448684282E+03  0.00000000000E+00 0. -1.
         21   -1    0    0  504  502 -0.00000000000E+00 -0.00000000000E+00 -0.12698186514E+02  0.12698186514E+02  0.00000000000E+00 0.  1.
         21    1    1    2  503  502  0.13853684373E+02 -0.19829683606E+02  0.49804340216E+00  0.24194812871E+02  0.00000000000E+00 0.  1.
         21    1    1    2  504  501 -0.13853684373E+02  0.19829683606E+02  0.17129061290E+03  0.17299021646E+03  0.00000000000E+00 0. -1.
<mgrwt>
<rscale>  2 0.24189686E+02</rscale>
<asrwt>0</asrwt>
<pdfrwt beam="1">  1       21 0.28382589E-01 0.24189686E+02</pdfrwt>
<pdfrwt beam="2">  1       21 0.19535673E-02 0.24189686E+02</pdfrwt>
<totfact> 0.12100562E+07</totfact>
</mgrwt>
</event>
<event>
 4    1  0.4505197E+006  0.2035589E+02  0.7546771E-02  0.1738342E+00
         21   -1    0    0  503  501  0.00000000000E+00  0.00000000000E+00  0.25514640632E+03  0.25514640632E+03  0.00000000000E+00 0. -1.
         21   -1    0    0  501  502 -0.00000000000E+00 -0.00000000000E+00 -0.27188377310E+03  0.27188377310E+03  0.00000000000E+00 0.  1.
         21    1    1    2  503  504 -0.20345446492E+02  0.65197332750E+00  0.25435821266E+03  0.25517143768E+03  0.00000000000E+00 0. -1.
         21    1    1    2  504  502  0.20345446492E+02 -0.65197332750E+00 -0.27109557944E+03  0.27185874173E+03  0.00000000000E+00 0.  1.
<mgrwt>
<rscale>  2 0.20355890E+02</rscale>
<asrwt>0</asrwt>
<pdfrwt beam="1">  1       21 0.39253294E-01 0.20355890E+02</pdfrwt>
<pdfrwt beam="2">  1       21 0.41828272E-01 0.20355890E+02</pdfrwt>
<totfact> 0.40209503E+04</totfact>
</mgrwt>
</event>
<event>
 4    1  0.4505197E+006  0.2366023E+02  0.7546771E-02  0.1681026E+00
         21   -1    0    0  502  501  0.00000000000E+00  0.00000000000E+00  0.91739735540E+01  0.91739735540E+01  0.00000000000E+00 0. -1.
         21   -1    0    0  503  502 -0.00000000000E+00 -0.00000000000E+00 -0.37140730417E+03  0.37140730417E+03  0.00000000000E+00 0. -1.
         21    1    1    2  503  504 -0.23557113678E+02 -0.22065477351E+01 -0.35507425065E+03  0.35586167247E+03  0.00000000000E+00 0. -1.
         21    1    1    2  504  501  0.23557113678E+02  0.22065477351E+01 -0.71590799586E+01  0.24719605248E+02  0.00000000000E+00 0. -1.
<mgrwt>
<rscale>  2 0.23660229E+02</rscale>
<asrwt>0</asrwt>
<pdfrwt beam="1">  1       21 0.14113809E-02 0.23660229E+02</pdfrwt>
<pdfrwt beam="2">  1       21 0.57139572E-01 0.23660229E+02</pdfrwt>
<totfact> 0.52686292E+06</totfact>
</mgrwt>
</event>
<event>
 4    1  0.4505197E+006  0.2008412E+02  0.7546771E-02  0.1743660E+00
         21   -1    0    0  503  501  0.00000000000E+00  0.00000000000E+00  0.24607180188E+03  0.24607180188E+03  0.00000000000E+00 0. -1.
         21   -1    0    0  504  502 -0.00000000000E+00 -0.00000000000E+00 -0.29787761975E+01  0.29787761975E+01  0.00000000000E+00 0.  1.
         21    1    1    2  503  502 -0.20084002177E+02 -0.69550431049E-01  0.20505200325E+03  0.20603324008E+03  0.00000000000E+00 0. -1.
         21    1    1    2  504  501  0.20084002177E+02  0.69550431049E-01  0.38041022428E+02  0.43017337994E+02  0.00000000000E+00 0.  1.
<mgrwt>
<rscale>  2 0.20084123E+02</rscale>
<asrwt>0</asrwt>
<pdfrwt beam="1">  1       21 0.37857184E-01 0.20084123E+02</pdfrwt>
<pdfrwt beam="2">  1       21 0.45827346E-03 0.20084123E+02</pdfrwt>
<totfact> 0.60048918E+07</totfact>
</mgrwt>
</event>
<event>
 4    1  0.4505197E+006  0.2707705E+02  0.7546771E-02  0.1632844E+00
         21   -1    0    0  503  501  0.00000000000E+00  0.00000000000E+00  0.29040237377E+02  0.29040237377E+02  0.00000000000E+00 0. -1.
         21   -1    0    0  504  502 -0.00000000000E+00 -0.00000000000E+00 -0.14694010973E+03  0.14694010973E+03  0.00000000000E+00 0.  1.
         21    1    1    2  503  502  0.19809049253E+02 -0.18459905069E+02  0.21125211367E+02  0.34342991756E+02  0.00000000000E+00 0. -1.
         21    1    1    2  504  501 -0.19809049253E+02  0.18459905069E+02 -0.13902508372E+03  0.14163735535E+03  0.00000000000E+00 0.  1.
<mgrwt>
<rscale>  2 0.27077048E+02</rscale>
<asrwt>0</asrwt>
<pdfrwt beam="1">  1       21 0.44677288E-02 0.27077048E+02</pdfrwt>
<pdfrwt beam="2">  1       21 0.22606171E-01 0.27077048E+02</pdfrwt>
<totfact> 0.50870487E+06</totfact>
</mgrwt>
</event>
<event>
 4    1  0.4505197E+006  0.2553615E+02  0.7546771E-02  0.1653418E+00
         21   -1    0    0  504  501  0.00000000000E+00  0.00000000000E+00  0.27456026474E+02  0.27456026474E+02  0.00000000000E+00 0.  1.
         21   -1    0    0  503  502 -0.00000000000E+00 -0.00000000000E+00 -0.31740307529E+02  0.31740307529E+02  0.00000000000E+00 0.  1.
         21    1    1    2  503  501  0.16588563242E+02  0.19414280227E+02 -0.16992161362E+02  0.30672923808E+02  0.00000000000E+00 0.  1.
         21    1    1    2  504  502 -0.16588563242E+02 -0.19414280227E+02  0.12707880307E+02  0.28523410194E+02  0.00000000000E+00 0.  1.
<mgrwt>
<rscale>  2 0.25536145E+02</rscale>
<asrwt>0</asrwt>
<pdfrwt beam="1">  1       21 0.42240041E-02 0.25536145E+02</pdfrwt>
<pdfrwt beam="2">  1       21 0.48831242E-02 0.25536145E+02</pdfrwt>
<totfact> 0.71547758E+07</totfact>
</mgrwt>
</event>
<event>
 4    1  0.4505197E+006  0.3084696E+02  0.7546771E-02  0.1588911E+00
         21   -1    0    0  503  501  0.00000000000E+00  0.00000000000E+00  0.68398892502E+01  0.68398892502E+01  0.00000000000E+00 0.  1.
         21   -1    0    0  504  502 -0.00000000000E+00 -0.00000000000E+00 -0.13993965165E+03  0.13993965165E+03  0.00000000000E+00 0.  1.
         21    1    1    2  503  502 -0.29501877194E+02  0.90096617663E+01 -0.60917877643E+02  0.68282666759E+02  0.00000000000E+00 0.  1.
         21    1    1    2  504  501  0.29501877194E+02 -0.90096617663E+01 -0.72181884761E+02  0.78496874147E+02  0.00000000000E+00 0.  1.
<mgrwt>
<rscale>  2 0.30846957E+02</rscale>
<asrwt>0</asrwt>
<pdfrwt beam="1">  1       21 0.10522906E-02 0.30846957E+02</pdfrwt>
<pdfrwt beam="2">  1       21 0.21529179E-01 0.30846957E+02</pdfrwt>
<totfact> 0.53660451E+07</totfact>
</mgrwt>
</event>
<event>
 4    1  0.4505197E+006  0.2227013E+02  0.7546771E-02  0.1703622E+00
         21   -1    0    0  503  501  0.00000000000E+00  0.00000000000E+00  0.69290307342E+01  0.69290307342E+01  0.00000000000E+00 0.  1.
         21   -1    0    0  504  502 -0.00000000000E+00 -0.00000000000E+00 -0.24548692578E+03  0.24548692578E+03  0.00000000000E+00 0. -1.
         21    1    1    2  503  502  0.11069329575E+02 -0.19324297152E+02 -0.22550595322E+03  0.22660294230E+03  0.00000000000E+00 0. -1.
         21    1    1    2  504  501 -0.11069329575E+02  0.19324297152E+02 -0.13051941819E+02  0.25813014216E+02  0.00000000000E+00 0.  1.
<mgrwt>
<rscale>  2 0.22270126E+02</rscale>
<asrwt>0</asrwt>
<pdfrwt beam="1">  1       21 0.10660049E-02 0.22270126E+02</pdfrwt>
<pdfrwt beam="2">  1       21 0.37767213E-01 0.22270126E+02</pdfrwt>
<totfact> 0.17663877E+07</totfact>
</mgrwt>
</event>
<event>
 4    1  0.4505197E+006  0.2499688E+02  0.7546771E-02  0.1661047E+00
         21   -1    0    0  503  501  0.00000000000E+00  0.00000000000E+00  0.16595317961E+03  0.16595317961E+03  0.00000000000E+00 0.  1.
         21   -1    0    0  504  502 -0.00000000000E+00 -0.00000000000E+00 -0.72772044279E+01  0.72772044279E+01  0.00000000000E+00 0.  1.
         21    1    1    2  503  502  0.24266150726E+02  0.59998115377E+01  0.19166538831E+02  0.31499206661E+02  0.00000000000E+00 0.  1.
         21    1    1    2  504  501 -0.24266150726E+02 -0.59998115377E+01  0.13950943635E+03  0.14173117738E+03  0.00000000000E+00 0.  1.
<mgrwt>
<rscale>  2 0.24996876E+02</rscale>
<asrwt>0</asrwt>
<pdfrwt beam="1">  1       21 0.25531256E-01 0.24996876E+02</pdfrwt>
<pdfrwt beam="2">  1       21 0.11195700E-02 0.24996876E+02</pdfrwt>
<totfact> 0.34421657E+07</totfact>
</mgrwt>
</event>
<event>
 4    1  0.4505197E+006  0.2217870E+02  0.7546771E-02  0.1705180E+00
         21   -1    0    0  503  501  0.00000000000E+00  0.00000000000E+00  0.54150446401E+00  0.54150446401E+00  0.00000000000E+00 0. -1.
         21   -1    0    0  504  502 -0.00000000000E+00 -0.00000000000E+00 -0.94169425330E+03  0.94169425330E+03  0.00000000000E+00 0. -1.
         21    1    1    2  503  502  0.21150275545E+02 -0.66753656790E+01 -0.38197192957E+03  0.38261527628E+03  0.00000000000E+00 0. -1.
         21    1    1    2  504  501 -0.21150275545E+02  0.66753656790E+01 -0.55918081926E+03  0.55962048148E+03  0.00000000000E+00 0. -1.
<mgrwt>
<rscale>  2 0.22178698E+02</rscale>
<asrwt>0</asrwt>
<pdfrwt beam="1">  1       21 0.83308902E-04 0.22178698E+02</pdfrwt>
<pdfrwt beam="2">  1       21 0.14487513E+00 0.22178698E+02</pdfrwt>
<totfact> 0.44136688E+07</totfact>
</mgrwt>
</event>
<event>
 4    1  0.4505197E+006  0.7253225E+02  0.7546771E-02  0.1351688E+00
         21   -1    0    0  503  501  0.00000000000E+00  0.00000000000E+00  0.15928233721E+02  0.15928233721E+02  0.00000000000E+00 0.  1.
         21   -1    0    0  504  502 -0.00000000000E+00 -0.00000000000E+00 -0.33580925400E+03  0.33580925400E+03  0.00000000000E+00 0.  1.
         21    1    1    2  503  502 -0.48667761723E+02 -0.53780816624E+02 -0.13739267400E+03  0.15536303981E+03  0.00000000000E+00 0.  1.
         21    1    1    2  504  501  0.48667761723E+02  0.53780816624E+02 -0.18248834627E+03  0.19637444791E+03  0.00000000000E+00 0.  1.
<mgrwt>
<rscale>  2 0.72532250E+02</rscale>
<asrwt>0</asrwt>
<pdfrwt beam="1">  1       21 0.24504978E-02 0.72532250E+02</pdfrwt>
<pdfrwt beam="2">  1       21 0.51662957E-01 0.72532250E+02</pdfrwt>
<totfact> 0.30406288E+06</totfact>
</mgrwt>
</event>
<event>
 4    1  0.4505197E+006  0.2103374E+02  0.7546771E-02  0.1725519E+00
         21   -1    0    0  502  501  0.00000000000E+00  0.00000000000E+00  0.31787495558E+02  0.31787495558E+02  0.00000000000E+00 0. -1.
         21   -1    0    0  503  502 -0.00000000000E+00 -0.00000000000E+00 -0.49746224468E+02  0.49746224468E+02  0.00000000000E+00 0. -1.
         21    1    1    2  503  504  0.19979851914E+02 -0.65744633787E+01 -0.43576480811E+02  0.48387268275E+02  0.00000000000E+00 0. -1.
         21    1    1    2  504  501 -0.19979851914E+02  0.65744633787E+01  0.25617751901E+02  0.33146451751E+02  0.00000000000E+00 0. -1.
<mgrwt>
<rscale>  2 0.21033736E+02</rscale>
<asrwt>0</asrwt>
<pdfrwt beam="1">  1       21 0.48903839E-02 0.21033736E+02</pdfrwt>
<pdfrwt beam="2">  1       21 0.76532653E-02 0.21033736E+02</pdfrwt>
<totfact> 0.26223090E+07</totfact>
</mgrwt>
</event>
<event>
 4    1  0.4505197E+006  0.2032585E+02  0.7546771E-02  0.1738925E+00
         21   -1    0    0  502  501  0.00000000000E+00  0.00000000000E+00  0.16170378902E+02  0.16170378902E+02  0.00000000000E+00 0.  1.
         21   -1    0    0  504  502 -0.00000000000E+00 -0.00000000000E+00 -0.30616104501E+02  0.30616104501E+02  0.00000000000E+00 0.  1.
         21    1    1    2  503  501  0.17990584764E+02  0.94593256498E+01  0.22938617225E+01  0.20454871877E+02  0.00000000000E+00 0.  1.
         21    1    1    2  504  503 -0.17990584764E+02 -0.94593256498E+01 -0.16739587321E+02  0.26331611526E+02  0.00000000000E+00 0.  1.
<mgrwt>
<rscale>  2 0.20325845E+02</rscale>
<asrwt>0</asrwt>
<pdfrwt beam="1">  1       21 0.24877506E-02 0.20325845E+02</pdfrwt>
<pdfrwt beam="2">  1       21 0.47101699E-02 0.20325845E+02</pdfrwt>
<totfact> 0.16214751E+08</totfact>
</mgrwt>
</event>
<event>
 4    1  0.4505197E+006  0.3688961E+02  0.7546771E-02  0.1532433E+00
         21   -1    0    0  503  501  0.00000000000E+00  0.00000000000E+00  0.14784648297E+01  0.14784648297E+01  0.00000000000E+00 0.  1.
         21   -1    0    0  501  502 -0.00000000000E+00 -0.00000000000E+00 -0.14901421326E+04  0.14901421326E+04  0.00000000000E+00 0.  1.
         21    1    1    2  503  504 -0.35883321417E+02 -0.85574676031E+01 -0.28318715271E+03  0.28557977251E+03  0.00000000000E+00 0.  1.
         21    1    1    2  504  502  0.35883321417E+02  0.85574676031E+01 -0.12054765151E+04  0.12060408249E+04  0.00000000000E+00 0.  1.
<mgrwt>
<rscale>  2 0.36889606E+02</rscale>
<asrwt>0</asrwt>
<pdfrwt beam="1">  1       21 0.22745698E-03 0.36889606E+02</pdfrwt>
<pdfrwt beam="2">  1       21 0.22925177E+00 0.36889606E+02</pdfrwt>
<totfact> 0.33958609E+06</totfact>
</mgrwt>
</event>
<event>
 4    1  0.4505197E+006  0.2058390E+02  0.7546771E-02  0.1733960E+00
         21   -1    0    0  503  501  0.00000000000E+00  0.00000000000E+00  0.15314992675E+02  0.15314992675E+02  0.00000000000E+00 0. -1.
         21   -1    0    0  504  502 -0.00000000000E+00 -0.00000000000E+00 -0.40493734801E+02  0.40493734801E+02  0.00000000000E+00 0. -1.
         21    1    1    2  503  502  0.24455102663E+01 -0.20438114460E+02  0.31164820776E+01  0.20818489467E+02  0.00000000000E+00 0. -1.
         21    1    1    2  504  501 -0.24455102663E+01  0.20438114460E+02 -0.28295224204E+02  0.34990238009E+02  0.00000000000E+00 0. -1.
<mgrwt>
<rscale>  2 0.20583903E+02</rscale>
<asrwt>0</asrwt>
<pdfrwt beam="1">  1       21 0.23561528E-02 0.20583903E+02</pdfrwt>
<pdfrwt beam="2">  1       21 0.62298052E-02 0.20583903E+02</pdfrwt>
<totfact> 0.11343238E+08</totfact>
</mgrwt>
</event>
<event>
 4    1  0.4505197E+006  0.2632173E+02  0.7546771E-02  0.1642712E+00
         21   -1    0    0  503  501  0.00000000000E+00  0.00000000000E+00  0.30800393040E+03  0.30800393040E+03  0.00000000000E+00 0. -1.
         21   -1    0    0  501  502 -0.00000000000E+00 -0.00000000000E+00 -0.36260714794E+01  0.36260714794E+01  0.00000000000E+00 0. -1.
         21    1    1    2  503  504  0.22609897948E+02  0.13476868952E+02  0.24819560001E+03  0.24958743828E+03  0.00000000000E+00 0. -1.
         21    1    1    2  504  502 -0.22609897948E+02 -0.13476868952E+02  0.56182258915E+02  0.62042563606E+02  0.00000000000E+00 0. -1.
<mgrwt>
<rscale>  2 0.26321730E+02</rscale>
<asrwt>0</asrwt>
<pdfrwt beam="1">  1       21 0.47385199E-01 0.26321730E+02</pdfrwt>
<pdfrwt beam="2">  1       21 0.55785740E-03 0.26321730E+02</pdfrwt>
<totfact> 0.31237085E+07</totfact>
</mgrwt>
</event>
<event>
 4    1  0.4505197E+006  0.2478365E+02  0.7546771E-02  0.1664129E+00
         21   -1    0    0  504  501  0.00000000000E+00  0.00000000000E+00  0.15862672397E+02  0.15862672397E+02  0.00000000000E+00 0. -1.
         21   -1    0    0  503  502 -0.00000000000E+00 -0.00000000000E+00 -0.52807542306E+03  0.52807542306E+03  0.00000000000E+00 0.  1.
         21    1    1    2  503  501 -0.22173264042E+02 -0.11071380437E+02 -0.51791440743E+03  0.51850705157E+03  0.00000000000E+00 0.  1.
         21    1    1    2  504  502  0.22173264042E+02  0.11071380437E+02  0.57016567713E+01  0.25431043883E+02  0.00000000000E+00 0. -1.
<mgrwt>
<rscale>  2 0.24783646E+02</rscale>
<asrwt>0</asrwt>
<pdfrwt beam="1">  1       21 0.24404109E-02 0.24783646E+02</pdfrwt>
<pdfrwt beam="2">  1       21 0.81242380E-01 0.24783646E+02</pdfrwt>
<totfact> 0.11131595E+06</totfact>
</mgrwt>
</event>
<event>
 4    1  0.4505197E+006  0.2854544E+02  0.7546771E-02  0.1614747E+00
         21   -1    0    0  504  501  0.00000000000E+00  0.00000000000E+00  0.15439378276E+03  0.15439378276E+03  0.00000000000E+00 0.  1.
         21   -1    0    0  503  502 -0.00000000000E+00 -0.00000000000E+00 -0.82217989609E+01  0.82217989609E+01  0.00000000000E+00 0.  1.
         21    1    1    2  503  501 -0.28536529172E+02 -0.71303999729E+00  0.12174082208E+03  0.12504267145E+03  0.00000000000E+00 0.  1.
         21    1    1    2  504  502  0.28536529172E+02  0.71303999729E+00  0.24431161723E+02  0.37572910273E+02  0.00000000000E+00 0.  1.
<mgrwt>
<rscale>  2 0.28545436E+02</rscale>
<asrwt>0</asrwt>
<pdfrwt beam="1">  1       21 0.23752888E-01 0.28545436E+02</pdfrwt>
<pdfrwt beam="2">  1       21 0.12648923E-02 0.28545436E+02</pdfrwt>
<totfact> 0.33487076E+07</totfact>
</mgrwt>
</event>
<event>
 4    1  0.4505197E+006  0.2317395E+02  0.7546771E-02  0.1688706E+00
         21   -1    0    0  504  501  0.00000000000E+00  0.00000000000E+00  0.61707719832E+02  0.61707719832E+02  0.00000000000E+00 0. -1.
         21   -1    0    0  503  502 -0.00000000000E+00 -0.00000000000E+00 -0.31545862383E+02  0.31545862383E+02  0.00000000000E+00 0. -1.
         21    1    1    2  503  501  0.76273737883E+00 -0.23161398052E+02  0.54758141117E+02  0.59459954142E+02  0.00000000000E+00 0. -1.
         21    1    1    2  504  502 -0.76273737883E+00  0.23161398052E+02 -0.24596283667E+02  0.33793628072E+02  0.00000000000E+00 0. -1.
<mgrwt>
<rscale>  2 0.23173954E+02</rscale>
<asrwt>0</asrwt>
<pdfrwt beam="1">  1       21 0.94934953E-02 0.23173954E+02</pdfrwt>
<pdfrwt beam="2">  1       21 0.48532096E-02 0.23173954E+02</pdfrwt>
<totfact> 0.19081813E+07</totfact>
</mgrwt>
</event>
<event>
 4    1  0.4505197E+006  0.2138826E+02  0.7546771E-02  0.1719052E+00
         21   -1    0    0  503  501  0.00000000000E+00  0.00000000000E+00  0.10616368322E+04  0.10616368322E+04  0.00000000000E+00 0.  1.
         21   -1    0    0  504  502 -0.00000000000E+00 -0.00000000000E+00 -0.43272874879E+00  0.43272874879E+00  0.00000000000E+00 0.  1.
         21    1    1    2  503  502 -0.97412207360E+01  0.19041179014E+02  0.56513647027E+03  0.56554105767E+03  0.00000000000E+00 0.  1.
         21    1    1    2  504  501  0.97412207360E+01 -0.19041179014E+02  0.49606763320E+03  0.49652850330E+03  0.00000000000E+00 0.  1.
<mgrwt>
<rscale>  2 0.21388265E+02</rscale>
<asrwt>0</asrwt>
<pdfrwt beam="1">  1       21 0.16332666E+00 0.21388265E+02</pdfrwt>
<pdfrwt beam="2">  1       21 0.66574504E-04 0.21388265E+02</pdfrwt>
<totfact> 0.45248136E+07</totfact>
</mgrwt>
</event>
<event>
 4    1  0.4505197E+006  0.4547983E+02  0.7546771E-02  0.1471368E+00
         21   -1    0    0  502  501  0.00000000000E+00  0.00000000000E+00  0.13463928788E+03  0.13463928788E+03  0.00000000000E+00 0.  1.
         21   -1    0    0  503  502 -0.00000000000E+00 -0.00000000000E+00 -0.21446880478E+02  0.21446880478E+02  0.00000000000E+00 0.  1.
         21    1    1    2  503  504 -0.41243189032E+02  0.19168058976E+02  0.15028552403E+02  0.47898564841E+02  0.00000000000E+00 0.  1.
         21    1    1    2  504  501  0.41243189032E+02 -0.19168058976E+02  0.98163855001E+02  0.10818760352E+03  0.00000000000E+00 0.  1.
<mgrwt>
<rscale>  2 0.45479832E+02</rscale>
<asrwt>0</asrwt>
<pdfrwt beam="1">  1       21 0.20713736E-01 0.45479832E+02</pdfrwt>
<pdfrwt beam="2">  1       21 0.32995202E-02 0.45479832E+02</pdfrwt>
<totfact> 0.10349403E+07</totfact>
</mgrwt>
</event>
<event>
 4    1  0.4505197E+006  0.2075670E+02  0.7546771E-02  0.1730686E+00
         21   -1    0    0  504  501  0.00000000000E+00  0.00000000000E+00  0.42163309144E+03  0.42163309144E+03  0.00000000000E+00 0. -1.
         21   -1    0    0  503  502 -0.00000000000E+00 -0.00000000000E+00 -0.14061163438E+01  0.14061163438E+01  0.00000000000E+00 0. -1.
         21    1    1    2  503  501  0.17291224338E+02 -0.11482783162E+02  0.32069000471E+03  0.32136104286E+03  0.00000000000E+00 0. -1.
         21    1    1    2  504  502 -0.17291224338E+02  0.11482783162E+02  0.99536970387E+02  0.10167816492E+03  0.00000000000E+00 0. -1.
<mgrwt>
<rscale>  2 0.20756704E+02</rscale>
<asrwt>0</asrwt>
<pdfrwt beam="1">  1       21 0.64866528E-01 0.20756704E+02</pdfrwt>
<pdfrwt beam="2">  1       21 0.21632593E-03 0.20756704E+02</pdfrwt>
<totfact> 0.63639149E+07</totfact>
</mgrwt>
</event>
<event>
 4    1  0.4505197E+006  0.2085419E+02  0.7546771E-02  0.1728856E+00
         21   -1    0    0  502  501  0.00000000000E+00  0.00000000000E+00  0.23145451064E+01  0.23145451064E+01  0.00000000000E+00 0.  1.
         21   -1    0    0  503  502 -0.00000000000E+00 -0.00000000000E+00 -0.38245352133E+03  0.38245352133E+03  0.00000000000E+00 0.  1.
         21    1    1    2  503  504 -0.11910526504E+02 -0.17118317735E+02 -0.32728459644E+03  0.32794832598E+03  0.00000000000E+00 0.  1.
         21    1    1    2  504  501  0.11910526504E+02  0.17118317735E+02 -0.52854379786E+02  0.56819740463E+02  0.00000000000E+00 0.  1.
<mgrwt>
<rscale>  2 0.20854195E+02</rscale>
<asrwt>0</asrwt>
<pdfrwt beam="1">  1       21 0.35608393E-03 0.20854195E+02</pdfrwt>
<pdfrwt beam="2">  1       21 0.58838992E-01 0.20854195E+02</pdfrwt>
<totfact> 0.37597252E+07</totfact>
</mgrwt>
</event>
<event>
 4    1  0.4505197E+006  0.2174042E+02  0.7546771E-02  0.1712780E+00
         21   -1    0    0  503  501  0.00000000000E+00  0.00000000000E+00  0.24678787958E+01  0.24678787958E+01  0.00000000000E+00 0. -1.
         21   -1    0    0  504  502 -0.00000000000E+00 -0.00000000000E+00 -0.27112454742E+03  0.27112454742E+03  0.00000000000E+00 0.  1.
         21    1    1    2  503  502  0.33599879020E+01 -0.21479207018E+02 -0.20845272383E+03  0.20958335794E+03  0.00000000000E+00 0.  1.
         21    1    1    2  504  501 -0.33599879020E+01  0.21479207018E+02 -0.60203944788E+02  0.64009068271E+02  0.00000000000E+00 0. -1.
<mgrwt>
<rscale>  2 0.21740420E+02</rscale>
<asrwt>0</asrwt>
<pdfrwt beam="1">  1       21 0.37967382E-03 0.21740420E+02</pdfrwt>
<pdfrwt beam="2">  1       21 0.41711452E-01 0.21740420E+02</pdfrwt>
<totfact> 0.67302995E+07</totfact>
</mgrwt>
</event>
<event>
 4    1  0.4505197E+006  0.2897632E+02  0.7546771E-02  0.1609688E+00
         21   -1    0    0  503  501  0.00000000000E+00  0.00000000000E+00  0.36603417356E+03  0.36603417356E+03  0.00000000000E+00 0.  1.
         21   -1    0    0  501  502 -0.00000000000E+00 -0.00000000000E+00 -0.28751263425E+01  0.28751263425E+01  0.00000000000E+00 0.  1.
         21    1    1    2  503  504 -0.24859553897E+01 -0.28869484699E+02  0.26451738653E+03  0.26609974614E+03  0.00000000000E+00 0.  1.
         21    1    1    2  504  502  0.24859553897E+01  0.28869484699E+02  0.98641660691E+02  0.10280955376E+03  0.00000000000E+00 0.  1.
<mgrwt>
<rscale>  2 0.28976320E+02</rscale>
<asrwt>0</asrwt>
<pdfrwt beam="1">  1       21 0.56312913E-01 0.28976320E+02</pdfrwt>
<pdfrwt beam="2">  1       21 0.44232742E-03 0.28976320E+02</pdfrwt>
<totfact> 0.31978728E+07</totfact>
</mgrwt>
</event>
<event>
 4    1  0.4505197E+006  0.2271741E+02  0.7546771E-02  0.1696132E+00
         21   -1    0    0  502  501  0.00000000000E+00  0.00000000000E+00  0.47212147896E+01  0.47212147896E+01  0.00000000000E+00 0.  1.
         21   -1    0    0  503  502 -0.00000000000E+00 -0.00000000000E+00 -0.44023537757E+03  0.44023537757E+03  0.00000000000E+00 0. -1.
         21    1    1    2  503  504 -0.17128626146E+02 -0.14922823525E+02 -0.41064702677E+03  0.41127492154E+03  0.00000000000E+00 0. -1.
         21    1    1    2  504  501  0.17128626146E+02  0.14922823525E+02 -0.24867136012E+02  0.33681670818E+02  0.00000000000E+00 0.  1.
<mgrwt>
<rscale>  2 0.22717405E+02</rscale>
<asrwt>0</asrwt>
<pdfrwt beam="1">  1       21 0.72634063E-03 0.22717405E+02</pdfrwt>
<pdfrwt beam="2">  1       21 0.67728529E-01 0.22717405E+02</pdfrwt>
<totfact> 0.10089842E+07</totfact>
</mgrwt>
</event>
<event>
 4    1  0.4505197E+006  0.2020695E+02  0.7546771E-02  0.1741244E+00
         21   -1    0    0  503  501  0.00000000000E+00  0.00000000000E+00  0.24691716276E+02  0.24691716276E+02  0.00000000000E+00 0. -1.
         21   -1    0    0  501  502 -0.00000000000E+00 -0.00000000000E+00 -0.61339471302E+02  0.61339471302E+02  0.00000000000E+00 0. -1.
         21    1    1    2  503  504 -0.19294939982E+02  0.60021608847E+01  0.18438883721E+02  0.27355311679E+02  0.00000000000E+00 0. -1.
         21    1    1    2  504  502  0.19294939982E+02 -0.60021608847E+01 -0.55086638746E+02  0.58675875899E+02  0.00000000000E+00 0. -1.
<mgrwt>
<rscale>  2 0.20206945E+02</rscale>
<asrwt>0</asrwt>
<pdfrwt beam="1">  1       21 0.37987256E-02 0.20206945E+02</pdfrwt>
<pdfrwt beam="2">  1       21 0.94368417E-02 0.20206945E+02</pdfrwt>
<totfact> 0.27471642E+07</totfact>
</mgrwt>
</event>
<event>
 4    1  0.4505197E+006  0.2421383E+02  0.7546771E-02  0.1672558E+00
         21   -1    0    0  502  501  0.00000000000E+00  0.00000000000E+00  0.47869133417E+03  0.47869133417E+03  0.00000000000E+00 0.  1.
         21   -1    0    0  503  502 -0.00000000000E+00 -0.00000000000E+00 -0.47677843393E+02  0.47677843393E+02  0.00000000000E+00 0.  1.
         21    1    1    2  503  504 -0.16995959693E+02 -0.17246651004E+02 -0.44275314942E+02  0.50463978538E+02  0.00000000000E+00 0.  1.
         21    1    1    2  504  501  0.16995959693E+02  0.17246651004E+02  0.47528880572E+03  0.47590519903E+03  0.00000000000E+00 0.  1.
<mgrwt>
<rscale>  2 0.24213831E+02</rscale>
<asrwt>0</asrwt>
<pdfrwt beam="1">  1       21 0.73644817E-01 0.24213831E+02</pdfrwt>
<pdfrwt beam="2">  1       21 0.73350532E-02 0.24213831E+02</pdfrwt>
<totfact> 0.23853573E+05</totfact>
</mgrwt>
</event>
<event>
 4    1  0.4505197E+006  0.2568504E+02  0.7546771E-02  0.1651353E+00
         21   -1    0    0  502  501  0.00000000000E+00  0.00000000000E+00  0.80002564703E+01  0.80002564703E+01  0.00000000000E+00 0.  1.
         21   -1    0    0  503  502 -0.00000000000E+00 -0.00000000000E+00 -0.12477892047E+03  0.12477892047E+03  0.00000000000E+00 0.  1.
         21    1    1    2  503  504 -0.25662797051E+02  0.10686567018E+01 -0.97051286636E+02  0.10039259643E+03  0.00000000000E+00 0.  1.
         21    1    1    2  504  501  0.25662797051E+02 -0.10686567018E+01 -0.19727377359E+02  0.32386580509E+02  0.00000000000E+00 0.  1.
<mgrwt>
<rscale>  2 0.25685038E+02</rscale>
<asrwt>0</asrwt>
<pdfrwt beam="1">  1       21 0.12308088E-02 0.25685038E+02</pdfrwt>
<pdfrwt beam="2">  1       21 0.19196755E-01 0.25685038E+02</pdfrwt>
<totfact> 0.49692812E+07</totfact>
</mgrwt>
</event>
<event>
 4    1  0.4505197E+006  0.2076178E+02  0.7546771E-02  0.1730590E+00
         21   -1    0    0  504  501  0.00000000000E+00  0.00000000000E+00  0.13482954090E+02  0.13482954090E+02  0.00000000000E+00 0.  1.
         21   -1    0    0  503  502 -0.00000000000E+00 -0.00000000000E+00 -0.41458459300E+02  0.41458459300E+02  0.00000000000E+00 0.  1.
         21    1    1    2  503  501  0.18151094000E+02  0.10079142222E+02 -0.27129675994E+02  0.34162415618E+02  0.00000000000E+00 0.  1.
         21    1    1    2  504  502 -0.18151094000E+02 -0.10079142222E+02 -0.84582921668E+00  0.20778997772E+02  0.00000000000E+00 0.  1.
<mgrwt>
<rscale>  2 0.20761775E+02</rscale>
<asrwt>0</asrwt>
<pdfrwt beam="1">  1       21 0.20743007E-02 0.20761775E+02</pdfrwt>
<pdfrwt beam="2">  1       21 0.63782244E-02 0.20761775E+02</pdfrwt>
<totfact> 0.13314344E+08</totfact>
</mgrwt>
</event>
<event>
 4    1  0.4505197E+006  0.2337629E+02  0.7546771E-02  0.1685482E+00
         21   -1    0    0  504  501  0.00000000000E+00  0.00000000000E+00  0.10611625644E+04  0.10611625644E+04  0.00000000000E+00 0.  1.
         21   -1    0    0  501  502 -0.00000000000E+00 -0.00000000000E+00 -0.33106422599E+01  0.33106422599E+01  0.00000000000E+00 0.  1.
         21    1    1    2  503  502 -0.12937826346E+02 -0.19469555349E+02  0.39831316298E+02  0.46184247251E+02  0.00000000000E+00 0.  1.
         21    1    1    2  504  503  0.12937826346E+02  0.19469555349E+02  0.10180206059E+04  0.10182889594E+04  0.00000000000E+00 0.  1.
<mgrwt>
<rscale>  2 0.23376290E+02</rscale>
<asrwt>0</asrwt>
<pdfrwt beam="1">  1       21 0.16325551E+00 0.23376290E+02</pdfrwt>
<pdfrwt beam="2">  1       21 0.50933042E-03 0.23376290E+02</pdfrwt>
<totfact> 0.24443434E+06</totfact>
</mgrwt>
</event>
<event>
 4    1  0.4505197E+006  0.2569146E+02  0.7546771E-02  0.1651264E+00
         21   -1    0    0  503  501  0.00000000000E+00  0.00000000000E+00  0.10098117511E+04  0.10098117511E+04  0.00000000000E+00 0.  1.
         21   -1    0    0  504  502 -0.00000000000E+00 -0.00000000000E+00 -0.34674397757E+01  0.34674397757E+01  0.00000000000E+00 0.  1.
         21    1    1    2  503  502  0.23457328483E+02 -0.10478782031E+02  0.95956773577E+03  0.95991160565E+03  0.00000000000E+00 0.  1.
         21    1    1    2  504  501 -0.23457328483E+02  0.10478782031E+02  0.46776575576E+02  0.53367585247E+02  0.00000000000E+00 0.  1.
<mgrwt>
<rscale>  2 0.25691460E+02</rscale>
<asrwt>0</asrwt>
<pdfrwt beam="1">  1       21 0.15535542E+00 0.25691460E+02</pdfrwt>
<pdfrwt beam="2">  1       21 0.53345308E-03 0.25691460E+02</pdfrwt>
<totfact> 0.25952741E+06</totfact>
</mgrwt>
</event>
<event>
 4    1  0.4505197E+006  0.2020779E+02  0.7546771E-02  0.1741227E+00
         21   -1    0    0  504  501  0.00000000000E+00  0.00000000000E+00  0.24280498348E+01  0.24280498348E+01  0.00000000000E+00 0.  1.
         21   -1    0    0  503  502 -0.00000000000E+00 -0.00000000000E+00 -0.30769457625E+03  0.30769457625E+03  0.00000000000E+00 0.  1.
         21    1    1    2  503  501  0.28013873183E+01 -0.20012671150E+02 -0.48221388064E+02  0.52284386238E+02  0.00000000000E+00 0.  1.
         21    1    1    2  504  502 -0.28013873183E+01  0.20012671150E+02 -0.25704513835E+03  0.25783823985E+03  0.00000000000E+00 0.  1.
<mgrwt>
<rscale>  2 0.20207790E+02</rscale>
<asrwt>0</asrwt>
<pdfrwt beam="1">  1       21 0.37354642E-03 0.20207790E+02</pdfrwt>
<pdfrwt beam="2">  1       21 0.47337590E-01 0.20207790E+02</pdfrwt>
<totfact> 0.53176213E+07</totfact>
</mgrwt>
</event>
<event>
 4    1  0.4505197E+006  0.2821551E+02  0.7546771E-02  0.1618695E+00
         21   -1    0    0  503  501  0.00000000000E+00  0.00000000000E+00  0.85256109594E+01  0.85256109594E+01  0.00000000000E+00 0. -1.
         21   -1    0    0  504  502 -0.00000000000E+00 -0.00000000000E+00 -0.10650334789E+03  0.10650334789E+03  0.00000000000E+00 0. -1.
         21    1    1    2  503  502 -0.27549635338E+02 -0.60936528789E+01 -0.69178601405E+02  0.74711404116E+02  0.00000000000E+00 0. -1.
         21    1    1    2  504  501  0.27549635338E+02  0.60936528789E+01 -0.28799135527E+02  0.40317554735E+02  0.00000000000E+00 0. -1.
<mgrwt>
<rscale>  2 0.28215510E+02</rscale>
<asrwt>0</asrwt>
<pdfrwt beam="1">  1       21 0.13116326E-02 0.28215510E+02</pdfrwt>
<pdfrwt beam="2">  1       21 0.16385129E-01 0.28215510E+02</pdfrwt>
<totfact> 0.60717064E+07</totfact>
</mgrwt>
</event>
<event>
 4    1  0.4505197E+006  0.2103385E+02  0.7546771E-02  0.1725517E+00
         21   -1    0    0  503  501  0.00000000000E+00  0.00000000000E+00  0.23618791774E+01  0.23618791774E+01  0.00000000000E+00 0.  1.
         21   -1    0    0  504  502 -0.00000000000E+00 -0.00000000000E+00 -0.23172355172E+03  0.23172355172E+03  0.00000000000E+00 0.  1.
         21    1    1    2  503  502 -0.15257975557E+02  0.14478151738E+02 -0.63444567298E+02  0.66840375638E+02  0.00000000000E+00 0.  1.
         21    1    1    2  504  501  0.15257975557E+02 -0.14478151738E+02 -0.16591710525E+03  0.16724505526E+03  0.00000000000E+00 0.  1.
<mgrwt>
<rscale>  2 0.21033846E+02</rscale>
<asrwt>0</asrwt>
<pdfrwt beam="1">  1       21 0.36336578E-03 0.21033846E+02</pdfrwt>
<pdfrwt beam="2">  1       21 0.35649801E-01 0.21033846E+02</pdfrwt>
<totfact> 0.95408007E+07</totfact>
</mgrwt>
</event>
<event>
 4    1  0.4505197E+006  0.2156486E+02  0.7546771E-02  0.1715888E+00
         21   -1    0    0  503  501  0.00000000000E+00  0.00000000000E+00  0.29573943327E+02  0.29573943327E+02  0.00000000000E+00 0.  1.
         21   -1    0    0  504  502 -0.00000000000E+00 -0.00000000000E+00 -0.29501801741E+02  0.29501801741E+02  0.00000000000E+00 0.  1.
         21    1    1    2  503  502  0.19322166070E+02 -0.95758517170E+01  0.20221267909E+02  0.29562522111E+02  0.00000000000E+00 0.  1.
         21    1    1    2  504  501 -0.19322166070E+02  0.95758517170E+01 -0.20149126322E+02  0.29513222957E+02  0.00000000000E+00 0.  1.
<mgrwt>
<rscale>  2 0.21564857E+02</rscale>
<asrwt>0</asrwt>
<pdfrwt beam="1">  1       21 0.45498374E-02 0.21564857E+02</pdfrwt>
<pdfrwt beam="2">  1       21 0.45387387E-02 0.21564857E+02</pdfrwt>
<totfact> 0.68266707E+07</totfact>
</mgrwt>
</event>
<event>
 4    1  0.4505197E+006  0.2827672E+02  0.7546771E-02  0.1617958E+00
         21   -1    0    0  503  501  0.00000000000E+00  0.00000000000E+00  0.16146727438E+02  0.16146727438E+02  0.00000000000E+00 0. -1.
         21   -1    0    0  504  502 -0.00000000000E+00 -0.00000000000E+00 -0.70618958818E+02  0.70618958818E+02  0.00000000000E+00 0. -1.
         21    1    1    2  503  502 -0.18050747689E+02  0.21765643842E+02 -0.50949649636E+02  0.58270400222E+02  0.00000000000E+00 0. -1.
         21    1    1    2  504  501  0.18050747689E+02 -0.21765643842E+02 -0.35225817446E+01  0.28495286034E+02  0.00000000000E+00 0. -1.
<mgrwt>
<rscale>  2 0.28276717E+02</rscale>
<asrwt>0</asrwt>
<pdfrwt beam="1">  1       21 0.24841119E-02 0.28276717E+02</pdfrwt>
<pdfrwt beam="2">  1       21 0.10864455E-01 0.28276717E+02</pdfrwt>
<totfact> 0.45702609E+07</totfact>
</mgrwt>
</event>
<event>
 4    1  0.4505197E+006  0.3207637E+02  0.7546771E-02  0.1576210E+00
         21   -1    0    0  504  501  0.00000000000E+00  0.00000000000E+00  0.13199657774E+03  0.13199657774E+03  0.00000000000E+00 0.  1.
         21   -1    0    0  503  502 -0.00000000000E+00 -0.00000000000E+00 -0.78735155475E+01  0.78735155475E+01  0.00000000000E+00 0.  1.
         21    1    1    2  503  501 -0.15092253867E+01 -0.32040843806E+02  0.55071087908E+02  0.63731610339E+02  0.00000000000E+00 0.  1.
         21    1    1    2  504  502  0.15092253867E+01  0.32040843806E+02  0.69051974286E+02  0.76138482950E+02  0.00000000000E+00 0.  1.
<mgrwt>
<rscale>  2 0.32076369E+02</rscale>
<asrwt>0</asrwt>
<pdfrwt beam="1">  1       21 0.20307164E-01 0.32076369E+02</pdfrwt>
<pdfrwt beam="2">  1       21 0.12113102E-02 0.32076369E+02</pdfrwt>
<totfact> 0.48430926E+07</totfact>
</mgrwt>
</event>
<event>
 4    1  0.4505197E+006  0.2631791E+02  0.7546771E-02  0.1642763E+00
         21   -1    0    0  502  501  0.00000000000E+00  0.00000000000E+00  0.39363471230E+01  0.39363471230E+01  0.00000000000E+00 0.  1.
         21   -1    0    0  504  502 -0.00000000000E+00 -0.00000000000E+00 -0.18576849300E+03  0.18576849300E+03  0.00000000000E+00 0.  1.
         21    1    1    2  503  501 -0.13159097342E+01 -0.26284989117E+02 -0.69118659196E+02  0.73959592484E+02  0.00000000000E+00 0.  1.
         21    1    1    2  504  503  0.13159097342E+01  0.26284989117E+02 -0.11271348668E+03  0.11574524764E+03  0.00000000000E+00 0.  1.
<mgrwt>
<rscale>  2 0.26317908E+02</rscale>
<asrwt>0</asrwt>
<pdfrwt beam="1">  1       21 0.60559179E-03 0.26317908E+02</pdfrwt>
<pdfrwt beam="2">  1       21 0.28579772E-01 0.26317908E+02</pdfrwt>
<totfact> 0.71392185E+07</totfact>
</mgrwt>
</event>
<event>
 4    1  0.4505197E+006  0.2611754E+02  0.7546771E-02  0.1645450E+00
         21   -1    0    0  502  501  0.00000000000E+00  0.00000000000E+00  0.66848957902E+02  0.66848957902E+02  0.00000000000E+00 0.  1.
         21   -1    0    0  503  502 -0.00000000000E+00 -0.00000000000E+00 -0.16505792437E+02  0.16505792437E+02  0.00000000000E+00 0.  1.
         21    1    1    2  503  504  0.24693223597E+02  0.85070859010E+01 -0.58063965036E+00  0.26123991742E+02  0.00000000000E+00 0.  1.
         21    1    1    2  504  501 -0.24693223597E+02 -0.85070859010E+01  0.50923805115E+02  0.57230758597E+02  0.00000000000E+00 0.  1.
<mgrwt>
<rscale>  2 0.26117538E+02</rscale>
<asrwt>0</asrwt>
<pdfrwt beam="1">  1       21 0.10284455E-01 0.26117538E+02</pdfrwt>
<pdfrwt beam="2">  1       21 0.25393527E-02 0.26117538E+02</pdfrwt>
<totfact> 0.47523689E+07</totfact>
</mgrwt>
</event>
<event>
 4    1  0.4505197E+006  0.2020270E+02  0.7546771E-02  0.1741327E+00
         21   -1    0    0  504  501  0.00000000000E+00  0.00000000000E+00  0.36530664885E+02  0.36530664885E+02  0.00000000000E+00 0. -1.
         21   -1    0    0  503  502 -0.00000000000E+00 -0.00000000000E+00 -0.13108257119E+02  0.13108257119E+02  0.00000000000E+00 0. -1.
         21    1    1    2  503  501  0.17767950073E+02 -0.96150353762E+01  0.21248258738E+02  0.29319574596E+02  0.00000000000E+00 0. -1.
         21    1    1    2  504  502 -0.17767950073E+02  0.96150353762E+01  0.21741490282E+01  0.20319347408E+02  0.00000000000E+00 0. -1.
<mgrwt>
<rscale>  2 0.20202697E+02</rscale>
<asrwt>0</asrwt>
<pdfrwt beam="1">  1       21 0.56201022E-02 0.20202697E+02</pdfrwt>
<pdfrwt beam="2">  1       21 0.20166550E-02 0.20202697E+02</pdfrwt>
<totfact> 0.16872578E+08</totfact>
</mgrwt>
</event>
<event>
 4    1  0.4505197E+006  0.2116594E+02  0.7546771E-02  0.1723089E+00
         21   -1    0    0  503  501  0.00000000000E+00  0.00000000000E+00  0.27373735593E+01  0.27373735593E+01  0.00000000000E+00 0. -1.
         21   -1    0    0  501  502 -0.00000000000E+00 -0.00000000000E+00 -0.20020206951E+03  0.20020206951E+03  0.00000000000E+00 0. -1.
         21    1    1    2  503  504  0.15121360116E+02 -0.14810187943E+02 -0.55381089938E+02  0.59287961016E+02  0.00000000000E+00 0. -1.
         21    1    1    2  504  502 -0.15121360116E+02  0.14810187943E+02 -0.14208360601E+03  0.14365148205E+03  0.00000000000E+00 0. -1.
<mgrwt>
<rscale>  2 0.21165944E+02</rscale>
<asrwt>0</asrwt>
<pdfrwt beam="1">  1       21 0.42113432E-03 0.21165944E+02</pdfrwt>
<pdfrwt beam="2">  1       21 0.30800324E-01 0.21165944E+02</pdfrwt>
<totfact> 0.10070995E+08</totfact>
</mgrwt>
</event>
<event>
 4    1  0.4505197E+006  0.2242370E+02  0.7546771E-02  0.1701026E+00
         21   -1    0    0  502  501  0.00000000000E+00  0.00000000000E+00  0.61739354839E+01  0.61739354839E+01  0.00000000000E+00 0.  1.
         21   -1    0    0  503  502 -0.00000000000E+00 -0.00000000000E+00 -0.52209874550E+03  0.52209874550E+03  0.00000000000E+00 0.  1.
         21    1    1    2  503  504  0.16114906461E+02  0.15592692311E+02 -0.50062435046E+03  0.50112629400E+03  0.00000000000E+00 0.  1.
         21    1    1    2  504  501 -0.16114906461E+02 -0.15592692311E+02 -0.15300459557E+02  0.27146386986E+02  0.00000000000E+00 0.  1.
<mgrwt>
<rscale>  2 0.22423699E+02</rscale>
<asrwt>0</asrwt>
<pdfrwt beam="1">  1       21 0.94983636E-03 0.22423699E+02</pdfrwt>
<pdfrwt beam="2">  1       21 0.80322873E-01 0.22423699E+02</pdfrwt>
<totfact> 0.47413404E+06</totfact>
</mgrwt>
</event>
<event>
 4    1  0.4505197E+006  0.2360791E+02  0.7546771E-02  0.1681842E+00
         21   -1    0    0  503  501  0.00000000000E+00  0.00000000000E+00  0.91671727232E+01  0.91671727232E+01  0.00000000000E+00 0.  1.
         21   -1    0    0  504  502 -0.00000000000E+00 -0.00000000000E+00 -0.13600127280E+03  0.13600127280E+03  0.00000000000E+00 0. -1.
         21    1    1    2  503  502 -0.18132528855E+02 -0.15117691908E+02 -0.94419979971E+01  0.25426060204E+02  0.00000000000E+00 0.  1.
         21    1    1    2  504  501  0.18132528855E+02  0.15117691908E+02 -0.11739210208E+03  0.11974238532E+03  0.00000000000E+00 0. -1.
<mgrwt>
<rscale>  2 0.23607906E+02</rscale>
<asrwt>0</asrwt>
<pdfrwt beam="1">  1       21 0.14103345E-02 0.23607906E+02</pdfrwt>
<pdfrwt beam="2">  1       21 0.20923270E-01 0.23607906E+02</pdfrwt>
<totfact> 0.34085962E+07</totfact>
</mgrwt>
</event>
<event>
 4    1  0.4505197E+006  0.3401340E+02  0.7546771E-02  0.1557540E+00
         21   -1    0    0  503  501  0.00000000000E+00  0.00000000000E+00  0.17139551033E+02  0.17139551033E+02  0.00000000000E+00 0.  1.
         21   -1    0    0  504  502 -0.00000000000E+00 -0.00000000000E+00 -0.69048784827E+02  0.69048784827E+02  0.00000000000E+00 0.  1.
         21    1    1    2  503  502 -0.31923449847E+02 -0.11739018748E+02 -0.32409753058E+02  0.46981946581E+02  0.00000000000E+00 0.  1.
         21    1    1    2  504  501  0.31923449847E+02  0.11739018748E+02 -0.19499480736E+02  0.39206389279E+02  0.00000000000E+00 0.  1.
<mgrwt>
<rscale>  2 0.34013398E+02</rscale>
<asrwt>0</asrwt>
<pdfrwt beam="1">  1       21 0.26368540E-02 0.34013398E+02</pdfrwt>
<pdfrwt beam="2">  1       21 0.10622890E-01 0.34013398E+02</pdfrwt>
<totfact> 0.44972918E+07</totfact>
</mgrwt>
</event>
<event>
 4    1  0.4505197E+006  0.2060354E+02  0.7546771E-02  0.1733586E+00
         21   -1    0    0  504  501  0.00000000000E+00  0.00000000000E+00  0.67940974135E+01  0.67940974135E+01  0.00000000000E+00 0.  1.
         21   -1    0    0  503  502 -0.00000000000E+00 -0.00000000000E+00 -0.62888677801E+02  0.62888677801E+02  0.00000000000E+00 0. -1.
         21    1    1    2  503  501 -0.27734545421E+01 -0.20416020277E+02 -0.30850522829E+02  0.37097987720E+02  0.00000000000E+00 0. -1.
         21    1    1    2  504  502  0.27734545421E+01  0.20416020277E+02 -0.25244057559E+02  0.32584787495E+02  0.00000000000E+00 0.  1.
<mgrwt>
<rscale>  2 0.20603542E+02</rscale>
<asrwt>0</asrwt>
<pdfrwt beam="1">  1       21 0.10452457E-02 0.20603542E+02</pdfrwt>
<pdfrwt beam="2">  1       21 0.96751814E-02 0.20603542E+02</pdfrwt>
<totfact> 0.19057051E+08</totfact>
</mgrwt>
</event>
<event>
 4    1  0.4505197E+006  0.8516190E+02  0.7546771E-02  0.1315010E+00
         21   -1    0    0  503  501  0.00000000000E+00  0.00000000000E+00  0.19344444003E+02  0.19344444003E+02  0.00000000000E+00 0. -1.
         21   -1    0    0  504  502 -0.00000000000E+00 -0.00000000000E+00 -0.39293182058E+03  0.39293182058E+03  0.00000000000E+00 0. -1.
         21    1    1    2  503  502 -0.62790693046E+02  0.57531538738E+02 -0.14265473013E+03  0.16614126853E+03  0.00000000000E+00 0. -1.
         21    1    1    2  504  501  0.62790693046E+02 -0.57531538738E+02 -0.23093264645E+03  0.24613499605E+03  0.00000000000E+00 0. -1.
<mgrwt>
<rscale>  2 0.85161899E+02</rscale>
<asrwt>0</asrwt>
<pdfrwt beam="1">  1       21 0.29760682E-02 0.85161899E+02</pdfrwt>
<pdfrwt beam="2">  1       21 0.60451052E-01 0.85161899E+02</pdfrwt>
<totfact> 0.16168417E+06</totfact>
</mgrwt>
</event>
<event>
 4    1  0.4505197E+006  0.2013608E+02  0.7546771E-02  0.1742636E+00
         21   -1    0    0  503  501  0.00000000000E+00  0.00000000000E+00  0.46018144380E+02  0.46018144380E+02  0.00000000000E+00 0. -1.
         21   -1    0    0  504  502 -0.00000000000E+00 -0.00000000000E+00 -0.24202297235E+02  0.24202297235E+02  0.00000000000E+00 0. -1.
         21    1    1    2  503  502 -0.61836191393E+01 -0.19163099859E+02  0.38907032183E+02  0.43808888312E+02  0.00000000000E+00 0. -1.
         21    1    1    2  504  501  0.61836191393E+01  0.19163099859E+02 -0.17091185038E+02  0.26411553303E+02  0.00000000000E+00 0. -1.
<mgrwt>
<rscale>  2 0.20136076E+02</rscale>
<asrwt>0</asrwt>
<pdfrwt beam="1">  1       21 0.70797145E-02 0.20136076E+02</pdfrwt>
<pdfrwt beam="2">  1       21 0.37234303E-02 0.20136076E+02</pdfrwt>
<totfact> 0.45171880E+07</totfact>
</mgrwt>
</event>
<event>
 4    1  0.4505197E+006  0.2109011E+02  0.7546771E-02  0.1724480E+00
         21   -1    0    0  504  501  0.00000000000E+00  0.00000000000E+00  0.50593227612E+01  0.50593227612E+01  0.00000000000E+00 0. -1.
         21   -1    0    0  503  502 -0.00000000000E+00 -0.00000000000E+00 -0.45316211578E+03  0.45316211578E+03  0.00000000000E+00 0.  1.
         21    1    1    2  503  501 -0.16134212799E+02 -0.13582337323E+02 -0.42974071175E+03  0.43025791340E+03  0.00000000000E+00 0.  1.
         21    1    1    2  504  502  0.16134212799E+02  0.13582337323E+02 -0.18362081275E+02  0.27963525145E+02  0.00000000000E+00 0. -1.
<mgrwt>
<rscale>  2 0.21090109E+02</rscale>
<asrwt>0</asrwt>
<pdfrwt beam="1">  1       21 0.77835734E-03 0.21090109E+02</pdfrwt>
<pdfrwt beam="2">  1       21 0.69717249E-01 0.21090109E+02</pdfrwt>
<totfact> 0.84702379E+06</totfact>
</mgrwt>
</event>
<event>
 4    1  0.4505197E+006  0.2143558E+02  0.7546771E-02  0.1718200E+00
         21   -1    0    0  504  501  0.00000000000E+00  0.00000000000E+00  0.13490513320E+03  0.13490513320E+03  0.00000000000E+00 0.  1.
         21   -1    0    0  501  502 -0.00000000000E+00 -0.00000000000E+00 -0.84199694406E+01  0.84199694406E+01  0.00000000000E+00 0. -1.
         21    1    1    2  503  502 -0.35963855966E+01  0.21131730491E+02  0.79421188216E+01  0.22859599172E+02  0.00000000000E+00 0. -1.
         21    1    1    2  504  503  0.35963855966E+01 -0.21131730491E+02  0.11854304493E+03  0.12046550347E+03  0.00000000000E+00 0.  1.
<mgrwt>
<rscale>  2 0.21435578E+02</rscale>
<asrwt>0</asrwt>
<pdfrwt beam="1">  1       21 0.20754634E-01 0.21435578E+02</pdfrwt>
<pdfrwt beam="2">  1       21 0.12953800E-02 0.21435578E+02</pdfrwt>
<totfact> 0.38416292E+07</totfact>
</mgrwt>
</event>
<event>
 4    1  0.4505197E+006  0.2340418E+02  0.7546771E-02  0.1685041E+00
         21   -1    0    0  504  501  0.00000000000E+00  0.00000000000E+00  0.26928438827E+02  0.26928438827E+02  0.00000000000E+00 0.  1.
         21   -1    0    0  503  502 -0.00000000000E+00 -0.00000000000E+00 -0.19198222892E+03  0.19198222892E+03  0.00000000000E+00 0.  1.
         21    1    1    2  503  501  0.12589082511E+01  0.23370292602E+02  0.20967548200E+02  0.31422818203E+02  0.00000000000E+00 0.  1.
         21    1    1    2  504  502 -0.12589082511E+01 -0.23370292602E+02 -0.18602133829E+03  0.18748784954E+03  0.00000000000E+00 0.  1.
<mgrwt>
<rscale>  2 0.23404175E+02</rscale>
<asrwt>0</asrwt>
<pdfrwt beam="1">  1       21 0.41428369E-02 0.23404175E+02</pdfrwt>
<pdfrwt beam="2">  1       21 0.29535726E-01 0.23404175E+02</pdfrwt>
<totfact> 0.34737288E+06</totfact>
</mgrwt>
</event>
<event>
 4    1  0.4505197E+006  0.3003963E+02  0.7546771E-02  0.1597651E+00
         21   -1    0    0  502  501  0.00000000000E+00  0.00000000000E+00  0.10855422899E+03  0.10855422899E+03  0.00000000000E+00 0. -1.
         21   -1    0    0  504  502 -0.00000000000E+00 -0.00000000000E+00 -0.80791014698E+02  0.80791014698E+02  0.00000000000E+00 0. -1.
         21    1    1    2  503  501 -0.26685098381E+02  0.13794376614E+02  0.10355155163E+03  0.10782069906E+03  0.00000000000E+00 0. -1.
         21    1    1    2  504  503  0.26685098381E+02 -0.13794376614E+02 -0.75788337331E+02  0.81524544630E+02  0.00000000000E+00 0. -1.
<mgrwt>
<rscale>  2 0.30039629E+02</rscale>
<asrwt>0</asrwt>
<pdfrwt beam="1">  1       21 0.16700651E-01 0.30039629E+02</pdfrwt>
<pdfrwt beam="2">  1       21 0.12429387E-01 0.30039629E+02</pdfrwt>
<totfact> 0.16355263E+06</totfact>
</mgrwt>
</event>
<event>
 4    1  0.4505197E+006  0.3723586E+02  0.7546771E-02  0.1529597E+00
         21   -1    0    0  503  501  0.00000000000E+00  0.00000000000E+00  0.21287540037E+02  0.21287540037E+02  0.00000000000E+00 0.  1.
         21   -1    0    0  504  502 -0.00000000000E+00 -0.00000000000E+00 -0.24893842528E+03  0.24893842528E+03  0.00000000000E+00 0.  1.
         21    1    1    2  503  502  0.36418071359E+02  0.77610137779E+01 -0.22992510217E+03  0.23292072013E+03  0.00000000000E+00 0.  1.
         21    1    1    2  504  501 -0.36418071359E+02 -0.77610137779E+01  0.22742169231E+01  0.37305245194E+02  0.00000000000E+00 0.  1.
<mgrwt>
<rscale>  2 0.37235860E+02</rscale>
<asrwt>0</asrwt>
<pdfrwt beam="1">  1       21 0.32750061E-02 0.37235860E+02</pdfrwt>
<pdfrwt beam="2">  1       21 0.38298220E-01 0.37235860E+02</pdfrwt>
<totfact> 0.32852321E+06</totfact>
</mgrwt>
</event>
<event>
 4    1  0.4505197E+006  0.2085039E+02  0.7546771E-02  0.1728927E+00
         21   -1    0    0  503  501  0.00000000000E+00  0.00000000000E+00  0.80339725888E+01  0.80339725888E+01  0.00000000000E+00 0. -1.
         21   -1    0    0  504  502 -0.00000000000E+00 -0.00000000000E+00 -0.67473231045E+03  0.67473231045E+03  0.00000000000E+00 0. -1.
         21    1    1    2  503  502 -0.55109507433E+01  0.20108904649E+02 -0.59412934400E+01  0.21680350367E+02  0.00000000000E+00 0. -1.
         21    1    1    2  504  501  0.55109507433E+01 -0.20108904649E+02 -0.66075704442E+03  0.66108593267E+03  0.00000000000E+00 0. -1.
<mgrwt>
<rscale>  2 0.20850387E+02</rscale>
<asrwt>0</asrwt>
<pdfrwt beam="1">  1       21 0.12359953E-02 0.20850387E+02</pdfrwt>
<pdfrwt beam="2">  1       21 0.10380501E+00 0.20850387E+02</pdfrwt>
<totfact> 0.18252599E+06</totfact>
</mgrwt>
</event>
<event>
 4    1  0.4505197E+006  0.2850810E+02  0.7546771E-02  0.1615190E+00
         21   -1    0    0  503  501  0.00000000000E+00  0.00000000000E+00  0.89816853703E+03  0.89816853703E+03  0.00000000000E+00 0.  1.
         21   -1    0    0  504  502 -0.00000000000E+00 -0.00000000000E+00 -0.69975295540E+02  0.69975295540E+02  0.00000000000E+00 0.  1.
         21    1    1    2  503  502 -0.27817183279E+02  0.62382671887E+01  0.89502857328E+03  0.89548247256E+03  0.00000000000E+00 0.  1.
         21    1    1    2  504  501  0.27817183279E+02 -0.62382671887E+01 -0.66835331794E+02  0.72661360014E+02  0.00000000000E+00 0.  1.
<mgrwt>
<rscale>  2 0.28508098E+02</rscale>
<asrwt>0</asrwt>
<pdfrwt beam="1">  1       21 0.13817977E+00 0.28508098E+02</pdfrwt>
<pdfrwt beam="2">  1       21 0.10765431E-01 0.28508098E+02</pdfrwt>
<totfact> 0.31461268E+04</totfact>
</mgrwt>
</event>
<event>
 4    1  0.4505197E+006  0.2244270E+02  0.7546771E-02  0.1700706E+00
         21   -1    0    0  504  501  0.00000000000E+00  0.00000000000E+00  0.13876709932E+03  0.13876709932E+03  0.00000000000E+00 0.  1.
         21   -1    0    0  501  502 -0.00000000000E+00 -0.00000000000E+00 -0.74038123407E+01  0.74038123407E+01  0.00000000000E+00 0.  1.
         21    1    1    2  503  502  0.22286222527E+02 -0.26456031724E+01  0.13500452005E+02  0.26190401581E+02  0.00000000000E+00 0.  1.
         21    1    1    2  504  503 -0.22286222527E+02  0.26456031724E+01  0.11786283497E+03  0.11998051008E+03  0.00000000000E+00 0.  1.
<mgrwt>
<rscale>  2 0.22442703E+02</rscale>
<asrwt>0</asrwt>
<pdfrwt beam="1">  1       21 0.21348783E-01 0.22442703E+02</pdfrwt>
<pdfrwt beam="2">  1       21 0.11390482E-02 0.22442703E+02</pdfrwt>
<totfact> 0.44897080E+07</totfact>
</mgrwt>
</event>
<event>
 4    1  0.4505197E+006  0.2133356E+02  0.7546771E-02  0.1720039E+00
         21   -1    0    0  503  501  0.00000000000E+00  0.00000000000E+00  0.10419050280E+02  0.10419050280E+02  0.00000000000E+00 0.  1.
         21   -1    0    0  504  502 -0.00000000000E+00 -0.00000000000E+00 -0.58357925578E+02  0.58357925578E+02  0.00000000000E+00 0.  1.
         21    1    1    2  503  502 -0.19426832293E+02  0.88158380613E+01 -0.41214778707E+02  0.46408822411E+02  0.00000000000E+00 0.  1.
         21    1    1    2  504  501  0.19426832293E+02 -0.88158380613E+01 -0.67240965912E+01  0.22368153447E+02  0.00000000000E+00 0.  1.
<mgrwt>
<rscale>  2 0.21333561E+02</rscale>
<asrwt>0</asrwt>
<pdfrwt beam="1">  1       21 0.16029308E-02 0.21333561E+02</pdfrwt>
<pdfrwt beam="2">  1       21 0.89781425E-02 0.21333561E+02</pdfrwt>
<totfact> 0.11425763E+08</totfact>
</mgrwt>
</event>
<event>
 4    1  0.4505197E+006  0.2668106E+02  0.7546771E-02  0.1637968E+00
         21   -1    0    0  504  501  0.00000000000E+00  0.00000000000E+00  0.28762082818E+03  0.28762082818E+03  0.00000000000E+00 0.  1.
         21   -1    0    0  503  502 -0.00000000000E+00 -0.00000000000E+00 -0.20621985943E+02  0.20621985943E+02  0.00000000000E+00 0. -1.
         21    1    1    2  503  501  0.20538081816E+01  0.26601894093E+02  0.27807643541E+03  0.27935350870E+03  0.00000000000E+00 0.  1.
         21    1    1    2  504  502 -0.20538081816E+01 -0.26601894093E+02 -0.11077593166E+02  0.28889305421E+02  0.00000000000E+00 0. -1.
<mgrwt>
<rscale>  2 0.26681059E+02</rscale>
<asrwt>0</asrwt>
<pdfrwt beam="1">  1       21 0.44249355E-01 0.26681059E+02</pdfrwt>
<pdfrwt beam="2">  1       21 0.31726134E-02 0.26681059E+02</pdfrwt>
<totfact> 0.25274553E+06</totfact>
</mgrwt>
</event>
<event>
 4    1  0.4505197E+006  0.2012223E+02  0.7546771E-02  0.1742908E+00
         21   -1    0    0  504  501  0.00000000000E+00  0.00000000000E+00  0.13000661854E+04  0.13000661854E+04  0.00000000000E+00 0. -1.
         21   -1    0    0  503  502 -0.00000000000E+00 -0.00000000000E+00 -0.40018406464E+00  0.40018406464E+00  0.00000000000E+00 0. -1.
         21    1    1    2  503  501 -0.18426064974E+02 -0.80860627939E+01  0.95602012837E+03  0.95623187048E+03  0.00000000000E+00 0. -1.
         21    1    1    2  504  502  0.18426064974E+02  0.80860627939E+01  0.34364587299E+03  0.34423449901E+03  0.00000000000E+00 0. -1.
<mgrwt>
<rscale>  2 0.20122234E+02</rscale>
<asrwt>0</asrwt>
<pdfrwt beam="1">  1       21 0.20000680E+00 0.20122234E+02</pdfrwt>
<pdfrwt beam="2">  1       21 0.61567820E-04 0.20122234E+02</pdfrwt>
<totfact> 0.30249551E+07</totfact>
</mgrwt>
</event>
<event>
 4    1  0.4505197E+006  0.2622306E+02  0.7546771E-02  0.1644032E+00
         21   -1    0    0  504  501  0.00000000000E+00  0.00000000000E+00  0.36208699676E+02  0.36208699676E+02  0.00000000000E+00 0.  1.
         21   -1    0    0  503  502 -0.00000000000E+00 -0.00000000000E+00 -0.68733948011E+02  0.68733948011E+02  0.00000000000E+00 0.  1.
         21    1    1    2  503  501  0.18578964843E+02  0.18505973417E+02  0.28374990887E+02  0.38636628924E+02  0.00000000000E+00 0.  1.
         21    1    1    2  504  502 -0.18578964843E+02 -0.18505973417E+02 -0.60900239223E+02  0.66306018763E+02  0.00000000000E+00 0.  1.
<mgrwt>
<rscale>  2 0.26223062E+02</rscale>
<asrwt>0</asrwt>
<pdfrwt beam="1">  1       21 0.55705693E-02 0.26223062E+02</pdfrwt>
<pdfrwt beam="2">  1       21 0.10574453E-01 0.26223062E+02</pdfrwt>
<totfact> 0.13122649E+07</totfact>
</mgrwt>
</event>
<event>
 4    1  0.4505197E+006  0.3410238E+02  0.7546771E-02  0.1556719E+00
         21   -1    0    0  504  501  0.00000000000E+00  0.00000000000E+00  0.42420066780E+01  0.42420066780E+01  0.00000000000E+00 0.  1.
         21   -1    0    0  503  502 -0.00000000000E+00 -0.00000000000E+00 -0.30271897947E+03  0.30271897947E+03  0.00000000000E+00 0.  1.
         21    1    1    2  503  501 -0.33507697739E+02  0.63408767447E+01 -0.10209372690E+03  0.10763875509E+03  0.00000000000E+00 0.  1.
         21    1    1    2  504  502  0.33507697739E+02 -0.63408767447E+01 -0.19638324589E+03  0.19932223105E+03  0.00000000000E+00 0.  1.
<mgrwt>
<rscale>  2 0.34102383E+02</rscale>
<asrwt>0</asrwt>
<pdfrwt beam="1">  1       21 0.65261617E-03 0.34102383E+02</pdfrwt>
<pdfrwt beam="2">  1       21 0.46572168E-01 0.34102383E+02</pdfrwt>
<totfact> 0.26818011E+07</totfact>
</mgrwt>
</event>
<event>
 4    1  0.4505197E+006  0.2184554E+02  0.7546771E-02  0.1710937E+00
         21   -1    0    0  504  501  0.00000000000E+00  0.00000000000E+00  0.29665971381E+03  0.29665971381E+03  0.00000000000E+00 0.  1.
         21   -1    0    0  501  502 -0.00000000000E+00 -0.00000000000E+00 -0.16943027803E+01  0.16943027803E+01  0.00000000000E+00 0.  1.
         21    1    1    2  503  502  0.10492711919E+02  0.19160656935E+02  0.11394566540E+03  0.11602087071E+03  0.00000000000E+00 0.  1.
         21    1    1    2  504  503 -0.10492711919E+02 -0.19160656935E+02  0.18101974563E+03  0.18233314588E+03  0.00000000000E+00 0.  1.
<mgrwt>
<rscale>  2 0.21845544E+02</rscale>
<asrwt>0</asrwt>
<pdfrwt beam="1">  1       21 0.45639915E-01 0.21845544E+02</pdfrwt>
<pdfrwt beam="2">  1       21 0.26066220E-03 0.21845544E+02</pdfrwt>
<totfact> 0.98185767E+07</totfact>
</mgrwt>
</event>
<event>
 4    1  0.4505197E+006  0.2422126E+02  0.7546771E-02  0.1672446E+00
         21   -1    0    0  504  501  0.00000000000E+00  0.00000000000E+00  0.11973474639E+03  0.11973474639E+03  0.00000000000E+00 0. -1.
         21   -1    0    0  503  502 -0.00000000000E+00 -0.00000000000E+00 -0.53161264458E+01  0.53161264458E+01  0.00000000000E+00 0.  1.
         21    1    1    2  503  501 -0.10995560765E+02  0.21581640203E+02  0.39710620458E+02  0.46514545333E+02  0.00000000000E+00 0.  1.
         21    1    1    2  504  502  0.10995560765E+02 -0.21581640203E+02  0.74707999486E+02  0.78536327502E+02  0.00000000000E+00 0. -1.
<mgrwt>
<rscale>  2 0.24221262E+02</rscale>
<asrwt>0</asrwt>
<pdfrwt beam="1">  1       21 0.18420728E-01 0.24221262E+02</pdfrwt>
<pdfrwt beam="2">  1       21 0.81786569E-03 0.24221262E+02</pdfrwt>
<totfact> 0.97410104E+07</totfact>
</mgrwt>
</event>
<event>
 4    1  0.4505197E+006  0.3366852E+02  0.7546771E-02  0.1560753E+00
         21   -1    0    0  504  501  0.00000000000E+00  0.00000000000E+00  0.30809454588E+02  0.30809454588E+02  0.00000000000E+00 0. -1.
         21   -1    0    0  503  502 -0.00000000000E+00 -0.00000000000E+00 -0.39342456434E+02  0.39342456434E+02  0.00000000000E+00 0. -1.
         21    1    1    2  503  501 -0.79245693492E+01 -0.32722633063E+02 -0.13195651987E+02  0.36162062238E+02  0.00000000000E+00 0. -1.
         21    1    1    2  504  502  0.79245693492E+01  0.32722633063E+02  0.46626501411E+01  0.33989848783E+02  0.00000000000E+00 0. -1.
<mgrwt>
<rscale>  2 0.33668524E+02</rscale>
<asrwt>0</asrwt>
<pdfrwt beam="1">  1       21 0.47399161E-02 0.33668524E+02</pdfrwt>
<pdfrwt beam="2">  1       21 0.60526856E-02 0.33668524E+02</pdfrwt>
<totfact> 0.44858064E+07</totfact>
</mgrwt>
</event>
<event>
 4    1  0.4505197E+006  0.2551792E+02  0.7546771E-02  0.1653672E+00
         21   -1    0    0  502  501  0.00000000000E+00  0.00000000000E+00  0.12543229314E+02  0.12543229314E+02  0.00000000000E+00 0. -1.
         21   -1    0    0  504  502 -0.00000000000E+00 -0.00000000000E+00 -0.85251167156E+02  0.85251167156E+02  0.00000000000E+00 0. -1.
         21    1    1    2  503  501  0.22057086311E+02  0.12831576055E+02 -0.57765621657E+01  0.26163582916E+02  0.00000000000E+00 0. -1.
         21    1    1    2  504  503 -0.22057086311E+02 -0.12831576055E+02 -0.66931375675E+02  0.71630813554E+02  0.00000000000E+00 0. -1.
<mgrwt>
<rscale>  2 0.25517923E+02</rscale>
<asrwt>0</asrwt>
<pdfrwt beam="1">  1       21 0.19297275E-02 0.25517923E+02</pdfrwt>
<pdfrwt beam="2">  1       21 0.13115565E-01 0.25517923E+02</pdfrwt>
<totfact> 0.48044117E+07</totfact>
</mgrwt>
</event>
<event>
 4    1  0.4505197E+006  0.4487582E+02  0.7546771E-02  0.1475118E+00
         21   -1    0    0  504  501  0.00000000000E+00  0.00000000000E+00  0.48889827170E+03  0.48889827170E+03  0.00000000000E+00 0.  1.
         21   -1    0    0  503  502 -0.00000000000E+00 -0.00000000000E+00 -0.68834218012E+01  0.68834218012E+01  0.00000000000E+00 0.  1.
         21    1    1    2  503  501  0.12628657191E+02 -0.43062238714E+02  0.83917032725E+02  0.95162533420E+02  0.00000000000E+00 0.  1.
         21    1    1    2  504  502 -0.12628657191E+02  0.43062238714E+02  0.39809781717E+03  0.40061916008E+03  0.00000000000E+00 0.  1.
<mgrwt>
<rscale>  2 0.44875822E+02</rscale>
<asrwt>0</asrwt>
<pdfrwt beam="1">  1       21 0.75215091E-01 0.44875822E+02</pdfrwt>
<pdfrwt beam="2">  1       21 0.10589884E-02 0.44875822E+02</pdfrwt>
<totfact> 0.50074686E+06</totfact>
</mgrwt>
</event>
<event>
 4    1  0.4505197E+006  0.3232501E+02  0.7546771E-02  0.1573725E+00
         21   -1    0    0  504  501  0.00000000000E+00  0.00000000000E+00  0.53357295766E+02  0.53357295766E+02  0.00000000000E+00 0.  1.
         21   -1    0    0  503  502 -0.00000000000E+00 -0.00000000000E+00 -0.24986285403E+02  0.24986285403E+02  0.00000000000E+00 0.  1.
         21    1    1    2  503  501 -0.20274905948E+02 -0.25176069991E+02  0.32401114586E+02  0.45768313688E+02  0.00000000000E+00 0.  1.
         21    1    1    2  504  502  0.20274905948E+02  0.25176069991E+02 -0.40301042238E+01  0.32575267481E+02  0.00000000000E+00 0.  1.
<mgrwt>
<rscale>  2 0.32325011E+02</rscale>
<asrwt>0</asrwt>
<pdfrwt beam="1">  1       21 0.82088147E-02 0.32325011E+02</pdfrwt>
<pdfrwt beam="2">  1       21 0.38440439E-02 0.32325011E+02</pdfrwt>
<totfact> 0.37715107E+07</totfact>
</mgrwt>
</event>
<event>
 4    1  0.4505197E+006  0.2451358E+02  0.7546771E-02  0.1668088E+00
         21   -1    0    0  503  501  0.00000000000E+00  0.00000000000E+00  0.20019333368E+03  0.20019333368E+03  0.00000000000E+00 0. -1.
         21   -1    0    0  504  502 -0.00000000000E+00 -0.00000000000E+00 -0.48271839867E+01  0.48271839867E+01  0.00000000000E+00 0.  1.
         21    1    1    2  503  502 -0.19133933731E+02  0.15323446507E+02  0.34643637612E+02  0.42439333877E+02  0.00000000000E+00 0.  1.
         21    1    1    2  504  501  0.19133933731E+02 -0.15323446507E+02  0.16072251208E+03  0.16258118379E+03  0.00000000000E+00 0. -1.
<mgrwt>
<rscale>  2 0.24513577E+02</rscale>
<asrwt>0</asrwt>
<pdfrwt beam="1">  1       21 0.30798968E-01 0.24513577E+02</pdfrwt>
<pdfrwt beam="2">  1       21 0.74264384E-03 0.24513577E+02</pdfrwt>
<totfact> 0.45204195E+07</totfact>
</mgrwt>
</event>
<event>
 4    1  0.4505197E+006  0.2113311E+02  0.7546771E-02  0.1723691E+00
         21   -1    0    0  502  501  0.00000000000E+00  0.00000000000E+00  0.18576705813E+03  0.18576705813E+03  0.00000000000E+00 0. -1.
         21   -1    0    0  503  502 -0.00000000000E+00 -0.00000000000E+00 -0.42203057351E+01  0.42203057351E+01  0.00000000000E+00 0. -1.
         21    1    1    2  503  504  0.17087149499E+02  0.12435334146E+02  0.28457075731E+02  0.35445921803E+02  0.00000000000E+00 0. -1.
         21    1    1    2  504  501 -0.17087149499E+02 -0.12435334146E+02  0.15308967666E+03  0.15454144206E+03  0.00000000000E+00 0. -1.
<mgrwt>
<rscale>  2 0.21133107E+02</rscale>
<asrwt>0</asrwt>
<pdfrwt beam="1">  1       21 0.28579541E-01 0.21133107E+02</pdfrwt>
<pdfrwt beam="2">  1       21 0.64927795E-03 0.21133107E+02</pdfrwt>
<totfact> 0.60941968E+07</totfact>
</mgrwt>
</event>
<event>
 4    1  0.4505197E+006  0.2158300E+02  0.7546771E-02  0.1715565E+00
         21   -1    0    0  502  501  0.00000000000E+00  0.00000000000E+00  0.93182434381E+00  0.93182434381E+00  0.00000000000E+00 0.  1.
         21   -1    0    0  503  502 -0.00000000000E+00 -0.00000000000E+00 -0.11304001623E+04  0.11304001623E+04  0.00000000000E+00 0.  1.
         21    1    1    2  503  504 -0.13931647051E+02  0.16484394576E+02 -0.98719257420E+03  0.98742848075E+03  0.00000000000E+00 0.  1.
         21    1    1    2  504  501  0.13931647051E+02 -0.16484394576E+02 -0.14227576373E+03  0.14390350586E+03  0.00000000000E+00 0.  1.
<mgrwt>
<rscale>  2 0.21583004E+02</rscale>
<asrwt>0</asrwt>
<pdfrwt beam="1">  1       21 0.14335731E-03 0.21583004E+02</pdfrwt>
<pdfrwt beam="2">  1       21 0.17390806E+00 0.21583004E+02</pdfrwt>
<totfact> 0.13091414E+07</totfact>
</mgrwt>
</event>
<event>
 4    1  0.4505197E+006  0.2029758E+02  0.7546771E-02  0.1739474E+00
         21   -1    0    0  504  501  0.00000000000E+00  0.00000000000E+00  0.14589721181E+02  0.14589721181E+02  0.00000000000E+00 0.  1.
         21   -1    0    0  503  502 -0.00000000000E+00 -0.00000000000E+00 -0.21463310415E+03  0.21463310415E+03  0.00000000000E+00 0.  1.
         21    1    1    2  503  501 -0.19270413368E+02 -0.63751926082E+01  0.67844373879E+01  0.21401413571E+02  0.00000000000E+00 0.  1.
         21    1    1    2  504  502  0.19270413368E+02  0.63751926082E+01 -0.20682782036E+03  0.20782141176E+03  0.00000000000E+00 0.  1.
<mgrwt>
<rscale>  2 0.20297584E+02</rscale>
<asrwt>0</asrwt>
<pdfrwt beam="1">  1       21 0.22445724E-02 0.20297584E+02</pdfrwt>
<pdfrwt beam="2">  1       21 0.33020479E-01 0.20297584E+02</pdfrwt>
<totfact> 0.71840916E+06</totfact>
</mgrwt>
</event>
<event>
 4    1  0.4505197E+006  0.2304808E+02  0.7546771E-02  0.1690732E+00
         21   -1    0    0  504  501  0.00000000000E+00  0.00000000000E+00  0.27934033258E+02  0.27934033258E+02  0.00000000000E+00 0.  1.
         21   -1    0    0  503  502 -0.00000000000E+00 -0.00000000000E+00 -0.22447300427E+02  0.22447300427E+02  0.00000000000E+00 0.  1.
         21    1    1    2  503  501  0.96833355077E+00  0.23027734264E+02  0.12591188979E+02  0.26263134906E+02  0.00000000000E+00 0.  1.
         21    1    1    2  504  502 -0.96833355077E+00 -0.23027734264E+02 -0.71044561469E+01  0.24118198779E+02  0.00000000000E+00 0.  1.
<mgrwt>
<rscale>  2 0.23048085E+02</rscale>
<asrwt>0</asrwt>
<pdfrwt beam="1">  1       21 0.42975436E-02 0.23048085E+02</pdfrwt>
<pdfrwt beam="2">  1       21 0.34534308E-02 0.23048085E+02</pdfrwt>
<totfact> 0.11704817E+08</totfact>
</mgrwt>
</event>
<event>
 4    1  0.4505197E+006  0.2230055E+02  0.7546771E-02  0.1703105E+00
         21   -1    0    0  504  501  0.00000000000E+00  0.00000000000E+00  0.69682805545E+00  0.69682805545E+00  0.00000000000E+00 0.  1.
         21   -1    0    0  503  502 -0.00000000000E+00 -0.00000000000E+00 -0.11462144213E+04  0.11462144213E+04  0.00000000000E+00 0.  1.
         21    1    1    2  503  501  0.61459062077E+01 -0.21436938773E+02 -0.92502874141E+03  0.92529751266E+03  0.00000000000E+00 0.  1.
         21    1    1    2  504  502 -0.61459062077E+01  0.21436938773E+02 -0.22048885181E+03  0.22161373666E+03  0.00000000000E+00 0.  1.
<mgrwt>
<rscale>  2 0.22300549E+02</rscale>
<asrwt>0</asrwt>
<pdfrwt beam="1">  1       21 0.10720476E-03 0.22300549E+02</pdfrwt>
<pdfrwt beam="2">  1       21 0.17633995E+00 0.22300549E+02</pdfrwt>
<totfact> 0.19251267E+07</totfact>
</mgrwt>
</event>
<event>
 4    1  0.4505197E+006  0.2779887E+02  0.7546771E-02  0.1623777E+00
         21   -1    0    0  503  501  0.00000000000E+00  0.00000000000E+00  0.11875028546E+02  0.11875028546E+02  0.00000000000E+00 0.  1.
         21   -1    0    0  504  502 -0.00000000000E+00 -0.00000000000E+00 -0.28981866966E+03  0.28981866966E+03  0.00000000000E+00 0. -1.
         21    1    1    2  503  502 -0.20331989731E+02  0.18957510864E+02 -0.61357496662E+01  0.28467954766E+02  0.00000000000E+00 0.  1.
         21    1    1    2  504  501  0.20331989731E+02 -0.18957510864E+02 -0.27180789145E+03  0.27322574344E+03  0.00000000000E+00 0. -1.
<mgrwt>
<rscale>  2 0.27798867E+02</rscale>
<asrwt>0</asrwt>
<pdfrwt beam="1">  1       21 0.18269275E-02 0.27798867E+02</pdfrwt>
<pdfrwt beam="2">  1       21 0.44587487E-01 0.27798867E+02</pdfrwt>
<totfact> 0.59044583E+06</totfact>
</mgrwt>
</event>
<event>
 4    1  0.4505197E+006  0.2083618E+02  0.7546771E-02  0.1729193E+00
         21   -1    0    0  503  501  0.00000000000E+00  0.00000000000E+00  0.14320681864E+01  0.14320681864E+01  0.00000000000E+00 0. -1.
         21   -1    0    0  504  502 -0.00000000000E+00 -0.00000000000E+00 -0.35081741459E+03  0.35081741459E+03  0.00000000000E+00 0. -1.
         21    1    1    2  503  502  0.83522794745E+01 -0.19088888631E+02 -0.23960745525E+03  0.24051170211E+03  0.00000000000E+00 0. -1.
         21    1    1    2  504  501 -0.83522794745E+01  0.19088888631E+02 -0.10977789115E+03  0.11173778066E+03  0.00000000000E+00 0. -1.
<mgrwt>
<rscale>  2 0.20836176E+02</rscale>
<asrwt>0</asrwt>
<pdfrwt beam="1">  1       21 0.22031813E-03 0.20836176E+02</pdfrwt>
<pdfrwt beam="2">  1       21 0.53971923E-01 0.20836176E+02</pdfrwt>
<totfact> 0.89388277E+07</totfact>
</mgrwt>
</event>
<event>
 4    1  0.4505197E+006  0.2024000E+02  0.7546771E-02  0.1740597E+00
         21   -1    0    0  504  501  0.00000000000E+00  0.00000000000E+00  0.35930809816E+02  0.35930809816E+02  0.00000000000E+00 0.  1.
         21   -1    0    0  503  502 -0.00000000000E+00 -0.00000000000E+00 -0.44860075051E+02  0.44860075051E+02  0.00000000000E+00 0.  1.
         21    1    1    2  503  501  0.12047014000E+02 -0.16264292919E+02 -0.39351134212E+02  0.44251209410E+02  0.00000000000E+00 0.  1.
         21    1    1    2  504  502 -0.12047014000E+02  0.16264292919E+02  0.30421868977E+02  0.36539675457E+02  0.00000000000E+00 0.  1.
<mgrwt>
<rscale>  2 0.20240004E+02</rscale>
<asrwt>0</asrwt>
<pdfrwt beam="1">  1       21 0.55278170E-02 0.20240004E+02</pdfrwt>
<pdfrwt beam="2">  1       21 0.69015499E-02 0.20240004E+02</pdfrwt>
<totfact> 0.25278037E+07</totfact>
</mgrwt>
</event>
<event>
 4    1  0.4505197E+006  0.2073074E+02  0.7546771E-02  0.1731175E+00
         21   -1    0    0  503  501  0.00000000000E+00  0.00000000000E+00  0.34041802885E+02  0.34041802885E+02  0.00000000000E+00 0.  1.
         21   -1    0    0  501  502 -0.00000000000E+00 -0.00000000000E+00 -0.16583541997E+02  0.16583541997E+02  0.00000000000E+00 0.  1.
         21    1    1    2  503  504 -0.17459300590E+02 -0.11177497640E+02  0.21096853437E+02  0.29577708760E+02  0.00000000000E+00 0.  1.
         21    1    1    2  504  502  0.17459300590E+02  0.11177497640E+02 -0.36385925489E+01  0.21047636122E+02  0.00000000000E+00 0.  1.
<mgrwt>
<rscale>  2 0.20730741E+02</rscale>
<asrwt>0</asrwt>
<pdfrwt beam="1">  1       21 0.52372004E-02 0.20730741E+02</pdfrwt>
<pdfrwt beam="2">  1       21 0.25513142E-02 0.20730741E+02</pdfrwt>
<totfact> 0.13265488E+08</totfact>
</mgrwt>
</event>
<event>
 4    1  0.4505197E+006  0.3256623E+02  0.7546771E-02  0.1571340E+00
         21   -1    0    0  504  501  0.00000000000E+00  0.00000000000E+00  0.36100061626E+02  0.36100061626E+02  0.00000000000E+00 0. -1.
         21   -1    0    0  503  502 -0.00000000000E+00 -0.00000000000E+00 -0.35260976191E+02  0.35260976191E+02  0.00000000000E+00 0.  1.
         21    1    1    2  503  501 -0.10911989207E+02 -0.30683672677E+02  0.14993269116E+02  0.35851881348E+02  0.00000000000E+00 0. -1.
         21    1    1    2  504  502  0.10911989207E+02  0.30683672677E+02 -0.14154183681E+02  0.35509156468E+02  0.00000000000E+00 0.  1.
<mgrwt>
<rscale>  2 0.32566229E+02</rscale>
<asrwt>0</asrwt>
<pdfrwt beam="1">  1       21 0.55538556E-02 0.32566229E+02</pdfrwt>
<pdfrwt beam="2">  1       21 0.54247656E-02 0.32566229E+02</pdfrwt>
<totfact> 0.41200602E+07</totfact>
</mgrwt>
</event>
<event>
 4    1  0.4505197E+006  0.3177303E+02  0.7546771E-02  0.1579278E+00
         21   -1    0    0  503  501  0.00000000000E+00  0.00000000000E+00  0.10546878440E+02  0.10546878440E+02  0.00000000000E+00 0.  1.
         21   -1    0    0  504  502 -0.00000000000E+00 -0.00000000000E+00 -0.11042168215E+03  0.11042168215E+03  0.00000000000E+00 0.  1.
         21    1    1    2  503  502 -0.29520003373E+02  0.11751385556E+02 -0.72008758048E+02  0.78706968543E+02  0.00000000000E+00 0.  1.
         21    1    1    2  504  501  0.29520003373E+02 -0.11751385556E+02 -0.27866045665E+02  0.42261592050E+02  0.00000000000E+00 0.  1.
<mgrwt>
<rscale>  2 0.31773034E+02</rscale>
<asrwt>0</asrwt>
<pdfrwt beam="1">  1       21 0.16225967E-02 0.31773034E+02</pdfrwt>
<pdfrwt beam="2">  1       21 0.16987951E-01 0.31773034E+02</pdfrwt>
<totfact> 0.42233267E+07</totfact>
</mgrwt>
</event>
<event>
 4    1  0.4505197E+006  0.2784897E+02  0.7546771E-02  0.1623160E+00
         21   -1    0    0  504  501  0.00000000000E+00  0.00000000000E+00  0.56953601185E+02  0.56953601185E+02  0.00000000000E+00 0. -1.
         21   -1    0    0  503  502 -0.00000000000E+00 -0.00000000000E+00 -0.56485226201E+02  0.56485226201E+02  0.00000000000E+00 0. -1.
         21    1    1    2  503  501  0.18029787258E+02  0.21224792629E+02 -0.49177487416E+02  0.56515398957E+02  0.00000000000E+00 0. -1.
         21    1    1    2  504  502 -0.18029787258E+02 -0.21224792629E+02  0.49645862400E+02  0.56923428429E+02  0.00000000000E+00 0. -1.
<mgrwt>
<rscale>  2 0.27848969E+02</rscale>
<asrwt>0</asrwt>
<pdfrwt beam="1">  1       21 0.87620924E-02 0.27848969E+02</pdfrwt>
<pdfrwt beam="2">  1       21 0.86900348E-02 0.27848969E+02</pdfrwt>
<totfact> 0.87812921E+06</totfact>
</mgrwt>
</event>
<event>
 4    1  0.4505197E+006  0.2016984E+02  0.7546771E-02  0.1741971E+00
         21   -1    0    0  504  501  0.00000000000E+00  0.00000000000E+00  0.17605369735E+04  0.17605369735E+04  0.00000000000E+00 0.  1.
         21   -1    0    0  503  502 -0.00000000000E+00 -0.00000000000E+00 -0.27810744628E+00  0.27810744628E+00  0.00000000000E+00 0.  1.
         21    1    1    2  503  501  0.35005368526E+01  0.19863757961E+02  0.51808736946E+03  0.51847984053E+03  0.00000000000E+00 0.  1.
         21    1    1    2  504  502 -0.35005368526E+01 -0.19863757961E+02  0.12421714966E+04  0.12423352404E+04  0.00000000000E+00 0.  1.
<mgrwt>
<rscale>  2 0.20169845E+02</rscale>
<asrwt>0</asrwt>
<pdfrwt beam="1">  1       21 0.27084292E+00 0.20169845E+02</pdfrwt>
<pdfrwt beam="2">  1       21 0.42787171E-04 0.20169845E+02</pdfrwt>
<totfact> 0.22059438E+07</totfact>
</mgrwt>
</event>
<event>
 4    1  0.4505197E+006  0.2066991E+02  0.7546771E-02  0.1732325E+00
         21   -1    0    0  504  501  0.00000000000E+00  0.00000000000E+00  0.11166155191E+01  0.11166155191E+01  0.00000000000E+00 0.  1.
         21   -1    0    0  503  502 -0.00000000000E+00 -0.00000000000E+00 -0.13907038804E+04  0.13907038804E+04  0.00000000000E+00 0. -1.
         21    1    1    2  503  501  0.45342596976E+01  0.20166451693E+02 -0.10230079527E+03  0.10436808898E+03  0.00000000000E+00 0.  1.
         21    1    1    2  504  502 -0.45342596976E+01 -0.20166451693E+02 -0.12872864696E+04  0.12874524069E+04  0.00000000000E+00 0. -1.
<mgrwt>
<rscale>  2 0.20669913E+02</rscale>
<asrwt>0</asrwt>
<pdfrwt beam="1">  1       21 0.17178751E-03 0.20669913E+02</pdfrwt>
<pdfrwt beam="2">  1       21 0.21395381E+00 0.20669913E+02</pdfrwt>
<totfact> 0.59478854E+06</totfact>
</mgrwt>
</event>
<event>
 4    1  0.4505197E+006  0.2451024E+02  0.7546771E-02  0.1668138E+00
         21   -1    0    0  502  501  0.00000000000E+00  0.00000000000E+00  0.51353406165E+01  0.51353406165E+01  0.00000000000E+00 0. -1.
         21   -1    0    0  503  502 -0.00000000000E+00 -0.00000000000E+00 -0.21787889377E+03  0.21787889377E+03  0.00000000000E+00 0. -1.
         21    1    1    2  503  504  0.13435408987E+02  0.20499792987E+02 -0.18225224499E+03  0.18389299206E+03  0.00000000000E+00 0. -1.
         21    1    1    2  504  501 -0.13435408987E+02 -0.20499792987E+02 -0.30491308165E+02  0.39121242321E+02  0.00000000000E+00 0. -1.
<mgrwt>
<rscale>  2 0.24510237E+02</rscale>
<asrwt>0</asrwt>
<pdfrwt beam="1">  1       21 0.79005271E-03 0.24510237E+02</pdfrwt>
<pdfrwt beam="2">  1       21 0.33519817E-01 0.24510237E+02</pdfrwt>
<totfact> 0.35270450E+07</totfact>
</mgrwt>
</event>
<event>
 4    1  0.4505197E+006  0.2996849E+02  0.7546771E-02  0.1598437E+00
         21   -1    0    0  502  501  0.00000000000E+00  0.00000000000E+00  0.20185678248E+03  0.20185678248E+03  0.00000000000E+00 0. -1.
         21   -1    0    0  503  502 -0.00000000000E+00 -0.00000000000E+00 -0.18421656752E+02  0.18421656752E+02  0.00000000000E+00 0.  1.
         21    1    1    2  503  504 -0.29404401209E+02 -0.57872098966E+01 -0.42033524717E+01  0.30261837037E+02  0.00000000000E+00 0.  1.
         21    1    1    2  504  501  0.29404401209E+02  0.57872098966E+01  0.18763847820E+03  0.19001660219E+03  0.00000000000E+00 0. -1.
<mgrwt>
<rscale>  2 0.29968494E+02</rscale>
<asrwt>0</asrwt>
<pdfrwt beam="1">  1       21 0.31054888E-01 0.29968494E+02</pdfrwt>
<pdfrwt beam="2">  1       21 0.28341012E-02 0.29968494E+02</pdfrwt>
<totfact> 0.59649496E+06</totfact>
</mgrwt>
</event>
<event>
 4    1  0.4505197E+006  0.2690884E+02  0.7546771E-02  0.1635007E+00
         21   -1    0    0  503  501  0.00000000000E+00  0.00000000000E+00  0.68117133690E+01  0.68117133690E+01  0.00000000000E+00 0.  1.
         21   -1    0    0  504  502 -0.00000000000E+00 -0.00000000000E+00 -0.23145442584E+03  0.23145442584E+03  0.00000000000E+00 0.  1.
         21    1    1    2  503  502  0.18748453324E+02  0.19302365146E+02 -0.24717641500E+02  0.36538303239E+02  0.00000000000E+00 0.  1.
         21    1    1    2  504  501 -0.18748453324E+02 -0.19302365146E+02 -0.19992507097E+03  0.20172783597E+03  0.00000000000E+00 0.  1.
<mgrwt>
<rscale>  2 0.26908842E+02</rscale>
<asrwt>0</asrwt>
<pdfrwt beam="1">  1       21 0.10479560E-02 0.26908842E+02</pdfrwt>
<pdfrwt beam="2">  1       21 0.35608371E-01 0.26908842E+02</pdfrwt>
<totfact> 0.21008466E+07</totfact>
</mgrwt>
</event>
<event>
 4    1  0.4505197E+006  0.2258236E+02  0.7546771E-02  0.1698371E+00
         21   -1    0    0  503  501  0.00000000000E+00  0.00000000000E+00  0.62448665093E+01  0.62448665093E+01  0.00000000000E+00 0.  1.
         21   -1    0    0  504  502 -0.00000000000E+00 -0.00000000000E+00 -0.38257002292E+03  0.38257002292E+03  0.00000000000E+00 0. -1.
         21    1    1    2  503  502 -0.52932638250E+01  0.21953233310E+02 -0.36057752295E+03  0.36128397854E+03  0.00000000000E+00 0. -1.
         21    1    1    2  504  501  0.52932638250E+01 -0.21953233310E+02 -0.15747633463E+02  0.27530910889E+02  0.00000000000E+00 0.  1.
<mgrwt>
<rscale>  2 0.22582362E+02</rscale>
<asrwt>0</asrwt>
<pdfrwt beam="1">  1       21 0.96074848E-03 0.22582362E+02</pdfrwt>
<pdfrwt beam="2">  1       21 0.58856940E-01 0.22582362E+02</pdfrwt>
<totfact> 0.88067556E+06</totfact>
</mgrwt>
</event>
<event>
 4    1  0.4505197E+006  0.2948989E+02  0.7546771E-02  0.1603797E+00
         21   -1    0    0  502  501  0.00000000000E+00  0.00000000000E+00  0.95609254566E+02  0.95609254566E+02  0.00000000000E+00 0.  1.
         21   -1    0    0  504  502 -0.00000000000E+00 -0.00000000000E+00 -0.19458365379E+02  0.19458365379E+02  0.00000000000E+00 0. -1.
         21    1    1    2  503  501  0.15460640367E+02 -0.25112195600E+02  0.80061121960E+02  0.85319616841E+02  0.00000000000E+00 0.  1.
         21    1    1    2  504  503 -0.15460640367E+02  0.25112195600E+02 -0.39102327730E+01  0.29748003105E+02  0.00000000000E+00 0. -1.
<mgrwt>
<rscale>  2 0.29489893E+02</rscale>
<asrwt>0</asrwt>
<pdfrwt beam="1">  1       21 0.14709116E-01 0.29489893E+02</pdfrwt>
<pdfrwt beam="2">  1       21 0.29935947E-02 0.29489893E+02</pdfrwt>
<totfact> 0.20598013E+07</totfact>
</mgrwt>
</event>
<event>
 4    1  0.4505197E+006  0.3412186E+02  0.7546771E-02  0.1556540E+00
         21   -1    0    0  504  501  0.00000000000E+00  0.00000000000E+00  0.23205483448E+03  0.23205483448E+03  0.00000000000E+00 0. -1.
         21   -1    0    0  501  502 -0.00000000000E+00 -0.00000000000E+00 -0.13413236803E+03  0.13413236803E+03  0.00000000000E+00 0. -1.
         21    1    1    2  503  502  0.32634036392E+02 -0.99660000849E+01 -0.13067533205E+03  0.13505681729E+03  0.00000000000E+00 0. -1.
         21    1    1    2  504  503 -0.32634036392E+02  0.99660000849E+01  0.22859779851E+03  0.23113038522E+03  0.00000000000E+00 0. -1.
<mgrwt>
<rscale>  2 0.34121862E+02</rscale>
<asrwt>0</asrwt>
<pdfrwt beam="1">  1       21 0.35700744E-01 0.34121862E+02</pdfrwt>
<pdfrwt beam="2">  1       21 0.20635749E-01 0.34121862E+02</pdfrwt>
<totfact> 0.17306533E+05</totfact>
</mgrwt>
</event>
<event>
 4    1  0.4505197E+006  0.2296197E+02  0.7546771E-02  0.1692127E+00
         21   -1    0    0  504  501  0.00000000000E+00  0.00000000000E+00  0.36315716286E+03  0.36315716286E+03  0.00000000000E+00 0. -1.
         21   -1    0    0  503  502 -0.00000000000E+00 -0.00000000000E+00 -0.40007558659E+01  0.40007558659E+01  0.00000000000E+00 0.  1.
         21    1    1    2  503  501  0.19395957994E+02 -0.12290190081E+02  0.33047628718E+02  0.40241741048E+02  0.00000000000E+00 0.  1.
         21    1    1    2  504  502 -0.19395957994E+02  0.12290190081E+02  0.32610877828E+03  0.32691617768E+03  0.00000000000E+00 0. -1.
<mgrwt>
<rscale>  2 0.22961968E+02</rscale>
<asrwt>0</asrwt>
<pdfrwt beam="1">  1       21 0.55870307E-01 0.22961968E+02</pdfrwt>
<pdfrwt beam="2">  1       21 0.61550119E-03 0.22961968E+02</pdfrwt>
<totfact> 0.19024946E+07</totfact>
</mgrwt>
</event>
<event>
 4    1  0.4505197E+006  0.3538622E+02  0.7546771E-02  0.1545197E+00
         21   -1    0    0  502  501  0.00000000000E+00  0.00000000000E+00  0.28180814364E+03  0.28180814364E+03  0.00000000000E+00 0. -1.
         21   -1    0    0  503  502 -0.00000000000E+00 -0.00000000000E+00 -0.48060615031E+01  0.48060615031E+01  0.00000000000E+00 0. -1.
         21    1    1    2  503  504  0.10412276588E+02  0.33819656745E+02  0.99134503144E+02  0.10526079232E+03  0.00000000000E+00 0. -1.
         21    1    1    2  504  501 -0.10412276588E+02 -0.33819656745E+02  0.17786757899E+03  0.18135341283E+03  0.00000000000E+00 0. -1.
<mgrwt>
<rscale>  2 0.35386222E+02</rscale>
<asrwt>0</asrwt>
<pdfrwt beam="1">  1       21 0.43355086E-01 0.35386222E+02</pdfrwt>
<pdfrwt beam="2">  1       21 0.73939430E-03 0.35386222E+02</pdfrwt>
<totfact> 0.25703314E+07</totfact>
</mgrwt>
</event>
<event>
 4    1  0.4505197E+006  0.3127227E+02  0.7546771E-02  0.1584437E+00
         21   -1    0    0  504  501  0.00000000000E+00  0.00000000000E+00  0.70815923070E+02  0.70815923070E+02  0.00000000000E+00 0.  1.
         21   -1    0    0  501  502 -0.00000000000E+00 -0.00000000000E+00 -0.30010023833E+02  0.30010023833E+02  0.00000000000E+00 0. -1.
         21    1    1    2  503  502  0.27372258166E+01 -0.31152251492E+02 -0.16636913903E+02  0.35422338748E+02  0.00000000000E+00 0. -1.
         21    1    1    2  504  503 -0.27372258166E+01  0.31152251492E+02  0.57442813140E+02  0.65403608154E+02  0.00000000000E+00 0.  1.
<mgrwt>
<rscale>  2 0.31272275E+02</rscale>
<asrwt>0</asrwt>
<pdfrwt beam="1">  1       21 0.10894757E-01 0.31272275E+02</pdfrwt>
<pdfrwt beam="2">  1       21 0.46169268E-02 0.31272275E+02</pdfrwt>
<totfact> 0.17431365E+07</totfact>
</mgrwt>
</event>
<event>
 4    1  0.4505197E+006  0.2551446E+02  0.7546771E-02  0.1653721E+00
         21   -1    0    0  502  501  0.00000000000E+00  0.00000000000E+00  0.13241270315E+02  0.13241270315E+02  0.00000000000E+00 0. -1.
         21   -1    0    0  504  502 -0.00000000000E+00 -0.00000000000E+00 -0.35710657073E+03  0.35710657073E+03  0.00000000000E+00 0. -1.
         21    1    1    2  503  501 -0.21639813645E+02  0.13516885730E+02  0.22857283316E-01  0.25514471519E+02  0.00000000000E+00 0. -1.
         21    1    1    2  504  503  0.21639813645E+02 -0.13516885730E+02 -0.34388815770E+03  0.34483336953E+03  0.00000000000E+00 0. -1.
<mgrwt>
<rscale>  2 0.25514461E+02</rscale>
<asrwt>0</asrwt>
<pdfrwt beam="1">  1       21 0.20371186E-02 0.25514461E+02</pdfrwt>
<pdfrwt beam="2">  1       21 0.54939469E-01 0.25514461E+02</pdfrwt>
<totfact> 0.32827308E+06</totfact>
</mgrwt>
</event>
<event>
 4    1  0.4505197E+006  0.3564805E+02  0.7546771E-02  0.1542920E+00
         21   -1    0    0  502  501  0.00000000000E+00  0.00000000000E+00  0.89870241492E+01  0.89870241492E+01  0.00000000000E+00 0.  1.
         21   -1    0    0  504  502 -0.00000000000E+00 -0.00000000000E+00 -0.53268591162E+03  0.53268591162E+03  0.00000000000E+00 0. -1.
         21    1    1    2  503  501  0.35625670599E+02  0.12629521552E+01 -0.29726796266E+02  0.46416224211E+02  0.00000000000E+00 0.  1.
         21    1    1    2  504  503 -0.35625670599E+02 -0.12629521552E+01 -0.49397209120E+03  0.49525671156E+03  0.00000000000E+00 0. -1.
<mgrwt>
<rscale>  2 0.35648050E+02</rscale>
<asrwt>0</asrwt>
<pdfrwt beam="1">  1       21 0.13826189E-02 0.35648050E+02</pdfrwt>
<pdfrwt beam="2">  1       21 0.81951693E-01 0.35648050E+02</pdfrwt>
<totfact> 0.27103234E+06</totfact>
</mgrwt>
</event>
<event>
 4    1  0.4505197E+006  0.2068030E+02  0.7546771E-02  0.1732128E+00
         21   -1    0    0  503  501  0.00000000000E+00  0.00000000000E+00  0.48789154359E+01  0.48789154359E+01  0.00000000000E+00 0. -1.
         21   -1    0    0  504  502 -0.00000000000E+00 -0.00000000000E+00 -0.90178992130E+02  0.90178992130E+02  0.00000000000E+00 0. -1.
         21    1    1    2  503  502  0.18683594943E+02  0.88655450219E+01 -0.50597260129E+02  0.54660381824E+02  0.00000000000E+00 0. -1.
         21    1    1    2  504  501 -0.18683594943E+02 -0.88655450219E+01 -0.34702816565E+02  0.40397525742E+02  0.00000000000E+00 0. -1.
<mgrwt>
<rscale>  2 0.20680295E+02</rscale>
<asrwt>0</asrwt>
<pdfrwt beam="1">  1       21 0.75060240E-03 0.20680295E+02</pdfrwt>
<pdfrwt beam="2">  1       21 0.13873691E-01 0.20680295E+02</pdfrwt>
<totfact> 0.17166090E+08</totfact>
</mgrwt>
</event>
<event>
 4    1  0.4505197E+006  0.2058390E+02  0.7546771E-02  0.1733960E+00
         21   -1    0    0  504  501  0.00000000000E+00  0.00000000000E+00  0.63527232401E+03  0.63527232401E+03  0.00000000000E+00 0. -1.
         21   -1    0    0  503  502 -0.00000000000E+00 -0.00000000000E+00 -0.18144900790E+02  0.18144900790E+02  0.00000000000E+00 0. -1.
         21    1    1    2  503  501 -0.16683660317E+02 -0.12056222148E+02 -0.12084261094E+02  0.23868941750E+02  0.00000000000E+00 0. -1.
         21    1    1    2  504  502  0.16683660317E+02  0.12056222148E+02  0.62921168432E+03  0.62954828305E+03  0.00000000000E+00 0. -1.
<mgrwt>
<rscale>  2 0.20583902E+02</rscale>
<asrwt>0</asrwt>
<pdfrwt beam="1">  1       21 0.97734187E-01 0.20583902E+02</pdfrwt>
<pdfrwt beam="2">  1       21 0.27915237E-02 0.20583902E+02</pdfrwt>
<totfact> 0.60025250E+05</totfact>
</mgrwt>
</event>
<event>
 4    1  0.4505197E+006  0.4177850E+02  0.7546771E-02  0.1495517E+00
         21   -1    0    0  503  501  0.00000000000E+00  0.00000000000E+00  0.10688403125E+03  0.10688403125E+03  0.00000000000E+00 0. -1.
         21   -1    0    0  504  502 -0.00000000000E+00 -0.00000000000E+00 -0.21874132034E+02  0.21874132034E+02  0.00000000000E+00 0. -1.
         21    1    1    2  503  502  0.18570627048E+02 -0.37424257209E+02  0.10094410451E+02  0.42980697283E+02  0.00000000000E+00 0. -1.
         21    1    1    2  504  501 -0.18570627048E+02  0.37424257209E+02  0.74915488769E+02  0.85777466005E+02  0.00000000000E+00 0. -1.
<mgrwt>
<rscale>  2 0.41778502E+02</rscale>
<asrwt>0</asrwt>
<pdfrwt beam="1">  1       21 0.16443697E-01 0.41778502E+02</pdfrwt>
<pdfrwt beam="2">  1       21 0.33652512E-02 0.41778502E+02</pdfrwt>
<totfact> 0.14939083E+07</totfact>
</mgrwt>
</event>
<event>
 4    1  0.4505197E+006  0.2191785E+02  0.7546771E-02  0.1709677E+00
         21   -1    0    0  503  501  0.00000000000E+00  0.00000000000E+00  0.64101200307E+02  0.64101200307E+02  0.00000000000E+00 0.  1.
         21   -1    0    0  504  502 -0.00000000000E+00 -0.00000000000E+00 -0.89380249768E+02  0.89380249768E+02  0.00000000000E+00 0.  1.
         21    1    1    2  503  502  0.49228239725E+01  0.21357855162E+02  0.60813531649E+02  0.64642693358E+02  0.00000000000E+00 0.  1.
         21    1    1    2  504  501 -0.49228239725E+01 -0.21357855162E+02 -0.86092581109E+02  0.88838756717E+02  0.00000000000E+00 0.  1.
<mgrwt>
<rscale>  2 0.21917851E+02</rscale>
<asrwt>0</asrwt>
<pdfrwt beam="1">  1       21 0.98617232E-02 0.21917851E+02</pdfrwt>
<pdfrwt beam="2">  1       21 0.13750808E-01 0.21917851E+02</pdfrwt>
<totfact> 0.32326912E+06</totfact>
</mgrwt>
</event>
<event>
 4    1  0.4505197E+006  0.3149819E+02  0.7546771E-02  0.1582095E+00
         21   -1    0    0  503  501  0.00000000000E+00  0.00000000000E+00  0.80119489789E+02  0.80119489789E+02  0.00000000000E+00 0.  1.
         21   -1    0    0  504  502 -0.00000000000E+00 -0.00000000000E+00 -0.14838958076E+03  0.14838958076E+03  0.00000000000E+00 0.  1.
         21    1    1    2  503  502  0.19440266146E+02 -0.24783302769E+02  0.75248344460E+02  0.81574808538E+02  0.00000000000E+00 0.  1.
         21    1    1    2  504  501 -0.19440266146E+02  0.24783302769E+02 -0.14351843543E+03  0.14693426201E+03  0.00000000000E+00 0.  1.
<mgrwt>
<rscale>  2 0.31498191E+02</rscale>
<asrwt>0</asrwt>
<pdfrwt beam="1">  1       21 0.12326075E-01 0.31498191E+02</pdfrwt>
<pdfrwt beam="2">  1       21 0.22829166E-01 0.31498191E+02</pdfrwt>
<totfact> 0.95980675E+05</totfact>
</mgrwt>
</event>
<event>
 4    1  0.4505197E+006  0.2732089E+02  0.7546771E-02  0.1629742E+00
         21   -1    0    0  504  501  0.00000000000E+00  0.00000000000E+00  0.36345289624E+01  0.36345289624E+01  0.00000000000E+00 0.  1.
         21   -1    0    0  501  502 -0.00000000000E+00 -0.00000000000E+00 -0.70779436456E+03  0.70779436456E+03  0.00000000000E+00 0. -1.
         21    1    1    2  503  502 -0.17876279484E+02 -0.20660826864E+02 -0.65177689141E+03  0.65234925256E+03  0.00000000000E+00 0. -1.
         21    1    1    2  504  503  0.17876279484E+02  0.20660826864E+02 -0.52382944186E+02  0.59079640964E+02  0.00000000000E+00 0.  1.
<mgrwt>
<rscale>  2 0.27320892E+02</rscale>
<asrwt>0</asrwt>
<pdfrwt beam="1">  1       21 0.55915926E-03 0.27320892E+02</pdfrwt>
<pdfrwt beam="2">  1       21 0.10889125E+00 0.27320892E+02</pdfrwt>
<totfact> 0.55547187E+06</totfact>
</mgrwt>
</event>
<event>
 4    1  0.4505197E+006  0.2625344E+02  0.7546771E-02  0.1643625E+00
         21   -1    0    0  503  501  0.00000000000E+00  0.00000000000E+00  0.37216209765E+03  0.37216209765E+03  0.00000000000E+00 0.  1.
         21   -1    0    0  504  502 -0.00000000000E+00 -0.00000000000E+00 -0.23138890155E+01  0.23138890155E+01  0.00000000000E+00 0.  1.
         21    1    1    2  503  502 -0.24708944037E+02 -0.88719222426E+01  0.26857934563E+03  0.26985942233E+03  0.00000000000E+00 0.  1.
         21    1    1    2  504  501  0.24708944037E+02  0.88719222426E+01  0.10126886300E+03  0.10461656433E+03  0.00000000000E+00 0.  1.
<mgrwt>
<rscale>  2 0.26253436E+02</rscale>
<asrwt>0</asrwt>
<pdfrwt beam="1">  1       21 0.57255660E-01 0.26253436E+02</pdfrwt>
<pdfrwt beam="2">  1       21 0.35598322E-03 0.26253436E+02</pdfrwt>
<totfact> 0.41786153E+07</totfact>
</mgrwt>
</event>
<event>
 4    1  0.4505197E+006  0.2086285E+02  0.7546771E-02  0.1728694E+00
         21   -1    0    0  504  501  0.00000000000E+00  0.00000000000E+00  0.55675005259E+03  0.55675005259E+03  0.00000000000E+00 0.  1.
         21   -1    0    0  503  502 -0.00000000000E+00 -0.00000000000E+00 -0.25353141920E+01  0.25353141920E+01  0.00000000000E+00 0.  1.
         21    1    1    2  503  501  0.10757198853E+02 -0.17875715487E+02  0.44542487041E+02  0.49186295685E+02  0.00000000000E+00 0.  1.
         21    1    1    2  504  502 -0.10757198853E+02  0.17875715487E+02  0.50967225136E+03  0.51009907110E+03  0.00000000000E+00 0.  1.
<mgrwt>
<rscale>  2 0.20862851E+02</rscale>
<asrwt>0</asrwt>
<pdfrwt beam="1">  1       21 0.85653757E-01 0.20862851E+02</pdfrwt>
<pdfrwt beam="2">  1       21 0.39004878E-03 0.20862851E+02</pdfrwt>
<totfact> 0.15262127E+07</totfact>
</mgrwt>
</event>
<event>
 4    1  0.4505197E+006  0.2218405E+02  0.7546771E-02  0.1705088E+00
         21   -1    0    0  502  501  0.00000000000E+00  0.00000000000E+00  0.12263432657E+02  0.12263432657E+02  0.00000000000E+00 0. -1.
         21   -1    0    0  503  502 -0.00000000000E+00 -0.00000000000E+00 -0.69469892284E+03  0.69469892284E+03  0.00000000000E+00 0. -1.
         21    1    1    2  503  504 -0.14328496652E+02 -0.16935942291E+02 -0.68433745085E+03  0.68469692463E+03  0.00000000000E+00 0. -1.
         21    1    1    2  504  501  0.14328496652E+02  0.16935942291E+02  0.19019606640E+01  0.22265430873E+02  0.00000000000E+00 0. -1.
<mgrwt>
<rscale>  2 0.22184047E+02</rscale>
<asrwt>0</asrwt>
<pdfrwt beam="1">  1       21 0.18866824E-02 0.22184047E+02</pdfrwt>
<pdfrwt beam="2">  1       21 0.10687673E+00 0.22184047E+02</pdfrwt>
<totfact> 0.90635006E+05</totfact>
</mgrwt>
</event>
<event>
 4    1  0.4505197E+006  0.2746265E+02  0.7546771E-02  0.1627958E+00
         21   -1    0    0  503  501  0.00000000000E+00  0.00000000000E+00  0.11055574237E+02  0.11055574237E+02  0.00000000000E+00 0. -1.
         21   -1    0    0  501  502 -0.00000000000E+00 -0.00000000000E+00 -0.17959987850E+03  0.17959987850E+03  0.00000000000E+00 0.  1.
         21    1    1    2  503  504  0.56283139437E+01 -0.26879717391E+02 -0.92011729175E+01  0.28963057641E+02  0.00000000000E+00 0. -1.
         21    1    1    2  504  502 -0.56283139437E+01  0.26879717391E+02 -0.15934313134E+03  0.16169239509E+03  0.00000000000E+00 0.  1.
<mgrwt>
<rscale>  2 0.27462650E+02</rscale>
<asrwt>0</asrwt>
<pdfrwt beam="1">  1       21 0.17008577E-02 0.27462650E+02</pdfrwt>
<pdfrwt beam="2">  1       21 0.27630748E-01 0.27462650E+02</pdfrwt>
<totfact> 0.16086300E+07</totfact>
</mgrwt>
</event>
