<event>
 5    1  0.3862918E+001  0.9025113E+02  0.7546771E-02  0.1302245E+00
          1   -1    0    0  501    0  0.00000000000E+00  0.00000000000E+00  0.17968550619E+04  0.17968550619E+04  0.00000000000E+00 0. -1.
         -1   -1    0    0    0  501 -0.00000000000E+00 -0.00000000000E+00 -0.11332669327E+01  0.11332669327E+01  0.00000000000E+00 0.  1.
         23    2    1    2    0    0  0.00000000000E+00  0.00000000000E+00  0.17957217950E+04  0.17979883288E+04  0.90251125742E+02 0.  0.
          2    1    3    3  502    0  0.13909769158E+01 -0.42317804893E+02  0.12087886646E+04  0.12095299777E+04  0.00000000000E+00 0. -1.
         -2    1    3    3    0  502 -0.13909769158E+01  0.42317804893E+02  0.58693313039E+03  0.58845835110E+03  0.00000000000E+00 0.  1.
<mgrwt>
<rscale>  0 0.90251126E+02</rscale>
<asrwt>0</asrwt>
<pdfrwt beam="1">  1        1 0.27643696E+00 0.90251126E+02</pdfrwt>
<pdfrwt beam="2">  1       -1 0.17435020E-03 0.90251126E+02</pdfrwt>
<totfact> 0.94703471E+04</totfact>
</mgrwt>
</event>
<event>
 5    1  0.3862918E+001  0.9017318E+02  0.7546771E-02  0.1302433E+00
          1   -1    0    0  501    0  0.00000000000E+00  0.00000000000E+00  0.17312823961E+02  0.17312823961E+02  0.00000000000E+00 0. -1.
         -1   -1    0    0    0  501 -0.00000000000E+00 -0.00000000000E+00 -0.11741589483E+03  0.11741589483E+03  0.00000000000E+00 0.  1.
         23    2    1    2    0    0  0.00000000000E+00  0.00000000000E+00 -0.10010307087E+03  0.13472871880E+03  0.90173182654E+02 0.  0.
          2    1    3    3  502    0  0.29600116733E+02  0.11788542523E+02 -0.23881372125E+01  0.31950584420E+02  0.00000000000E+00 0. -1.
         -2    1    3    3    0  502 -0.29600116733E+02 -0.11788542523E+02 -0.97714933660E+02  0.10277813438E+03  0.00000000000E+00 0.  1.
<mgrwt>
<rscale>  0 0.90173183E+02</rscale>
<asrwt>0</asrwt>
<pdfrwt beam="1">  1        1 0.26635115E-02 0.90173183E+02</pdfrwt>
<pdfrwt beam="2">  1       -1 0.18063983E-01 0.90173183E+02</pdfrwt>
<totfact> 0.81165455E+04</totfact>
</mgrwt>
</event>
<event>
 5    1  0.3862918E+001  0.9329119E+02  0.7546771E-02  0.1295072E+00
          3   -1    0    0  501    0  0.00000000000E+00  0.00000000000E+00  0.17120149750E+03  0.17120149750E+03  0.00000000000E+00 0. -1.
         -3   -1    0    0    0  501 -0.00000000000E+00 -0.00000000000E+00 -0.12709067246E+02  0.12709067246E+02  0.00000000000E+00 0.  1.
         23    2    1    2    0    0  0.00000000000E+00  0.00000000000E+00  0.15849243026E+03  0.18391056475E+03  0.93291185959E+02 0.  0.
          2    1    3    3  502    0 -0.23741597938E+02 -0.37125689764E+02  0.10939134342E+03  0.11793407620E+03  0.00000000000E+00 0. -1.
         -2    1    3    3    0  502  0.23741597938E+02  0.37125689764E+02  0.49101086834E+02  0.65976488550E+02  0.00000000000E+00 0.  1.
<mgrwt>
<rscale>  0 0.93291186E+02</rscale>
<asrwt>0</asrwt>
<pdfrwt beam="1">  1        3 0.26338690E-01 0.93291186E+02</pdfrwt>
<pdfrwt beam="2">  1       -3 0.19552412E-02 0.93291186E+02</pdfrwt>
<totfact> 0.27585088E+04</totfact>
</mgrwt>
</event>
<event>
 5    1  0.3862918E+001  0.8847466E+02  0.7546771E-02  0.1306588E+00
          1   -1    0    0  501    0  0.00000000000E+00  0.00000000000E+00  0.33371819781E+03  0.33371819781E+03  0.00000000000E+00 0. -1.
         -1   -1    0    0    0  501 -0.00000000000E+00 -0.00000000000E+00 -0.58640530569E+01  0.58640530569E+01  0.00000000000E+00 0.  1.
         23    2    1    2    0    0  0.00000000000E+00  0.00000000000E+00  0.32785414476E+03  0.33958225087E+03  0.88474656666E+02 0.  0.
          2    1    3    3  502    0  0.34785992295E+02 -0.27046387165E+02  0.17897398786E+03  0.18431836764E+03  0.00000000000E+00 0. -1.
         -2    1    3    3    0  502 -0.34785992295E+02  0.27046387165E+02  0.14888015690E+03  0.15526388324E+03  0.00000000000E+00 0.  1.
<mgrwt>
<rscale>  0 0.88474657E+02</rscale>
<asrwt>0</asrwt>
<pdfrwt beam="1">  1        1 0.51341247E-01 0.88474657E+02</pdfrwt>
<pdfrwt beam="2">  1       -1 0.90216227E-03 0.88474657E+02</pdfrwt>
<totfact> 0.14157094E+05</totfact>
</mgrwt>
</event>
<event>
 5    1  0.3862918E+001  0.8783120E+02  0.7546771E-02  0.1308190E+00
          2   -1    0    0  501    0  0.00000000000E+00  0.00000000000E+00  0.31670664688E+04  0.31670664688E+04  0.00000000000E+00 0. -1.
         -2   -1    0    0    0  501 -0.00000000000E+00 -0.00000000000E+00 -0.60894838966E+00  0.60894838966E+00  0.00000000000E+00 0.  1.
         23    2    1    2    0    0  0.00000000000E+00  0.00000000000E+00  0.31664575204E+04  0.31676754172E+04  0.87831202339E+02 0.  0.
          2    1    3    3  502    0 -0.35232672908E+02  0.57446558055E+01  0.66074307706E+03  0.66170669952E+03  0.00000000000E+00 0.  1.
         -2    1    3    3    0  502  0.35232672908E+02 -0.57446558055E+01  0.25057144433E+04  0.25059687176E+04  0.00000000000E+00 0. -1.
<mgrwt>
<rscale>  0 0.87831202E+02</rscale>
<asrwt>0</asrwt>
<pdfrwt beam="1">  1        2 0.48722781E+00 0.87831202E+02</pdfrwt>
<pdfrwt beam="2">  1       -2 0.93686904E-04 0.87831202E+02</pdfrwt>
<totfact> 0.97121132E+04</totfact>
</mgrwt>
</event>
<event>
 5    1  0.3862918E+001  0.8809295E+02  0.7546771E-02  0.1307537E+00
          2   -1    0    0  501    0  0.00000000000E+00  0.00000000000E+00  0.20431999148E+03  0.20431999148E+03  0.00000000000E+00 0.  1.
         -2   -1    0    0    0  501 -0.00000000000E+00 -0.00000000000E+00 -0.94953602610E+01  0.94953602610E+01  0.00000000000E+00 0. -1.
         23    2    1    2    0    0  0.00000000000E+00  0.00000000000E+00  0.19482463122E+03  0.21381535174E+03  0.88092949266E+02 0.  0.
          2    1    3    3  502    0 -0.41324056386E+02  0.46650313260E+01  0.13263969158E+03  0.13900621546E+03  0.00000000000E+00 0. -1.
         -2    1    3    3    0  502  0.41324056386E+02 -0.46650313260E+01  0.62184939639E+02  0.74809136283E+02  0.00000000000E+00 0.  1.
<mgrwt>
<rscale>  0 0.88092949E+02</rscale>
<asrwt>0</asrwt>
<pdfrwt beam="1">  1        2 0.31433841E-01 0.88092949E+02</pdfrwt>
<pdfrwt beam="2">  1       -2 0.14608248E-02 0.88092949E+02</pdfrwt>
<totfact> 0.17096119E+05</totfact>
</mgrwt>
</event>
<event>
 5    1  0.3862918E+001  0.9088027E+02  0.7546771E-02  0.1300734E+00
          2   -1    0    0  501    0  0.00000000000E+00  0.00000000000E+00  0.12242887263E+01  0.12242887263E+01  0.00000000000E+00 0. -1.
         -2   -1    0    0    0  501 -0.00000000000E+00 -0.00000000000E+00 -0.16865349496E+04  0.16865349496E+04  0.00000000000E+00 0.  1.
         23    2    1    2    0    0  0.00000000000E+00  0.00000000000E+00 -0.16853106609E+04  0.16877592383E+04  0.90880266840E+02 0.  0.
          2    1    3    3  502    0  0.59937395815E+01 -0.20815530431E+02 -0.10082913315E+03  0.10312965293E+03  0.00000000000E+00 0. -1.
         -2    1    3    3    0  502 -0.59937395815E+01  0.20815530431E+02 -0.15844815277E+04  0.15846295854E+04  0.00000000000E+00 0.  1.
<mgrwt>
<rscale>  0 0.90880267E+02</rscale>
<asrwt>0</asrwt>
<pdfrwt beam="1">  1        2 0.18835260E-03 0.90880267E+02</pdfrwt>
<pdfrwt beam="2">  1       -2 0.25946624E+00 0.90880267E+02</pdfrwt>
<totfact> 0.86163176E+03</totfact>
</mgrwt>
</event>
<event>
 5    1  0.3862918E+001  0.8917376E+02  0.7546771E-02  0.1304865E+00
          1   -1    0    0  501    0  0.00000000000E+00  0.00000000000E+00  0.44189309071E+02  0.44189309071E+02  0.00000000000E+00 0. -1.
         -1   -1    0    0    0  501 -0.00000000000E+00 -0.00000000000E+00 -0.44988029338E+02  0.44988029338E+02  0.00000000000E+00 0.  1.
         23    2    1    2    0    0  0.00000000000E+00  0.00000000000E+00 -0.79872026722E+00  0.89177338408E+02  0.89173761452E+02 0.  0.
          2    1    3    3  502    0  0.38381970967E+02  0.13232158707E+02  0.18032988286E+02  0.44423579165E+02  0.00000000000E+00 0. -1.
         -2    1    3    3    0  502 -0.38381970967E+02 -0.13232158707E+02 -0.18831708553E+02  0.44753759243E+02  0.00000000000E+00 0.  1.
<mgrwt>
<rscale>  0 0.89173761E+02</rscale>
<asrwt>0</asrwt>
<pdfrwt beam="1">  1        1 0.67983552E-02 0.89173761E+02</pdfrwt>
<pdfrwt beam="2">  1       -1 0.69212353E-02 0.89173761E+02</pdfrwt>
<totfact> 0.97953787E+04</totfact>
</mgrwt>
</event>
<event>
 5    1  0.3862918E+001  0.9581997E+02  0.7546771E-02  0.1289340E+00
         -2   -1    0    0    0  501 -0.00000000000E+00  0.00000000000E+00  0.10011101824E+02  0.10011101824E+02  0.00000000000E+00 0.  1.
          2   -1    0    0  501    0  0.00000000000E+00 -0.00000000000E+00 -0.22928213649E+03  0.22928213649E+03  0.00000000000E+00 0. -1.
         23    2    1    2    0    0  0.00000000000E+00  0.00000000000E+00 -0.21927103467E+03  0.23929323832E+03  0.95819973176E+02 0.  0.
          2    1    3    3  502    0  0.33092931203E+02 -0.12000375065E+02 -0.19079713508E+03  0.19401726174E+03  0.00000000000E+00 0. -1.
         -2    1    3    3    0  502 -0.33092931203E+02  0.12000375065E+02 -0.28473899586E+02  0.45275976577E+02  0.00000000000E+00 0.  1.
<mgrwt>
<rscale>  0 0.95819973E+02</rscale>
<asrwt>0</asrwt>
<pdfrwt beam="2">  1        2 0.35274174E-01 0.95819973E+02</pdfrwt>
<pdfrwt beam="1">  1       -2 0.15401695E-02 0.95819973E+02</pdfrwt>
<totfact> 0.14223104E+05</totfact>
</mgrwt>
</event>
<event>
 5    1  0.3862918E+001  0.8989275E+02  0.7546771E-02  0.1303112E+00
          2   -1    0    0  501    0  0.00000000000E+00  0.00000000000E+00  0.71870449648E+02  0.71870449648E+02  0.00000000000E+00 0. -1.
         -2   -1    0    0    0  501 -0.00000000000E+00 -0.00000000000E+00 -0.28108584811E+02  0.28108584811E+02  0.00000000000E+00 0.  1.
         23    2    1    2    0    0  0.00000000000E+00  0.00000000000E+00  0.43761864837E+02  0.99979034459E+02  0.89892750083E+02 0.  0.
          2    1    3    3  502    0 -0.25263731525E+02  0.35843874564E+02  0.32842608417E+02  0.54787556999E+02  0.00000000000E+00 0. -1.
         -2    1    3    3    0  502  0.25263731525E+02 -0.35843874564E+02  0.10919256420E+02  0.45191477460E+02  0.00000000000E+00 0.  1.
<mgrwt>
<rscale>  0 0.89892750E+02</rscale>
<asrwt>0</asrwt>
<pdfrwt beam="1">  1        2 0.11056992E-01 0.89892750E+02</pdfrwt>
<pdfrwt beam="2">  1       -2 0.43243977E-02 0.89892750E+02</pdfrwt>
<totfact> 0.11592882E+05</totfact>
</mgrwt>
</event>
<event>
 5    1  0.3862918E+001  0.9340082E+02  0.7546771E-02  0.1294819E+00
         -1   -1    0    0    0  501 -0.00000000000E+00  0.00000000000E+00  0.97524313443E+01  0.97524313443E+01  0.00000000000E+00 0.  1.
          1   -1    0    0  501    0  0.00000000000E+00 -0.00000000000E+00 -0.22362918987E+03  0.22362918987E+03  0.00000000000E+00 0. -1.
         23    2    1    2    0    0  0.00000000000E+00  0.00000000000E+00 -0.21387675853E+03  0.23338162122E+03  0.93400820571E+02 0.  0.
          2    1    3    3  502    0  0.14773817609E+02  0.30472112907E+02 -0.18729098280E+03  0.19032794747E+03  0.00000000000E+00 0. -1.
         -2    1    3    3    0  502 -0.14773817609E+02 -0.30472112907E+02 -0.26585775734E+02  0.43053673747E+02  0.00000000000E+00 0.  1.
<mgrwt>
<rscale>  0 0.93400821E+02</rscale>
<asrwt>0</asrwt>
<pdfrwt beam="2">  1        1 0.34404487E-01 0.93400821E+02</pdfrwt>
<pdfrwt beam="1">  1       -1 0.15003742E-02 0.93400821E+02</pdfrwt>
<totfact> 0.11343533E+05</totfact>
</mgrwt>
</event>
<event>
 5    1  0.3862918E+001  0.8884272E+02  0.7546771E-02  0.1305679E+00
          4   -1    0    0  501    0  0.00000000000E+00  0.00000000000E+00  0.17655096732E+02  0.17655096732E+02  0.00000000000E+00 0. -1.
         -4   -1    0    0    0  501 -0.00000000000E+00 -0.00000000000E+00 -0.11176700433E+03  0.11176700433E+03  0.00000000000E+00 0.  1.
         23    2    1    2    0    0  0.00000000000E+00  0.00000000000E+00 -0.94111907595E+02  0.12942210106E+03  0.88842721094E+02 0.  0.
          2    1    3    3  502    0  0.65122344023E+01 -0.31134956356E+02 -0.18856735806E+01  0.31864564473E+02  0.00000000000E+00 0. -1.
         -2    1    3    3    0  502 -0.65122344023E+01  0.31134956356E+02 -0.92226234014E+02  0.97557536585E+02  0.00000000000E+00 0.  1.
<mgrwt>
<rscale>  0 0.88842721E+02</rscale>
<asrwt>0</asrwt>
<pdfrwt beam="1">  1        4 0.27161688E-02 0.88842721E+02</pdfrwt>
<pdfrwt beam="2">  1       -4 0.17194924E-01 0.88842721E+02</pdfrwt>
<totfact> 0.26536159E+04</totfact>
</mgrwt>
</event>
<event>
 5    1  0.3862918E+001  0.9043368E+02  0.7546771E-02  0.1301805E+00
          4   -1    0    0  501    0  0.00000000000E+00  0.00000000000E+00  0.14642631939E+03  0.14642631939E+03  0.00000000000E+00 0. -1.
         -4   -1    0    0    0  501 -0.00000000000E+00 -0.00000000000E+00 -0.13963081786E+02  0.13963081786E+02  0.00000000000E+00 0.  1.
         23    2    1    2    0    0  0.00000000000E+00  0.00000000000E+00  0.13246323760E+03  0.16038940118E+03  0.90433681189E+02 0.  0.
          2    1    3    3  502    0 -0.29108292604E+02 -0.60660355952E+01  0.12664915509E+03  0.13009265149E+03  0.00000000000E+00 0. -1.
         -2    1    3    3    0  502  0.29108292604E+02  0.60660355952E+01  0.58140825128E+01  0.30296749688E+02  0.00000000000E+00 0.  1.
<mgrwt>
<rscale>  0 0.90433681E+02</rscale>
<asrwt>0</asrwt>
<pdfrwt beam="1">  1        4 0.22527125E-01 0.90433681E+02</pdfrwt>
<pdfrwt beam="2">  1       -4 0.21481665E-02 0.90433681E+02</pdfrwt>
<totfact> 0.23676416E+04</totfact>
</mgrwt>
</event>
<event>
 5    1  0.3862918E+001  0.8876211E+02  0.7546771E-02  0.1305877E+00
         -2   -1    0    0    0  501 -0.00000000000E+00  0.00000000000E+00  0.88689940241E+02  0.88689940241E+02  0.00000000000E+00 0.  1.
          2   -1    0    0  501    0  0.00000000000E+00 -0.00000000000E+00 -0.22208582515E+02  0.22208582515E+02  0.00000000000E+00 0. -1.
         23    2    1    2    0    0  0.00000000000E+00  0.00000000000E+00  0.66481357725E+02  0.11089852276E+03  0.88762105791E+02 0.  0.
          2    1    3    3  502    0  0.18958329215E+02 -0.93146469856E+01 -0.15525526177E+02  0.26214935784E+02  0.00000000000E+00 0. -1.
         -2    1    3    3    0  502 -0.18958329215E+02  0.93146469856E+01  0.82006883902E+02  0.84683586972E+02  0.00000000000E+00 0.  1.
<mgrwt>
<rscale>  0 0.88762106E+02</rscale>
<asrwt>0</asrwt>
<pdfrwt beam="2">  1        2 0.34167051E-02 0.88762106E+02</pdfrwt>
<pdfrwt beam="1">  1       -2 0.13644606E-01 0.88762106E+02</pdfrwt>
<totfact> 0.88318032E+04</totfact>
</mgrwt>
</event>
<event>
 5    1  0.3862918E+001  0.9963404E+02  0.7546771E-02  0.1281067E+00
         -2   -1    0    0    0  501 -0.00000000000E+00  0.00000000000E+00  0.71925468769E+01  0.71925468769E+01  0.00000000000E+00 0.  1.
          2   -1    0    0  501    0  0.00000000000E+00 -0.00000000000E+00 -0.34504267264E+03  0.34504267264E+03  0.00000000000E+00 0. -1.
         23    2    1    2    0    0  0.00000000000E+00  0.00000000000E+00 -0.33785012577E+03  0.35223521952E+03  0.99634042325E+02 0.  0.
          2    1    3    3  502    0  0.23647080350E+02  0.40580789992E+02 -0.22763117469E+03  0.23242619606E+03  0.00000000000E+00 0. -1.
         -2    1    3    3    0  502 -0.23647080350E+02 -0.40580789992E+02 -0.11021895108E+03  0.11980902346E+03  0.00000000000E+00 0.  1.
<mgrwt>
<rscale>  0 0.99634042E+02</rscale>
<asrwt>0</asrwt>
<pdfrwt beam="2">  1        2 0.53083489E-01 0.99634042E+02</pdfrwt>
<pdfrwt beam="1">  1       -2 0.11065457E-02 0.99634042E+02</pdfrwt>
<totfact> 0.14923502E+05</totfact>
</mgrwt>
</event>
<event>
 5    1  0.3862918E+001  0.9115966E+02  0.7546771E-02  0.1300067E+00
         -1   -1    0    0    0  501 -0.00000000000E+00  0.00000000000E+00  0.52152589964E+01  0.52152589964E+01  0.00000000000E+00 0.  1.
          1   -1    0    0  501    0  0.00000000000E+00 -0.00000000000E+00 -0.39835431968E+03  0.39835431968E+03  0.00000000000E+00 0. -1.
         23    2    1    2    0    0  0.00000000000E+00  0.00000000000E+00 -0.39313906068E+03  0.40356957867E+03  0.91159661022E+02 0.  0.
          2    1    3    3  502    0 -0.15709264115E+02 -0.17761396156E+02 -0.36889962646E+03  0.36966090215E+03  0.00000000000E+00 0. -1.
         -2    1    3    3    0  502  0.15709264115E+02  0.17761396156E+02 -0.24239434216E+02  0.33908676524E+02  0.00000000000E+00 0.  1.
<mgrwt>
<rscale>  0 0.91159661E+02</rscale>
<asrwt>0</asrwt>
<pdfrwt beam="2">  1        1 0.61285261E-01 0.91159661E+02</pdfrwt>
<pdfrwt beam="1">  1       -1 0.80234778E-03 0.91159661E+02</pdfrwt>
<totfact> 0.13486783E+05</totfact>
</mgrwt>
</event>
<event>
 5    1  0.3862918E+001  0.8856576E+02  0.7546771E-02  0.1306363E+00
          2   -1    0    0  501    0  0.00000000000E+00  0.00000000000E+00  0.48644011253E+01  0.48644011253E+01  0.00000000000E+00 0. -1.
         -2   -1    0    0    0  501 -0.00000000000E+00 -0.00000000000E+00 -0.40312741701E+03  0.40312741701E+03  0.00000000000E+00 0.  1.
         23    2    1    2    0    0  0.00000000000E+00  0.00000000000E+00 -0.39826301588E+03  0.40799181813E+03  0.88565759997E+02 0.  0.
          2    1    3    3  502    0 -0.30670967911E+02 -0.31573756957E+02 -0.22139793130E+03  0.22573137660E+03  0.00000000000E+00 0. -1.
         -2    1    3    3    0  502  0.30670967911E+02  0.31573756957E+02 -0.17686508459E+03  0.18226044153E+03  0.00000000000E+00 0.  1.
<mgrwt>
<rscale>  0 0.88565760E+02</rscale>
<asrwt>0</asrwt>
<pdfrwt beam="1">  1        2 0.74836941E-03 0.88565760E+02</pdfrwt>
<pdfrwt beam="2">  1       -2 0.62019602E-01 0.88565760E+02</pdfrwt>
<totfact> 0.45775537E+04</totfact>
</mgrwt>
</event>
<event>
 5    1  0.3862918E+001  0.9029180E+02  0.7546771E-02  0.1302147E+00
          2   -1    0    0  501    0  0.00000000000E+00  0.00000000000E+00  0.14556531396E+04  0.14556531396E+04  0.00000000000E+00 0. -1.
         -2   -1    0    0    0  501 -0.00000000000E+00 -0.00000000000E+00 -0.14001634286E+01  0.14001634286E+01  0.00000000000E+00 0.  1.
         23    2    1    2    0    0  0.00000000000E+00  0.00000000000E+00  0.14542529762E+04  0.14570533031E+04  0.90291800088E+02 0.  0.
          2    1    3    3  502    0  0.95474051321E+01  0.27379763000E+02  0.12855160756E+04  0.12858430639E+04  0.00000000000E+00 0. -1.
         -2    1    3    3    0  502 -0.95474051321E+01 -0.27379763000E+02  0.16873690065E+03  0.17121023920E+03  0.00000000000E+00 0.  1.
<mgrwt>
<rscale>  0 0.90291800E+02</rscale>
<asrwt>0</asrwt>
<pdfrwt beam="1">  1        2 0.22394543E+00 0.90291800E+02</pdfrwt>
<pdfrwt beam="2">  1       -2 0.21541092E-03 0.90291800E+02</pdfrwt>
<totfact> 0.24471319E+05</totfact>
</mgrwt>
</event>
<event>
 5    1  0.3862918E+001  0.8630152E+02  0.7546771E-02  0.1312064E+00
         -1   -1    0    0    0  501 -0.00000000000E+00  0.00000000000E+00  0.25790290716E+02  0.25790290716E+02  0.00000000000E+00 0.  1.
          1   -1    0    0  501    0  0.00000000000E+00 -0.00000000000E+00 -0.72197246203E+02  0.72197246203E+02  0.00000000000E+00 0. -1.
         23    2    1    2    0    0  0.00000000000E+00  0.00000000000E+00 -0.46406955486E+02  0.97987536919E+02  0.86301517217E+02 0.  0.
          2    1    3    3  502    0  0.24307372999E+02 -0.12304735947E+02 -0.61197009023E+02  0.66987527363E+02  0.00000000000E+00 0. -1.
         -2    1    3    3    0  502 -0.24307372999E+02  0.12304735947E+02  0.14790053537E+02  0.31000009556E+02  0.00000000000E+00 0.  1.
<mgrwt>
<rscale>  0 0.86301517E+02</rscale>
<asrwt>0</asrwt>
<pdfrwt beam="2">  1        1 0.11107269E-01 0.86301517E+02</pdfrwt>
<pdfrwt beam="1">  1       -1 0.39677371E-02 0.86301517E+02</pdfrwt>
<totfact> 0.11526103E+05</totfact>
</mgrwt>
</event>
<event>
 5    1  0.3862918E+001  0.9259459E+02  0.7546771E-02  0.1296687E+00
         -1   -1    0    0    0  501 -0.00000000000E+00  0.00000000000E+00  0.59251029124E+02  0.59251029124E+02  0.00000000000E+00 0. -1.
          1   -1    0    0  501    0  0.00000000000E+00 -0.00000000000E+00 -0.36175563677E+02  0.36175563677E+02  0.00000000000E+00 0.  1.
         23    2    1    2    0    0  0.00000000000E+00  0.00000000000E+00  0.23075465447E+02  0.95426592802E+02  0.92594586819E+02 0.  0.
          2    1    3    3  502    0  0.41315554098E+02  0.14869774937E+02  0.26661516241E+02  0.51370435713E+02  0.00000000000E+00 0. -1.
         -2    1    3    3    0  502 -0.41315554098E+02 -0.14869774937E+02 -0.35860507946E+01  0.44056157088E+02  0.00000000000E+00 0.  1.
<mgrwt>
<rscale>  0 0.92594587E+02</rscale>
<asrwt>0</asrwt>
<pdfrwt beam="2">  1        1 0.55654714E-02 0.92594587E+02</pdfrwt>
<pdfrwt beam="1">  1       -1 0.91155429E-02 0.92594587E+02</pdfrwt>
<totfact> 0.85443143E+04</totfact>
</mgrwt>
</event>
<event>
 5    1  0.3862918E+001  0.9480942E+02  0.7546771E-02  0.1291606E+00
          3   -1    0    0  501    0  0.00000000000E+00  0.00000000000E+00  0.13186213854E+02  0.13186213854E+02  0.00000000000E+00 0. -1.
         -3   -1    0    0    0  501 -0.00000000000E+00 -0.00000000000E+00 -0.17042092312E+03  0.17042092312E+03  0.00000000000E+00 0.  1.
         23    2    1    2    0    0  0.00000000000E+00  0.00000000000E+00 -0.15723470927E+03  0.18360713698E+03  0.94809424374E+02 0.  0.
          2    1    3    3  502    0  0.34013643998E+02 -0.21327936933E+01 -0.14242885528E+03  0.14644949847E+03  0.00000000000E+00 0.  1.
         -2    1    3    3    0  502 -0.34013643998E+02  0.21327936933E+01 -0.14805853993E+02  0.37157638507E+02  0.00000000000E+00 0. -1.
<mgrwt>
<rscale>  0 0.94809424E+02</rscale>
<asrwt>0</asrwt>
<pdfrwt beam="1">  1        3 0.20286485E-02 0.94809424E+02</pdfrwt>
<pdfrwt beam="2">  1       -3 0.26218601E-01 0.94809424E+02</pdfrwt>
<totfact> 0.26416994E+04</totfact>
</mgrwt>
</event>
<event>
 5    1  0.3862918E+001  0.9266664E+02  0.7546771E-02  0.1296520E+00
          2   -1    0    0  501    0  0.00000000000E+00  0.00000000000E+00  0.51937877984E+03  0.51937877984E+03  0.00000000000E+00 0. -1.
         -2   -1    0    0    0  501 -0.00000000000E+00 -0.00000000000E+00 -0.41333540341E+01  0.41333540341E+01  0.00000000000E+00 0.  1.
         23    2    1    2    0    0  0.00000000000E+00  0.00000000000E+00  0.51524542581E+03  0.52351213387E+03  0.92666636388E+02 0.  0.
          2    1    3    3  502    0  0.23490318305E+01 -0.23986810159E+02  0.48117759938E+03  0.48178082896E+03  0.00000000000E+00 0. -1.
         -2    1    3    3    0  502 -0.23490318305E+01  0.23986810159E+02  0.34067826429E+02  0.41731304914E+02  0.00000000000E+00 0.  1.
<mgrwt>
<rscale>  0 0.92666636E+02</rscale>
<asrwt>0</asrwt>
<pdfrwt beam="1">  1        2 0.79904376E-01 0.92666636E+02</pdfrwt>
<pdfrwt beam="2">  1       -2 0.63590103E-03 0.92666636E+02</pdfrwt>
<totfact> 0.20897897E+05</totfact>
</mgrwt>
</event>
<event>
 5    1  0.3862918E+001  0.9145289E+02  0.7546771E-02  0.1299371E+00
         -4   -1    0    0    0  501 -0.00000000000E+00  0.00000000000E+00  0.26562109810E+02  0.26562109810E+02  0.00000000000E+00 0.  1.
          4   -1    0    0  501    0  0.00000000000E+00 -0.00000000000E+00 -0.78717690035E+02  0.78717690035E+02  0.00000000000E+00 0. -1.
         23    2    1    2    0    0  0.00000000000E+00  0.00000000000E+00 -0.52155580225E+02  0.10527979985E+03  0.91452893377E+02 0.  0.
          2    1    3    3  502    0 -0.30502314747E+02 -0.11661001832E+02  0.10770011690E+02  0.34385510327E+02  0.00000000000E+00 0.  1.
         -2    1    3    3    0  502  0.30502314747E+02  0.11661001832E+02 -0.62925591915E+02  0.70894289519E+02  0.00000000000E+00 0. -1.
<mgrwt>
<rscale>  0 0.91452893E+02</rscale>
<asrwt>0</asrwt>
<pdfrwt beam="2">  1        4 0.12110414E-01 0.91452893E+02</pdfrwt>
<pdfrwt beam="1">  1       -4 0.40864785E-02 0.91452893E+02</pdfrwt>
<totfact> 0.25921793E+04</totfact>
</mgrwt>
</event>
<event>
 5    1  0.3862918E+001  0.8675946E+02  0.7546771E-02  0.1310894E+00
         -1   -1    0    0    0  501 -0.00000000000E+00  0.00000000000E+00  0.13386847727E+01  0.13386847727E+01  0.00000000000E+00 0.  1.
          1   -1    0    0  501    0  0.00000000000E+00 -0.00000000000E+00 -0.14057087257E+04  0.14057087257E+04  0.00000000000E+00 0. -1.
         23    2    1    2    0    0  0.00000000000E+00  0.00000000000E+00 -0.14043700409E+04  0.14070474104E+04  0.86759457490E+02 0.  0.
          2    1    3    3  502    0 -0.29182955887E+02  0.30755450165E+02 -0.55331814026E+03  0.55494009314E+03  0.00000000000E+00 0. -1.
         -2    1    3    3    0  502  0.29182955887E+02 -0.30755450165E+02 -0.85105190064E+03  0.85210731731E+03  0.00000000000E+00 0.  1.
<mgrwt>
<rscale>  0 0.86759457E+02</rscale>
<asrwt>0</asrwt>
<pdfrwt beam="2">  1        1 0.21626189E+00 0.86759457E+02</pdfrwt>
<pdfrwt beam="1">  1       -1 0.20595245E-03 0.86759457E+02</pdfrwt>
<totfact> 0.13237617E+05</totfact>
</mgrwt>
</event>
<event>
 5    1  0.3862918E+001  0.8822890E+02  0.7546771E-02  0.1307198E+00
          1   -1    0    0  501    0  0.00000000000E+00  0.00000000000E+00  0.67948812346E+03  0.67948812346E+03  0.00000000000E+00 0. -1.
         -1   -1    0    0    0  501 -0.00000000000E+00 -0.00000000000E+00 -0.28640449640E+01  0.28640449640E+01  0.00000000000E+00 0.  1.
         23    2    1    2    0    0  0.00000000000E+00  0.00000000000E+00  0.67662407850E+03  0.68235216843E+03  0.88228896358E+02 0.  0.
          2    1    3    3  502    0 -0.39578490077E+02 -0.17824438471E+02  0.39916796503E+03  0.40152114737E+03  0.00000000000E+00 0. -1.
         -2    1    3    3    0  502  0.39578490077E+02  0.17824438471E+02  0.27745611347E+03  0.28083102106E+03  0.00000000000E+00 0.  1.
<mgrwt>
<rscale>  0 0.88228896E+02</rscale>
<asrwt>0</asrwt>
<pdfrwt beam="1">  1        1 0.10453651E+00 0.88228896E+02</pdfrwt>
<pdfrwt beam="2">  1       -1 0.44062284E-03 0.88228896E+02</pdfrwt>
<totfact> 0.15507302E+05</totfact>
</mgrwt>
</event>
<event>
 5    1  0.3862918E+001  0.9112873E+02  0.7546771E-02  0.1300141E+00
         -2   -1    0    0    0  501 -0.00000000000E+00  0.00000000000E+00  0.30978070387E+01  0.30978070387E+01  0.00000000000E+00 0.  1.
          2   -1    0    0  501    0  0.00000000000E+00 -0.00000000000E+00 -0.67018739890E+03  0.67018739890E+03  0.00000000000E+00 0. -1.
         23    2    1    2    0    0  0.00000000000E+00  0.00000000000E+00 -0.66708959186E+03  0.67328520593E+03  0.91128727448E+02 0.  0.
          2    1    3    3  502    0  0.30424991396E+02  0.36441760066E+00 -0.82963291288E+02  0.88366965564E+02  0.00000000000E+00 0.  1.
         -2    1    3    3    0  502 -0.30424991396E+02 -0.36441760066E+00 -0.58412630057E+03  0.58491824037E+03  0.00000000000E+00 0. -1.
<mgrwt>
<rscale>  0 0.91128727E+02</rscale>
<asrwt>0</asrwt>
<pdfrwt beam="2">  1        2 0.10310575E+00 0.91128727E+02</pdfrwt>
<pdfrwt beam="1">  1       -2 0.47658573E-03 0.91128727E+02</pdfrwt>
<totfact> 0.23499710E+05</totfact>
</mgrwt>
</event>
<event>
 5    1  0.3862918E+001  0.9254652E+02  0.7546771E-02  0.1296800E+00
         -2   -1    0    0    0  501 -0.00000000000E+00  0.00000000000E+00  0.50043884857E+01  0.50043884857E+01  0.00000000000E+00 0.  1.
          2   -1    0    0  501    0  0.00000000000E+00 -0.00000000000E+00 -0.42786734414E+03  0.42786734414E+03  0.00000000000E+00 0. -1.
         23    2    1    2    0    0  0.00000000000E+00  0.00000000000E+00 -0.42286295566E+03  0.43287173263E+03  0.92546516097E+02 0.  0.
          2    1    3    3  502    0 -0.20270165320E+02  0.31017512256E+02 -0.34107477891E+03  0.34308157991E+03  0.00000000000E+00 0. -1.
         -2    1    3    3    0  502  0.20270165320E+02 -0.31017512256E+02 -0.81788176749E+02  0.89790152716E+02  0.00000000000E+00 0.  1.
<mgrwt>
<rscale>  0 0.92546516E+02</rscale>
<asrwt>0</asrwt>
<pdfrwt beam="2">  1        2 0.65825761E-01 0.92546516E+02</pdfrwt>
<pdfrwt beam="1">  1       -2 0.76990574E-03 0.92546516E+02</pdfrwt>
<totfact> 0.19650107E+05</totfact>
</mgrwt>
</event>
<event>
 5    1  0.3862918E+001  0.8916938E+02  0.7546771E-02  0.1304876E+00
         -2   -1    0    0    0  501 -0.00000000000E+00  0.00000000000E+00  0.78785295043E+02  0.78785295043E+02  0.00000000000E+00 0.  1.
          2   -1    0    0  501    0  0.00000000000E+00 -0.00000000000E+00 -0.25230528433E+02  0.25230528433E+02  0.00000000000E+00 0. -1.
         23    2    1    2    0    0  0.00000000000E+00  0.00000000000E+00  0.53554766609E+02  0.10401582348E+03  0.89169380994E+02 0.  0.
          2    1    3    3  502    0  0.23762343496E+01 -0.44486622983E+02  0.24727362112E+02  0.50952414576E+02  0.00000000000E+00 0. -1.
         -2    1    3    3    0  502 -0.23762343496E+01  0.44486622983E+02  0.28827404497E+02  0.53063408900E+02  0.00000000000E+00 0.  1.
<mgrwt>
<rscale>  0 0.89169381E+02</rscale>
<asrwt>0</asrwt>
<pdfrwt beam="2">  1        2 0.38816198E-02 0.89169381E+02</pdfrwt>
<pdfrwt beam="1">  1       -2 0.12120814E-01 0.89169381E+02</pdfrwt>
<totfact> 0.90234668E+04</totfact>
</mgrwt>
</event>
<event>
 5    1  0.3862918E+001  0.9149069E+02  0.7546771E-02  0.1299281E+00
         -4   -1    0    0    0  501 -0.00000000000E+00  0.00000000000E+00  0.31078865564E+01  0.31078865564E+01  0.00000000000E+00 0.  1.
          4   -1    0    0  501    0  0.00000000000E+00 -0.00000000000E+00 -0.67333104702E+03  0.67333104702E+03  0.00000000000E+00 0. -1.
         23    2    1    2    0    0  0.00000000000E+00  0.00000000000E+00 -0.67022316046E+03  0.67643893357E+03  0.91490688247E+02 0.  0.
          2    1    3    3  502    0 -0.38500729521E+02 -0.23217739228E+02 -0.39752754647E+03  0.40006189495E+03  0.00000000000E+00 0. -1.
         -2    1    3    3    0  502  0.38500729521E+02  0.23217739228E+02 -0.27269561399E+03  0.27637703862E+03  0.00000000000E+00 0.  1.
<mgrwt>
<rscale>  0 0.91490688E+02</rscale>
<asrwt>0</asrwt>
<pdfrwt beam="2">  1        4 0.10358938E+00 0.91490688E+02</pdfrwt>
<pdfrwt beam="1">  1       -4 0.47813646E-03 0.91490688E+02</pdfrwt>
<totfact> 0.10248884E+04</totfact>
</mgrwt>
</event>
<event>
 5    1  0.3862918E+001  0.9125213E+02  0.7546771E-02  0.1299848E+00
          4   -1    0    0  501    0  0.00000000000E+00  0.00000000000E+00  0.27841436562E+02  0.27841436562E+02  0.00000000000E+00 0. -1.
         -4   -1    0    0    0  501 -0.00000000000E+00 -0.00000000000E+00 -0.74771203452E+02  0.74771203452E+02  0.00000000000E+00 0.  1.
         23    2    1    2    0    0  0.00000000000E+00  0.00000000000E+00 -0.46929766890E+02  0.10261264001E+03  0.91252128031E+02 0.  0.
          2    1    3    3  502    0 -0.31071122180E+02 -0.21024019579E+02 -0.52665286553E+02  0.64661089076E+02  0.00000000000E+00 0.  1.
         -2    1    3    3    0  502  0.31071122180E+02  0.21024019579E+02  0.57355196624E+01  0.37951550938E+02  0.00000000000E+00 0. -1.
<mgrwt>
<rscale>  0 0.91252128E+02</rscale>
<asrwt>0</asrwt>
<pdfrwt beam="1">  1        4 0.42832980E-02 0.91252128E+02</pdfrwt>
<pdfrwt beam="2">  1       -4 0.11503262E-01 0.91252128E+02</pdfrwt>
<totfact> 0.26238718E+04</totfact>
</mgrwt>
</event>
<event>
 5    1  0.3862918E+001  0.9128170E+02  0.7546771E-02  0.1299777E+00
         -1   -1    0    0    0  501 -0.00000000000E+00  0.00000000000E+00  0.23819153695E+02  0.23819153695E+02  0.00000000000E+00 0.  1.
          1   -1    0    0  501    0  0.00000000000E+00 -0.00000000000E+00 -0.87454290872E+02  0.87454290872E+02  0.00000000000E+00 0. -1.
         23    2    1    2    0    0  0.00000000000E+00  0.00000000000E+00 -0.63635137178E+02  0.11127344457E+03  0.91281700150E+02 0.  0.
          2    1    3    3  502    0  0.36733622788E+02 -0.23315288718E+02 -0.48626029784E+02  0.65249157111E+02  0.00000000000E+00 0. -1.
         -2    1    3    3    0  502 -0.36733622788E+02  0.23315288718E+02 -0.15009107393E+02  0.46024287456E+02  0.00000000000E+00 0.  1.
<mgrwt>
<rscale>  0 0.91281700E+02</rscale>
<asrwt>0</asrwt>
<pdfrwt beam="2">  1        1 0.13454506E-01 0.91281700E+02</pdfrwt>
<pdfrwt beam="1">  1       -1 0.36644851E-02 0.91281700E+02</pdfrwt>
<totfact> 0.10186405E+05</totfact>
</mgrwt>
</event>
<event>
 5    1  0.3862918E+001  0.9020913E+02  0.7546771E-02  0.1302346E+00
         -2   -1    0    0    0  501 -0.00000000000E+00  0.00000000000E+00  0.10560283054E+01  0.10560283054E+01  0.00000000000E+00 0. -1.
          2   -1    0    0  501    0  0.00000000000E+00 -0.00000000000E+00 -0.19264841390E+04  0.19264841390E+04  0.00000000000E+00 0.  1.
         23    2    1    2    0    0  0.00000000000E+00  0.00000000000E+00 -0.19254281107E+04  0.19275401673E+04  0.90209129930E+02 0.  0.
          2    1    3    3  502    0 -0.11296379483E+01  0.41372398350E+02 -0.13458239836E+04  0.13464602282E+04  0.00000000000E+00 0.  1.
         -2    1    3    3    0  502  0.11296379483E+01 -0.41372398350E+02 -0.57960412712E+03  0.58107993908E+03  0.00000000000E+00 0. -1.
<mgrwt>
<rscale>  0 0.90209130E+02</rscale>
<asrwt>0</asrwt>
<pdfrwt beam="2">  1        2 0.29638089E+00 0.90209130E+02</pdfrwt>
<pdfrwt beam="1">  1       -2 0.16246660E-03 0.90209130E+02</pdfrwt>
<totfact> 0.20927281E+05</totfact>
</mgrwt>
</event>
<event>
 5    1  0.3862918E+001  0.8062207E+02  0.7546771E-02  0.1327295E+00
         -2   -1    0    0    0  501 -0.00000000000E+00  0.00000000000E+00  0.22928125425E+01  0.22928125425E+01  0.00000000000E+00 0.  1.
          2   -1    0    0  501    0  0.00000000000E+00 -0.00000000000E+00 -0.70872759409E+03  0.70872759409E+03  0.00000000000E+00 0. -1.
         23    2    1    2    0    0  0.00000000000E+00  0.00000000000E+00 -0.70643478155E+03  0.71102040663E+03  0.80622069359E+02 0.  0.
          2    1    3    3  502    0  0.27270183627E+02  0.18483354230E+02 -0.55809626481E+03  0.55906774016E+03  0.00000000000E+00 0. -1.
         -2    1    3    3    0  502 -0.27270183627E+02 -0.18483354230E+02 -0.14833851674E+03  0.15195266647E+03  0.00000000000E+00 0.  1.
<mgrwt>
<rscale>  0 0.80622069E+02</rscale>
<asrwt>0</asrwt>
<pdfrwt beam="2">  1        2 0.10903506E+00 0.80622069E+02</pdfrwt>
<pdfrwt beam="1">  1       -2 0.35274025E-03 0.80622069E+02</pdfrwt>
<totfact> 0.32830376E+05</totfact>
</mgrwt>
</event>
<event>
 5    1  0.3862918E+001  0.9129940E+02  0.7546771E-02  0.1299735E+00
          1   -1    0    0  501    0  0.00000000000E+00  0.00000000000E+00  0.12024188956E+04  0.12024188956E+04  0.00000000000E+00 0. -1.
         -1   -1    0    0    0  501 -0.00000000000E+00 -0.00000000000E+00 -0.17330857087E+01  0.17330857087E+01  0.00000000000E+00 0.  1.
         23    2    1    2    0    0  0.00000000000E+00  0.00000000000E+00  0.12006858099E+04  0.12041519813E+04  0.91299397673E+02 0.  0.
          2    1    3    3  502    0 -0.45367021070E+02  0.17265410520E+01  0.66324713327E+03  0.66479914812E+03  0.00000000000E+00 0. -1.
         -2    1    3    3    0  502  0.45367021070E+02 -0.17265410520E+01  0.53743867663E+03  0.53935283320E+03  0.00000000000E+00 0.  1.
<mgrwt>
<rscale>  0 0.91299398E+02</rscale>
<asrwt>0</asrwt>
<pdfrwt beam="1">  1        1 0.18498686E+00 0.91299398E+02</pdfrwt>
<pdfrwt beam="2">  1       -1 0.26662953E-03 0.91299398E+02</pdfrwt>
<totfact> 0.12673024E+05</totfact>
</mgrwt>
</event>
<event>
 5    1  0.3862918E+001  0.9144792E+02  0.7546771E-02  0.1299383E+00
          2   -1    0    0  501    0  0.00000000000E+00  0.00000000000E+00  0.31036991869E+03  0.31036991869E+03  0.00000000000E+00 0. -1.
         -2   -1    0    0    0  501 -0.00000000000E+00 -0.00000000000E+00 -0.67360921827E+01  0.67360921827E+01  0.00000000000E+00 0.  1.
         23    2    1    2    0    0  0.00000000000E+00  0.00000000000E+00  0.30363382651E+03  0.31710601088E+03  0.91447917047E+02 0.  0.
          2    1    3    3  502    0 -0.43058035395E+02 -0.47949748214E+01  0.20250746417E+03  0.20708997861E+03  0.00000000000E+00 0. -1.
         -2    1    3    3    0  502  0.43058035395E+02  0.47949748214E+01  0.10112636234E+03  0.11001603227E+03  0.00000000000E+00 0.  1.
<mgrwt>
<rscale>  0 0.91447917E+02</rscale>
<asrwt>0</asrwt>
<pdfrwt beam="1">  1        2 0.47749207E-01 0.91447917E+02</pdfrwt>
<pdfrwt beam="2">  1       -2 0.10363221E-02 0.91447917E+02</pdfrwt>
<totfact> 0.18050980E+05</totfact>
</mgrwt>
</event>
<event>
 5    1  0.3862918E+001  0.9234473E+02  0.7546771E-02  0.1297271E+00
         -1   -1    0    0    0  501 -0.00000000000E+00  0.00000000000E+00  0.40071670275E+01  0.40071670275E+01  0.00000000000E+00 0. -1.
          1   -1    0    0  501    0  0.00000000000E+00 -0.00000000000E+00 -0.53201860845E+03  0.53201860845E+03  0.00000000000E+00 0.  1.
         23    2    1    2    0    0  0.00000000000E+00  0.00000000000E+00 -0.52801144143E+03  0.53602577548E+03  0.92344732948E+02 0.  0.
          2    1    3    3  502    0  0.12326424051E+02 -0.43606641585E+02 -0.21260699369E+03  0.21738264348E+03  0.00000000000E+00 0. -1.
         -2    1    3    3    0  502 -0.12326424051E+02  0.43606641585E+02 -0.31540444774E+03  0.31864313200E+03  0.00000000000E+00 0.  1.
<mgrwt>
<rscale>  0 0.92344733E+02</rscale>
<asrwt>0</asrwt>
<pdfrwt beam="2">  1        1 0.81848973E-01 0.92344733E+02</pdfrwt>
<pdfrwt beam="1">  1       -1 0.61648756E-03 0.92344733E+02</pdfrwt>
<totfact> 0.13556222E+05</totfact>
</mgrwt>
</event>
<event>
 5    1  0.3862918E+001  0.8316863E+02  0.7546771E-02  0.1320292E+00
         -2   -1    0    0    0  501 -0.00000000000E+00  0.00000000000E+00  0.84288943073E+01  0.84288943073E+01  0.00000000000E+00 0.  1.
          2   -1    0    0  501    0  0.00000000000E+00 -0.00000000000E+00 -0.20515804256E+03  0.20515804256E+03  0.00000000000E+00 0. -1.
         23    2    1    2    0    0  0.00000000000E+00  0.00000000000E+00 -0.19672914825E+03  0.21358693687E+03  0.83168634882E+02 0.  0.
          2    1    3    3  502    0  0.33748068759E+02 -0.53035380612E+01 -0.15925638800E+03  0.16287927056E+03  0.00000000000E+00 0. -1.
         -2    1    3    3    0  502 -0.33748068759E+02  0.53035380612E+01 -0.37472760255E+02  0.50707666305E+02  0.00000000000E+00 0.  1.
<mgrwt>
<rscale>  0 0.83168635E+02</rscale>
<asrwt>0</asrwt>
<pdfrwt beam="2">  1        2 0.31562780E-01 0.83168635E+02</pdfrwt>
<pdfrwt beam="1">  1       -2 0.12967528E-02 0.83168635E+02</pdfrwt>
<totfact> 0.19962691E+05</totfact>
</mgrwt>
</event>
<event>
 5    1  0.3862918E+001  0.8980642E+02  0.7546771E-02  0.1303321E+00
          2   -1    0    0  501    0  0.00000000000E+00  0.00000000000E+00  0.27790350678E+03  0.27790350678E+03  0.00000000000E+00 0. -1.
         -2   -1    0    0    0  501 -0.00000000000E+00 -0.00000000000E+00 -0.72553902429E+01  0.72553902429E+01  0.00000000000E+00 0.  1.
         23    2    1    2    0    0  0.00000000000E+00  0.00000000000E+00  0.27064811654E+03  0.28515889702E+03  0.89806422745E+02 0.  0.
          2    1    3    3  502    0 -0.64205909481E+01 -0.23361397353E+02  0.25536908999E+03  0.25651579093E+03  0.00000000000E+00 0. -1.
         -2    1    3    3    0  502  0.64205909481E+01  0.23361397353E+02  0.15279026549E+02  0.28643106094E+02  0.00000000000E+00 0.  1.
<mgrwt>
<rscale>  0 0.89806423E+02</rscale>
<asrwt>0</asrwt>
<pdfrwt beam="1">  1        2 0.42754377E-01 0.89806423E+02</pdfrwt>
<pdfrwt beam="2">  1       -2 0.11162141E-02 0.89806423E+02</pdfrwt>
<totfact> 0.18180735E+05</totfact>
</mgrwt>
</event>
<event>
 5    1  0.3862918E+001  0.9111929E+02  0.7546771E-02  0.1300164E+00
          1   -1    0    0  501    0  0.00000000000E+00  0.00000000000E+00  0.70283134677E+03  0.70283134677E+03  0.00000000000E+00 0.  1.
         -1   -1    0    0    0  501 -0.00000000000E+00 -0.00000000000E+00 -0.29533136280E+01  0.29533136280E+01  0.00000000000E+00 0. -1.
         23    2    1    2    0    0  0.00000000000E+00  0.00000000000E+00  0.69987803314E+03  0.70578466040E+03  0.91119293119E+02 0.  0.
          2    1    3    3  502    0 -0.21553828620E+02 -0.40077446783E+02  0.36710610374E+03  0.36991574807E+03  0.00000000000E+00 0.  1.
         -2    1    3    3    0  502  0.21553828620E+02  0.40077446783E+02  0.33277192941E+03  0.33586891233E+03  0.00000000000E+00 0. -1.
<mgrwt>
<rscale>  0 0.91119293E+02</rscale>
<asrwt>0</asrwt>
<pdfrwt beam="1">  1        1 0.10812777E+00 0.91119293E+02</pdfrwt>
<pdfrwt beam="2">  1       -1 0.45435650E-03 0.91119293E+02</pdfrwt>
<totfact> 0.14240702E+05</totfact>
</mgrwt>
</event>
<event>
 5    1  0.3862918E+001  0.9675234E+02  0.7546771E-02  0.1287277E+00
         -2   -1    0    0    0  501 -0.00000000000E+00  0.00000000000E+00  0.17587389014E+01  0.17587389014E+01  0.00000000000E+00 0.  1.
          2   -1    0    0  501    0  0.00000000000E+00 -0.00000000000E+00 -0.13306431019E+04  0.13306431019E+04  0.00000000000E+00 0. -1.
         23    2    1    2    0    0  0.00000000000E+00  0.00000000000E+00 -0.13288843630E+04  0.13324018408E+04  0.96752339242E+02 0.  0.
          2    1    3    3  502    0 -0.46902426822E+02 -0.39192777607E+00 -0.82753866470E+03  0.82886683660E+03  0.00000000000E+00 0. -1.
         -2    1    3    3    0  502  0.46902426822E+02  0.39192777607E+00 -0.50134569829E+03  0.50353500419E+03  0.00000000000E+00 0.  1.
<mgrwt>
<rscale>  0 0.96752339E+02</rscale>
<asrwt>0</asrwt>
<pdfrwt beam="2">  1        2 0.20471457E+00 0.96752339E+02</pdfrwt>
<pdfrwt beam="1">  1       -2 0.27057489E-03 0.96752339E+02</pdfrwt>
<totfact> 0.20903741E+05</totfact>
</mgrwt>
</event>
<event>
 5    1  0.3862918E+001  0.8884601E+02  0.7546771E-02  0.1305671E+00
          1   -1    0    0  501    0  0.00000000000E+00  0.00000000000E+00  0.13418400448E+02  0.13418400448E+02  0.00000000000E+00 0. -1.
         -1   -1    0    0    0  501 -0.00000000000E+00 -0.00000000000E+00 -0.14706695742E+03  0.14706695742E+03  0.00000000000E+00 0.  1.
         23    2    1    2    0    0  0.00000000000E+00  0.00000000000E+00 -0.13364855697E+03  0.16048535786E+03  0.88846008964E+02 0.  0.
          2    1    3    3  502    0 -0.98682431011E+00 -0.41726021200E+02 -0.39348515788E+02  0.57361488492E+02  0.00000000000E+00 0. -1.
         -2    1    3    3    0  502  0.98682431011E+00  0.41726021200E+02 -0.94300041181E+02  0.10312386937E+03  0.00000000000E+00 0.  1.
<mgrwt>
<rscale>  0 0.88846009E+02</rscale>
<asrwt>0</asrwt>
<pdfrwt beam="1">  1        1 0.20643694E-02 0.88846009E+02</pdfrwt>
<pdfrwt beam="2">  1       -1 0.22625685E-01 0.88846009E+02</pdfrwt>
<totfact> 0.80347082E+04</totfact>
</mgrwt>
</event>
<event>
 5    1  0.3862918E+001  0.8939861E+02  0.7546771E-02  0.1304315E+00
         -2   -1    0    0    0  501 -0.00000000000E+00  0.00000000000E+00  0.21996925943E+01  0.21996925943E+01  0.00000000000E+00 0.  1.
          2   -1    0    0  501    0  0.00000000000E+00 -0.00000000000E+00 -0.90832150180E+03  0.90832150180E+03  0.00000000000E+00 0. -1.
         23    2    1    2    0    0  0.00000000000E+00  0.00000000000E+00 -0.90612180921E+03  0.91052119440E+03  0.89398614771E+02 0.  0.
          2    1    3    3  502    0  0.26370986173E+02 -0.29692268523E+01 -0.81940565006E+03  0.81983526672E+03  0.00000000000E+00 0. -1.
         -2    1    3    3    0  502 -0.26370986173E+02  0.29692268523E+01 -0.86716159152E+02  0.90685927673E+02  0.00000000000E+00 0.  1.
<mgrwt>
<rscale>  0 0.89398615E+02</rscale>
<asrwt>0</asrwt>
<pdfrwt beam="2">  1        2 0.13974210E+00 0.89398615E+02</pdfrwt>
<pdfrwt beam="1">  1       -2 0.33841345E-03 0.89398615E+02</pdfrwt>
<totfact> 0.26139219E+05</totfact>
</mgrwt>
</event>
<event>
 5    1  0.3862918E+001  0.8756596E+02  0.7546771E-02  0.1308855E+00
          1   -1    0    0  501    0  0.00000000000E+00  0.00000000000E+00  0.11269119480E+04  0.11269119480E+04  0.00000000000E+00 0. -1.
         -1   -1    0    0    0  501 -0.00000000000E+00 -0.00000000000E+00 -0.17010640022E+01  0.17010640022E+01  0.00000000000E+00 0.  1.
         23    2    1    2    0    0  0.00000000000E+00  0.00000000000E+00  0.11252108840E+04  0.11286130120E+04  0.87565960242E+02 0.  0.
          2    1    3    3  502    0 -0.14847159916E+02 -0.34254536859E+02  0.85739889143E+03  0.85821132040E+03  0.00000000000E+00 0. -1.
         -2    1    3    3    0  502  0.14847159916E+02  0.34254536859E+02  0.26781199253E+03  0.27040169155E+03  0.00000000000E+00 0.  1.
<mgrwt>
<rscale>  0 0.87565960E+02</rscale>
<asrwt>0</asrwt>
<pdfrwt beam="1">  1        1 0.17337047E+00 0.87565960E+02</pdfrwt>
<pdfrwt beam="2">  1       -1 0.26170305E-03 0.87565960E+02</pdfrwt>
<totfact> 0.14551887E+05</totfact>
</mgrwt>
</event>
<event>
 5    1  0.3862918E+001  0.9926176E+02  0.7546771E-02  0.1281856E+00
         -1   -1    0    0    0  501 -0.00000000000E+00  0.00000000000E+00  0.10248169755E+01  0.10248169755E+01  0.00000000000E+00 0.  1.
          1   -1    0    0  501    0  0.00000000000E+00 -0.00000000000E+00 -0.24035748015E+04  0.24035748015E+04  0.00000000000E+00 0. -1.
         23    2    1    2    0    0  0.00000000000E+00  0.00000000000E+00 -0.24025499845E+04  0.24045996185E+04  0.99261760178E+02 0.  0.
          2    1    3    3  502    0  0.28876853845E+02 -0.27113379512E+02 -0.19256810506E+04  0.19260883980E+04  0.00000000000E+00 0. -1.
         -2    1    3    3    0  502 -0.28876853845E+02  0.27113379512E+02 -0.47686893388E+03  0.47851122049E+03  0.00000000000E+00 0.  1.
<mgrwt>
<rscale>  0 0.99261760E+02</rscale>
<asrwt>0</asrwt>
<pdfrwt beam="2">  1        1 0.36977652E+00 0.99261760E+02</pdfrwt>
<pdfrwt beam="1">  1       -1 0.15766595E-03 0.99261760E+02</pdfrwt>
<totfact> 0.45522619E+04</totfact>
</mgrwt>
</event>
<event>
 5    1  0.3862918E+001  0.9051459E+02  0.7546771E-02  0.1301610E+00
          2   -1    0    0  501    0  0.00000000000E+00  0.00000000000E+00  0.64882456659E+02  0.64882456659E+02  0.00000000000E+00 0. -1.
         -2   -1    0    0    0  501 -0.00000000000E+00 -0.00000000000E+00 -0.31568202463E+02  0.31568202463E+02  0.00000000000E+00 0.  1.
         23    2    1    2    0    0  0.00000000000E+00  0.00000000000E+00  0.33314254196E+02  0.96450659121E+02  0.90514585080E+02 0.  0.
          2    1    3    3  502    0 -0.25408545299E+02  0.22081936227E+02  0.48890153576E+02  0.59358682587E+02  0.00000000000E+00 0. -1.
         -2    1    3    3    0  502  0.25408545299E+02 -0.22081936227E+02 -0.15575899380E+02  0.37091976534E+02  0.00000000000E+00 0.  1.
<mgrwt>
<rscale>  0 0.90514585E+02</rscale>
<asrwt>0</asrwt>
<pdfrwt beam="1">  1        2 0.99819164E-02 0.90514585E+02</pdfrwt>
<pdfrwt beam="2">  1       -2 0.48566465E-02 0.90514585E+02</pdfrwt>
<totfact> 0.11057478E+05</totfact>
</mgrwt>
</event>
<event>
 5    1  0.3862918E+001  0.8872933E+02  0.7546771E-02  0.1305958E+00
          2   -1    0    0  501    0  0.00000000000E+00  0.00000000000E+00  0.35498153881E+04  0.35498153881E+04  0.00000000000E+00 0. -1.
         -2   -1    0    0    0  501 -0.00000000000E+00 -0.00000000000E+00 -0.55445799241E+00  0.55445799241E+00  0.00000000000E+00 0.  1.
         23    2    1    2    0    0  0.00000000000E+00  0.00000000000E+00  0.35492609301E+04  0.35503698461E+04  0.88729330292E+02 0.  0.
          2    1    3    3  502    0 -0.58905984969E+01 -0.42725690277E+02  0.21905393369E+04  0.21909638907E+04  0.00000000000E+00 0.  1.
         -2    1    3    3    0  502  0.58905984969E+01  0.42725690277E+02  0.13587215932E+04  0.13594059554E+04  0.00000000000E+00 0. -1.
<mgrwt>
<rscale>  0 0.88729330E+02</rscale>
<asrwt>0</asrwt>
<pdfrwt beam="1">  1        2 0.54610725E+00 0.88729330E+02</pdfrwt>
<pdfrwt beam="2">  1       -2 0.85304072E-04 0.88729330E+02</pdfrwt>
<totfact> 0.64255521E+04</totfact>
</mgrwt>
</event>
<event>
 4    1  0.3862918E+001  0.1537645E+03  0.7546771E-02  0.1195922E+00
          1   -1    0    0  501    0  0.00000000000E+00  0.00000000000E+00  0.55778403163E+01  0.55778403163E+01  0.00000000000E+00 0. -1.
         -1   -1    0    0    0  501 -0.00000000000E+00 -0.00000000000E+00 -0.10597077847E+04  0.10597077847E+04  0.00000000000E+00 0.  1.
          2    1    1    2  502    0 -0.43240724586E+02 -0.44645311452E+02 -0.84058559609E+03  0.84288024562E+03  0.00000000000E+00 0.  1.
         -2    1    1    2    0  502  0.43240724586E+02  0.44645311452E+02 -0.21354434828E+03  0.22240537939E+03  0.00000000000E+00 0. -1.
<mgrwt>
<rscale>  0 0.15376451E+03</rscale>
<asrwt>0</asrwt>
<pdfrwt beam="1">  1        1 0.85813009E-03 0.15376451E+03</pdfrwt>
<pdfrwt beam="2">  1       -1 0.16303181E+00 0.15376451E+03</pdfrwt>
<totfact> 0.58595769E+03</totfact>
</mgrwt>
</event>
<event>
 5    1  0.3862918E+001  0.9000669E+02  0.7546771E-02  0.1302836E+00
          1   -1    0    0  501    0  0.00000000000E+00  0.00000000000E+00  0.80193522467E+03  0.80193522467E+03  0.00000000000E+00 0. -1.
         -1   -1    0    0    0  501 -0.00000000000E+00 -0.00000000000E+00 -0.25255169384E+01  0.25255169384E+01  0.00000000000E+00 0.  1.
         23    2    1    2    0    0  0.00000000000E+00  0.00000000000E+00  0.79940970773E+03  0.80446074160E+03  0.90006688493E+02 0.  0.
          2    1    3    3  502    0 -0.16335027863E+02 -0.25915407714E+02  0.69436186183E+03  0.69503729156E+03  0.00000000000E+00 0. -1.
         -2    1    3    3    0  502  0.16335027863E+02  0.25915407714E+02  0.10504784589E+03  0.10942345004E+03  0.00000000000E+00 0.  1.
<mgrwt>
<rscale>  0 0.90006688E+02</rscale>
<asrwt>0</asrwt>
<pdfrwt beam="1">  1        1 0.12337445E+00 0.90006688E+02</pdfrwt>
<pdfrwt beam="2">  1       -1 0.38854171E-03 0.90006688E+02</pdfrwt>
<totfact> 0.14617285E+05</totfact>
</mgrwt>
</event>
<event>
 5    1  0.3862918E+001  0.8955528E+02  0.7546771E-02  0.1303932E+00
         -3   -1    0    0    0  501 -0.00000000000E+00  0.00000000000E+00  0.36838260761E+02  0.36838260761E+02  0.00000000000E+00 0.  1.
          3   -1    0    0  501    0  0.00000000000E+00 -0.00000000000E+00 -0.54428108756E+02  0.54428108756E+02  0.00000000000E+00 0. -1.
         23    2    1    2    0    0  0.00000000000E+00  0.00000000000E+00 -0.17589847995E+02  0.91266369516E+02  0.89555275960E+02 0.  0.
          2    1    3    3  502    0 -0.39817374091E+02 -0.12728293836E+01 -0.29630444632E+02  0.49648833050E+02  0.00000000000E+00 0. -1.
         -2    1    3    3    0  502  0.39817374091E+02  0.12728293836E+01  0.12040596637E+02  0.41617536466E+02  0.00000000000E+00 0.  1.
<mgrwt>
<rscale>  0 0.89555276E+02</rscale>
<asrwt>0</asrwt>
<pdfrwt beam="2">  1        3 0.83735552E-02 0.89555276E+02</pdfrwt>
<pdfrwt beam="1">  1       -3 0.56674247E-02 0.89555276E+02</pdfrwt>
<totfact> 0.37097609E+04</totfact>
</mgrwt>
</event>
<event>
 5    1  0.3862918E+001  0.9425994E+02  0.7546771E-02  0.1292852E+00
          3   -1    0    0  501    0  0.00000000000E+00  0.00000000000E+00  0.25872139372E+03  0.25872139372E+03  0.00000000000E+00 0. -1.
         -3   -1    0    0    0  501 -0.00000000000E+00 -0.00000000000E+00 -0.85854278415E+01  0.85854278415E+01  0.00000000000E+00 0.  1.
         23    2    1    2    0    0  0.00000000000E+00  0.00000000000E+00  0.25013596588E+03  0.26730682156E+03  0.94259935430E+02 0.  0.
          2    1    3    3  502    0  0.36538722808E+02  0.84534446980E+01  0.20601118737E+03  0.20939710674E+03  0.00000000000E+00 0. -1.
         -2    1    3    3    0  502 -0.36538722808E+02 -0.84534446980E+01  0.44124778512E+02  0.57909714819E+02  0.00000000000E+00 0.  1.
<mgrwt>
<rscale>  0 0.94259935E+02</rscale>
<asrwt>0</asrwt>
<pdfrwt beam="1">  1        3 0.39803285E-01 0.94259935E+02</pdfrwt>
<pdfrwt beam="2">  1       -3 0.13208353E-02 0.94259935E+02</pdfrwt>
<totfact> 0.23179377E+04</totfact>
</mgrwt>
</event>
<event>
 5    1  0.3862918E+001  0.8759077E+02  0.7546771E-02  0.1308793E+00
         -3   -1    0    0    0  501 -0.00000000000E+00  0.00000000000E+00  0.15335932701E+02  0.15335932701E+02  0.00000000000E+00 0.  1.
          3   -1    0    0  501    0  0.00000000000E+00 -0.00000000000E+00 -0.12506807984E+03  0.12506807984E+03  0.00000000000E+00 0. -1.
         23    2    1    2    0    0  0.00000000000E+00  0.00000000000E+00 -0.10973214714E+03  0.14040401254E+03  0.87590767902E+02 0.  0.
          2    1    3    3  502    0 -0.32828533849E+02 -0.37953194298E+01 -0.10093305984E+03  0.10620545962E+03  0.00000000000E+00 0. -1.
         -2    1    3    3    0  502  0.32828533849E+02  0.37953194298E+01 -0.87990872913E+01  0.34198552914E+02  0.00000000000E+00 0.  1.
<mgrwt>
<rscale>  0 0.87590768E+02</rscale>
<asrwt>0</asrwt>
<pdfrwt beam="2">  1        3 0.19241243E-01 0.87590768E+02</pdfrwt>
<pdfrwt beam="1">  1       -3 0.23593742E-02 0.87590768E+02</pdfrwt>
<totfact> 0.35555058E+04</totfact>
</mgrwt>
</event>
<event>
 5    1  0.3862918E+001  0.9066453E+02  0.7546771E-02  0.1301250E+00
         -2   -1    0    0    0  501 -0.00000000000E+00  0.00000000000E+00  0.18458481067E+02  0.18458481067E+02  0.00000000000E+00 0.  1.
          2   -1    0    0  501    0  0.00000000000E+00 -0.00000000000E+00 -0.11133170042E+03  0.11133170042E+03  0.00000000000E+00 0. -1.
         23    2    1    2    0    0  0.00000000000E+00  0.00000000000E+00 -0.92873219358E+02  0.12979018149E+03  0.90664526348E+02 0.  0.
          2    1    3    3  502    0  0.30034904344E+02  0.37104325284E+01 -0.94753074089E+02  0.99468627404E+02  0.00000000000E+00 0. -1.
         -2    1    3    3    0  502 -0.30034904344E+02 -0.37104325284E+01  0.18798547309E+01  0.30321554088E+02  0.00000000000E+00 0.  1.
<mgrwt>
<rscale>  0 0.90664526E+02</rscale>
<asrwt>0</asrwt>
<pdfrwt beam="2">  1        2 0.17127953E-01 0.90664526E+02</pdfrwt>
<pdfrwt beam="1">  1       -2 0.28397664E-02 0.90664526E+02</pdfrwt>
<totfact> 0.12878733E+05</totfact>
</mgrwt>
</event>
<event>
 5    1  0.3862918E+001  0.9173925E+02  0.7546771E-02  0.1298694E+00
          2   -1    0    0  501    0  0.00000000000E+00  0.00000000000E+00  0.45251221064E+03  0.45251221064E+03  0.00000000000E+00 0. -1.
         -2   -1    0    0    0  501 -0.00000000000E+00 -0.00000000000E+00 -0.46496476736E+01  0.46496476736E+01  0.00000000000E+00 0.  1.
         23    2    1    2    0    0  0.00000000000E+00  0.00000000000E+00  0.44786256296E+03  0.45716185831E+03  0.91739246727E+02 0.  0.
          2    1    3    3  502    0 -0.35888931020E+01  0.41382192363E+02  0.32090129165E+03  0.32357843714E+03  0.00000000000E+00 0. -1.
         -2    1    3    3    0  502  0.35888931020E+01 -0.41382192363E+02  0.12696127131E+03  0.13358342117E+03  0.00000000000E+00 0.  1.
<mgrwt>
<rscale>  0 0.91739247E+02</rscale>
<asrwt>0</asrwt>
<pdfrwt beam="1">  1        2 0.69617228E-01 0.91739247E+02</pdfrwt>
<pdfrwt beam="2">  1       -2 0.71533077E-03 0.91739247E+02</pdfrwt>
<totfact> 0.20506490E+05</totfact>
</mgrwt>
</event>
<event>
 5    1  0.3862918E+001  0.8588121E+02  0.7546771E-02  0.1313144E+00
         -1   -1    0    0    0  501 -0.00000000000E+00  0.00000000000E+00  0.14919600109E+02  0.14919600109E+02  0.00000000000E+00 0.  1.
          1   -1    0    0  501    0  0.00000000000E+00 -0.00000000000E+00 -0.12358879841E+03  0.12358879841E+03  0.00000000000E+00 0. -1.
         23    2    1    2    0    0  0.00000000000E+00  0.00000000000E+00 -0.10866919831E+03  0.13850839852E+03  0.85881207497E+02 0.  0.
          2    1    3    3  502    0 -0.32384456391E+02  0.10104228701E+02 -0.11876621041E+02  0.35943046348E+02  0.00000000000E+00 0.  1.
         -2    1    3    3    0  502  0.32384456391E+02 -0.10104228701E+02 -0.96792577264E+02  0.10256535218E+03  0.00000000000E+00 0. -1.
<mgrwt>
<rscale>  0 0.85881207E+02</rscale>
<asrwt>0</asrwt>
<pdfrwt beam="2">  1        1 0.19013662E-01 0.85881207E+02</pdfrwt>
<pdfrwt beam="1">  1       -1 0.22953231E-02 0.85881207E+02</pdfrwt>
<totfact> 0.12727008E+05</totfact>
</mgrwt>
</event>
<event>
 5    1  0.3862918E+001  0.9329812E+02  0.7546771E-02  0.1295056E+00
          3   -1    0    0  501    0  0.00000000000E+00  0.00000000000E+00  0.70954996937E+01  0.70954996937E+01  0.00000000000E+00 0. -1.
         -3   -1    0    0    0  501 -0.00000000000E+00 -0.00000000000E+00 -0.30669228521E+03  0.30669228521E+03  0.00000000000E+00 0.  1.
         23    2    1    2    0    0  0.00000000000E+00  0.00000000000E+00 -0.29959678552E+03  0.31378778490E+03  0.93298124649E+02 0.  0.
          2    1    3    3  502    0  0.25972830799E+02  0.17532599078E+02 -0.33575018978E+02  0.45926701052E+02  0.00000000000E+00 0. -1.
         -2    1    3    3    0  502 -0.25972830799E+02 -0.17532599078E+02 -0.26602176654E+03  0.26786108385E+03  0.00000000000E+00 0.  1.
<mgrwt>
<rscale>  0 0.93298125E+02</rscale>
<asrwt>0</asrwt>
<pdfrwt beam="1">  1        3 0.10916153E-02 0.93298125E+02</pdfrwt>
<pdfrwt beam="2">  1       -3 0.47183432E-01 0.93298125E+02</pdfrwt>
<totfact> 0.22089225E+04</totfact>
</mgrwt>
</event>
<event>
 5    1  0.3862918E+001  0.9185110E+02  0.7546771E-02  0.1298430E+00
          3   -1    0    0  501    0  0.00000000000E+00  0.00000000000E+00  0.30109704383E+01  0.30109704383E+01  0.00000000000E+00 0. -1.
         -3   -1    0    0    0  501 -0.00000000000E+00 -0.00000000000E+00 -0.70049047383E+03  0.70049047383E+03  0.00000000000E+00 0.  1.
         23    2    1    2    0    0  0.00000000000E+00  0.00000000000E+00 -0.69747950339E+03  0.70350144427E+03  0.91851099264E+02 0.  0.
          2    1    3    3  502    0 -0.15012408679E+02 -0.34025038422E+02 -0.55512231792E+03  0.55636666283E+03  0.00000000000E+00 0.  1.
         -2    1    3    3    0  502  0.15012408679E+02  0.34025038422E+02 -0.14235718548E+03  0.14713478144E+03  0.00000000000E+00 0. -1.
<mgrwt>
<rscale>  0 0.91851099E+02</rscale>
<asrwt>0</asrwt>
<pdfrwt beam="1">  1        3 0.46322640E-03 0.91851099E+02</pdfrwt>
<pdfrwt beam="2">  1       -3 0.10776772E+00 0.91851099E+02</pdfrwt>
<totfact> 0.13561530E+04</totfact>
</mgrwt>
</event>
<event>
 5    1  0.3862918E+001  0.8776670E+02  0.7546771E-02  0.1308352E+00
         -1   -1    0    0    0  501 -0.00000000000E+00  0.00000000000E+00  0.36045466545E+01  0.36045466545E+01  0.00000000000E+00 0.  1.
          1   -1    0    0  501    0  0.00000000000E+00 -0.00000000000E+00 -0.53425539400E+03  0.53425539400E+03  0.00000000000E+00 0. -1.
         23    2    1    2    0    0  0.00000000000E+00  0.00000000000E+00 -0.53065084735E+03  0.53785994065E+03  0.87766701957E+02 0.  0.
          2    1    3    3  502    0 -0.43318508081E+02 -0.26059913389E+01 -0.22539069952E+03  0.22953050291E+03  0.00000000000E+00 0.  1.
         -2    1    3    3    0  502  0.43318508081E+02  0.26059913389E+01 -0.30526014782E+03  0.30832943775E+03  0.00000000000E+00 0. -1.
<mgrwt>
<rscale>  0 0.87766702E+02</rscale>
<asrwt>0</asrwt>
<pdfrwt beam="2">  1        1 0.82193124E-01 0.87766702E+02</pdfrwt>
<pdfrwt beam="1">  1       -1 0.55454573E-03 0.87766702E+02</pdfrwt>
<totfact> 0.15514180E+05</totfact>
</mgrwt>
</event>
<event>
 5    1  0.3862918E+001  0.9199021E+02  0.7546771E-02  0.1298102E+00
         -2   -1    0    0    0  501 -0.00000000000E+00  0.00000000000E+00  0.18095776423E+01  0.18095776423E+01  0.00000000000E+00 0.  1.
          2   -1    0    0  501    0  0.00000000000E+00 -0.00000000000E+00 -0.11690848224E+04  0.11690848224E+04  0.00000000000E+00 0. -1.
         23    2    1    2    0    0  0.00000000000E+00  0.00000000000E+00 -0.11672752447E+04  0.11708944000E+04  0.91990211576E+02 0.  0.
          2    1    3    3  502    0  0.10505355635E+02 -0.41170763316E+02 -0.80780161835E+03  0.80891832027E+03  0.00000000000E+00 0. -1.
         -2    1    3    3    0  502 -0.10505355635E+02  0.41170763316E+02 -0.35947362636E+03  0.36197607973E+03  0.00000000000E+00 0.  1.
<mgrwt>
<rscale>  0 0.91990212E+02</rscale>
<asrwt>0</asrwt>
<pdfrwt beam="2">  1        2 0.17985901E+00 0.91990212E+02</pdfrwt>
<pdfrwt beam="1">  1       -2 0.27839685E-03 0.91990212E+02</pdfrwt>
<totfact> 0.24355355E+05</totfact>
</mgrwt>
</event>
<event>
 5    1  0.3862918E+001  0.9108151E+02  0.7546771E-02  0.1300254E+00
         -1   -1    0    0    0  501 -0.00000000000E+00  0.00000000000E+00  0.14610482129E+01  0.14610482129E+01  0.00000000000E+00 0.  1.
          1   -1    0    0  501    0  0.00000000000E+00 -0.00000000000E+00 -0.14195015717E+04  0.14195015717E+04  0.00000000000E+00 0. -1.
         23    2    1    2    0    0  0.00000000000E+00  0.00000000000E+00 -0.14180405235E+04  0.14209626199E+04  0.91081507114E+02 0.  0.
          2    1    3    3  502    0  0.36551503755E+02 -0.16652465717E+02 -0.10438582889E+04  0.10446307693E+04  0.00000000000E+00 0. -1.
         -2    1    3    3    0  502 -0.36551503755E+02  0.16652465717E+02 -0.37418223466E+03  0.37633185060E+03  0.00000000000E+00 0.  1.
<mgrwt>
<rscale>  0 0.91081507E+02</rscale>
<asrwt>0</asrwt>
<pdfrwt beam="2">  1        1 0.21838474E+00 0.91081507E+02</pdfrwt>
<pdfrwt beam="1">  1       -1 0.22477676E-03 0.91081507E+02</pdfrwt>
<totfact> 0.11561611E+05</totfact>
</mgrwt>
</event>
<event>
 5    1  0.3862918E+001  0.9170167E+02  0.7546771E-02  0.1298782E+00
         -1   -1    0    0    0  501 -0.00000000000E+00  0.00000000000E+00  0.10467255468E+01  0.10467255468E+01  0.00000000000E+00 0.  1.
          1   -1    0    0  501    0  0.00000000000E+00 -0.00000000000E+00 -0.20084527946E+04  0.20084527946E+04  0.00000000000E+00 0. -1.
         23    2    1    2    0    0  0.00000000000E+00  0.00000000000E+00 -0.20074060690E+04  0.20094995201E+04  0.91701665188E+02 0.  0.
          2    1    3    3  502    0  0.25777343596E+02  0.15098122440E+02 -0.17659237990E+04  0.17661764603E+04  0.00000000000E+00 0. -1.
         -2    1    3    3    0  502 -0.25777343596E+02 -0.15098122440E+02 -0.24148226997E+03  0.24332305985E+03  0.00000000000E+00 0.  1.
<mgrwt>
<rscale>  0 0.91701665E+02</rscale>
<asrwt>0</asrwt>
<pdfrwt beam="2">  1        1 0.30899139E+00 0.91701665E+02</pdfrwt>
<pdfrwt beam="1">  1       -1 0.16103540E-03 0.91701665E+02</pdfrwt>
<totfact> 0.78031954E+04</totfact>
</mgrwt>
</event>
<event>
 5    1  0.3862918E+001  0.9580037E+02  0.7546771E-02  0.1289384E+00
         -2   -1    0    0    0  501 -0.00000000000E+00  0.00000000000E+00  0.79800885154E+00  0.79800885154E+00  0.00000000000E+00 0.  1.
          2   -1    0    0  501    0  0.00000000000E+00 -0.00000000000E+00 -0.28751907423E+04  0.28751907423E+04  0.00000000000E+00 0. -1.
         23    2    1    2    0    0  0.00000000000E+00  0.00000000000E+00 -0.28743927335E+04  0.28759887512E+04  0.95800368730E+02 0.  0.
          2    1    3    3  502    0  0.27507327249E+02  0.36609914980E+02 -0.10153142014E+04  0.10163463320E+04  0.00000000000E+00 0. -1.
         -2    1    3    3    0  502 -0.27507327249E+02 -0.36609914980E+02 -0.18590785320E+04  0.18596424192E+04  0.00000000000E+00 0.  1.
<mgrwt>
<rscale>  0 0.95800369E+02</rscale>
<asrwt>0</asrwt>
<pdfrwt beam="2">  1        2 0.44233475E+00 0.95800369E+02</pdfrwt>
<pdfrwt beam="1">  1       -2 0.12277123E-03 0.95800369E+02</pdfrwt>
<totfact> 0.99022213E+04</totfact>
</mgrwt>
</event>
<event>
 5    1  0.3862918E+001  0.9063376E+02  0.7546771E-02  0.1301324E+00
         -1   -1    0    0    0  501 -0.00000000000E+00  0.00000000000E+00  0.41749278335E+03  0.41749278335E+03  0.00000000000E+00 0.  1.
          1   -1    0    0  501    0  0.00000000000E+00 -0.00000000000E+00 -0.49189349013E+01  0.49189349013E+01  0.00000000000E+00 0. -1.
         23    2    1    2    0    0  0.00000000000E+00  0.00000000000E+00  0.41257384845E+03  0.42241171825E+03  0.90633764637E+02 0.  0.
          2    1    3    3  502    0  0.32910085584E+02  0.25230205570E+02  0.12111273668E+03  0.12801535842E+03  0.00000000000E+00 0. -1.
         -2    1    3    3    0  502 -0.32910085584E+02 -0.25230205570E+02  0.29146111177E+03  0.29439635982E+03  0.00000000000E+00 0.  1.
<mgrwt>
<rscale>  0 0.90633765E+02</rscale>
<asrwt>0</asrwt>
<pdfrwt beam="2">  1        1 0.75675954E-03 0.90633765E+02</pdfrwt>
<pdfrwt beam="1">  1       -1 0.64229631E-01 0.90633765E+02</pdfrwt>
<totfact> 0.52950559E+04</totfact>
</mgrwt>
</event>
<event>
 5    1  0.3862918E+001  0.9041526E+02  0.7546771E-02  0.1301849E+00
         -1   -1    0    0    0  501 -0.00000000000E+00  0.00000000000E+00  0.65946246201E+01  0.65946246201E+01  0.00000000000E+00 0.  1.
          1   -1    0    0  501    0  0.00000000000E+00 -0.00000000000E+00 -0.30990843187E+03  0.30990843187E+03  0.00000000000E+00 0. -1.
         23    2    1    2    0    0  0.00000000000E+00  0.00000000000E+00 -0.30331380725E+03  0.31650305649E+03  0.90415259216E+02 0.  0.
          2    1    3    3  502    0 -0.26555495300E+02 -0.63558101982E+01 -0.27778063058E+03  0.27911945361E+03  0.00000000000E+00 0. -1.
         -2    1    3    3    0  502  0.26555495300E+02  0.63558101982E+01 -0.25533176665E+02  0.37383602882E+02  0.00000000000E+00 0.  1.
<mgrwt>
<rscale>  0 0.90415259E+02</rscale>
<asrwt>0</asrwt>
<pdfrwt beam="2">  1        1 0.47678222E-01 0.90415259E+02</pdfrwt>
<pdfrwt beam="1">  1       -1 0.10145576E-02 0.90415259E+02</pdfrwt>
<totfact> 0.13182398E+05</totfact>
</mgrwt>
</event>
<event>
 5    1  0.3862918E+001  0.9149580E+02  0.7546771E-02  0.1299269E+00
          4   -1    0    0  501    0  0.00000000000E+00  0.00000000000E+00  0.21111571782E+02  0.21111571782E+02  0.00000000000E+00 0. -1.
         -4   -1    0    0    0  501 -0.00000000000E+00 -0.00000000000E+00 -0.99133809677E+02  0.99133809677E+02  0.00000000000E+00 0.  1.
         23    2    1    2    0    0  0.00000000000E+00  0.00000000000E+00 -0.78022237894E+02  0.12024538146E+03  0.91495804036E+02 0.  0.
          2    1    3    3  502    0 -0.19356392047E+02  0.17018501379E+02  0.10661627976E+02  0.27892106650E+02  0.00000000000E+00 0. -1.
         -2    1    3    3    0  502  0.19356392047E+02 -0.17018501379E+02 -0.88683865871E+02  0.92353274809E+02  0.00000000000E+00 0.  1.
<mgrwt>
<rscale>  0 0.91495804E+02</rscale>
<asrwt>0</asrwt>
<pdfrwt beam="1">  1        4 0.32479340E-02 0.91495804E+02</pdfrwt>
<pdfrwt beam="2">  1       -4 0.15251356E-01 0.91495804E+02</pdfrwt>
<totfact> 0.25021090E+04</totfact>
</mgrwt>
</event>
<event>
 5    1  0.3862918E+001  0.9695012E+02  0.7546771E-02  0.1286843E+00
         -2   -1    0    0    0  501 -0.00000000000E+00  0.00000000000E+00  0.51429180677E+01  0.51429180677E+01  0.00000000000E+00 0.  1.
          2   -1    0    0  501    0  0.00000000000E+00 -0.00000000000E+00 -0.45690626074E+03  0.45690626074E+03  0.00000000000E+00 0. -1.
         23    2    1    2    0    0  0.00000000000E+00  0.00000000000E+00 -0.45176334267E+03  0.46204917881E+03  0.96950120446E+02 0.  0.
          2    1    3    3  502    0  0.68476510255E+01 -0.24767667090E+02 -0.42177490575E+03  0.42255697696E+03  0.00000000000E+00 0. -1.
         -2    1    3    3    0  502 -0.68476510255E+01  0.24767667090E+02 -0.29988436920E+02  0.39492201845E+02  0.00000000000E+00 0.  1.
<mgrwt>
<rscale>  0 0.96950120E+02</rscale>
<asrwt>0</asrwt>
<pdfrwt beam="2">  1        2 0.70293253E-01 0.96950120E+02</pdfrwt>
<pdfrwt beam="1">  1       -2 0.79121836E-03 0.96950120E+02</pdfrwt>
<totfact> 0.17762275E+05</totfact>
</mgrwt>
</event>
<event>
 5    1  0.3862918E+001  0.9175573E+02  0.7546771E-02  0.1298655E+00
          1   -1    0    0  501    0  0.00000000000E+00  0.00000000000E+00  0.42241837851E+02  0.42241837851E+02  0.00000000000E+00 0. -1.
         -1   -1    0    0    0  501 -0.00000000000E+00 -0.00000000000E+00 -0.49826872494E+02  0.49826872494E+02  0.00000000000E+00 0.  1.
         23    2    1    2    0    0  0.00000000000E+00  0.00000000000E+00 -0.75850346425E+01  0.92068710345E+02  0.91755733739E+02 0.  0.
          2    1    3    3  502    0 -0.29568221517E+01  0.41784456015E+02  0.14982133463E+02  0.44487614960E+02  0.00000000000E+00 0. -1.
         -2    1    3    3    0  502  0.29568221517E+01 -0.41784456015E+02 -0.22567168106E+02  0.47581095385E+02  0.00000000000E+00 0.  1.
<mgrwt>
<rscale>  0 0.91755734E+02</rscale>
<asrwt>0</asrwt>
<pdfrwt beam="1">  1        1 0.64987443E-02 0.91755734E+02</pdfrwt>
<pdfrwt beam="2">  1       -1 0.76656726E-02 0.91755734E+02</pdfrwt>
<totfact> 0.89797990E+04</totfact>
</mgrwt>
</event>
<event>
 5    1  0.3862918E+001  0.9326636E+02  0.7546771E-02  0.1295129E+00
         -1   -1    0    0    0  501 -0.00000000000E+00  0.00000000000E+00  0.13861843654E+02  0.13861843654E+02  0.00000000000E+00 0.  1.
          1   -1    0    0  501    0  0.00000000000E+00 -0.00000000000E+00 -0.15688053863E+03  0.15688053863E+03  0.00000000000E+00 0. -1.
         23    2    1    2    0    0  0.00000000000E+00  0.00000000000E+00 -0.14301869498E+03  0.17074238228E+03  0.93266360469E+02 0.  0.
          2    1    3    3  502    0 -0.27133252442E+02 -0.10575163759E+02 -0.13818807285E+03  0.14122319553E+03  0.00000000000E+00 0. -1.
         -2    1    3    3    0  502  0.27133252442E+02  0.10575163759E+02 -0.48306221245E+01  0.29519186756E+02  0.00000000000E+00 0.  1.
<mgrwt>
<rscale>  0 0.93266360E+02</rscale>
<asrwt>0</asrwt>
<pdfrwt beam="2">  1        1 0.24135467E-01 0.93266360E+02</pdfrwt>
<pdfrwt beam="1">  1       -1 0.21325914E-02 0.93266360E+02</pdfrwt>
<totfact> 0.10635365E+05</totfact>
</mgrwt>
</event>
<event>
 5    1  0.3862918E+001  0.8817410E+02  0.7546771E-02  0.1307335E+00
         -2   -1    0    0    0  501 -0.00000000000E+00  0.00000000000E+00  0.23519826235E+02  0.23519826235E+02  0.00000000000E+00 0. -1.
          2   -1    0    0  501    0  0.00000000000E+00 -0.00000000000E+00 -0.82639555191E+02  0.82639555191E+02  0.00000000000E+00 0.  1.
         23    2    1    2    0    0  0.00000000000E+00  0.00000000000E+00 -0.59119728956E+02  0.10615938143E+03  0.88174100012E+02 0.  0.
          2    1    3    3  502    0 -0.40169282846E+02  0.76888139013E+01 -0.49379014684E+02  0.64116895080E+02  0.00000000000E+00 0.  1.
         -2    1    3    3    0  502  0.40169282846E+02 -0.76888139013E+01 -0.97407142719E+01  0.42042486346E+02  0.00000000000E+00 0. -1.
<mgrwt>
<rscale>  0 0.88174100E+02</rscale>
<asrwt>0</asrwt>
<pdfrwt beam="2">  1        2 0.12713778E-01 0.88174100E+02</pdfrwt>
<pdfrwt beam="1">  1       -2 0.36184348E-02 0.88174100E+02</pdfrwt>
<totfact> 0.12718162E+05</totfact>
</mgrwt>
</event>
<event>
 5    1  0.3862918E+001  0.9100521E+02  0.7546771E-02  0.1300436E+00
          1   -1    0    0  501    0  0.00000000000E+00  0.00000000000E+00  0.17563663850E+02  0.17563663850E+02  0.00000000000E+00 0. -1.
         -1   -1    0    0    0  501 -0.00000000000E+00 -0.00000000000E+00 -0.11788467936E+03  0.11788467936E+03  0.00000000000E+00 0.  1.
         23    2    1    2    0    0  0.00000000000E+00  0.00000000000E+00 -0.10032101551E+03  0.13544834321E+03  0.91005206034E+02 0.  0.
          2    1    3    3  502    0 -0.87021066878E+01  0.19606269613E+02  0.95661473844E+01  0.23487095280E+02  0.00000000000E+00 0. -1.
         -2    1    3    3    0  502  0.87021066878E+01 -0.19606269613E+02 -0.10988716289E+03  0.11196124793E+03  0.00000000000E+00 0.  1.
<mgrwt>
<rscale>  0 0.91005206E+02</rscale>
<asrwt>0</asrwt>
<pdfrwt beam="1">  1        1 0.27021021E-02 0.91005206E+02</pdfrwt>
<pdfrwt beam="2">  1       -1 0.18136105E-01 0.91005206E+02</pdfrwt>
<totfact> 0.79200390E+04</totfact>
</mgrwt>
</event>
<event>
 5    1  0.3862918E+001  0.9585172E+02  0.7546771E-02  0.1289269E+00
          2   -1    0    0  501    0  0.00000000000E+00  0.00000000000E+00  0.41299870989E+03  0.41299870989E+03  0.00000000000E+00 0. -1.
         -2   -1    0    0    0  501 -0.00000000000E+00 -0.00000000000E+00 -0.55614897451E+01  0.55614897451E+01  0.00000000000E+00 0.  1.
         23    2    1    2    0    0  0.00000000000E+00  0.00000000000E+00  0.40743722015E+03  0.41856019964E+03  0.95851720690E+02 0.  0.
          2    1    3    3  502    0  0.47337475485E+02  0.30904102025E+01  0.23349613189E+03  0.23826630234E+03  0.00000000000E+00 0. -1.
         -2    1    3    3    0  502 -0.47337475485E+02 -0.30904102025E+01  0.17394108826E+03  0.18029389730E+03  0.00000000000E+00 0.  1.
<mgrwt>
<rscale>  0 0.95851721E+02</rscale>
<asrwt>0</asrwt>
<pdfrwt beam="1">  1        2 0.63538239E-01 0.95851721E+02</pdfrwt>
<pdfrwt beam="2">  1       -2 0.85561413E-03 0.95851721E+02</pdfrwt>
<totfact> 0.17674805E+05</totfact>
</mgrwt>
</event>
<event>
 5    1  0.3862918E+001  0.9180238E+02  0.7546771E-02  0.1298545E+00
          1   -1    0    0  501    0  0.00000000000E+00  0.00000000000E+00  0.59086431132E+01  0.59086431132E+01  0.00000000000E+00 0. -1.
         -1   -1    0    0    0  501 -0.00000000000E+00 -0.00000000000E+00 -0.35658258625E+03  0.35658258625E+03  0.00000000000E+00 0.  1.
         23    2    1    2    0    0  0.00000000000E+00  0.00000000000E+00 -0.35067394313E+03  0.36249122936E+03  0.91802379980E+02 0.  0.
          2    1    3    3  502    0  0.30717727758E+01 -0.28665675858E+02 -0.34301460789E+02  0.44807889625E+02  0.00000000000E+00 0. -1.
         -2    1    3    3    0  502 -0.30717727758E+01  0.28665675858E+02 -0.31637248234E+03  0.31768333974E+03  0.00000000000E+00 0.  1.
<mgrwt>
<rscale>  0 0.91802380E+02</rscale>
<asrwt>0</asrwt>
<pdfrwt beam="1">  1        1 0.90902229E-03 0.91802380E+02</pdfrwt>
<pdfrwt beam="2">  1       -1 0.54858843E-01 0.91802380E+02</pdfrwt>
<totfact> 0.55311222E+04</totfact>
</mgrwt>
</event>
<event>
 5    1  0.3862918E+001  0.9146873E+02  0.7546771E-02  0.1299333E+00
          1   -1    0    0  501    0  0.00000000000E+00  0.00000000000E+00  0.14185722149E+02  0.14185722149E+02  0.00000000000E+00 0. -1.
         -1   -1    0    0    0  501 -0.00000000000E+00 -0.00000000000E+00 -0.14744628605E+03  0.14744628605E+03  0.00000000000E+00 0.  1.
         23    2    1    2    0    0  0.00000000000E+00  0.00000000000E+00 -0.13326056390E+03  0.16163200820E+03  0.91468727896E+02 0.  0.
          2    1    3    3  502    0  0.19296806921E+02 -0.31059277613E+02 -0.18089221122E+02  0.40795409104E+02  0.00000000000E+00 0. -1.
         -2    1    3    3    0  502 -0.19296806921E+02  0.31059277613E+02 -0.11517134278E+03  0.12083659909E+03  0.00000000000E+00 0.  1.
<mgrwt>
<rscale>  0 0.91468728E+02</rscale>
<asrwt>0</asrwt>
<pdfrwt beam="1">  1        1 0.21824186E-02 0.91468728E+02</pdfrwt>
<pdfrwt beam="2">  1       -1 0.22684046E-01 0.91468728E+02</pdfrwt>
<totfact> 0.74467331E+04</totfact>
</mgrwt>
</event>
<event>
 5    1  0.3862918E+001  0.7631912E+02  0.7546771E-02  0.1339834E+00
          2   -1    0    0  501    0  0.00000000000E+00  0.00000000000E+00  0.70944853722E+03  0.70944853722E+03  0.00000000000E+00 0. -1.
         -2   -1    0    0    0  501 -0.00000000000E+00 -0.00000000000E+00 -0.20525126791E+01  0.20525126791E+01  0.00000000000E+00 0.  1.
         23    2    1    2    0    0  0.00000000000E+00  0.00000000000E+00  0.70739602454E+03  0.71150104990E+03  0.76319122579E+02 0.  0.
          2    1    3    3  502    0  0.20107029879E+02  0.23964143064E+02  0.55743267769E+03  0.55830973748E+03  0.00000000000E+00 0. -1.
         -2    1    3    3    0  502 -0.20107029879E+02 -0.23964143064E+02  0.14996334685E+03  0.15319131242E+03  0.00000000000E+00 0.  1.
<mgrwt>
<rscale>  0 0.76319123E+02</rscale>
<asrwt>0</asrwt>
<pdfrwt beam="1">  1        2 0.10914573E+00 0.76319123E+02</pdfrwt>
<pdfrwt beam="2">  1       -2 0.31577175E-03 0.76319123E+02</pdfrwt>
<totfact> 0.37865218E+05</totfact>
</mgrwt>
</event>
<event>
 5    1  0.3862918E+001  0.9680021E+02  0.7546771E-02  0.1287172E+00
          2   -1    0    0  501    0  0.00000000000E+00  0.00000000000E+00  0.37152310031E+03  0.37152310031E+03  0.00000000000E+00 0. -1.
         -2   -1    0    0    0  501 -0.00000000000E+00 -0.00000000000E+00 -0.63053154904E+01  0.63053154904E+01  0.00000000000E+00 0.  1.
         23    2    1    2    0    0  0.00000000000E+00  0.00000000000E+00  0.36521778482E+03  0.37782841580E+03  0.96800214038E+02 0.  0.
          2    1    3    3  502    0  0.30630811162E+02  0.12649681054E+02  0.32029257696E+03  0.32200247806E+03  0.00000000000E+00 0. -1.
         -2    1    3    3    0  502 -0.30630811162E+02 -0.12649681054E+02  0.44925207868E+02  0.55825937745E+02  0.00000000000E+00 0.  1.
<mgrwt>
<rscale>  0 0.96800214E+02</rscale>
<asrwt>0</asrwt>
<pdfrwt beam="1">  1        2 0.57157383E-01 0.96800214E+02</pdfrwt>
<pdfrwt beam="2">  1       -2 0.97004883E-03 0.96800214E+02</pdfrwt>
<totfact> 0.16569141E+05</totfact>
</mgrwt>
</event>
<event>
 5    1  0.3862918E+001  0.9337086E+02  0.7546771E-02  0.1294888E+00
          1   -1    0    0  501    0  0.00000000000E+00  0.00000000000E+00  0.28347903834E+03  0.28347903834E+03  0.00000000000E+00 0. -1.
         -1   -1    0    0    0  501 -0.00000000000E+00 -0.00000000000E+00 -0.76885025511E+01  0.76885025511E+01  0.00000000000E+00 0.  1.
         23    2    1    2    0    0  0.00000000000E+00  0.00000000000E+00  0.27579053579E+03  0.29116754089E+03  0.93370858611E+02 0.  0.
          2    1    3    3  502    0  0.70919916149E+01  0.40493590216E+02  0.20688888160E+03  0.21093372543E+03  0.00000000000E+00 0. -1.
         -2    1    3    3    0  502 -0.70919916149E+01 -0.40493590216E+02  0.68901654192E+02  0.80233815465E+02  0.00000000000E+00 0.  1.
<mgrwt>
<rscale>  0 0.93370859E+02</rscale>
<asrwt>0</asrwt>
<pdfrwt beam="1">  1        1 0.43612152E-01 0.93370859E+02</pdfrwt>
<pdfrwt beam="2">  1       -1 0.11828468E-02 0.93370859E+02</pdfrwt>
<totfact> 0.11893519E+05</totfact>
</mgrwt>
</event>
<event>
 5    1  0.3862918E+001  0.9214658E+02  0.7546771E-02  0.1297735E+00
          1   -1    0    0  501    0  0.00000000000E+00  0.00000000000E+00  0.26363805207E+03  0.26363805207E+03  0.00000000000E+00 0. -1.
         -1   -1    0    0    0  501 -0.00000000000E+00 -0.00000000000E+00 -0.80517517027E+01  0.80517517027E+01  0.00000000000E+00 0.  1.
         23    2    1    2    0    0  0.00000000000E+00  0.00000000000E+00  0.25558630037E+03  0.27168980377E+03  0.92146581807E+02 0.  0.
          2    1    3    3  502    0 -0.27978366559E+02 -0.28384479258E+02  0.19594517492E+03  0.19995744355E+03  0.00000000000E+00 0. -1.
         -2    1    3    3    0  502  0.27978366559E+02  0.28384479258E+02  0.59641125451E+02  0.71732360223E+02  0.00000000000E+00 0.  1.
<mgrwt>
<rscale>  0 0.92146582E+02</rscale>
<asrwt>0</asrwt>
<pdfrwt beam="1">  1        1 0.40559694E-01 0.92146582E+02</pdfrwt>
<pdfrwt beam="2">  1       -1 0.12387312E-02 0.92146582E+02</pdfrwt>
<totfact> 0.12147527E+05</totfact>
</mgrwt>
</event>
<event>
 5    1  0.3862918E+001  0.9011758E+02  0.7546771E-02  0.1302567E+00
         -1   -1    0    0    0  501 -0.00000000000E+00  0.00000000000E+00  0.11347830164E+02  0.11347830164E+02  0.00000000000E+00 0.  1.
          1   -1    0    0  501    0  0.00000000000E+00 -0.00000000000E+00 -0.17891478018E+03  0.17891478018E+03  0.00000000000E+00 0. -1.
         23    2    1    2    0    0  0.00000000000E+00  0.00000000000E+00 -0.16756695002E+03  0.19026261035E+03  0.90117579625E+02 0.  0.
          2    1    3    3  502    0  0.88210329765E+01 -0.37577314463E+02 -0.13286447438E+03  0.13835762985E+03  0.00000000000E+00 0. -1.
         -2    1    3    3    0  502 -0.88210329765E+01  0.37577314463E+02 -0.34702475637E+02  0.51904980497E+02  0.00000000000E+00 0.  1.
<mgrwt>
<rscale>  0 0.90117580E+02</rscale>
<asrwt>0</asrwt>
<pdfrwt beam="2">  1        1 0.27525353E-01 0.90117580E+02</pdfrwt>
<pdfrwt beam="1">  1       -1 0.17458199E-02 0.90117580E+02</pdfrwt>
<totfact> 0.11958472E+05</totfact>
</mgrwt>
</event>
<event>
 5    1  0.3862918E+001  0.9010063E+02  0.7546771E-02  0.1302608E+00
         -2   -1    0    0    0  501 -0.00000000000E+00  0.00000000000E+00  0.11565810141E+01  0.11565810141E+01  0.00000000000E+00 0. -1.
          2   -1    0    0  501    0  0.00000000000E+00 -0.00000000000E+00 -0.17547677373E+04  0.17547677373E+04  0.00000000000E+00 0.  1.
         23    2    1    2    0    0  0.00000000000E+00  0.00000000000E+00 -0.17536111562E+04  0.17559243183E+04  0.90100633718E+02 0.  0.
          2    1    3    3  502    0 -0.16528091046E+02  0.23270736627E+02 -0.19754720596E+03  0.19959860611E+03  0.00000000000E+00 0. -1.
         -2    1    3    3    0  502  0.16528091046E+02 -0.23270736627E+02 -0.15560639503E+04  0.15563257122E+04  0.00000000000E+00 0.  1.
<mgrwt>
<rscale>  0 0.90100634E+02</rscale>
<asrwt>0</asrwt>
<pdfrwt beam="2">  1        2 0.26996349E+00 0.90100634E+02</pdfrwt>
<pdfrwt beam="1">  1       -2 0.17793605E-03 0.90100634E+02</pdfrwt>
<totfact> 0.22494628E+05</totfact>
</mgrwt>
</event>
<event>
 5    1  0.3862918E+001  0.8397834E+02  0.7546771E-02  0.1318126E+00
          2   -1    0    0  501    0  0.00000000000E+00  0.00000000000E+00  0.27208426527E+03  0.27208426527E+03  0.00000000000E+00 0.  1.
         -2   -1    0    0    0  501 -0.00000000000E+00 -0.00000000000E+00 -0.64799427585E+01  0.64799427585E+01  0.00000000000E+00 0. -1.
         23    2    1    2    0    0  0.00000000000E+00  0.00000000000E+00  0.26560432251E+03  0.27856420803E+03  0.83978341599E+02 0.  0.
          2    1    3    3  502    0  0.10346216140E+02  0.39929545377E+02  0.10675130263E+03  0.11444323219E+03  0.00000000000E+00 0. -1.
         -2    1    3    3    0  502 -0.10346216140E+02 -0.39929545377E+02  0.15885301989E+03  0.16412097584E+03  0.00000000000E+00 0.  1.
<mgrwt>
<rscale>  0 0.83978342E+02</rscale>
<asrwt>0</asrwt>
<pdfrwt beam="1">  1        2 0.41859109E-01 0.83978342E+02</pdfrwt>
<pdfrwt beam="2">  1       -2 0.99691448E-03 0.83978342E+02</pdfrwt>
<totfact> 0.21558995E+05</totfact>
</mgrwt>
</event>
<event>
 5    1  0.3862918E+001  0.9134310E+02  0.7546771E-02  0.1299631E+00
         -1   -1    0    0    0  501 -0.00000000000E+00  0.00000000000E+00  0.17119884719E+01  0.17119884719E+01  0.00000000000E+00 0.  1.
          1   -1    0    0  501    0  0.00000000000E+00 -0.00000000000E+00 -0.12184022243E+04  0.12184022243E+04  0.00000000000E+00 0. -1.
         23    2    1    2    0    0  0.00000000000E+00  0.00000000000E+00 -0.12166902358E+04  0.12201142127E+04  0.91343101811E+02 0.  0.
          2    1    3    3  502    0 -0.21560282680E+02  0.30711261881E+02 -0.95611802759E+03  0.95685406937E+03  0.00000000000E+00 0. -1.
         -2    1    3    3    0  502  0.21560282680E+02 -0.30711261881E+02 -0.26057220821E+03  0.26326014337E+03  0.00000000000E+00 0.  1.
<mgrwt>
<rscale>  0 0.91343102E+02</rscale>
<asrwt>0</asrwt>
<pdfrwt beam="2">  1        1 0.18744600E+00 0.91343102E+02</pdfrwt>
<pdfrwt beam="1">  1       -1 0.26338354E-03 0.91343102E+02</pdfrwt>
<totfact> 0.12576744E+05</totfact>
</mgrwt>
</event>
<event>
 5    1  0.3862918E+001  0.9716938E+02  0.7546771E-02  0.1286364E+00
         -2   -1    0    0    0  501 -0.00000000000E+00  0.00000000000E+00  0.51193763219E+01  0.51193763219E+01  0.00000000000E+00 0.  1.
          2   -1    0    0  501    0  0.00000000000E+00 -0.00000000000E+00 -0.46108589931E+03  0.46108589931E+03  0.00000000000E+00 0. -1.
         23    2    1    2    0    0  0.00000000000E+00  0.00000000000E+00 -0.45596652299E+03  0.46620527563E+03  0.97169382736E+02 0.  0.
          2    1    3    3  502    0 -0.30901823372E+02 -0.13497821551E+02 -0.39579586957E+03  0.39722976253E+03  0.00000000000E+00 0. -1.
         -2    1    3    3    0  502  0.30901823372E+02  0.13497821551E+02 -0.60170653417E+02  0.68975513097E+02  0.00000000000E+00 0.  1.
<mgrwt>
<rscale>  0 0.97169383E+02</rscale>
<asrwt>0</asrwt>
<pdfrwt beam="2">  1        2 0.70936296E-01 0.97169383E+02</pdfrwt>
<pdfrwt beam="1">  1       -2 0.78759631E-03 0.97169383E+02</pdfrwt>
<totfact> 0.17710644E+05</totfact>
</mgrwt>
</event>
<event>
 5    1  0.3862918E+001  0.9138811E+02  0.7546771E-02  0.1299525E+00
         -1   -1    0    0    0  501 -0.00000000000E+00  0.00000000000E+00  0.44866382409E+01  0.44866382409E+01  0.00000000000E+00 0.  1.
          1   -1    0    0  501    0  0.00000000000E+00 -0.00000000000E+00 -0.46536998252E+03  0.46536998252E+03  0.00000000000E+00 0. -1.
         23    2    1    2    0    0  0.00000000000E+00  0.00000000000E+00 -0.46088334428E+03  0.46985662077E+03  0.91388112132E+02 0.  0.
          2    1    3    3  502    0  0.32777001091E+02 -0.30103594739E+02 -0.28372049490E+03  0.28718961932E+03  0.00000000000E+00 0. -1.
         -2    1    3    3    0  502 -0.32777001091E+02  0.30103594739E+02 -0.17716284938E+03  0.18266700145E+03  0.00000000000E+00 0.  1.
<mgrwt>
<rscale>  0 0.91388112E+02</rscale>
<asrwt>0</asrwt>
<pdfrwt beam="2">  1        1 0.71595405E-01 0.91388112E+02</pdfrwt>
<pdfrwt beam="1">  1       -1 0.69025181E-03 0.91388112E+02</pdfrwt>
<totfact> 0.13715634E+05</totfact>
</mgrwt>
</event>
<event>
 5    1  0.3862918E+001  0.9523275E+02  0.7546771E-02  0.1290653E+00
         -2   -1    0    0    0  501 -0.00000000000E+00  0.00000000000E+00  0.40797419909E+01  0.40797419909E+01  0.00000000000E+00 0.  1.
          2   -1    0    0  501    0  0.00000000000E+00 -0.00000000000E+00 -0.55575067566E+03  0.55575067566E+03  0.00000000000E+00 0. -1.
         23    2    1    2    0    0  0.00000000000E+00  0.00000000000E+00 -0.55167093367E+03  0.55983041765E+03  0.95232754197E+02 0.  0.
          2    1    3    3  502    0 -0.20516519377E+02  0.42891833849E+02 -0.26063923029E+03  0.26494045622E+03  0.00000000000E+00 0. -1.
         -2    1    3    3    0  502  0.20516519377E+02 -0.42891833849E+02 -0.29103170338E+03  0.29488996143E+03  0.00000000000E+00 0.  1.
<mgrwt>
<rscale>  0 0.95232754E+02</rscale>
<asrwt>0</asrwt>
<pdfrwt beam="2">  1        2 0.85500106E-01 0.95232754E+02</pdfrwt>
<pdfrwt beam="1">  1       -2 0.62765260E-03 0.95232754E+02</pdfrwt>
<totfact> 0.19851105E+05</totfact>
</mgrwt>
</event>
<event>
 5    1  0.3862918E+001  0.9369636E+02  0.7546771E-02  0.1294139E+00
         -2   -1    0    0    0  501 -0.00000000000E+00  0.00000000000E+00  0.15878046703E+02  0.15878046703E+02  0.00000000000E+00 0.  1.
          2   -1    0    0  501    0  0.00000000000E+00 -0.00000000000E+00 -0.13822556281E+03  0.13822556281E+03  0.00000000000E+00 0. -1.
         23    2    1    2    0    0  0.00000000000E+00  0.00000000000E+00 -0.12234751611E+03  0.15410360951E+03  0.93696359412E+02 0.  0.
          2    1    3    3  502    0  0.18800700139E+02 -0.35848455409E+02 -0.22385937163E+02  0.46256980701E+02  0.00000000000E+00 0. -1.
         -2    1    3    3    0  502 -0.18800700139E+02  0.35848455409E+02 -0.99961578944E+02  0.10784662881E+03  0.00000000000E+00 0.  1.
<mgrwt>
<rscale>  0 0.93696359E+02</rscale>
<asrwt>0</asrwt>
<pdfrwt beam="2">  1        2 0.21265471E-01 0.93696359E+02</pdfrwt>
<pdfrwt beam="1">  1       -2 0.24427765E-02 0.93696359E+02</pdfrwt>
<totfact> 0.12626490E+05</totfact>
</mgrwt>
</event>
<event>
 5    1  0.3862918E+001  0.8956009E+02  0.7546771E-02  0.1303921E+00
          1   -1    0    0  501    0  0.00000000000E+00  0.00000000000E+00  0.55623662760E+03  0.55623662760E+03  0.00000000000E+00 0. -1.
         -1   -1    0    0    0  501 -0.00000000000E+00 -0.00000000000E+00 -0.36050345285E+01  0.36050345285E+01  0.00000000000E+00 0.  1.
         23    2    1    2    0    0  0.00000000000E+00  0.00000000000E+00  0.55263159308E+03  0.55984166213E+03  0.89560085944E+02 0.  0.
          2    1    3    3  502    0  0.18448867894E+02  0.30951198588E+02  0.11011455697E+03  0.11586005816E+03  0.00000000000E+00 0.  1.
         -2    1    3    3    0  502 -0.18448867894E+02 -0.30951198588E+02  0.44251703611E+03  0.44398160397E+03  0.00000000000E+00 0. -1.
<mgrwt>
<rscale>  0 0.89560086E+02</rscale>
<asrwt>0</asrwt>
<pdfrwt beam="1">  1        1 0.85574798E-01 0.89560086E+02</pdfrwt>
<pdfrwt beam="2">  1       -1 0.55462114E-03 0.89560086E+02</pdfrwt>
<totfact> 0.14762391E+05</totfact>
</mgrwt>
</event>
<event>
 5    1  0.3862918E+001  0.8994834E+02  0.7546771E-02  0.1302977E+00
          1   -1    0    0  501    0  0.00000000000E+00  0.00000000000E+00  0.58629861052E+02  0.58629861052E+02  0.00000000000E+00 0. -1.
         -1   -1    0    0    0  501 -0.00000000000E+00 -0.00000000000E+00 -0.34499077500E+02  0.34499077500E+02  0.00000000000E+00 0.  1.
         23    2    1    2    0    0  0.00000000000E+00  0.00000000000E+00  0.24130783552E+02  0.93128938553E+02  0.89948343404E+02 0.  0.
          2    1    3    3  502    0  0.44723838266E+02 -0.45231611149E+01  0.13527936459E+02  0.46943431495E+02  0.00000000000E+00 0. -1.
         -2    1    3    3    0  502 -0.44723838266E+02  0.45231611149E+01  0.10602847093E+02  0.46185507058E+02  0.00000000000E+00 0.  1.
<mgrwt>
<rscale>  0 0.89948343E+02</rscale>
<asrwt>0</asrwt>
<pdfrwt beam="1">  1        1 0.90199786E-02 0.89948343E+02</pdfrwt>
<pdfrwt beam="2">  1       -1 0.53075504E-02 0.89948343E+02</pdfrwt>
<totfact> 0.99714378E+04</totfact>
</mgrwt>
</event>
<event>
 5    1  0.3862918E+001  0.9220388E+02  0.7546771E-02  0.1297601E+00
          3   -1    0    0  501    0  0.00000000000E+00  0.00000000000E+00  0.31116904291E+02  0.31116904291E+02  0.00000000000E+00 0. -1.
         -3   -1    0    0    0  501 -0.00000000000E+00 -0.00000000000E+00 -0.68303350292E+02  0.68303350292E+02  0.00000000000E+00 0.  1.
         23    2    1    2    0    0  0.00000000000E+00  0.00000000000E+00 -0.37186446001E+02  0.99420254584E+02  0.92203878743E+02 0.  0.
          2    1    3    3  502    0  0.13801820453E+02 -0.21507301298E+02  0.22780912526E+02  0.34234839454E+02  0.00000000000E+00 0. -1.
         -2    1    3    3    0  502 -0.13801820453E+02  0.21507301298E+02 -0.59967358527E+02  0.65185415130E+02  0.00000000000E+00 0.  1.
<mgrwt>
<rscale>  0 0.92203879E+02</rscale>
<asrwt>0</asrwt>
<pdfrwt beam="1">  1        3 0.47872161E-02 0.92203879E+02</pdfrwt>
<pdfrwt beam="2">  1       -3 0.10508208E-01 0.92203879E+02</pdfrwt>
<totfact> 0.33670372E+04</totfact>
</mgrwt>
</event>
<event>
 5    1  0.3862918E+001  0.9371396E+02  0.7546771E-02  0.1294099E+00
         -3   -1    0    0    0  501 -0.00000000000E+00  0.00000000000E+00  0.34039701529E+02  0.34039701529E+02  0.00000000000E+00 0.  1.
          3   -1    0    0  501    0  0.00000000000E+00 -0.00000000000E+00 -0.64500460985E+02  0.64500460985E+02  0.00000000000E+00 0. -1.
         23    2    1    2    0    0  0.00000000000E+00  0.00000000000E+00 -0.30460759455E+02  0.98540162514E+02  0.93713957134E+02 0.  0.
          2    1    3    3  502    0 -0.18438954822E+02  0.37499456861E+02  0.70597224892E+01  0.42379759336E+02  0.00000000000E+00 0.  1.
         -2    1    3    3    0  502  0.18438954822E+02 -0.37499456861E+02 -0.37520481945E+02  0.56160403178E+02  0.00000000000E+00 0. -1.
<mgrwt>
<rscale>  0 0.93713957E+02</rscale>
<asrwt>0</asrwt>
<pdfrwt beam="2">  1        3 0.99231477E-02 0.93713957E+02</pdfrwt>
<pdfrwt beam="1">  1       -3 0.52368772E-02 0.93713957E+02</pdfrwt>
<totfact> 0.32268250E+04</totfact>
</mgrwt>
</event>
<event>
 5    1  0.3862918E+001  0.9197543E+02  0.7546771E-02  0.1298137E+00
          3   -1    0    0  501    0  0.00000000000E+00  0.00000000000E+00  0.43476985506E+03  0.43476985506E+03  0.00000000000E+00 0. -1.
         -3   -1    0    0    0  501 -0.00000000000E+00 -0.00000000000E+00 -0.48643431481E+01  0.48643431481E+01  0.00000000000E+00 0.  1.
         23    2    1    2    0    0  0.00000000000E+00  0.00000000000E+00  0.42990551191E+03  0.43963419820E+03  0.91975426402E+02 0.  0.
          2    1    3    3  502    0 -0.45001548397E+01  0.34229843892E+02  0.36016575290E+03  0.36181667066E+03  0.00000000000E+00 0. -1.
         -2    1    3    3    0  502  0.45001548397E+01 -0.34229843892E+02  0.69739759013E+02  0.77817527547E+02  0.00000000000E+00 0.  1.
<mgrwt>
<rscale>  0 0.91975426E+02</rscale>
<asrwt>0</asrwt>
<pdfrwt beam="1">  1        3 0.66887640E-01 0.91975426E+02</pdfrwt>
<pdfrwt beam="2">  1       -3 0.74836083E-03 0.91975426E+02</pdfrwt>
<totfact> 0.19022123E+04</totfact>
</mgrwt>
</event>
<event>
 5    1  0.3862918E+001  0.9080879E+02  0.7546771E-02  0.1300905E+00
         -4   -1    0    0    0  501 -0.00000000000E+00  0.00000000000E+00  0.44252234789E+03  0.44252234789E+03  0.00000000000E+00 0.  1.
          4   -1    0    0  501    0  0.00000000000E+00 -0.00000000000E+00 -0.46586549177E+01  0.46586549177E+01  0.00000000000E+00 0. -1.
         23    2    1    2    0    0  0.00000000000E+00  0.00000000000E+00  0.43786369297E+03  0.44718100281E+03  0.90808786187E+02 0.  0.
          2    1    3    3  502    0  0.33122117985E+02 -0.29575135076E+02  0.17226773539E+03  0.17789866771E+03  0.00000000000E+00 0. -1.
         -2    1    3    3    0  502 -0.33122117985E+02  0.29575135076E+02  0.26559595758E+03  0.26928233510E+03  0.00000000000E+00 0.  1.
<mgrwt>
<rscale>  0 0.90808786E+02</rscale>
<asrwt>0</asrwt>
<pdfrwt beam="2">  1        4 0.71671649E-03 0.90808786E+02</pdfrwt>
<pdfrwt beam="1">  1       -4 0.68080328E-01 0.90808786E+02</pdfrwt>
<totfact> 0.14259407E+04</totfact>
</mgrwt>
</event>
<event>
 5    1  0.3862918E+001  0.9071168E+02  0.7546771E-02  0.1301137E+00
          3   -1    0    0  501    0  0.00000000000E+00  0.00000000000E+00  0.38611067854E+02  0.38611067854E+02  0.00000000000E+00 0. -1.
         -3   -1    0    0    0  501 -0.00000000000E+00 -0.00000000000E+00 -0.53278823014E+02  0.53278823014E+02  0.00000000000E+00 0.  1.
         23    2    1    2    0    0  0.00000000000E+00  0.00000000000E+00 -0.14667755161E+02  0.91889890868E+02  0.90711680628E+02 0.  0.
          2    1    3    3  502    0  0.22552565424E+02 -0.19250703506E+02  0.27433099325E+02  0.40395330562E+02  0.00000000000E+00 0. -1.
         -2    1    3    3    0  502 -0.22552565424E+02  0.19250703506E+02 -0.42100854486E+02  0.51494560306E+02  0.00000000000E+00 0.  1.
<mgrwt>
<rscale>  0 0.90711681E+02</rscale>
<asrwt>0</asrwt>
<pdfrwt beam="1">  1        3 0.59401643E-02 0.90711681E+02</pdfrwt>
<pdfrwt beam="2">  1       -3 0.81967419E-02 0.90711681E+02</pdfrwt>
<totfact> 0.35779224E+04</totfact>
</mgrwt>
</event>
<event>
 5    1  0.3862918E+001  0.9054203E+02  0.7546771E-02  0.1301544E+00
         -3   -1    0    0    0  501 -0.00000000000E+00  0.00000000000E+00  0.26122244613E+01  0.26122244613E+01  0.00000000000E+00 0.  1.
          3   -1    0    0  501    0  0.00000000000E+00 -0.00000000000E+00 -0.78456681842E+03  0.78456681842E+03  0.00000000000E+00 0. -1.
         23    2    1    2    0    0  0.00000000000E+00  0.00000000000E+00 -0.78195459395E+03  0.78717904288E+03  0.90542026365E+02 0.  0.
          2    1    3    3  502    0 -0.23049463973E+02 -0.38264239540E+02 -0.45488602268E+03  0.45707408967E+03  0.00000000000E+00 0. -1.
         -2    1    3    3    0  502  0.23049463973E+02  0.38264239540E+02 -0.32706857127E+03  0.33010495320E+03  0.00000000000E+00 0.  1.
<mgrwt>
<rscale>  0 0.90542026E+02</rscale>
<asrwt>0</asrwt>
<pdfrwt beam="2">  1        3 0.12070269E+00 0.90542026E+02</pdfrwt>
<pdfrwt beam="1">  1       -3 0.40188035E-03 0.90542026E+02</pdfrwt>
<totfact> 0.12826977E+04</totfact>
</mgrwt>
</event>
<event>
 5    1  0.3862918E+001  0.9240084E+02  0.7546771E-02  0.1297140E+00
          1   -1    0    0  501    0  0.00000000000E+00  0.00000000000E+00  0.32321297657E+04  0.32321297657E+04  0.00000000000E+00 0. -1.
         -1   -1    0    0    0  501 -0.00000000000E+00 -0.00000000000E+00 -0.66039386962E+00  0.66039386962E+00  0.00000000000E+00 0.  1.
         23    2    1    2    0    0  0.00000000000E+00  0.00000000000E+00  0.32314693719E+04  0.32327901596E+04  0.92400837293E+02 0.  0.
          2    1    3    3  502    0  0.35020792241E+02 -0.84784583851E+01  0.26274090127E+04  0.26276560772E+04  0.00000000000E+00 0. -1.
         -2    1    3    3    0  502 -0.35020792241E+02  0.84784583851E+01  0.60406035916E+03  0.60513408237E+03  0.00000000000E+00 0.  1.
<mgrwt>
<rscale>  0 0.92400837E+02</rscale>
<asrwt>0</asrwt>
<pdfrwt beam="1">  1        1 0.49723807E+00 0.92400837E+02</pdfrwt>
<pdfrwt beam="2">  1       -1 0.10160164E-03 0.92400837E+02</pdfrwt>
<totfact> 0.23241767E+04</totfact>
</mgrwt>
</event>
<event>
 5    1  0.3862918E+001  0.8838950E+02  0.7546771E-02  0.1306799E+00
         -3   -1    0    0    0  501 -0.00000000000E+00  0.00000000000E+00  0.12961785278E+03  0.12961785278E+03  0.00000000000E+00 0.  1.
          3   -1    0    0  501    0  0.00000000000E+00 -0.00000000000E+00 -0.15068724900E+02  0.15068724900E+02  0.00000000000E+00 0. -1.
         23    2    1    2    0    0  0.00000000000E+00  0.00000000000E+00  0.11454912788E+03  0.14468657768E+03  0.88389496338E+02 0.  0.
          2    1    3    3  502    0  0.40480012337E+02 -0.38303140400E+01  0.28928268346E+02  0.49901376875E+02  0.00000000000E+00 0. -1.
         -2    1    3    3    0  502 -0.40480012337E+02  0.38303140400E+01  0.85620859535E+02  0.94785200807E+02  0.00000000000E+00 0.  1.
<mgrwt>
<rscale>  0 0.88389496E+02</rscale>
<asrwt>0</asrwt>
<pdfrwt beam="2">  1        3 0.23182655E-02 0.88389496E+02</pdfrwt>
<pdfrwt beam="1">  1       -3 0.19941207E-01 0.88389496E+02</pdfrwt>
<totfact> 0.34403392E+04</totfact>
</mgrwt>
</event>
<event>
 5    1  0.3862918E+001  0.9068157E+02  0.7546771E-02  0.1301210E+00
         -1   -1    0    0    0  501 -0.00000000000E+00  0.00000000000E+00  0.14398265146E+02  0.14398265146E+02  0.00000000000E+00 0.  1.
          1   -1    0    0  501    0  0.00000000000E+00 -0.00000000000E+00 -0.14278017712E+03  0.14278017712E+03  0.00000000000E+00 0. -1.
         23    2    1    2    0    0  0.00000000000E+00  0.00000000000E+00 -0.12838191197E+03  0.15717844226E+03  0.90681571398E+02 0.  0.
          2    1    3    3  502    0  0.18781211458E+01 -0.34673413074E+02 -0.13656573203E+02  0.37313200143E+02  0.00000000000E+00 0.  1.
         -2    1    3    3    0  502 -0.18781211458E+01  0.34673413074E+02 -0.11472533877E+03  0.11986524212E+03  0.00000000000E+00 0. -1.
<mgrwt>
<rscale>  0 0.90681571E+02</rscale>
<asrwt>0</asrwt>
<pdfrwt beam="2">  1        1 0.21966181E-01 0.90681571E+02</pdfrwt>
<pdfrwt beam="1">  1       -1 0.22151177E-02 0.90681571E+02</pdfrwt>
<totfact> 0.11277145E+05</totfact>
</mgrwt>
</event>
<event>
 5    1  0.3862918E+001  0.9777279E+02  0.7546771E-02  0.1285050E+00
         -3   -1    0    0    0  501 -0.00000000000E+00  0.00000000000E+00  0.20276773786E+03  0.20276773786E+03  0.00000000000E+00 0.  1.
          3   -1    0    0  501    0  0.00000000000E+00 -0.00000000000E+00 -0.11786292251E+02  0.11786292251E+02  0.00000000000E+00 0. -1.
         23    2    1    2    0    0  0.00000000000E+00  0.00000000000E+00  0.19098144561E+03  0.21455403011E+03  0.97772794121E+02 0.  0.
          2    1    3    3  502    0 -0.25948242131E+02 -0.40941457178E+02  0.10943270515E+03  0.11968722213E+03  0.00000000000E+00 0.  1.
         -2    1    3    3    0  502  0.25948242131E+02  0.40941457178E+02  0.81548740456E+02  0.94866807976E+02  0.00000000000E+00 0. -1.
<mgrwt>
<rscale>  0 0.97772794E+02</rscale>
<asrwt>0</asrwt>
<pdfrwt beam="2">  1        3 0.18132759E-02 0.97772794E+02</pdfrwt>
<pdfrwt beam="1">  1       -3 0.31195034E-01 0.97772794E+02</pdfrwt>
<totfact> 0.22974364E+04</totfact>
</mgrwt>
</event>
<event>
 5    1  0.3862918E+001  0.9198198E+02  0.7546771E-02  0.1298122E+00
         -2   -1    0    0    0  501 -0.00000000000E+00  0.00000000000E+00  0.63600837055E+00  0.63600837055E+00  0.00000000000E+00 0.  1.
          2   -1    0    0  501    0  0.00000000000E+00 -0.00000000000E+00 -0.33256969420E+04  0.33256969420E+04  0.00000000000E+00 0. -1.
         23    2    1    2    0    0  0.00000000000E+00  0.00000000000E+00 -0.33250609336E+04  0.33263329504E+04  0.91981978518E+02 0.  0.
          2    1    3    3  502    0 -0.93285020277E+01 -0.44449570835E+02 -0.14007906809E+04  0.14015267807E+04  0.00000000000E+00 0. -1.
         -2    1    3    3    0  502  0.93285020277E+01  0.44449570835E+02 -0.19242702527E+04  0.19248061696E+04  0.00000000000E+00 0.  1.
<mgrwt>
<rscale>  0 0.91981979E+02</rscale>
<asrwt>0</asrwt>
<pdfrwt beam="2">  1        2 0.51165033E+00 0.91981979E+02</pdfrwt>
<pdfrwt beam="1">  1       -2 0.97846553E-04 0.91981979E+02</pdfrwt>
<totfact> 0.73729842E+04</totfact>
</mgrwt>
</event>
<event>
 5    1  0.3862918E+001  0.8941633E+02  0.7546771E-02  0.1304271E+00
          2   -1    0    0  501    0  0.00000000000E+00  0.00000000000E+00  0.87281767890E+03  0.87281767890E+03  0.00000000000E+00 0.  1.
         -2   -1    0    0    0  501 -0.00000000000E+00 -0.00000000000E+00 -0.22900774919E+01  0.22900774919E+01  0.00000000000E+00 0. -1.
         23    2    1    2    0    0  0.00000000000E+00  0.00000000000E+00  0.87052760141E+03  0.87510775640E+03  0.89416332311E+02 0.  0.
          2    1    3    3  502    0 -0.28746728274E+02 -0.32778529089E+02  0.33837173439E+03  0.34116892735E+03  0.00000000000E+00 0. -1.
         -2    1    3    3    0  502  0.28746728274E+02  0.32778529089E+02  0.53215586702E+03  0.53393882905E+03  0.00000000000E+00 0.  1.
<mgrwt>
<rscale>  0 0.89416332E+02</rscale>
<asrwt>0</asrwt>
<pdfrwt beam="1">  1        2 0.13427938E+00 0.89416332E+02</pdfrwt>
<pdfrwt beam="2">  1       -2 0.35232031E-03 0.89416332E+02</pdfrwt>
<totfact> 0.26002462E+05</totfact>
</mgrwt>
</event>
<event>
 5    1  0.3862918E+001  0.9168066E+02  0.7546771E-02  0.1298832E+00
          1   -1    0    0  501    0  0.00000000000E+00  0.00000000000E+00  0.10513592972E+04  0.10513592972E+04  0.00000000000E+00 0. -1.
         -1   -1    0    0    0  501 -0.00000000000E+00 -0.00000000000E+00 -0.19986850084E+01  0.19986850084E+01  0.00000000000E+00 0.  1.
         23    2    1    2    0    0  0.00000000000E+00  0.00000000000E+00  0.10493606122E+04  0.10533579822E+04  0.91680664608E+02 0.  0.
          2    1    3    3  502    0  0.44310499008E+02 -0.84935537059E+01  0.43149882274E+03  0.43385112055E+03  0.00000000000E+00 0.  1.
         -2    1    3    3    0  502 -0.44310499008E+02  0.84935537059E+01  0.61786178946E+03  0.61950686166E+03  0.00000000000E+00 0. -1.
<mgrwt>
<rscale>  0 0.91680665E+02</rscale>
<asrwt>0</asrwt>
<pdfrwt beam="1">  1        1 0.16174714E+00 0.91680665E+02</pdfrwt>
<pdfrwt beam="2">  1       -1 0.30749084E-03 0.91680665E+02</pdfrwt>
<totfact> 0.13211022E+05</totfact>
</mgrwt>
</event>
<event>
 5    1  0.3862918E+001  0.1060667E+03  0.7546771E-02  0.1268032E+00
          1   -1    0    0  501    0  0.00000000000E+00  0.00000000000E+00  0.25714819217E+03  0.25714819217E+03  0.00000000000E+00 0. -1.
         -1   -1    0    0    0  501 -0.00000000000E+00 -0.00000000000E+00 -0.10937418274E+02  0.10937418274E+02  0.00000000000E+00 0.  1.
         23    2    1    2    0    0  0.00000000000E+00  0.00000000000E+00  0.24621077389E+03  0.26808561044E+03  0.10606672119E+03 0.  0.
          2    1    3    3  502    0 -0.36380831270E+02 -0.13925192069E+02  0.21406310424E+03  0.21757869485E+03  0.00000000000E+00 0. -1.
         -2    1    3    3    0  502  0.36380831270E+02  0.13925192069E+02  0.32147669658E+02  0.50506915591E+02  0.00000000000E+00 0.  1.
<mgrwt>
<rscale>  0 0.10606672E+03</rscale>
<asrwt>0</asrwt>
<pdfrwt beam="1">  1        1 0.39561256E-01 0.10606672E+03</pdfrwt>
<pdfrwt beam="2">  1       -1 0.16826799E-02 0.10606672E+03</pdfrwt>
<totfact> 0.82743947E+04</totfact>
</mgrwt>
</event>
<event>
 5    1  0.3862918E+001  0.9244235E+02  0.7546771E-02  0.1297043E+00
         -3   -1    0    0    0  501 -0.00000000000E+00  0.00000000000E+00  0.47652656391E+03  0.47652656391E+03  0.00000000000E+00 0.  1.
          3   -1    0    0  501    0  0.00000000000E+00 -0.00000000000E+00 -0.44832694403E+01  0.44832694403E+01  0.00000000000E+00 0. -1.
         23    2    1    2    0    0  0.00000000000E+00  0.00000000000E+00  0.47204329447E+03  0.48100983335E+03  0.92442349201E+02 0.  0.
          2    1    3    3  502    0 -0.36394868501E+02 -0.18159510001E+02  0.35026363410E+03  0.35261731045E+03  0.00000000000E+00 0. -1.
         -2    1    3    3    0  502  0.36394868501E+02  0.18159510001E+02  0.12177966037E+03  0.12839252290E+03  0.00000000000E+00 0.  1.
<mgrwt>
<rscale>  0 0.92442349E+02</rscale>
<asrwt>0</asrwt>
<pdfrwt beam="2">  1        3 0.68973414E-03 0.92442349E+02</pdfrwt>
<pdfrwt beam="1">  1       -3 0.73311739E-01 0.92442349E+02</pdfrwt>
<totfact> 0.17696550E+04</totfact>
</mgrwt>
</event>
<event>
 5    1  0.3862918E+001  0.9279583E+02  0.7546771E-02  0.1296219E+00
          2   -1    0    0  501    0  0.00000000000E+00  0.00000000000E+00  0.98712953465E+03  0.98712953465E+03  0.00000000000E+00 0. -1.
         -2   -1    0    0    0  501 -0.00000000000E+00 -0.00000000000E+00 -0.21808351100E+01  0.21808351100E+01  0.00000000000E+00 0.  1.
         23    2    1    2    0    0  0.00000000000E+00  0.00000000000E+00  0.98494869954E+03  0.98931036976E+03  0.92795834977E+02 0.  0.
          2    1    3    3  502    0  0.13665644207E+02 -0.37715505441E+02  0.24391686264E+03  0.24719353767E+03  0.00000000000E+00 0.  1.
         -2    1    3    3    0  502 -0.13665644207E+02  0.37715505441E+02  0.74103183689E+03  0.74211683209E+03  0.00000000000E+00 0. -1.
<mgrwt>
<rscale>  0 0.92795835E+02</rscale>
<asrwt>0</asrwt>
<pdfrwt beam="1">  1        2 0.15186573E+00 0.92795835E+02</pdfrwt>
<pdfrwt beam="2">  1       -2 0.33551388E-03 0.92795835E+02</pdfrwt>
<totfact> 0.23853281E+05</totfact>
</mgrwt>
</event>
<event>
 5    1  0.3862918E+001  0.9064727E+02  0.7546771E-02  0.1301292E+00
         -2   -1    0    0    0  501 -0.00000000000E+00  0.00000000000E+00  0.14164259361E+01  0.14164259361E+01  0.00000000000E+00 0.  1.
          2   -1    0    0  501    0  0.00000000000E+00 -0.00000000000E+00 -0.14502925024E+04  0.14502925024E+04  0.00000000000E+00 0. -1.
         23    2    1    2    0    0  0.00000000000E+00  0.00000000000E+00 -0.14488760765E+04  0.14517089284E+04  0.90647270570E+02 0.  0.
          2    1    3    3  502    0  0.30580481832E+02  0.14034403584E+02 -0.12107491523E+04  0.12112165951E+04  0.00000000000E+00 0. -1.
         -2    1    3    3    0  502 -0.30580481832E+02 -0.14034403584E+02 -0.23812692418E+03  0.24049233329E+03  0.00000000000E+00 0.  1.
<mgrwt>
<rscale>  0 0.90647271E+02</rscale>
<asrwt>0</asrwt>
<pdfrwt beam="2">  1        2 0.22312194E+00 0.90647271E+02</pdfrwt>
<pdfrwt beam="1">  1       -2 0.21791166E-03 0.90647271E+02</pdfrwt>
<totfact> 0.24249128E+05</totfact>
</mgrwt>
</event>
<event>
 5    1  0.3862918E+001  0.9138375E+02  0.7546771E-02  0.1299535E+00
         -1   -1    0    0    0  501 -0.00000000000E+00  0.00000000000E+00  0.80133386055E+01  0.80133386055E+01  0.00000000000E+00 0.  1.
          1   -1    0    0  501    0  0.00000000000E+00 -0.00000000000E+00 -0.26053401001E+03  0.26053401001E+03  0.00000000000E+00 0. -1.
         23    2    1    2    0    0  0.00000000000E+00  0.00000000000E+00 -0.25252067140E+03  0.26854734861E+03  0.91383745610E+02 0.  0.
          2    1    3    3  502    0 -0.43263878613E+02  0.22339974016E+01 -0.83574258061E+02  0.94135065450E+02  0.00000000000E+00 0. -1.
         -2    1    3    3    0  502  0.43263878613E+02 -0.22339974016E+01 -0.16894641334E+03  0.17441228316E+03  0.00000000000E+00 0.  1.
<mgrwt>
<rscale>  0 0.91383746E+02</rscale>
<asrwt>0</asrwt>
<pdfrwt beam="2">  1        1 0.40082146E-01 0.91383746E+02</pdfrwt>
<pdfrwt beam="1">  1       -1 0.12328216E-02 0.91383746E+02</pdfrwt>
<totfact> 0.12391701E+05</totfact>
</mgrwt>
</event>
<event>
 5    1  0.3862918E+001  0.9152557E+02  0.7546771E-02  0.1299199E+00
          1   -1    0    0  501    0  0.00000000000E+00  0.00000000000E+00  0.39275214355E+03  0.39275214355E+03  0.00000000000E+00 0. -1.
         -1   -1    0    0    0  501 -0.00000000000E+00 -0.00000000000E+00 -0.53321986404E+01  0.53321986404E+01  0.00000000000E+00 0.  1.
         23    2    1    2    0    0  0.00000000000E+00  0.00000000000E+00  0.38741994491E+03  0.39808434219E+03  0.91525569014E+02 0.  0.
          2    1    3    3  502    0 -0.67683630783E+01 -0.31791202885E+02  0.33382256611E+03  0.33540124771E+03  0.00000000000E+00 0. -1.
         -2    1    3    3    0  502  0.67683630783E+01  0.31791202885E+02  0.53597378795E+02  0.62683094478E+02  0.00000000000E+00 0.  1.
<mgrwt>
<rscale>  0 0.91525569E+02</rscale>
<asrwt>0</asrwt>
<pdfrwt beam="1">  1        1 0.60423384E-01 0.91525569E+02</pdfrwt>
<pdfrwt beam="2">  1       -1 0.82033856E-03 0.91525569E+02</pdfrwt>
<totfact> 0.13312738E+05</totfact>
</mgrwt>
</event>
<event>
 5    1  0.3862918E+001  0.9107804E+02  0.7546771E-02  0.1300262E+00
         -1   -1    0    0    0  501 -0.00000000000E+00  0.00000000000E+00  0.13181583878E+04  0.13181583878E+04  0.00000000000E+00 0.  1.
          1   -1    0    0  501    0  0.00000000000E+00 -0.00000000000E+00 -0.15732573721E+01  0.15732573721E+01  0.00000000000E+00 0. -1.
         23    2    1    2    0    0  0.00000000000E+00  0.00000000000E+00  0.13165851305E+04  0.13197316452E+04  0.91078041288E+02 0.  0.
          2    1    3    3  502    0  0.44428169680E+02  0.67865161630E+01  0.76465767589E+03  0.76597733672E+03  0.00000000000E+00 0. -1.
         -2    1    3    3    0  502 -0.44428169680E+02 -0.67865161630E+01  0.55192745458E+03  0.55375430850E+03  0.00000000000E+00 0.  1.
<mgrwt>
<rscale>  0 0.91078041E+02</rscale>
<asrwt>0</asrwt>
<pdfrwt beam="2">  1        1 0.24204065E-03 0.91078041E+02</pdfrwt>
<pdfrwt beam="1">  1       -1 0.20279272E+00 0.91078041E+02</pdfrwt>
<totfact> 0.17410793E+04</totfact>
</mgrwt>
</event>
<event>
 5    1  0.3862918E+001  0.8734218E+02  0.7546771E-02  0.1309419E+00
          1   -1    0    0  501    0  0.00000000000E+00  0.00000000000E+00  0.18304019369E+03  0.18304019369E+03  0.00000000000E+00 0. -1.
         -1   -1    0    0    0  501 -0.00000000000E+00 -0.00000000000E+00 -0.10419374103E+02  0.10419374103E+02  0.00000000000E+00 0.  1.
         23    2    1    2    0    0  0.00000000000E+00  0.00000000000E+00  0.17262081958E+03  0.19345956779E+03  0.87342183485E+02 0.  0.
          2    1    3    3  502    0  0.21615625138E+02 -0.15592028436E+02  0.16293711667E+03  0.16510254568E+03  0.00000000000E+00 0. -1.
         -2    1    3    3    0  502 -0.21615625138E+02  0.15592028436E+02  0.96837029126E+01  0.28357022111E+02  0.00000000000E+00 0.  1.
<mgrwt>
<rscale>  0 0.87342183E+02</rscale>
<asrwt>0</asrwt>
<pdfrwt beam="1">  1        1 0.28160027E-01 0.87342183E+02</pdfrwt>
<pdfrwt beam="2">  1       -1 0.16029808E-02 0.87342183E+02</pdfrwt>
<totfact> 0.13059391E+05</totfact>
</mgrwt>
</event>
<event>
 5    1  0.3862918E+001  0.9147497E+02  0.7546771E-02  0.1299319E+00
         -2   -1    0    0    0  501 -0.00000000000E+00  0.00000000000E+00  0.11693148587E+01  0.11693148587E+01  0.00000000000E+00 0.  1.
          2   -1    0    0  501    0  0.00000000000E+00 -0.00000000000E+00 -0.17890113544E+04  0.17890113544E+04  0.00000000000E+00 0. -1.
         23    2    1    2    0    0  0.00000000000E+00  0.00000000000E+00 -0.17878420396E+04  0.17901806693E+04  0.91474970546E+02 0.  0.
          2    1    3    3  502    0 -0.39229476388E+02  0.18522494365E+02 -0.11774406662E+04  0.11782396008E+04  0.00000000000E+00 0. -1.
         -2    1    3    3    0  502  0.39229476388E+02 -0.18522494365E+02 -0.61040137341E+03  0.61194106847E+03  0.00000000000E+00 0.  1.
<mgrwt>
<rscale>  0 0.91474971E+02</rscale>
<asrwt>0</asrwt>
<pdfrwt beam="2">  1        2 0.27523171E+00 0.91474971E+02</pdfrwt>
<pdfrwt beam="1">  1       -2 0.17989512E-03 0.91474971E+02</pdfrwt>
<totfact> 0.21338953E+05</totfact>
</mgrwt>
</event>
<event>
 5    1  0.3862918E+001  0.9183323E+02  0.7546771E-02  0.1298472E+00
         -2   -1    0    0    0  501 -0.00000000000E+00  0.00000000000E+00  0.40029505677E+01  0.40029505677E+01  0.00000000000E+00 0.  1.
          2   -1    0    0  501    0  0.00000000000E+00 -0.00000000000E+00 -0.52669536918E+03  0.52669536918E+03  0.00000000000E+00 0. -1.
         23    2    1    2    0    0  0.00000000000E+00  0.00000000000E+00 -0.52269241862E+03  0.53069831975E+03  0.91833229869E+02 0.  0.
          2    1    3    3  502    0  0.35556424493E+02 -0.17743778763E+02 -0.39429118691E+03  0.39628858308E+03  0.00000000000E+00 0. -1.
         -2    1    3    3    0  502 -0.35556424493E+02  0.17743778763E+02 -0.12840123171E+03  0.13440973667E+03  0.00000000000E+00 0.  1.
<mgrwt>
<rscale>  0 0.91833230E+02</rscale>
<asrwt>0</asrwt>
<pdfrwt beam="2">  1        2 0.81030010E-01 0.91833230E+02</pdfrwt>
<pdfrwt beam="1">  1       -2 0.61583891E-03 0.91833230E+02</pdfrwt>
<totfact> 0.21499071E+05</totfact>
</mgrwt>
</event>
<event>
 5    1  0.3862918E+001  0.1043370E+03  0.7546771E-02  0.1271431E+00
          2   -1    0    0  501    0  0.00000000000E+00  0.00000000000E+00  0.82195757191E+03  0.82195757191E+03  0.00000000000E+00 0. -1.
         -2   -1    0    0    0  501 -0.00000000000E+00 -0.00000000000E+00 -0.33110603290E+01  0.33110603290E+01  0.00000000000E+00 0.  1.
         23    2    1    2    0    0  0.00000000000E+00  0.00000000000E+00  0.81864651158E+03  0.82526863224E+03  0.10433697539E+03 0.  0.
          2    1    3    3  502    0  0.26817409523E+02 -0.41758464831E+02  0.53652067503E+03  0.53881107781E+03  0.00000000000E+00 0. -1.
         -2    1    3    3    0  502 -0.26817409523E+02  0.41758464831E+02  0.28212583655E+03  0.28645755443E+03  0.00000000000E+00 0.  1.
<mgrwt>
<rscale>  0 0.10433698E+03</rscale>
<asrwt>0</asrwt>
<pdfrwt beam="1">  1        2 0.12645485E+00 0.10433698E+03</pdfrwt>
<pdfrwt beam="2">  1       -2 0.50939455E-03 0.10433698E+03</pdfrwt>
<totfact> 0.17122985E+05</totfact>
</mgrwt>
</event>
<event>
 5    1  0.3862918E+001  0.9098775E+02  0.7546771E-02  0.1300477E+00
          2   -1    0    0  501    0  0.00000000000E+00  0.00000000000E+00  0.27452448624E+03  0.27452448624E+03  0.00000000000E+00 0. -1.
         -2   -1    0    0    0  501 -0.00000000000E+00 -0.00000000000E+00 -0.75391909345E+01  0.75391909345E+01  0.00000000000E+00 0.  1.
         23    2    1    2    0    0  0.00000000000E+00  0.00000000000E+00  0.26698529531E+03  0.28206367717E+03  0.90987746823E+02 0.  0.
          2    1    3    3  502    0  0.37938829507E+02 -0.11106159620E+02  0.20329408365E+03  0.20710187352E+03  0.00000000000E+00 0. -1.
         -2    1    3    3    0  502 -0.37938829507E+02  0.11106159620E+02  0.63691211654E+02  0.74961803659E+02  0.00000000000E+00 0.  1.
<mgrwt>
<rscale>  0 0.90987747E+02</rscale>
<asrwt>0</asrwt>
<pdfrwt beam="1">  1        2 0.42234529E-01 0.90987747E+02</pdfrwt>
<pdfrwt beam="2">  1       -2 0.11598757E-02 0.90987747E+02</pdfrwt>
<totfact> 0.17477858E+05</totfact>
</mgrwt>
</event>
<event>
 5    1  0.3862918E+001  0.9208108E+02  0.7546771E-02  0.1297889E+00
         -2   -1    0    0    0  501 -0.00000000000E+00  0.00000000000E+00  0.37427526401E+03  0.37427526401E+03  0.00000000000E+00 0.  1.
          2   -1    0    0  501    0  0.00000000000E+00 -0.00000000000E+00 -0.56635624405E+01  0.56635624405E+01  0.00000000000E+00 0. -1.
         23    2    1    2    0    0  0.00000000000E+00  0.00000000000E+00  0.36861170157E+03  0.37993882645E+03  0.92081080091E+02 0.  0.
          2    1    3    3  502    0  0.29604743794E+02 -0.76643472020E+01  0.42295614286E+02  0.52192931140E+02  0.00000000000E+00 0. -1.
         -2    1    3    3    0  502 -0.29604743794E+02  0.76643472020E+01  0.32631608729E+03  0.32774589531E+03  0.00000000000E+00 0.  1.
<mgrwt>
<rscale>  0 0.92081080E+02</rscale>
<asrwt>0</asrwt>
<pdfrwt beam="2">  1        2 0.87131759E-03 0.92081080E+02</pdfrwt>
<pdfrwt beam="1">  1       -2 0.57580791E-01 0.92081080E+02</pdfrwt>
<totfact> 0.43490013E+04</totfact>
</mgrwt>
</event>
<event>
 5    1  0.3862918E+001  0.1088276E+03  0.7546771E-02  0.1262757E+00
          2   -1    0    0  501    0  0.00000000000E+00  0.00000000000E+00  0.29033845788E+03  0.29033845788E+03  0.00000000000E+00 0.  1.
         -2   -1    0    0    0  501 -0.00000000000E+00 -0.00000000000E+00 -0.10197965643E+02  0.10197965643E+02  0.00000000000E+00 0. -1.
         23    2    1    2    0    0  0.00000000000E+00  0.00000000000E+00  0.28014049223E+03  0.30053642352E+03  0.10882759978E+03 0.  0.
          2    1    3    3  502    0 -0.72192439534E+01 -0.29444309346E+02  0.15285300649E+02  0.33951807788E+02  0.00000000000E+00 0. -1.
         -2    1    3    3    0  502  0.72192439534E+01  0.29444309346E+02  0.26485519158E+03  0.26658461573E+03  0.00000000000E+00 0.  1.
<mgrwt>
<rscale>  0 0.10882760E+03</rscale>
<asrwt>0</asrwt>
<pdfrwt beam="1">  1        2 0.44667449E-01 0.10882760E+03</pdfrwt>
<pdfrwt beam="2">  1       -2 0.15689180E-02 0.10882760E+03</pdfrwt>
<totfact> 0.11011746E+05</totfact>
</mgrwt>
</event>
<event>
 5    1  0.3862918E+001  0.1001075E+03  0.7546771E-02  0.1280070E+00
         -3   -1    0    0    0  501 -0.00000000000E+00  0.00000000000E+00  0.38364857553E+02  0.38364857553E+02  0.00000000000E+00 0.  1.
          3   -1    0    0  501    0  0.00000000000E+00 -0.00000000000E+00 -0.65303956855E+02  0.65303956855E+02  0.00000000000E+00 0. -1.
         23    2    1    2    0    0  0.00000000000E+00  0.00000000000E+00 -0.26939099302E+02  0.10366881441E+03  0.10010748229E+03 0.  0.
          2    1    3    3  502    0 -0.19790125319E+02  0.45045393038E+02 -0.22996869032E+02  0.54310150795E+02  0.00000000000E+00 0. -1.
         -2    1    3    3    0  502  0.19790125319E+02 -0.45045393038E+02 -0.39422302700E+01  0.49358663613E+02  0.00000000000E+00 0.  1.
<mgrwt>
<rscale>  0 0.10010748E+03</rscale>
<asrwt>0</asrwt>
<pdfrwt beam="2">  1        3 0.10046763E-01 0.10010748E+03</pdfrwt>
<pdfrwt beam="1">  1       -3 0.59022858E-02 0.10010748E+03</pdfrwt>
<totfact> 0.26633383E+04</totfact>
</mgrwt>
</event>
<event>
 5    1  0.3862918E+001  0.9695816E+02  0.7546771E-02  0.1286826E+00
          1   -1    0    0  501    0  0.00000000000E+00  0.00000000000E+00  0.25779342526E+03  0.25779342526E+03  0.00000000000E+00 0. -1.
         -1   -1    0    0    0  501 -0.00000000000E+00 -0.00000000000E+00 -0.91166837248E+01  0.91166837248E+01  0.00000000000E+00 0.  1.
         23    2    1    2    0    0  0.00000000000E+00  0.00000000000E+00  0.24867674154E+03  0.26691010899E+03  0.96958158490E+02 0.  0.
          2    1    3    3  502    0 -0.44174594151E+02 -0.19891206620E+02  0.11943997773E+03  0.12889128423E+03  0.00000000000E+00 0. -1.
         -2    1    3    3    0  502  0.44174594151E+02  0.19891206620E+02  0.12923676381E+03  0.13801882476E+03  0.00000000000E+00 0.  1.
<mgrwt>
<rscale>  0 0.96958158E+02</rscale>
<asrwt>0</asrwt>
<pdfrwt beam="1">  1        1 0.39660521E-01 0.96958158E+02</pdfrwt>
<pdfrwt beam="2">  1       -1 0.14025669E-02 0.96958158E+02</pdfrwt>
<totfact> 0.10551009E+05</totfact>
</mgrwt>
</event>
<event>
 5    1  0.3862918E+001  0.9049685E+02  0.7546771E-02  0.1301653E+00
          1   -1    0    0  501    0  0.00000000000E+00  0.00000000000E+00  0.10926558083E+04  0.10926558083E+04  0.00000000000E+00 0. -1.
         -1   -1    0    0    0  501 -0.00000000000E+00 -0.00000000000E+00 -0.18738012197E+01  0.18738012197E+01  0.00000000000E+00 0.  1.
         23    2    1    2    0    0  0.00000000000E+00  0.00000000000E+00  0.10907820071E+04  0.10945296095E+04  0.90496846053E+02 0.  0.
          2    1    3    3  502    0  0.21095777777E+02  0.26849354011E+02  0.90448261735E+03  0.90512691085E+03  0.00000000000E+00 0. -1.
         -2    1    3    3    0  502 -0.21095777777E+02 -0.26849354011E+02  0.18629938975E+03  0.18940269869E+03  0.00000000000E+00 0.  1.
<mgrwt>
<rscale>  0 0.90496846E+02</rscale>
<asrwt>0</asrwt>
<pdfrwt beam="1">  1        1 0.16810038E+00 0.90496846E+02</pdfrwt>
<pdfrwt beam="2">  1       -1 0.28827798E-03 0.90496846E+02</pdfrwt>
<totfact> 0.13496525E+05</totfact>
</mgrwt>
</event>
<event>
 5    1  0.3862918E+001  0.9134533E+02  0.7546771E-02  0.1299626E+00
          2   -1    0    0  501    0  0.00000000000E+00  0.00000000000E+00  0.11048124033E+02  0.11048124033E+02  0.00000000000E+00 0. -1.
         -2   -1    0    0    0  501 -0.00000000000E+00 -0.00000000000E+00 -0.18880963266E+03  0.18880963266E+03  0.00000000000E+00 0.  1.
         23    2    1    2    0    0  0.00000000000E+00  0.00000000000E+00 -0.17776150863E+03  0.19985775669E+03  0.91345328075E+02 0.  0.
          2    1    3    3  502    0 -0.18371932856E+02  0.25363661779E+02 -0.16145479692E+02  0.35235206402E+02  0.00000000000E+00 0. -1.
         -2    1    3    3    0  502  0.18371932856E+02 -0.25363661779E+02 -0.16161602893E+03  0.16462255029E+03  0.00000000000E+00 0.  1.
<mgrwt>
<rscale>  0 0.91345328E+02</rscale>
<asrwt>0</asrwt>
<pdfrwt beam="1">  1        2 0.16997115E-02 0.91345328E+02</pdfrwt>
<pdfrwt beam="2">  1       -2 0.29047633E-01 0.91345328E+02</pdfrwt>
<totfact> 0.63564181E+04</totfact>
</mgrwt>
</event>
<event>
 5    1  0.3862918E+001  0.9005660E+02  0.7546771E-02  0.1302715E+00
          1   -1    0    0  501    0  0.00000000000E+00  0.00000000000E+00  0.56618208894E+03  0.56618208894E+03  0.00000000000E+00 0. -1.
         -1   -1    0    0    0  501 -0.00000000000E+00 -0.00000000000E+00 -0.35810878596E+01  0.35810878596E+01  0.00000000000E+00 0.  1.
         23    2    1    2    0    0  0.00000000000E+00  0.00000000000E+00  0.56260100108E+03  0.56976317680E+03  0.90056600092E+02 0.  0.
          2    1    3    3  502    0  0.27927646938E+02 -0.53227809825E+01  0.60384378304E+02  0.66742479756E+02  0.00000000000E+00 0.  1.
         -2    1    3    3    0  502 -0.27927646938E+02  0.53227809825E+01  0.50221662278E+03  0.50302069704E+03  0.00000000000E+00 0. -1.
<mgrwt>
<rscale>  0 0.90056600E+02</rscale>
<asrwt>0</asrwt>
<pdfrwt beam="1">  1        1 0.87104866E-01 0.90056600E+02</pdfrwt>
<pdfrwt beam="2">  1       -1 0.55093704E-03 0.90056600E+02</pdfrwt>
<totfact> 0.14569780E+05</totfact>
</mgrwt>
</event>
<event>
 5    1  0.3862918E+001  0.9273144E+02  0.7546771E-02  0.1296369E+00
         -2   -1    0    0    0  501 -0.00000000000E+00  0.00000000000E+00  0.15984616760E+03  0.15984616760E+03  0.00000000000E+00 0.  1.
          2   -1    0    0  501    0  0.00000000000E+00 -0.00000000000E+00 -0.13449054393E+02  0.13449054393E+02  0.00000000000E+00 0. -1.
         23    2    1    2    0    0  0.00000000000E+00  0.00000000000E+00  0.14639711320E+03  0.17329522199E+03  0.92731435932E+02 0.  0.
          2    1    3    3  502    0 -0.35343855216E+02 -0.28805904816E+02  0.88924316858E+02  0.99932489124E+02  0.00000000000E+00 0. -1.
         -2    1    3    3    0  502  0.35343855216E+02  0.28805904816E+02  0.57472796345E+02  0.73362732866E+02  0.00000000000E+00 0.  1.
<mgrwt>
<rscale>  0 0.92731436E+02</rscale>
<asrwt>0</asrwt>
<pdfrwt beam="2">  1        2 0.20690854E-02 0.92731436E+02</pdfrwt>
<pdfrwt beam="1">  1       -2 0.24591717E-01 0.92731436E+02</pdfrwt>
<totfact> 0.65362079E+04</totfact>
</mgrwt>
</event>
<event>
 5    1  0.3862918E+001  0.9066123E+02  0.7546771E-02  0.1301258E+00
          1   -1    0    0  501    0  0.00000000000E+00  0.00000000000E+00  0.19231943060E+04  0.19231943060E+04  0.00000000000E+00 0. -1.
         -1   -1    0    0    0  501 -0.00000000000E+00 -0.00000000000E+00 -0.10684644814E+01  0.10684644814E+01  0.00000000000E+00 0.  1.
         23    2    1    2    0    0  0.00000000000E+00  0.00000000000E+00  0.19221258415E+04  0.19242627705E+04  0.90661233318E+02 0.  0.
          2    1    3    3  502    0  0.30818540860E+02  0.26528217034E+02  0.13862664290E+04  0.13868626972E+04  0.00000000000E+00 0. -1.
         -2    1    3    3    0  502 -0.30818540860E+02 -0.26528217034E+02  0.53585941253E+03  0.53740007328E+03  0.00000000000E+00 0.  1.
<mgrwt>
<rscale>  0 0.90661233E+02</rscale>
<asrwt>0</asrwt>
<pdfrwt beam="1">  1        1 0.29587328E+00 0.90661233E+02</pdfrwt>
<pdfrwt beam="2">  1       -1 0.16438069E-03 0.90661233E+02</pdfrwt>
<totfact> 0.85667704E+04</totfact>
</mgrwt>
</event>
<event>
 5    1  0.3862918E+001  0.8258949E+02  0.7546771E-02  0.1321859E+00
          1   -1    0    0  501    0  0.00000000000E+00  0.00000000000E+00  0.33186949773E+03  0.33186949773E+03  0.00000000000E+00 0. -1.
         -1   -1    0    0    0  501 -0.00000000000E+00 -0.00000000000E+00 -0.51383323841E+01  0.51383323841E+01  0.00000000000E+00 0.  1.
         23    2    1    2    0    0  0.00000000000E+00  0.00000000000E+00  0.32673116535E+03  0.33700783012E+03  0.82589485711E+02 0.  0.
          2    1    3    3  502    0  0.16492893676E+02 -0.30565321635E+02  0.72213605375E+02  0.80131512090E+02  0.00000000000E+00 0.  1.
         -2    1    3    3    0  502 -0.16492893676E+02  0.30565321635E+02  0.25451755997E+03  0.25687631803E+03  0.00000000000E+00 0. -1.
<mgrwt>
<rscale>  0 0.82589486E+02</rscale>
<asrwt>0</asrwt>
<pdfrwt beam="1">  1        1 0.51056829E-01 0.82589486E+02</pdfrwt>
<pdfrwt beam="2">  1       -1 0.79051294E-03 0.82589486E+02</pdfrwt>
<totfact> 0.16964115E+05</totfact>
</mgrwt>
</event>
<event>
 5    1  0.3862918E+001  0.9194525E+02  0.7546771E-02  0.1298208E+00
          1   -1    0    0  501    0  0.00000000000E+00  0.00000000000E+00  0.18341497307E+04  0.18341497307E+04  0.00000000000E+00 0. -1.
         -1   -1    0    0    0  501 -0.00000000000E+00 -0.00000000000E+00 -0.11522953062E+01  0.11522953062E+01  0.00000000000E+00 0.  1.
         23    2    1    2    0    0  0.00000000000E+00  0.00000000000E+00  0.18329974354E+04  0.18353020260E+04  0.91945247308E+02 0.  0.
          2    1    3    3  502    0  0.16841110865E+02 -0.17661342791E+02  0.16941860072E+04  0.16943617597E+04  0.00000000000E+00 0. -1.
         -2    1    3    3    0  502 -0.16841110865E+02  0.17661342791E+02  0.13881142825E+03  0.14094026628E+03  0.00000000000E+00 0.  1.
<mgrwt>
<rscale>  0 0.91945247E+02</rscale>
<asrwt>0</asrwt>
<pdfrwt beam="1">  1        1 0.28217455E+00 0.91945247E+02</pdfrwt>
<pdfrwt beam="2">  1       -1 0.17727767E-03 0.91945247E+02</pdfrwt>
<totfact> 0.87883731E+04</totfact>
</mgrwt>
</event>
<event>
 5    1  0.3862918E+001  0.9023487E+02  0.7546771E-02  0.1302284E+00
          1   -1    0    0  501    0  0.00000000000E+00  0.00000000000E+00  0.44642741372E+02  0.44642741372E+02  0.00000000000E+00 0. -1.
         -1   -1    0    0    0  501 -0.00000000000E+00 -0.00000000000E+00 -0.45597177810E+02  0.45597177810E+02  0.00000000000E+00 0.  1.
         23    2    1    2    0    0  0.00000000000E+00  0.00000000000E+00 -0.95443643843E+00  0.90239919182E+02  0.90234871669E+02 0.  0.
          2    1    3    3  502    0 -0.35866441953E+02 -0.26458564059E+02 -0.74865863755E+01  0.45194095256E+02  0.00000000000E+00 0.  1.
         -2    1    3    3    0  502  0.35866441953E+02  0.26458564059E+02  0.65321499370E+01  0.45045823927E+02  0.00000000000E+00 0. -1.
<mgrwt>
<rscale>  0 0.90234872E+02</rscale>
<asrwt>0</asrwt>
<pdfrwt beam="1">  1        1 0.68681141E-02 0.90234872E+02</pdfrwt>
<pdfrwt beam="2">  1       -1 0.70149504E-02 0.90234872E+02</pdfrwt>
<totfact> 0.94906125E+04</totfact>
</mgrwt>
</event>
<event>
 5    1  0.3862918E+001  0.9147618E+02  0.7546771E-02  0.1299316E+00
          1   -1    0    0  501    0  0.00000000000E+00  0.00000000000E+00  0.18715088579E+04  0.18715088579E+04  0.00000000000E+00 0. -1.
         -1   -1    0    0    0  501 -0.00000000000E+00 -0.00000000000E+00 -0.11178002119E+01  0.11178002119E+01  0.00000000000E+00 0.  1.
         23    2    1    2    0    0  0.00000000000E+00  0.00000000000E+00  0.18703910577E+04  0.18726266581E+04  0.91476182646E+02 0.  0.
          2    1    3    3  502    0  0.85204031964E+01  0.32337553056E+02  0.29642264221E+03  0.29830302953E+03  0.00000000000E+00 0.  1.
         -2    1    3    3    0  502 -0.85204031964E+01 -0.32337553056E+02  0.15739684155E+04  0.15743236286E+04  0.00000000000E+00 0. -1.
<mgrwt>
<rscale>  0 0.91476183E+02</rscale>
<asrwt>0</asrwt>
<pdfrwt beam="1">  1        1 0.28792193E+00 0.91476183E+02</pdfrwt>
<pdfrwt beam="2">  1       -1 0.17197076E-03 0.91476183E+02</pdfrwt>
<totfact> 0.86798167E+04</totfact>
</mgrwt>
</event>
<event>
 5    1  0.3862918E+001  0.8923087E+02  0.7546771E-02  0.1304725E+00
          1   -1    0    0  501    0  0.00000000000E+00  0.00000000000E+00  0.27769365139E+02  0.27769365139E+02  0.00000000000E+00 0. -1.
         -1   -1    0    0    0  501 -0.00000000000E+00 -0.00000000000E+00 -0.71681035140E+02  0.71681035140E+02  0.00000000000E+00 0.  1.
         23    2    1    2    0    0  0.00000000000E+00  0.00000000000E+00 -0.43911670001E+02  0.99450400280E+02  0.89230865476E+02 0.  0.
          2    1    3    3  502    0 -0.35795399521E+02  0.14085632366E+02  0.32340320214E+01  0.38602780070E+02  0.00000000000E+00 0. -1.
         -2    1    3    3    0  502  0.35795399521E+02 -0.14085632366E+02 -0.47145702022E+02  0.60847620210E+02  0.00000000000E+00 0.  1.
<mgrwt>
<rscale>  0 0.89230865E+02</rscale>
<asrwt>0</asrwt>
<pdfrwt beam="1">  1        1 0.42722100E-02 0.89230865E+02</pdfrwt>
<pdfrwt beam="2">  1       -1 0.11027852E-01 0.89230865E+02</pdfrwt>
<totfact> 0.91079198E+04</totfact>
</mgrwt>
</event>
<event>
 5    1  0.3862918E+001  0.8996115E+02  0.7546771E-02  0.1302946E+00
         -3   -1    0    0    0  501 -0.00000000000E+00  0.00000000000E+00  0.38776686312E+01  0.38776686312E+01  0.00000000000E+00 0.  1.
          3   -1    0    0  501    0  0.00000000000E+00 -0.00000000000E+00 -0.52177024686E+03  0.52177024686E+03  0.00000000000E+00 0. -1.
         23    2    1    2    0    0  0.00000000000E+00  0.00000000000E+00 -0.51789257823E+03  0.52564791549E+03  0.89961149813E+02 0.  0.
          2    1    3    3  502    0  0.32760971324E+02 -0.29536858113E+02 -0.20749259742E+03  0.21212940676E+03  0.00000000000E+00 0. -1.
         -2    1    3    3    0  502 -0.32760971324E+02  0.29536858113E+02 -0.31039998081E+03  0.31351850873E+03  0.00000000000E+00 0.  1.
<mgrwt>
<rscale>  0 0.89961150E+02</rscale>
<asrwt>0</asrwt>
<pdfrwt beam="2">  1        3 0.80272378E-01 0.89961150E+02</pdfrwt>
<pdfrwt beam="1">  1       -3 0.59656417E-03 0.89961150E+02</pdfrwt>
<totfact> 0.17937673E+04</totfact>
</mgrwt>
</event>
<event>
 5    1  0.3862918E+001  0.9110654E+02  0.7546771E-02  0.1300194E+00
          4   -1    0    0  501    0  0.00000000000E+00  0.00000000000E+00  0.15724500464E+02  0.15724500464E+02  0.00000000000E+00 0. -1.
         -4   -1    0    0    0  501 -0.00000000000E+00 -0.00000000000E+00 -0.13196605498E+03  0.13196605498E+03  0.00000000000E+00 0.  1.
         23    2    1    2    0    0  0.00000000000E+00  0.00000000000E+00 -0.11624155452E+03  0.14769055545E+03  0.91106537479E+02 0.  0.
          2    1    3    3  502    0  0.24489012112E+02 -0.12215392475E+02  0.91336190650E+00  0.27381777837E+02  0.00000000000E+00 0. -1.
         -2    1    3    3    0  502 -0.24489012112E+02  0.12215392475E+02 -0.11715491643E+03  0.12030877761E+03  0.00000000000E+00 0.  1.
<mgrwt>
<rscale>  0 0.91106537E+02</rscale>
<asrwt>0</asrwt>
<pdfrwt beam="1">  1        4 0.24191540E-02 0.91106537E+02</pdfrwt>
<pdfrwt beam="2">  1       -4 0.20302470E-01 0.91106537E+02</pdfrwt>
<totfact> 0.23839112E+04</totfact>
</mgrwt>
</event>
<event>
 5    1  0.3862918E+001  0.9648015E+02  0.7546771E-02  0.1287877E+00
         -3   -1    0    0    0  501 -0.00000000000E+00  0.00000000000E+00  0.84191050515E+01  0.84191050515E+01  0.00000000000E+00 0.  1.
          3   -1    0    0  501    0  0.00000000000E+00 -0.00000000000E+00 -0.27640760779E+03  0.27640760779E+03  0.00000000000E+00 0. -1.
         23    2    1    2    0    0  0.00000000000E+00  0.00000000000E+00 -0.26798850273E+03  0.28482671284E+03  0.96480146911E+02 0.  0.
          2    1    3    3  502    0 -0.41061971950E+01  0.25563004733E+02 -0.25415835201E+03  0.25547366980E+03  0.00000000000E+00 0. -1.
         -2    1    3    3    0  502  0.41061971950E+01 -0.25563004733E+02 -0.13830150727E+02  0.29353043037E+02  0.00000000000E+00 0.  1.
<mgrwt>
<rscale>  0 0.96480147E+02</rscale>
<asrwt>0</asrwt>
<pdfrwt beam="2">  1        3 0.42524247E-01 0.96480147E+02</pdfrwt>
<pdfrwt beam="1">  1       -3 0.12952470E-02 0.96480147E+02</pdfrwt>
<totfact> 0.21146519E+04</totfact>
</mgrwt>
</event>
<event>
 5    1  0.3862918E+001  0.1003082E+03  0.7546771E-02  0.1279649E+00
         -1   -1    0    0    0  501 -0.00000000000E+00  0.00000000000E+00  0.20618269588E+01  0.20618269588E+01  0.00000000000E+00 0. -1.
          1   -1    0    0  501    0  0.00000000000E+00 -0.00000000000E+00 -0.12200019392E+04  0.12200019392E+04  0.00000000000E+00 0.  1.
         23    2    1    2    0    0  0.00000000000E+00  0.00000000000E+00 -0.12179401123E+04  0.12220637662E+04  0.10030818288E+03 0.  0.
          2    1    3    3  502    0  0.20238250091E+02  0.15804277555E+02 -0.84096383679E+02  0.87929310834E+02  0.00000000000E+00 0. -1.
         -2    1    3    3    0  502 -0.20238250091E+02 -0.15804277555E+02 -0.11338437286E+04  0.11341344554E+04  0.00000000000E+00 0.  1.
<mgrwt>
<rscale>  0 0.10030818E+03</rscale>
<asrwt>0</asrwt>
<pdfrwt beam="2">  1        1 0.18769257E+00 0.10030818E+03</pdfrwt>
<pdfrwt beam="1">  1       -1 0.31720421E-03 0.10030818E+03</pdfrwt>
<totfact> 0.98009511E+04</totfact>
</mgrwt>
</event>
<event>
 5    1  0.3862918E+001  0.8479322E+02  0.7546771E-02  0.1315974E+00
         -2   -1    0    0    0  501 -0.00000000000E+00  0.00000000000E+00  0.27418014256E+01  0.27418014256E+01  0.00000000000E+00 0.  1.
          2   -1    0    0  501    0  0.00000000000E+00 -0.00000000000E+00 -0.65558093696E+03  0.65558093696E+03  0.00000000000E+00 0. -1.
         23    2    1    2    0    0  0.00000000000E+00  0.00000000000E+00 -0.65283913554E+03  0.65832273839E+03  0.84793224908E+02 0.  0.
          2    1    3    3  502    0  0.31037982906E+02 -0.27443716055E+02 -0.39627654202E+03  0.39843645879E+03  0.00000000000E+00 0. -1.
         -2    1    3    3    0  502 -0.31037982906E+02  0.27443716055E+02 -0.25656259351E+03  0.25988627960E+03  0.00000000000E+00 0.  1.
<mgrwt>
<rscale>  0 0.84793225E+02</rscale>
<asrwt>0</asrwt>
<pdfrwt beam="2">  1        2 0.10085863E+00 0.84793225E+02</pdfrwt>
<pdfrwt beam="1">  1       -2 0.42181550E-03 0.84793225E+02</pdfrwt>
<totfact> 0.28243082E+05</totfact>
</mgrwt>
</event>
<event>
 5    1  0.3862918E+001  0.1078995E+03  0.7546771E-02  0.1264510E+00
         -3   -1    0    0    0  501 -0.00000000000E+00  0.00000000000E+00  0.11468645622E+03  0.11468645622E+03  0.00000000000E+00 0.  1.
          3   -1    0    0  501    0  0.00000000000E+00 -0.00000000000E+00 -0.25378547416E+02  0.25378547416E+02  0.00000000000E+00 0. -1.
         23    2    1    2    0    0  0.00000000000E+00  0.00000000000E+00  0.89307908800E+02  0.14006500363E+03  0.10789950263E+03 0.  0.
          2    1    3    3  502    0 -0.24941251376E+02 -0.13418102462E+02 -0.14952502444E+02  0.32026376992E+02  0.00000000000E+00 0. -1.
         -2    1    3    3    0  502  0.24941251376E+02  0.13418102462E+02  0.10426041124E+03  0.10803862664E+03  0.00000000000E+00 0.  1.
<mgrwt>
<rscale>  0 0.10789950E+03</rscale>
<asrwt>0</asrwt>
<pdfrwt beam="2">  1        3 0.39043920E-02 0.10789950E+03</pdfrwt>
<pdfrwt beam="1">  1       -3 0.17644070E-01 0.10789950E+03</pdfrwt>
<totfact> 0.20127801E+04</totfact>
</mgrwt>
</event>
<event>
 5    1  0.3862918E+001  0.8694515E+02  0.7546771E-02  0.1310423E+00
          2   -1    0    0  501    0  0.00000000000E+00  0.00000000000E+00  0.73486710563E+02  0.73486710563E+02  0.00000000000E+00 0. -1.
         -2   -1    0    0    0  501 -0.00000000000E+00 -0.00000000000E+00 -0.25717095561E+02  0.25717095561E+02  0.00000000000E+00 0.  1.
         23    2    1    2    0    0  0.00000000000E+00  0.00000000000E+00  0.47769615002E+02  0.99203806124E+02  0.86945149561E+02 0.  0.
          2    1    3    3  502    0  0.38081762790E+02 -0.20843945821E+02  0.26480164897E+02  0.50851645673E+02  0.00000000000E+00 0. -1.
         -2    1    3    3    0  502 -0.38081762790E+02  0.20843945821E+02  0.21289450105E+02  0.48352160452E+02  0.00000000000E+00 0.  1.
<mgrwt>
<rscale>  0 0.86945150E+02</rscale>
<asrwt>0</asrwt>
<pdfrwt beam="1">  1        2 0.11305648E-01 0.86945150E+02</pdfrwt>
<pdfrwt beam="2">  1       -2 0.39564763E-02 0.86945150E+02</pdfrwt>
<totfact> 0.12794952E+05</totfact>
</mgrwt>
</event>
<event>
 5    1  0.3862918E+001  0.9092407E+02  0.7546771E-02  0.1300629E+00
         -1   -1    0    0    0  501 -0.00000000000E+00  0.00000000000E+00  0.34022721754E+02  0.34022721754E+02  0.00000000000E+00 0.  1.
          1   -1    0    0  501    0  0.00000000000E+00 -0.00000000000E+00 -0.60747540017E+02  0.60747540017E+02  0.00000000000E+00 0. -1.
         23    2    1    2    0    0  0.00000000000E+00  0.00000000000E+00 -0.26724818263E+02  0.94770261772E+02  0.90924070548E+02 0.  0.
          2    1    3    3  502    0  0.17821257509E+02 -0.33512054090E+02 -0.39443725731E+02  0.54739953308E+02  0.00000000000E+00 0.  1.
         -2    1    3    3    0  502 -0.17821257509E+02  0.33512054090E+02  0.12718907468E+02  0.40030308464E+02  0.00000000000E+00 0. -1.
<mgrwt>
<rscale>  0 0.90924071E+02</rscale>
<asrwt>0</asrwt>
<pdfrwt beam="2">  1        1 0.93457753E-02 0.90924071E+02</pdfrwt>
<pdfrwt beam="1">  1       -1 0.52342649E-02 0.90924071E+02</pdfrwt>
<totfact> 0.97298104E+04</totfact>
</mgrwt>
</event>
<event>
 5    1  0.3862918E+001  0.8317639E+02  0.7546771E-02  0.1320272E+00
         -2   -1    0    0    0  501 -0.00000000000E+00  0.00000000000E+00  0.39331994736E+02  0.39331994736E+02  0.00000000000E+00 0. -1.
          2   -1    0    0  501    0  0.00000000000E+00 -0.00000000000E+00 -0.43973813951E+02  0.43973813951E+02  0.00000000000E+00 0.  1.
         23    2    1    2    0    0  0.00000000000E+00  0.00000000000E+00 -0.46418192150E+01  0.83305808687E+02  0.83176386525E+02 0.  0.
          2    1    3    3  502    0 -0.22503013182E+02  0.34814823018E+02  0.10189927925E+01  0.41466804198E+02  0.00000000000E+00 0. -1.
         -2    1    3    3    0  502  0.22503013182E+02 -0.34814823018E+02 -0.56608120075E+01  0.41839004489E+02  0.00000000000E+00 0.  1.
<mgrwt>
<rscale>  0 0.83176387E+02</rscale>
<asrwt>0</asrwt>
<pdfrwt beam="2">  1        2 0.67652022E-02 0.83176387E+02</pdfrwt>
<pdfrwt beam="1">  1       -2 0.60510761E-02 0.83176387E+02</pdfrwt>
<totfact> 0.12698226E+05</totfact>
</mgrwt>
</event>
<event>
 5    1  0.3862918E+001  0.9153660E+02  0.7546771E-02  0.1299173E+00
         -2   -1    0    0    0  501 -0.00000000000E+00  0.00000000000E+00  0.20544417470E+03  0.20544417470E+03  0.00000000000E+00 0.  1.
          2   -1    0    0  501    0  0.00000000000E+00 -0.00000000000E+00 -0.10196139297E+02  0.10196139297E+02  0.00000000000E+00 0. -1.
         23    2    1    2    0    0  0.00000000000E+00  0.00000000000E+00  0.19524803540E+03  0.21564031400E+03  0.91536603016E+02 0.  0.
          2    1    3    3  502    0 -0.34787751164E+02  0.23222207797E+02  0.53849622274E+02  0.68185338490E+02  0.00000000000E+00 0. -1.
         -2    1    3    3    0  502  0.34787751164E+02 -0.23222207797E+02  0.14139841313E+03  0.14745497551E+03  0.00000000000E+00 0.  1.
<mgrwt>
<rscale>  0 0.91536603E+02</rscale>
<asrwt>0</asrwt>
<pdfrwt beam="2">  1        2 0.15686370E-02 0.91536603E+02</pdfrwt>
<pdfrwt beam="1">  1       -2 0.31606793E-01 0.91536603E+02</pdfrwt>
<totfact> 0.60975415E+04</totfact>
</mgrwt>
</event>
<event>
 5    1  0.3862918E+001  0.9130752E+02  0.7546771E-02  0.1299716E+00
          2   -1    0    0  501    0  0.00000000000E+00  0.00000000000E+00  0.16556596798E+02  0.16556596798E+02  0.00000000000E+00 0. -1.
         -2   -1    0    0    0  501 -0.00000000000E+00 -0.00000000000E+00 -0.12588733673E+03  0.12588733673E+03  0.00000000000E+00 0.  1.
         23    2    1    2    0    0  0.00000000000E+00  0.00000000000E+00 -0.10933073993E+03  0.14244393353E+03  0.91307521621E+02 0.  0.
          2    1    3    3  502    0 -0.22141164361E+02  0.38301876275E+02 -0.72246264051E+02  0.84715922675E+02  0.00000000000E+00 0. -1.
         -2    1    3    3    0  502  0.22141164361E+02 -0.38301876275E+02 -0.37084475880E+02  0.57728010851E+02  0.00000000000E+00 0.  1.
<mgrwt>
<rscale>  0 0.91307522E+02</rscale>
<asrwt>0</asrwt>
<pdfrwt beam="1">  1        2 0.25471687E-02 0.91307522E+02</pdfrwt>
<pdfrwt beam="2">  1       -2 0.19367283E-01 0.91307522E+02</pdfrwt>
<totfact> 0.73974971E+04</totfact>
</mgrwt>
</event>
<event>
 5    1  0.3862918E+001  0.9019394E+02  0.7546771E-02  0.1302383E+00
         -2   -1    0    0    0  501 -0.00000000000E+00  0.00000000000E+00  0.17713551543E+01  0.17713551543E+01  0.00000000000E+00 0.  1.
          2   -1    0    0  501    0  0.00000000000E+00 -0.00000000000E+00 -0.11481247791E+04  0.11481247791E+04  0.00000000000E+00 0. -1.
         23    2    1    2    0    0  0.00000000000E+00  0.00000000000E+00 -0.11463534239E+04  0.11498961342E+04  0.90193940931E+02 0.  0.
          2    1    3    3  502    0 -0.40826630688E+02  0.72503310253E+00 -0.81721466986E+03  0.81823416947E+03  0.00000000000E+00 0. -1.
         -2    1    3    3    0  502  0.40826630688E+02 -0.72503310253E+00 -0.32913875404E+03  0.33166196474E+03  0.00000000000E+00 0.  1.
<mgrwt>
<rscale>  0 0.90193941E+02</rscale>
<asrwt>0</asrwt>
<pdfrwt beam="2">  1        2 0.17663472E+00 0.90193941E+02</pdfrwt>
<pdfrwt beam="1">  1       -2 0.27251596E-03 0.90193941E+02</pdfrwt>
<totfact> 0.25688580E+05</totfact>
</mgrwt>
</event>
<event>
 5    1  0.3862918E+001  0.9177982E+02  0.7546771E-02  0.1298598E+00
         -2   -1    0    0    0  501 -0.00000000000E+00  0.00000000000E+00  0.24762890720E+03  0.24762890720E+03  0.00000000000E+00 0.  1.
          2   -1    0    0  501    0  0.00000000000E+00 -0.00000000000E+00 -0.85041925599E+01  0.85041925599E+01  0.00000000000E+00 0. -1.
         23    2    1    2    0    0  0.00000000000E+00  0.00000000000E+00  0.23912471464E+03  0.25613309976E+03  0.91779821536E+02 0.  0.
          2    1    3    3  502    0 -0.36514710268E+02  0.24840591075E+02  0.84761454810E+02  0.95576583180E+02  0.00000000000E+00 0. -1.
         -2    1    3    3    0  502  0.36514710268E+02 -0.24840591075E+02  0.15436325983E+03  0.16055651658E+03  0.00000000000E+00 0.  1.
<mgrwt>
<rscale>  0 0.91779822E+02</rscale>
<asrwt>0</asrwt>
<pdfrwt beam="2">  1        2 0.13083375E-02 0.91779822E+02</pdfrwt>
<pdfrwt beam="1">  1       -2 0.38096749E-01 0.91779822E+02</pdfrwt>
<totfact> 0.55496427E+04</totfact>
</mgrwt>
</event>
<event>
 4    1  0.3862918E+001  0.4909082E+02  0.7546771E-02  0.1450308E+00
          1   -1    0    0  501    0  0.00000000000E+00  0.00000000000E+00  0.30718139205E+04  0.30718139205E+04  0.00000000000E+00 0. -1.
         -1   -1    0    0    0  501 -0.00000000000E+00 -0.00000000000E+00 -0.19613074274E+00  0.19613074274E+00  0.00000000000E+00 0.  1.
          2    1    1    2  502    0 -0.24322417131E+02  0.29622032169E+01  0.14446396144E+04  0.14448473864E+04  0.00000000000E+00 0. -1.
         -2    1    1    2    0  502  0.24322417131E+02 -0.29622032169E+01  0.16269781754E+04  0.16271626648E+04  0.00000000000E+00 0.  1.
<mgrwt>
<rscale>  0 0.49090820E+02</rscale>
<asrwt>0</asrwt>
<pdfrwt beam="1">  1        1 0.47254823E+00 0.49090820E+02</pdfrwt>
<pdfrwt beam="2">  1       -1 0.30176421E-04 0.49090820E+02</pdfrwt>
<totfact> 0.14643986E+05</totfact>
</mgrwt>
</event>
<event>
 5    1  0.3862918E+001  0.8336044E+02  0.7546771E-02  0.1319777E+00
         -2   -1    0    0    0  501 -0.00000000000E+00  0.00000000000E+00  0.19517780324E+01  0.19517780324E+01  0.00000000000E+00 0.  1.
          2   -1    0    0  501    0  0.00000000000E+00 -0.00000000000E+00 -0.89008112444E+03  0.89008112444E+03  0.00000000000E+00 0. -1.
         23    2    1    2    0    0  0.00000000000E+00  0.00000000000E+00 -0.88812934641E+03  0.89203290247E+03  0.83360441115E+02 0.  0.
          2    1    3    3  502    0 -0.17680384905E+02 -0.12897284754E+02 -0.82365383152E+03  0.82394451885E+03  0.00000000000E+00 0. -1.
         -2    1    3    3    0  502  0.17680384905E+02  0.12897284754E+02 -0.64475514891E+02  0.68088383627E+02  0.00000000000E+00 0.  1.
<mgrwt>
<rscale>  0 0.83360441E+02</rscale>
<asrwt>0</asrwt>
<pdfrwt beam="2">  1        2 0.13693567E+00 0.83360441E+02</pdfrwt>
<pdfrwt beam="1">  1       -2 0.30027330E-03 0.83360441E+02</pdfrwt>
<totfact> 0.31322160E+05</totfact>
</mgrwt>
</event>
<event>
 5    1  0.3862918E+001  0.9205302E+02  0.7546771E-02  0.1297955E+00
          1   -1    0    0  501    0  0.00000000000E+00  0.00000000000E+00  0.77012512819E+03  0.77012512819E+03  0.00000000000E+00 0. -1.
         -1   -1    0    0    0  501 -0.00000000000E+00 -0.00000000000E+00 -0.27507733512E+01  0.27507733512E+01  0.00000000000E+00 0.  1.
         23    2    1    2    0    0  0.00000000000E+00  0.00000000000E+00  0.76737435484E+03  0.77287590154E+03  0.92053021236E+02 0.  0.
          2    1    3    3  502    0  0.37025862703E+02  0.52398255824E+01  0.60898598677E+03  0.61013302022E+03  0.00000000000E+00 0. -1.
         -2    1    3    3    0  502 -0.37025862703E+02 -0.52398255824E+01  0.15838836806E+03  0.16274288131E+03  0.00000000000E+00 0.  1.
<mgrwt>
<rscale>  0 0.92053021E+02</rscale>
<asrwt>0</asrwt>
<pdfrwt beam="1">  1        1 0.11848062E+00 0.92053021E+02</pdfrwt>
<pdfrwt beam="2">  1       -1 0.42319651E-03 0.92053021E+02</pdfrwt>
<totfact> 0.13816306E+05</totfact>
</mgrwt>
</event>
<event>
 5    1  0.3862918E+001  0.8973201E+02  0.7546771E-02  0.1303502E+00
          1   -1    0    0  501    0  0.00000000000E+00  0.00000000000E+00  0.35977249977E+02  0.35977249977E+02  0.00000000000E+00 0. -1.
         -1   -1    0    0    0  501 -0.00000000000E+00 -0.00000000000E+00 -0.55950863027E+02  0.55950863027E+02  0.00000000000E+00 0.  1.
         23    2    1    2    0    0  0.00000000000E+00  0.00000000000E+00 -0.19973613050E+02  0.91928113004E+02  0.89732005116E+02 0.  0.
          2    1    3    3  502    0 -0.43315662638E+02  0.98413320650E+00  0.19492194385E+01  0.43370665251E+02  0.00000000000E+00 0. -1.
         -2    1    3    3    0  502  0.43315662638E+02 -0.98413320650E+00 -0.21922832488E+02  0.48557447752E+02  0.00000000000E+00 0.  1.
<mgrwt>
<rscale>  0 0.89732005E+02</rscale>
<asrwt>0</asrwt>
<pdfrwt beam="1">  1        1 0.55349616E-02 0.89732005E+02</pdfrwt>
<pdfrwt beam="2">  1       -1 0.86078251E-02 0.89732005E+02</pdfrwt>
<totfact> 0.93335200E+04</totfact>
</mgrwt>
</event>
<event>
 5    1  0.3862918E+001  0.8006830E+02  0.7546771E-02  0.1328858E+00
         -2   -1    0    0    0  501 -0.00000000000E+00  0.00000000000E+00  0.47539881671E+01  0.47539881671E+01  0.00000000000E+00 0.  1.
          2   -1    0    0  501    0  0.00000000000E+00 -0.00000000000E+00 -0.33713443849E+03  0.33713443849E+03  0.00000000000E+00 0. -1.
         23    2    1    2    0    0  0.00000000000E+00  0.00000000000E+00 -0.33238045032E+03  0.34188842666E+03  0.80068299128E+02 0.  0.
          2    1    3    3  502    0  0.59862606765E+01 -0.33732456534E+02 -0.77747491785E+02  0.84961087678E+02  0.00000000000E+00 0. -1.
         -2    1    3    3    0  502 -0.59862606765E+01  0.33732456534E+02 -0.25463295854E+03  0.25692733898E+03  0.00000000000E+00 0.  1.
<mgrwt>
<rscale>  0 0.80068299E+02</rscale>
<asrwt>0</asrwt>
<pdfrwt beam="2">  1        2 0.51866850E-01 0.80068299E+02</pdfrwt>
<pdfrwt beam="1">  1       -2 0.73138260E-03 0.80068299E+02</pdfrwt>
<totfact> 0.26445287E+05</totfact>
</mgrwt>
</event>
<event>
 5    1  0.3862918E+001  0.9994862E+02  0.7546771E-02  0.1280404E+00
         -3   -1    0    0    0  501 -0.00000000000E+00  0.00000000000E+00  0.70240692737E+01  0.70240692737E+01  0.00000000000E+00 0.  1.
          3   -1    0    0  501    0  0.00000000000E+00 -0.00000000000E+00 -0.35555336948E+03  0.35555336948E+03  0.00000000000E+00 0. -1.
         23    2    1    2    0    0  0.00000000000E+00  0.00000000000E+00 -0.34852930020E+03  0.36257743875E+03  0.99948616753E+02 0.  0.
          2    1    3    3  502    0 -0.35110261329E+02  0.29823529214E+02 -0.10399155909E+03  0.11373837394E+03  0.00000000000E+00 0.  1.
         -2    1    3    3    0  502  0.35110261329E+02 -0.29823529214E+02 -0.24453774111E+03  0.24883906481E+03  0.00000000000E+00 0. -1.
<mgrwt>
<rscale>  0 0.99948617E+02</rscale>
<asrwt>0</asrwt>
<pdfrwt beam="2">  1        3 0.54700503E-01 0.99948617E+02</pdfrwt>
<pdfrwt beam="1">  1       -3 0.10806264E-02 0.99948617E+02</pdfrwt>
<totfact> 0.17017337E+04</totfact>
</mgrwt>
</event>
<event>
 5    1  0.3862918E+001  0.8662393E+02  0.7546771E-02  0.1311240E+00
          1   -1    0    0  501    0  0.00000000000E+00  0.00000000000E+00  0.35784440337E+03  0.35784440337E+03  0.00000000000E+00 0. -1.
         -1   -1    0    0    0  501 -0.00000000000E+00 -0.00000000000E+00 -0.52422965322E+01  0.52422965322E+01  0.00000000000E+00 0.  1.
         23    2    1    2    0    0  0.00000000000E+00  0.00000000000E+00  0.35260210684E+03  0.36308669990E+03  0.86623933756E+02 0.  0.
          2    1    3    3  502    0 -0.25959163990E+02  0.29769310318E+02  0.10181009558E+03  0.10920341383E+03  0.00000000000E+00 0.  1.
         -2    1    3    3    0  502  0.25959163990E+02 -0.29769310318E+02  0.25079201126E+03  0.25388328607E+03  0.00000000000E+00 0. -1.
<mgrwt>
<rscale>  0 0.86623934E+02</rscale>
<asrwt>0</asrwt>
<pdfrwt beam="1">  1        1 0.55052966E-01 0.86623934E+02</pdfrwt>
<pdfrwt beam="2">  1       -1 0.80650744E-03 0.86623934E+02</pdfrwt>
<totfact> 0.15159809E+05</totfact>
</mgrwt>
</event>
<event>
 5    1  0.3862918E+001  0.9134292E+02  0.7546771E-02  0.1299632E+00
         -2   -1    0    0    0  501 -0.00000000000E+00  0.00000000000E+00  0.30603286036E+01  0.30603286036E+01  0.00000000000E+00 0.  1.
          2   -1    0    0  501    0  0.00000000000E+00 -0.00000000000E+00 -0.68158774075E+03  0.68158774075E+03  0.00000000000E+00 0. -1.
         23    2    1    2    0    0  0.00000000000E+00  0.00000000000E+00 -0.67852741215E+03  0.68464806935E+03  0.91342924387E+02 0.  0.
          2    1    3    3  502    0 -0.89460194001E+01  0.43964068944E+02 -0.40330927912E+03  0.40579704934E+03  0.00000000000E+00 0. -1.
         -2    1    3    3    0  502  0.89460194001E+01 -0.43964068944E+02 -0.27521813302E+03  0.27885102002E+03  0.00000000000E+00 0.  1.
<mgrwt>
<rscale>  0 0.91342924E+02</rscale>
<asrwt>0</asrwt>
<pdfrwt beam="2">  1        2 0.10485972E+00 0.91342924E+02</pdfrwt>
<pdfrwt beam="1">  1       -2 0.47081950E-03 0.91342924E+02</pdfrwt>
<totfact> 0.23451539E+05</totfact>
</mgrwt>
</event>
<event>
 5    1  0.3862918E+001  0.9174471E+02  0.7546771E-02  0.1298681E+00
          2   -1    0    0  501    0  0.00000000000E+00  0.00000000000E+00  0.17944679815E+01  0.17944679815E+01  0.00000000000E+00 0. -1.
         -2   -1    0    0    0  501 -0.00000000000E+00 -0.00000000000E+00 -0.11726445203E+04  0.11726445203E+04  0.00000000000E+00 0.  1.
         23    2    1    2    0    0  0.00000000000E+00  0.00000000000E+00 -0.11708500523E+04  0.11744389882E+04  0.91744712006E+02 0.  0.
          2    1    3    3  502    0 -0.30039826424E+02 -0.15148045370E+01 -0.10287940395E+04  0.10292336283E+04  0.00000000000E+00 0.  1.
         -2    1    3    3    0  502  0.30039826424E+02  0.15148045370E+01 -0.14205601276E+03  0.14520535997E+03  0.00000000000E+00 0. -1.
<mgrwt>
<rscale>  0 0.91744712E+02</rscale>
<asrwt>0</asrwt>
<pdfrwt beam="1">  1        2 0.27607224E-03 0.91744712E+02</pdfrwt>
<pdfrwt beam="2">  1       -2 0.18040669E+00 0.91744712E+02</pdfrwt>
<totfact> 0.15076999E+04</totfact>
</mgrwt>
</event>
<event>
 5    1  0.3862918E+001  0.8521264E+02  0.7546771E-02  0.1314877E+00
          2   -1    0    0  501    0  0.00000000000E+00  0.00000000000E+00  0.88318725072E+03  0.88318725072E+03  0.00000000000E+00 0. -1.
         -2   -1    0    0    0  501 -0.00000000000E+00 -0.00000000000E+00 -0.20553950083E+01  0.20553950083E+01  0.00000000000E+00 0.  1.
         23    2    1    2    0    0  0.00000000000E+00  0.00000000000E+00  0.88113185571E+03  0.88524264573E+03  0.85212643816E+02 0.  0.
          2    1    3    3  502    0  0.36241147188E+02  0.14397685992E+02  0.61887082620E+03  0.62009822902E+03  0.00000000000E+00 0. -1.
         -2    1    3    3    0  502 -0.36241147188E+02 -0.14397685992E+02  0.26226102951E+03  0.26514441671E+03  0.00000000000E+00 0.  1.
<mgrwt>
<rscale>  0 0.85212644E+02</rscale>
<asrwt>0</asrwt>
<pdfrwt beam="1">  1        2 0.13587466E+00 0.85212644E+02</pdfrwt>
<pdfrwt beam="2">  1       -2 0.31621532E-03 0.85212644E+02</pdfrwt>
<totfact> 0.29546483E+05</totfact>
</mgrwt>
</event>
<event>
 5    1  0.3862918E+001  0.9031805E+02  0.7546771E-02  0.1302083E+00
          3   -1    0    0  501    0  0.00000000000E+00  0.00000000000E+00  0.55698785519E+02  0.55698785519E+02  0.00000000000E+00 0. -1.
         -3   -1    0    0    0  501 -0.00000000000E+00 -0.00000000000E+00 -0.36613677626E+02  0.36613677626E+02  0.00000000000E+00 0.  1.
         23    2    1    2    0    0  0.00000000000E+00  0.00000000000E+00  0.19085107893E+02  0.92312463145E+02  0.90318046417E+02 0.  0.
          2    1    3    3  502    0 -0.25359254358E+02 -0.27641083537E+02  0.35241693252E+02  0.51469391136E+02  0.00000000000E+00 0. -1.
         -2    1    3    3    0  502  0.25359254358E+02  0.27641083537E+02 -0.16156585358E+02  0.40843072009E+02  0.00000000000E+00 0.  1.
<mgrwt>
<rscale>  0 0.90318046E+02</rscale>
<asrwt>0</asrwt>
<pdfrwt beam="1">  1        3 0.85690440E-02 0.90318046E+02</pdfrwt>
<pdfrwt beam="2">  1       -3 0.56328735E-02 0.90318046E+02</pdfrwt>
<totfact> 0.36170537E+04</totfact>
</mgrwt>
</event>
<event>
 5    1  0.3862918E+001  0.9218017E+02  0.7546771E-02  0.1297656E+00
          1   -1    0    0  501    0  0.00000000000E+00  0.00000000000E+00  0.14984924472E+04  0.14984924472E+04  0.00000000000E+00 0. -1.
         -1   -1    0    0    0  501 -0.00000000000E+00 -0.00000000000E+00 -0.14176220159E+01  0.14176220159E+01  0.00000000000E+00 0.  1.
         23    2    1    2    0    0  0.00000000000E+00  0.00000000000E+00  0.14970748252E+04  0.14999100692E+04  0.92180168882E+02 0.  0.
          2    1    3    3  502    0 -0.32946496725E+02  0.24922596271E+02  0.41598971510E+03  0.41803594405E+03  0.00000000000E+00 0.  1.
         -2    1    3    3    0  502  0.32946496725E+02 -0.24922596271E+02  0.10810851101E+04  0.10818741252E+04  0.00000000000E+00 0. -1.
<mgrwt>
<rscale>  0 0.92180169E+02</rscale>
<asrwt>0</asrwt>
<pdfrwt beam="1">  1        1 0.23053603E+00 0.92180169E+02</pdfrwt>
<pdfrwt beam="2">  1       -1 0.21809689E-03 0.92180169E+02</pdfrwt>
<totfact> 0.10744204E+05</totfact>
</mgrwt>
</event>
<event>
 5    1  0.3862918E+001  0.8698731E+02  0.7546771E-02  0.1310316E+00
          1   -1    0    0  501    0  0.00000000000E+00  0.00000000000E+00  0.10069173925E+03  0.10069173925E+03  0.00000000000E+00 0. -1.
         -1   -1    0    0    0  501 -0.00000000000E+00 -0.00000000000E+00 -0.18787023144E+02  0.18787023144E+02  0.00000000000E+00 0.  1.
         23    2    1    2    0    0  0.00000000000E+00  0.00000000000E+00  0.81904716102E+02  0.11947876239E+03  0.86987310239E+02 0.  0.
          2    1    3    3  502    0  0.34186503023E+02  0.20830841991E+02  0.17600222102E+02  0.43731096316E+02  0.00000000000E+00 0. -1.
         -2    1    3    3    0  502 -0.34186503023E+02 -0.20830841991E+02  0.64304494001E+02  0.75747666074E+02  0.00000000000E+00 0.  1.
<mgrwt>
<rscale>  0 0.86987310E+02</rscale>
<asrwt>0</asrwt>
<pdfrwt beam="1">  1        1 0.15491036E-01 0.86987310E+02</pdfrwt>
<pdfrwt beam="2">  1       -1 0.28903113E-02 0.86987310E+02</pdfrwt>
<totfact> 0.11881723E+05</totfact>
</mgrwt>
</event>
<event>
 5    1  0.3862918E+001  0.9170371E+02  0.7546771E-02  0.1298778E+00
          1   -1    0    0  501    0  0.00000000000E+00  0.00000000000E+00  0.19761492097E+02  0.19761492097E+02  0.00000000000E+00 0. -1.
         -1   -1    0    0    0  501 -0.00000000000E+00 -0.00000000000E+00 -0.10638836033E+03  0.10638836033E+03  0.00000000000E+00 0.  1.
         23    2    1    2    0    0  0.00000000000E+00  0.00000000000E+00 -0.86626868230E+02  0.12614985242E+03  0.91703712942E+02 0.  0.
          2    1    3    3  502    0  0.43336911720E+01  0.44511811583E+02 -0.29399180531E+02  0.53520034244E+02  0.00000000000E+00 0. -1.
         -2    1    3    3    0  502 -0.43336911720E+01 -0.44511811583E+02 -0.57227687699E+02  0.72629818181E+02  0.00000000000E+00 0.  1.
<mgrwt>
<rscale>  0 0.91703713E+02</rscale>
<asrwt>0</asrwt>
<pdfrwt beam="1">  1        1 0.30402296E-02 0.91703713E+02</pdfrwt>
<pdfrwt beam="2">  1       -1 0.16367440E-01 0.91703713E+02</pdfrwt>
<totfact> 0.79237279E+04</totfact>
</mgrwt>
</event>
<event>
 5    1  0.3862918E+001  0.9371427E+02  0.7546771E-02  0.1294098E+00
         -1   -1    0    0    0  501 -0.00000000000E+00  0.00000000000E+00  0.81829658034E+02  0.81829658034E+02  0.00000000000E+00 0.  1.
          1   -1    0    0  501    0  0.00000000000E+00 -0.00000000000E+00 -0.26831240309E+02  0.26831240309E+02  0.00000000000E+00 0. -1.
         23    2    1    2    0    0  0.00000000000E+00  0.00000000000E+00  0.54998417725E+02  0.10866089834E+03  0.93714272533E+02 0.  0.
          2    1    3    3  502    0 -0.24399536380E+02 -0.21883534514E+02 -0.11328432092E+02  0.34677944461E+02  0.00000000000E+00 0. -1.
         -2    1    3    3    0  502  0.24399536380E+02  0.21883534514E+02  0.66326849817E+02  0.73982953881E+02  0.00000000000E+00 0.  1.
<mgrwt>
<rscale>  0 0.93714273E+02</rscale>
<asrwt>0</asrwt>
<pdfrwt beam="2">  1        1 0.41278832E-02 0.93714273E+02</pdfrwt>
<pdfrwt beam="1">  1       -1 0.12589178E-01 0.93714273E+02</pdfrwt>
<totfact> 0.78593717E+04</totfact>
</mgrwt>
</event>
<event>
 5    1  0.3862918E+001  0.9875136E+02  0.7546771E-02  0.1282944E+00
          2   -1    0    0  501    0  0.00000000000E+00  0.00000000000E+00  0.21548526142E+04  0.21548526142E+04  0.00000000000E+00 0. -1.
         -2   -1    0    0    0  501 -0.00000000000E+00 -0.00000000000E+00 -0.11313801828E+01  0.11313801828E+01  0.00000000000E+00 0.  1.
         23    2    1    2    0    0  0.00000000000E+00  0.00000000000E+00  0.21537212340E+04  0.21559839944E+04  0.98751355323E+02 0.  0.
          2    1    3    3  502    0 -0.44627532270E+02  0.20572692446E+02  0.97191660853E+03  0.97315813013E+03  0.00000000000E+00 0. -1.
         -2    1    3    3    0  502  0.44627532270E+02 -0.20572692446E+02  0.11818046255E+04  0.11828258643E+04  0.00000000000E+00 0.  1.
<mgrwt>
<rscale>  0 0.98751355E+02</rscale>
<asrwt>0</asrwt>
<pdfrwt beam="1">  1        2 0.33151250E+00 0.98751355E+02</pdfrwt>
<pdfrwt beam="2">  1       -2 0.17406021E-03 0.98751355E+02</pdfrwt>
<totfact> 0.14743991E+05</totfact>
</mgrwt>
</event>
<event>
 5    1  0.3862918E+001  0.9232474E+02  0.7546771E-02  0.1297318E+00
          1   -1    0    0  501    0  0.00000000000E+00  0.00000000000E+00  0.19268238894E+03  0.19268238894E+03  0.00000000000E+00 0. -1.
         -1   -1    0    0    0  501 -0.00000000000E+00 -0.00000000000E+00 -0.11059465682E+02  0.11059465682E+02  0.00000000000E+00 0.  1.
         23    2    1    2    0    0  0.00000000000E+00  0.00000000000E+00  0.18162292326E+03  0.20374185463E+03  0.92324737053E+02 0.  0.
          2    1    3    3  502    0  0.22858210041E+02 -0.66649227324E+01  0.17808585533E+03  0.17967050629E+03  0.00000000000E+00 0. -1.
         -2    1    3    3    0  502 -0.22858210041E+02  0.66649227324E+01  0.35370679341E+01  0.24071348339E+02  0.00000000000E+00 0.  1.
<mgrwt>
<rscale>  0 0.92324737E+02</rscale>
<asrwt>0</asrwt>
<pdfrwt beam="1">  1        1 0.29643442E-01 0.92324737E+02</pdfrwt>
<pdfrwt beam="2">  1       -1 0.17014564E-02 0.92324737E+02</pdfrwt>
<totfact> 0.11366772E+05</totfact>
</mgrwt>
</event>
<event>
 5    1  0.3862918E+001  0.9962360E+02  0.7546771E-02  0.1281089E+00
          1   -1    0    0  501    0  0.00000000000E+00  0.00000000000E+00  0.16642298312E+03  0.16642298312E+03  0.00000000000E+00 0. -1.
         -1   -1    0    0    0  501 -0.00000000000E+00 -0.00000000000E+00 -0.14909091044E+02  0.14909091044E+02  0.00000000000E+00 0.  1.
         23    2    1    2    0    0  0.00000000000E+00  0.00000000000E+00  0.15151389207E+03  0.18133207416E+03  0.99623599757E+02 0.  0.
          2    1    3    3  502    0  0.21333677331E+02 -0.68554162109E+01 -0.52170343124E+01  0.23007389398E+02  0.00000000000E+00 0.  1.
         -2    1    3    3    0  502 -0.21333677331E+02  0.68554162109E+01  0.15673092638E+03  0.15832468476E+03  0.00000000000E+00 0. -1.
<mgrwt>
<rscale>  0 0.99623600E+02</rscale>
<asrwt>0</asrwt>
<pdfrwt beam="1">  1        1 0.25603535E-01 0.99623600E+02</pdfrwt>
<pdfrwt beam="2">  1       -1 0.22937064E-02 0.99623600E+02</pdfrwt>
<totfact> 0.89939691E+04</totfact>
</mgrwt>
</event>
<event>
 5    1  0.3862918E+001  0.9266835E+02  0.7546771E-02  0.1296516E+00
         -2   -1    0    0    0  501 -0.00000000000E+00  0.00000000000E+00  0.18989077858E+01  0.18989077858E+01  0.00000000000E+00 0.  1.
          2   -1    0    0  501    0  0.00000000000E+00 -0.00000000000E+00 -0.11305740958E+04  0.11305740958E+04  0.00000000000E+00 0. -1.
         23    2    1    2    0    0  0.00000000000E+00  0.00000000000E+00 -0.11286751880E+04  0.11324730035E+04  0.92668353883E+02 0.  0.
          2    1    3    3  502    0 -0.13641149321E+02 -0.41441052158E+02 -0.75500188336E+03  0.75626138712E+03  0.00000000000E+00 0. -1.
         -2    1    3    3    0  502  0.13641149321E+02  0.41441052158E+02 -0.37367330461E+03  0.37621161643E+03  0.00000000000E+00 0.  1.
<mgrwt>
<rscale>  0 0.92668354E+02</rscale>
<asrwt>0</asrwt>
<pdfrwt beam="2">  1        2 0.17393509E+00 0.92668354E+02</pdfrwt>
<pdfrwt beam="1">  1       -2 0.29213863E-03 0.92668354E+02</pdfrwt>
<totfact> 0.23944062E+05</totfact>
</mgrwt>
</event>
<event>
 5    1  0.3862918E+001  0.8960575E+02  0.7546771E-02  0.1303809E+00
         -1   -1    0    0    0  501 -0.00000000000E+00  0.00000000000E+00  0.24742786399E+02  0.24742786399E+02  0.00000000000E+00 0.  1.
          1   -1    0    0  501    0  0.00000000000E+00 -0.00000000000E+00 -0.81126583889E+02  0.81126583889E+02  0.00000000000E+00 0. -1.
         23    2    1    2    0    0  0.00000000000E+00  0.00000000000E+00 -0.56383797490E+02  0.10586937029E+03  0.89605752860E+02 0.  0.
          2    1    3    3  502    0 -0.14255942363E+01  0.35431570470E+02 -0.60545840838E+02  0.70165713476E+02  0.00000000000E+00 0. -1.
         -2    1    3    3    0  502  0.14255942363E+01 -0.35431570470E+02  0.41620433474E+01  0.35703656811E+02  0.00000000000E+00 0.  1.
<mgrwt>
<rscale>  0 0.89605753E+02</rscale>
<asrwt>0</asrwt>
<pdfrwt beam="2">  1        1 0.12481013E-01 0.89605753E+02</pdfrwt>
<pdfrwt beam="1">  1       -1 0.38065825E-02 0.89605753E+02</pdfrwt>
<totfact> 0.10588848E+05</totfact>
</mgrwt>
</event>
<event>
 5    1  0.3862918E+001  0.9142171E+02  0.7546771E-02  0.1299445E+00
         -2   -1    0    0    0  501 -0.00000000000E+00  0.00000000000E+00  0.95787621474E+02  0.95787621474E+02  0.00000000000E+00 0.  1.
          2   -1    0    0  501    0  0.00000000000E+00 -0.00000000000E+00 -0.21813697803E+02  0.21813697803E+02  0.00000000000E+00 0. -1.
         23    2    1    2    0    0  0.00000000000E+00  0.00000000000E+00  0.73973923671E+02  0.11760131928E+03  0.91421709197E+02 0.  0.
          2    1    3    3  502    0  0.36175149145E+02 -0.15547564817E+02  0.71191656790E+01  0.40013131687E+02  0.00000000000E+00 0. -1.
         -2    1    3    3    0  502 -0.36175149145E+02  0.15547564817E+02  0.66854757991E+02  0.77588187590E+02  0.00000000000E+00 0.  1.
<mgrwt>
<rscale>  0 0.91421709E+02</rscale>
<asrwt>0</asrwt>
<pdfrwt beam="2">  1        2 0.33559535E-02 0.91421709E+02</pdfrwt>
<pdfrwt beam="1">  1       -2 0.14736557E-01 0.91421709E+02</pdfrwt>
<totfact> 0.80292110E+04</totfact>
</mgrwt>
</event>
<event>
 5    1  0.3862918E+001  0.9917838E+02  0.7546771E-02  0.1282033E+00
         -1   -1    0    0    0  501 -0.00000000000E+00  0.00000000000E+00  0.87517601869E+01  0.87517601869E+01  0.00000000000E+00 0.  1.
          1   -1    0    0  501    0  0.00000000000E+00 -0.00000000000E+00 -0.28098208697E+03  0.28098208697E+03  0.00000000000E+00 0. -1.
         23    2    1    2    0    0  0.00000000000E+00  0.00000000000E+00 -0.27223032678E+03  0.28973384716E+03  0.99178381555E+02 0.  0.
          2    1    3    3  502    0 -0.29338080858E+02  0.39757811506E+02 -0.12383118509E+03  0.13332505003E+03  0.00000000000E+00 0. -1.
         -2    1    3    3    0  502  0.29338080858E+02 -0.39757811506E+02 -0.14839914169E+03  0.15640879713E+03  0.00000000000E+00 0.  1.
<mgrwt>
<rscale>  0 0.99178382E+02</rscale>
<asrwt>0</asrwt>
<pdfrwt beam="2">  1        1 0.43228015E-01 0.99178382E+02</pdfrwt>
<pdfrwt beam="1">  1       -1 0.13464246E-02 0.99178382E+02</pdfrwt>
<totfact> 0.10098382E+05</totfact>
</mgrwt>
</event>
<event>
 5    1  0.3862918E+001  0.9094883E+02  0.7546771E-02  0.1300570E+00
         -1   -1    0    0    0  501 -0.00000000000E+00  0.00000000000E+00  0.68169074078E+02  0.68169074078E+02  0.00000000000E+00 0.  1.
          1   -1    0    0  501    0  0.00000000000E+00 -0.00000000000E+00 -0.30335197466E+02  0.30335197466E+02  0.00000000000E+00 0. -1.
         23    2    1    2    0    0  0.00000000000E+00  0.00000000000E+00  0.37833876612E+02  0.98504271544E+02  0.90948827880E+02 0.  0.
          2    1    3    3  502    0  0.42047380214E+02 -0.17318724878E+02  0.18869617143E+02  0.49233960488E+02  0.00000000000E+00 0. -1.
         -2    1    3    3    0  502 -0.42047380214E+02  0.17318724878E+02  0.18964259469E+02  0.49270311055E+02  0.00000000000E+00 0.  1.
<mgrwt>
<rscale>  0 0.90948828E+02</rscale>
<asrwt>0</asrwt>
<pdfrwt beam="2">  1        1 0.46669535E-02 0.90948828E+02</pdfrwt>
<pdfrwt beam="1">  1       -1 0.10487550E-01 0.90948828E+02</pdfrwt>
<totfact> 0.87465916E+04</totfact>
</mgrwt>
</event>
<event>
 5    1  0.3862918E+001  0.9180130E+02  0.7546771E-02  0.1298547E+00
         -2   -1    0    0    0  501 -0.00000000000E+00  0.00000000000E+00  0.14926924557E+02  0.14926924557E+02  0.00000000000E+00 0.  1.
          2   -1    0    0  501    0  0.00000000000E+00 -0.00000000000E+00 -0.14114560935E+03  0.14114560935E+03  0.00000000000E+00 0. -1.
         23    2    1    2    0    0  0.00000000000E+00  0.00000000000E+00 -0.12621868480E+03  0.15607253391E+03  0.91801304182E+02 0.  0.
          2    1    3    3  502    0  0.32401276532E+02 -0.41907464242E+01 -0.82964750939E+01  0.33708108453E+02  0.00000000000E+00 0. -1.
         -2    1    3    3    0  502 -0.32401276532E+02  0.41907464242E+01 -0.11792220970E+03  0.12236442546E+03  0.00000000000E+00 0.  1.
<mgrwt>
<rscale>  0 0.91801304E+02</rscale>
<asrwt>0</asrwt>
<pdfrwt beam="2">  1        2 0.21714708E-01 0.91801304E+02</pdfrwt>
<pdfrwt beam="1">  1       -2 0.22964500E-02 0.91801304E+02</pdfrwt>
<totfact> 0.13444458E+05</totfact>
</mgrwt>
</event>
<event>
 5    1  0.3862918E+001  0.9319636E+02  0.7546771E-02  0.1295291E+00
         -1   -1    0    0    0  501 -0.00000000000E+00  0.00000000000E+00  0.31755356739E+01  0.31755356739E+01  0.00000000000E+00 0.  1.
          1   -1    0    0  501    0  0.00000000000E+00 -0.00000000000E+00 -0.68378714483E+03  0.68378714483E+03  0.00000000000E+00 0. -1.
         23    2    1    2    0    0  0.00000000000E+00  0.00000000000E+00 -0.68061160915E+03  0.68696268050E+03  0.93196361983E+02 0.  0.
          2    1    3    3  502    0  0.30388549055E+02 -0.32756930473E+02 -0.24281995422E+03  0.24689676097E+03  0.00000000000E+00 0. -1.
         -2    1    3    3    0  502 -0.30388549055E+02  0.32756930473E+02 -0.43779165493E+03  0.44006591953E+03  0.00000000000E+00 0.  1.
<mgrwt>
<rscale>  0 0.93196362E+02</rscale>
<asrwt>0</asrwt>
<pdfrwt beam="2">  1        1 0.10519807E+00 0.93196362E+02</pdfrwt>
<pdfrwt beam="1">  1       -1 0.48854373E-03 0.93196362E+02</pdfrwt>
<totfact> 0.13417111E+05</totfact>
</mgrwt>
</event>
<event>
 5    1  0.3862918E+001  0.9111474E+02  0.7546771E-02  0.1300174E+00
         -2   -1    0    0    0  501 -0.00000000000E+00  0.00000000000E+00  0.10733753783E+01  0.10733753783E+01  0.00000000000E+00 0.  1.
          2   -1    0    0  501    0  0.00000000000E+00 -0.00000000000E+00 -0.19335956799E+04  0.19335956799E+04  0.00000000000E+00 0. -1.
         23    2    1    2    0    0  0.00000000000E+00  0.00000000000E+00 -0.19325223045E+04  0.19346690553E+04  0.91114740727E+02 0.  0.
          2    1    3    3  502    0  0.31290076980E+02  0.90649067113E+01 -0.16424792852E+04  0.16428023143E+04  0.00000000000E+00 0. -1.
         -2    1    3    3    0  502 -0.31290076980E+02 -0.90649067113E+01 -0.29004301932E+03  0.29186674101E+03  0.00000000000E+00 0.  1.
<mgrwt>
<rscale>  0 0.91114741E+02</rscale>
<asrwt>0</asrwt>
<pdfrwt beam="2">  1        2 0.29747354E+00 0.91114741E+02</pdfrwt>
<pdfrwt beam="1">  1       -2 0.16513618E-03 0.91114741E+02</pdfrwt>
<totfact> 0.20318783E+05</totfact>
</mgrwt>
</event>
<event>
 5    1  0.3862918E+001  0.9117148E+02  0.7546771E-02  0.1300039E+00
          1   -1    0    0  501    0  0.00000000000E+00  0.00000000000E+00  0.67525957464E+03  0.67525957464E+03  0.00000000000E+00 0. -1.
         -1   -1    0    0    0  501 -0.00000000000E+00 -0.00000000000E+00 -0.30774238197E+01  0.30774238197E+01  0.00000000000E+00 0.  1.
         23    2    1    2    0    0  0.00000000000E+00  0.00000000000E+00  0.67218215082E+03  0.67833699846E+03  0.91171484565E+02 0.  0.
          2    1    3    3  502    0 -0.31984865555E+02  0.77300736115E+01  0.57081527131E+03  0.57176294006E+03  0.00000000000E+00 0. -1.
         -2    1    3    3    0  502  0.31984865555E+02 -0.77300736115E+01  0.10136687951E+03  0.10657405840E+03  0.00000000000E+00 0.  1.
<mgrwt>
<rscale>  0 0.91171485E+02</rscale>
<asrwt>0</asrwt>
<pdfrwt beam="1">  1        1 0.10388597E+00 0.91171485E+02</pdfrwt>
<pdfrwt beam="2">  1       -1 0.47345036E-03 0.91171485E+02</pdfrwt>
<totfact> 0.14219837E+05</totfact>
</mgrwt>
</event>
<event>
 5    1  0.3862918E+001  0.9190299E+02  0.7546771E-02  0.1298308E+00
         -1   -1    0    0    0  501 -0.00000000000E+00  0.00000000000E+00  0.24093902359E+02  0.24093902359E+02  0.00000000000E+00 0.  1.
          1   -1    0    0  501    0  0.00000000000E+00 -0.00000000000E+00 -0.87637937215E+02  0.87637937215E+02  0.00000000000E+00 0. -1.
         23    2    1    2    0    0  0.00000000000E+00  0.00000000000E+00 -0.63544034857E+02  0.11173183957E+03  0.91902990206E+02 0.  0.
          2    1    3    3  502    0  0.43340868465E+02  0.66101273929E+01 -0.48504283613E+02  0.65381879694E+02  0.00000000000E+00 0. -1.
         -2    1    3    3    0  502 -0.43340868465E+02 -0.66101273929E+01 -0.15039751243E+02  0.46349959880E+02  0.00000000000E+00 0.  1.
<mgrwt>
<rscale>  0 0.91902990E+02</rscale>
<asrwt>0</asrwt>
<pdfrwt beam="2">  1        1 0.13482760E-01 0.91902990E+02</pdfrwt>
<pdfrwt beam="1">  1       -1 0.37067542E-02 0.91902990E+02</pdfrwt>
<totfact> 0.10002137E+05</totfact>
</mgrwt>
</event>
<event>
 5    1  0.3862918E+001  0.9180878E+02  0.7546771E-02  0.1298530E+00
         -2   -1    0    0    0  501 -0.00000000000E+00  0.00000000000E+00  0.80667840275E+01  0.80667840275E+01  0.00000000000E+00 0.  1.
          2   -1    0    0  501    0  0.00000000000E+00 -0.00000000000E+00 -0.26122094141E+03  0.26122094141E+03  0.00000000000E+00 0. -1.
         23    2    1    2    0    0  0.00000000000E+00  0.00000000000E+00 -0.25315415738E+03  0.26928772544E+03  0.91808777746E+02 0.  0.
          2    1    3    3  502    0  0.19461320550E+02 -0.11833693232E+02 -0.24347771855E+03  0.24454075064E+03  0.00000000000E+00 0. -1.
         -2    1    3    3    0  502 -0.19461320550E+02  0.11833693232E+02 -0.96764388286E+01  0.24746974794E+02  0.00000000000E+00 0.  1.
<mgrwt>
<rscale>  0 0.91808778E+02</rscale>
<asrwt>0</asrwt>
<pdfrwt beam="2">  1        2 0.40187839E-01 0.91808778E+02</pdfrwt>
<pdfrwt beam="1">  1       -2 0.12410437E-02 0.91808778E+02</pdfrwt>
<totfact> 0.16749218E+05</totfact>
</mgrwt>
</event>
<event>
 5    1  0.3862918E+001  0.8942219E+02  0.7546771E-02  0.1304257E+00
         -1   -1    0    0    0  501 -0.00000000000E+00  0.00000000000E+00  0.18842067580E+02  0.18842067580E+02  0.00000000000E+00 0.  1.
          1   -1    0    0  501    0  0.00000000000E+00 -0.00000000000E+00 -0.10609675175E+03  0.10609675175E+03  0.00000000000E+00 0. -1.
         23    2    1    2    0    0  0.00000000000E+00  0.00000000000E+00 -0.87254684171E+02  0.12493881933E+03  0.89422193364E+02 0.  0.
          2    1    3    3  502    0  0.43599466551E+02 -0.97177509605E+01 -0.46327189312E+02  0.64354927060E+02  0.00000000000E+00 0. -1.
         -2    1    3    3    0  502 -0.43599466551E+02  0.97177509605E+01 -0.40927494859E+02  0.60583892271E+02  0.00000000000E+00 0.  1.
<mgrwt>
<rscale>  0 0.89422193E+02</rscale>
<asrwt>0</asrwt>
<pdfrwt beam="2">  1        1 0.16322577E-01 0.89422193E+02</pdfrwt>
<pdfrwt beam="1">  1       -1 0.28987797E-02 0.89422193E+02</pdfrwt>
<totfact> 0.11120913E+05</totfact>
</mgrwt>
</event>
<event>
 5    1  0.3862918E+001  0.8982096E+02  0.7546771E-02  0.1303286E+00
         -3   -1    0    0    0  501 -0.00000000000E+00  0.00000000000E+00  0.87874748491E+02  0.87874748491E+02  0.00000000000E+00 0.  1.
          3   -1    0    0  501    0  0.00000000000E+00 -0.00000000000E+00 -0.22952570554E+02  0.22952570554E+02  0.00000000000E+00 0. -1.
         23    2    1    2    0    0  0.00000000000E+00  0.00000000000E+00  0.64922177937E+02  0.11082731904E+03  0.89820963358E+02 0.  0.
          2    1    3    3  502    0 -0.31889364862E+02  0.30631091549E+02  0.22764729405E+02  0.49733572822E+02  0.00000000000E+00 0. -1.
         -2    1    3    3    0  502  0.31889364862E+02 -0.30631091549E+02  0.42157448531E+02  0.61093746222E+02  0.00000000000E+00 0.  1.
<mgrwt>
<rscale>  0 0.89820963E+02</rscale>
<asrwt>0</asrwt>
<pdfrwt beam="2">  1        3 0.35311647E-02 0.89820963E+02</pdfrwt>
<pdfrwt beam="1">  1       -3 0.13519192E-01 0.89820963E+02</pdfrwt>
<totfact> 0.35292830E+04</totfact>
</mgrwt>
</event>
<event>
 5    1  0.3862918E+001  0.9123080E+02  0.7546771E-02  0.1299898E+00
          1   -1    0    0  501    0  0.00000000000E+00  0.00000000000E+00  0.79778019168E+03  0.79778019168E+03  0.00000000000E+00 0. -1.
         -1   -1    0    0    0  501 -0.00000000000E+00 -0.00000000000E+00 -0.26081929112E+01  0.26081929112E+01  0.00000000000E+00 0.  1.
         23    2    1    2    0    0  0.00000000000E+00  0.00000000000E+00  0.79517199876E+03  0.80038838459E+03  0.91230798322E+02 0.  0.
          2    1    3    3  502    0 -0.33820523017E+02  0.13282420349E+02  0.63952894191E+03  0.64056031567E+03  0.00000000000E+00 0. -1.
         -2    1    3    3    0  502  0.33820523017E+02 -0.13282420349E+02  0.15564305686E+03  0.15982806892E+03  0.00000000000E+00 0.  1.
<mgrwt>
<rscale>  0 0.91230798E+02</rscale>
<asrwt>0</asrwt>
<pdfrwt beam="1">  1        1 0.12273522E+00 0.91230798E+02</pdfrwt>
<pdfrwt beam="2">  1       -1 0.40126108E-03 0.91230798E+02</pdfrwt>
<totfact> 0.14111169E+05</totfact>
</mgrwt>
</event>
<event>
 5    1  0.3862918E+001  0.9133860E+02  0.7546771E-02  0.1299642E+00
         -2   -1    0    0    0  501 -0.00000000000E+00  0.00000000000E+00  0.13237906171E+01  0.13237906171E+01  0.00000000000E+00 0.  1.
          2   -1    0    0  501    0  0.00000000000E+00 -0.00000000000E+00 -0.15755398030E+04  0.15755398030E+04  0.00000000000E+00 0. -1.
         23    2    1    2    0    0  0.00000000000E+00  0.00000000000E+00 -0.15742160124E+04  0.15768635936E+04  0.91338596618E+02 0.  0.
          2    1    3    3  502    0  0.22375042287E+02  0.26590914729E+02 -0.12986467446E+04  0.12991116528E+04  0.00000000000E+00 0. -1.
         -2    1    3    3    0  502 -0.22375042287E+02 -0.26590914729E+02 -0.27556926777E+03  0.27775194077E+03  0.00000000000E+00 0.  1.
<mgrwt>
<rscale>  0 0.91338597E+02</rscale>
<asrwt>0</asrwt>
<pdfrwt beam="2">  1        2 0.24239155E+00 0.91338597E+02</pdfrwt>
<pdfrwt beam="1">  1       -2 0.20365941E-03 0.91338597E+02</pdfrwt>
<totfact> 0.23012110E+05</totfact>
</mgrwt>
</event>
<event>
 5    1  0.3862918E+001  0.9075528E+02  0.7546771E-02  0.1301033E+00
          2   -1    0    0  501    0  0.00000000000E+00  0.00000000000E+00  0.11905772714E+02  0.11905772714E+02  0.00000000000E+00 0. -1.
         -2   -1    0    0    0  501 -0.00000000000E+00 -0.00000000000E+00 -0.17295225985E+03  0.17295225985E+03  0.00000000000E+00 0.  1.
         23    2    1    2    0    0  0.00000000000E+00  0.00000000000E+00 -0.16104648714E+03  0.18485803257E+03  0.90755281856E+02 0.  0.
          2    1    3    3  502    0 -0.33947114060E+02  0.20729275329E+02 -0.36036039228E+02  0.53672204463E+02  0.00000000000E+00 0. -1.
         -2    1    3    3    0  502  0.33947114060E+02 -0.20729275329E+02 -0.12501044791E+03  0.13118582810E+03  0.00000000000E+00 0.  1.
<mgrwt>
<rscale>  0 0.90755282E+02</rscale>
<asrwt>0</asrwt>
<pdfrwt beam="1">  1        2 0.18316575E-02 0.90755282E+02</pdfrwt>
<pdfrwt beam="2">  1       -2 0.26608038E-01 0.90755282E+02</pdfrwt>
<totfact> 0.66968275E+04</totfact>
</mgrwt>
</event>
<event>
 5    1  0.3862918E+001  0.9056058E+02  0.7546771E-02  0.1301500E+00
         -4   -1    0    0    0  501 -0.00000000000E+00  0.00000000000E+00  0.81631394526E+02  0.81631394526E+02  0.00000000000E+00 0.  1.
          4   -1    0    0  501    0  0.00000000000E+00 -0.00000000000E+00 -0.25116617129E+02  0.25116617129E+02  0.00000000000E+00 0. -1.
         23    2    1    2    0    0  0.00000000000E+00  0.00000000000E+00  0.56514777397E+02  0.10674801165E+03  0.90560576014E+02 0.  0.
          2    1    3    3  502    0 -0.21927669236E+02  0.25509345987E+02 -0.74715809976E+01  0.34458292666E+02  0.00000000000E+00 0. -1.
         -2    1    3    3    0  502  0.21927669236E+02 -0.25509345987E+02  0.63986358395E+02  0.72289718989E+02  0.00000000000E+00 0.  1.
<mgrwt>
<rscale>  0 0.90560576E+02</rscale>
<asrwt>0</asrwt>
<pdfrwt beam="2">  1        4 0.38640950E-02 0.90560576E+02</pdfrwt>
<pdfrwt beam="1">  1       -4 0.12558676E-01 0.90560576E+02</pdfrwt>
<totfact> 0.26528617E+04</totfact>
</mgrwt>
</event>
<event>
 5    1  0.3862918E+001  0.9165863E+02  0.7546771E-02  0.1298884E+00
          2   -1    0    0  501    0  0.00000000000E+00  0.00000000000E+00  0.59675118717E+03  0.59675118717E+03  0.00000000000E+00 0. -1.
         -2   -1    0    0    0  501 -0.00000000000E+00 -0.00000000000E+00 -0.35196012849E+01  0.35196012849E+01  0.00000000000E+00 0.  1.
         23    2    1    2    0    0  0.00000000000E+00  0.00000000000E+00  0.59323158588E+03  0.60027078845E+03  0.91658632874E+02 0.  0.
          2    1    3    3  502    0  0.31594559229E+02 -0.80754109198E+01  0.50749891029E+03  0.50854554603E+03  0.00000000000E+00 0. -1.
         -2    1    3    3    0  502 -0.31594559229E+02  0.80754109198E+01  0.85732675590E+02  0.91725242427E+02  0.00000000000E+00 0.  1.
<mgrwt>
<rscale>  0 0.91658633E+02</rscale>
<asrwt>0</asrwt>
<pdfrwt beam="1">  1        2 0.91807795E-01 0.91658633E+02</pdfrwt>
<pdfrwt beam="2">  1       -2 0.54147760E-03 0.91658633E+02</pdfrwt>
<totfact> 0.22435146E+05</totfact>
</mgrwt>
</event>
<event>
 5    1  0.3862918E+001  0.1142412E+03  0.7546771E-02  0.1252911E+00
         -4   -1    0    0    0  501 -0.00000000000E+00  0.00000000000E+00  0.99411014499E+02  0.99411014499E+02  0.00000000000E+00 0.  1.
          4   -1    0    0  501    0  0.00000000000E+00 -0.00000000000E+00 -0.32820959509E+02  0.32820959509E+02  0.00000000000E+00 0. -1.
         23    2    1    2    0    0  0.00000000000E+00  0.00000000000E+00  0.66590054990E+02  0.13223197401E+03  0.11424123391E+03 0.  0.
          2    1    3    3  502    0 -0.10916166606E+02  0.49798347144E+02  0.34749837474E+01  0.51099056584E+02  0.00000000000E+00 0. -1.
         -2    1    3    3    0  502  0.10916166606E+02 -0.49798347144E+02  0.63115071243E+02  0.81132917424E+02  0.00000000000E+00 0.  1.
<mgrwt>
<rscale>  0 0.11424123E+03</rscale>
<asrwt>0</asrwt>
<pdfrwt beam="2">  1        4 0.50493785E-02 0.11424123E+03</pdfrwt>
<pdfrwt beam="1">  1       -4 0.15294002E-01 0.11424123E+03</pdfrwt>
<totfact> 0.13252924E+04</totfact>
</mgrwt>
</event>
<event>
 5    1  0.3862918E+001  0.9975144E+02  0.7546771E-02  0.1280820E+00
          1   -1    0    0  501    0  0.00000000000E+00  0.00000000000E+00  0.21300607212E+03  0.21300607212E+03  0.00000000000E+00 0. -1.
         -1   -1    0    0    0  501 -0.00000000000E+00 -0.00000000000E+00 -0.11678481315E+02  0.11678481315E+02  0.00000000000E+00 0.  1.
         23    2    1    2    0    0  0.00000000000E+00  0.00000000000E+00  0.20132759080E+03  0.22468455343E+03  0.99751439755E+02 0.  0.
          2    1    3    3  502    0  0.31424957803E+02 -0.36419029422E+02  0.13035112606E+03  0.13894347679E+03  0.00000000000E+00 0. -1.
         -2    1    3    3    0  502 -0.31424957803E+02  0.36419029422E+02  0.70976464746E+02  0.85741076648E+02  0.00000000000E+00 0.  1.
<mgrwt>
<rscale>  0 0.99751440E+02</rscale>
<asrwt>0</asrwt>
<pdfrwt beam="1">  1        1 0.32770162E-01 0.99751440E+02</pdfrwt>
<pdfrwt beam="2">  1       -1 0.17966896E-02 0.99751440E+02</pdfrwt>
<totfact> 0.94092434E+04</totfact>
</mgrwt>
</event>
<event>
 5    1  0.3862918E+001  0.7308444E+02  0.7546771E-02  0.1349908E+00
         -1   -1    0    0    0  501 -0.00000000000E+00  0.00000000000E+00  0.48727739919E+03  0.48727739919E+03  0.00000000000E+00 0.  1.
          1   -1    0    0  501    0  0.00000000000E+00 -0.00000000000E+00 -0.27403978517E+01  0.27403978517E+01  0.00000000000E+00 0. -1.
         23    2    1    2    0    0  0.00000000000E+00  0.00000000000E+00  0.48453700134E+03  0.49001779704E+03  0.73084442611E+02 0.  0.
          2    1    3    3  502    0  0.10626592969E+02 -0.29681424356E+02  0.11837943189E+03  0.12250551549E+03  0.00000000000E+00 0. -1.
         -2    1    3    3    0  502 -0.10626592969E+02  0.29681424356E+02  0.36615756944E+03  0.36751228155E+03  0.00000000000E+00 0.  1.
<mgrwt>
<rscale>  0 0.73084443E+02</rscale>
<asrwt>0</asrwt>
<pdfrwt beam="2">  1        1 0.42160006E-03 0.73084443E+02</pdfrwt>
<pdfrwt beam="1">  1       -1 0.74965685E-01 0.73084443E+02</pdfrwt>
<totfact> 0.84911252E+04</totfact>
</mgrwt>
</event>
<event>
 5    1  0.3862918E+001  0.9240834E+02  0.7546771E-02  0.1297122E+00
         -2   -1    0    0    0  501 -0.00000000000E+00  0.00000000000E+00  0.11610584162E+01  0.11610584162E+01  0.00000000000E+00 0. -1.
          2   -1    0    0  501    0  0.00000000000E+00 -0.00000000000E+00 -0.18386891631E+04  0.18386891631E+04  0.00000000000E+00 0.  1.
         23    2    1    2    0    0  0.00000000000E+00  0.00000000000E+00 -0.18375281047E+04  0.18398502215E+04  0.92408344377E+02 0.  0.
          2    1    3    3  502    0 -0.36517439186E+02 -0.25163516541E+02 -0.11769036435E+04  0.11777388980E+04  0.00000000000E+00 0. -1.
         -2    1    3    3    0  502  0.36517439186E+02  0.25163516541E+02 -0.66062446119E+03  0.66211132346E+03  0.00000000000E+00 0.  1.
<mgrwt>
<rscale>  0 0.92408344E+02</rscale>
<asrwt>0</asrwt>
<pdfrwt beam="2">  1        2 0.28287560E+00 0.92408344E+02</pdfrwt>
<pdfrwt beam="1">  1       -2 0.17862415E-03 0.92408344E+02</pdfrwt>
<totfact> 0.20374297E+05</totfact>
</mgrwt>
</event>
<event>
 5    1  0.3862918E+001  0.9188644E+02  0.7546771E-02  0.1298347E+00
          3   -1    0    0  501    0  0.00000000000E+00  0.00000000000E+00  0.38831222781E+02  0.38831222781E+02  0.00000000000E+00 0. -1.
         -3   -1    0    0    0  501 -0.00000000000E+00 -0.00000000000E+00 -0.54357791792E+02  0.54357791792E+02  0.00000000000E+00 0.  1.
         23    2    1    2    0    0  0.00000000000E+00  0.00000000000E+00 -0.15526569010E+02  0.93189014573E+02  0.91886441284E+02 0.  0.
          2    1    3    3  502    0 -0.16409567006E+02 -0.18338976805E+02 -0.47110010244E+02  0.53150211897E+02  0.00000000000E+00 0.  1.
         -2    1    3    3    0  502  0.16409567006E+02  0.18338976805E+02  0.31583441234E+02  0.40038802676E+02  0.00000000000E+00 0. -1.
<mgrwt>
<rscale>  0 0.91886441E+02</rscale>
<asrwt>0</asrwt>
<pdfrwt beam="1">  1        3 0.59740342E-02 0.91886441E+02</pdfrwt>
<pdfrwt beam="2">  1       -3 0.83627372E-02 0.91886441E+02</pdfrwt>
<totfact> 0.34448502E+04</totfact>
</mgrwt>
</event>
<event>
 5    1  0.3862918E+001  0.9061223E+02  0.7546771E-02  0.1301376E+00
          1   -1    0    0  501    0  0.00000000000E+00  0.00000000000E+00  0.98472175484E+02  0.98472175484E+02  0.00000000000E+00 0. -1.
         -1   -1    0    0    0  501 -0.00000000000E+00 -0.00000000000E+00 -0.20844913979E+02  0.20844913979E+02  0.00000000000E+00 0.  1.
         23    2    1    2    0    0  0.00000000000E+00  0.00000000000E+00  0.77627261505E+02  0.11931708946E+03  0.90612229357E+02 0.  0.
          2    1    3    3  502    0  0.72556641136E+01 -0.30184481059E+02  0.82265566638E+02  0.87928215112E+02  0.00000000000E+00 0. -1.
         -2    1    3    3    0  502 -0.72556641136E+01  0.30184481059E+02 -0.46383051328E+01  0.31388874351E+02  0.00000000000E+00 0.  1.
<mgrwt>
<rscale>  0 0.90612229E+02</rscale>
<asrwt>0</asrwt>
<pdfrwt beam="1">  1        1 0.15149565E-01 0.90612229E+02</pdfrwt>
<pdfrwt beam="2">  1       -1 0.32069099E-02 0.90612229E+02</pdfrwt>
<totfact> 0.10596366E+05</totfact>
</mgrwt>
</event>
<event>
 5    1  0.3862918E+001  0.9025385E+02  0.7546771E-02  0.1302238E+00
          1   -1    0    0  501    0  0.00000000000E+00  0.00000000000E+00  0.30991036711E+03  0.30991036711E+03  0.00000000000E+00 0. -1.
         -1   -1    0    0    0  501 -0.00000000000E+00 -0.00000000000E+00 -0.65710593479E+01  0.65710593479E+01  0.00000000000E+00 0.  1.
         23    2    1    2    0    0  0.00000000000E+00  0.00000000000E+00  0.30333930776E+03  0.31648142645E+03  0.90253851215E+02 0.  0.
          2    1    3    3  502    0  0.18398903552E+02 -0.40415843150E+02  0.12351222933E+03  0.13125254597E+03  0.00000000000E+00 0. -1.
         -2    1    3    3    0  502 -0.18398903552E+02  0.40415843150E+02  0.17982707843E+03  0.18522888049E+03  0.00000000000E+00 0.  1.
<mgrwt>
<rscale>  0 0.90253851E+02</rscale>
<asrwt>0</asrwt>
<pdfrwt beam="1">  1        1 0.47678507E-01 0.90253851E+02</pdfrwt>
<pdfrwt beam="2">  1       -1 0.10109324E-02 0.90253851E+02</pdfrwt>
<totfact> 0.13245197E+05</totfact>
</mgrwt>
</event>
<event>
 5    1  0.3862918E+001  0.8878885E+02  0.7546771E-02  0.1305811E+00
         -2   -1    0    0    0  501 -0.00000000000E+00  0.00000000000E+00  0.86184939193E+01  0.86184939193E+01  0.00000000000E+00 0.  1.
          2   -1    0    0  501    0  0.00000000000E+00 -0.00000000000E+00 -0.22867857468E+03  0.22867857468E+03  0.00000000000E+00 0. -1.
         23    2    1    2    0    0  0.00000000000E+00  0.00000000000E+00 -0.22006008077E+03  0.23729706860E+03  0.88788848520E+02 0.  0.
          2    1    3    3  502    0 -0.43255002031E+02 -0.87929809766E+01 -0.12272227060E+03  0.13041881542E+03  0.00000000000E+00 0. -1.
         -2    1    3    3    0  502  0.43255002031E+02  0.87929809766E+01 -0.97337810168E+02  0.10687825318E+03  0.00000000000E+00 0.  1.
<mgrwt>
<rscale>  0 0.88788849E+02</rscale>
<asrwt>0</asrwt>
<pdfrwt beam="2">  1        2 0.35181319E-01 0.88788849E+02</pdfrwt>
<pdfrwt beam="1">  1       -2 0.13259221E-02 0.88788849E+02</pdfrwt>
<totfact> 0.17439287E+05</totfact>
</mgrwt>
</event>
<event>
 5    1  0.3862918E+001  0.9198382E+02  0.7546771E-02  0.1298117E+00
          1   -1    0    0  501    0  0.00000000000E+00  0.00000000000E+00  0.76640696844E+03  0.76640696844E+03  0.00000000000E+00 0. -1.
         -1   -1    0    0    0  501 -0.00000000000E+00 -0.00000000000E+00 -0.27599641002E+01  0.27599641002E+01  0.00000000000E+00 0.  1.
         23    2    1    2    0    0  0.00000000000E+00  0.00000000000E+00  0.76364700434E+03  0.76916693254E+03  0.91983818557E+02 0.  0.
          2    1    3    3  502    0  0.21946687107E+02 -0.16263242595E+01  0.44124335899E+02  0.49307798817E+02  0.00000000000E+00 0.  1.
         -2    1    3    3    0  502 -0.21946687107E+02  0.16263242595E+01  0.71952266844E+03  0.71985913373E+03  0.00000000000E+00 0. -1.
<mgrwt>
<rscale>  0 0.91983819E+02</rscale>
<asrwt>0</asrwt>
<pdfrwt beam="1">  1        1 0.11790860E+00 0.91983819E+02</pdfrwt>
<pdfrwt beam="2">  1       -1 0.42461047E-03 0.91983819E+02</pdfrwt>
<totfact> 0.13847908E+05</totfact>
</mgrwt>
</event>
<event>
 5    1  0.3862918E+001  0.8998854E+02  0.7546771E-02  0.1302879E+00
         -2   -1    0    0    0  501 -0.00000000000E+00  0.00000000000E+00  0.43911336489E+03  0.43911336489E+03  0.00000000000E+00 0.  1.
          2   -1    0    0  501    0  0.00000000000E+00 -0.00000000000E+00 -0.46103908308E+01  0.46103908308E+01  0.00000000000E+00 0. -1.
         23    2    1    2    0    0  0.00000000000E+00  0.00000000000E+00  0.43450297406E+03  0.44372375572E+03  0.89988537741E+02 0.  0.
          2    1    3    3  502    0  0.66997667677E+01 -0.44381009509E+02  0.23278446300E+03  0.23707207152E+03  0.00000000000E+00 0. -1.
         -2    1    3    3    0  502 -0.66997667677E+01  0.44381009509E+02  0.20171851106E+03  0.20665168420E+03  0.00000000000E+00 0.  1.
<mgrwt>
<rscale>  0 0.89988538E+02</rscale>
<asrwt>0</asrwt>
<pdfrwt beam="2">  1        2 0.70929124E-03 0.89988538E+02</pdfrwt>
<pdfrwt beam="1">  1       -2 0.67555870E-01 0.89988538E+02</pdfrwt>
<totfact> 0.41385130E+04</totfact>
</mgrwt>
</event>
<event>
 5    1  0.3862918E+001  0.9310411E+02  0.7546771E-02  0.1295504E+00
         -1   -1    0    0    0  501 -0.00000000000E+00  0.00000000000E+00  0.21396743878E+03  0.21396743878E+03  0.00000000000E+00 0.  1.
          1   -1    0    0  501    0  0.00000000000E+00 -0.00000000000E+00 -0.10128147090E+02  0.10128147090E+02  0.00000000000E+00 0. -1.
         23    2    1    2    0    0  0.00000000000E+00  0.00000000000E+00  0.20383929169E+03  0.22409558587E+03  0.93104107156E+02 0.  0.
          2    1    3    3  502    0 -0.14757722988E+01  0.44744016638E+02  0.71200437056E+02  0.84105333753E+02  0.00000000000E+00 0.  1.
         -2    1    3    3    0  502  0.14757722988E+01 -0.44744016638E+02  0.13263885463E+03  0.13999025212E+03  0.00000000000E+00 0. -1.
<mgrwt>
<rscale>  0 0.93104107E+02</rscale>
<asrwt>0</asrwt>
<pdfrwt beam="2">  1        1 0.15581766E-02 0.93104107E+02</pdfrwt>
<pdfrwt beam="1">  1       -1 0.32918064E-01 0.93104107E+02</pdfrwt>
<totfact> 0.64445925E+04</totfact>
</mgrwt>
</event>
<event>
 5    1  0.3862918E+001  0.9230373E+02  0.7546771E-02  0.1297367E+00
         -3   -1    0    0    0  501 -0.00000000000E+00  0.00000000000E+00  0.95261910861E+02  0.95261910861E+02  0.00000000000E+00 0.  1.
          3   -1    0    0  501    0  0.00000000000E+00 -0.00000000000E+00 -0.22359351628E+02  0.22359351628E+02  0.00000000000E+00 0. -1.
         23    2    1    2    0    0  0.00000000000E+00  0.00000000000E+00  0.72902559233E+02  0.11762126249E+03  0.92303728238E+02 0.  0.
          2    1    3    3  502    0 -0.39359024160E+02 -0.68990178370E+01  0.70248027283E+01  0.40571875521E+02  0.00000000000E+00 0. -1.
         -2    1    3    3    0  502  0.39359024160E+02  0.68990178370E+01  0.65877756505E+02  0.77049386967E+02  0.00000000000E+00 0.  1.
<mgrwt>
<rscale>  0 0.92303728E+02</rscale>
<asrwt>0</asrwt>
<pdfrwt beam="2">  1        3 0.34399003E-02 0.92303728E+02</pdfrwt>
<pdfrwt beam="1">  1       -3 0.14655678E-01 0.92303728E+02</pdfrwt>
<totfact> 0.32312470E+04</totfact>
</mgrwt>
</event>
<event>
 5    1  0.3862918E+001  0.8783510E+02  0.7546771E-02  0.1308181E+00
         -2   -1    0    0    0  501 -0.00000000000E+00  0.00000000000E+00  0.20729869348E+01  0.20729869348E+01  0.00000000000E+00 0.  1.
          2   -1    0    0  501    0  0.00000000000E+00 -0.00000000000E+00 -0.93042121777E+03  0.93042121777E+03  0.00000000000E+00 0. -1.
         23    2    1    2    0    0  0.00000000000E+00  0.00000000000E+00 -0.92834823084E+03  0.93249420471E+03  0.87835096136E+02 0.  0.
          2    1    3    3  502    0 -0.16021966273E+02 -0.31597805871E+02 -0.73971596820E+03  0.74056386514E+03  0.00000000000E+00 0. -1.
         -2    1    3    3    0  502  0.16021966273E+02  0.31597805871E+02 -0.18863226264E+03  0.19193033957E+03  0.00000000000E+00 0.  1.
<mgrwt>
<rscale>  0 0.87835096E+02</rscale>
<asrwt>0</asrwt>
<pdfrwt beam="2">  1        2 0.14314186E+00 0.87835096E+02</pdfrwt>
<pdfrwt beam="1">  1       -2 0.31892077E-03 0.87835096E+02</pdfrwt>
<totfact> 0.27444261E+05</totfact>
</mgrwt>
</event>
<event>
 5    1  0.3862918E+001  0.9046952E+02  0.7546771E-02  0.1301719E+00
         -4   -1    0    0    0  501 -0.00000000000E+00  0.00000000000E+00  0.13535265128E+03  0.13535265128E+03  0.00000000000E+00 0.  1.
          4   -1    0    0  501    0  0.00000000000E+00 -0.00000000000E+00 -0.15117423919E+02  0.15117423919E+02  0.00000000000E+00 0. -1.
         23    2    1    2    0    0  0.00000000000E+00  0.00000000000E+00  0.12023522736E+03  0.15047007520E+03  0.90469517695E+02 0.  0.
          2    1    3    3  502    0 -0.40124472288E+02  0.23421361838E+01  0.25599451435E+02  0.47652815153E+02  0.00000000000E+00 0. -1.
         -2    1    3    3    0  502  0.40124472288E+02 -0.23421361838E+01  0.94635775926E+02  0.10281726005E+03  0.00000000000E+00 0.  1.
<mgrwt>
<rscale>  0 0.90469518E+02</rscale>
<asrwt>0</asrwt>
<pdfrwt beam="2">  1        4 0.23257576E-02 0.90469518E+02</pdfrwt>
<pdfrwt beam="1">  1       -4 0.20823484E-01 0.90469518E+02</pdfrwt>
<totfact> 0.24149455E+04</totfact>
</mgrwt>
</event>
<event>
 5    1  0.3862918E+001  0.9151419E+02  0.7546771E-02  0.1299226E+00
          2   -1    0    0  501    0  0.00000000000E+00  0.00000000000E+00  0.11851513490E+04  0.11851513490E+04  0.00000000000E+00 0.  1.
         -2   -1    0    0    0  501 -0.00000000000E+00 -0.00000000000E+00 -0.17666197922E+01  0.17666197922E+01  0.00000000000E+00 0. -1.
         23    2    1    2    0    0  0.00000000000E+00  0.00000000000E+00  0.11833847292E+04  0.11869179688E+04  0.91514191901E+02 0.  0.
          2    1    3    3  502    0 -0.12715549270E+02 -0.43571629014E+02  0.51657983793E+03  0.51857005409E+03  0.00000000000E+00 0. -1.
         -2    1    3    3    0  502  0.12715549270E+02  0.43571629014E+02  0.66680489124E+03  0.66834791466E+03  0.00000000000E+00 0.  1.
<mgrwt>
<rscale>  0 0.91514192E+02</rscale>
<asrwt>0</asrwt>
<pdfrwt beam="1">  1        2 0.18233034E+00 0.91514192E+02</pdfrwt>
<pdfrwt beam="2">  1       -2 0.27178861E-03 0.91514192E+02</pdfrwt>
<totfact> 0.24659698E+05</totfact>
</mgrwt>
</event>
<event>
 5    1  0.3862918E+001  0.9290055E+02  0.7546771E-02  0.1295976E+00
          2   -1    0    0  501    0  0.00000000000E+00  0.00000000000E+00  0.81072605202E+03  0.81072605202E+03  0.00000000000E+00 0. -1.
         -2   -1    0    0    0  501 -0.00000000000E+00 -0.00000000000E+00 -0.26613530311E+01  0.26613530311E+01  0.00000000000E+00 0.  1.
         23    2    1    2    0    0  0.00000000000E+00  0.00000000000E+00  0.80806469899E+03  0.81338740505E+03  0.92900554054E+02 0.  0.
          2    1    3    3  502    0  0.35423743423E+02  0.28900491185E+02  0.47599152536E+03  0.47818198649E+03  0.00000000000E+00 0. -1.
         -2    1    3    3    0  502 -0.35423743423E+02 -0.28900491185E+02  0.33207317363E+03  0.33520541856E+03  0.00000000000E+00 0.  1.
<mgrwt>
<rscale>  0 0.92900554E+02</rscale>
<asrwt>0</asrwt>
<pdfrwt beam="1">  1        2 0.12472689E+00 0.92900554E+02</pdfrwt>
<pdfrwt beam="2">  1       -2 0.40943958E-03 0.92900554E+02</pdfrwt>
<totfact> 0.23252316E+05</totfact>
</mgrwt>
</event>
<event>
 5    1  0.3862918E+001  0.8994090E+02  0.7546771E-02  0.1302995E+00
         -2   -1    0    0    0  501 -0.00000000000E+00  0.00000000000E+00  0.16334112021E+03  0.16334112021E+03  0.00000000000E+00 0.  1.
          2   -1    0    0  501    0  0.00000000000E+00 -0.00000000000E+00 -0.12381090927E+02  0.12381090927E+02  0.00000000000E+00 0. -1.
         23    2    1    2    0    0  0.00000000000E+00  0.00000000000E+00  0.15096002929E+03  0.17572221114E+03  0.89940897516E+02 0.  0.
          2    1    3    3  502    0 -0.35029135183E+02  0.10597627738E+02  0.24420461710E+02  0.43996692779E+02  0.00000000000E+00 0. -1.
         -2    1    3    3    0  502  0.35029135183E+02 -0.10597627738E+02  0.12653956758E+03  0.13172551836E+03  0.00000000000E+00 0.  1.
<mgrwt>
<rscale>  0 0.89940898E+02</rscale>
<asrwt>0</asrwt>
<pdfrwt beam="2">  1        2 0.19047833E-02 0.89940898E+02</pdfrwt>
<pdfrwt beam="1">  1       -2 0.25129402E-01 0.89940898E+02</pdfrwt>
<totfact> 0.70054991E+04</totfact>
</mgrwt>
</event>
<event>
 5    1  0.3862918E+001  0.8363350E+02  0.7546771E-02  0.1319045E+00
          1   -1    0    0  501    0  0.00000000000E+00  0.00000000000E+00  0.74739978867E+03  0.74739978867E+03  0.00000000000E+00 0. -1.
         -1   -1    0    0    0  501 -0.00000000000E+00 -0.00000000000E+00 -0.23396322704E+01  0.23396322704E+01  0.00000000000E+00 0.  1.
         23    2    1    2    0    0  0.00000000000E+00  0.00000000000E+00  0.74506015640E+03  0.74973942094E+03  0.83633502007E+02 0.  0.
          2    1    3    3  502    0  0.11596194489E+02  0.24722573563E+02  0.65643477908E+03  0.65700250879E+03  0.00000000000E+00 0. -1.
         -2    1    3    3    0  502 -0.11596194489E+02 -0.24722573563E+02  0.88625377323E+02  0.92736912154E+02  0.00000000000E+00 0.  1.
<mgrwt>
<rscale>  0 0.83633502E+02</rscale>
<asrwt>0</asrwt>
<pdfrwt beam="1">  1        1 0.11498439E+00 0.83633502E+02</pdfrwt>
<pdfrwt beam="2">  1       -1 0.35994402E-03 0.83633502E+02</pdfrwt>
<totfact> 0.17816431E+05</totfact>
</mgrwt>
</event>
<event>
 5    1  0.3862918E+001  0.9054353E+02  0.7546771E-02  0.1301541E+00
          2   -1    0    0  501    0  0.00000000000E+00  0.00000000000E+00  0.27645198445E+04  0.27645198445E+04  0.00000000000E+00 0.  1.
         -2   -1    0    0    0  501 -0.00000000000E+00 -0.00000000000E+00 -0.74137029247E+00  0.74137029247E+00  0.00000000000E+00 0. -1.
         23    2    1    2    0    0  0.00000000000E+00  0.00000000000E+00  0.27637784742E+04  0.27652612148E+04  0.90543533964E+02 0.  0.
          2    1    3    3  502    0  0.37417710307E+02  0.22066243033E+02  0.17712425115E+04  0.17717751095E+04  0.00000000000E+00 0. -1.
         -2    1    3    3    0  502 -0.37417710307E+02 -0.22066243033E+02  0.99253596273E+03  0.99348610531E+03  0.00000000000E+00 0.  1.
<mgrwt>
<rscale>  0 0.90543534E+02</rscale>
<asrwt>0</asrwt>
<pdfrwt beam="1">  1        2 0.42530249E+00 0.90543534E+02</pdfrwt>
<pdfrwt beam="2">  1       -2 0.11405918E-03 0.90543534E+02</pdfrwt>
<totfact> 0.12550003E+05</totfact>
</mgrwt>
</event>
<event>
 5    1  0.3862918E+001  0.9005096E+02  0.7546771E-02  0.1302728E+00
         -1   -1    0    0    0  501 -0.00000000000E+00  0.00000000000E+00  0.12926103151E+02  0.12926103151E+02  0.00000000000E+00 0. -1.
          1   -1    0    0  501    0  0.00000000000E+00 -0.00000000000E+00 -0.15683720424E+03  0.15683720424E+03  0.00000000000E+00 0.  1.
         23    2    1    2    0    0  0.00000000000E+00  0.00000000000E+00 -0.14391110109E+03  0.16976330739E+03  0.90050960681E+02 0.  0.
          2    1    3    3  502    0  0.19451549236E+02 -0.29464339389E+02 -0.19278569296E+02  0.40226524799E+02  0.00000000000E+00 0. -1.
         -2    1    3    3    0  502 -0.19451549236E+02  0.29464339389E+02 -0.12463253179E+03  0.12953678259E+03  0.00000000000E+00 0.  1.
<mgrwt>
<rscale>  0 0.90050961E+02</rscale>
<asrwt>0</asrwt>
<pdfrwt beam="2">  1        1 0.24128799E-01 0.90050961E+02</pdfrwt>
<pdfrwt beam="1">  1       -1 0.19886314E-02 0.90050961E+02</pdfrwt>
<totfact> 0.11690440E+05</totfact>
</mgrwt>
</event>
<event>
 5    1  0.3862918E+001  0.9109956E+02  0.7546771E-02  0.1300211E+00
          1   -1    0    0  501    0  0.00000000000E+00  0.00000000000E+00  0.47558273888E+02  0.47558273888E+02  0.00000000000E+00 0. -1.
         -1   -1    0    0    0  501 -0.00000000000E+00 -0.00000000000E+00 -0.43626109844E+02  0.43626109844E+02  0.00000000000E+00 0.  1.
         23    2    1    2    0    0  0.00000000000E+00  0.00000000000E+00  0.39321640442E+01  0.91184383732E+02  0.91099560496E+02 0.  0.
          2    1    3    3  502    0 -0.75703183341E+01 -0.39928933329E+02 -0.18623755535E+02  0.44704291816E+02  0.00000000000E+00 0.  1.
         -2    1    3    3    0  502  0.75703183341E+01  0.39928933329E+02  0.22555919579E+02  0.46480091916E+02  0.00000000000E+00 0. -1.
<mgrwt>
<rscale>  0 0.91099560E+02</rscale>
<asrwt>0</asrwt>
<pdfrwt beam="1">  1        1 0.73166575E-02 0.91099560E+02</pdfrwt>
<pdfrwt beam="2">  1       -1 0.67117092E-02 0.91099560E+02</pdfrwt>
<totfact> 0.93283420E+04</totfact>
</mgrwt>
</event>
<event>
 5    1  0.3862918E+001  0.9262147E+02  0.7546771E-02  0.1296625E+00
          2   -1    0    0  501    0  0.00000000000E+00  0.00000000000E+00  0.77143151635E+03  0.77143151635E+03  0.00000000000E+00 0. -1.
         -2   -1    0    0    0  501 -0.00000000000E+00 -0.00000000000E+00 -0.27801358260E+01  0.27801358260E+01  0.00000000000E+00 0.  1.
         23    2    1    2    0    0  0.00000000000E+00  0.00000000000E+00  0.76865138053E+03  0.77421165218E+03  0.92621474744E+02 0.  0.
          2    1    3    3  502    0 -0.29512420844E+02 -0.20375983080E+02  0.62924521250E+03  0.63026637315E+03  0.00000000000E+00 0. -1.
         -2    1    3    3    0  502  0.29512420844E+02  0.20375983080E+02  0.13940616803E+03  0.14394527903E+03  0.00000000000E+00 0.  1.
<mgrwt>
<rscale>  0 0.92621475E+02</rscale>
<asrwt>0</asrwt>
<pdfrwt beam="1">  1        2 0.11868160E+00 0.92621475E+02</pdfrwt>
<pdfrwt beam="2">  1       -2 0.42771382E-03 0.92621475E+02</pdfrwt>
<totfact> 0.23227557E+05</totfact>
</mgrwt>
</event>
<event>
 5    1  0.3862918E+001  0.9420731E+02  0.7546771E-02  0.1292971E+00
          1   -1    0    0  501    0  0.00000000000E+00  0.00000000000E+00  0.62740392386E+02  0.62740392386E+02  0.00000000000E+00 0. -1.
         -1   -1    0    0    0  501 -0.00000000000E+00 -0.00000000000E+00 -0.35364048028E+02  0.35364048028E+02  0.00000000000E+00 0.  1.
         23    2    1    2    0    0  0.00000000000E+00  0.00000000000E+00  0.27376344358E+02  0.98104440415E+02  0.94207308627E+02 0.  0.
          2    1    3    3  502    0 -0.36654556900E+02  0.28224820367E+02  0.22918075044E+02  0.51627852851E+02  0.00000000000E+00 0. -1.
         -2    1    3    3    0  502  0.36654556900E+02 -0.28224820367E+02  0.44582693142E+01  0.46476587564E+02  0.00000000000E+00 0.  1.
<mgrwt>
<rscale>  0 0.94207309E+02</rscale>
<asrwt>0</asrwt>
<pdfrwt beam="1">  1        1 0.96523681E-02 0.94207309E+02</pdfrwt>
<pdfrwt beam="2">  1       -1 0.54406228E-02 0.94207309E+02</pdfrwt>
<totfact> 0.88600965E+04</totfact>
</mgrwt>
</event>
<event>
 5    1  0.3862918E+001  0.9187094E+02  0.7546771E-02  0.1298383E+00
         -1   -1    0    0    0  501 -0.00000000000E+00  0.00000000000E+00  0.52974051578E+02  0.52974051578E+02  0.00000000000E+00 0.  1.
          1   -1    0    0  501    0  0.00000000000E+00 -0.00000000000E+00 -0.39832090935E+02  0.39832090935E+02  0.00000000000E+00 0. -1.
         23    2    1    2    0    0  0.00000000000E+00  0.00000000000E+00  0.13141960643E+02  0.92806142513E+02  0.91870936419E+02 0.  0.
          2    1    3    3  502    0  0.29662621786E+02 -0.22675597453E+02 -0.20459835295E+02  0.42575329845E+02  0.00000000000E+00 0. -1.
         -2    1    3    3    0  502 -0.29662621786E+02  0.22675597453E+02  0.33601795938E+02  0.50230812668E+02  0.00000000000E+00 0.  1.
<mgrwt>
<rscale>  0 0.91870936E+02</rscale>
<asrwt>0</asrwt>
<pdfrwt beam="2">  1        1 0.61280140E-02 0.91870936E+02</pdfrwt>
<pdfrwt beam="1">  1       -1 0.81498541E-02 0.91870936E+02</pdfrwt>
<totfact> 0.88681891E+04</totfact>
</mgrwt>
</event>
<event>
 5    1  0.3862918E+001  0.9299515E+02  0.7546771E-02  0.1295756E+00
         -2   -1    0    0    0  501 -0.00000000000E+00  0.00000000000E+00  0.24658937124E+03  0.24658937124E+03  0.00000000000E+00 0.  1.
          2   -1    0    0  501    0  0.00000000000E+00 -0.00000000000E+00 -0.87677108205E+01  0.87677108205E+01  0.00000000000E+00 0. -1.
         23    2    1    2    0    0  0.00000000000E+00  0.00000000000E+00  0.23782166042E+03  0.25535708206E+03  0.92995146077E+02 0.  0.
          2    1    3    3  502    0  0.24744268313E+02  0.27922725192E+02  0.19511028341E+03  0.19864536261E+03  0.00000000000E+00 0.  1.
         -2    1    3    3    0  502 -0.24744268313E+02 -0.27922725192E+02  0.42711377016E+02  0.56711719451E+02  0.00000000000E+00 0. -1.
<mgrwt>
<rscale>  0 0.92995146E+02</rscale>
<asrwt>0</asrwt>
<pdfrwt beam="2">  1        2 0.13488788E-02 0.92995146E+02</pdfrwt>
<pdfrwt beam="1">  1       -2 0.37936821E-01 0.92995146E+02</pdfrwt>
<totfact> 0.53764239E+04</totfact>
</mgrwt>
</event>
<event>
 5    1  0.3862918E+001  0.8780747E+02  0.7546771E-02  0.1308250E+00
          2   -1    0    0  501    0  0.00000000000E+00  0.00000000000E+00  0.24578577779E+04  0.24578577779E+04  0.00000000000E+00 0. -1.
         -2   -1    0    0    0  501 -0.00000000000E+00 -0.00000000000E+00 -0.78423497455E+00  0.78423497455E+00  0.00000000000E+00 0.  1.
         23    2    1    2    0    0  0.00000000000E+00  0.00000000000E+00  0.24570735429E+04  0.24586420129E+04  0.87807471934E+02 0.  0.
          2    1    3    3  502    0 -0.28811029157E+02  0.83235903922E+01  0.21263758432E+04  0.21265873093E+04  0.00000000000E+00 0. -1.
         -2    1    3    3    0  502  0.28811029157E+02 -0.83235903922E+01  0.33069769972E+03  0.33205470356E+03  0.00000000000E+00 0.  1.
<mgrwt>
<rscale>  0 0.87807472E+02</rscale>
<asrwt>0</asrwt>
<pdfrwt beam="1">  1        2 0.37812580E+00 0.87807472E+02</pdfrwt>
<pdfrwt beam="2">  1       -2 0.12065350E-03 0.87807472E+02</pdfrwt>
<totfact> 0.16870611E+05</totfact>
</mgrwt>
</event>
<event>
 5    1  0.3862918E+001  0.9333099E+02  0.7546771E-02  0.1294980E+00
         -3   -1    0    0    0  501 -0.00000000000E+00  0.00000000000E+00  0.27861776702E+03  0.27861776702E+03  0.00000000000E+00 0.  1.
          3   -1    0    0  501    0  0.00000000000E+00 -0.00000000000E+00 -0.78159707285E+01  0.78159707285E+01  0.00000000000E+00 0. -1.
         23    2    1    2    0    0  0.00000000000E+00  0.00000000000E+00  0.27080179629E+03  0.28643373774E+03  0.93330987597E+02 0.  0.
          2    1    3    3  502    0  0.26522982378E+02 -0.37458062183E+02  0.16127782090E+03  0.16768157481E+03  0.00000000000E+00 0.  1.
         -2    1    3    3    0  502 -0.26522982378E+02  0.37458062183E+02  0.10952397539E+03  0.11875216293E+03  0.00000000000E+00 0. -1.
<mgrwt>
<rscale>  0 0.93330988E+02</rscale>
<asrwt>0</asrwt>
<pdfrwt beam="2">  1        3 0.12024573E-02 0.93330988E+02</pdfrwt>
<pdfrwt beam="1">  1       -3 0.42864264E-01 0.93330988E+02</pdfrwt>
<totfact> 0.23062320E+04</totfact>
</mgrwt>
</event>
<event>
 5    1  0.3862918E+001  0.8922974E+02  0.7546771E-02  0.1304728E+00
         -3   -1    0    0    0  501 -0.00000000000E+00  0.00000000000E+00  0.11908093010E+02  0.11908093010E+02  0.00000000000E+00 0.  1.
          3   -1    0    0  501    0  0.00000000000E+00 -0.00000000000E+00 -0.16715410777E+03  0.16715410777E+03  0.00000000000E+00 0. -1.
         23    2    1    2    0    0  0.00000000000E+00  0.00000000000E+00 -0.15524601476E+03  0.17906220078E+03  0.89229740834E+02 0.  0.
          2    1    3    3  502    0 -0.40322565835E+02 -0.18301697892E+02 -0.88545579966E+02  0.99000915111E+02  0.00000000000E+00 0. -1.
         -2    1    3    3    0  502  0.40322565835E+02  0.18301697892E+02 -0.66700434793E+02  0.80061285668E+02  0.00000000000E+00 0.  1.
<mgrwt>
<rscale>  0 0.89229741E+02</rscale>
<asrwt>0</asrwt>
<pdfrwt beam="2">  1        3 0.25716014E-01 0.89229741E+02</pdfrwt>
<pdfrwt beam="1">  1       -3 0.18320145E-02 0.89229741E+02</pdfrwt>
<totfact> 0.31391679E+04</totfact>
</mgrwt>
</event>
<event>
 5    1  0.3862918E+001  0.8989607E+02  0.7546771E-02  0.1303104E+00
          2   -1    0    0  501    0  0.00000000000E+00  0.00000000000E+00  0.19202818999E+03  0.19202818999E+03  0.00000000000E+00 0. -1.
         -2   -1    0    0    0  501 -0.00000000000E+00 -0.00000000000E+00 -0.10520985200E+02  0.10520985200E+02  0.00000000000E+00 0.  1.
         23    2    1    2    0    0  0.00000000000E+00  0.00000000000E+00  0.18150720479E+03  0.20254917519E+03  0.89896067653E+02 0.  0.
          2    1    3    3  502    0  0.26649975917E+02  0.30270326717E+00  0.17230427932E+03  0.17435331232E+03  0.00000000000E+00 0. -1.
         -2    1    3    3    0  502 -0.26649975917E+02 -0.30270326717E+00  0.92029254695E+01  0.28195862868E+02  0.00000000000E+00 0.  1.
<mgrwt>
<rscale>  0 0.89896068E+02</rscale>
<asrwt>0</asrwt>
<pdfrwt beam="1">  1        2 0.29542796E-01 0.89896068E+02</pdfrwt>
<pdfrwt beam="2">  1       -2 0.16186133E-02 0.89896068E+02</pdfrwt>
<totfact> 0.15834332E+05</totfact>
</mgrwt>
</event>
<event>
 5    1  0.3862918E+001  0.9360202E+02  0.7546771E-02  0.1294356E+00
          1   -1    0    0  501    0  0.00000000000E+00  0.00000000000E+00  0.22451639093E+03  0.22451639093E+03  0.00000000000E+00 0. -1.
         -1   -1    0    0    0  501 -0.00000000000E+00 -0.00000000000E+00 -0.97557885742E+01  0.97557885742E+01  0.00000000000E+00 0.  1.
         23    2    1    2    0    0  0.00000000000E+00  0.00000000000E+00  0.21476060235E+03  0.23427217950E+03  0.93602017956E+02 0.  0.
          2    1    3    3  502    0 -0.46564664045E+02  0.46526389982E+01  0.10575932090E+03  0.11565011433E+03  0.00000000000E+00 0. -1.
         -2    1    3    3    0  502  0.46564664045E+02 -0.46526389982E+01  0.10900128145E+03  0.11862206517E+03  0.00000000000E+00 0.  1.
<mgrwt>
<rscale>  0 0.93602018E+02</rscale>
<asrwt>0</asrwt>
<pdfrwt beam="1">  1        1 0.34540979E-01 0.93602018E+02</pdfrwt>
<pdfrwt beam="2">  1       -1 0.15008907E-02 0.93602018E+02</pdfrwt>
<totfact> 0.11286947E+05</totfact>
</mgrwt>
</event>
<event>
 5    1  0.3862918E+001  0.9081482E+02  0.7546771E-02  0.1300890E+00
          2   -1    0    0  501    0  0.00000000000E+00  0.00000000000E+00  0.35982523905E+02  0.35982523905E+02  0.00000000000E+00 0. -1.
         -2   -1    0    0    0  501 -0.00000000000E+00 -0.00000000000E+00 -0.57300955947E+02  0.57300955947E+02  0.00000000000E+00 0.  1.
         23    2    1    2    0    0  0.00000000000E+00  0.00000000000E+00 -0.21318432041E+02  0.93283479852E+02  0.90814822956E+02 0.  0.
          2    1    3    3  502    0  0.30046253879E+02 -0.20366585297E+02  0.17363466695E+02  0.40237608583E+02  0.00000000000E+00 0. -1.
         -2    1    3    3    0  502 -0.30046253879E+02  0.20366585297E+02 -0.38681898736E+02  0.53045871269E+02  0.00000000000E+00 0.  1.
<mgrwt>
<rscale>  0 0.90814823E+02</rscale>
<asrwt>0</asrwt>
<pdfrwt beam="1">  1        2 0.55357729E-02 0.90814823E+02</pdfrwt>
<pdfrwt beam="2">  1       -2 0.88155316E-02 0.90814823E+02</pdfrwt>
<totfact> 0.93889461E+04</totfact>
</mgrwt>
</event>
<event>
 5    1  0.3862918E+001  0.9062153E+02  0.7546771E-02  0.1301354E+00
          1   -1    0    0  501    0  0.00000000000E+00  0.00000000000E+00  0.17388279124E+03  0.17388279124E+03  0.00000000000E+00 0. -1.
         -1   -1    0    0    0  501 -0.00000000000E+00 -0.00000000000E+00 -0.11807180565E+02  0.11807180565E+02  0.00000000000E+00 0.  1.
         23    2    1    2    0    0  0.00000000000E+00  0.00000000000E+00  0.16207561068E+03  0.18568997181E+03  0.90621531952E+02 0.  0.
          2    1    3    3  502    0  0.42513780281E+02  0.18421456433E+01  0.49145244635E+02  0.65008230898E+02  0.00000000000E+00 0. -1.
         -2    1    3    3    0  502 -0.42513780281E+02 -0.18421456433E+01  0.11293036604E+03  0.12068174091E+03  0.00000000000E+00 0.  1.
<mgrwt>
<rscale>  0 0.90621532E+02</rscale>
<asrwt>0</asrwt>
<pdfrwt beam="1">  1        1 0.26751197E-01 0.90621532E+02</pdfrwt>
<pdfrwt beam="2">  1       -1 0.18164894E-02 0.90621532E+02</pdfrwt>
<totfact> 0.11717330E+05</totfact>
</mgrwt>
</event>
<event>
 5    1  0.3862918E+001  0.9147080E+02  0.7546771E-02  0.1299329E+00
          1   -1    0    0  501    0  0.00000000000E+00  0.00000000000E+00  0.85445638106E+03  0.85445638106E+03  0.00000000000E+00 0.  1.
         -1   -1    0    0    0  501 -0.00000000000E+00 -0.00000000000E+00 -0.24480205140E+01  0.24480205140E+01  0.00000000000E+00 0. -1.
         23    2    1    2    0    0  0.00000000000E+00  0.00000000000E+00  0.85200836055E+03  0.85690440158E+03  0.91470798600E+02 0.  0.
          2    1    3    3  502    0  0.14473907743E+02 -0.43218555388E+02  0.39046818879E+03  0.39311924907E+03  0.00000000000E+00 0. -1.
         -2    1    3    3    0  502 -0.14473907743E+02  0.43218555388E+02  0.46154017176E+03  0.46378515251E+03  0.00000000000E+00 0.  1.
<mgrwt>
<rscale>  0 0.91470799E+02</rscale>
<asrwt>0</asrwt>
<pdfrwt beam="1">  1        1 0.13145459E+00 0.91470799E+02</pdfrwt>
<pdfrwt beam="2">  1       -1 0.37661922E-03 0.91470799E+02</pdfrwt>
<totfact> 0.13909384E+05</totfact>
</mgrwt>
</event>
<event>
 5    1  0.3862918E+001  0.8835845E+02  0.7546771E-02  0.1306876E+00
         -4   -1    0    0    0  501 -0.00000000000E+00  0.00000000000E+00  0.66554971824E+03  0.66554971824E+03  0.00000000000E+00 0.  1.
          4   -1    0    0  501    0  0.00000000000E+00 -0.00000000000E+00 -0.29326191630E+01  0.29326191630E+01  0.00000000000E+00 0. -1.
         23    2    1    2    0    0  0.00000000000E+00  0.00000000000E+00  0.66261709908E+03  0.66848233740E+03  0.88358448552E+02 0.  0.
          2    1    3    3  502    0 -0.10370559976E+02  0.37759761962E+02  0.17654573846E+03  0.18083624058E+03  0.00000000000E+00 0. -1.
         -2    1    3    3    0  502  0.10370559976E+02 -0.37759761962E+02  0.48607136061E+03  0.48764609682E+03  0.00000000000E+00 0.  1.
<mgrwt>
<rscale>  0 0.88358449E+02</rscale>
<asrwt>0</asrwt>
<pdfrwt beam="2">  1        4 0.45117271E-03 0.88358449E+02</pdfrwt>
<pdfrwt beam="1">  1       -4 0.10239214E+00 0.88358449E+02</pdfrwt>
<totfact> 0.11341648E+04</totfact>
</mgrwt>
</event>
<event>
 5    1  0.3862918E+001  0.8373119E+02  0.7546771E-02  0.1318784E+00
         -4   -1    0    0    0  501 -0.00000000000E+00  0.00000000000E+00  0.82125864788E+02  0.82125864788E+02  0.00000000000E+00 0.  1.
          4   -1    0    0  501    0  0.00000000000E+00 -0.00000000000E+00 -0.21341972669E+02  0.21341972669E+02  0.00000000000E+00 0. -1.
         23    2    1    2    0    0  0.00000000000E+00  0.00000000000E+00  0.60783892118E+02  0.10346783746E+03  0.83731188018E+02 0.  0.
          2    1    3    3  502    0 -0.20503540499E+02  0.33026828980E+02  0.11186170532E+02  0.40451168297E+02  0.00000000000E+00 0.  1.
         -2    1    3    3    0  502  0.20503540499E+02 -0.33026828980E+02  0.49597721586E+02  0.63016669160E+02  0.00000000000E+00 0. -1.
<mgrwt>
<rscale>  0 0.83731188E+02</rscale>
<asrwt>0</asrwt>
<pdfrwt beam="2">  1        4 0.32833805E-02 0.83731188E+02</pdfrwt>
<pdfrwt beam="1">  1       -4 0.12634748E-01 0.83731188E+02</pdfrwt>
<totfact> 0.32999880E+04</totfact>
</mgrwt>
</event>
<event>
 5    1  0.3862918E+001  0.9283460E+02  0.7546771E-02  0.1296129E+00
          3   -1    0    0  501    0  0.00000000000E+00  0.00000000000E+00  0.16372794014E+02  0.16372794014E+02  0.00000000000E+00 0. -1.
         -3   -1    0    0    0  501 -0.00000000000E+00 -0.00000000000E+00 -0.13159427011E+03  0.13159427011E+03  0.00000000000E+00 0.  1.
         23    2    1    2    0    0  0.00000000000E+00  0.00000000000E+00 -0.11522147610E+03  0.14796706412E+03  0.92834602986E+02 0.  0.
          2    1    3    3  502    0  0.41080044379E+01 -0.43779621396E+02 -0.81307315556E+02  0.92435980619E+02  0.00000000000E+00 0. -1.
         -2    1    3    3    0  502 -0.41080044379E+01  0.43779621396E+02 -0.33914160541E+02  0.55531083505E+02  0.00000000000E+00 0.  1.
<mgrwt>
<rscale>  0 0.92834603E+02</rscale>
<asrwt>0</asrwt>
<pdfrwt beam="1">  1        3 0.25188913E-02 0.92834603E+02</pdfrwt>
<pdfrwt beam="2">  1       -3 0.20245273E-01 0.92834603E+02</pdfrwt>
<totfact> 0.29931994E+04</totfact>
</mgrwt>
</event>
<event>
 5    1  0.3862918E+001  0.9148154E+02  0.7546771E-02  0.1299303E+00
         -2   -1    0    0    0  501 -0.00000000000E+00  0.00000000000E+00  0.51552480529E+01  0.51552480529E+01  0.00000000000E+00 0.  1.
          2   -1    0    0  501    0  0.00000000000E+00 -0.00000000000E+00 -0.40584236006E+03  0.40584236006E+03  0.00000000000E+00 0. -1.
         23    2    1    2    0    0  0.00000000000E+00  0.00000000000E+00 -0.40068711200E+03  0.41099760811E+03  0.91481539918E+02 0.  0.
          2    1    3    3  502    0 -0.44841104338E+02 -0.69757013152E+01 -0.17460044430E+03  0.18040149722E+03  0.00000000000E+00 0. -1.
         -2    1    3    3    0  502  0.44841104338E+02  0.69757013152E+01 -0.22608666770E+03  0.23059611089E+03  0.00000000000E+00 0.  1.
<mgrwt>
<rscale>  0 0.91481540E+02</rscale>
<asrwt>0</asrwt>
<pdfrwt beam="2">  1        2 0.62437279E-01 0.91481540E+02</pdfrwt>
<pdfrwt beam="1">  1       -2 0.79311518E-03 0.91481540E+02</pdfrwt>
<totfact> 0.19888986E+05</totfact>
</mgrwt>
</event>
<event>
 5    1  0.3862918E+001  0.6875096E+02  0.7546771E-02  0.1364393E+00
         -2   -1    0    0    0  501 -0.00000000000E+00  0.00000000000E+00  0.29791701128E+02  0.29791701128E+02  0.00000000000E+00 0.  1.
          2   -1    0    0  501    0  0.00000000000E+00 -0.00000000000E+00 -0.39664522113E+02  0.39664522113E+02  0.00000000000E+00 0. -1.
         23    2    1    2    0    0  0.00000000000E+00  0.00000000000E+00 -0.98728209858E+01  0.69456223241E+02  0.68750958922E+02 0.  0.
          2    1    3    3  502    0  0.72263111183E+01 -0.26872547396E+02 -0.25325619843E+02  0.37626325842E+02  0.00000000000E+00 0. -1.
         -2    1    3    3    0  502 -0.72263111183E+01  0.26872547396E+02  0.15452798857E+02  0.31829897399E+02  0.00000000000E+00 0.  1.
<mgrwt>
<rscale>  0 0.68750959E+02</rscale>
<asrwt>0</asrwt>
<pdfrwt beam="2">  1        2 0.61022341E-02 0.68750959E+02</pdfrwt>
<pdfrwt beam="1">  1       -2 0.45833387E-02 0.68750959E+02</pdfrwt>
<totfact> 0.21066637E+05</totfact>
</mgrwt>
</event>
<event>
 5    1  0.3862918E+001  0.8329357E+02  0.7546771E-02  0.1319956E+00
          1   -1    0    0  501    0  0.00000000000E+00  0.00000000000E+00  0.22187142101E+03  0.22187142101E+03  0.00000000000E+00 0.  1.
         -1   -1    0    0    0  501 -0.00000000000E+00 -0.00000000000E+00 -0.78173873371E+01  0.78173873371E+01  0.00000000000E+00 0. -1.
         23    2    1    2    0    0  0.00000000000E+00  0.00000000000E+00  0.21405403367E+03  0.22968880834E+03  0.83293573271E+02 0.  0.
          2    1    3    3  502    0  0.33880479382E+02 -0.30945541263E+01  0.40788115620E+02  0.53114343865E+02  0.00000000000E+00 0. -1.
         -2    1    3    3    0  502 -0.33880479382E+02  0.30945541263E+01  0.17326591805E+03  0.17657446448E+03  0.00000000000E+00 0.  1.
<mgrwt>
<rscale>  0 0.83293573E+02</rscale>
<asrwt>0</asrwt>
<pdfrwt beam="1">  1        1 0.34134060E-01 0.83293573E+02</pdfrwt>
<pdfrwt beam="2">  1       -1 0.12026751E-02 0.83293573E+02</pdfrwt>
<totfact> 0.15371201E+05</totfact>
</mgrwt>
</event>
<event>
 5    1  0.3862918E+001  0.8788754E+02  0.7546771E-02  0.1308049E+00
          1   -1    0    0  501    0  0.00000000000E+00  0.00000000000E+00  0.10461831478E+04  0.10461831478E+04  0.00000000000E+00 0. -1.
         -1   -1    0    0    0  501 -0.00000000000E+00 -0.00000000000E+00 -0.18458096777E+01  0.18458096777E+01  0.00000000000E+00 0.  1.
         23    2    1    2    0    0  0.00000000000E+00  0.00000000000E+00  0.10443373382E+04  0.10480289575E+04  0.87887541300E+02 0.  0.
          2    1    3    3  502    0 -0.30280763592E+02  0.60913620803E+01  0.89490261654E+03  0.89543549317E+03  0.00000000000E+00 0. -1.
         -2    1    3    3    0  502  0.30280763592E+02 -0.60913620803E+01  0.14943472161E+03  0.15259346433E+03  0.00000000000E+00 0.  1.
<mgrwt>
<rscale>  0 0.87887541E+02</rscale>
<asrwt>0</asrwt>
<pdfrwt beam="1">  1        1 0.16095078E+00 0.87887541E+02</pdfrwt>
<pdfrwt beam="2">  1       -1 0.28397155E-03 0.87887541E+02</pdfrwt>
<totfact> 0.14792865E+05</totfact>
</mgrwt>
</event>
<event>
 5    1  0.3862918E+001  0.9081755E+02  0.7546771E-02  0.1300884E+00
          4   -1    0    0  501    0  0.00000000000E+00  0.00000000000E+00  0.99995016247E+02  0.99995016247E+02  0.00000000000E+00 0. -1.
         -4   -1    0    0    0  501 -0.00000000000E+00 -0.00000000000E+00 -0.20620595464E+02  0.20620595464E+02  0.00000000000E+00 0.  1.
         23    2    1    2    0    0  0.00000000000E+00  0.00000000000E+00  0.79374420783E+02  0.12061561171E+03  0.90817548489E+02 0.  0.
          2    1    3    3  502    0 -0.27946769361E+02 -0.19719225945E+02  0.79354940696E+02  0.86412246832E+02  0.00000000000E+00 0. -1.
         -2    1    3    3    0  502  0.27946769361E+02  0.19719225945E+02  0.19480087108E-01  0.34203364879E+02  0.00000000000E+00 0.  1.
<mgrwt>
<rscale>  0 0.90817548E+02</rscale>
<asrwt>0</asrwt>
<pdfrwt beam="1">  1        4 0.15383848E-01 0.90817548E+02</pdfrwt>
<pdfrwt beam="2">  1       -4 0.31723993E-02 0.90817548E+02</pdfrwt>
<totfact> 0.25508295E+04</totfact>
</mgrwt>
</event>
<event>
 5    1  0.3862918E+001  0.9402627E+02  0.7546771E-02  0.1293384E+00
         -1   -1    0    0    0  501 -0.00000000000E+00  0.00000000000E+00  0.28960058948E+03  0.28960058948E+03  0.00000000000E+00 0.  1.
          1   -1    0    0  501    0  0.00000000000E+00 -0.00000000000E+00 -0.76320109347E+01  0.76320109347E+01  0.00000000000E+00 0. -1.
         23    2    1    2    0    0  0.00000000000E+00  0.00000000000E+00  0.28196857855E+03  0.29723260041E+03  0.94026270065E+02 0.  0.
          2    1    3    3  502    0  0.14517318650E+02 -0.40342369990E+02  0.20195263420E+03  0.20645368928E+03  0.00000000000E+00 0. -1.
         -2    1    3    3    0  502 -0.14517318650E+02  0.40342369990E+02  0.80015944344E+02  0.90778911133E+02  0.00000000000E+00 0.  1.
<mgrwt>
<rscale>  0 0.94026270E+02</rscale>
<asrwt>0</asrwt>
<pdfrwt beam="2">  1        1 0.11741558E-02 0.94026270E+02</pdfrwt>
<pdfrwt beam="1">  1       -1 0.44553928E-01 0.94026270E+02</pdfrwt>
<totfact> 0.56665735E+04</totfact>
</mgrwt>
</event>
<event>
 5    1  0.3862918E+001  0.9030513E+02  0.7546771E-02  0.1302114E+00
         -4   -1    0    0    0  501 -0.00000000000E+00  0.00000000000E+00  0.27936677372E+01  0.27936677372E+01  0.00000000000E+00 0.  1.
          4   -1    0    0  501    0  0.00000000000E+00 -0.00000000000E+00 -0.72977687401E+03  0.72977687401E+03  0.00000000000E+00 0. -1.
         23    2    1    2    0    0  0.00000000000E+00  0.00000000000E+00 -0.72698320628E+03  0.73257054175E+03  0.90305129606E+02 0.  0.
          2    1    3    3  502    0  0.75971404155E+01 -0.44002215219E+02 -0.30916875549E+03  0.31237674507E+03  0.00000000000E+00 0. -1.
         -2    1    3    3    0  502 -0.75971404155E+01  0.44002215219E+02 -0.41781445078E+03  0.42019379668E+03  0.00000000000E+00 0.  1.
<mgrwt>
<rscale>  0 0.90305130E+02</rscale>
<asrwt>0</asrwt>
<pdfrwt beam="2">  1        4 0.11227345E+00 0.90305130E+02</pdfrwt>
<pdfrwt beam="1">  1       -4 0.42979473E-03 0.90305130E+02</pdfrwt>
<totfact> 0.98962617E+03</totfact>
</mgrwt>
</event>
<event>
 5    1  0.3862918E+001  0.9216974E+02  0.7546771E-02  0.1297681E+00
          2   -1    0    0  501    0  0.00000000000E+00  0.00000000000E+00  0.69706848459E+03  0.69706848459E+03  0.00000000000E+00 0. -1.
         -2   -1    0    0    0  501 -0.00000000000E+00 -0.00000000000E+00 -0.30467811061E+01  0.30467811061E+01  0.00000000000E+00 0.  1.
         23    2    1    2    0    0  0.00000000000E+00  0.00000000000E+00  0.69402170348E+03  0.70011526569E+03  0.92169736650E+02 0.  0.
          2    1    3    3  502    0 -0.25231611357E+02 -0.28007949664E+02  0.14564900374E+03  0.15044836903E+03  0.00000000000E+00 0. -1.
         -2    1    3    3    0  502  0.25231611357E+02  0.28007949664E+02  0.54837269975E+03  0.54966689666E+03  0.00000000000E+00 0.  1.
<mgrwt>
<rscale>  0 0.92169737E+02</rscale>
<asrwt>0</asrwt>
<pdfrwt beam="1">  1        2 0.10724118E+00 0.92169737E+02</pdfrwt>
<pdfrwt beam="2">  1       -2 0.46873611E-03 0.92169737E+02</pdfrwt>
<totfact> 0.23023259E+05</totfact>
</mgrwt>
</event>
<event>
 5    1  0.3862918E+001  0.8942178E+02  0.7546771E-02  0.1304258E+00
          1   -1    0    0  501    0  0.00000000000E+00  0.00000000000E+00  0.27581358472E+02  0.27581358472E+02  0.00000000000E+00 0. -1.
         -1   -1    0    0    0  501 -0.00000000000E+00 -0.00000000000E+00 -0.72478797341E+02  0.72478797341E+02  0.00000000000E+00 0.  1.
         23    2    1    2    0    0  0.00000000000E+00  0.00000000000E+00 -0.44897438869E+02  0.10006015581E+03  0.89421780144E+02 0.  0.
          2    1    3    3  502    0 -0.32351024997E+02  0.84751428496E+01  0.10757447798E+02  0.35130322341E+02  0.00000000000E+00 0. -1.
         -2    1    3    3    0  502  0.32351024997E+02 -0.84751428496E+01 -0.55654886667E+02  0.64929833471E+02  0.00000000000E+00 0.  1.
<mgrwt>
<rscale>  0 0.89421780E+02</rscale>
<asrwt>0</asrwt>
<pdfrwt beam="1">  1        1 0.42432860E-02 0.89421780E+02</pdfrwt>
<pdfrwt beam="2">  1       -1 0.11150584E-01 0.89421780E+02</pdfrwt>
<totfact> 0.90422701E+04</totfact>
</mgrwt>
</event>
<event>
 5    1  0.3862918E+001  0.9075525E+02  0.7546771E-02  0.1301033E+00
         -2   -1    0    0    0  501 -0.00000000000E+00  0.00000000000E+00  0.52564718904E+02  0.52564718904E+02  0.00000000000E+00 0.  1.
          2   -1    0    0  501    0  0.00000000000E+00 -0.00000000000E+00 -0.39173215665E+02  0.39173215665E+02  0.00000000000E+00 0. -1.
         23    2    1    2    0    0  0.00000000000E+00  0.00000000000E+00  0.13391503240E+02  0.91737934569E+02  0.90755254834E+02 0.  0.
          2    1    3    3  502    0  0.28680560980E+02 -0.33845096891E+02  0.16341819641E+02  0.47277058188E+02  0.00000000000E+00 0. -1.
         -2    1    3    3    0  502 -0.28680560980E+02  0.33845096891E+02 -0.29503164009E+01  0.44460876381E+02  0.00000000000E+00 0.  1.
<mgrwt>
<rscale>  0 0.90755255E+02</rscale>
<asrwt>0</asrwt>
<pdfrwt beam="2">  1        2 0.60266486E-02 0.90755255E+02</pdfrwt>
<pdfrwt beam="1">  1       -2 0.80868798E-02 0.90755255E+02</pdfrwt>
<totfact> 0.96157234E+04</totfact>
</mgrwt>
</event>
<event>
 5    1  0.3862918E+001  0.9058418E+02  0.7546771E-02  0.1301443E+00
          2   -1    0    0  501    0  0.00000000000E+00  0.00000000000E+00  0.12979541928E+03  0.12979541928E+03  0.00000000000E+00 0. -1.
         -2   -1    0    0    0  501 -0.00000000000E+00 -0.00000000000E+00 -0.15804666709E+02  0.15804666709E+02  0.00000000000E+00 0.  1.
         23    2    1    2    0    0  0.00000000000E+00  0.00000000000E+00  0.11399075257E+03  0.14560008598E+03  0.90584178353E+02 0.  0.
          2    1    3    3  502    0  0.31345121061E+02  0.15913591995E+02  0.10289950012E+03  0.10873852192E+03  0.00000000000E+00 0. -1.
         -2    1    3    3    0  502 -0.31345121061E+02 -0.15913591995E+02  0.11091252449E+02  0.36861564066E+02  0.00000000000E+00 0.  1.
<mgrwt>
<rscale>  0 0.90584178E+02</rscale>
<asrwt>0</asrwt>
<pdfrwt beam="1">  1        2 0.19968525E-01 0.90584178E+02</pdfrwt>
<pdfrwt beam="2">  1       -2 0.24314873E-02 0.90584178E+02</pdfrwt>
<totfact> 0.13559948E+05</totfact>
</mgrwt>
</event>
<event>
 5    1  0.3862918E+001  0.8490096E+02  0.7546771E-02  0.1315692E+00
         -1   -1    0    0    0  501 -0.00000000000E+00  0.00000000000E+00  0.28650363553E+01  0.28650363553E+01  0.00000000000E+00 0.  1.
          1   -1    0    0  501    0  0.00000000000E+00 -0.00000000000E+00 -0.62897739230E+03  0.62897739230E+03  0.00000000000E+00 0. -1.
         23    2    1    2    0    0  0.00000000000E+00  0.00000000000E+00 -0.62611235595E+03  0.63184242866E+03  0.84900956311E+02 0.  0.
          2    1    3    3  502    0 -0.25570587172E+02 -0.18359074237E+02 -0.52501042406E+03  0.52595328300E+03  0.00000000000E+00 0. -1.
         -2    1    3    3    0  502  0.25570587172E+02  0.18359074237E+02 -0.10110193189E+03  0.10588914565E+03  0.00000000000E+00 0.  1.
<mgrwt>
<rscale>  0 0.84900956E+02</rscale>
<asrwt>0</asrwt>
<pdfrwt beam="2">  1        1 0.96765656E-01 0.84900956E+02</pdfrwt>
<pdfrwt beam="1">  1       -1 0.44077527E-03 0.84900956E+02</pdfrwt>
<totfact> 0.17128290E+05</totfact>
</mgrwt>
</event>
<event>
 5    1  0.3862918E+001  0.9115902E+02  0.7546771E-02  0.1300069E+00
         -2   -1    0    0    0  501 -0.00000000000E+00  0.00000000000E+00  0.95416722745E+00  0.95416722745E+00  0.00000000000E+00 0.  1.
          2   -1    0    0  501    0  0.00000000000E+00 -0.00000000000E+00 -0.21772824467E+04  0.21772824467E+04  0.00000000000E+00 0. -1.
         23    2    1    2    0    0  0.00000000000E+00  0.00000000000E+00 -0.21763282795E+04  0.21782366140E+04  0.91159016133E+02 0.  0.
          2    1    3    3  502    0  0.39622147823E+02 -0.18300859782E+02 -0.14021395374E+04  0.14028186335E+04  0.00000000000E+00 0. -1.
         -2    1    3    3    0  502 -0.39622147823E+02  0.18300859782E+02 -0.77418874207E+03  0.77541798045E+03  0.00000000000E+00 0.  1.
<mgrwt>
<rscale>  0 0.91159016E+02</rscale>
<asrwt>0</asrwt>
<pdfrwt beam="2">  1        2 0.33496694E+00 0.91159016E+02</pdfrwt>
<pdfrwt beam="1">  1       -2 0.14679478E-03 0.91159016E+02</pdfrwt>
<totfact> 0.18017187E+05</totfact>
</mgrwt>
</event>
<event>
 5    1  0.3862918E+001  0.9466271E+02  0.7546771E-02  0.1291938E+00
         -1   -1    0    0    0  501 -0.00000000000E+00  0.00000000000E+00  0.58422791910E+02  0.58422791910E+02  0.00000000000E+00 0.  1.
          1   -1    0    0  501    0  0.00000000000E+00 -0.00000000000E+00 -0.38345605301E+02  0.38345605301E+02  0.00000000000E+00 0. -1.
         23    2    1    2    0    0  0.00000000000E+00  0.00000000000E+00  0.20077186609E+02  0.96768397211E+02  0.94662713233E+02 0.  0.
          2    1    3    3  502    0 -0.38011634478E+02  0.55576032754E+01 -0.18225780665E+02  0.42519999890E+02  0.00000000000E+00 0. -1.
         -2    1    3    3    0  502  0.38011634478E+02 -0.55576032754E+01  0.38302967274E+02  0.54248397320E+02  0.00000000000E+00 0.  1.
<mgrwt>
<rscale>  0 0.94662713E+02</rscale>
<asrwt>0</asrwt>
<pdfrwt beam="2">  1        1 0.58993239E-02 0.94662713E+02</pdfrwt>
<pdfrwt beam="1">  1       -1 0.89881219E-02 0.94662713E+02</pdfrwt>
<totfact> 0.80968354E+04</totfact>
</mgrwt>
</event>
<event>
 5    1  0.3862918E+001  0.8552523E+02  0.7546771E-02  0.1314065E+00
          2   -1    0    0  501    0  0.00000000000E+00  0.00000000000E+00  0.28015512376E+02  0.28015512376E+02  0.00000000000E+00 0. -1.
         -2   -1    0    0    0  501 -0.00000000000E+00 -0.00000000000E+00 -0.65272455015E+02  0.65272455015E+02  0.00000000000E+00 0.  1.
         23    2    1    2    0    0  0.00000000000E+00  0.00000000000E+00 -0.37256942638E+02  0.93287967391E+02  0.85525230694E+02 0.  0.
          2    1    3    3  502    0 -0.26581206702E+02 -0.31326863648E+02 -0.31567190558E+02  0.51811393105E+02  0.00000000000E+00 0. -1.
         -2    1    3    3    0  502  0.26581206702E+02  0.31326863648E+02 -0.56897520800E+01  0.41476574286E+02  0.00000000000E+00 0.  1.
<mgrwt>
<rscale>  0 0.85525231E+02</rscale>
<asrwt>0</asrwt>
<pdfrwt beam="1">  1        2 0.43100789E-02 0.85525231E+02</pdfrwt>
<pdfrwt beam="2">  1       -2 0.10041916E-01 0.85525231E+02</pdfrwt>
<totfact> 0.10496838E+05</totfact>
</mgrwt>
</event>
<event>
 5    1  0.3862918E+001  0.8539860E+02  0.7546771E-02  0.1314393E+00
          1   -1    0    0  501    0  0.00000000000E+00  0.00000000000E+00  0.11377926619E+02  0.11377926619E+02  0.00000000000E+00 0. -1.
         -1   -1    0    0    0  501 -0.00000000000E+00 -0.00000000000E+00 -0.16024276589E+03  0.16024276589E+03  0.00000000000E+00 0.  1.
         23    2    1    2    0    0  0.00000000000E+00  0.00000000000E+00 -0.14886483927E+03  0.17162069251E+03  0.85398604942E+02 0.  0.
          2    1    3    3  502    0 -0.25748456345E+02 -0.10344355919E+02 -0.92121030862E+01  0.29237844428E+02  0.00000000000E+00 0. -1.
         -2    1    3    3    0  502  0.25748456345E+02  0.10344355919E+02 -0.13965273619E+03  0.14238284808E+03  0.00000000000E+00 0.  1.
<mgrwt>
<rscale>  0 0.85398605E+02</rscale>
<asrwt>0</asrwt>
<pdfrwt beam="1">  1        1 0.17504504E-02 0.85398605E+02</pdfrwt>
<pdfrwt beam="2">  1       -1 0.24652732E-01 0.85398605E+02</pdfrwt>
<totfact> 0.87228293E+04</totfact>
</mgrwt>
</event>
<event>
 5    1  0.3862918E+001  0.9040489E+02  0.7546771E-02  0.1301874E+00
          2   -1    0    0  501    0  0.00000000000E+00  0.00000000000E+00  0.66349938837E+01  0.66349938837E+01  0.00000000000E+00 0. -1.
         -2   -1    0    0    0  501 -0.00000000000E+00 -0.00000000000E+00 -0.30795222109E+03  0.30795222109E+03  0.00000000000E+00 0.  1.
         23    2    1    2    0    0  0.00000000000E+00  0.00000000000E+00 -0.30131722720E+03  0.31458721497E+03  0.90404891535E+02 0.  0.
          2    1    3    3  502    0  0.28326128581E+01 -0.31048995319E+02 -0.36769064559E+02  0.48208172693E+02  0.00000000000E+00 0. -1.
         -2    1    3    3    0  502 -0.28326128581E+01  0.31048995319E+02 -0.26454816264E+03  0.26637904228E+03  0.00000000000E+00 0.  1.
<mgrwt>
<rscale>  0 0.90404892E+02</rscale>
<asrwt>0</asrwt>
<pdfrwt beam="1">  1        2 0.10207682E-02 0.90404892E+02</pdfrwt>
<pdfrwt beam="2">  1       -2 0.47377267E-01 0.90404892E+02</pdfrwt>
<totfact> 0.51362209E+04</totfact>
</mgrwt>
</event>
<event>
 5    1  0.3862918E+001  0.9375319E+02  0.7546771E-02  0.1294009E+00
          2   -1    0    0  501    0  0.00000000000E+00  0.00000000000E+00  0.66964179751E+03  0.66964179751E+03  0.00000000000E+00 0.  1.
         -2   -1    0    0    0  501 -0.00000000000E+00 -0.00000000000E+00 -0.32814783904E+01  0.32814783904E+01  0.00000000000E+00 0. -1.
         23    2    1    2    0    0  0.00000000000E+00  0.00000000000E+00  0.66636031912E+03  0.67292327590E+03  0.93753188486E+02 0.  0.
          2    1    3    3  502    0 -0.16517381935E+02 -0.42930158542E+02  0.26834582248E+03  0.27225962400E+03  0.00000000000E+00 0. -1.
         -2    1    3    3    0  502  0.16517381935E+02  0.42930158542E+02  0.39801449665E+03  0.40066365191E+03  0.00000000000E+00 0.  1.
<mgrwt>
<rscale>  0 0.93753188E+02</rscale>
<asrwt>0</asrwt>
<pdfrwt beam="1">  1        2 0.10302171E+00 0.93753188E+02</pdfrwt>
<pdfrwt beam="2">  1       -2 0.50484336E-03 0.93753188E+02</pdfrwt>
<totfact> 0.21796351E+05</totfact>
</mgrwt>
</event>
<event>
 5    1  0.3862918E+001  0.9089166E+02  0.7546771E-02  0.1300707E+00
          4   -1    0    0  501    0  0.00000000000E+00  0.00000000000E+00  0.12810524307E+02  0.12810524307E+02  0.00000000000E+00 0.  1.
         -4   -1    0    0    0  501 -0.00000000000E+00 -0.00000000000E+00 -0.16122085078E+03  0.16122085078E+03  0.00000000000E+00 0. -1.
         23    2    1    2    0    0  0.00000000000E+00  0.00000000000E+00 -0.14841032647E+03  0.17403137509E+03  0.90891663593E+02 0.  0.
          2    1    3    3  502    0  0.43655399071E+02 -0.73411505426E+01 -0.54525752937E+02  0.70233496942E+02  0.00000000000E+00 0. -1.
         -2    1    3    3    0  502 -0.43655399071E+02  0.73411505426E+01 -0.93884573536E+02  0.10379787814E+03  0.00000000000E+00 0.  1.
<mgrwt>
<rscale>  0 0.90891664E+02</rscale>
<asrwt>0</asrwt>
<pdfrwt beam="1">  1        4 0.19708500E-02 0.90891664E+02</pdfrwt>
<pdfrwt beam="2">  1       -4 0.24803206E-01 0.90891664E+02</pdfrwt>
<totfact> 0.22711731E+04</totfact>
</mgrwt>
</event>
<event>
 5    1  0.3862918E+001  0.9404521E+02  0.7546771E-02  0.1293341E+00
         -2   -1    0    0    0  501 -0.00000000000E+00  0.00000000000E+00  0.23834474157E+01  0.23834474157E+01  0.00000000000E+00 0.  1.
          2   -1    0    0  501    0  0.00000000000E+00 -0.00000000000E+00 -0.92770050685E+03  0.92770050685E+03  0.00000000000E+00 0. -1.
         23    2    1    2    0    0  0.00000000000E+00  0.00000000000E+00 -0.92531705943E+03  0.93008395426E+03  0.94045209885E+02 0.  0.
          2    1    3    3  502    0  0.31256367541E+02  0.35325579086E+01 -0.80833136551E+03  0.80894315990E+03  0.00000000000E+00 0. -1.
         -2    1    3    3    0  502 -0.31256367541E+02 -0.35325579086E+01 -0.11698569392E+03  0.12114079437E+03  0.00000000000E+00 0.  1.
<mgrwt>
<rscale>  0 0.94045210E+02</rscale>
<asrwt>0</asrwt>
<pdfrwt beam="2">  1        2 0.14272322E+00 0.94045210E+02</pdfrwt>
<pdfrwt beam="1">  1       -2 0.36668405E-03 0.94045210E+02</pdfrwt>
<totfact> 0.22920502E+05</totfact>
</mgrwt>
</event>
<event>
 4    1  0.3862918E+001  0.4560507E+02  0.7546771E-02  0.1470599E+00
         -2   -1    0    0    0  501 -0.00000000000E+00  0.00000000000E+00  0.15769149651E+01  0.15769149651E+01  0.00000000000E+00 0.  1.
          2   -1    0    0  501    0  0.00000000000E+00 -0.00000000000E+00 -0.32972970860E+03  0.32972970860E+03  0.00000000000E+00 0. -1.
          2    1    1    2  502    0  0.21225667910E+02 -0.76317757901E+00 -0.22435329844E+03  0.22535641535E+03  0.00000000000E+00 0. -1.
         -2    1    1    2    0  502 -0.21225667910E+02  0.76317757901E+00 -0.10379949519E+03  0.10595020821E+03  0.00000000000E+00 0.  1.
<mgrwt>
<rscale>  0 0.45605075E+02</rscale>
<asrwt>0</asrwt>
<pdfrwt beam="2">  1        2 0.50727670E-01 0.45605075E+02</pdfrwt>
<pdfrwt beam="1">  1       -2 0.24260219E-03 0.45605075E+02</pdfrwt>
<totfact> 0.10975148E+06</totfact>
</mgrwt>
</event>
<event>
 5    1  0.3862918E+001  0.9155085E+02  0.7546771E-02  0.1299139E+00
          2   -1    0    0  501    0  0.00000000000E+00  0.00000000000E+00  0.14156515127E+03  0.14156515127E+03  0.00000000000E+00 0. -1.
         -2   -1    0    0    0  501 -0.00000000000E+00 -0.00000000000E+00 -0.14801589932E+02  0.14801589932E+02  0.00000000000E+00 0.  1.
         23    2    1    2    0    0  0.00000000000E+00  0.00000000000E+00  0.12676356134E+03  0.15636674120E+03  0.91550845280E+02 0.  0.
          2    1    3    3  502    0  0.38511672850E+00 -0.33609252678E+02  0.11645726354E+03  0.12121066129E+03  0.00000000000E+00 0. -1.
         -2    1    3    3    0  502 -0.38511672850E+00  0.33609252678E+02  0.10306297804E+02  0.35156079914E+02  0.00000000000E+00 0.  1.
<mgrwt>
<rscale>  0 0.91550845E+02</rscale>
<asrwt>0</asrwt>
<pdfrwt beam="1">  1        2 0.21779253E-01 0.91550845E+02</pdfrwt>
<pdfrwt beam="2">  1       -2 0.22771678E-02 0.91550845E+02</pdfrwt>
<totfact> 0.13558368E+05</totfact>
</mgrwt>
</event>
<event>
 5    1  0.3862918E+001  0.9076900E+02  0.7546771E-02  0.1301000E+00
          1   -1    0    0  501    0  0.00000000000E+00  0.00000000000E+00  0.21410425378E+03  0.21410425378E+03  0.00000000000E+00 0. -1.
         -1   -1    0    0    0  501 -0.00000000000E+00 -0.00000000000E+00 -0.96203274846E+01  0.96203274846E+01  0.00000000000E+00 0.  1.
         23    2    1    2    0    0  0.00000000000E+00  0.00000000000E+00  0.20448392630E+03  0.22372458127E+03  0.90769004340E+02 0.  0.
          2    1    3    3  502    0 -0.35120002365E+01  0.19765319339E+02  0.20256594446E+03  0.20355825665E+03  0.00000000000E+00 0. -1.
         -2    1    3    3    0  502  0.35120002365E+01 -0.19765319339E+02  0.19179818349E+01  0.20166324617E+02  0.00000000000E+00 0.  1.
<mgrwt>
<rscale>  0 0.90769004E+02</rscale>
<asrwt>0</asrwt>
<pdfrwt beam="1">  1        1 0.32939112E-01 0.90769004E+02</pdfrwt>
<pdfrwt beam="2">  1       -1 0.14800505E-02 0.90769004E+02</pdfrwt>
<totfact> 0.12143462E+05</totfact>
</mgrwt>
</event>
<event>
 5    1  0.3862918E+001  0.8382791E+02  0.7546771E-02  0.1318526E+00
          1   -1    0    0  501    0  0.00000000000E+00  0.00000000000E+00  0.17492218376E+02  0.17492218376E+02  0.00000000000E+00 0. -1.
         -1   -1    0    0    0  501 -0.00000000000E+00 -0.00000000000E+00 -0.10043206960E+03  0.10043206960E+03  0.00000000000E+00 0.  1.
         23    2    1    2    0    0  0.00000000000E+00  0.00000000000E+00 -0.82939851223E+02  0.11792428798E+03  0.83827911662E+02 0.  0.
          2    1    3    3  502    0  0.41817229004E+02  0.92696651519E+00 -0.37684824826E+02  0.56299963860E+02  0.00000000000E+00 0. -1.
         -2    1    3    3    0  502 -0.41817229004E+02 -0.92696651519E+00 -0.45255026397E+02  0.61624324116E+02  0.00000000000E+00 0.  1.
<mgrwt>
<rscale>  0 0.83827912E+02</rscale>
<asrwt>0</asrwt>
<pdfrwt beam="1">  1        1 0.26911105E-02 0.83827912E+02</pdfrwt>
<pdfrwt beam="2">  1       -1 0.15451088E-01 0.83827912E+02</pdfrwt>
<totfact> 0.10090120E+05</totfact>
</mgrwt>
</event>
<event>
 5    1  0.3862918E+001  0.9659480E+02  0.7546771E-02  0.1287624E+00
         -2   -1    0    0    0  501 -0.00000000000E+00  0.00000000000E+00  0.15855353517E+03  0.15855353517E+03  0.00000000000E+00 0.  1.
          2   -1    0    0  501    0  0.00000000000E+00 -0.00000000000E+00 -0.14711994567E+02  0.14711994567E+02  0.00000000000E+00 0. -1.
         23    2    1    2    0    0  0.00000000000E+00  0.00000000000E+00  0.14384154061E+03  0.17326552974E+03  0.96594797957E+02 0.  0.
          2    1    3    3  502    0 -0.14185259113E+02  0.27791937381E+02  0.13804676491E+03  0.14152922900E+03  0.00000000000E+00 0.  1.
         -2    1    3    3    0  502  0.14185259113E+02 -0.27791937381E+02  0.57947757006E+01  0.31736300744E+02  0.00000000000E+00 0. -1.
<mgrwt>
<rscale>  0 0.96594798E+02</rscale>
<asrwt>0</asrwt>
<pdfrwt beam="2">  1        2 0.22633839E-02 0.96594798E+02</pdfrwt>
<pdfrwt beam="1">  1       -2 0.24392850E-01 0.96594798E+02</pdfrwt>
<totfact> 0.59107891E+04</totfact>
</mgrwt>
</event>
<event>
 5    1  0.3862918E+001  0.9023647E+02  0.7546771E-02  0.1302280E+00
          2   -1    0    0  501    0  0.00000000000E+00  0.00000000000E+00  0.53942173251E+01  0.53942173251E+01  0.00000000000E+00 0. -1.
         -2   -1    0    0    0  501 -0.00000000000E+00 -0.00000000000E+00 -0.37737730768E+03  0.37737730768E+03  0.00000000000E+00 0.  1.
         23    2    1    2    0    0  0.00000000000E+00  0.00000000000E+00 -0.37198309036E+03  0.38277152501E+03  0.90236471811E+02 0.  0.
          2    1    3    3  502    0 -0.24595894684E+02  0.21780539303E+01 -0.25810854905E+02  0.35719773028E+02  0.00000000000E+00 0. -1.
         -2    1    3    3    0  502  0.24595894684E+02 -0.21780539303E+01 -0.34617223545E+03  0.34705175198E+03  0.00000000000E+00 0.  1.
<mgrwt>
<rscale>  0 0.90236472E+02</rscale>
<asrwt>0</asrwt>
<pdfrwt beam="1">  1        2 0.82987961E-03 0.90236472E+02</pdfrwt>
<pdfrwt beam="2">  1       -2 0.58058046E-01 0.90236472E+02</pdfrwt>
<totfact> 0.45578688E+04</totfact>
</mgrwt>
</event>
<event>
 5    1  0.3862918E+001  0.9160372E+02  0.7546771E-02  0.1299014E+00
         -2   -1    0    0    0  501 -0.00000000000E+00  0.00000000000E+00  0.57659950609E+02  0.57659950609E+02  0.00000000000E+00 0.  1.
          2   -1    0    0  501    0  0.00000000000E+00 -0.00000000000E+00 -0.36382449554E+02  0.36382449554E+02  0.00000000000E+00 0. -1.
         23    2    1    2    0    0  0.00000000000E+00  0.00000000000E+00  0.21277501055E+02  0.94042400163E+02  0.91603717049E+02 0.  0.
          2    1    3    3  502    0 -0.24079627888E+02 -0.81569567602E+00 -0.29350999084E+02  0.37973345730E+02  0.00000000000E+00 0. -1.
         -2    1    3    3    0  502  0.24079627888E+02  0.81569567602E+00  0.50628500139E+02  0.56069054433E+02  0.00000000000E+00 0.  1.
<mgrwt>
<rscale>  0 0.91603717E+02</rscale>
<asrwt>0</asrwt>
<pdfrwt beam="2">  1        2 0.55972999E-02 0.91603717E+02</pdfrwt>
<pdfrwt beam="1">  1       -2 0.88707617E-02 0.91603717E+02</pdfrwt>
<totfact> 0.91810815E+04</totfact>
</mgrwt>
</event>
<event>
 5    1  0.3862918E+001  0.9182862E+02  0.7546771E-02  0.1298483E+00
          1   -1    0    0  501    0  0.00000000000E+00  0.00000000000E+00  0.60471486394E+01  0.60471486394E+01  0.00000000000E+00 0. -1.
         -1   -1    0    0    0  501 -0.00000000000E+00 -0.00000000000E+00 -0.34861454531E+03  0.34861454531E+03  0.00000000000E+00 0.  1.
         23    2    1    2    0    0  0.00000000000E+00  0.00000000000E+00 -0.34256739667E+03  0.35466169395E+03  0.91828622408E+02 0.  0.
          2    1    3    3  502    0 -0.40985136177E+02 -0.70912112866E+01 -0.24637939210E+03  0.24986570697E+03  0.00000000000E+00 0.  1.
         -2    1    3    3    0  502  0.40985136177E+02  0.70912112866E+01 -0.96188004570E+02  0.10479598699E+03  0.00000000000E+00 0. -1.
<mgrwt>
<rscale>  0 0.91828622E+02</rscale>
<asrwt>0</asrwt>
<pdfrwt beam="1">  1        1 0.93033044E-03 0.91828622E+02</pdfrwt>
<pdfrwt beam="2">  1       -1 0.53633014E-01 0.91828622E+02</pdfrwt>
<totfact> 0.55836047E+04</totfact>
</mgrwt>
</event>
<event>
 5    1  0.3862918E+001  0.8992343E+02  0.7546771E-02  0.1303037E+00
          1   -1    0    0  501    0  0.00000000000E+00  0.00000000000E+00  0.45706581486E+01  0.45706581486E+01  0.00000000000E+00 0. -1.
         -1   -1    0    0    0  501 -0.00000000000E+00 -0.00000000000E+00 -0.44228989746E+03  0.44228989746E+03  0.00000000000E+00 0.  1.
         23    2    1    2    0    0  0.00000000000E+00  0.00000000000E+00 -0.43771923931E+03  0.44686055561E+03  0.89923432405E+02 0.  0.
          2    1    3    3  502    0 -0.41789960537E+02 -0.15187559293E+02 -0.18571250007E+03  0.19096124067E+03  0.00000000000E+00 0. -1.
         -2    1    3    3    0  502  0.41789960537E+02  0.15187559293E+02 -0.25200673925E+03  0.25589931494E+03  0.00000000000E+00 0.  1.
<mgrwt>
<rscale>  0 0.89923432E+02</rscale>
<asrwt>0</asrwt>
<pdfrwt beam="1">  1        1 0.70317812E-03 0.89923432E+02</pdfrwt>
<pdfrwt beam="2">  1       -1 0.68044605E-01 0.89923432E+02</pdfrwt>
<totfact> 0.52400073E+04</totfact>
</mgrwt>
</event>
<event>
 5    1  0.3862918E+001  0.9025273E+02  0.7546771E-02  0.1302241E+00
         -1   -1    0    0    0  501 -0.00000000000E+00  0.00000000000E+00  0.19516786474E+03  0.19516786474E+03  0.00000000000E+00 0.  1.
          1   -1    0    0  501    0  0.00000000000E+00 -0.00000000000E+00 -0.10434036687E+02  0.10434036687E+02  0.00000000000E+00 0. -1.
         23    2    1    2    0    0  0.00000000000E+00  0.00000000000E+00  0.18473382805E+03  0.20560190143E+03  0.90252726515E+02 0.  0.
          2    1    3    3  502    0  0.26724616925E+02  0.33295717302E+02  0.12565936633E+03  0.13271430324E+03  0.00000000000E+00 0.  1.
         -2    1    3    3    0  502 -0.26724616925E+02 -0.33295717302E+02  0.59074461727E+02  0.72887598182E+02  0.00000000000E+00 0. -1.
<mgrwt>
<rscale>  0 0.90252727E+02</rscale>
<asrwt>0</asrwt>
<pdfrwt beam="2">  1        1 0.16052366E-02 0.90252727E+02</pdfrwt>
<pdfrwt beam="1">  1       -1 0.30025823E-01 0.90252727E+02</pdfrwt>
<totfact> 0.71785777E+04</totfact>
</mgrwt>
</event>
<event>
 5    1  0.3862918E+001  0.9225117E+02  0.7546771E-02  0.1297490E+00
          1   -1    0    0  501    0  0.00000000000E+00  0.00000000000E+00  0.43337621758E+02  0.43337621758E+02  0.00000000000E+00 0. -1.
         -1   -1    0    0    0  501 -0.00000000000E+00 -0.00000000000E+00 -0.49092902387E+02  0.49092902387E+02  0.00000000000E+00 0.  1.
         23    2    1    2    0    0  0.00000000000E+00  0.00000000000E+00 -0.57552806291E+01  0.92430524145E+02  0.92251170933E+02 0.  0.
          2    1    3    3  502    0  0.21378207130E+02  0.14296359831E+02  0.35487219711E+02  0.43826435029E+02  0.00000000000E+00 0. -1.
         -2    1    3    3    0  502 -0.21378207130E+02 -0.14296359831E+02 -0.41242500340E+02  0.48604089116E+02  0.00000000000E+00 0.  1.
<mgrwt>
<rscale>  0 0.92251171E+02</rscale>
<asrwt>0</asrwt>
<pdfrwt beam="1">  1        1 0.66673264E-02 0.92251171E+02</pdfrwt>
<pdfrwt beam="2">  1       -1 0.75527542E-02 0.92251171E+02</pdfrwt>
<totfact> 0.88788918E+04</totfact>
</mgrwt>
</event>
<event>
 5    1  0.3862918E+001  0.9270013E+02  0.7546771E-02  0.1296442E+00
         -2   -1    0    0    0  501 -0.00000000000E+00  0.00000000000E+00  0.18984204582E+01  0.18984204582E+01  0.00000000000E+00 0.  1.
          2   -1    0    0  501    0  0.00000000000E+00 -0.00000000000E+00 -0.11316400828E+04  0.11316400828E+04  0.00000000000E+00 0. -1.
         23    2    1    2    0    0  0.00000000000E+00  0.00000000000E+00 -0.11297416624E+04  0.11335385033E+04  0.92700133433E+02 0.  0.
          2    1    3    3  502    0  0.25993862001E+02 -0.26882111203E+02 -0.89974876072E+03  0.90052549169E+03  0.00000000000E+00 0. -1.
         -2    1    3    3    0  502 -0.25993862001E+02  0.26882111203E+02 -0.22999290167E+03  0.23301301162E+03  0.00000000000E+00 0.  1.
<mgrwt>
<rscale>  0 0.92700133E+02</rscale>
<asrwt>0</asrwt>
<pdfrwt beam="2">  1        2 0.17409868E+00 0.92700133E+02</pdfrwt>
<pdfrwt beam="1">  1       -2 0.29206433E-03 0.92700133E+02</pdfrwt>
<totfact> 0.23921193E+05</totfact>
</mgrwt>
</event>
<event>
 5    1  0.3862918E+001  0.8938925E+02  0.7546771E-02  0.1304337E+00
          1   -1    0    0  501    0  0.00000000000E+00  0.00000000000E+00  0.11223731202E+04  0.11223731202E+04  0.00000000000E+00 0. -1.
         -1   -1    0    0    0  501 -0.00000000000E+00 -0.00000000000E+00 -0.17798087553E+01  0.17798087553E+01  0.00000000000E+00 0.  1.
         23    2    1    2    0    0  0.00000000000E+00  0.00000000000E+00  0.11205933115E+04  0.11241529290E+04  0.89389250050E+02 0.  0.
          2    1    3    3  502    0 -0.28507341312E+02  0.34155148222E+02  0.61419276455E+03  0.61580191189E+03  0.00000000000E+00 0. -1.
         -2    1    3    3    0  502  0.28507341312E+02 -0.34155148222E+02  0.50640054694E+03  0.50835101711E+03  0.00000000000E+00 0.  1.
<mgrwt>
<rscale>  0 0.89389250E+02</rscale>
<asrwt>0</asrwt>
<pdfrwt beam="1">  1        1 0.17267222E+00 0.89389250E+02</pdfrwt>
<pdfrwt beam="2">  1       -1 0.27381763E-03 0.89389250E+02</pdfrwt>
<totfact> 0.13803924E+05</totfact>
</mgrwt>
</event>
<event>
 5    1  0.3862918E+001  0.9015710E+02  0.7546771E-02  0.1302472E+00
         -3   -1    0    0    0  501 -0.00000000000E+00  0.00000000000E+00  0.98722847791E+03  0.98722847791E+03  0.00000000000E+00 0.  1.
          3   -1    0    0  501    0  0.00000000000E+00 -0.00000000000E+00 -0.20583640628E+01  0.20583640628E+01  0.00000000000E+00 0. -1.
         23    2    1    2    0    0  0.00000000000E+00  0.00000000000E+00  0.98517011384E+03  0.98928684197E+03  0.90157098904E+02 0.  0.
          2    1    3    3  502    0 -0.18365670377E+02  0.25663878340E+02  0.13937571764E+03  0.14290389486E+03  0.00000000000E+00 0. -1.
         -2    1    3    3    0  502  0.18365670377E+02 -0.25663878340E+02  0.84579439620E+03  0.84638294711E+03  0.00000000000E+00 0.  1.
<mgrwt>
<rscale>  0 0.90157099E+02</rscale>
<asrwt>0</asrwt>
<pdfrwt beam="2">  1        3 0.31667218E-03 0.90157099E+02</pdfrwt>
<pdfrwt beam="1">  1       -3 0.15188093E+00 0.90157099E+02</pdfrwt>
<totfact> 0.10396681E+04</totfact>
</mgrwt>
</event>
<event>
 5    1  0.3862918E+001  0.9965403E+02  0.7546771E-02  0.1281025E+00
         -1   -1    0    0    0  501 -0.00000000000E+00  0.00000000000E+00  0.89715315054E+01  0.89715315054E+01  0.00000000000E+00 0.  1.
          1   -1    0    0  501    0  0.00000000000E+00 -0.00000000000E+00 -0.27673442899E+03  0.27673442899E+03  0.00000000000E+00 0. -1.
         23    2    1    2    0    0  0.00000000000E+00  0.00000000000E+00 -0.26776289749E+03  0.28570596050E+03  0.99654034506E+02 0.  0.
          2    1    3    3  502    0  0.39930836348E+01 -0.32532130052E+02 -0.26285792613E+02  0.42014605745E+02  0.00000000000E+00 0. -1.
         -2    1    3    3    0  502 -0.39930836348E+01  0.32532130052E+02 -0.24147710487E+03  0.24369135475E+03  0.00000000000E+00 0.  1.
<mgrwt>
<rscale>  0 0.99654035E+02</rscale>
<asrwt>0</asrwt>
<pdfrwt beam="2">  1        1 0.42574520E-01 0.99654035E+02</pdfrwt>
<pdfrwt beam="1">  1       -1 0.13802359E-02 0.99654035E+02</pdfrwt>
<totfact> 0.99392072E+04</totfact>
</mgrwt>
</event>
<event>
 5    1  0.3862918E+001  0.8521387E+02  0.7546771E-02  0.1314874E+00
          4   -1    0    0  501    0  0.00000000000E+00  0.00000000000E+00  0.16842745098E+02  0.16842745098E+02  0.00000000000E+00 0. -1.
         -4   -1    0    0    0  501 -0.00000000000E+00 -0.00000000000E+00 -0.10778235977E+03  0.10778235977E+03  0.00000000000E+00 0.  1.
         23    2    1    2    0    0  0.00000000000E+00  0.00000000000E+00 -0.90939614676E+02  0.12462510487E+03  0.85213867692E+02 0.  0.
          2    1    3    3  502    0 -0.31547315712E+02  0.23059992988E+02 -0.20635128073E+02  0.44190552336E+02  0.00000000000E+00 0. -1.
         -2    1    3    3    0  502  0.31547315712E+02 -0.23059992988E+02 -0.70304486603E+02  0.80434552536E+02  0.00000000000E+00 0.  1.
<mgrwt>
<rscale>  0 0.85213868E+02</rscale>
<asrwt>0</asrwt>
<pdfrwt beam="1">  1        4 0.25911915E-02 0.85213868E+02</pdfrwt>
<pdfrwt beam="2">  1       -4 0.16581902E-01 0.85213868E+02</pdfrwt>
<totfact> 0.29989400E+04</totfact>
</mgrwt>
</event>
<event>
 4    1  0.3862918E+001  0.4422222E+02  0.7546771E-02  0.1479256E+00
          2   -1    0    0  501    0  0.00000000000E+00  0.00000000000E+00  0.11843874350E+04  0.11843874350E+04  0.00000000000E+00 0. -1.
         -2   -1    0    0    0  501 -0.00000000000E+00 -0.00000000000E+00 -0.41278830735E+00  0.41278830735E+00  0.00000000000E+00 0.  1.
          2    1    1    2  502    0  0.16841662449E+02  0.14024183015E+02  0.51350021600E+03  0.51396769464E+03  0.00000000000E+00 0. -1.
         -2    1    1    2    0  502 -0.16841662449E+02 -0.14024183015E+02  0.67047443070E+03  0.67083252868E+03  0.00000000000E+00 0.  1.
<mgrwt>
<rscale>  0 0.44222224E+02</rscale>
<asrwt>0</asrwt>
<pdfrwt beam="1">  1        2 0.18221073E+00 0.44222224E+02</pdfrwt>
<pdfrwt beam="2">  1       -2 0.63506842E-04 0.44222224E+02</pdfrwt>
<totfact> 0.15592221E+06</totfact>
</mgrwt>
</event>
<event>
 5    1  0.3862918E+001  0.9149366E+02  0.7546771E-02  0.1299274E+00
         -2   -1    0    0    0  501 -0.00000000000E+00  0.00000000000E+00  0.47491444558E+02  0.47491444558E+02  0.00000000000E+00 0.  1.
          2   -1    0    0  501    0  0.00000000000E+00 -0.00000000000E+00 -0.44066307974E+02  0.44066307974E+02  0.00000000000E+00 0. -1.
         23    2    1    2    0    0  0.00000000000E+00  0.00000000000E+00  0.34251365836E+01  0.91557752532E+02  0.91493663650E+02 0.  0.
          2    1    3    3  502    0 -0.63970531547E+01  0.40789399703E+02 -0.18000855257E+02  0.45041405475E+02  0.00000000000E+00 0. -1.
         -2    1    3    3    0  502  0.63970531547E+01 -0.40789399703E+02  0.21425991840E+02  0.46516347057E+02  0.00000000000E+00 0.  1.
<mgrwt>
<rscale>  0 0.91493664E+02</rscale>
<asrwt>0</asrwt>
<pdfrwt beam="2">  1        2 0.67794320E-02 0.91493664E+02</pdfrwt>
<pdfrwt beam="1">  1       -2 0.73063761E-02 0.91493664E+02</pdfrwt>
<totfact> 0.96837033E+04</totfact>
</mgrwt>
</event>
<event>
 5    1  0.3862918E+001  0.9293855E+02  0.7546771E-02  0.1295888E+00
          2   -1    0    0  501    0  0.00000000000E+00  0.00000000000E+00  0.10519967373E+02  0.10519967373E+02  0.00000000000E+00 0.  1.
         -2   -1    0    0    0  501 -0.00000000000E+00 -0.00000000000E+00 -0.20526617552E+03  0.20526617552E+03  0.00000000000E+00 0. -1.
         23    2    1    2    0    0  0.00000000000E+00  0.00000000000E+00 -0.19474620815E+03  0.21578614290E+03  0.92938548930E+02 0.  0.
          2    1    3    3  502    0 -0.39809579925E+02  0.16003428820E+02 -0.13880830837E+03  0.14528819243E+03  0.00000000000E+00 0. -1.
         -2    1    3    3    0  502  0.39809579925E+02 -0.16003428820E+02 -0.55937899778E+02  0.70497950462E+02  0.00000000000E+00 0.  1.
<mgrwt>
<rscale>  0 0.92938549E+02</rscale>
<asrwt>0</asrwt>
<pdfrwt beam="1">  1        2 0.16184567E-02 0.92938549E+02</pdfrwt>
<pdfrwt beam="2">  1       -2 0.31579408E-01 0.92938549E+02</pdfrwt>
<totfact> 0.58672298E+04</totfact>
</mgrwt>
</event>
<event>
 5    1  0.3862918E+001  0.7727327E+02  0.7546771E-02  0.1336973E+00
         -2   -1    0    0    0  501 -0.00000000000E+00  0.00000000000E+00  0.78122481638E+03  0.78122481638E+03  0.00000000000E+00 0.  1.
          2   -1    0    0  501    0  0.00000000000E+00 -0.00000000000E+00 -0.19108323428E+01  0.19108323428E+01  0.00000000000E+00 0. -1.
         23    2    1    2    0    0  0.00000000000E+00  0.00000000000E+00  0.77931398404E+03  0.78313564873E+03  0.77273272123E+02 0.  0.
          2    1    3    3  502    0  0.26619233006E+01 -0.20222652304E+02  0.57101015666E+02  0.60634705342E+02  0.00000000000E+00 0. -1.
         -2    1    3    3    0  502 -0.26619233006E+01  0.20222652304E+02  0.72221296837E+03  0.72250094338E+03  0.00000000000E+00 0.  1.
<mgrwt>
<rscale>  0 0.77273272E+02</rscale>
<asrwt>0</asrwt>
<pdfrwt beam="2">  1        2 0.29397483E-03 0.77273272E+02</pdfrwt>
<pdfrwt beam="1">  1       -2 0.12018818E+00 0.77273272E+02</pdfrwt>
<totfact> 0.37433295E+04</totfact>
</mgrwt>
</event>
<event>
 5    1  0.3862918E+001  0.9260386E+02  0.7546771E-02  0.1296666E+00
          2   -1    0    0  501    0  0.00000000000E+00  0.00000000000E+00  0.10610757934E+04  0.10610757934E+04  0.00000000000E+00 0.  1.
         -2   -1    0    0    0  501 -0.00000000000E+00 -0.00000000000E+00 -0.20204672708E+01  0.20204672708E+01  0.00000000000E+00 0. -1.
         23    2    1    2    0    0  0.00000000000E+00  0.00000000000E+00  0.10590553262E+04  0.10630962607E+04  0.92603864120E+02 0.  0.
          2    1    3    3  502    0 -0.18684190835E+02 -0.25887392600E+02  0.14454160840E+03  0.14802544593E+03  0.00000000000E+00 0. -1.
         -2    1    3    3    0  502  0.18684190835E+02  0.25887392600E+02  0.91451371777E+03  0.91507081478E+03  0.00000000000E+00 0.  1.
<mgrwt>
<rscale>  0 0.92603864E+02</rscale>
<asrwt>0</asrwt>
<pdfrwt beam="1">  1        2 0.16324198E+00 0.92603864E+02</pdfrwt>
<pdfrwt beam="2">  1       -2 0.31084197E-03 0.92603864E+02</pdfrwt>
<totfact> 0.24029710E+05</totfact>
</mgrwt>
</event>
<event>
 5    1  0.3862918E+001  0.9706462E+02  0.7546771E-02  0.1286593E+00
          1   -1    0    0  501    0  0.00000000000E+00  0.00000000000E+00  0.69503624011E+02  0.69503624011E+02  0.00000000000E+00 0. -1.
         -1   -1    0    0    0  501 -0.00000000000E+00 -0.00000000000E+00 -0.33888668216E+02  0.33888668216E+02  0.00000000000E+00 0.  1.
         23    2    1    2    0    0  0.00000000000E+00  0.00000000000E+00  0.35614955796E+02  0.10339229223E+03  0.97064622884E+02 0.  0.
          2    1    3    3  502    0 -0.37229281703E+02 -0.19303585501E+02  0.43828169177E+02  0.60659345881E+02  0.00000000000E+00 0. -1.
         -2    1    3    3    0  502  0.37229281703E+02  0.19303585501E+02 -0.82132133811E+01  0.42732946346E+02  0.00000000000E+00 0.  1.
<mgrwt>
<rscale>  0 0.97064623E+02</rscale>
<asrwt>0</asrwt>
<pdfrwt beam="1">  1        1 0.10692865E-01 0.97064623E+02</pdfrwt>
<pdfrwt beam="2">  1       -1 0.52136413E-02 0.97064623E+02</pdfrwt>
<totfact> 0.82856598E+04</totfact>
</mgrwt>
</event>
<event>
 5    1  0.3862918E+001  0.7822461E+02  0.7546771E-02  0.1334167E+00
         -1   -1    0    0    0  501 -0.00000000000E+00  0.00000000000E+00  0.45829149115E+00  0.45829149115E+00  0.00000000000E+00 0.  1.
          1   -1    0    0  501    0  0.00000000000E+00 -0.00000000000E+00 -0.33379899443E+04  0.33379899443E+04  0.00000000000E+00 0. -1.
         23    2    1    2    0    0  0.00000000000E+00  0.00000000000E+00 -0.33375316528E+04  0.33384482357E+04  0.78224609657E+02 0.  0.
          2    1    3    3  502    0  0.31010930907E+02 -0.18435347019E+02 -0.23135138472E+04  0.23137951208E+04  0.00000000000E+00 0. -1.
         -2    1    3    3    0  502 -0.31010930907E+02  0.18435347019E+02 -0.10240178056E+04  0.10246531150E+04  0.00000000000E+00 0.  1.
<mgrwt>
<rscale>  0 0.78224610E+02</rscale>
<asrwt>0</asrwt>
<pdfrwt beam="2">  1        1 0.51352712E+00 0.78224610E+02</pdfrwt>
<pdfrwt beam="1">  1       -1 0.70507728E-04 0.78224610E+02</pdfrwt>
<totfact> 0.31917226E+04</totfact>
</mgrwt>
</event>
<event>
 5    1  0.3862918E+001  0.8910318E+02  0.7546771E-02  0.1305038E+00
          2   -1    0    0  501    0  0.00000000000E+00  0.00000000000E+00  0.73018146891E+03  0.73018146891E+03  0.00000000000E+00 0. -1.
         -2   -1    0    0    0  501 -0.00000000000E+00 -0.00000000000E+00 -0.27182886931E+01  0.27182886931E+01  0.00000000000E+00 0.  1.
         23    2    1    2    0    0  0.00000000000E+00  0.00000000000E+00  0.72746318022E+03  0.73289975761E+03  0.89103176843E+02 0.  0.
          2    1    3    3  502    0  0.35044165207E+02  0.18563378270E+02  0.19674567782E+03  0.20070265137E+03  0.00000000000E+00 0.  1.
         -2    1    3    3    0  502 -0.35044165207E+02 -0.18563378270E+02  0.53071750240E+03  0.53219710623E+03  0.00000000000E+00 0. -1.
<mgrwt>
<rscale>  0 0.89103177E+02</rscale>
<asrwt>0</asrwt>
<pdfrwt beam="1">  1        2 0.11233545E+00 0.89103177E+02</pdfrwt>
<pdfrwt beam="2">  1       -2 0.41819884E-03 0.89103177E+02</pdfrwt>
<totfact> 0.25435489E+05</totfact>
</mgrwt>
</event>
<event>
 5    1  0.3862918E+001  0.9105252E+02  0.7546771E-02  0.1300323E+00
          2   -1    0    0  501    0  0.00000000000E+00  0.00000000000E+00  0.20648743809E+03  0.20648743809E+03  0.00000000000E+00 0. -1.
         -2   -1    0    0    0  501 -0.00000000000E+00 -0.00000000000E+00 -0.10037610461E+02  0.10037610461E+02  0.00000000000E+00 0.  1.
         23    2    1    2    0    0  0.00000000000E+00  0.00000000000E+00  0.19644982763E+03  0.21652504855E+03  0.91052522617E+02 0.  0.
          2    1    3    3  502    0  0.81887782738E+01  0.30044195077E+02  0.17720003102E+03  0.17991542664E+03  0.00000000000E+00 0. -1.
         -2    1    3    3    0  502 -0.81887782738E+01 -0.30044195077E+02  0.19249796608E+02  0.36609621917E+02  0.00000000000E+00 0.  1.
<mgrwt>
<rscale>  0 0.91052523E+02</rscale>
<asrwt>0</asrwt>
<pdfrwt beam="1">  1        2 0.31767295E-01 0.91052523E+02</pdfrwt>
<pdfrwt beam="2">  1       -2 0.15442479E-02 0.91052523E+02</pdfrwt>
<totfact> 0.15705560E+05</totfact>
</mgrwt>
</event>
<event>
 5    1  0.3862918E+001  0.9119204E+02  0.7546771E-02  0.1299990E+00
          2   -1    0    0  501    0  0.00000000000E+00  0.00000000000E+00  0.17947292015E+04  0.17947292015E+04  0.00000000000E+00 0. -1.
         -2   -1    0    0    0  501 -0.00000000000E+00 -0.00000000000E+00 -0.11583902745E+01  0.11583902745E+01  0.00000000000E+00 0.  1.
         23    2    1    2    0    0  0.00000000000E+00  0.00000000000E+00  0.17935708112E+04  0.17958875918E+04  0.91192035886E+02 0.  0.
          2    1    3    3  502    0 -0.68512832675E+00  0.27285503521E+02  0.16160767475E+04  0.16163072177E+04  0.00000000000E+00 0. -1.
         -2    1    3    3    0  502  0.68512832675E+00 -0.27285503521E+02  0.17749406370E+03  0.17958037407E+03  0.00000000000E+00 0.  1.
<mgrwt>
<rscale>  0 0.91192036E+02</rscale>
<asrwt>0</asrwt>
<pdfrwt beam="1">  1        2 0.27610996E+00 0.91192036E+02</pdfrwt>
<pdfrwt beam="2">  1       -2 0.17821532E-03 0.91192036E+02</pdfrwt>
<totfact> 0.21467148E+05</totfact>
</mgrwt>
</event>
<event>
 5    1  0.3862918E+001  0.9062099E+02  0.7546771E-02  0.1301355E+00
         -1   -1    0    0    0  501 -0.00000000000E+00  0.00000000000E+00  0.71871803374E+02  0.71871803374E+02  0.00000000000E+00 0.  1.
          1   -1    0    0  501    0  0.00000000000E+00 -0.00000000000E+00 -0.28565317937E+02  0.28565317937E+02  0.00000000000E+00 0. -1.
         23    2    1    2    0    0  0.00000000000E+00  0.00000000000E+00  0.43306485437E+02  0.10043712131E+03  0.90620989049E+02 0.  0.
          2    1    3    3  502    0  0.46311334641E+01  0.33903676023E+02 -0.11264709139E+02  0.36024995725E+02  0.00000000000E+00 0. -1.
         -2    1    3    3    0  502 -0.46311334641E+01 -0.33903676023E+02  0.54571194576E+02  0.64412125585E+02  0.00000000000E+00 0.  1.
<mgrwt>
<rscale>  0 0.90620989E+02</rscale>
<asrwt>0</asrwt>
<pdfrwt beam="2">  1        1 0.43946643E-02 0.90620989E+02</pdfrwt>
<pdfrwt beam="1">  1       -1 0.11057200E-01 0.90620989E+02</pdfrwt>
<totfact> 0.87523481E+04</totfact>
</mgrwt>
</event>
<event>
 5    1  0.3862918E+001  0.7961744E+02  0.7546771E-02  0.1330141E+00
          1   -1    0    0  501    0  0.00000000000E+00  0.00000000000E+00  0.37116810394E+03  0.37116810394E+03  0.00000000000E+00 0. -1.
         -1   -1    0    0    0  501 -0.00000000000E+00 -0.00000000000E+00 -0.42695864386E+01  0.42695864386E+01  0.00000000000E+00 0.  1.
         23    2    1    2    0    0  0.00000000000E+00  0.00000000000E+00  0.36689851750E+03  0.37543769038E+03  0.79617442889E+02 0.  0.
          2    1    3    3  502    0  0.33096607236E+02  0.82348729918E+01  0.28026519633E+03  0.28233274485E+03  0.00000000000E+00 0. -1.
         -2    1    3    3    0  502 -0.33096607236E+02 -0.82348729918E+01  0.86633321176E+02  0.93104945528E+02  0.00000000000E+00 0.  1.
<mgrwt>
<rscale>  0 0.79617443E+02</rscale>
<asrwt>0</asrwt>
<pdfrwt beam="1">  1        1 0.57102760E-01 0.79617443E+02</pdfrwt>
<pdfrwt beam="2">  1       -1 0.65685975E-03 0.79617443E+02</pdfrwt>
<totfact> 0.19047871E+05</totfact>
</mgrwt>
</event>
<event>
 5    1  0.3862918E+001  0.9092886E+02  0.7546771E-02  0.1300618E+00
          2   -1    0    0  501    0  0.00000000000E+00  0.00000000000E+00  0.14122833673E+03  0.14122833673E+03  0.00000000000E+00 0. -1.
         -2   -1    0    0    0  501 -0.00000000000E+00 -0.00000000000E+00 -0.14635976294E+02  0.14635976294E+02  0.00000000000E+00 0.  1.
         23    2    1    2    0    0  0.00000000000E+00  0.00000000000E+00  0.12659236043E+03  0.15586431302E+03  0.90928864250E+02 0.  0.
          2    1    3    3  502    0 -0.22222162289E+02  0.17240366196E+02  0.12452606330E+03  0.12766281825E+03  0.00000000000E+00 0. -1.
         -2    1    3    3    0  502  0.22222162289E+02 -0.17240366196E+02  0.20662971337E+01  0.28201494769E+02  0.00000000000E+00 0.  1.
<mgrwt>
<rscale>  0 0.90928864E+02</rscale>
<asrwt>0</asrwt>
<pdfrwt beam="1">  1        2 0.21727436E-01 0.90928864E+02</pdfrwt>
<pdfrwt beam="2">  1       -2 0.22516888E-02 0.90928864E+02</pdfrwt>
<totfact> 0.13801180E+05</totfact>
</mgrwt>
</event>
<event>
 5    1  0.3862918E+001  0.9168676E+02  0.7546771E-02  0.1298818E+00
          2   -1    0    0  501    0  0.00000000000E+00  0.00000000000E+00  0.37798284629E+03  0.37798284629E+03  0.00000000000E+00 0. -1.
         -2   -1    0    0    0  501 -0.00000000000E+00 -0.00000000000E+00 -0.55600811706E+01  0.55600811706E+01  0.00000000000E+00 0.  1.
         23    2    1    2    0    0  0.00000000000E+00  0.00000000000E+00  0.37242276512E+03  0.38354292746E+03  0.91686756000E+02 0.  0.
          2    1    3    3  502    0 -0.17440677435E+01  0.27241264831E+02  0.34028035768E+03  0.34137347598E+03  0.00000000000E+00 0. -1.
         -2    1    3    3    0  502  0.17440677435E+01 -0.27241264831E+02  0.32142407437E+02  0.42169451475E+02  0.00000000000E+00 0.  1.
<mgrwt>
<rscale>  0 0.91686756E+02</rscale>
<asrwt>0</asrwt>
<pdfrwt beam="1">  1        2 0.58151187E-01 0.91686756E+02</pdfrwt>
<pdfrwt beam="2">  1       -2 0.85539740E-03 0.91686756E+02</pdfrwt>
<totfact> 0.19271535E+05</totfact>
</mgrwt>
</event>
<event>
 5    1  0.3862918E+001  0.9423741E+02  0.7546771E-02  0.1292903E+00
          1   -1    0    0  501    0  0.00000000000E+00  0.00000000000E+00  0.16000267757E+03  0.16000267757E+03  0.00000000000E+00 0. -1.
         -1   -1    0    0    0  501 -0.00000000000E+00 -0.00000000000E+00 -0.13875844286E+02  0.13875844286E+02  0.00000000000E+00 0.  1.
         23    2    1    2    0    0  0.00000000000E+00  0.00000000000E+00  0.14612683328E+03  0.17387852185E+03  0.94237407418E+02 0.  0.
          2    1    3    3  502    0  0.68884632980E+01 -0.27230740949E+02  0.14286640192E+03  0.14560141818E+03  0.00000000000E+00 0. -1.
         -2    1    3    3    0  502 -0.68884632980E+01  0.27230740949E+02  0.32604313601E+01  0.28277103669E+02  0.00000000000E+00 0.  1.
<mgrwt>
<rscale>  0 0.94237407E+02</rscale>
<asrwt>0</asrwt>
<pdfrwt beam="1">  1        1 0.24615795E-01 0.94237407E+02</pdfrwt>
<pdfrwt beam="2">  1       -1 0.21347454E-02 0.94237407E+02</pdfrwt>
<totfact> 0.10379805E+05</totfact>
</mgrwt>
</event>
<event>
 5    1  0.3862918E+001  0.9017186E+02  0.7546771E-02  0.1302436E+00
          3   -1    0    0  501    0  0.00000000000E+00  0.00000000000E+00  0.22350496587E+02  0.22350496587E+02  0.00000000000E+00 0. -1.
         -3   -1    0    0    0  501 -0.00000000000E+00 -0.00000000000E+00 -0.90948372797E+02  0.90948372797E+02  0.00000000000E+00 0.  1.
         23    2    1    2    0    0  0.00000000000E+00  0.00000000000E+00 -0.68597876210E+02  0.11329886938E+03  0.90171864698E+02 0.  0.
          2    1    3    3  502    0  0.27712878357E+01 -0.32896581521E+02  0.42828061850E+01  0.33289751289E+02  0.00000000000E+00 0. -1.
         -2    1    3    3    0  502 -0.27712878357E+01  0.32896581521E+02 -0.72880682395E+02  0.80009118095E+02  0.00000000000E+00 0.  1.
<mgrwt>
<rscale>  0 0.90171865E+02</rscale>
<asrwt>0</asrwt>
<pdfrwt beam="1">  1        3 0.34385379E-02 0.90171865E+02</pdfrwt>
<pdfrwt beam="2">  1       -3 0.13992058E-01 0.90171865E+02</pdfrwt>
<totfact> 0.34741639E+04</totfact>
</mgrwt>
</event>
<event>
 5    1  0.3862918E+001  0.8844990E+02  0.7546771E-02  0.1306650E+00
         -4   -1    0    0    0  501 -0.00000000000E+00  0.00000000000E+00  0.60145076944E+03  0.60145076944E+03  0.00000000000E+00 0.  1.
          4   -1    0    0  501    0  0.00000000000E+00 -0.00000000000E+00 -0.32518804631E+01  0.32518804631E+01  0.00000000000E+00 0. -1.
         23    2    1    2    0    0  0.00000000000E+00  0.00000000000E+00  0.59819888898E+03  0.60470264991E+03  0.88449895571E+02 0.  0.
          2    1    3    3  502    0  0.79429655849E+01 -0.21978469218E+02  0.42409866912E+02  0.48422521857E+02  0.00000000000E+00 0. -1.
         -2    1    3    3    0  502 -0.79429655849E+01  0.21978469218E+02  0.55578902207E+03  0.55628012805E+03  0.00000000000E+00 0.  1.
<mgrwt>
<rscale>  0 0.88449896E+02</rscale>
<asrwt>0</asrwt>
<pdfrwt beam="2">  1        4 0.50028978E-03 0.88449896E+02</pdfrwt>
<pdfrwt beam="1">  1       -4 0.92530799E-01 0.88449896E+02</pdfrwt>
<totfact> 0.12277111E+04</totfact>
</mgrwt>
</event>
<event>
 5    1  0.3862918E+001  0.9061538E+02  0.7546771E-02  0.1301368E+00
          2   -1    0    0  501    0  0.00000000000E+00  0.00000000000E+00  0.84291378083E+03  0.84291378083E+03  0.00000000000E+00 0. -1.
         -2   -1    0    0    0  501 -0.00000000000E+00 -0.00000000000E+00 -0.24353459356E+01  0.24353459356E+01  0.00000000000E+00 0.  1.
         23    2    1    2    0    0  0.00000000000E+00  0.00000000000E+00  0.84047843490E+03  0.84534912677E+03  0.90615377287E+02 0.  0.
          2    1    3    3  502    0 -0.31363482923E+02  0.29797404809E+02  0.54582866546E+03  0.54754039616E+03  0.00000000000E+00 0. -1.
         -2    1    3    3    0  502  0.31363482923E+02 -0.29797404809E+02  0.29464976944E+03  0.29780873061E+03  0.00000000000E+00 0.  1.
<mgrwt>
<rscale>  0 0.90615377E+02</rscale>
<asrwt>0</asrwt>
<pdfrwt beam="1">  1        2 0.12967881E+00 0.90615377E+02</pdfrwt>
<pdfrwt beam="2">  1       -2 0.37466928E-03 0.90615377E+02</pdfrwt>
<totfact> 0.24985120E+05</totfact>
</mgrwt>
</event>
<event>
 5    1  0.3862918E+001  0.9129006E+02  0.7546771E-02  0.1299757E+00
          2   -1    0    0  501    0  0.00000000000E+00  0.00000000000E+00  0.27094572868E+03  0.27094572868E+03  0.00000000000E+00 0. -1.
         -2   -1    0    0    0  501 -0.00000000000E+00 -0.00000000000E+00 -0.76896169942E+01  0.76896169942E+01  0.00000000000E+00 0.  1.
         23    2    1    2    0    0  0.00000000000E+00  0.00000000000E+00  0.26325611169E+03  0.27863534568E+03  0.91290062543E+02 0.  0.
          2    1    3    3  502    0  0.40500757392E+02 -0.20327188484E+02  0.11492080835E+03  0.12353257924E+03  0.00000000000E+00 0. -1.
         -2    1    3    3    0  502 -0.40500757392E+02  0.20327188484E+02  0.14833530334E+03  0.15510276644E+03  0.00000000000E+00 0.  1.
<mgrwt>
<rscale>  0 0.91290063E+02</rscale>
<asrwt>0</asrwt>
<pdfrwt beam="1">  1        2 0.41683951E-01 0.91290063E+02</pdfrwt>
<pdfrwt beam="2">  1       -2 0.11830182E-02 0.91290063E+02</pdfrwt>
<totfact> 0.17238870E+05</totfact>
</mgrwt>
</event>
<event>
 5    1  0.3862918E+001  0.8880292E+02  0.7546771E-02  0.1305777E+00
          1   -1    0    0  501    0  0.00000000000E+00  0.00000000000E+00  0.12683307304E+03  0.12683307304E+03  0.00000000000E+00 0. -1.
         -1   -1    0    0    0  501 -0.00000000000E+00 -0.00000000000E+00 -0.15543972810E+02  0.15543972810E+02  0.00000000000E+00 0.  1.
         23    2    1    2    0    0  0.00000000000E+00  0.00000000000E+00  0.11128910023E+03  0.14237704585E+03  0.88802924249E+02 0.  0.
          2    1    3    3  502    0 -0.32858861088E+02  0.73697711690E+01  0.10204238811E+03  0.10745541983E+03  0.00000000000E+00 0. -1.
         -2    1    3    3    0  502  0.32858861088E+02 -0.73697711690E+01  0.92467121202E+01  0.34921626023E+02  0.00000000000E+00 0.  1.
<mgrwt>
<rscale>  0 0.88802924E+02</rscale>
<asrwt>0</asrwt>
<pdfrwt beam="1">  1        1 0.19512780E-01 0.88802924E+02</pdfrwt>
<pdfrwt beam="2">  1       -1 0.23913805E-02 0.88802924E+02</pdfrwt>
<totfact> 0.11682817E+05</totfact>
</mgrwt>
</event>
<event>
 5    1  0.3862918E+001  0.9208898E+02  0.7546771E-02  0.1297870E+00
          2   -1    0    0  501    0  0.00000000000E+00  0.00000000000E+00  0.29192274441E+02  0.29192274441E+02  0.00000000000E+00 0. -1.
         -2   -1    0    0    0  501 -0.00000000000E+00 -0.00000000000E+00 -0.72625205659E+02  0.72625205659E+02  0.00000000000E+00 0.  1.
         23    2    1    2    0    0  0.00000000000E+00  0.00000000000E+00 -0.43432931219E+02  0.10181748010E+03  0.92088977297E+02 0.  0.
          2    1    3    3  502    0 -0.94555977169E+01 -0.19497973277E+02  0.23201959099E+02  0.31747601423E+02  0.00000000000E+00 0. -1.
         -2    1    3    3    0  502  0.94555977169E+01  0.19497973277E+02 -0.66634890318E+02  0.70069878677E+02  0.00000000000E+00 0.  1.
<mgrwt>
<rscale>  0 0.92088977E+02</rscale>
<asrwt>0</asrwt>
<pdfrwt beam="1">  1        2 0.44911191E-02 0.92088977E+02</pdfrwt>
<pdfrwt beam="2">  1       -2 0.11173109E-01 0.92088977E+02</pdfrwt>
<totfact> 0.85253601E+04</totfact>
</mgrwt>
</event>
<event>
 5    1  0.3862918E+001  0.8900251E+02  0.7546771E-02  0.1305285E+00
          1   -1    0    0  501    0  0.00000000000E+00  0.00000000000E+00  0.10294367437E+02  0.10294367437E+02  0.00000000000E+00 0. -1.
         -1   -1    0    0    0  501 -0.00000000000E+00 -0.00000000000E+00 -0.19237331996E+03  0.19237331996E+03  0.00000000000E+00 0.  1.
         23    2    1    2    0    0  0.00000000000E+00  0.00000000000E+00 -0.18207895252E+03  0.20266768740E+03  0.89002508744E+02 0.  0.
          2    1    3    3  502    0 -0.74947873067E+01  0.43355697302E+02 -0.10622507838E+03  0.11497676114E+03  0.00000000000E+00 0. -1.
         -2    1    3    3    0  502  0.74947873067E+01 -0.43355697302E+02 -0.75853874146E+02  0.87690926260E+02  0.00000000000E+00 0.  1.
<mgrwt>
<rscale>  0 0.89002509E+02</rscale>
<asrwt>0</asrwt>
<pdfrwt beam="1">  1        1 0.15837488E-02 0.89002509E+02</pdfrwt>
<pdfrwt beam="2">  1       -1 0.29595896E-01 0.89002509E+02</pdfrwt>
<totfact> 0.74737043E+04</totfact>
</mgrwt>
</event>
<event>
 5    1  0.3862918E+001  0.1008428E+03  0.7546771E-02  0.1278534E+00
         -1   -1    0    0    0  501 -0.00000000000E+00  0.00000000000E+00  0.31344540145E+02  0.31344540145E+02  0.00000000000E+00 0.  1.
          1   -1    0    0  501    0  0.00000000000E+00 -0.00000000000E+00 -0.81108709056E+02  0.81108709056E+02  0.00000000000E+00 0. -1.
         23    2    1    2    0    0  0.00000000000E+00  0.00000000000E+00 -0.49764168911E+02  0.11245324920E+03  0.10084275258E+03 0.  0.
          2    1    3    3  502    0 -0.11386086316E+02 -0.23852849003E+02 -0.72764281808E+02  0.77416032411E+02  0.00000000000E+00 0. -1.
         -2    1    3    3    0  502  0.11386086316E+02  0.23852849003E+02  0.23000112897E+02  0.35037216791E+02  0.00000000000E+00 0.  1.
<mgrwt>
<rscale>  0 0.10084275E+03</rscale>
<asrwt>0</asrwt>
<pdfrwt beam="2">  1        1 0.12478263E-01 0.10084275E+03</pdfrwt>
<pdfrwt beam="1">  1       -1 0.48222370E-02 0.10084275E+03</pdfrwt>
<totfact> 0.76413511E+04</totfact>
</mgrwt>
</event>
<event>
 5    1  0.3862918E+001  0.9153341E+02  0.7546771E-02  0.1299180E+00
         -2   -1    0    0    0  501 -0.00000000000E+00  0.00000000000E+00  0.11956345761E+03  0.11956345761E+03  0.00000000000E+00 0.  1.
          2   -1    0    0  501    0  0.00000000000E+00 -0.00000000000E+00 -0.17518657788E+02  0.17518657788E+02  0.00000000000E+00 0. -1.
         23    2    1    2    0    0  0.00000000000E+00  0.00000000000E+00  0.10204479982E+03  0.13708211540E+03  0.91533410247E+02 0.  0.
          2    1    3    3  502    0 -0.23043940997E+02 -0.20515493226E+02  0.39752474667E+00  0.30855578181E+02  0.00000000000E+00 0. -1.
         -2    1    3    3    0  502  0.23043940997E+02  0.20515493226E+02  0.10164727508E+03  0.10622653722E+03  0.00000000000E+00 0.  1.
<mgrwt>
<rscale>  0 0.91533410E+02</rscale>
<asrwt>0</asrwt>
<pdfrwt beam="2">  1        2 0.26951782E-02 0.91533410E+02</pdfrwt>
<pdfrwt beam="1">  1       -2 0.18394378E-01 0.91533410E+02</pdfrwt>
<totfact> 0.74768976E+04</totfact>
</mgrwt>
</event>
<event>
 5    1  0.3862918E+001  0.9206076E+02  0.7546771E-02  0.1297937E+00
         -1   -1    0    0    0  501 -0.00000000000E+00  0.00000000000E+00  0.95177827737E+01  0.95177827737E+01  0.00000000000E+00 0.  1.
          1   -1    0    0  501    0  0.00000000000E+00 -0.00000000000E+00 -0.22261445819E+03  0.22261445819E+03  0.00000000000E+00 0. -1.
         23    2    1    2    0    0  0.00000000000E+00  0.00000000000E+00 -0.21309667541E+03  0.23213224096E+03  0.92060763745E+02 0.  0.
          2    1    3    3  502    0  0.30950581297E+02  0.12843480599E+02 -0.26974680451E+02  0.43017750545E+02  0.00000000000E+00 0.  1.
         -2    1    3    3    0  502 -0.30950581297E+02 -0.12843480599E+02 -0.18612199496E+03  0.18911449042E+03  0.00000000000E+00 0. -1.
<mgrwt>
<rscale>  0 0.92060764E+02</rscale>
<asrwt>0</asrwt>
<pdfrwt beam="2">  1        1 0.34248376E-01 0.92060764E+02</pdfrwt>
<pdfrwt beam="1">  1       -1 0.14642744E-02 0.92060764E+02</pdfrwt>
<totfact> 0.11781555E+05</totfact>
</mgrwt>
</event>
<event>
 5    1  0.3862918E+001  0.8940562E+02  0.7546771E-02  0.1304297E+00
         -2   -1    0    0    0  501 -0.00000000000E+00  0.00000000000E+00  0.78768968195E+03  0.78768968195E+03  0.00000000000E+00 0.  1.
          2   -1    0    0  501    0  0.00000000000E+00 -0.00000000000E+00 -0.25369652168E+01  0.25369652168E+01  0.00000000000E+00 0. -1.
         23    2    1    2    0    0  0.00000000000E+00  0.00000000000E+00  0.78515271673E+03  0.79022664717E+03  0.89405622300E+02 0.  0.
          2    1    3    3  502    0 -0.22914341498E+02  0.34304308868E+02  0.24038468503E+03  0.24389885086E+03  0.00000000000E+00 0. -1.
         -2    1    3    3    0  502  0.22914341498E+02 -0.34304308868E+02  0.54476803170E+03  0.54632779631E+03  0.00000000000E+00 0.  1.
<mgrwt>
<rscale>  0 0.89405622E+02</rscale>
<asrwt>0</asrwt>
<pdfrwt beam="2">  1        2 0.39030297E-03 0.89405622E+02</pdfrwt>
<pdfrwt beam="1">  1       -2 0.12118283E+00 0.89405622E+02</pdfrwt>
<totfact> 0.25489745E+04</totfact>
</mgrwt>
</event>
<event>
 5    1  0.3862918E+001  0.9150096E+02  0.7546771E-02  0.1299257E+00
         -3   -1    0    0    0  501 -0.00000000000E+00  0.00000000000E+00  0.12318574525E+03  0.12318574525E+03  0.00000000000E+00 0.  1.
          3   -1    0    0  501    0  0.00000000000E+00 -0.00000000000E+00 -0.16991467781E+02  0.16991467781E+02  0.00000000000E+00 0. -1.
         23    2    1    2    0    0  0.00000000000E+00  0.00000000000E+00  0.10619427747E+03  0.14017721303E+03  0.91500964400E+02 0.  0.
          2    1    3    3  502    0 -0.24545014363E+02  0.27103495542E+02  0.10973406615E+02  0.38176862802E+02  0.00000000000E+00 0. -1.
         -2    1    3    3    0  502  0.24545014363E+02 -0.27103495542E+02  0.95220870857E+02  0.10200035023E+03  0.00000000000E+00 0.  1.
<mgrwt>
<rscale>  0 0.91500964E+02</rscale>
<asrwt>0</asrwt>
<pdfrwt beam="2">  1        3 0.26140720E-02 0.91500964E+02</pdfrwt>
<pdfrwt beam="1">  1       -3 0.18951653E-01 0.91500964E+02</pdfrwt>
<totfact> 0.31614263E+04</totfact>
</mgrwt>
</event>
<event>
 5    1  0.3862918E+001  0.9264623E+02  0.7546771E-02  0.1296567E+00
         -1   -1    0    0    0  501 -0.00000000000E+00  0.00000000000E+00  0.17460845551E+01  0.17460845551E+01  0.00000000000E+00 0.  1.
          1   -1    0    0  501    0  0.00000000000E+00 -0.00000000000E+00 -0.12289386756E+04  0.12289386756E+04  0.00000000000E+00 0. -1.
         23    2    1    2    0    0  0.00000000000E+00  0.00000000000E+00 -0.12271925911E+04  0.12306847602E+04  0.92646226921E+02 0.  0.
          2    1    3    3  502    0  0.22609960068E+02  0.31072448142E+02 -0.95721138820E+03  0.95798243670E+03  0.00000000000E+00 0. -1.
         -2    1    3    3    0  502 -0.22609960068E+02 -0.31072448142E+02 -0.26998120286E+03  0.27270232347E+03  0.00000000000E+00 0.  1.
<mgrwt>
<rscale>  0 0.92646227E+02</rscale>
<asrwt>0</asrwt>
<pdfrwt beam="2">  1        1 0.18906760E+00 0.92646227E+02</pdfrwt>
<pdfrwt beam="1">  1       -1 0.26862823E-03 0.92646227E+02</pdfrwt>
<totfact> 0.12062350E+05</totfact>
</mgrwt>
</event>
<event>
 5    1  0.3862918E+001  0.8742465E+02  0.7546771E-02  0.1309211E+00
         -2   -1    0    0    0  501 -0.00000000000E+00  0.00000000000E+00  0.19708159647E+02  0.19708159647E+02  0.00000000000E+00 0.  1.
          2   -1    0    0  501    0  0.00000000000E+00 -0.00000000000E+00 -0.96953098912E+02  0.96953098912E+02  0.00000000000E+00 0. -1.
         23    2    1    2    0    0  0.00000000000E+00  0.00000000000E+00 -0.77244939265E+02  0.11666125856E+03  0.87424645304E+02 0.  0.
          2    1    3    3  502    0  0.26063391013E+02  0.17418289662E+02 -0.79274584324E+02  0.85247620996E+02  0.00000000000E+00 0. -1.
         -2    1    3    3    0  502 -0.26063391013E+02 -0.17418289662E+02  0.20296450594E+01  0.31413637562E+02  0.00000000000E+00 0.  1.
<mgrwt>
<rscale>  0 0.87424645E+02</rscale>
<asrwt>0</asrwt>
<pdfrwt beam="2">  1        2 0.14915861E-01 0.87424645E+02</pdfrwt>
<pdfrwt beam="1">  1       -2 0.30320245E-02 0.87424645E+02</pdfrwt>
<totfact> 0.13639435E+05</totfact>
</mgrwt>
</event>
<event>
 5    1  0.3862918E+001  0.9143579E+02  0.7546771E-02  0.1299412E+00
         -1   -1    0    0    0  501 -0.00000000000E+00  0.00000000000E+00  0.79244264374E+02  0.79244264374E+02  0.00000000000E+00 0.  1.
          1   -1    0    0  501    0  0.00000000000E+00 -0.00000000000E+00 -0.26375735104E+02  0.26375735104E+02  0.00000000000E+00 0. -1.
         23    2    1    2    0    0  0.00000000000E+00  0.00000000000E+00  0.52868529269E+02  0.10561999948E+03  0.91435785678E+02 0.  0.
          2    1    3    3  502    0 -0.24589382867E+02  0.13165124166E+02 -0.15408906959E+02  0.31865226466E+02  0.00000000000E+00 0. -1.
         -2    1    3    3    0  502  0.24589382867E+02 -0.13165124166E+02  0.68277436228E+02  0.73754773012E+02  0.00000000000E+00 0.  1.
<mgrwt>
<rscale>  0 0.91435786E+02</rscale>
<asrwt>0</asrwt>
<pdfrwt beam="2">  1        1 0.40578055E-02 0.91435786E+02</pdfrwt>
<pdfrwt beam="1">  1       -1 0.12191425E-01 0.91435786E+02</pdfrwt>
<totfact> 0.84172551E+04</totfact>
</mgrwt>
</event>
<event>
 5    1  0.3862918E+001  0.9146464E+02  0.7546771E-02  0.1299343E+00
         -2   -1    0    0    0  501 -0.00000000000E+00  0.00000000000E+00  0.14451315612E+02  0.14451315612E+02  0.00000000000E+00 0.  1.
          2   -1    0    0  501    0  0.00000000000E+00 -0.00000000000E+00 -0.14472350113E+03  0.14472350113E+03  0.00000000000E+00 0. -1.
         23    2    1    2    0    0  0.00000000000E+00  0.00000000000E+00 -0.13027218552E+03  0.15917481675E+03  0.91464637785E+02 0.  0.
          2    1    3    3  502    0  0.43080068874E+02 -0.65183879165E+01 -0.89316910044E+02  0.99377523289E+02  0.00000000000E+00 0. -1.
         -2    1    3    3    0  502 -0.43080068874E+02  0.65183879165E+01 -0.40955275477E+02  0.59797293456E+02  0.00000000000E+00 0.  1.
<mgrwt>
<rscale>  0 0.91464638E+02</rscale>
<asrwt>0</asrwt>
<pdfrwt beam="2">  1        2 0.22265155E-01 0.91464638E+02</pdfrwt>
<pdfrwt beam="1">  1       -2 0.22232793E-02 0.91464638E+02</pdfrwt>
<totfact> 0.13694518E+05</totfact>
</mgrwt>
</event>
<event>
 5    1  0.3862918E+001  0.8885601E+02  0.7546771E-02  0.1305646E+00
          1   -1    0    0  501    0  0.00000000000E+00  0.00000000000E+00  0.25880633233E+02  0.25880633233E+02  0.00000000000E+00 0. -1.
         -1   -1    0    0    0  501 -0.00000000000E+00 -0.00000000000E+00 -0.76267354897E+02  0.76267354897E+02  0.00000000000E+00 0.  1.
         23    2    1    2    0    0  0.00000000000E+00  0.00000000000E+00 -0.50386721664E+02  0.10214798813E+03  0.88856005757E+02 0.  0.
          2    1    3    3  502    0  0.21644411808E+02 -0.35320720410E+02 -0.67348810155E+01  0.41968946557E+02  0.00000000000E+00 0. -1.
         -2    1    3    3    0  502 -0.21644411808E+02  0.35320720410E+02 -0.43651840648E+02  0.60179041574E+02  0.00000000000E+00 0.  1.
<mgrwt>
<rscale>  0 0.88856006E+02</rscale>
<asrwt>0</asrwt>
<pdfrwt beam="1">  1        1 0.39816359E-02 0.88856006E+02</pdfrwt>
<pdfrwt beam="2">  1       -1 0.11733439E-01 0.88856006E+02</pdfrwt>
<totfact> 0.91137887E+04</totfact>
</mgrwt>
</event>
<event>
 5    1  0.3862918E+001  0.8968147E+02  0.7546771E-02  0.1303625E+00
          2   -1    0    0  501    0  0.00000000000E+00  0.00000000000E+00  0.76908534654E+02  0.76908534654E+02  0.00000000000E+00 0. -1.
         -2   -1    0    0    0  501 -0.00000000000E+00 -0.00000000000E+00 -0.26143934088E+02  0.26143934088E+02  0.00000000000E+00 0.  1.
         23    2    1    2    0    0  0.00000000000E+00  0.00000000000E+00  0.50764600566E+02  0.10305246874E+03  0.89681473243E+02 0.  0.
          2    1    3    3  502    0  0.41287447700E+02  0.17119415106E+02  0.29519670013E+02  0.53564341020E+02  0.00000000000E+00 0. -1.
         -2    1    3    3    0  502 -0.41287447700E+02 -0.17119415106E+02  0.21244930553E+02  0.49488127722E+02  0.00000000000E+00 0.  1.
<mgrwt>
<rscale>  0 0.89681473E+02</rscale>
<asrwt>0</asrwt>
<pdfrwt beam="1">  1        2 0.11832082E-01 0.89681473E+02</pdfrwt>
<pdfrwt beam="2">  1       -2 0.40221437E-02 0.89681473E+02</pdfrwt>
<totfact> 0.11891486E+05</totfact>
</mgrwt>
</event>
<event>
 5    1  0.3862918E+001  0.9108975E+02  0.7546771E-02  0.1300234E+00
         -2   -1    0    0    0  501 -0.00000000000E+00  0.00000000000E+00  0.60871081095E+01  0.60871081095E+01  0.00000000000E+00 0.  1.
          2   -1    0    0  501    0  0.00000000000E+00 -0.00000000000E+00 -0.34077525421E+03  0.34077525421E+03  0.00000000000E+00 0. -1.
         23    2    1    2    0    0  0.00000000000E+00  0.00000000000E+00 -0.33468814610E+03  0.34686236232E+03  0.91089753835E+02 0.  0.
          2    1    3    3  502    0  0.44411031913E+02  0.11852997172E+01 -0.20553563991E+03  0.21028229589E+03  0.00000000000E+00 0. -1.
         -2    1    3    3    0  502 -0.44411031913E+02 -0.11852997172E+01 -0.12915250619E+03  0.13658006643E+03  0.00000000000E+00 0.  1.
<mgrwt>
<rscale>  0 0.91089754E+02</rscale>
<asrwt>0</asrwt>
<pdfrwt beam="2">  1        2 0.52426973E-01 0.91089754E+02</pdfrwt>
<pdfrwt beam="1">  1       -2 0.93647798E-03 0.91089754E+02</pdfrwt>
<totfact> 0.18882266E+05</totfact>
</mgrwt>
</event>
<event>
 5    1  0.3862918E+001  0.9346263E+02  0.7546771E-02  0.1294677E+00
         -2   -1    0    0    0  501 -0.00000000000E+00  0.00000000000E+00  0.24239750857E+02  0.24239750857E+02  0.00000000000E+00 0. -1.
          2   -1    0    0  501    0  0.00000000000E+00 -0.00000000000E+00 -0.90092339491E+02  0.90092339491E+02  0.00000000000E+00 0.  1.
         23    2    1    2    0    0  0.00000000000E+00  0.00000000000E+00 -0.65852588634E+02  0.11433209035E+03  0.93462631321E+02 0.  0.
          2    1    3    3  502    0  0.39450000359E+02  0.16594324644E+01 -0.23498756986E+01  0.39554748896E+02  0.00000000000E+00 0. -1.
         -2    1    3    3    0  502 -0.39450000359E+02 -0.16594324644E+01 -0.63502712935E+02  0.74777341452E+02  0.00000000000E+00 0.  1.
<mgrwt>
<rscale>  0 0.93462631E+02</rscale>
<asrwt>0</asrwt>
<pdfrwt beam="2">  1        2 0.13860360E-01 0.93462631E+02</pdfrwt>
<pdfrwt beam="1">  1       -2 0.37291925E-02 0.93462631E+02</pdfrwt>
<totfact> 0.11100641E+05</totfact>
</mgrwt>
</event>
<event>
 5    1  0.3862918E+001  0.7652776E+02  0.7546771E-02  0.1339204E+00
         -1   -1    0    0    0  501 -0.00000000000E+00  0.00000000000E+00  0.19003948518E+01  0.19003948518E+01  0.00000000000E+00 0.  1.
          1   -1    0    0  501    0  0.00000000000E+00 -0.00000000000E+00 -0.77043172730E+03  0.77043172730E+03  0.00000000000E+00 0. -1.
         23    2    1    2    0    0  0.00000000000E+00  0.00000000000E+00 -0.76853133245E+03  0.77233212215E+03  0.76527759362E+02 0.  0.
          2    1    3    3  502    0  0.30096879434E+02  0.12564384409E+02 -0.58621994407E+03  0.58712648445E+03  0.00000000000E+00 0. -1.
         -2    1    3    3    0  502 -0.30096879434E+02 -0.12564384409E+02 -0.18231138838E+03  0.18520563771E+03  0.00000000000E+00 0.  1.
<mgrwt>
<rscale>  0 0.76527759E+02</rscale>
<asrwt>0</asrwt>
<pdfrwt beam="2">  1        1 0.11852811E+00 0.76527759E+02</pdfrwt>
<pdfrwt beam="1">  1       -1 0.29236805E-03 0.76527759E+02</pdfrwt>
<totfact> 0.22426594E+05</totfact>
</mgrwt>
</event>
<event>
 5    1  0.3862918E+001  0.8098725E+02  0.7546771E-02  0.1326273E+00
          1   -1    0    0  501    0  0.00000000000E+00  0.00000000000E+00  0.10648101102E+04  0.10648101102E+04  0.00000000000E+00 0. -1.
         -1   -1    0    0    0  501 -0.00000000000E+00 -0.00000000000E+00 -0.15399306556E+01  0.15399306556E+01  0.00000000000E+00 0.  1.
         23    2    1    2    0    0  0.00000000000E+00  0.00000000000E+00  0.10632701796E+04  0.10663500409E+04  0.80987251618E+02 0.  0.
          2    1    3    3  502    0 -0.33194794692E+02  0.21122251281E+02  0.40555580690E+03  0.40745988318E+03  0.00000000000E+00 0. -1.
         -2    1    3    3    0  502  0.33194794692E+02 -0.21122251281E+02  0.65771437267E+03  0.65889015770E+03  0.00000000000E+00 0.  1.
<mgrwt>
<rscale>  0 0.80987252E+02</rscale>
<asrwt>0</asrwt>
<pdfrwt beam="1">  1        1 0.16381635E+00 0.80987252E+02</pdfrwt>
<pdfrwt beam="2">  1       -1 0.23691326E-03 0.80987252E+02</pdfrwt>
<totfact> 0.18229774E+05</totfact>
</mgrwt>
</event>
<event>
 5    1  0.3862918E+001  0.9027554E+02  0.7546771E-02  0.1302186E+00
         -1   -1    0    0    0  501 -0.00000000000E+00  0.00000000000E+00  0.70864755462E+02  0.70864755462E+02  0.00000000000E+00 0.  1.
          1   -1    0    0  501    0  0.00000000000E+00 -0.00000000000E+00 -0.28750796054E+02  0.28750796054E+02  0.00000000000E+00 0. -1.
         23    2    1    2    0    0  0.00000000000E+00  0.00000000000E+00  0.42113959408E+02  0.99615551515E+02  0.90275536701E+02 0.  0.
          2    1    3    3  502    0 -0.79651112053E+01  0.41040668878E+02  0.39836535238E+02  0.57747112813E+02  0.00000000000E+00 0. -1.
         -2    1    3    3    0  502  0.79651112053E+01 -0.41040668878E+02  0.22774241700E+01  0.41868438702E+02  0.00000000000E+00 0.  1.
<mgrwt>
<rscale>  0 0.90275537E+02</rscale>
<asrwt>0</asrwt>
<pdfrwt beam="2">  1        1 0.44231994E-02 0.90275537E+02</pdfrwt>
<pdfrwt beam="1">  1       -1 0.10902270E-01 0.90275537E+02</pdfrwt>
<totfact> 0.88581623E+04</totfact>
</mgrwt>
</event>
<event>
 5    1  0.3862918E+001  0.8963731E+02  0.7546771E-02  0.1303732E+00
         -1   -1    0    0    0  501 -0.00000000000E+00  0.00000000000E+00  0.30330499873E+01  0.30330499873E+01  0.00000000000E+00 0.  1.
          1   -1    0    0  501    0  0.00000000000E+00 -0.00000000000E+00 -0.66227461820E+03  0.66227461820E+03  0.00000000000E+00 0. -1.
         23    2    1    2    0    0  0.00000000000E+00  0.00000000000E+00 -0.65924156822E+03  0.66530766819E+03  0.89637314158E+02 0.  0.
          2    1    3    3  502    0  0.22341055042E+02 -0.36565644860E+02 -0.42711576038E+03  0.42925987687E+03  0.00000000000E+00 0.  1.
         -2    1    3    3    0  502 -0.22341055042E+02  0.36565644860E+02 -0.23212580783E+03  0.23604779132E+03  0.00000000000E+00 0. -1.
<mgrwt>
<rscale>  0 0.89637314E+02</rscale>
<asrwt>0</asrwt>
<pdfrwt beam="2">  1        1 0.10188841E+00 0.89637314E+02</pdfrwt>
<pdfrwt beam="1">  1       -1 0.46662302E-03 0.89637314E+02</pdfrwt>
<totfact> 0.14868351E+05</totfact>
</mgrwt>
</event>
<event>
 5    1  0.3862918E+001  0.9090138E+02  0.7546771E-02  0.1300683E+00
          2   -1    0    0  501    0  0.00000000000E+00  0.00000000000E+00  0.32934693457E+03  0.32934693457E+03  0.00000000000E+00 0. -1.
         -2   -1    0    0    0  501 -0.00000000000E+00 -0.00000000000E+00 -0.62723071237E+01  0.62723071237E+01  0.00000000000E+00 0.  1.
         23    2    1    2    0    0  0.00000000000E+00  0.00000000000E+00  0.32307462745E+03  0.33561924170E+03  0.90901377853E+02 0.  0.
          2    1    3    3  502    0  0.28504184199E+02  0.35100541519E+02  0.14452603415E+03  0.15143418068E+03  0.00000000000E+00 0. -1.
         -2    1    3    3    0  502 -0.28504184199E+02 -0.35100541519E+02  0.17854859330E+03  0.18418506101E+03  0.00000000000E+00 0.  1.
<mgrwt>
<rscale>  0 0.90901378E+02</rscale>
<asrwt>0</asrwt>
<pdfrwt beam="1">  1        2 0.50668746E-01 0.90901378E+02</pdfrwt>
<pdfrwt beam="2">  1       -2 0.96497058E-03 0.90901378E+02</pdfrwt>
<totfact> 0.18749522E+05</totfact>
</mgrwt>
</event>
<event>
 5    1  0.3862918E+001  0.9210939E+02  0.7546771E-02  0.1297822E+00
          3   -1    0    0  501    0  0.00000000000E+00  0.00000000000E+00  0.24879251135E+03  0.24879251135E+03  0.00000000000E+00 0. -1.
         -3   -1    0    0    0  501 -0.00000000000E+00 -0.00000000000E+00 -0.85253171649E+01  0.85253171649E+01  0.00000000000E+00 0.  1.
         23    2    1    2    0    0  0.00000000000E+00  0.00000000000E+00  0.24026719418E+03  0.25731782851E+03  0.92109392952E+02 0.  0.
          2    1    3    3  502    0 -0.86092645318E+00 -0.23257942465E+02  0.23115502224E+03  0.23232373402E+03  0.00000000000E+00 0. -1.
         -2    1    3    3    0  502  0.86092645318E+00  0.23257942465E+02  0.91121719444E+01  0.24994094495E+02  0.00000000000E+00 0.  1.
<mgrwt>
<rscale>  0 0.92109393E+02</rscale>
<asrwt>0</asrwt>
<pdfrwt beam="1">  1        3 0.38275765E-01 0.92109393E+02</pdfrwt>
<pdfrwt beam="2">  1       -3 0.13115874E-02 0.92109393E+02</pdfrwt>
<totfact> 0.25084921E+04</totfact>
</mgrwt>
</event>
<event>
 5    1  0.3862918E+001  0.9044629E+02  0.7546771E-02  0.1301775E+00
         -1   -1    0    0    0  501 -0.00000000000E+00  0.00000000000E+00  0.93892507406E+00  0.93892507406E+00  0.00000000000E+00 0.  1.
          1   -1    0    0  501    0  0.00000000000E+00 -0.00000000000E+00 -0.21781642283E+04  0.21781642283E+04  0.00000000000E+00 0. -1.
         23    2    1    2    0    0  0.00000000000E+00  0.00000000000E+00 -0.21772253032E+04  0.21791031534E+04  0.90446293664E+02 0.  0.
          2    1    3    3  502    0  0.42772262669E+02  0.73923434313E+01 -0.13943346394E+04  0.13950101075E+04  0.00000000000E+00 0. -1.
         -2    1    3    3    0  502 -0.42772262669E+02 -0.73923434313E+01 -0.78289066380E+03  0.78409304592E+03  0.00000000000E+00 0.  1.
<mgrwt>
<rscale>  0 0.90446294E+02</rscale>
<asrwt>0</asrwt>
<pdfrwt beam="2">  1        1 0.33510276E+00 0.90446294E+02</pdfrwt>
<pdfrwt beam="1">  1       -1 0.14444977E-03 0.90446294E+02</pdfrwt>
<totfact> 0.70822635E+04</totfact>
</mgrwt>
</event>
<event>
 5    1  0.3862918E+001  0.8557713E+02  0.7546771E-02  0.1313930E+00
         -2   -1    0    0    0  501 -0.00000000000E+00  0.00000000000E+00  0.52166442643E+01  0.52166442643E+01  0.00000000000E+00 0.  1.
          2   -1    0    0  501    0  0.00000000000E+00 -0.00000000000E+00 -0.35096530060E+03  0.35096530060E+03  0.00000000000E+00 0. -1.
         23    2    1    2    0    0  0.00000000000E+00  0.00000000000E+00 -0.34574865633E+03  0.35618194486E+03  0.85577125970E+02 0.  0.
          2    1    3    3  502    0 -0.10031215551E+02  0.29882850981E+02 -0.29330637164E+03  0.29499531812E+03  0.00000000000E+00 0. -1.
         -2    1    3    3    0  502  0.10031215551E+02 -0.29882850981E+02 -0.52442284695E+02  0.61186626743E+02  0.00000000000E+00 0.  1.
<mgrwt>
<rscale>  0 0.85577126E+02</rscale>
<asrwt>0</asrwt>
<pdfrwt beam="2">  1        2 0.53994652E-01 0.85577126E+02</pdfrwt>
<pdfrwt beam="1">  1       -2 0.80256080E-03 0.85577126E+02</pdfrwt>
<totfact> 0.22521182E+05</totfact>
</mgrwt>
</event>
<event>
 5    1  0.3862918E+001  0.9123086E+02  0.7546771E-02  0.1299898E+00
          3   -1    0    0  501    0  0.00000000000E+00  0.00000000000E+00  0.58784755427E+02  0.58784755427E+02  0.00000000000E+00 0. -1.
         -3   -1    0    0    0  501 -0.00000000000E+00 -0.00000000000E+00 -0.35396376291E+02  0.35396376291E+02  0.00000000000E+00 0.  1.
         23    2    1    2    0    0  0.00000000000E+00  0.00000000000E+00  0.23388379136E+02  0.94181131718E+02  0.91230857132E+02 0.  0.
          2    1    3    3  502    0  0.81715308137E+01 -0.44781593476E+02  0.14722004109E+02  0.47842475219E+02  0.00000000000E+00 0. -1.
         -2    1    3    3    0  502 -0.81715308137E+01  0.44781593476E+02  0.86663750264E+01  0.46338656499E+02  0.00000000000E+00 0.  1.
<mgrwt>
<rscale>  0 0.91230857E+02</rscale>
<asrwt>0</asrwt>
<pdfrwt beam="1">  1        3 0.90438085E-02 0.91230857E+02</pdfrwt>
<pdfrwt beam="2">  1       -3 0.54455964E-02 0.91230857E+02</pdfrwt>
<totfact> 0.35052203E+04</totfact>
</mgrwt>
</event>
<event>
 5    1  0.3862918E+001  0.9652098E+02  0.7546771E-02  0.1287787E+00
         -1   -1    0    0    0  501 -0.00000000000E+00  0.00000000000E+00  0.64536747378E+03  0.64536747378E+03  0.00000000000E+00 0.  1.
          1   -1    0    0  501    0  0.00000000000E+00 -0.00000000000E+00 -0.36089129426E+01  0.36089129426E+01  0.00000000000E+00 0. -1.
         23    2    1    2    0    0  0.00000000000E+00  0.00000000000E+00  0.64175856084E+03  0.64897638672E+03  0.96520982774E+02 0.  0.
          2    1    3    3  502    0 -0.34642711496E+02 -0.16192530766E+02  0.12292884144E+03  0.12873933187E+03  0.00000000000E+00 0. -1.
         -2    1    3    3    0  502  0.34642711496E+02  0.16192530766E+02  0.51882971940E+03  0.52023705485E+03  0.00000000000E+00 0.  1.
<mgrwt>
<rscale>  0 0.96520983E+02</rscale>
<asrwt>0</asrwt>
<pdfrwt beam="2">  1        1 0.55521789E-03 0.96520983E+02</pdfrwt>
<pdfrwt beam="1">  1       -1 0.99287212E-01 0.96520983E+02</pdfrwt>
<totfact> 0.33897399E+04</totfact>
</mgrwt>
</event>
<event>
 5    1  0.3862918E+001  0.9097777E+02  0.7546771E-02  0.1300501E+00
          2   -1    0    0  501    0  0.00000000000E+00  0.00000000000E+00  0.23244579385E+03  0.23244579385E+03  0.00000000000E+00 0. -1.
         -2   -1    0    0    0  501 -0.00000000000E+00 -0.00000000000E+00 -0.89020269080E+01  0.89020269080E+01  0.00000000000E+00 0.  1.
         23    2    1    2    0    0  0.00000000000E+00  0.00000000000E+00  0.22354376694E+03  0.24134782076E+03  0.90977771164E+02 0.  0.
          2    1    3    3  502    0  0.88116473037E+00  0.21203195203E+02  0.21850921133E+03  0.21953730292E+03  0.00000000000E+00 0. -1.
         -2    1    3    3    0  502 -0.88116473037E+00 -0.21203195203E+02  0.50345556133E+01  0.21810517837E+02  0.00000000000E+00 0.  1.
<mgrwt>
<rscale>  0 0.90977771E+02</rscale>
<asrwt>0</asrwt>
<pdfrwt beam="1">  1        2 0.35760887E-01 0.90977771E+02</pdfrwt>
<pdfrwt beam="2">  1       -2 0.13695428E-02 0.90977771E+02</pdfrwt>
<totfact> 0.16437038E+05</totfact>
</mgrwt>
</event>
<event>
 5    1  0.3862918E+001  0.9307229E+02  0.7546771E-02  0.1295578E+00
          1   -1    0    0  501    0  0.00000000000E+00  0.00000000000E+00  0.51262813742E+03  0.51262813742E+03  0.00000000000E+00 0. -1.
         -1   -1    0    0    0  501 -0.00000000000E+00 -0.00000000000E+00 -0.42245293417E+01  0.42245293417E+01  0.00000000000E+00 0.  1.
         23    2    1    2    0    0  0.00000000000E+00  0.00000000000E+00  0.50840360808E+03  0.51685266677E+03  0.93072286056E+02 0.  0.
          2    1    3    3  502    0  0.43337193009E+02 -0.13996551505E+02  0.30734977189E+03  0.31070548440E+03  0.00000000000E+00 0. -1.
         -2    1    3    3    0  502 -0.43337193009E+02  0.13996551505E+02  0.20105383619E+03  0.20614718237E+03  0.00000000000E+00 0.  1.
<mgrwt>
<rscale>  0 0.93072286E+02</rscale>
<asrwt>0</asrwt>
<pdfrwt beam="1">  1        1 0.78865818E-01 0.93072286E+02</pdfrwt>
<pdfrwt beam="2">  1       -1 0.64992800E-03 0.93072286E+02</pdfrwt>
<totfact> 0.13224454E+05</totfact>
</mgrwt>
</event>
<event>
 5    1  0.3862918E+001  0.9226205E+02  0.7546771E-02  0.1297464E+00
         -1   -1    0    0    0  501 -0.00000000000E+00  0.00000000000E+00  0.29487025382E+01  0.29487025382E+01  0.00000000000E+00 0.  1.
          1   -1    0    0  501    0  0.00000000000E+00 -0.00000000000E+00 -0.72169756821E+03  0.72169756821E+03  0.00000000000E+00 0. -1.
         23    2    1    2    0    0  0.00000000000E+00  0.00000000000E+00 -0.71874886567E+03  0.72464627075E+03  0.92262049646E+02 0.  0.
          2    1    3    3  502    0  0.36796172402E+02  0.24467147911E+02 -0.46341594471E+03  0.46551792387E+03  0.00000000000E+00 0. -1.
         -2    1    3    3    0  502 -0.36796172402E+02 -0.24467147911E+02 -0.25533292096E+03  0.25912834688E+03  0.00000000000E+00 0.  1.
<mgrwt>
<rscale>  0 0.92262050E+02</rscale>
<asrwt>0</asrwt>
<pdfrwt beam="2">  1        1 0.11103054E+00 0.92262050E+02</pdfrwt>
<pdfrwt beam="1">  1       -1 0.45364595E-03 0.92262050E+02</pdfrwt>
<totfact> 0.13772081E+05</totfact>
</mgrwt>
</event>
<event>
 5    1  0.3862918E+001  0.9083147E+02  0.7546771E-02  0.1300851E+00
         -4   -1    0    0    0  501 -0.00000000000E+00  0.00000000000E+00  0.18930234634E+03  0.18930234634E+03  0.00000000000E+00 0.  1.
          4   -1    0    0  501    0  0.00000000000E+00 -0.00000000000E+00 -0.10895739654E+02  0.10895739654E+02  0.00000000000E+00 0. -1.
         23    2    1    2    0    0  0.00000000000E+00  0.00000000000E+00  0.17840660669E+03  0.20019808600E+03  0.90831472114E+02 0.  0.
          2    1    3    3  502    0  0.28827429753E+02 -0.29623240129E+02  0.13067433503E+03  0.13705596994E+03  0.00000000000E+00 0. -1.
         -2    1    3    3    0  502 -0.28827429753E+02  0.29623240129E+02  0.47732271663E+02  0.63142116056E+02  0.00000000000E+00 0.  1.
<mgrwt>
<rscale>  0 0.90831472E+02</rscale>
<asrwt>0</asrwt>
<pdfrwt beam="2">  1        4 0.16762678E-02 0.90831472E+02</pdfrwt>
<pdfrwt beam="1">  1       -4 0.29123435E-01 0.90831472E+02</pdfrwt>
<totfact> 0.21596064E+04</totfact>
</mgrwt>
</event>
<event>
 5    1  0.3862918E+001  0.8982163E+02  0.7546771E-02  0.1303284E+00
         -1   -1    0    0    0  501 -0.00000000000E+00  0.00000000000E+00  0.34895263596E+03  0.34895263596E+03  0.00000000000E+00 0.  1.
          1   -1    0    0  501    0  0.00000000000E+00 -0.00000000000E+00 -0.57801006627E+01  0.57801006627E+01  0.00000000000E+00 0. -1.
         23    2    1    2    0    0  0.00000000000E+00  0.00000000000E+00  0.34317253530E+03  0.35473273663E+03  0.89821631301E+02 0.  0.
          2    1    3    3  502    0  0.36286444357E+02  0.12113824112E+02  0.78670131467E+02  0.87478227942E+02  0.00000000000E+00 0. -1.
         -2    1    3    3    0  502 -0.36286444357E+02 -0.12113824112E+02  0.26450240383E+03  0.26725450868E+03  0.00000000000E+00 0.  1.
<mgrwt>
<rscale>  0 0.89821631E+02</rscale>
<asrwt>0</asrwt>
<pdfrwt beam="2">  1        1 0.88924653E-03 0.89821631E+02</pdfrwt>
<pdfrwt beam="1">  1       -1 0.53685005E-01 0.89821631E+02</pdfrwt>
<totfact> 0.59134310E+04</totfact>
</mgrwt>
</event>
<event>
 5    1  0.3862918E+001  0.9152762E+02  0.7546771E-02  0.1299194E+00
          4   -1    0    0  501    0  0.00000000000E+00  0.00000000000E+00  0.72987121260E+02  0.72987121260E+02  0.00000000000E+00 0. -1.
         -4   -1    0    0    0  501 -0.00000000000E+00 -0.00000000000E+00 -0.28694462563E+02  0.28694462563E+02  0.00000000000E+00 0.  1.
         23    2    1    2    0    0  0.00000000000E+00  0.00000000000E+00  0.44292658697E+02  0.10168158382E+03  0.91527618096E+02 0.  0.
          2    1    3    3  502    0  0.16525269210E+02 -0.24689759955E+02  0.60816854527E+02  0.67685733827E+02  0.00000000000E+00 0. -1.
         -2    1    3    3    0  502 -0.16525269210E+02  0.24689759955E+02 -0.16524195830E+02  0.33995849996E+02  0.00000000000E+00 0.  1.
<mgrwt>
<rscale>  0 0.91527618E+02</rscale>
<asrwt>0</asrwt>
<pdfrwt beam="1">  1        4 0.11228788E-01 0.91527618E+02</pdfrwt>
<pdfrwt beam="2">  1       -4 0.44145327E-02 0.91527618E+02</pdfrwt>
<totfact> 0.26081164E+04</totfact>
</mgrwt>
</event>
<event>
 5    1  0.3862918E+001  0.8399775E+02  0.7546771E-02  0.1318075E+00
          2   -1    0    0  501    0  0.00000000000E+00  0.00000000000E+00  0.15652737114E+04  0.15652737114E+04  0.00000000000E+00 0.  1.
         -2   -1    0    0    0  501 -0.00000000000E+00 -0.00000000000E+00 -0.11268989656E+01  0.11268989656E+01  0.00000000000E+00 0. -1.
         23    2    1    2    0    0  0.00000000000E+00  0.00000000000E+00  0.15641468124E+04  0.15664006103E+04  0.83997745833E+02 0.  0.
          2    1    3    3  502    0 -0.38714744129E+02  0.33585693178E+01  0.48499175866E+03  0.48654611022E+03  0.00000000000E+00 0. -1.
         -2    1    3    3    0  502  0.38714744129E+02 -0.33585693178E+01  0.10791550537E+04  0.10798545001E+04  0.00000000000E+00 0.  1.
<mgrwt>
<rscale>  0 0.83997746E+02</rscale>
<asrwt>0</asrwt>
<pdfrwt beam="1">  1        2 0.24080960E+00 0.83997746E+02</pdfrwt>
<pdfrwt beam="2">  1       -2 0.17337032E-03 0.83997746E+02</pdfrwt>
<totfact> 0.28759978E+05</totfact>
</mgrwt>
</event>
<event>
 5    1  0.3862918E+001  0.9035028E+02  0.7546771E-02  0.1302006E+00
          2   -1    0    0  501    0  0.00000000000E+00  0.00000000000E+00  0.11217432891E+04  0.11217432891E+04  0.00000000000E+00 0. -1.
         -2   -1    0    0    0  501 -0.00000000000E+00 -0.00000000000E+00 -0.18193051179E+01  0.18193051179E+01  0.00000000000E+00 0.  1.
         23    2    1    2    0    0  0.00000000000E+00  0.00000000000E+00  0.11199239840E+04  0.11235625942E+04  0.90350280726E+02 0.  0.
          2    1    3    3  502    0  0.30233573163E+02  0.75764423896E+01  0.96661313071E+03  0.96711551321E+03  0.00000000000E+00 0. -1.
         -2    1    3    3    0  502 -0.30233573163E+02 -0.75764423896E+01  0.15331085324E+03  0.15644708098E+03  0.00000000000E+00 0.  1.
<mgrwt>
<rscale>  0 0.90350281E+02</rscale>
<asrwt>0</asrwt>
<pdfrwt beam="1">  1        2 0.17257534E+00 0.90350281E+02</pdfrwt>
<pdfrwt beam="2">  1       -2 0.27989399E-03 0.90350281E+02</pdfrwt>
<totfact> 0.25606190E+05</totfact>
</mgrwt>
</event>
<event>
 5    1  0.3862918E+001  0.9222157E+02  0.7546771E-02  0.1297559E+00
         -2   -1    0    0    0  501 -0.00000000000E+00  0.00000000000E+00  0.23716392526E+01  0.23716392526E+01  0.00000000000E+00 0.  1.
          2   -1    0    0  501    0  0.00000000000E+00 -0.00000000000E+00 -0.89651251182E+03  0.89651251182E+03  0.00000000000E+00 0. -1.
         23    2    1    2    0    0  0.00000000000E+00  0.00000000000E+00 -0.89414087257E+03  0.89888415107E+03  0.92221565015E+02 0.  0.
          2    1    3    3  502    0 -0.37064273197E+02  0.42552634330E+01 -0.71120110857E+03  0.71217896940E+03  0.00000000000E+00 0. -1.
         -2    1    3    3    0  502  0.37064273197E+02 -0.42552634330E+01 -0.18293976399E+03  0.18670518168E+03  0.00000000000E+00 0.  1.
<mgrwt>
<rscale>  0 0.92221565E+02</rscale>
<asrwt>0</asrwt>
<pdfrwt beam="2">  1        2 0.13792516E+00 0.92221565E+02</pdfrwt>
<pdfrwt beam="1">  1       -2 0.36486716E-03 0.92221565E+02</pdfrwt>
<totfact> 0.24050109E+05</totfact>
</mgrwt>
</event>
<event>
 5    1  0.3862918E+001  0.9002771E+02  0.7546771E-02  0.1302785E+00
         -1   -1    0    0    0  501 -0.00000000000E+00  0.00000000000E+00  0.86503675405E+02  0.86503675405E+02  0.00000000000E+00 0.  1.
          1   -1    0    0  501    0  0.00000000000E+00 -0.00000000000E+00 -0.23423825202E+02  0.23423825202E+02  0.00000000000E+00 0. -1.
         23    2    1    2    0    0  0.00000000000E+00  0.00000000000E+00  0.63079850202E+02  0.10992750061E+03  0.90027706225E+02 0.  0.
          2    1    3    3  502    0 -0.35834875658E+02  0.26930832333E+02  0.26529352091E+02  0.52088526241E+02  0.00000000000E+00 0. -1.
         -2    1    3    3    0  502  0.35834875658E+02 -0.26930832333E+02  0.36550498111E+02  0.57838974366E+02  0.00000000000E+00 0.  1.
<mgrwt>
<rscale>  0 0.90027706E+02</rscale>
<asrwt>0</asrwt>
<pdfrwt beam="2">  1        1 0.36036655E-02 0.90027706E+02</pdfrwt>
<pdfrwt beam="1">  1       -1 0.13308258E-01 0.90027706E+02</pdfrwt>
<totfact> 0.86282037E+04</totfact>
</mgrwt>
</event>
<event>
 5    1  0.3862918E+001  0.9182128E+02  0.7546771E-02  0.1298500E+00
         -1   -1    0    0    0  501 -0.00000000000E+00  0.00000000000E+00  0.26415258263E+01  0.26415258263E+01  0.00000000000E+00 0.  1.
          1   -1    0    0  501    0  0.00000000000E+00 -0.00000000000E+00 -0.79794299954E+03  0.79794299954E+03  0.00000000000E+00 0. -1.
         23    2    1    2    0    0  0.00000000000E+00  0.00000000000E+00 -0.79530147372E+03  0.80058452537E+03  0.91821283834E+02 0.  0.
          2    1    3    3  502    0 -0.29483700591E+02 -0.50785925153E+00 -0.70445849436E+03  0.70507539795E+03  0.00000000000E+00 0. -1.
         -2    1    3    3    0  502  0.29483700591E+02  0.50785925153E+00 -0.90842979358E+02  0.95509127418E+02  0.00000000000E+00 0.  1.
<mgrwt>
<rscale>  0 0.91821284E+02</rscale>
<asrwt>0</asrwt>
<pdfrwt beam="2">  1        1 0.12276051E+00 0.91821284E+02</pdfrwt>
<pdfrwt beam="1">  1       -1 0.40638841E-03 0.91821284E+02</pdfrwt>
<totfact> 0.13872170E+05</totfact>
</mgrwt>
</event>
<event>
 5    1  0.3862918E+001  0.9283691E+02  0.7546771E-02  0.1296124E+00
         -4   -1    0    0    0  501 -0.00000000000E+00  0.00000000000E+00  0.74160220058E+01  0.74160220058E+01  0.00000000000E+00 0.  1.
          4   -1    0    0  501    0  0.00000000000E+00 -0.00000000000E+00 -0.29054298255E+03  0.29054298255E+03  0.00000000000E+00 0. -1.
         23    2    1    2    0    0  0.00000000000E+00  0.00000000000E+00 -0.28312696054E+03  0.29795900455E+03  0.92836914042E+02 0.  0.
          2    1    3    3  502    0  0.11189967434E+01  0.38212135170E+02 -0.22606838657E+03  0.22927785509E+03  0.00000000000E+00 0. -1.
         -2    1    3    3    0  502 -0.11189967434E+01 -0.38212135170E+02 -0.57058573971E+02  0.68681149463E+02  0.00000000000E+00 0.  1.
<mgrwt>
<rscale>  0 0.92836914E+02</rscale>
<asrwt>0</asrwt>
<pdfrwt beam="2">  1        4 0.44698918E-01 0.92836914E+02</pdfrwt>
<pdfrwt beam="1">  1       -4 0.11409265E-02 0.92836914E+02</pdfrwt>
<totfact> 0.17042715E+04</totfact>
</mgrwt>
</event>
<event>
 5    1  0.3862918E+001  0.7634397E+02  0.7546771E-02  0.1339759E+00
          2   -1    0    0  501    0  0.00000000000E+00  0.00000000000E+00  0.24762508149E+01  0.24762508149E+01  0.00000000000E+00 0. -1.
         -2   -1    0    0    0  501 -0.00000000000E+00 -0.00000000000E+00 -0.58843002098E+03  0.58843002098E+03  0.00000000000E+00 0.  1.
         23    2    1    2    0    0  0.00000000000E+00  0.00000000000E+00 -0.58595377016E+03  0.59090627179E+03  0.76343966860E+02 0.  0.
          2    1    3    3  502    0  0.32747469051E+02 -0.20547588374E+01 -0.14199992324E+03  0.14574154166E+03  0.00000000000E+00 0. -1.
         -2    1    3    3    0  502 -0.32747469051E+02  0.20547588374E+01 -0.44395384692E+03  0.44516473014E+03  0.00000000000E+00 0.  1.
<mgrwt>
<rscale>  0 0.76343967E+02</rscale>
<asrwt>0</asrwt>
<pdfrwt beam="1">  1        2 0.38096123E-03 0.76343967E+02</pdfrwt>
<pdfrwt beam="2">  1       -2 0.90527798E-01 0.76343967E+02</pdfrwt>
<totfact> 0.50225018E+04</totfact>
</mgrwt>
</event>
<event>
 5    1  0.3862918E+001  0.9230452E+02  0.7546771E-02  0.1297365E+00
          2   -1    0    0  501    0  0.00000000000E+00  0.00000000000E+00  0.30558018966E+02  0.30558018966E+02  0.00000000000E+00 0.  1.
         -2   -1    0    0    0  501 -0.00000000000E+00 -0.00000000000E+00 -0.69704485763E+02  0.69704485763E+02  0.00000000000E+00 0. -1.
         23    2    1    2    0    0  0.00000000000E+00  0.00000000000E+00 -0.39146466796E+02  0.10026250473E+03  0.92304517722E+02 0.  0.
          2    1    3    3  502    0  0.33901382788E+02 -0.21018944094E+02 -0.44789586000E+02  0.59976718648E+02  0.00000000000E+00 0. -1.
         -2    1    3    3    0  502 -0.33901382788E+02  0.21018944094E+02  0.56431192033E+01  0.40285786081E+02  0.00000000000E+00 0.  1.
<mgrwt>
<rscale>  0 0.92304518E+02</rscale>
<asrwt>0</asrwt>
<pdfrwt beam="1">  1        2 0.47012337E-02 0.92304518E+02</pdfrwt>
<pdfrwt beam="2">  1       -2 0.10723767E-01 0.92304518E+02</pdfrwt>
<totfact> 0.85714609E+04</totfact>
</mgrwt>
</event>
<event>
 5    1  0.3862918E+001  0.8921191E+02  0.7546771E-02  0.1304771E+00
         -1   -1    0    0    0  501 -0.00000000000E+00  0.00000000000E+00  0.20567048679E+02  0.20567048679E+02  0.00000000000E+00 0.  1.
          1   -1    0    0  501    0  0.00000000000E+00 -0.00000000000E+00 -0.96741692636E+02  0.96741692636E+02  0.00000000000E+00 0. -1.
         23    2    1    2    0    0  0.00000000000E+00  0.00000000000E+00 -0.76174643957E+02  0.11730874132E+03  0.89211907316E+02 0.  0.
          2    1    3    3  502    0 -0.13440051939E+02 -0.32022109521E+02 -0.74897338873E+02  0.82557021897E+02  0.00000000000E+00 0. -1.
         -2    1    3    3    0  502  0.13440051939E+02  0.32022109521E+02 -0.12773050844E+01  0.34751719419E+02  0.00000000000E+00 0.  1.
<mgrwt>
<rscale>  0 0.89211907E+02</rscale>
<asrwt>0</asrwt>
<pdfrwt beam="2">  1        1 0.14883337E-01 0.89211907E+02</pdfrwt>
<pdfrwt beam="1">  1       -1 0.31641613E-02 0.89211907E+02</pdfrwt>
<totfact> 0.11022855E+05</totfact>
</mgrwt>
</event>
<event>
 5    1  0.3862918E+001  0.9023015E+02  0.7546771E-02  0.1302295E+00
          3   -1    0    0  501    0  0.00000000000E+00  0.00000000000E+00  0.36328601806E+02  0.36328601806E+02  0.00000000000E+00 0. -1.
         -3   -1    0    0    0  501 -0.00000000000E+00 -0.00000000000E+00 -0.56026656552E+02  0.56026656552E+02  0.00000000000E+00 0.  1.
         23    2    1    2    0    0  0.00000000000E+00  0.00000000000E+00 -0.19698054746E+02  0.92355258358E+02  0.90230152308E+02 0.  0.
          2    1    3    3  502    0 -0.23984038669E+02  0.37971550084E+02 -0.54707399488E+01  0.45243803137E+02  0.00000000000E+00 0. -1.
         -2    1    3    3    0  502  0.23984038669E+02 -0.37971550084E+02 -0.14227314797E+02  0.47111455221E+02  0.00000000000E+00 0.  1.
<mgrwt>
<rscale>  0 0.90230152E+02</rscale>
<asrwt>0</asrwt>
<pdfrwt beam="1">  1        3 0.55890157E-02 0.90230152E+02</pdfrwt>
<pdfrwt beam="2">  1       -3 0.86194856E-02 0.90230152E+02</pdfrwt>
<totfact> 0.36263695E+04</totfact>
</mgrwt>
</event>
<event>
 5    1  0.3862918E+001  0.9001569E+02  0.7546771E-02  0.1302814E+00
          4   -1    0    0  501    0  0.00000000000E+00  0.00000000000E+00  0.75337062430E+03  0.75337062430E+03  0.00000000000E+00 0.  1.
         -4   -1    0    0    0  501 -0.00000000000E+00 -0.00000000000E+00 -0.26888571307E+01  0.26888571307E+01  0.00000000000E+00 0. -1.
         23    2    1    2    0    0  0.00000000000E+00  0.00000000000E+00  0.75068176717E+03  0.75605948143E+03  0.90015686972E+02 0.  0.
          2    1    3    3  502    0 -0.38695241911E+01  0.34945224973E+02  0.13933032342E+03  0.14369788095E+03  0.00000000000E+00 0. -1.
         -2    1    3    3    0  502  0.38695241911E+01 -0.34945224973E+02  0.61135144375E+03  0.61236160048E+03  0.00000000000E+00 0.  1.
<mgrwt>
<rscale>  0 0.90015687E+02</rscale>
<asrwt>0</asrwt>
<pdfrwt beam="1">  1        4 0.11590300E+00 0.90015687E+02</pdfrwt>
<pdfrwt beam="2">  1       -4 0.41367093E-03 0.90015687E+02</pdfrwt>
<totfact> 0.97034490E+03</totfact>
</mgrwt>
</event>
<event>
 5    1  0.3862918E+001  0.8808791E+02  0.7546771E-02  0.1307549E+00
          1   -1    0    0  501    0  0.00000000000E+00  0.00000000000E+00  0.43826268500E+03  0.43826268500E+03  0.00000000000E+00 0. -1.
         -1   -1    0    0    0  501 -0.00000000000E+00 -0.00000000000E+00 -0.44262719704E+01  0.44262719704E+01  0.00000000000E+00 0.  1.
         23    2    1    2    0    0  0.00000000000E+00  0.00000000000E+00  0.43383641303E+03  0.44268895697E+03  0.88087906963E+02 0.  0.
          2    1    3    3  502    0 -0.31142906148E+02  0.19169712368E+02  0.34027555287E+03  0.34223502211E+03  0.00000000000E+00 0. -1.
         -2    1    3    3    0  502  0.31142906148E+02 -0.19169712368E+02  0.93560860155E+02  0.10045393486E+03  0.00000000000E+00 0.  1.
<mgrwt>
<rscale>  0 0.88087907E+02</rscale>
<asrwt>0</asrwt>
<pdfrwt beam="1">  1        1 0.67424994E-01 0.88087907E+02</pdfrwt>
<pdfrwt beam="2">  1       -1 0.68096527E-03 0.88087907E+02</pdfrwt>
<totfact> 0.14990309E+05</totfact>
</mgrwt>
</event>
<event>
 5    1  0.3862918E+001  0.9087410E+02  0.7546771E-02  0.1300749E+00
          1   -1    0    0  501    0  0.00000000000E+00  0.00000000000E+00  0.12893497868E+03  0.12893497868E+03  0.00000000000E+00 0. -1.
         -1   -1    0    0    0  501 -0.00000000000E+00 -0.00000000000E+00 -0.16012146030E+02  0.16012146030E+02  0.00000000000E+00 0.  1.
         23    2    1    2    0    0  0.00000000000E+00  0.00000000000E+00  0.11292283265E+03  0.14494712471E+03  0.90874104278E+02 0.  0.
          2    1    3    3  502    0 -0.39951600825E+02 -0.35254708076E+00  0.21945604134E+02  0.45583596158E+02  0.00000000000E+00 0.  1.
         -2    1    3    3    0  502  0.39951600825E+02  0.35254708076E+00  0.90977228521E+02  0.99363528557E+02  0.00000000000E+00 0. -1.
<mgrwt>
<rscale>  0 0.90874104E+02</rscale>
<asrwt>0</asrwt>
<pdfrwt beam="1">  1        1 0.19836150E-01 0.90874104E+02</pdfrwt>
<pdfrwt beam="2">  1       -1 0.24634072E-02 0.90874104E+02</pdfrwt>
<totfact> 0.11009416E+05</totfact>
</mgrwt>
</event>
<event>
 5    1  0.3862918E+001  0.9130253E+02  0.7546771E-02  0.1299728E+00
         -2   -1    0    0    0  501 -0.00000000000E+00  0.00000000000E+00  0.41130043356E+02  0.41130043356E+02  0.00000000000E+00 0.  1.
          2   -1    0    0  501    0  0.00000000000E+00 -0.00000000000E+00 -0.50669487158E+02  0.50669487158E+02  0.00000000000E+00 0. -1.
         23    2    1    2    0    0  0.00000000000E+00  0.00000000000E+00 -0.95394438015E+01  0.91799530514E+02  0.91302534546E+02 0.  0.
          2    1    3    3  502    0  0.30625485149E+02 -0.24201925282E+02 -0.28571025921E+02  0.48373102548E+02  0.00000000000E+00 0. -1.
         -2    1    3    3    0  502 -0.30625485149E+02  0.24201925282E+02  0.19031582119E+02  0.43426427966E+02  0.00000000000E+00 0.  1.
<mgrwt>
<rscale>  0 0.91302535E+02</rscale>
<asrwt>0</asrwt>
<pdfrwt beam="2">  1        2 0.77953057E-02 0.91302535E+02</pdfrwt>
<pdfrwt beam="1">  1       -2 0.63276990E-02 0.91302535E+02</pdfrwt>
<totfact> 0.10103165E+05</totfact>
</mgrwt>
</event>
<event>
 5    1  0.3862918E+001  0.9090555E+02  0.7546771E-02  0.1300673E+00
          2   -1    0    0  501    0  0.00000000000E+00  0.00000000000E+00  0.46628870592E+01  0.46628870592E+01  0.00000000000E+00 0. -1.
         -2   -1    0    0    0  501 -0.00000000000E+00 -0.00000000000E+00 -0.44306341896E+03  0.44306341896E+03  0.00000000000E+00 0.  1.
         23    2    1    2    0    0  0.00000000000E+00  0.00000000000E+00 -0.43840053190E+03  0.44772630602E+03  0.90905548405E+02 0.  0.
          2    1    3    3  502    0 -0.15304541986E+02 -0.32891014059E+02 -0.84326995856E+02  0.91799183228E+02  0.00000000000E+00 0. -1.
         -2    1    3    3    0  502  0.15304541986E+02  0.32891014059E+02 -0.35407353605E+03  0.35592712279E+03  0.00000000000E+00 0.  1.
<mgrwt>
<rscale>  0 0.90905548E+02</rscale>
<asrwt>0</asrwt>
<pdfrwt beam="1">  1        2 0.71736697E-03 0.90905548E+02</pdfrwt>
<pdfrwt beam="2">  1       -2 0.68163628E-01 0.90905548E+02</pdfrwt>
<totfact> 0.40055772E+04</totfact>
</mgrwt>
</event>
<event>
 5    1  0.3862918E+001  0.9107303E+02  0.7546771E-02  0.1300274E+00
         -1   -1    0    0    0  501 -0.00000000000E+00  0.00000000000E+00  0.14631065479E+02  0.14631065479E+02  0.00000000000E+00 0.  1.
          1   -1    0    0  501    0  0.00000000000E+00 -0.00000000000E+00 -0.14172405884E+03  0.14172405884E+03  0.00000000000E+00 0. -1.
         23    2    1    2    0    0  0.00000000000E+00  0.00000000000E+00 -0.12709299337E+03  0.15635512432E+03  0.91073025314E+02 0.  0.
          2    1    3    3  502    0 -0.18355364023E+02 -0.29335850689E+02 -0.11436125817E+03  0.11948225347E+03  0.00000000000E+00 0. -1.
         -2    1    3    3    0  502  0.18355364023E+02  0.29335850689E+02 -0.12731735198E+02  0.36872870857E+02  0.00000000000E+00 0.  1.
<mgrwt>
<rscale>  0 0.91073025E+02</rscale>
<asrwt>0</asrwt>
<pdfrwt beam="2">  1        1 0.21803701E-01 0.91073025E+02</pdfrwt>
<pdfrwt beam="1">  1       -1 0.22509332E-02 0.91073025E+02</pdfrwt>
<totfact> 0.11131832E+05</totfact>
</mgrwt>
</event>
<event>
 5    1  0.3862918E+001  0.9272547E+02  0.7546771E-02  0.1296383E+00
          1   -1    0    0  501    0  0.00000000000E+00  0.00000000000E+00  0.15477531349E+03  0.15477531349E+03  0.00000000000E+00 0. -1.
         -1   -1    0    0    0  501 -0.00000000000E+00 -0.00000000000E+00 -0.13887893814E+02  0.13887893814E+02  0.00000000000E+00 0.  1.
         23    2    1    2    0    0  0.00000000000E+00  0.00000000000E+00  0.14088741968E+03  0.16866320730E+03  0.92725468319E+02 0.  0.
          2    1    3    3  502    0  0.10236735494E+02 -0.27316554345E+02  0.13598958156E+03  0.13908325272E+03  0.00000000000E+00 0. -1.
         -2    1    3    3    0  502 -0.10236735494E+02  0.27316554345E+02  0.48978381166E+01  0.29579954582E+02  0.00000000000E+00 0.  1.
<mgrwt>
<rscale>  0 0.92725468E+02</rscale>
<asrwt>0</asrwt>
<pdfrwt beam="1">  1        1 0.23811585E-01 0.92725468E+02</pdfrwt>
<pdfrwt beam="2">  1       -1 0.21365992E-02 0.92725468E+02</pdfrwt>
<totfact> 0.10776751E+05</totfact>
</mgrwt>
</event>
<event>
 5    1  0.3862918E+001  0.9210724E+02  0.7546771E-02  0.1297827E+00
         -1   -1    0    0    0  501 -0.00000000000E+00  0.00000000000E+00  0.23066245313E+01  0.23066245313E+01  0.00000000000E+00 0.  1.
          1   -1    0    0  501    0  0.00000000000E+00 -0.00000000000E+00 -0.91949766402E+03  0.91949766402E+03  0.00000000000E+00 0. -1.
         23    2    1    2    0    0  0.00000000000E+00  0.00000000000E+00 -0.91719103949E+03  0.92180428855E+03  0.92107238984E+02 0.  0.
          2    1    3    3  502    0 -0.39299428943E+02 -0.23529690717E+02 -0.50642932293E+03  0.50849655906E+03  0.00000000000E+00 0. -1.
         -2    1    3    3    0  502  0.39299428943E+02  0.23529690717E+02 -0.41076171656E+03  0.41330772949E+03  0.00000000000E+00 0.  1.
<mgrwt>
<rscale>  0 0.92107239E+02</rscale>
<asrwt>0</asrwt>
<pdfrwt beam="2">  1        1 0.14146144E+00 0.92107239E+02</pdfrwt>
<pdfrwt beam="1">  1       -1 0.35486467E-03 0.92107239E+02</pdfrwt>
<totfact> 0.13496203E+05</totfact>
</mgrwt>
</event>
<event>
 5    1  0.3862918E+001  0.8999397E+02  0.7546771E-02  0.1302866E+00
          2   -1    0    0  501    0  0.00000000000E+00  0.00000000000E+00  0.69245717256E+02  0.69245717256E+02  0.00000000000E+00 0. -1.
         -2   -1    0    0    0  501 -0.00000000000E+00 -0.00000000000E+00 -0.29239766765E+02  0.29239766765E+02  0.00000000000E+00 0.  1.
         23    2    1    2    0    0  0.00000000000E+00  0.00000000000E+00  0.40005950491E+02  0.98485484021E+02  0.89993969177E+02 0.  0.
          2    1    3    3  502    0 -0.16491798358E+02 -0.25085387572E+02  0.56683880713E+02  0.64142952967E+02  0.00000000000E+00 0. -1.
         -2    1    3    3    0  502  0.16491798358E+02  0.25085387572E+02 -0.16677930222E+02  0.34342531054E+02  0.00000000000E+00 0.  1.
<mgrwt>
<rscale>  0 0.89993969E+02</rscale>
<asrwt>0</asrwt>
<pdfrwt beam="1">  1        2 0.10653187E-01 0.89993969E+02</pdfrwt>
<pdfrwt beam="2">  1       -2 0.44984257E-02 0.89993969E+02</pdfrwt>
<totfact> 0.11438662E+05</totfact>
</mgrwt>
</event>
<event>
 5    1  0.3862918E+001  0.9042974E+02  0.7546771E-02  0.1301814E+00
         -4   -1    0    0    0  501 -0.00000000000E+00  0.00000000000E+00  0.20700779083E+02  0.20700779083E+02  0.00000000000E+00 0.  1.
          4   -1    0    0  501    0  0.00000000000E+00 -0.00000000000E+00 -0.98758822456E+02  0.98758822456E+02  0.00000000000E+00 0. -1.
         23    2    1    2    0    0  0.00000000000E+00  0.00000000000E+00 -0.78058043373E+02  0.11945960154E+03  0.90429742147E+02 0.  0.
          2    1    3    3  502    0  0.17258879334E+02  0.18662565823E+02 -0.88425750546E+02  0.92006921689E+02  0.00000000000E+00 0. -1.
         -2    1    3    3    0  502 -0.17258879334E+02 -0.18662565823E+02  0.10367707173E+02  0.27452679851E+02  0.00000000000E+00 0.  1.
<mgrwt>
<rscale>  0 0.90429742E+02</rscale>
<asrwt>0</asrwt>
<pdfrwt beam="2">  1        4 0.15193665E-01 0.90429742E+02</pdfrwt>
<pdfrwt beam="1">  1       -4 0.31847353E-02 0.90429742E+02</pdfrwt>
<totfact> 0.25871110E+04</totfact>
</mgrwt>
</event>
<event>
 5    1  0.3862918E+001  0.8992415E+02  0.7546771E-02  0.1303035E+00
         -1   -1    0    0    0  501 -0.00000000000E+00  0.00000000000E+00  0.96579532992E+02  0.96579532992E+02  0.00000000000E+00 0.  1.
          1   -1    0    0  501    0  0.00000000000E+00 -0.00000000000E+00 -0.20931848178E+02  0.20931848178E+02  0.00000000000E+00 0. -1.
         23    2    1    2    0    0  0.00000000000E+00  0.00000000000E+00  0.75647684814E+02  0.11751138117E+03  0.89924148519E+02 0.  0.
          2    1    3    3  502    0 -0.35621413073E+02 -0.27370033821E+02  0.35349807427E+02  0.57163036184E+02  0.00000000000E+00 0. -1.
         -2    1    3    3    0  502  0.35621413073E+02  0.27370033821E+02  0.40297877387E+02  0.60348344986E+02  0.00000000000E+00 0.  1.
<mgrwt>
<rscale>  0 0.89924149E+02</rscale>
<asrwt>0</asrwt>
<pdfrwt beam="2">  1        1 0.32202844E-02 0.89924149E+02</pdfrwt>
<pdfrwt beam="1">  1       -1 0.14858389E-01 0.89924149E+02</pdfrwt>
<totfact> 0.84859163E+04</totfact>
</mgrwt>
</event>
<event>
 5    1  0.3862918E+001  0.9076848E+02  0.7546771E-02  0.1301001E+00
          2   -1    0    0  501    0  0.00000000000E+00  0.00000000000E+00  0.52665287355E+02  0.52665287355E+02  0.00000000000E+00 0. -1.
         -2   -1    0    0    0  501 -0.00000000000E+00 -0.00000000000E+00 -0.39109803052E+02  0.39109803052E+02  0.00000000000E+00 0.  1.
         23    2    1    2    0    0  0.00000000000E+00  0.00000000000E+00  0.13555484303E+02  0.91775090407E+02  0.90768475059E+02 0.  0.
          2    1    3    3  502    0 -0.33005893128E+02 -0.31098188017E+02  0.85984725545E+01  0.46156473104E+02  0.00000000000E+00 0. -1.
         -2    1    3    3    0  502  0.33005893128E+02  0.31098188017E+02  0.49570117489E+01  0.45618617303E+02  0.00000000000E+00 0.  1.
<mgrwt>
<rscale>  0 0.90768475E+02</rscale>
<asrwt>0</asrwt>
<pdfrwt beam="1">  1        2 0.81023520E-02 0.90768475E+02</pdfrwt>
<pdfrwt beam="2">  1       -2 0.60168927E-02 0.90768475E+02</pdfrwt>
<totfact> 0.10377751E+05</totfact>
</mgrwt>
</event>
<event>
 5    1  0.3862918E+001  0.9143513E+02  0.7546771E-02  0.1299413E+00
          2   -1    0    0  501    0  0.00000000000E+00  0.00000000000E+00  0.18518748420E+03  0.18518748420E+03  0.00000000000E+00 0. -1.
         -2   -1    0    0    0  501 -0.00000000000E+00 -0.00000000000E+00 -0.11286375767E+02  0.11286375767E+02  0.00000000000E+00 0.  1.
         23    2    1    2    0    0  0.00000000000E+00  0.00000000000E+00  0.17390110843E+03  0.19647385997E+03  0.91435125287E+02 0.  0.
          2    1    3    3  502    0 -0.14246585512E+01  0.42755412987E+02  0.12160127275E+03  0.12890665043E+03  0.00000000000E+00 0. -1.
         -2    1    3    3    0  502  0.14246585512E+01 -0.42755412987E+02  0.52299835681E+02  0.67567209532E+02  0.00000000000E+00 0.  1.
<mgrwt>
<rscale>  0 0.91435125E+02</rscale>
<asrwt>0</asrwt>
<pdfrwt beam="1">  1        2 0.28490380E-01 0.91435125E+02</pdfrwt>
<pdfrwt beam="2">  1       -2 0.17363656E-02 0.91435125E+02</pdfrwt>
<totfact> 0.14931594E+05</totfact>
</mgrwt>
</event>
<event>
 5    1  0.3862918E+001  0.8893345E+02  0.7546771E-02  0.1305455E+00
         -4   -1    0    0    0  501 -0.00000000000E+00  0.00000000000E+00  0.29023290872E+01  0.29023290872E+01  0.00000000000E+00 0.  1.
          4   -1    0    0  501    0  0.00000000000E+00 -0.00000000000E+00 -0.68127684170E+03  0.68127684170E+03  0.00000000000E+00 0. -1.
         23    2    1    2    0    0  0.00000000000E+00  0.00000000000E+00 -0.67837451261E+03  0.68417917079E+03  0.88933449143E+02 0.  0.
          2    1    3    3  502    0 -0.31797068315E+02  0.28023413320E+02 -0.44266649353E+03  0.44469089236E+03  0.00000000000E+00 0. -1.
         -2    1    3    3    0  502  0.31797068315E+02 -0.28023413320E+02 -0.23570801908E+03  0.23948827843E+03  0.00000000000E+00 0.  1.
<mgrwt>
<rscale>  0 0.88933449E+02</rscale>
<asrwt>0</asrwt>
<pdfrwt beam="2">  1        4 0.10481187E+00 0.88933449E+02</pdfrwt>
<pdfrwt beam="1">  1       -4 0.44651196E-03 0.88933449E+02</pdfrwt>
<totfact> 0.10932312E+04</totfact>
</mgrwt>
</event>
<event>
 5    1  0.3862918E+001  0.8634647E+02  0.7546771E-02  0.1311948E+00
          4   -1    0    0  501    0  0.00000000000E+00  0.00000000000E+00  0.40647078503E+03  0.40647078503E+03  0.00000000000E+00 0. -1.
         -4   -1    0    0    0  501 -0.00000000000E+00 -0.00000000000E+00 -0.45856386231E+01  0.45856386231E+01  0.00000000000E+00 0.  1.
         23    2    1    2    0    0  0.00000000000E+00  0.00000000000E+00  0.40188514641E+03  0.41105642366E+03  0.86346467930E+02 0.  0.
          2    1    3    3  502    0 -0.15568070180E+01 -0.21801340917E+02  0.37818625063E+03  0.37881732045E+03  0.00000000000E+00 0. -1.
         -2    1    3    3    0  502  0.15568070180E+01  0.21801340917E+02  0.23698895784E+02  0.32239103201E+02  0.00000000000E+00 0.  1.
<mgrwt>
<rscale>  0 0.86346468E+02</rscale>
<asrwt>0</asrwt>
<pdfrwt beam="1">  1        4 0.62533939E-01 0.86346468E+02</pdfrwt>
<pdfrwt beam="2">  1       -4 0.70548318E-03 0.86346468E+02</pdfrwt>
<totfact> 0.17188625E+04</totfact>
</mgrwt>
</event>
<event>
 5    1  0.3862918E+001  0.9136225E+02  0.7546771E-02  0.1299586E+00
         -3   -1    0    0    0  501 -0.00000000000E+00  0.00000000000E+00  0.35811953002E+01  0.35811953002E+01  0.00000000000E+00 0.  1.
          3   -1    0    0  501    0  0.00000000000E+00 -0.00000000000E+00 -0.58270071381E+03  0.58270071381E+03  0.00000000000E+00 0. -1.
         23    2    1    2    0    0  0.00000000000E+00  0.00000000000E+00 -0.57911951851E+03  0.58628190912E+03  0.91362247296E+02 0.  0.
          2    1    3    3  502    0 -0.11251548148E+02  0.40588265705E+02 -0.17607289246E+03  0.18104051510E+03  0.00000000000E+00 0.  1.
         -2    1    3    3    0  502  0.11251548148E+02 -0.40588265705E+02 -0.40304662605E+03  0.40524139401E+03  0.00000000000E+00 0. -1.
<mgrwt>
<rscale>  0 0.91362247E+02</rscale>
<asrwt>0</asrwt>
<pdfrwt beam="2">  1        3 0.89646238E-01 0.91362247E+02</pdfrwt>
<pdfrwt beam="1">  1       -3 0.55095328E-03 0.91362247E+02</pdfrwt>
<totfact> 0.15915073E+04</totfact>
</mgrwt>
</event>
<event>
 4    1  0.3862918E+001  0.1587121E+03  0.7546771E-02  0.1190159E+00
         -1   -1    0    0    0  501 -0.00000000000E+00  0.00000000000E+00  0.35162044865E+02  0.35162044865E+02  0.00000000000E+00 0.  1.
          1   -1    0    0  501    0  0.00000000000E+00 -0.00000000000E+00 -0.17909597463E+03  0.17909597463E+03  0.00000000000E+00 0. -1.
          2    1    1    2  502    0  0.71461647765E+02  0.44083351234E+01 -0.11816664542E+03  0.13816496158E+03  0.00000000000E+00 0. -1.
         -2    1    1    2    0  502 -0.71461647765E+02 -0.44083351234E+01 -0.25767284349E+02  0.76093057913E+02  0.00000000000E+00 0.  1.
<mgrwt>
<rscale>  0 0.15871208E+03</rscale>
<asrwt>0</asrwt>
<pdfrwt beam="2">  1        1 0.27553226E-01 0.15871208E+03</pdfrwt>
<pdfrwt beam="1">  1       -1 0.54095455E-02 0.15871208E+03</pdfrwt>
<totfact> 0.24817879E+04</totfact>
</mgrwt>
</event>
<event>
 5    1  0.3862918E+001  0.9132938E+02  0.7546771E-02  0.1299664E+00
          1   -1    0    0  501    0  0.00000000000E+00  0.00000000000E+00  0.15599991925E+02  0.15599991925E+02  0.00000000000E+00 0. -1.
         -1   -1    0    0    0  501 -0.00000000000E+00 -0.00000000000E+00 -0.13367082979E+03  0.13367082979E+03  0.00000000000E+00 0.  1.
         23    2    1    2    0    0  0.00000000000E+00  0.00000000000E+00 -0.11807083787E+03  0.14927082172E+03  0.91329378962E+02 0.  0.
          2    1    3    3  502    0 -0.23026875098E+02 -0.38965386141E+02 -0.68940287122E+02  0.82470003531E+02  0.00000000000E+00 0. -1.
         -2    1    3    3    0  502  0.23026875098E+02  0.38965386141E+02 -0.49130550746E+02  0.66800818187E+02  0.00000000000E+00 0.  1.
<mgrwt>
<rscale>  0 0.91329379E+02</rscale>
<asrwt>0</asrwt>
<pdfrwt beam="1">  1        1 0.23999988E-02 0.91329379E+02</pdfrwt>
<pdfrwt beam="2">  1       -1 0.20564743E-01 0.91329379E+02</pdfrwt>
<totfact> 0.76429208E+04</totfact>
</mgrwt>
</event>
<event>
 5    1  0.3862918E+001  0.9169438E+02  0.7546771E-02  0.1298800E+00
          1   -1    0    0  501    0  0.00000000000E+00  0.00000000000E+00  0.34357689979E+03  0.34357689979E+03  0.00000000000E+00 0. -1.
         -1   -1    0    0    0  501 -0.00000000000E+00 -0.00000000000E+00 -0.61178868698E+01  0.61178868698E+01  0.00000000000E+00 0.  1.
         23    2    1    2    0    0  0.00000000000E+00  0.00000000000E+00  0.33745901292E+03  0.34969478666E+03  0.91694375051E+02 0.  0.
          2    1    3    3  502    0 -0.15842707875E+02  0.19507930822E+02  0.31496953216E+03  0.31597050012E+03  0.00000000000E+00 0. -1.
         -2    1    3    3    0  502  0.15842707875E+02 -0.19507930822E+02  0.22489480764E+02  0.33724286542E+02  0.00000000000E+00 0.  1.
<mgrwt>
<rscale>  0 0.91694375E+02</rscale>
<asrwt>0</asrwt>
<pdfrwt beam="1">  1        1 0.52857970E-01 0.91694375E+02</pdfrwt>
<pdfrwt beam="2">  1       -1 0.94121363E-03 0.91694375E+02</pdfrwt>
<totfact> 0.12943000E+05</totfact>
</mgrwt>
</event>
<event>
 5    1  0.3862918E+001  0.9203725E+02  0.7546771E-02  0.1297992E+00
         -2   -1    0    0    0  501 -0.00000000000E+00  0.00000000000E+00  0.11006409460E+02  0.11006409460E+02  0.00000000000E+00 0.  1.
          2   -1    0    0  501    0  0.00000000000E+00 -0.00000000000E+00 -0.19240733724E+03  0.19240733724E+03  0.00000000000E+00 0. -1.
         23    2    1    2    0    0  0.00000000000E+00  0.00000000000E+00 -0.18140092778E+03  0.20341374670E+03  0.92037251954E+02 0.  0.
          2    1    3    3  502    0 -0.77490152200E+01 -0.33926924477E+02 -0.15724797503E+03  0.16105281461E+03  0.00000000000E+00 0. -1.
         -2    1    3    3    0  502  0.77490152200E+01  0.33926924477E+02 -0.24152952749E+02  0.42360932094E+02  0.00000000000E+00 0.  1.
<mgrwt>
<rscale>  0 0.92037252E+02</rscale>
<asrwt>0</asrwt>
<pdfrwt beam="2">  1        2 0.29601127E-01 0.92037252E+02</pdfrwt>
<pdfrwt beam="1">  1       -2 0.16932939E-02 0.92037252E+02</pdfrwt>
<totfact> 0.14871860E+05</totfact>
</mgrwt>
</event>
<event>
 5    1  0.3862918E+001  0.9279034E+02  0.7546771E-02  0.1296232E+00
          1   -1    0    0  501    0  0.00000000000E+00  0.00000000000E+00  0.67578889913E+02  0.67578889913E+02  0.00000000000E+00 0. -1.
         -1   -1    0    0    0  501 -0.00000000000E+00 -0.00000000000E+00 -0.31851834659E+02  0.31851834659E+02  0.00000000000E+00 0.  1.
         23    2    1    2    0    0  0.00000000000E+00  0.00000000000E+00  0.35727055254E+02  0.99430724572E+02  0.92790336306E+02 0.  0.
          2    1    3    3  502    0 -0.37053105496E+02  0.10714568449E+02  0.45491935318E+02  0.59642692620E+02  0.00000000000E+00 0. -1.
         -2    1    3    3    0  502  0.37053105496E+02 -0.10714568449E+02 -0.97648800639E+01  0.39788031952E+02  0.00000000000E+00 0.  1.
<mgrwt>
<rscale>  0 0.92790336E+02</rscale>
<asrwt>0</asrwt>
<pdfrwt beam="1">  1        1 0.10396752E-01 0.92790336E+02</pdfrwt>
<pdfrwt beam="2">  1       -1 0.49002823E-02 0.92790336E+02</pdfrwt>
<totfact> 0.93483513E+04</totfact>
</mgrwt>
</event>
<event>
 5    1  0.3862918E+001  0.8657702E+02  0.7546771E-02  0.1311359E+00
          3   -1    0    0  501    0  0.00000000000E+00  0.00000000000E+00  0.36492045659E+01  0.36492045659E+01  0.00000000000E+00 0. -1.
         -3   -1    0    0    0  501 -0.00000000000E+00 -0.00000000000E+00 -0.51350779962E+03  0.51350779962E+03  0.00000000000E+00 0.  1.
         23    2    1    2    0    0  0.00000000000E+00  0.00000000000E+00 -0.50985859506E+03  0.51715700419E+03  0.86577017898E+02 0.  0.
          2    1    3    3  502    0  0.34942380576E+01  0.33270950478E+02 -0.90826738420E+02  0.96791850159E+02  0.00000000000E+00 0. -1.
         -2    1    3    3    0  502 -0.34942380576E+01 -0.33270950478E+02 -0.41903185664E+03  0.42036515403E+03  0.00000000000E+00 0.  1.
<mgrwt>
<rscale>  0 0.86577018E+02</rscale>
<asrwt>0</asrwt>
<pdfrwt beam="1">  1        3 0.56141593E-03 0.86577018E+02</pdfrwt>
<pdfrwt beam="2">  1       -3 0.79001221E-01 0.86577018E+02</pdfrwt>
<totfact> 0.20059898E+04</totfact>
</mgrwt>
</event>
<event>
 5    1  0.3862918E+001  0.9158232E+02  0.7546771E-02  0.1299065E+00
         -1   -1    0    0    0  501 -0.00000000000E+00  0.00000000000E+00  0.10329527849E+01  0.10329527849E+01  0.00000000000E+00 0.  1.
          1   -1    0    0  501    0  0.00000000000E+00 -0.00000000000E+00 -0.20299380015E+04  0.20299380015E+04  0.00000000000E+00 0. -1.
         23    2    1    2    0    0  0.00000000000E+00  0.00000000000E+00 -0.20289050487E+04  0.20309709543E+04  0.91582315147E+02 0.  0.
          2    1    3    3  502    0 -0.72769650772E+01  0.28736260206E+02 -0.17884403752E+04  0.17886860268E+04  0.00000000000E+00 0. -1.
         -2    1    3    3    0  502  0.72769650772E+01 -0.28736260206E+02 -0.24046467353E+03  0.24228492749E+03  0.00000000000E+00 0.  1.
<mgrwt>
<rscale>  0 0.91582315E+02</rscale>
<asrwt>0</asrwt>
<pdfrwt beam="2">  1        1 0.31229739E+00 0.91582315E+02</pdfrwt>
<pdfrwt beam="1">  1       -1 0.15891620E-03 0.91582315E+02</pdfrwt>
<totfact> 0.77034279E+04</totfact>
</mgrwt>
</event>
<event>
 5    1  0.3862918E+001  0.9102736E+02  0.7546771E-02  0.1300383E+00
         -1   -1    0    0    0  501 -0.00000000000E+00  0.00000000000E+00  0.10200422847E+03  0.10200422847E+03  0.00000000000E+00 0.  1.
          1   -1    0    0  501    0  0.00000000000E+00 -0.00000000000E+00 -0.20307931173E+02  0.20307931173E+02  0.00000000000E+00 0. -1.
         23    2    1    2    0    0  0.00000000000E+00  0.00000000000E+00  0.81696297293E+02  0.12231215964E+03  0.91027355252E+02 0.  0.
          2    1    3    3  502    0  0.34614101275E+02  0.21220723342E+02  0.68484982997E+02  0.79615626622E+02  0.00000000000E+00 0.  1.
         -2    1    3    3    0  502 -0.34614101275E+02 -0.21220723342E+02  0.13211314296E+02  0.42696533017E+02  0.00000000000E+00 0. -1.
<mgrwt>
<rscale>  0 0.91027355E+02</rscale>
<asrwt>0</asrwt>
<pdfrwt beam="2">  1        1 0.31242972E-02 0.91027355E+02</pdfrwt>
<pdfrwt beam="1">  1       -1 0.15692958E-01 0.91027355E+02</pdfrwt>
<totfact> 0.81413209E+04</totfact>
</mgrwt>
</event>
<event>
 5    1  0.3862918E+001  0.9280300E+02  0.7546771E-02  0.1296202E+00
         -2   -1    0    0    0  501 -0.00000000000E+00  0.00000000000E+00  0.32858345833E+01  0.32858345833E+01  0.00000000000E+00 0.  1.
          2   -1    0    0  501    0  0.00000000000E+00 -0.00000000000E+00 -0.65526710414E+03  0.65526710414E+03  0.00000000000E+00 0. -1.
         23    2    1    2    0    0  0.00000000000E+00  0.00000000000E+00 -0.65198126956E+03  0.65855293873E+03  0.92803002367E+02 0.  0.
          2    1    3    3  502    0 -0.30084123523E+02 -0.26444305574E+02 -0.15975911696E+03  0.16470376813E+03  0.00000000000E+00 0.  1.
         -2    1    3    3    0  502  0.30084123523E+02  0.26444305574E+02 -0.49222215260E+03  0.49384917060E+03  0.00000000000E+00 0. -1.
<mgrwt>
<rscale>  0 0.92803002E+02</rscale>
<asrwt>0</asrwt>
<pdfrwt beam="2">  1        2 0.10081033E+00 0.92803002E+02</pdfrwt>
<pdfrwt beam="1">  1       -2 0.50551296E-03 0.92803002E+02</pdfrwt>
<totfact> 0.22269085E+05</totfact>
</mgrwt>
</event>
<event>
 5    1  0.3862918E+001  0.9626496E+02  0.7546771E-02  0.1288352E+00
         -2   -1    0    0    0  501 -0.00000000000E+00  0.00000000000E+00  0.66258280685E+01  0.66258280685E+01  0.00000000000E+00 0.  1.
          2   -1    0    0  501    0  0.00000000000E+00 -0.00000000000E+00 -0.34965225815E+03  0.34965225815E+03  0.00000000000E+00 0. -1.
         23    2    1    2    0    0  0.00000000000E+00  0.00000000000E+00 -0.34302643008E+03  0.35627808622E+03  0.96264962396E+02 0.  0.
          2    1    3    3  502    0  0.31828951275E+02 -0.68032576378E+00 -0.30511887664E+03  0.30677528235E+03  0.00000000000E+00 0. -1.
         -2    1    3    3    0  502 -0.31828951275E+02  0.68032576378E+00 -0.37907553443E+02  0.49502803864E+02  0.00000000000E+00 0.  1.
<mgrwt>
<rscale>  0 0.96264962E+02</rscale>
<asrwt>0</asrwt>
<pdfrwt beam="2">  1        2 0.53792663E-01 0.96264962E+02</pdfrwt>
<pdfrwt beam="1">  1       -2 0.10193580E-02 0.96264962E+02</pdfrwt>
<totfact> 0.16446750E+05</totfact>
</mgrwt>
</event>
<event>
 5    1  0.3862918E+001  0.8375295E+02  0.7546771E-02  0.1318726E+00
          2   -1    0    0  501    0  0.00000000000E+00  0.00000000000E+00  0.63961834039E+03  0.63961834039E+03  0.00000000000E+00 0.  1.
         -2   -1    0    0    0  501 -0.00000000000E+00 -0.00000000000E+00 -0.27416959062E+01  0.27416959062E+01  0.00000000000E+00 0. -1.
         23    2    1    2    0    0  0.00000000000E+00  0.00000000000E+00  0.63687664448E+03  0.64236003629E+03  0.83752945868E+02 0.  0.
          2    1    3    3  502    0 -0.26903579101E+02  0.14536718552E+02  0.99009773184E+02  0.10362458174E+03  0.00000000000E+00 0. -1.
         -2    1    3    3    0  502  0.26903579101E+02 -0.14536718552E+02  0.53786687130E+03  0.53873545455E+03  0.00000000000E+00 0.  1.
<mgrwt>
<rscale>  0 0.83752946E+02</rscale>
<asrwt>0</asrwt>
<pdfrwt beam="1">  1        2 0.98402703E-01 0.83752946E+02</pdfrwt>
<pdfrwt beam="2">  1       -2 0.42179988E-03 0.83752946E+02</pdfrwt>
<totfact> 0.28985462E+05</totfact>
</mgrwt>
</event>
<event>
 5    1  0.3862918E+001  0.9087892E+02  0.7546771E-02  0.1300737E+00
         -1   -1    0    0    0  501 -0.00000000000E+00  0.00000000000E+00  0.31353448166E+01  0.31353448166E+01  0.00000000000E+00 0.  1.
          1   -1    0    0  501    0  0.00000000000E+00 -0.00000000000E+00 -0.65853825308E+03  0.65853825308E+03  0.00000000000E+00 0. -1.
         23    2    1    2    0    0  0.00000000000E+00  0.00000000000E+00 -0.65540290826E+03  0.66167359790E+03  0.90878919411E+02 0.  0.
          2    1    3    3  502    0 -0.27409841738E+02 -0.14478003660E+02 -0.56959943128E+03  0.57044230569E+03  0.00000000000E+00 0. -1.
         -2    1    3    3    0  502  0.27409841738E+02  0.14478003660E+02 -0.85803476987E+02  0.91231292204E+02  0.00000000000E+00 0.  1.
<mgrwt>
<rscale>  0 0.90878919E+02</rscale>
<asrwt>0</asrwt>
<pdfrwt beam="2">  1        1 0.10131366E+00 0.90878919E+02</pdfrwt>
<pdfrwt beam="1">  1       -1 0.48236034E-03 0.90878919E+02</pdfrwt>
<totfact> 0.14336082E+05</totfact>
</mgrwt>
</event>
<event>
 5    1  0.3862918E+001  0.9342263E+02  0.7546771E-02  0.1294769E+00
          2   -1    0    0  501    0  0.00000000000E+00  0.00000000000E+00  0.39281875662E+03  0.39281875662E+03  0.00000000000E+00 0. -1.
         -2   -1    0    0    0  501 -0.00000000000E+00 -0.00000000000E+00 -0.55545895374E+01  0.55545895374E+01  0.00000000000E+00 0.  1.
         23    2    1    2    0    0  0.00000000000E+00  0.00000000000E+00  0.38726416709E+03  0.39837334616E+03  0.93422630141E+02 0.  0.
          2    1    3    3  502    0  0.24183727571E+02 -0.36240367968E+02  0.12180457256E+03  0.12936216930E+03  0.00000000000E+00 0. -1.
         -2    1    3    3    0  502 -0.24183727571E+02  0.36240367968E+02  0.26545959452E+03  0.26901117686E+03  0.00000000000E+00 0.  1.
<mgrwt>
<rscale>  0 0.93422630E+02</rscale>
<asrwt>0</asrwt>
<pdfrwt beam="1">  1        2 0.60433633E-01 0.93422630E+02</pdfrwt>
<pdfrwt beam="2">  1       -2 0.85455255E-03 0.93422630E+02</pdfrwt>
<totfact> 0.18590071E+05</totfact>
</mgrwt>
</event>
<event>
 5    1  0.3862918E+001  0.9089405E+02  0.7546771E-02  0.1300701E+00
         -1   -1    0    0    0  501 -0.00000000000E+00  0.00000000000E+00  0.48844796009E+02  0.48844796009E+02  0.00000000000E+00 0.  1.
          1   -1    0    0  501    0  0.00000000000E+00 -0.00000000000E+00 -0.42285611414E+02  0.42285611414E+02  0.00000000000E+00 0. -1.
         23    2    1    2    0    0  0.00000000000E+00  0.00000000000E+00  0.65591845954E+01  0.91130407423E+02  0.90894049610E+02 0.  0.
          2    1    3    3  502    0 -0.94334138951E+01 -0.44129367418E+02 -0.21234560719E+01  0.45176314946E+02  0.00000000000E+00 0. -1.
         -2    1    3    3    0  502  0.94334138951E+01  0.44129367418E+02  0.86826406673E+01  0.45954092477E+02  0.00000000000E+00 0.  1.
<mgrwt>
<rscale>  0 0.90894050E+02</rscale>
<asrwt>0</asrwt>
<pdfrwt beam="2">  1        1 0.65054786E-02 0.90894050E+02</pdfrwt>
<pdfrwt beam="1">  1       -1 0.75145841E-02 0.90894050E+02</pdfrwt>
<totfact> 0.92233621E+04</totfact>
</mgrwt>
</event>
<event>
 5    1  0.3862918E+001  0.9034747E+02  0.7546771E-02  0.1302012E+00
         -2   -1    0    0    0  501 -0.00000000000E+00  0.00000000000E+00  0.24548289631E+03  0.24548289631E+03  0.00000000000E+00 0.  1.
          2   -1    0    0  501    0  0.00000000000E+00 -0.00000000000E+00 -0.83128654266E+01  0.83128654266E+01  0.00000000000E+00 0. -1.
         23    2    1    2    0    0  0.00000000000E+00  0.00000000000E+00  0.23717003088E+03  0.25379576173E+03  0.90347468842E+02 0.  0.
          2    1    3    3  502    0 -0.38776489492E+02 -0.18841288399E+02  0.15648777831E+03  0.16231769789E+03  0.00000000000E+00 0. -1.
         -2    1    3    3    0  502  0.38776489492E+02  0.18841288399E+02  0.80682252565E+02  0.91478063845E+02  0.00000000000E+00 0.  1.
<mgrwt>
<rscale>  0 0.90347469E+02</rscale>
<asrwt>0</asrwt>
<pdfrwt beam="2">  1        2 0.12789026E-02 0.90347469E+02</pdfrwt>
<pdfrwt beam="1">  1       -2 0.37766594E-01 0.90347469E+02</pdfrwt>
<totfact> 0.58031195E+04</totfact>
</mgrwt>
</event>
<event>
 5    1  0.3862918E+001  0.9136268E+02  0.7546771E-02  0.1299585E+00
          1   -1    0    0  501    0  0.00000000000E+00  0.00000000000E+00  0.35321584621E+03  0.35321584621E+03  0.00000000000E+00 0. -1.
         -1   -1    0    0    0  501 -0.00000000000E+00 -0.00000000000E+00 -0.59079588175E+01  0.59079588175E+01  0.00000000000E+00 0.  1.
         23    2    1    2    0    0  0.00000000000E+00  0.00000000000E+00  0.34730788739E+03  0.35912380503E+03  0.91362676692E+02 0.  0.
          2    1    3    3  502    0 -0.23520953633E+01 -0.43171572137E+02  0.11568802284E+03  0.12350318062E+03  0.00000000000E+00 0.  1.
         -2    1    3    3    0  502  0.23520953633E+01  0.43171572137E+02  0.23161986455E+03  0.23562062441E+03  0.00000000000E+00 0. -1.
<mgrwt>
<rscale>  0 0.91362677E+02</rscale>
<asrwt>0</asrwt>
<pdfrwt beam="1">  1        1 0.54340883E-01 0.91362677E+02</pdfrwt>
<pdfrwt beam="2">  1       -1 0.90891702E-03 0.91362677E+02</pdfrwt>
<totfact> 0.13133399E+05</totfact>
</mgrwt>
</event>
<event>
 5    1  0.3862918E+001  0.9229557E+02  0.7546771E-02  0.1297386E+00
         -1   -1    0    0    0  501 -0.00000000000E+00  0.00000000000E+00  0.48422333068E+01  0.48422333068E+01  0.00000000000E+00 0.  1.
          1   -1    0    0  501    0  0.00000000000E+00 -0.00000000000E+00 -0.43980075379E+03  0.43980075379E+03  0.00000000000E+00 0. -1.
         23    2    1    2    0    0  0.00000000000E+00  0.00000000000E+00 -0.43495852048E+03  0.44464298709E+03  0.92295565621E+02 0.  0.
          2    1    3    3  502    0 -0.41017882286E+02  0.20794820676E+02 -0.19899158884E+03  0.20423648955E+03  0.00000000000E+00 0. -1.
         -2    1    3    3    0  502  0.41017882286E+02 -0.20794820676E+02 -0.23596693164E+03  0.24040649755E+03  0.00000000000E+00 0.  1.
<mgrwt>
<rscale>  0 0.92295566E+02</rscale>
<asrwt>0</asrwt>
<pdfrwt beam="2">  1        1 0.67661674E-01 0.92295566E+02</pdfrwt>
<pdfrwt beam="1">  1       -1 0.74495875E-03 0.92295566E+02</pdfrwt>
<totfact> 0.13253853E+05</totfact>
</mgrwt>
</event>
<event>
 5    1  0.3862918E+001  0.9252223E+02  0.7546771E-02  0.1296856E+00
         -2   -1    0    0    0  501 -0.00000000000E+00  0.00000000000E+00  0.34389858524E+01  0.34389858524E+01  0.00000000000E+00 0.  1.
          2   -1    0    0  501    0  0.00000000000E+00 -0.00000000000E+00 -0.62230281352E+03  0.62230281352E+03  0.00000000000E+00 0. -1.
         23    2    1    2    0    0  0.00000000000E+00  0.00000000000E+00 -0.61886382767E+03  0.62574179937E+03  0.92522225905E+02 0.  0.
          2    1    3    3  502    0  0.31038743301E+02  0.13064116683E+02 -0.52394387029E+03  0.52502500316E+03  0.00000000000E+00 0. -1.
         -2    1    3    3    0  502 -0.31038743301E+02 -0.13064116683E+02 -0.94919957379E+02  0.10071679621E+03  0.00000000000E+00 0.  1.
<mgrwt>
<rscale>  0 0.92522226E+02</rscale>
<asrwt>0</asrwt>
<pdfrwt beam="2">  1        2 0.95738836E-01 0.92522226E+02</pdfrwt>
<pdfrwt beam="1">  1       -2 0.52907507E-03 0.92522226E+02</pdfrwt>
<totfact> 0.22143283E+05</totfact>
</mgrwt>
</event>
<event>
 5    1  0.3862918E+001  0.9129300E+02  0.7546771E-02  0.1299750E+00
         -1   -1    0    0    0  501 -0.00000000000E+00  0.00000000000E+00  0.40469240314E+02  0.40469240314E+02  0.00000000000E+00 0.  1.
          1   -1    0    0  501    0  0.00000000000E+00 -0.00000000000E+00 -0.51486095692E+02  0.51486095692E+02  0.00000000000E+00 0. -1.
         23    2    1    2    0    0  0.00000000000E+00  0.00000000000E+00 -0.11016855377E+02  0.91955336006E+02  0.91293004757E+02 0.  0.
          2    1    3    3  502    0  0.23668936732E+02 -0.16361383370E+02 -0.41201226863E+02  0.50253900613E+02  0.00000000000E+00 0. -1.
         -2    1    3    3    0  502 -0.23668936732E+02  0.16361383370E+02  0.30184371486E+02  0.41701435392E+02  0.00000000000E+00 0.  1.
<mgrwt>
<rscale>  0 0.91293005E+02</rscale>
<asrwt>0</asrwt>
<pdfrwt beam="2">  1        1 0.79209378E-02 0.91293005E+02</pdfrwt>
<pdfrwt beam="1">  1       -1 0.62260369E-02 0.91293005E+02</pdfrwt>
<totfact> 0.93842504E+04</totfact>
</mgrwt>
</event>
<event>
 5    1  0.3862918E+001  0.9087548E+02  0.7546771E-02  0.1300745E+00
         -2   -1    0    0    0  501 -0.00000000000E+00  0.00000000000E+00  0.90142542057E+01  0.90142542057E+01  0.00000000000E+00 0.  1.
          2   -1    0    0  501    0  0.00000000000E+00 -0.00000000000E+00 -0.22903592897E+03  0.22903592897E+03  0.00000000000E+00 0. -1.
         23    2    1    2    0    0  0.00000000000E+00  0.00000000000E+00 -0.22002167476E+03  0.23805018317E+03  0.90875477131E+02 0.  0.
          2    1    3    3  502    0  0.22150175646E+02  0.10625095743E+02 -0.21013908285E+03  0.21157021785E+03  0.00000000000E+00 0. -1.
         -2    1    3    3    0  502 -0.22150175646E+02 -0.10625095743E+02 -0.98825919170E+01  0.26479965327E+02  0.00000000000E+00 0.  1.
<mgrwt>
<rscale>  0 0.90875477E+02</rscale>
<asrwt>0</asrwt>
<pdfrwt beam="2">  1        2 0.35236294E-01 0.90875477E+02</pdfrwt>
<pdfrwt beam="1">  1       -2 0.13868085E-02 0.90875477E+02</pdfrwt>
<totfact> 0.16397332E+05</totfact>
</mgrwt>
</event>
<event>
 5    1  0.3862918E+001  0.8524971E+02  0.7546771E-02  0.1314781E+00
          2   -1    0    0  501    0  0.00000000000E+00  0.00000000000E+00  0.19371332244E+03  0.19371332244E+03  0.00000000000E+00 0. -1.
         -2   -1    0    0    0  501 -0.00000000000E+00 -0.00000000000E+00 -0.93792110276E+01  0.93792110276E+01  0.00000000000E+00 0.  1.
         23    2    1    2    0    0  0.00000000000E+00  0.00000000000E+00  0.18433411141E+03  0.20309253346E+03  0.85249706861E+02 0.  0.
          2    1    3    3  502    0 -0.30691770825E+02  0.41055145976E+01  0.16195081235E+03  0.16488452222E+03  0.00000000000E+00 0. -1.
         -2    1    3    3    0  502  0.30691770825E+02 -0.41055145976E+01  0.22383299056E+02  0.38208011242E+02  0.00000000000E+00 0.  1.
<mgrwt>
<rscale>  0 0.85249707E+02</rscale>
<asrwt>0</asrwt>
<pdfrwt beam="1">  1        2 0.29802047E-01 0.85249707E+02</pdfrwt>
<pdfrwt beam="2">  1       -2 0.14429557E-02 0.85249707E+02</pdfrwt>
<totfact> 0.18311467E+05</totfact>
</mgrwt>
</event>
<event>
 5    1  0.3862918E+001  0.8919973E+02  0.7546771E-02  0.1304801E+00
         -2   -1    0    0    0  501 -0.00000000000E+00  0.00000000000E+00  0.15852941267E+01  0.15852941267E+01  0.00000000000E+00 0.  1.
          2   -1    0    0  501    0  0.00000000000E+00 -0.00000000000E+00 -0.12547500527E+04  0.12547500527E+04  0.00000000000E+00 0. -1.
         23    2    1    2    0    0  0.00000000000E+00  0.00000000000E+00 -0.12531647586E+04  0.12563353468E+04  0.89199728453E+02 0.  0.
          2    1    3    3  502    0 -0.13937671999E+02  0.33153472326E+02 -0.99808717839E+03  0.99873491332E+03  0.00000000000E+00 0. -1.
         -2    1    3    3    0  502  0.13937671999E+02 -0.33153472326E+02 -0.25507758018E+03  0.25760043350E+03  0.00000000000E+00 0.  1.
<mgrwt>
<rscale>  0 0.89199728E+02</rscale>
<asrwt>0</asrwt>
<pdfrwt beam="2">  1        2 0.19303813E+00 0.89199728E+02</pdfrwt>
<pdfrwt beam="1">  1       -2 0.24389183E-03 0.89199728E+02</pdfrwt>
<totfact> 0.26189550E+05</totfact>
</mgrwt>
</event>
<event>
 5    1  0.3862918E+001  0.9235332E+02  0.7546771E-02  0.1297251E+00
          3   -1    0    0  501    0  0.00000000000E+00  0.00000000000E+00  0.17659587953E+02  0.17659587953E+02  0.00000000000E+00 0. -1.
         -3   -1    0    0    0  501 -0.00000000000E+00 -0.00000000000E+00 -0.12074370386E+03  0.12074370386E+03  0.00000000000E+00 0.  1.
         23    2    1    2    0    0  0.00000000000E+00  0.00000000000E+00 -0.10308411590E+03  0.13840329181E+03  0.92353322800E+02 0.  0.
          2    1    3    3  502    0 -0.11739389348E+02 -0.36447470337E+02 -0.12865466662E+02  0.40394945088E+02  0.00000000000E+00 0. -1.
         -2    1    3    3    0  502  0.11739389348E+02  0.36447470337E+02 -0.90218649239E+02  0.98008346720E+02  0.00000000000E+00 0.  1.
<mgrwt>
<rscale>  0 0.92353323E+02</rscale>
<asrwt>0</asrwt>
<pdfrwt beam="1">  1        3 0.27168597E-02 0.92353323E+02</pdfrwt>
<pdfrwt beam="2">  1       -3 0.18575954E-01 0.92353323E+02</pdfrwt>
<totfact> 0.30936552E+04</totfact>
</mgrwt>
</event>
<event>
 5    1  0.3862918E+001  0.8243282E+02  0.7546771E-02  0.1322286E+00
         -4   -1    0    0    0  501 -0.00000000000E+00  0.00000000000E+00  0.22682159244E+02  0.22682159244E+02  0.00000000000E+00 0.  1.
          4   -1    0    0  501    0  0.00000000000E+00 -0.00000000000E+00 -0.74895529384E+02  0.74895529384E+02  0.00000000000E+00 0. -1.
         23    2    1    2    0    0  0.00000000000E+00  0.00000000000E+00 -0.52213370140E+02  0.97577688628E+02  0.82432816867E+02 0.  0.
          2    1    3    3  502    0 -0.28297692593E+02  0.14156997048E+02 -0.57371615519E+02  0.65518564078E+02  0.00000000000E+00 0. -1.
         -2    1    3    3    0  502  0.28297692593E+02 -0.14156997048E+02  0.51582453797E+01  0.32059124550E+02  0.00000000000E+00 0.  1.
<mgrwt>
<rscale>  0 0.82432817E+02</rscale>
<asrwt>0</asrwt>
<pdfrwt beam="2">  1        4 0.11522389E-01 0.82432817E+02</pdfrwt>
<pdfrwt beam="1">  1       -4 0.34895630E-02 0.82432817E+02</pdfrwt>
<totfact> 0.34892648E+04</totfact>
</mgrwt>
</event>
<event>
 5    1  0.3862918E+001  0.7837388E+02  0.7546771E-02  0.1333730E+00
         -1   -1    0    0    0  501 -0.00000000000E+00  0.00000000000E+00  0.25300472704E+02  0.25300472704E+02  0.00000000000E+00 0.  1.
          1   -1    0    0  501    0  0.00000000000E+00 -0.00000000000E+00 -0.60695158364E+02  0.60695158364E+02  0.00000000000E+00 0. -1.
         23    2    1    2    0    0  0.00000000000E+00  0.00000000000E+00 -0.35394685659E+02  0.85995631068E+02  0.78373878236E+02 0.  0.
          2    1    3    3  502    0  0.25689317850E+02 -0.29591454567E+02 -0.17856207162E+02  0.43063202031E+02  0.00000000000E+00 0. -1.
         -2    1    3    3    0  502 -0.25689317850E+02  0.29591454567E+02 -0.17538478497E+02  0.42932429036E+02  0.00000000000E+00 0.  1.
<mgrwt>
<rscale>  0 0.78373878E+02</rscale>
<asrwt>0</asrwt>
<pdfrwt beam="2">  1        1 0.93377165E-02 0.78373878E+02</pdfrwt>
<pdfrwt beam="1">  1       -1 0.38923805E-02 0.78373878E+02</pdfrwt>
<totfact> 0.14614725E+05</totfact>
</mgrwt>
</event>
<event>
 5    1  0.3862918E+001  0.9180696E+02  0.7546771E-02  0.1298534E+00
         -1   -1    0    0    0  501 -0.00000000000E+00  0.00000000000E+00  0.27973449130E+03  0.27973449130E+03  0.00000000000E+00 0.  1.
          1   -1    0    0  501    0  0.00000000000E+00 -0.00000000000E+00 -0.75326052196E+01  0.75326052196E+01  0.00000000000E+00 0. -1.
         23    2    1    2    0    0  0.00000000000E+00  0.00000000000E+00  0.27220188608E+03  0.28726709652E+03  0.91806960287E+02 0.  0.
          2    1    3    3  502    0 -0.16961948526E+02  0.32144395294E+02  0.48367403801E+02  0.60501037983E+02  0.00000000000E+00 0. -1.
         -2    1    3    3    0  502  0.16961948526E+02 -0.32144395294E+02  0.22383448228E+03  0.22676605854E+03  0.00000000000E+00 0.  1.
<mgrwt>
<rscale>  0 0.91806960E+02</rscale>
<asrwt>0</asrwt>
<pdfrwt beam="2">  1        1 0.11588626E-02 0.91806960E+02</pdfrwt>
<pdfrwt beam="1">  1       -1 0.43036067E-01 0.91806960E+02</pdfrwt>
<totfact> 0.61118489E+04</totfact>
</mgrwt>
</event>
<event>
 5    1  0.3862918E+001  0.9194688E+02  0.7546771E-02  0.1298204E+00
         -3   -1    0    0    0  501 -0.00000000000E+00  0.00000000000E+00  0.30877659700E+03  0.30877659700E+03  0.00000000000E+00 0.  1.
          3   -1    0    0  501    0  0.00000000000E+00 -0.00000000000E+00 -0.68449398888E+01  0.68449398888E+01  0.00000000000E+00 0. -1.
         23    2    1    2    0    0  0.00000000000E+00  0.00000000000E+00  0.30193165711E+03  0.31562153689E+03  0.91946881307E+02 0.  0.
          2    1    3    3  502    0  0.37966987651E+02 -0.25923247306E+02  0.15019563376E+03  0.15707398035E+03  0.00000000000E+00 0. -1.
         -2    1    3    3    0  502 -0.37966987651E+02  0.25923247306E+02  0.15173602335E+03  0.15854755654E+03  0.00000000000E+00 0.  1.
<mgrwt>
<rscale>  0 0.91946881E+02</rscale>
<asrwt>0</asrwt>
<pdfrwt beam="2">  1        3 0.10530679E-02 0.91946881E+02</pdfrwt>
<pdfrwt beam="1">  1       -3 0.47504081E-01 0.91946881E+02</pdfrwt>
<totfact> 0.22906784E+04</totfact>
</mgrwt>
</event>
<event>
 5    1  0.3862918E+001  0.1043723E+03  0.7546771E-02  0.1271361E+00
         -2   -1    0    0    0  501 -0.00000000000E+00  0.00000000000E+00  0.16271273116E+04  0.16271273116E+04  0.00000000000E+00 0.  1.
          2   -1    0    0  501    0  0.00000000000E+00 -0.00000000000E+00 -0.16737444949E+01  0.16737444949E+01  0.00000000000E+00 0. -1.
         23    2    1    2    0    0  0.00000000000E+00  0.00000000000E+00  0.16254535671E+04  0.16288010561E+04  0.10437232162E+03 0.  0.
          2    1    3    3  502    0 -0.43298102504E+02 -0.28250769968E+02  0.70175767318E+03  0.70365947983E+03  0.00000000000E+00 0. -1.
         -2    1    3    3    0  502  0.43298102504E+02  0.28250769968E+02  0.92369589393E+03  0.92514157628E+03  0.00000000000E+00 0.  1.
<mgrwt>
<rscale>  0 0.10437232E+03</rscale>
<asrwt>0</asrwt>
<pdfrwt beam="2">  1        2 0.25750045E-03 0.10437232E+03</pdfrwt>
<pdfrwt beam="1">  1       -2 0.25032601E+00 0.10437232E+03</pdfrwt>
<totfact> 0.64163565E+03</totfact>
</mgrwt>
</event>
<event>
 5    1  0.3862918E+001  0.9285615E+02  0.7546771E-02  0.1296079E+00
         -2   -1    0    0    0  501 -0.00000000000E+00  0.00000000000E+00  0.70475944825E+02  0.70475944825E+02  0.00000000000E+00 0.  1.
          2   -1    0    0  501    0  0.00000000000E+00 -0.00000000000E+00 -0.30585841033E+02  0.30585841033E+02  0.00000000000E+00 0. -1.
         23    2    1    2    0    0  0.00000000000E+00  0.00000000000E+00  0.39890103793E+02  0.10106178586E+03  0.92856147779E+02 0.  0.
          2    1    3    3  502    0  0.21935297305E+02 -0.23528913929E+02 -0.16491743216E+02  0.36148923260E+02  0.00000000000E+00 0. -1.
         -2    1    3    3    0  502 -0.21935297305E+02  0.23528913929E+02  0.56381847009E+02  0.64912862598E+02  0.00000000000E+00 0.  1.
<mgrwt>
<rscale>  0 0.92856148E+02</rscale>
<asrwt>0</asrwt>
<pdfrwt beam="2">  1        2 0.47055140E-02 0.92856148E+02</pdfrwt>
<pdfrwt beam="1">  1       -2 0.10842453E-01 0.92856148E+02</pdfrwt>
<totfact> 0.84228564E+04</totfact>
</mgrwt>
</event>
<event>
 5    1  0.3862918E+001  0.8431811E+02  0.7546771E-02  0.1317225E+00
          1   -1    0    0  501    0  0.00000000000E+00  0.00000000000E+00  0.45303929925E+02  0.45303929925E+02  0.00000000000E+00 0. -1.
         -1   -1    0    0    0  501 -0.00000000000E+00 -0.00000000000E+00 -0.39232489563E+02  0.39232489563E+02  0.00000000000E+00 0.  1.
         23    2    1    2    0    0  0.00000000000E+00  0.00000000000E+00  0.60714403617E+01  0.84536419488E+02  0.84318110936E+02 0.  0.
          2    1    3    3  502    0 -0.39420560780E+02  0.82410298808E+01 -0.94661588305E+01  0.41370319660E+02  0.00000000000E+00 0. -1.
         -2    1    3    3    0  502  0.39420560780E+02 -0.82410298808E+01  0.15537599192E+02  0.43166099828E+02  0.00000000000E+00 0.  1.
<mgrwt>
<rscale>  0 0.84318111E+02</rscale>
<asrwt>0</asrwt>
<pdfrwt beam="1">  1        1 0.69698353E-02 0.84318111E+02</pdfrwt>
<pdfrwt beam="2">  1       -1 0.60357676E-02 0.84318111E+02</pdfrwt>
<totfact> 0.11489110E+05</totfact>
</mgrwt>
</event>
<event>
 5    1  0.3862918E+001  0.9041317E+02  0.7546771E-02  0.1301854E+00
         -3   -1    0    0    0  501 -0.00000000000E+00  0.00000000000E+00  0.14088610029E+03  0.14088610029E+03  0.00000000000E+00 0.  1.
          3   -1    0    0  501    0  0.00000000000E+00 -0.00000000000E+00 -0.14505585235E+02  0.14505585235E+02  0.00000000000E+00 0. -1.
         23    2    1    2    0    0  0.00000000000E+00  0.00000000000E+00  0.12638051505E+03  0.15539168552E+03  0.90413170193E+02 0.  0.
          2    1    3    3  502    0 -0.29270933969E+02 -0.34005806531E+02  0.53705848263E+02  0.69982144801E+02  0.00000000000E+00 0. -1.
         -2    1    3    3    0  502  0.29270933969E+02  0.34005806531E+02  0.72674666788E+02  0.85409540720E+02  0.00000000000E+00 0.  1.
<mgrwt>
<rscale>  0 0.90413170E+02</rscale>
<asrwt>0</asrwt>
<pdfrwt beam="2">  1        3 0.22316286E-02 0.90413170E+02</pdfrwt>
<pdfrwt beam="1">  1       -3 0.21674784E-01 0.90413170E+02</pdfrwt>
<totfact> 0.31693665E+04</totfact>
</mgrwt>
</event>
<event>
 5    1  0.3862918E+001  0.9146164E+02  0.7546771E-02  0.1299350E+00
         -2   -1    0    0    0  501 -0.00000000000E+00  0.00000000000E+00  0.91458071648E+00  0.91458071648E+00  0.00000000000E+00 0.  1.
          2   -1    0    0  501    0  0.00000000000E+00 -0.00000000000E+00 -0.22866300876E+04  0.22866300876E+04  0.00000000000E+00 0. -1.
         23    2    1    2    0    0  0.00000000000E+00  0.00000000000E+00 -0.22857155069E+04  0.22875446683E+04  0.91461637507E+02 0.  0.
          2    1    3    3  502    0 -0.24898526452E+02  0.18972788168E+02 -0.19766669499E+04  0.19769148019E+04  0.00000000000E+00 0. -1.
         -2    1    3    3    0  502  0.24898526452E+02 -0.18972788168E+02 -0.30904855702E+03  0.31062986641E+03  0.00000000000E+00 0.  1.
<mgrwt>
<rscale>  0 0.91461638E+02</rscale>
<asrwt>0</asrwt>
<pdfrwt beam="2">  1        2 0.35179026E+00 0.91461638E+02</pdfrwt>
<pdfrwt beam="1">  1       -2 0.14070432E-03 0.91461638E+02</pdfrwt>
<totfact> 0.16806131E+05</totfact>
</mgrwt>
</event>
<event>
 5    1  0.3862918E+001  0.8988283E+02  0.7546771E-02  0.1303136E+00
          1   -1    0    0  501    0  0.00000000000E+00  0.00000000000E+00  0.13003836959E+04  0.13003836959E+04  0.00000000000E+00 0. -1.
         -1   -1    0    0    0  501 -0.00000000000E+00 -0.00000000000E+00 -0.15531805729E+01  0.15531805729E+01  0.00000000000E+00 0.  1.
         23    2    1    2    0    0  0.00000000000E+00  0.00000000000E+00  0.12988305153E+04  0.13019368765E+04  0.89882828032E+02 0.  0.
          2    1    3    3  502    0 -0.29155976683E+02 -0.34104661313E+02  0.61239585177E+03  0.61403735894E+03  0.00000000000E+00 0.  1.
         -2    1    3    3    0  502  0.29155976683E+02  0.34104661313E+02  0.68643466355E+03  0.68789951754E+03  0.00000000000E+00 0. -1.
<mgrwt>
<rscale>  0 0.89882828E+02</rscale>
<asrwt>0</asrwt>
<pdfrwt beam="1">  1        1 0.20005816E+00 0.89882828E+02</pdfrwt>
<pdfrwt beam="2">  1       -1 0.23895190E-03 0.89882828E+02</pdfrwt>
<totfact> 0.12674970E+05</totfact>
</mgrwt>
</event>
<event>
 5    1  0.3862918E+001  0.1169641E+03  0.7546771E-02  0.1248191E+00
         -1   -1    0    0    0  501 -0.00000000000E+00  0.00000000000E+00  0.10862008983E+01  0.10862008983E+01  0.00000000000E+00 0.  1.
          1   -1    0    0  501    0  0.00000000000E+00 -0.00000000000E+00 -0.31487267120E+04  0.31487267120E+04  0.00000000000E+00 0. -1.
         23    2    1    2    0    0  0.00000000000E+00  0.00000000000E+00 -0.31476405111E+04  0.31498129129E+04  0.11696409335E+03 0.  0.
          2    1    3    3  502    0  0.47851510083E+02 -0.32126959867E+02 -0.13069015169E+04  0.13081718096E+04  0.00000000000E+00 0. -1.
         -2    1    3    3    0  502 -0.47851510083E+02  0.32126959867E+02 -0.18407389942E+04  0.18416411033E+04  0.00000000000E+00 0.  1.
<mgrwt>
<rscale>  0 0.11696409E+03</rscale>
<asrwt>0</asrwt>
<pdfrwt beam="2">  1        1 0.48442350E+00 0.11696409E+03</pdfrwt>
<pdfrwt beam="1">  1       -1 0.16710645E-03 0.11696409E+03</pdfrwt>
<totfact> 0.13520479E+04</totfact>
</mgrwt>
</event>
<event>
 5    1  0.3862918E+001  0.9179934E+02  0.7546771E-02  0.1298552E+00
          3   -1    0    0  501    0  0.00000000000E+00  0.00000000000E+00  0.26955429135E+03  0.26955429135E+03  0.00000000000E+00 0. -1.
         -3   -1    0    0    0  501 -0.00000000000E+00 -0.00000000000E+00 -0.78157893079E+01  0.78157893079E+01  0.00000000000E+00 0.  1.
         23    2    1    2    0    0  0.00000000000E+00  0.00000000000E+00  0.26173850204E+03  0.27737008066E+03  0.91799336561E+02 0.  0.
          2    1    3    3  502    0 -0.29133989399E+01 -0.41220228665E+02  0.19123726004E+03  0.19565092581E+03  0.00000000000E+00 0. -1.
         -2    1    3    3    0  502  0.29133989399E+01  0.41220228665E+02  0.70501242007E+02  0.81719154848E+02  0.00000000000E+00 0.  1.
<mgrwt>
<rscale>  0 0.91799337E+02</rscale>
<asrwt>0</asrwt>
<pdfrwt beam="1">  1        3 0.41469884E-01 0.91799337E+02</pdfrwt>
<pdfrwt beam="2">  1       -3 0.12024293E-02 0.91799337E+02</pdfrwt>
<totfact> 0.24481558E+04</totfact>
</mgrwt>
</event>
<event>
 5    1  0.3862918E+001  0.9025581E+02  0.7546771E-02  0.1302233E+00
         -1   -1    0    0    0  501 -0.00000000000E+00  0.00000000000E+00  0.27987411023E+01  0.27987411023E+01  0.00000000000E+00 0.  1.
          1   -1    0    0  501    0  0.00000000000E+00 -0.00000000000E+00 -0.72765847686E+03  0.72765847686E+03  0.00000000000E+00 0. -1.
         23    2    1    2    0    0  0.00000000000E+00  0.00000000000E+00 -0.72485973576E+03  0.73045721796E+03  0.90255807294E+02 0.  0.
          2    1    3    3  502    0 -0.24082479568E+02  0.27174050869E+02 -0.57931112347E+03  0.58044790692E+03  0.00000000000E+00 0. -1.
         -2    1    3    3    0  502  0.24082479568E+02 -0.27174050869E+02 -0.14554861228E+03  0.15000931105E+03  0.00000000000E+00 0.  1.
<mgrwt>
<rscale>  0 0.90255807E+02</rscale>
<asrwt>0</asrwt>
<pdfrwt beam="2">  1        1 0.11194746E+00 0.90255807E+02</pdfrwt>
<pdfrwt beam="1">  1       -1 0.43057553E-03 0.90255807E+02</pdfrwt>
<totfact> 0.14593331E+05</totfact>
</mgrwt>
</event>
<event>
 5    1  0.3862918E+001  0.9257446E+02  0.7546771E-02  0.1296734E+00
          2   -1    0    0  501    0  0.00000000000E+00  0.00000000000E+00  0.36609268417E+03  0.36609268417E+03  0.00000000000E+00 0.  1.
         -2   -1    0    0    0  501 -0.00000000000E+00 -0.00000000000E+00 -0.58523640562E+01  0.58523640562E+01  0.00000000000E+00 0. -1.
         23    2    1    2    0    0  0.00000000000E+00  0.00000000000E+00  0.36024032011E+03  0.37194504822E+03  0.92574460107E+02 0.  0.
          2    1    3    3  502    0 -0.12653122670E+02  0.37697713646E+02  0.84932493551E+02  0.93780315569E+02  0.00000000000E+00 0. -1.
         -2    1    3    3    0  502  0.12653122670E+02 -0.37697713646E+02  0.27530782656E+03  0.27816473265E+03  0.00000000000E+00 0.  1.
<mgrwt>
<rscale>  0 0.92574460E+02</rscale>
<asrwt>0</asrwt>
<pdfrwt beam="1">  1        2 0.56321934E-01 0.92574460E+02</pdfrwt>
<pdfrwt beam="2">  1       -2 0.90036399E-03 0.92574460E+02</pdfrwt>
<totfact> 0.18566583E+05</totfact>
</mgrwt>
</event>
<event>
 4    1  0.3862918E+001  0.4854754E+02  0.7546771E-02  0.1453337E+00
         -3   -1    0    0    0  501 -0.00000000000E+00  0.00000000000E+00  0.89935162513E+02  0.89935162513E+02  0.00000000000E+00 0.  1.
          3   -1    0    0  501    0  0.00000000000E+00 -0.00000000000E+00 -0.65515626394E+01  0.65515626394E+01  0.00000000000E+00 0. -1.
          2    1    1    2  502    0 -0.96459328091E+01  0.22226620517E+02  0.44605439857E+02  0.50761323310E+02  0.00000000000E+00 0. -1.
         -2    1    1    2    0  502  0.96459328091E+01 -0.22226620517E+02  0.38778160017E+02  0.45725401842E+02  0.00000000000E+00 0.  1.
<mgrwt>
<rscale>  0 0.48547538E+02</rscale>
<asrwt>0</asrwt>
<pdfrwt beam="2">  1        3 0.10079328E-02 0.48547538E+02</pdfrwt>
<pdfrwt beam="1">  1       -3 0.13836178E-01 0.48547538E+02</pdfrwt>
<totfact> 0.18123186E+05</totfact>
</mgrwt>
</event>
<event>
 5    1  0.3862918E+001  0.8741515E+02  0.7546771E-02  0.1309235E+00
         -1   -1    0    0    0  501 -0.00000000000E+00  0.00000000000E+00  0.14021648029E+03  0.14021648029E+03  0.00000000000E+00 0.  1.
          1   -1    0    0  501    0  0.00000000000E+00 -0.00000000000E+00 -0.13624306485E+02  0.13624306485E+02  0.00000000000E+00 0. -1.
         23    2    1    2    0    0  0.00000000000E+00  0.00000000000E+00  0.12659217380E+03  0.15384078677E+03  0.87415154333E+02 0.  0.
          2    1    3    3  502    0  0.15012555672E+02 -0.18751337416E+02 -0.96660798801E+00  0.24040046041E+02  0.00000000000E+00 0. -1.
         -2    1    3    3    0  502 -0.15012555672E+02  0.18751337416E+02  0.12755878179E+03  0.12980074073E+03  0.00000000000E+00 0.  1.
<mgrwt>
<rscale>  0 0.87415154E+02</rscale>
<asrwt>0</asrwt>
<pdfrwt beam="2">  1        1 0.20960472E-02 0.87415154E+02</pdfrwt>
<pdfrwt beam="1">  1       -1 0.21571765E-01 0.87415154E+02</pdfrwt>
<totfact> 0.84703934E+04</totfact>
</mgrwt>
</event>
<event>
 5    1  0.3862918E+001  0.9297152E+02  0.7546771E-02  0.1295811E+00
         -2   -1    0    0    0  501 -0.00000000000E+00  0.00000000000E+00  0.73025823696E+00  0.73025823696E+00  0.00000000000E+00 0.  1.
          2   -1    0    0  501    0  0.00000000000E+00 -0.00000000000E+00 -0.29591256421E+04  0.29591256421E+04  0.00000000000E+00 0. -1.
         23    2    1    2    0    0  0.00000000000E+00  0.00000000000E+00 -0.29583953839E+04  0.29598559003E+04  0.92971519819E+02 0.  0.
          2    1    3    3  502    0 -0.24576315164E+02 -0.33346781092E+02 -0.21507239011E+04  0.21511228002E+04  0.00000000000E+00 0. -1.
         -2    1    3    3    0  502  0.24576315164E+02  0.33346781092E+02 -0.80767148279E+03  0.80873310009E+03  0.00000000000E+00 0.  1.
<mgrwt>
<rscale>  0 0.92971520E+02</rscale>
<asrwt>0</asrwt>
<pdfrwt beam="2">  1        2 0.45524608E+00 0.92971520E+02</pdfrwt>
<pdfrwt beam="1">  1       -2 0.11234841E-03 0.92971520E+02</pdfrwt>
<totfact> 0.10014789E+05</totfact>
</mgrwt>
</event>
<event>
 5    1  0.3862918E+001  0.9311623E+02  0.7546771E-02  0.1295476E+00
          1   -1    0    0  501    0  0.00000000000E+00  0.00000000000E+00  0.55559403204E+03  0.55559403204E+03  0.00000000000E+00 0. -1.
         -1   -1    0    0    0  501 -0.00000000000E+00 -0.00000000000E+00 -0.39015146672E+01  0.39015146672E+01  0.00000000000E+00 0.  1.
         23    2    1    2    0    0  0.00000000000E+00  0.00000000000E+00  0.55169251737E+03  0.55949554670E+03  0.93116234138E+02 0.  0.
          2    1    3    3  502    0  0.29961737790E+02 -0.35086338668E+02  0.23837021879E+03  0.24279439470E+03  0.00000000000E+00 0. -1.
         -2    1    3    3    0  502 -0.29961737790E+02  0.35086338668E+02  0.31332229858E+03  0.31670115200E+03  0.00000000000E+00 0.  1.
<mgrwt>
<rscale>  0 0.93116234E+02</rscale>
<asrwt>0</asrwt>
<pdfrwt beam="1">  1        1 0.85475942E-01 0.93116234E+02</pdfrwt>
<pdfrwt beam="2">  1       -1 0.60023347E-03 0.93116234E+02</pdfrwt>
<totfact> 0.13314515E+05</totfact>
</mgrwt>
</event>
<event>
 5    1  0.3862918E+001  0.8702724E+02  0.7546771E-02  0.1310215E+00
         -2   -1    0    0    0  501 -0.00000000000E+00  0.00000000000E+00  0.40014323042E+01  0.40014323042E+01  0.00000000000E+00 0.  1.
          2   -1    0    0  501    0  0.00000000000E+00 -0.00000000000E+00 -0.47318936204E+03  0.47318936204E+03  0.00000000000E+00 0. -1.
         23    2    1    2    0    0  0.00000000000E+00  0.00000000000E+00 -0.46918792974E+03  0.47719079435E+03  0.87027241696E+02 0.  0.
          2    1    3    3  502    0 -0.76136217257E+01 -0.42698712040E+02 -0.25381499327E+03  0.25749407383E+03  0.00000000000E+00 0. -1.
         -2    1    3    3    0  502  0.76136217257E+01  0.42698712040E+02 -0.21537293647E+03  0.21969672052E+03  0.00000000000E+00 0.  1.
<mgrwt>
<rscale>  0 0.87027242E+02</rscale>
<asrwt>0</asrwt>
<pdfrwt beam="2">  1        2 0.72798313E-01 0.87027242E+02</pdfrwt>
<pdfrwt beam="1">  1       -2 0.61560540E-03 0.87027242E+02</pdfrwt>
<totfact> 0.23931465E+05</totfact>
</mgrwt>
</event>
<event>
 5    1  0.3862918E+001  0.9246683E+02  0.7546771E-02  0.1296986E+00
         -2   -1    0    0    0  501 -0.00000000000E+00  0.00000000000E+00  0.32316303488E+01  0.32316303488E+01  0.00000000000E+00 0.  1.
          2   -1    0    0  501    0  0.00000000000E+00 -0.00000000000E+00 -0.66143969132E+03  0.66143969132E+03  0.00000000000E+00 0. -1.
         23    2    1    2    0    0  0.00000000000E+00  0.00000000000E+00 -0.65820806097E+03  0.66467132166E+03  0.92466828221E+02 0.  0.
          2    1    3    3  502    0 -0.23162139608E-01  0.35362606791E+02 -0.54318902988E+03  0.54433889874E+03  0.00000000000E+00 0. -1.
         -2    1    3    3    0  502  0.23162139608E-01 -0.35362606791E+02 -0.11501903109E+03  0.12033242293E+03  0.00000000000E+00 0.  1.
<mgrwt>
<rscale>  0 0.92466828E+02</rscale>
<asrwt>0</asrwt>
<pdfrwt beam="2">  1        2 0.10175996E+00 0.92466828E+02</pdfrwt>
<pdfrwt beam="1">  1       -2 0.49717387E-03 0.92466828E+02</pdfrwt>
<totfact> 0.22537633E+05</totfact>
</mgrwt>
</event>
<event>
 5    1  0.3862918E+001  0.9800926E+02  0.7546771E-02  0.1284539E+00
          2   -1    0    0  501    0  0.00000000000E+00  0.00000000000E+00  0.96297923332E+01  0.96297923332E+01  0.00000000000E+00 0. -1.
         -2   -1    0    0    0  501 -0.00000000000E+00 -0.00000000000E+00 -0.24937752280E+03  0.24937752280E+03  0.00000000000E+00 0.  1.
         23    2    1    2    0    0  0.00000000000E+00  0.00000000000E+00 -0.23974773046E+03  0.25900731513E+03  0.98009259911E+02 0.  0.
          2    1    3    3  502    0  0.16731069442E+02 -0.43515037930E+02 -0.79973168413E+02  0.92569945861E+02  0.00000000000E+00 0.  1.
         -2    1    3    3    0  502 -0.16731069442E+02  0.43515037930E+02 -0.15977456205E+03  0.16643736927E+03  0.00000000000E+00 0. -1.
<mgrwt>
<rscale>  0 0.98009260E+02</rscale>
<asrwt>0</asrwt>
<pdfrwt beam="1">  1        2 0.14815066E-02 0.98009260E+02</pdfrwt>
<pdfrwt beam="2">  1       -2 0.38365770E-01 0.98009260E+02</pdfrwt>
<totfact> 0.46708901E+04</totfact>
</mgrwt>
</event>
<event>
 5    1  0.3862918E+001  0.9039636E+02  0.7546771E-02  0.1301895E+00
          3   -1    0    0  501    0  0.00000000000E+00  0.00000000000E+00  0.28786467042E+02  0.28786467042E+02  0.00000000000E+00 0. -1.
         -3   -1    0    0    0  501 -0.00000000000E+00 -0.00000000000E+00 -0.70966516138E+02  0.70966516138E+02  0.00000000000E+00 0.  1.
         23    2    1    2    0    0  0.00000000000E+00  0.00000000000E+00 -0.42180049096E+02  0.99752983179E+02  0.90396355631E+02 0.  0.
          2    1    3    3  502    0  0.34018589107E+02  0.11161892992E+02  0.93520234706E+01  0.37004224124E+02  0.00000000000E+00 0. -1.
         -2    1    3    3    0  502 -0.34018589107E+02 -0.11161892992E+02 -0.51532072567E+02  0.62748759056E+02  0.00000000000E+00 0.  1.
<mgrwt>
<rscale>  0 0.90396356E+02</rscale>
<asrwt>0</asrwt>
<pdfrwt beam="1">  1        3 0.44286872E-02 0.90396356E+02</pdfrwt>
<pdfrwt beam="2">  1       -3 0.10917926E-01 0.90396356E+02</pdfrwt>
<totfact> 0.35510750E+04</totfact>
</mgrwt>
</event>
<event>
 5    1  0.3862918E+001  0.9296841E+02  0.7546771E-02  0.1295818E+00
         -4   -1    0    0    0  501 -0.00000000000E+00  0.00000000000E+00  0.25824962188E+02  0.25824962188E+02  0.00000000000E+00 0.  1.
          4   -1    0    0  501    0  0.00000000000E+00 -0.00000000000E+00 -0.83670265541E+02  0.83670265541E+02  0.00000000000E+00 0. -1.
         23    2    1    2    0    0  0.00000000000E+00  0.00000000000E+00 -0.57845303352E+02  0.10949522773E+03  0.92968412784E+02 0.  0.
          2    1    3    3  502    0  0.81121491004E+01 -0.35668537980E+02 -0.62704889087E+02  0.72594453507E+02  0.00000000000E+00 0. -1.
         -2    1    3    3    0  502 -0.81121491004E+01  0.35668537980E+02  0.48595857347E+01  0.36900774222E+02  0.00000000000E+00 0.  1.
<mgrwt>
<rscale>  0 0.92968413E+02</rscale>
<asrwt>0</asrwt>
<pdfrwt beam="2">  1        4 0.12872348E-01 0.92968413E+02</pdfrwt>
<pdfrwt beam="1">  1       -4 0.39730712E-02 0.92968413E+02</pdfrwt>
<totfact> 0.24551177E+04</totfact>
</mgrwt>
</event>
<event>
 5    1  0.3862918E+001  0.9132754E+02  0.7546771E-02  0.1299668E+00
         -1   -1    0    0    0  501 -0.00000000000E+00  0.00000000000E+00  0.58448201591E+01  0.58448201591E+01  0.00000000000E+00 0.  1.
          1   -1    0    0  501    0  0.00000000000E+00 -0.00000000000E+00 -0.35675686494E+03  0.35675686494E+03  0.00000000000E+00 0. -1.
         23    2    1    2    0    0  0.00000000000E+00  0.00000000000E+00 -0.35091204478E+03  0.36260168510E+03  0.91327536178E+02 0.  0.
          2    1    3    3  502    0  0.13357944123E+02  0.15883136633E+02 -0.13961551402E+02  0.25012669151E+02  0.00000000000E+00 0.  1.
         -2    1    3    3    0  502 -0.13357944123E+02 -0.15883136633E+02 -0.33695049338E+03  0.33758901594E+03  0.00000000000E+00 0. -1.
<mgrwt>
<rscale>  0 0.91327536E+02</rscale>
<asrwt>0</asrwt>
<pdfrwt beam="2">  1        1 0.54885652E-01 0.91327536E+02</pdfrwt>
<pdfrwt beam="1">  1       -1 0.89920342E-03 0.91327536E+02</pdfrwt>
<totfact> 0.13170103E+05</totfact>
</mgrwt>
</event>
<event>
 5    1  0.3862918E+001  0.9226181E+02  0.7546771E-02  0.1297465E+00
         -4   -1    0    0    0  501 -0.00000000000E+00  0.00000000000E+00  0.33361215754E+02  0.33361215754E+02  0.00000000000E+00 0.  1.
          4   -1    0    0  501    0  0.00000000000E+00 -0.00000000000E+00 -0.63788460939E+02  0.63788460939E+02  0.00000000000E+00 0. -1.
         23    2    1    2    0    0  0.00000000000E+00  0.00000000000E+00 -0.30427245186E+02  0.97149676693E+02  0.92261814593E+02 0.  0.
          2    1    3    3  502    0  0.30038632056E+02 -0.27266921794E+02 -0.38337372473E+02  0.55817188822E+02  0.00000000000E+00 0. -1.
         -2    1    3    3    0  502 -0.30038632056E+02  0.27266921794E+02  0.79101272871E+01  0.41332487871E+02  0.00000000000E+00 0.  1.
<mgrwt>
<rscale>  0 0.92261815E+02</rscale>
<asrwt>0</asrwt>
<pdfrwt beam="2">  1        4 0.98136093E-02 0.92261815E+02</pdfrwt>
<pdfrwt beam="1">  1       -4 0.51324947E-02 0.92261815E+02</pdfrwt>
<totfact> 0.25792855E+04</totfact>
</mgrwt>
</event>
<event>
 5    1  0.3862918E+001  0.9012064E+02  0.7546771E-02  0.1302560E+00
         -1   -1    0    0    0  501 -0.00000000000E+00  0.00000000000E+00  0.73919440629E+01  0.73919440629E+01  0.00000000000E+00 0.  1.
          1   -1    0    0  501    0  0.00000000000E+00 -0.00000000000E+00 -0.27468176291E+03  0.27468176291E+03  0.00000000000E+00 0. -1.
         23    2    1    2    0    0  0.00000000000E+00  0.00000000000E+00 -0.26728981884E+03  0.28207370697E+03  0.90120635295E+02 0.  0.
          2    1    3    3  502    0 -0.34165997839E+01 -0.37675702489E+02 -0.21026818022E+03  0.21364418861E+03  0.00000000000E+00 0. -1.
         -2    1    3    3    0  502  0.34165997839E+01  0.37675702489E+02 -0.57021638624E+02  0.68429518364E+02  0.00000000000E+00 0.  1.
<mgrwt>
<rscale>  0 0.90120635E+02</rscale>
<asrwt>0</asrwt>
<pdfrwt beam="2">  1        1 0.42258736E-01 0.90120635E+02</pdfrwt>
<pdfrwt beam="1">  1       -1 0.11372221E-02 0.90120635E+02</pdfrwt>
<totfact> 0.12993580E+05</totfact>
</mgrwt>
</event>
<event>
 5    1  0.3862918E+001  0.1003492E+03  0.7546771E-02  0.1279563E+00
         -1   -1    0    0    0  501 -0.00000000000E+00  0.00000000000E+00  0.33958258923E+01  0.33958258923E+01  0.00000000000E+00 0.  1.
          1   -1    0    0  501    0  0.00000000000E+00 -0.00000000000E+00 -0.74134801398E+03  0.74134801398E+03  0.00000000000E+00 0. -1.
         23    2    1    2    0    0  0.00000000000E+00  0.00000000000E+00 -0.73795218809E+03  0.74474383987E+03  0.10034916604E+03 0.  0.
          2    1    3    3  502    0  0.16391216883E+02 -0.43910905172E+02 -0.50187096828E+03  0.50405486645E+03  0.00000000000E+00 0. -1.
         -2    1    3    3    0  502 -0.16391216883E+02  0.43910905172E+02 -0.23608121981E+03  0.24068897343E+03  0.00000000000E+00 0.  1.
<mgrwt>
<rscale>  0 0.10034917E+03</rscale>
<asrwt>0</asrwt>
<pdfrwt beam="2">  1        1 0.11405354E+00 0.10034917E+03</pdfrwt>
<pdfrwt beam="1">  1       -1 0.52243475E-03 0.10034917E+03</pdfrwt>
<totfact> 0.11005792E+05</totfact>
</mgrwt>
</event>
<event>
 5    1  0.3862918E+001  0.1043576E+03  0.7546771E-02  0.1271391E+00
         -1   -1    0    0    0  501 -0.00000000000E+00  0.00000000000E+00  0.10772254319E+03  0.10772254319E+03  0.00000000000E+00 0.  1.
          1   -1    0    0  501    0  0.00000000000E+00 -0.00000000000E+00 -0.25274431602E+02  0.25274431602E+02  0.00000000000E+00 0. -1.
         23    2    1    2    0    0  0.00000000000E+00  0.00000000000E+00  0.82448111586E+02  0.13299697479E+03  0.10435757854E+03 0.  0.
          2    1    3    3  502    0  0.20617156699E+02 -0.30959268422E+02 -0.54119612296E+01  0.37587667870E+02  0.00000000000E+00 0. -1.
         -2    1    3    3    0  502 -0.20617156699E+02  0.30959268422E+02  0.87860072815E+02  0.95409306919E+02  0.00000000000E+00 0.  1.
<mgrwt>
<rscale>  0 0.10435758E+03</rscale>
<asrwt>0</asrwt>
<pdfrwt beam="2">  1        1 0.38883741E-02 0.10435758E+03</pdfrwt>
<pdfrwt beam="1">  1       -1 0.16572699E-01 0.10435758E+03</pdfrwt>
<totfact> 0.56584408E+04</totfact>
</mgrwt>
</event>
<event>
 5    1  0.3862918E+001  0.9047936E+02  0.7546771E-02  0.1301695E+00
         -1   -1    0    0    0  501 -0.00000000000E+00  0.00000000000E+00  0.96392686573E+01  0.96392686573E+01  0.00000000000E+00 0.  1.
          1   -1    0    0  501    0  0.00000000000E+00 -0.00000000000E+00 -0.21232198474E+03  0.21232198474E+03  0.00000000000E+00 0. -1.
         23    2    1    2    0    0  0.00000000000E+00  0.00000000000E+00 -0.20268271609E+03  0.22196125340E+03  0.90479360139E+02 0.  0.
          2    1    3    3  502    0  0.27988663394E+02  0.26838211242E+02 -0.15850463031E+03  0.16317895909E+03  0.00000000000E+00 0. -1.
         -2    1    3    3    0  502 -0.27988663394E+02 -0.26838211242E+02 -0.44178085780E+02  0.58782294310E+02  0.00000000000E+00 0.  1.
<mgrwt>
<rscale>  0 0.90479360E+02</rscale>
<asrwt>0</asrwt>
<pdfrwt beam="2">  1        1 0.32664920E-01 0.90479360E+02</pdfrwt>
<pdfrwt beam="1">  1       -1 0.14829644E-02 0.90479360E+02</pdfrwt>
<totfact> 0.12227818E+05</totfact>
</mgrwt>
</event>
<event>
 5    1  0.3862918E+001  0.8637874E+02  0.7546771E-02  0.1311866E+00
          2   -1    0    0  501    0  0.00000000000E+00  0.00000000000E+00  0.17461078623E+03  0.17461078623E+03  0.00000000000E+00 0. -1.
         -2   -1    0    0    0  501 -0.00000000000E+00 -0.00000000000E+00 -0.10682739067E+02  0.10682739067E+02  0.00000000000E+00 0.  1.
         23    2    1    2    0    0  0.00000000000E+00  0.00000000000E+00  0.16392804717E+03  0.18529352530E+03  0.86378735060E+02 0.  0.
          2    1    3    3  502    0  0.29355928445E+02  0.15567423017E+02  0.14114806032E+03  0.14500651753E+03  0.00000000000E+00 0. -1.
         -2    1    3    3    0  502 -0.29355928445E+02 -0.15567423017E+02  0.22779986845E+02  0.40287007769E+02  0.00000000000E+00 0.  1.
<mgrwt>
<rscale>  0 0.86378735E+02</rscale>
<asrwt>0</asrwt>
<pdfrwt beam="1">  1        2 0.26863196E-01 0.86378735E+02</pdfrwt>
<pdfrwt beam="2">  1       -2 0.16434985E-02 0.86378735E+02</pdfrwt>
<totfact> 0.17043016E+05</totfact>
</mgrwt>
</event>
<event>
 5    1  0.3862918E+001  0.9368683E+02  0.7546771E-02  0.1294161E+00
          1   -1    0    0  501    0  0.00000000000E+00  0.00000000000E+00  0.10252490209E+02  0.10252490209E+02  0.00000000000E+00 0. -1.
         -1   -1    0    0    0  501 -0.00000000000E+00 -0.00000000000E+00 -0.21402661201E+03  0.21402661201E+03  0.00000000000E+00 0.  1.
         23    2    1    2    0    0  0.00000000000E+00  0.00000000000E+00 -0.20377412180E+03  0.22427910222E+03  0.93686834595E+02 0.  0.
          2    1    3    3  502    0  0.24375852194E+02  0.25354936305E+02 -0.17595378003E+03  0.17943463343E+03  0.00000000000E+00 0.  1.
         -2    1    3    3    0  502 -0.24375852194E+02 -0.25354936305E+02 -0.27820341769E+02  0.44844468793E+02  0.00000000000E+00 0. -1.
<mgrwt>
<rscale>  0 0.93686835E+02</rscale>
<asrwt>0</asrwt>
<pdfrwt beam="1">  1        1 0.15773061E-02 0.93686835E+02</pdfrwt>
<pdfrwt beam="2">  1       -1 0.32927172E-01 0.93686835E+02</pdfrwt>
<totfact> 0.63398482E+04</totfact>
</mgrwt>
</event>
<event>
 5    1  0.3862918E+001  0.9186939E+02  0.7546771E-02  0.1298387E+00
         -1   -1    0    0    0  501 -0.00000000000E+00  0.00000000000E+00  0.54140113316E+02  0.54140113316E+02  0.00000000000E+00 0.  1.
          1   -1    0    0  501    0  0.00000000000E+00 -0.00000000000E+00 -0.38972879824E+02  0.38972879824E+02  0.00000000000E+00 0. -1.
         23    2    1    2    0    0  0.00000000000E+00  0.00000000000E+00  0.15167233493E+02  0.93112993140E+02  0.91869388371E+02 0.  0.
          2    1    3    3  502    0 -0.13312491448E+01  0.27981859605E+02  0.44480241405E+02  0.52566610759E+02  0.00000000000E+00 0. -1.
         -2    1    3    3    0  502  0.13312491448E+01 -0.27981859605E+02 -0.29313007913E+02  0.40546382380E+02  0.00000000000E+00 0.  1.
<mgrwt>
<rscale>  0 0.91869388E+02</rscale>
<asrwt>0</asrwt>
<pdfrwt beam="2">  1        1 0.59958277E-02 0.91869388E+02</pdfrwt>
<pdfrwt beam="1">  1       -1 0.83292482E-02 0.91869388E+02</pdfrwt>
<totfact> 0.88389933E+04</totfact>
</mgrwt>
</event>
<event>
 5    1  0.3862918E+001  0.9128423E+02  0.7546771E-02  0.1299771E+00
          1   -1    0    0  501    0  0.00000000000E+00  0.00000000000E+00  0.76561598714E+03  0.76561598714E+03  0.00000000000E+00 0. -1.
         -1   -1    0    0    0  501 -0.00000000000E+00 -0.00000000000E+00 -0.27209496009E+01  0.27209496009E+01  0.00000000000E+00 0.  1.
         23    2    1    2    0    0  0.00000000000E+00  0.00000000000E+00  0.76289503753E+03  0.76833693674E+03  0.91284226778E+02 0.  0.
          2    1    3    3  502    0 -0.39026698904E+02  0.35523452529E+01  0.18450110182E+03  0.18861696359E+03  0.00000000000E+00 0. -1.
         -2    1    3    3    0  502  0.39026698904E+02 -0.35523452529E+01  0.57839393572E+03  0.57971997314E+03  0.00000000000E+00 0.  1.
<mgrwt>
<rscale>  0 0.91284227E+02</rscale>
<asrwt>0</asrwt>
<pdfrwt beam="1">  1        1 0.11778690E+00 0.91284227E+02</pdfrwt>
<pdfrwt beam="2">  1       -1 0.41860824E-03 0.91284227E+02</pdfrwt>
<totfact> 0.14131314E+05</totfact>
</mgrwt>
</event>
<event>
 5    1  0.3862918E+001  0.9188223E+02  0.7546771E-02  0.1298357E+00
         -1   -1    0    0    0  501 -0.00000000000E+00  0.00000000000E+00  0.35697400962E+01  0.35697400962E+01  0.00000000000E+00 0.  1.
          1   -1    0    0  501    0  0.00000000000E+00 -0.00000000000E+00 -0.59124357520E+03  0.59124357520E+03  0.00000000000E+00 0. -1.
         23    2    1    2    0    0  0.00000000000E+00  0.00000000000E+00 -0.58767383510E+03  0.59481331529E+03  0.91882226725E+02 0.  0.
          2    1    3    3  502    0  0.32257065306E+02  0.14681172569E+02 -0.48307695809E+03  0.48437527035E+03  0.00000000000E+00 0. -1.
         -2    1    3    3    0  502 -0.32257065306E+02 -0.14681172569E+02 -0.10459687701E+03  0.11043804494E+03  0.00000000000E+00 0.  1.
<mgrwt>
<rscale>  0 0.91882227E+02</rscale>
<asrwt>0</asrwt>
<pdfrwt beam="2">  1        1 0.90960494E-01 0.91882227E+02</pdfrwt>
<pdfrwt beam="1">  1       -1 0.54919113E-03 0.91882227E+02</pdfrwt>
<totfact> 0.13859892E+05</totfact>
</mgrwt>
</event>
<event>
 5    1  0.3862918E+001  0.9055604E+02  0.7546771E-02  0.1301511E+00
          3   -1    0    0  501    0  0.00000000000E+00  0.00000000000E+00  0.92639824363E+02  0.92639824363E+02  0.00000000000E+00 0. -1.
         -3   -1    0    0    0  501 -0.00000000000E+00 -0.00000000000E+00 -0.22129782655E+02  0.22129782655E+02  0.00000000000E+00 0.  1.
         23    2    1    2    0    0  0.00000000000E+00  0.00000000000E+00  0.70510041708E+02  0.11476960702E+03  0.90556041838E+02 0.  0.
          2    1    3    3  502    0 -0.22269600530E+02 -0.33146374618E+02  0.62303635992E+02  0.74002434527E+02  0.00000000000E+00 0. -1.
         -2    1    3    3    0  502  0.22269600530E+02  0.33146374618E+02  0.82064057158E+01  0.40767172491E+02  0.00000000000E+00 0.  1.
<mgrwt>
<rscale>  0 0.90556042E+02</rscale>
<asrwt>0</asrwt>
<pdfrwt beam="1">  1        3 0.14252280E-01 0.90556042E+02</pdfrwt>
<pdfrwt beam="2">  1       -3 0.34045820E-02 0.90556042E+02</pdfrwt>
<totfact> 0.34236736E+04</totfact>
</mgrwt>
</event>
<event>
 5    1  0.3862918E+001  0.8773223E+02  0.7546771E-02  0.1308438E+00
         -2   -1    0    0    0  501 -0.00000000000E+00  0.00000000000E+00  0.59812914468E+01  0.59812914468E+01  0.00000000000E+00 0.  1.
          2   -1    0    0  501    0  0.00000000000E+00 -0.00000000000E+00 -0.32170912428E+03  0.32170912428E+03  0.00000000000E+00 0. -1.
         23    2    1    2    0    0  0.00000000000E+00  0.00000000000E+00 -0.31572783283E+03  0.32769041572E+03  0.87732229731E+02 0.  0.
          2    1    3    3  502    0  0.18115596115E+02 -0.22147173290E+02 -0.28205674023E+03  0.28350428007E+03  0.00000000000E+00 0. -1.
         -2    1    3    3    0  502 -0.18115596115E+02  0.22147173290E+02 -0.33671092600E+02  0.44186135656E+02  0.00000000000E+00 0.  1.
<mgrwt>
<rscale>  0 0.87732230E+02</rscale>
<asrwt>0</asrwt>
<pdfrwt beam="2">  1        2 0.49493733E-01 0.87732230E+02</pdfrwt>
<pdfrwt beam="1">  1       -2 0.92019828E-03 0.87732230E+02</pdfrwt>
<totfact> 0.20425449E+05</totfact>
</mgrwt>
</event>
<event>
 5    1  0.3862918E+001  0.8784601E+02  0.7546771E-02  0.1308153E+00
          1   -1    0    0  501    0  0.00000000000E+00  0.00000000000E+00  0.14449569417E+03  0.14449569417E+03  0.00000000000E+00 0. -1.
         -1   -1    0    0    0  501 -0.00000000000E+00 -0.00000000000E+00 -0.13351473315E+02  0.13351473315E+02  0.00000000000E+00 0.  1.
         23    2    1    2    0    0  0.00000000000E+00  0.00000000000E+00  0.13114422086E+03  0.15784716749E+03  0.87846010836E+02 0.  0.
          2    1    3    3  502    0  0.30167019907E+02 -0.22960703353E+02  0.25716290693E+02  0.45810158213E+02  0.00000000000E+00 0.  1.
         -2    1    3    3    0  502 -0.30167019907E+02  0.22960703353E+02  0.10542793016E+03  0.11203700928E+03  0.00000000000E+00 0. -1.
<mgrwt>
<rscale>  0 0.87846011E+02</rscale>
<asrwt>0</asrwt>
<pdfrwt beam="1">  1        1 0.22230106E-01 0.87846011E+02</pdfrwt>
<pdfrwt beam="2">  1       -1 0.20540729E-02 0.87846011E+02</pdfrwt>
<totfact> 0.12310376E+05</totfact>
</mgrwt>
</event>
<event>
 5    1  0.3862918E+001  0.9224842E+02  0.7546771E-02  0.1297496E+00
          3   -1    0    0  501    0  0.00000000000E+00  0.00000000000E+00  0.48974684338E+02  0.48974684338E+02  0.00000000000E+00 0. -1.
         -3   -1    0    0    0  501 -0.00000000000E+00 -0.00000000000E+00 -0.43439640776E+02  0.43439640776E+02  0.00000000000E+00 0.  1.
         23    2    1    2    0    0  0.00000000000E+00  0.00000000000E+00  0.55350435616E+01  0.92414325114E+02  0.92248418844E+02 0.  0.
          2    1    3    3  502    0 -0.40229229453E+02  0.18344440487E+01  0.25295441575E+02  0.47556444903E+02  0.00000000000E+00 0. -1.
         -2    1    3    3    0  502  0.40229229453E+02 -0.18344440487E+01 -0.19760398014E+02  0.44857880211E+02  0.00000000000E+00 0.  1.
<mgrwt>
<rscale>  0 0.92248419E+02</rscale>
<asrwt>0</asrwt>
<pdfrwt beam="1">  1        3 0.75345668E-02 0.92248419E+02</pdfrwt>
<pdfrwt beam="2">  1       -3 0.66830217E-02 0.92248419E+02</pdfrwt>
<totfact> 0.34136797E+04</totfact>
</mgrwt>
</event>
<event>
 5    1  0.3862918E+001  0.9129521E+02  0.7546771E-02  0.1299745E+00
          2   -1    0    0  501    0  0.00000000000E+00  0.00000000000E+00  0.30157376431E+03  0.30157376431E+03  0.00000000000E+00 0.  1.
         -2   -1    0    0    0  501 -0.00000000000E+00 -0.00000000000E+00 -0.69094328726E+01  0.69094328726E+01  0.00000000000E+00 0. -1.
         23    2    1    2    0    0  0.00000000000E+00  0.00000000000E+00  0.29466433144E+03  0.30848319719E+03  0.91295206461E+02 0.  0.
          2    1    3    3  502    0 -0.23483290185E+02  0.19693533114E+02  0.33025085907E+02  0.45055038160E+02  0.00000000000E+00 0. -1.
         -2    1    3    3    0  502  0.23483290185E+02 -0.19693533114E+02  0.26163924553E+03  0.26342815903E+03  0.00000000000E+00 0.  1.
<mgrwt>
<rscale>  0 0.91295206E+02</rscale>
<asrwt>0</asrwt>
<pdfrwt beam="1">  1        2 0.46395953E-01 0.91295206E+02</pdfrwt>
<pdfrwt beam="2">  1       -2 0.10629899E-02 0.91295206E+02</pdfrwt>
<totfact> 0.17938803E+05</totfact>
</mgrwt>
</event>
<event>
 5    1  0.3862918E+001  0.8881724E+02  0.7546771E-02  0.1305741E+00
         -2   -1    0    0    0  501 -0.00000000000E+00  0.00000000000E+00  0.14470799370E+01  0.14470799370E+01  0.00000000000E+00 0. -1.
          2   -1    0    0  501    0  0.00000000000E+00 -0.00000000000E+00 -0.13628310420E+04  0.13628310420E+04  0.00000000000E+00 0.  1.
         23    2    1    2    0    0  0.00000000000E+00  0.00000000000E+00 -0.13613839621E+04  0.13642781219E+04  0.88817238381E+02 0.  0.
          2    1    3    3  502    0  0.38159824244E+02 -0.40749654081E+01 -0.33744456561E+03  0.33961980565E+03  0.00000000000E+00 0. -1.
         -2    1    3    3    0  502 -0.38159824244E+02  0.40749654081E+01 -0.10239393965E+04  0.10246583163E+04  0.00000000000E+00 0.  1.
<mgrwt>
<rscale>  0 0.88817238E+02</rscale>
<asrwt>0</asrwt>
<pdfrwt beam="2">  1        2 0.20966528E+00 0.88817238E+02</pdfrwt>
<pdfrwt beam="1">  1       -2 0.22262878E-03 0.88817238E+02</pdfrwt>
<totfact> 0.26050202E+05</totfact>
</mgrwt>
</event>
<event>
 5    1  0.3862918E+001  0.9121040E+02  0.7546771E-02  0.1299947E+00
          3   -1    0    0  501    0  0.00000000000E+00  0.00000000000E+00  0.66448452824E+01  0.66448452824E+01  0.00000000000E+00 0. -1.
         -3   -1    0    0    0  501 -0.00000000000E+00 -0.00000000000E+00 -0.31299965996E+03  0.31299965996E+03  0.00000000000E+00 0.  1.
         23    2    1    2    0    0  0.00000000000E+00  0.00000000000E+00 -0.30635481468E+03  0.31964450524E+03  0.91210401027E+02 0.  0.
          2    1    3    3  502    0  0.95865335056E+01  0.22415073790E+02 -0.28824737329E+03  0.28927648603E+03  0.00000000000E+00 0.  1.
         -2    1    3    3    0  502 -0.95865335056E+01 -0.22415073790E+02 -0.18107441387E+02  0.30368019218E+02  0.00000000000E+00 0. -1.
<mgrwt>
<rscale>  0 0.91210401E+02</rscale>
<asrwt>0</asrwt>
<pdfrwt beam="1">  1        3 0.10222841E-02 0.91210401E+02</pdfrwt>
<pdfrwt beam="2">  1       -3 0.48153784E-01 0.91210401E+02</pdfrwt>
<totfact> 0.23258524E+04</totfact>
</mgrwt>
</event>
<event>
 5    1  0.3862918E+001  0.8991909E+02  0.7546771E-02  0.1303048E+00
         -4   -1    0    0    0  501 -0.00000000000E+00  0.00000000000E+00  0.58453192863E+02  0.58453192863E+02  0.00000000000E+00 0.  1.
          4   -1    0    0  501    0  0.00000000000E+00 -0.00000000000E+00 -0.34580844947E+02  0.34580844947E+02  0.00000000000E+00 0. -1.
         23    2    1    2    0    0  0.00000000000E+00  0.00000000000E+00  0.23872347915E+02  0.93034037810E+02  0.89919092501E+02 0.  0.
          2    1    3    3  502    0  0.17005049827E+02  0.40135361739E+02  0.53905180443E+00  0.43592540169E+02  0.00000000000E+00 0. -1.
         -2    1    3    3    0  502 -0.17005049827E+02 -0.40135361739E+02  0.23333296111E+02  0.49441497641E+02  0.00000000000E+00 0.  1.
<mgrwt>
<rscale>  0 0.89919093E+02</rscale>
<asrwt>0</asrwt>
<pdfrwt beam="2">  1        4 0.53201300E-02 0.89919093E+02</pdfrwt>
<pdfrwt beam="1">  1       -4 0.89927989E-02 0.89919093E+02</pdfrwt>
<totfact> 0.27927662E+04</totfact>
</mgrwt>
</event>
<event>
 5    1  0.3862918E+001  0.8999027E+02  0.7546771E-02  0.1302875E+00
         -1   -1    0    0    0  501 -0.00000000000E+00  0.00000000000E+00  0.74550682118E+03  0.74550682118E+03  0.00000000000E+00 0.  1.
          1   -1    0    0  501    0  0.00000000000E+00 -0.00000000000E+00 -0.27156854117E+01  0.27156854117E+01  0.00000000000E+00 0. -1.
         23    2    1    2    0    0  0.00000000000E+00  0.00000000000E+00  0.74279113576E+03  0.74822250659E+03  0.89990266110E+02 0.  0.
          2    1    3    3  502    0 -0.22927649746E+02 -0.20259639878E+02  0.64570191452E+03  0.64642640149E+03  0.00000000000E+00 0.  1.
         -2    1    3    3    0  502  0.22927649746E+02  0.20259639878E+02  0.97089221242E+02  0.10179610509E+03  0.00000000000E+00 0. -1.
<mgrwt>
<rscale>  0 0.89990266E+02</rscale>
<asrwt>0</asrwt>
<pdfrwt beam="2">  1        1 0.41779835E-03 0.89990266E+02</pdfrwt>
<pdfrwt beam="1">  1       -1 0.11469319E+00 0.89990266E+02</pdfrwt>
<totfact> 0.36094052E+04</totfact>
</mgrwt>
</event>
<event>
 5    1  0.3862918E+001  0.9226217E+02  0.7546771E-02  0.1297464E+00
         -2   -1    0    0    0  501 -0.00000000000E+00  0.00000000000E+00  0.22931216424E+01  0.22931216424E+01  0.00000000000E+00 0.  1.
          2   -1    0    0  501    0  0.00000000000E+00 -0.00000000000E+00 -0.92802614868E+03  0.92802614868E+03  0.00000000000E+00 0. -1.
         23    2    1    2    0    0  0.00000000000E+00  0.00000000000E+00 -0.92573302704E+03  0.93031927033E+03  0.92262166597E+02 0.  0.
          2    1    3    3  502    0  0.42191852520E+02 -0.15140719029E+02 -0.57271718740E+03  0.57446877247E+03  0.00000000000E+00 0. -1.
         -2    1    3    3    0  502 -0.42191852520E+02  0.15140719029E+02 -0.35301583964E+03  0.35585049786E+03  0.00000000000E+00 0.  1.
<mgrwt>
<rscale>  0 0.92262167E+02</rscale>
<asrwt>0</asrwt>
<pdfrwt beam="2">  1        2 0.14277317E+00 0.92262167E+02</pdfrwt>
<pdfrwt beam="1">  1       -2 0.35278815E-03 0.92262167E+02</pdfrwt>
<totfact> 0.24109011E+05</totfact>
</mgrwt>
</event>
<event>
 5    1  0.3862918E+001  0.9196107E+02  0.7546771E-02  0.1298171E+00
          1   -1    0    0  501    0  0.00000000000E+00  0.00000000000E+00  0.34916202676E+01  0.34916202676E+01  0.00000000000E+00 0. -1.
         -1   -1    0    0    0  501 -0.00000000000E+00 -0.00000000000E+00 -0.60550955207E+03  0.60550955207E+03  0.00000000000E+00 0.  1.
         23    2    1    2    0    0  0.00000000000E+00  0.00000000000E+00 -0.60201793181E+03  0.60900117234E+03  0.91961066202E+02 0.  0.
          2    1    3    3  502    0 -0.30189496517E+02 -0.18014095130E+02 -0.10474769438E+03  0.11048978596E+03  0.00000000000E+00 0. -1.
         -2    1    3    3    0  502  0.30189496517E+02  0.18014095130E+02 -0.49727023742E+03  0.49851138638E+03  0.00000000000E+00 0.  1.
<mgrwt>
<rscale>  0 0.91961066E+02</rscale>
<asrwt>0</asrwt>
<pdfrwt beam="1">  1        1 0.53717246E-03 0.91961066E+02</pdfrwt>
<pdfrwt beam="2">  1       -1 0.93155297E-01 0.91961066E+02</pdfrwt>
<totfact> 0.40417594E+04</totfact>
</mgrwt>
</event>
<event>
 5    1  0.3862918E+001  0.8729072E+02  0.7546771E-02  0.1309548E+00
         -2   -1    0    0    0  501 -0.00000000000E+00  0.00000000000E+00  0.78487994169E+00  0.78487994169E+00  0.00000000000E+00 0. -1.
          2   -1    0    0  501    0  0.00000000000E+00 -0.00000000000E+00 -0.24270177150E+04  0.24270177150E+04  0.00000000000E+00 0.  1.
         23    2    1    2    0    0  0.00000000000E+00  0.00000000000E+00 -0.24262328351E+04  0.24278025950E+04  0.87290721676E+02 0.  0.
          2    1    3    3  502    0 -0.29508794378E+02 -0.16329018675E+02 -0.44258953191E+03  0.44387261636E+03  0.00000000000E+00 0. -1.
         -2    1    3    3    0  502  0.29508794378E+02  0.16329018675E+02 -0.19836433032E+04  0.19839299786E+04  0.00000000000E+00 0.  1.
<mgrwt>
<rscale>  0 0.87290722E+02</rscale>
<asrwt>0</asrwt>
<pdfrwt beam="2">  1        2 0.37338891E+00 0.87290722E+02</pdfrwt>
<pdfrwt beam="1">  1       -2 0.12075025E-03 0.87290722E+02</pdfrwt>
<totfact> 0.17474189E+05</totfact>
</mgrwt>
</event>
<event>
 5    1  0.3862918E+001  0.9033071E+02  0.7546771E-02  0.1302053E+00
         -3   -1    0    0    0  501 -0.00000000000E+00  0.00000000000E+00  0.16710165854E+03  0.16710165854E+03  0.00000000000E+00 0.  1.
          3   -1    0    0  501    0  0.00000000000E+00 -0.00000000000E+00 -0.12207593957E+02  0.12207593957E+02  0.00000000000E+00 0. -1.
         23    2    1    2    0    0  0.00000000000E+00  0.00000000000E+00  0.15489406458E+03  0.17930925249E+03  0.90330707890E+02 0.  0.
          2    1    3    3  502    0 -0.30922439593E+02 -0.21628920718E+02  0.28183789846E+02  0.47099187805E+02  0.00000000000E+00 0. -1.
         -2    1    3    3    0  502  0.30922439593E+02  0.21628920718E+02  0.12671027473E+03  0.13221006469E+03  0.00000000000E+00 0.  1.
<mgrwt>
<rscale>  0 0.90330708E+02</rscale>
<asrwt>0</asrwt>
<pdfrwt beam="2">  1        3 0.18780915E-02 0.90330708E+02</pdfrwt>
<pdfrwt beam="1">  1       -3 0.25707946E-01 0.90330708E+02</pdfrwt>
<totfact> 0.30357960E+04</totfact>
</mgrwt>
</event>
<event>
 5    1  0.3862918E+001  0.9249061E+02  0.7546771E-02  0.1296930E+00
          3   -1    0    0  501    0  0.00000000000E+00  0.00000000000E+00  0.74219365565E+01  0.74219365565E+01  0.00000000000E+00 0. -1.
         -3   -1    0    0    0  501 -0.00000000000E+00 -0.00000000000E+00 -0.28814963041E+03  0.28814963041E+03  0.00000000000E+00 0.  1.
         23    2    1    2    0    0  0.00000000000E+00  0.00000000000E+00 -0.28072769386E+03  0.29557156697E+03  0.92490610890E+02 0.  0.
          2    1    3    3  502    0  0.17656176702E+02 -0.13279582642E+02 -0.10532942179E+02  0.24475104940E+02  0.00000000000E+00 0. -1.
         -2    1    3    3    0  502 -0.17656176702E+02  0.13279582642E+02 -0.27019475168E+03  0.27109646203E+03  0.00000000000E+00 0.  1.
<mgrwt>
<rscale>  0 0.92490611E+02</rscale>
<asrwt>0</asrwt>
<pdfrwt beam="1">  1        3 0.11418364E-02 0.92490611E+02</pdfrwt>
<pdfrwt beam="2">  1       -3 0.44330711E-01 0.92490611E+02</pdfrwt>
<totfact> 0.23282575E+04</totfact>
</mgrwt>
</event>
<event>
 5    1  0.3862918E+001  0.8907863E+02  0.7546771E-02  0.1305098E+00
         -2   -1    0    0    0  501 -0.00000000000E+00  0.00000000000E+00  0.43166111896E+01  0.43166111896E+01  0.00000000000E+00 0.  1.
          2   -1    0    0  501    0  0.00000000000E+00 -0.00000000000E+00 -0.45956200820E+03  0.45956200820E+03  0.00000000000E+00 0. -1.
         23    2    1    2    0    0  0.00000000000E+00  0.00000000000E+00 -0.45524539701E+03  0.46387861939E+03  0.89078628344E+02 0.  0.
          2    1    3    3  502    0  0.39773609988E+02 -0.19877240144E+02 -0.24110783905E+03  0.24517347894E+03  0.00000000000E+00 0. -1.
         -2    1    3    3    0  502 -0.39773609988E+02  0.19877240144E+02 -0.21413755797E+03  0.21870514045E+03  0.00000000000E+00 0.  1.
<mgrwt>
<rscale>  0 0.89078628E+02</rscale>
<asrwt>0</asrwt>
<pdfrwt beam="2">  1        2 0.70701834E-01 0.89078628E+02</pdfrwt>
<pdfrwt beam="1">  1       -2 0.66409415E-03 0.89078628E+02</pdfrwt>
<totfact> 0.22284839E+05</totfact>
</mgrwt>
</event>
<event>
 5    1  0.3862918E+001  0.9094090E+02  0.7546771E-02  0.1300589E+00
         -1   -1    0    0    0  501 -0.00000000000E+00  0.00000000000E+00  0.37648933472E+01  0.37648933472E+01  0.00000000000E+00 0.  1.
          1   -1    0    0  501    0  0.00000000000E+00 -0.00000000000E+00 -0.54916872038E+03  0.54916872038E+03  0.00000000000E+00 0. -1.
         23    2    1    2    0    0  0.00000000000E+00  0.00000000000E+00 -0.54540382703E+03  0.55293361372E+03  0.90940896451E+02 0.  0.
          2    1    3    3  502    0 -0.28983137642E+02 -0.22290369787E+02 -0.43705467946E+03  0.43858143564E+03  0.00000000000E+00 0. -1.
         -2    1    3    3    0  502  0.28983137642E+02  0.22290369787E+02 -0.10834914757E+03  0.11435217808E+03  0.00000000000E+00 0.  1.
<mgrwt>
<rscale>  0 0.90940896E+02</rscale>
<asrwt>0</asrwt>
<pdfrwt beam="2">  1        1 0.84487498E-01 0.90940896E+02</pdfrwt>
<pdfrwt beam="1">  1       -1 0.57921435E-03 0.90940896E+02</pdfrwt>
<totfact> 0.14160960E+05</totfact>
</mgrwt>
</event>
<event>
 5    1  0.3862918E+001  0.9241698E+02  0.7546771E-02  0.1297102E+00
          2   -1    0    0  501    0  0.00000000000E+00  0.00000000000E+00  0.99744506440E+02  0.99744506440E+02  0.00000000000E+00 0.  1.
         -2   -1    0    0    0  501 -0.00000000000E+00 -0.00000000000E+00 -0.21406937006E+02  0.21406937006E+02  0.00000000000E+00 0. -1.
         23    2    1    2    0    0  0.00000000000E+00  0.00000000000E+00  0.78337569435E+02  0.12115144345E+03  0.92416976060E+02 0.  0.
          2    1    3    3  502    0  0.45192617084E+02 -0.44809960630E+01  0.50351832797E+02  0.67806777173E+02  0.00000000000E+00 0. -1.
         -2    1    3    3    0  502 -0.45192617084E+02  0.44809960630E+01  0.27985736638E+02  0.53344666273E+02  0.00000000000E+00 0.  1.
<mgrwt>
<rscale>  0 0.92416976E+02</rscale>
<asrwt>0</asrwt>
<pdfrwt beam="1">  1        2 0.15345308E-01 0.92416976E+02</pdfrwt>
<pdfrwt beam="2">  1       -2 0.32933750E-02 0.92416976E+02</pdfrwt>
<totfact> 0.11809656E+05</totfact>
</mgrwt>
</event>
<event>
 5    1  0.3862918E+001  0.9182450E+02  0.7546771E-02  0.1298493E+00
         -1   -1    0    0    0  501 -0.00000000000E+00  0.00000000000E+00  0.60939578240E+01  0.60939578240E+01  0.00000000000E+00 0.  1.
          1   -1    0    0  501    0  0.00000000000E+00 -0.00000000000E+00 -0.34590567766E+03  0.34590567766E+03  0.00000000000E+00 0. -1.
         23    2    1    2    0    0  0.00000000000E+00  0.00000000000E+00 -0.33981171984E+03  0.35199963548E+03  0.91824498054E+02 0.  0.
          2    1    3    3  502    0 -0.43073767693E+02 -0.14342424066E+02 -0.14365898861E+03  0.15066173901E+03  0.00000000000E+00 0. -1.
         -2    1    3    3    0  502  0.43073767693E+02  0.14342424066E+02 -0.19615273122E+03  0.20133789648E+03  0.00000000000E+00 0.  1.
<mgrwt>
<rscale>  0 0.91824498E+02</rscale>
<asrwt>0</asrwt>
<pdfrwt beam="2">  1        1 0.53216265E-01 0.91824498E+02</pdfrwt>
<pdfrwt beam="1">  1       -1 0.93753186E-03 0.91824498E+02</pdfrwt>
<totfact> 0.12909930E+05</totfact>
</mgrwt>
</event>
<event>
 5    1  0.3862918E+001  0.9096874E+02  0.7546771E-02  0.1300523E+00
          2   -1    0    0  501    0  0.00000000000E+00  0.00000000000E+00  0.16883655203E+04  0.16883655203E+04  0.00000000000E+00 0. -1.
         -2   -1    0    0    0  501 -0.00000000000E+00 -0.00000000000E+00 -0.12253436251E+01  0.12253436251E+01  0.00000000000E+00 0.  1.
         23    2    1    2    0    0  0.00000000000E+00  0.00000000000E+00  0.16871401767E+04  0.16895908640E+04  0.90968740283E+02 0.  0.
          2    1    3    3  502    0  0.26341378187E+02  0.35800211102E+02  0.66416245517E+03  0.66564802274E+03  0.00000000000E+00 0.  1.
         -2    1    3    3    0  502 -0.26341378187E+02 -0.35800211102E+02  0.10229777215E+04  0.10239428412E+04  0.00000000000E+00 0. -1.
<mgrwt>
<rscale>  0 0.90968740E+02</rscale>
<asrwt>0</asrwt>
<pdfrwt beam="1">  1        2 0.25974668E+00 0.90968740E+02</pdfrwt>
<pdfrwt beam="2">  1       -2 0.18851575E-03 0.90968740E+02</pdfrwt>
<totfact> 0.22452102E+05</totfact>
</mgrwt>
</event>
<event>
 5    1  0.3862918E+001  0.9263786E+02  0.7546771E-02  0.1296587E+00
         -2   -1    0    0    0  501 -0.00000000000E+00  0.00000000000E+00  0.20297213033E+01  0.20297213033E+01  0.00000000000E+00 0.  1.
          2   -1    0    0  501    0  0.00000000000E+00 -0.00000000000E+00 -0.10570136955E+04  0.10570136955E+04  0.00000000000E+00 0. -1.
         23    2    1    2    0    0  0.00000000000E+00  0.00000000000E+00 -0.10549839742E+04  0.10590434168E+04  0.92637858688E+02 0.  0.
          2    1    3    3  502    0 -0.24366295680E+02 -0.31820444917E+02 -0.79294925195E+03  0.79396144318E+03  0.00000000000E+00 0. -1.
         -2    1    3    3    0  502  0.24366295680E+02  0.31820444917E+02 -0.26203472224E+03  0.26508197363E+03  0.00000000000E+00 0.  1.
<mgrwt>
<rscale>  0 0.92637859E+02</rscale>
<asrwt>0</asrwt>
<pdfrwt beam="2">  1        2 0.16261803E+00 0.92637859E+02</pdfrwt>
<pdfrwt beam="1">  1       -2 0.31226377E-03 0.92637859E+02</pdfrwt>
<totfact> 0.24006436E+05</totfact>
</mgrwt>
</event>
<event>
 5    1  0.3862918E+001  0.9094469E+02  0.7546771E-02  0.1300580E+00
          2   -1    0    0  501    0  0.00000000000E+00  0.00000000000E+00  0.44316499481E+02  0.44316499481E+02  0.00000000000E+00 0. -1.
         -2   -1    0    0    0  501 -0.00000000000E+00 -0.00000000000E+00 -0.46658333969E+02  0.46658333969E+02  0.00000000000E+00 0.  1.
         23    2    1    2    0    0  0.00000000000E+00  0.00000000000E+00 -0.23418344877E+01  0.90974833450E+02  0.90944687215E+02 0.  0.
          2    1    3    3  502    0 -0.21850207271E+02  0.27536392689E+02  0.27683913514E+02  0.44744648256E+02  0.00000000000E+00 0. -1.
         -2    1    3    3    0  502  0.21850207271E+02 -0.27536392689E+02 -0.30025748002E+02  0.46230185195E+02  0.00000000000E+00 0.  1.
<mgrwt>
<rscale>  0 0.90944687E+02</rscale>
<asrwt>0</asrwt>
<pdfrwt beam="1">  1        2 0.68179230E-02 0.90944687E+02</pdfrwt>
<pdfrwt beam="2">  1       -2 0.71782053E-02 0.90944687E+02</pdfrwt>
<totfact> 0.98673715E+04</totfact>
</mgrwt>
</event>
<event>
 5    1  0.3862918E+001  0.8871911E+02  0.7546771E-02  0.1305984E+00
         -4   -1    0    0    0  501 -0.00000000000E+00  0.00000000000E+00  0.16162823889E+02  0.16162823889E+02  0.00000000000E+00 0.  1.
          4   -1    0    0  501    0  0.00000000000E+00 -0.00000000000E+00 -0.12174666505E+03  0.12174666505E+03  0.00000000000E+00 0. -1.
         23    2    1    2    0    0  0.00000000000E+00  0.00000000000E+00 -0.10558384117E+03  0.13790948894E+03  0.88719105188E+02 0.  0.
          2    1    3    3  502    0  0.43595193239E+02  0.65338918877E+01 -0.60491912881E+02  0.74849877360E+02  0.00000000000E+00 0. -1.
         -2    1    3    3    0  502 -0.43595193239E+02 -0.65338918877E+01 -0.45091928284E+02  0.63059611584E+02  0.00000000000E+00 0.  1.
<mgrwt>
<rscale>  0 0.88719105E+02</rscale>
<asrwt>0</asrwt>
<pdfrwt beam="2">  1        4 0.18730256E-01 0.88719105E+02</pdfrwt>
<pdfrwt beam="1">  1       -4 0.24865883E-02 0.88719105E+02</pdfrwt>
<totfact> 0.26144448E+04</totfact>
</mgrwt>
</event>
<event>
 5    1  0.3862918E+001  0.8749274E+02  0.7546771E-02  0.1309040E+00
         -1   -1    0    0    0  501 -0.00000000000E+00  0.00000000000E+00  0.21506966903E+01  0.21506966903E+01  0.00000000000E+00 0.  1.
          1   -1    0    0  501    0  0.00000000000E+00 -0.00000000000E+00 -0.88982559338E+03  0.88982559338E+03  0.00000000000E+00 0. -1.
         23    2    1    2    0    0  0.00000000000E+00  0.00000000000E+00 -0.88767489669E+03  0.89197629007E+03  0.87492741611E+02 0.  0.
          2    1    3    3  502    0 -0.26197343843E+02 -0.27787751351E+02 -0.66136935192E+03  0.66247104058E+03  0.00000000000E+00 0. -1.
         -2    1    3    3    0  502  0.26197343843E+02  0.27787751351E+02 -0.22630554477E+03  0.22950524949E+03  0.00000000000E+00 0.  1.
<mgrwt>
<rscale>  0 0.87492742E+02</rscale>
<asrwt>0</asrwt>
<pdfrwt beam="2">  1        1 0.13689637E+00 0.87492742E+02</pdfrwt>
<pdfrwt beam="1">  1       -1 0.33087611E-03 0.87492742E+02</pdfrwt>
<totfact> 0.15547311E+05</totfact>
</mgrwt>
</event>
<event>
 5    1  0.3862918E+001  0.9036442E+02  0.7546771E-02  0.1301972E+00
          1   -1    0    0  501    0  0.00000000000E+00  0.00000000000E+00  0.48336161586E+03  0.48336161586E+03  0.00000000000E+00 0. -1.
         -1   -1    0    0    0  501 -0.00000000000E+00 -0.00000000000E+00 -0.42234051553E+01  0.42234051553E+01  0.00000000000E+00 0.  1.
         23    2    1    2    0    0  0.00000000000E+00  0.00000000000E+00  0.47913821071E+03  0.48758502102E+03  0.90364416455E+02 0.  0.
          2    1    3    3  502    0 -0.97355126588E+01  0.19034339775E+02  0.45434121040E+03  0.45484395321E+03  0.00000000000E+00 0. -1.
         -2    1    3    3    0  502  0.97355126588E+01 -0.19034339775E+02  0.24797000306E+02  0.32741067814E+02  0.00000000000E+00 0.  1.
<mgrwt>
<rscale>  0 0.90364416E+02</rscale>
<asrwt>0</asrwt>
<pdfrwt beam="1">  1        1 0.74363282E-01 0.90364416E+02</pdfrwt>
<pdfrwt beam="2">  1       -1 0.64975502E-03 0.90364416E+02</pdfrwt>
<totfact> 0.14201675E+05</totfact>
</mgrwt>
</event>
<event>
 5    1  0.3862918E+001  0.8785667E+02  0.7546771E-02  0.1308127E+00
          2   -1    0    0  501    0  0.00000000000E+00  0.00000000000E+00  0.99095615205E+01  0.99095615205E+01  0.00000000000E+00 0. -1.
         -2   -1    0    0    0  501 -0.00000000000E+00 -0.00000000000E+00 -0.19473097492E+03  0.19473097492E+03  0.00000000000E+00 0.  1.
         23    2    1    2    0    0  0.00000000000E+00  0.00000000000E+00 -0.18482141340E+03  0.20464053644E+03  0.87856669091E+02 0.  0.
          2    1    3    3  502    0 -0.22793308479E+02 -0.13150972008E+02 -0.10481334805E+02  0.28325630716E+02  0.00000000000E+00 0. -1.
         -2    1    3    3    0  502  0.22793308479E+02  0.13150972008E+02 -0.17434007860E+03  0.17631490572E+03  0.00000000000E+00 0.  1.
<mgrwt>
<rscale>  0 0.87856669E+02</rscale>
<asrwt>0</asrwt>
<pdfrwt beam="1">  1        2 0.15245481E-02 0.87856669E+02</pdfrwt>
<pdfrwt beam="2">  1       -2 0.29958609E-01 0.87856669E+02</pdfrwt>
<totfact> 0.69288001E+04</totfact>
</mgrwt>
</event>
<event>
 5    1  0.3862918E+001  0.9071470E+02  0.7546771E-02  0.1301130E+00
         -3   -1    0    0    0  501 -0.00000000000E+00  0.00000000000E+00  0.10753466734E+03  0.10753466734E+03  0.00000000000E+00 0.  1.
          3   -1    0    0  501    0  0.00000000000E+00 -0.00000000000E+00 -0.19131403917E+02  0.19131403917E+02  0.00000000000E+00 0. -1.
         23    2    1    2    0    0  0.00000000000E+00  0.00000000000E+00  0.88403263418E+02  0.12666607125E+03  0.90714699050E+02 0.  0.
          2    1    3    3  502    0  0.16024440706E+02  0.39791455640E+02  0.23625720971E+02  0.48972618199E+02  0.00000000000E+00 0. -1.
         -2    1    3    3    0  502 -0.16024440706E+02 -0.39791455640E+02  0.64777542447E+02  0.77693453053E+02  0.00000000000E+00 0.  1.
<mgrwt>
<rscale>  0 0.90714699E+02</rscale>
<asrwt>0</asrwt>
<pdfrwt beam="2">  1        3 0.29432930E-02 0.90714699E+02</pdfrwt>
<pdfrwt beam="1">  1       -3 0.16543795E-01 0.90714699E+02</pdfrwt>
<totfact> 0.33253224E+04</totfact>
</mgrwt>
</event>
<event>
 5    1  0.3862918E+001  0.1158414E+03  0.7546771E-02  0.1250120E+00
         -1   -1    0    0    0  501 -0.00000000000E+00  0.00000000000E+00  0.25144377415E+02  0.25144377415E+02  0.00000000000E+00 0.  1.
          1   -1    0    0  501    0  0.00000000000E+00 -0.00000000000E+00 -0.13342170759E+03  0.13342170759E+03  0.00000000000E+00 0. -1.
         23    2    1    2    0    0  0.00000000000E+00  0.00000000000E+00 -0.10827733018E+03  0.15856608501E+03  0.11584137035E+03 0.  0.
          2    1    3    3  502    0  0.38931860806E+02 -0.42308452660E+02 -0.63731240115E+02  0.85833361340E+02  0.00000000000E+00 0. -1.
         -2    1    3    3    0  502 -0.38931860806E+02  0.42308452660E+02 -0.44546090065E+02  0.72732723670E+02  0.00000000000E+00 0.  1.
<mgrwt>
<rscale>  0 0.11584137E+03</rscale>
<asrwt>0</asrwt>
<pdfrwt beam="2">  1        1 0.20526417E-01 0.11584137E+03</pdfrwt>
<pdfrwt beam="1">  1       -1 0.38683658E-02 0.11584137E+03</pdfrwt>
<totfact> 0.56866725E+04</totfact>
</mgrwt>
</event>
<event>
 5    1  0.3862918E+001  0.9059360E+02  0.7546771E-02  0.1301421E+00
          2   -1    0    0  501    0  0.00000000000E+00  0.00000000000E+00  0.22405264773E+04  0.22405264773E+04  0.00000000000E+00 0. -1.
         -2   -1    0    0    0  501 -0.00000000000E+00 -0.00000000000E+00 -0.91576697779E+00  0.91576697779E+00  0.00000000000E+00 0.  1.
         23    2    1    2    0    0  0.00000000000E+00  0.00000000000E+00  0.22396107103E+04  0.22414422443E+04  0.90593601557E+02 0.  0.
          2    1    3    3  502    0  0.24493409024E+02  0.12380570317E+02  0.20113986955E+04  0.20115859211E+04  0.00000000000E+00 0. -1.
         -2    1    3    3    0  502 -0.24493409024E+02 -0.12380570317E+02  0.22821201475E+03  0.22985632313E+03  0.00000000000E+00 0.  1.
<mgrwt>
<rscale>  0 0.90593602E+02</rscale>
<asrwt>0</asrwt>
<pdfrwt beam="1">  1        2 0.34469199E+00 0.90593602E+02</pdfrwt>
<pdfrwt beam="2">  1       -2 0.14088902E-03 0.90593602E+02</pdfrwt>
<totfact> 0.17693725E+05</totfact>
</mgrwt>
</event>
<event>
 5    1  0.3862918E+001  0.9131112E+02  0.7546771E-02  0.1299707E+00
         -2   -1    0    0    0  501 -0.00000000000E+00  0.00000000000E+00  0.46833585692E+01  0.46833585692E+01  0.00000000000E+00 0.  1.
          2   -1    0    0  501    0  0.00000000000E+00 -0.00000000000E+00 -0.44507167474E+03  0.44507167474E+03  0.00000000000E+00 0. -1.
         23    2    1    2    0    0  0.00000000000E+00  0.00000000000E+00 -0.44038831617E+03  0.44975503331E+03  0.91311121816E+02 0.  0.
          2    1    3    3  502    0 -0.33712579696E+02 -0.71705908783E+01 -0.72718138880E+02  0.80472871985E+02  0.00000000000E+00 0.  1.
         -2    1    3    3    0  502  0.33712579696E+02  0.71705908783E+01 -0.36767017729E+03  0.36928216133E+03  0.00000000000E+00 0. -1.
<mgrwt>
<rscale>  0 0.91311122E+02</rscale>
<asrwt>0</asrwt>
<pdfrwt beam="2">  1        2 0.68472559E-01 0.91311122E+02</pdfrwt>
<pdfrwt beam="1">  1       -2 0.72051677E-03 0.91311122E+02</pdfrwt>
<totfact> 0.20644707E+05</totfact>
</mgrwt>
</event>
<event>
 5    1  0.3862918E+001  0.9438728E+02  0.7546771E-02  0.1292562E+00
         -1   -1    0    0    0  501 -0.00000000000E+00  0.00000000000E+00  0.35730809503E+01  0.35730809503E+01  0.00000000000E+00 0.  1.
          1   -1    0    0  501    0  0.00000000000E+00 -0.00000000000E+00 -0.62333873542E+03  0.62333873542E+03  0.00000000000E+00 0. -1.
         23    2    1    2    0    0  0.00000000000E+00  0.00000000000E+00 -0.61976565447E+03  0.62691181637E+03  0.94387282218E+02 0.  0.
          2    1    3    3  502    0  0.16942646569E+02  0.21482835394E+02 -0.56528773175E+03  0.56594945459E+03  0.00000000000E+00 0. -1.
         -2    1    3    3    0  502 -0.16942646569E+02 -0.21482835394E+02 -0.54477922717E+02  0.60962361773E+02  0.00000000000E+00 0.  1.
<mgrwt>
<rscale>  0 0.94387282E+02</rscale>
<asrwt>0</asrwt>
<pdfrwt beam="2">  1        1 0.95898243E-01 0.94387282E+02</pdfrwt>
<pdfrwt beam="1">  1       -1 0.54970490E-03 0.94387282E+02</pdfrwt>
<totfact> 0.12943288E+05</totfact>
</mgrwt>
</event>
<event>
 5    1  0.3862918E+001  0.8915048E+02  0.7546771E-02  0.1304922E+00
         -1   -1    0    0    0  501 -0.00000000000E+00  0.00000000000E+00  0.32391953319E+01  0.32391953319E+01  0.00000000000E+00 0.  1.
          1   -1    0    0  501    0  0.00000000000E+00 -0.00000000000E+00 -0.61340908080E+03  0.61340908080E+03  0.00000000000E+00 0. -1.
         23    2    1    2    0    0  0.00000000000E+00  0.00000000000E+00 -0.61016988547E+03  0.61664827613E+03  0.89150475738E+02 0.  0.
          2    1    3    3  502    0 -0.32703792478E+02 -0.26976489363E+02 -0.20982115519E+03  0.21406117394E+03  0.00000000000E+00 0. -1.
         -2    1    3    3    0  502  0.32703792478E+02  0.26976489363E+02 -0.40034873028E+03  0.40258710220E+03  0.00000000000E+00 0.  1.
<mgrwt>
<rscale>  0 0.89150476E+02</rscale>
<asrwt>0</asrwt>
<pdfrwt beam="2">  1        1 0.94370699E-01 0.89150476E+02</pdfrwt>
<pdfrwt beam="1">  1       -1 0.49833737E-03 0.89150476E+02</pdfrwt>
<totfact> 0.15043690E+05</totfact>
</mgrwt>
</event>
<event>
 5    1  0.3862918E+001  0.8086404E+02  0.7546771E-02  0.1326617E+00
         -2   -1    0    0    0  501 -0.00000000000E+00  0.00000000000E+00  0.83877691093E+01  0.83877691093E+01  0.00000000000E+00 0. -1.
          2   -1    0    0  501    0  0.00000000000E+00 -0.00000000000E+00 -0.19489668309E+03  0.19489668309E+03  0.00000000000E+00 0.  1.
         23    2    1    2    0    0  0.00000000000E+00  0.00000000000E+00 -0.18650891398E+03  0.20328445220E+03  0.80864043380E+02 0.  0.
          2    1    3    3  502    0  0.18584509082E+02  0.31322315337E+02 -0.49115786678E+02  0.61145988559E+02  0.00000000000E+00 0. -1.
         -2    1    3    3    0  502 -0.18584509082E+02 -0.31322315337E+02 -0.13739312731E+03  0.14213846364E+03  0.00000000000E+00 0.  1.
<mgrwt>
<rscale>  0 0.80864043E+02</rscale>
<asrwt>0</asrwt>
<pdfrwt beam="2">  1        2 0.29984106E-01 0.80864043E+02</pdfrwt>
<pdfrwt beam="1">  1       -2 0.12904260E-02 0.80864043E+02</pdfrwt>
<totfact> 0.21122714E+05</totfact>
</mgrwt>
</event>
<event>
 5    1  0.3862918E+001  0.9275076E+02  0.7546771E-02  0.1296324E+00
          1   -1    0    0  501    0  0.00000000000E+00  0.00000000000E+00  0.27543319801E+02  0.27543319801E+02  0.00000000000E+00 0. -1.
         -1   -1    0    0    0  501 -0.00000000000E+00 -0.00000000000E+00 -0.78083397343E+02  0.78083397343E+02  0.00000000000E+00 0.  1.
         23    2    1    2    0    0  0.00000000000E+00  0.00000000000E+00 -0.50540077542E+02  0.10562671714E+03  0.92750762458E+02 0.  0.
          2    1    3    3  502    0 -0.29014815002E+02 -0.11100746475E+02  0.13942371988E+02  0.34051076320E+02  0.00000000000E+00 0. -1.
         -2    1    3    3    0  502  0.29014815002E+02  0.11100746475E+02 -0.64482449530E+02  0.71575640824E+02  0.00000000000E+00 0.  1.
<mgrwt>
<rscale>  0 0.92750762E+02</rscale>
<asrwt>0</asrwt>
<pdfrwt beam="1">  1        1 0.42374339E-02 0.92750762E+02</pdfrwt>
<pdfrwt beam="2">  1       -1 0.12012830E-01 0.92750762E+02</pdfrwt>
<totfact> 0.81351818E+04</totfact>
</mgrwt>
</event>
<event>
 5    1  0.3862918E+001  0.8959507E+02  0.7546771E-02  0.1303835E+00
          2   -1    0    0  501    0  0.00000000000E+00  0.00000000000E+00  0.55211967432E+01  0.55211967432E+01  0.00000000000E+00 0. -1.
         -2   -1    0    0    0  501 -0.00000000000E+00 -0.00000000000E+00 -0.36347542608E+03  0.36347542608E+03  0.00000000000E+00 0.  1.
         23    2    1    2    0    0  0.00000000000E+00  0.00000000000E+00 -0.35795422934E+03  0.36899662283E+03  0.89595074389E+02 0.  0.
          2    1    3    3  502    0  0.35972672556E+02  0.25296778116E+02 -0.14382265631E+03  0.15039586637E+03  0.00000000000E+00 0. -1.
         -2    1    3    3    0  502 -0.35972672556E+02 -0.25296778116E+02 -0.21413157303E+03  0.21860075646E+03  0.00000000000E+00 0.  1.
<mgrwt>
<rscale>  0 0.89595074E+02</rscale>
<asrwt>0</asrwt>
<pdfrwt beam="1">  1        2 0.84941462E-03 0.89595074E+02</pdfrwt>
<pdfrwt beam="2">  1       -2 0.55919314E-01 0.89595074E+02</pdfrwt>
<totfact> 0.47561026E+04</totfact>
</mgrwt>
</event>
<event>
 5    1  0.3862918E+001  0.9002213E+02  0.7546771E-02  0.1302798E+00
          2   -1    0    0  501    0  0.00000000000E+00  0.00000000000E+00  0.13040602424E+03  0.13040602424E+03  0.00000000000E+00 0. -1.
         -2   -1    0    0    0  501 -0.00000000000E+00 -0.00000000000E+00 -0.15536061268E+02  0.15536061268E+02  0.00000000000E+00 0.  1.
         23    2    1    2    0    0  0.00000000000E+00  0.00000000000E+00  0.11486996297E+03  0.14594208551E+03  0.90022130221E+02 0.  0.
          2    1    3    3  502    0 -0.26893886971E+01  0.44236111951E+02  0.70192913859E+02  0.83012719315E+02  0.00000000000E+00 0. -1.
         -2    1    3    3    0  502  0.26893886971E+01 -0.44236111951E+02  0.44677049114E+02  0.62929366194E+02  0.00000000000E+00 0.  1.
<mgrwt>
<rscale>  0 0.90022130E+02</rscale>
<asrwt>0</asrwt>
<pdfrwt beam="1">  1        2 0.20062465E-01 0.90022130E+02</pdfrwt>
<pdfrwt beam="2">  1       -2 0.23901634E-02 0.90022130E+02</pdfrwt>
<totfact> 0.13812711E+05</totfact>
</mgrwt>
</event>
<event>
 5    1  0.3862918E+001  0.9136412E+02  0.7546771E-02  0.1299582E+00
         -2   -1    0    0    0  501 -0.00000000000E+00  0.00000000000E+00  0.43529412598E+03  0.43529412598E+03  0.00000000000E+00 0.  1.
          2   -1    0    0  501    0  0.00000000000E+00 -0.00000000000E+00 -0.47941161828E+01  0.47941161828E+01  0.00000000000E+00 0. -1.
         23    2    1    2    0    0  0.00000000000E+00  0.00000000000E+00  0.43050000980E+03  0.44008824216E+03  0.91364120171E+02 0.  0.
          2    1    3    3  502    0 -0.55700100027E+01 -0.45084408539E+02  0.19203807889E+03  0.19733791488E+03  0.00000000000E+00 0.  1.
         -2    1    3    3    0  502  0.55700100027E+01  0.45084408539E+02  0.23846193091E+03  0.24275032729E+03  0.00000000000E+00 0. -1.
<mgrwt>
<rscale>  0 0.91364120E+02</rscale>
<asrwt>0</asrwt>
<pdfrwt beam="2">  1        2 0.73755668E-03 0.91364120E+02</pdfrwt>
<pdfrwt beam="1">  1       -2 0.66968296E-01 0.91364120E+02</pdfrwt>
<totfact> 0.40042733E+04</totfact>
</mgrwt>
</event>
<event>
 5    1  0.3862918E+001  0.9553671E+02  0.7546771E-02  0.1289972E+00
         -4   -1    0    0    0  501 -0.00000000000E+00  0.00000000000E+00  0.45722044147E+02  0.45722044147E+02  0.00000000000E+00 0.  1.
          4   -1    0    0  501    0  0.00000000000E+00 -0.00000000000E+00 -0.49906250300E+02  0.49906250300E+02  0.00000000000E+00 0. -1.
         23    2    1    2    0    0  0.00000000000E+00  0.00000000000E+00 -0.41842061531E+01  0.95628294447E+02  0.95536710838E+02 0.  0.
          2    1    3    3  502    0 -0.27853859900E+02 -0.37884288557E+02 -0.10512000691E+02  0.48182558975E+02  0.00000000000E+00 0. -1.
         -2    1    3    3    0  502  0.27853859900E+02  0.37884288557E+02  0.63277945380E+01  0.47445735472E+02  0.00000000000E+00 0.  1.
<mgrwt>
<rscale>  0 0.95536711E+02</rscale>
<asrwt>0</asrwt>
<pdfrwt beam="2">  1        4 0.76778847E-02 0.95536711E+02</pdfrwt>
<pdfrwt beam="1">  1       -4 0.70341606E-02 0.95536711E+02</pdfrwt>
<totfact> 0.23536074E+04</totfact>
</mgrwt>
</event>
<event>
 5    1  0.3862918E+001  0.9237876E+02  0.7546771E-02  0.1297191E+00
          1   -1    0    0  501    0  0.00000000000E+00  0.00000000000E+00  0.11582845231E+04  0.11582845231E+04  0.00000000000E+00 0. -1.
         -1   -1    0    0    0  501 -0.00000000000E+00 -0.00000000000E+00 -0.18419127320E+01  0.18419127320E+01  0.00000000000E+00 0.  1.
         23    2    1    2    0    0  0.00000000000E+00  0.00000000000E+00  0.11564426104E+04  0.11601264359E+04  0.92378764020E+02 0.  0.
          2    1    3    3  502    0 -0.36529710413E+02  0.27264443467E+02  0.48450408327E+03  0.48664358243E+03  0.00000000000E+00 0. -1.
         -2    1    3    3    0  502  0.36529710413E+02 -0.27264443467E+02  0.67193852715E+03  0.67348285345E+03  0.00000000000E+00 0.  1.
<mgrwt>
<rscale>  0 0.92378764E+02</rscale>
<asrwt>0</asrwt>
<pdfrwt beam="1">  1        1 0.17819704E+00 0.92378764E+02</pdfrwt>
<pdfrwt beam="2">  1       -1 0.28337212E-03 0.92378764E+02</pdfrwt>
<totfact> 0.12493152E+05</totfact>
</mgrwt>
</event>
<event>
 5    1  0.3862918E+001  0.9064647E+02  0.7546771E-02  0.1301294E+00
          3   -1    0    0  501    0  0.00000000000E+00  0.00000000000E+00  0.84051579934E+01  0.84051579934E+01  0.00000000000E+00 0. -1.
         -3   -1    0    0    0  501 -0.00000000000E+00 -0.00000000000E+00 -0.24439700690E+03  0.24439700690E+03  0.00000000000E+00 0.  1.
         23    2    1    2    0    0  0.00000000000E+00  0.00000000000E+00 -0.23599184890E+03  0.25280216489E+03  0.90646466143E+02 0.  0.
          2    1    3    3  502    0  0.12609333371E+02 -0.42795201370E+02 -0.95724847923E+02  0.10561094194E+03  0.00000000000E+00 0.  1.
         -2    1    3    3    0  502 -0.12609333371E+02  0.42795201370E+02 -0.14026700098E+03  0.14719122295E+03  0.00000000000E+00 0. -1.
<mgrwt>
<rscale>  0 0.90646466E+02</rscale>
<asrwt>0</asrwt>
<pdfrwt beam="1">  1        3 0.12931013E-02 0.90646466E+02</pdfrwt>
<pdfrwt beam="2">  1       -3 0.37599538E-01 0.90646466E+02</pdfrwt>
<totfact> 0.26385698E+04</totfact>
</mgrwt>
</event>
<event>
 5    1  0.3862918E+001  0.8945142E+02  0.7546771E-02  0.1304186E+00
          2   -1    0    0  501    0  0.00000000000E+00  0.00000000000E+00  0.34273059099E+02  0.34273059099E+02  0.00000000000E+00 0.  1.
         -2   -1    0    0    0  501 -0.00000000000E+00 -0.00000000000E+00 -0.58366228259E+02  0.58366228259E+02  0.00000000000E+00 0. -1.
         23    2    1    2    0    0  0.00000000000E+00  0.00000000000E+00 -0.24093169160E+02  0.92639287358E+02  0.89451421241E+02 0.  0.
          2    1    3    3  502    0 -0.33339809172E+02  0.17256886873E+02 -0.37224435872E+02  0.52867775121E+02  0.00000000000E+00 0. -1.
         -2    1    3    3    0  502  0.33339809172E+02 -0.17256886873E+02  0.13131266712E+02  0.39771512237E+02  0.00000000000E+00 0.  1.
<mgrwt>
<rscale>  0 0.89451421E+02</rscale>
<asrwt>0</asrwt>
<pdfrwt beam="1">  1        2 0.52727784E-02 0.89451421E+02</pdfrwt>
<pdfrwt beam="2">  1       -2 0.89794197E-02 0.89451421E+02</pdfrwt>
<totfact> 0.96898847E+04</totfact>
</mgrwt>
</event>
<event>
 4    1  0.3862918E+001  0.1586543E+03  0.7546771E-02  0.1190224E+00
         -2   -1    0    0    0  501 -0.00000000000E+00  0.00000000000E+00  0.69604986379E+01  0.69604986379E+01  0.00000000000E+00 0.  1.
          2   -1    0    0  501    0  0.00000000000E+00 -0.00000000000E+00 -0.90407325577E+03  0.90407325577E+03  0.00000000000E+00 0. -1.
          2    1    1    2  502    0  0.43445724540E+02 -0.47405036232E+02 -0.71531069016E+03  0.71819506535E+03  0.00000000000E+00 0. -1.
         -2    1    1    2    0  502 -0.43445724540E+02  0.47405036232E+02 -0.18180206697E+03  0.19283868906E+03  0.00000000000E+00 0.  1.
<mgrwt>
<rscale>  0 0.15865435E+03</rscale>
<asrwt>0</asrwt>
<pdfrwt beam="2">  1        2 0.13908807E+00 0.15865435E+03</pdfrwt>
<pdfrwt beam="1">  1       -2 0.10708469E-02 0.15865435E+03</pdfrwt>
<totfact> 0.55404796E+04</totfact>
</mgrwt>
</event>
<event>
 5    1  0.3862918E+001  0.9098972E+02  0.7546771E-02  0.1300473E+00
          2   -1    0    0  501    0  0.00000000000E+00  0.00000000000E+00  0.42428215738E+03  0.42428215738E+03  0.00000000000E+00 0. -1.
         -2   -1    0    0    0  501 -0.00000000000E+00 -0.00000000000E+00 -0.48783151529E+01  0.48783151529E+01  0.00000000000E+00 0.  1.
         23    2    1    2    0    0  0.00000000000E+00  0.00000000000E+00  0.41940384223E+03  0.42916047253E+03  0.90989715407E+02 0.  0.
          2    1    3    3  502    0 -0.16556852353E+02  0.25956653240E+02  0.36768312710E+03  0.36896986213E+03  0.00000000000E+00 0. -1.
         -2    1    3    3    0  502  0.16556852353E+02 -0.25956653240E+02  0.51720715129E+02  0.60190610403E+02  0.00000000000E+00 0.  1.
<mgrwt>
<rscale>  0 0.90989715E+02</rscale>
<asrwt>0</asrwt>
<pdfrwt beam="1">  1        2 0.65274149E-01 0.90989715E+02</pdfrwt>
<pdfrwt beam="2">  1       -2 0.75051036E-03 0.90989715E+02</pdfrwt>
<totfact> 0.20495037E+05</totfact>
</mgrwt>
</event>
<event>
 5    1  0.3862918E+001  0.9178299E+02  0.7546771E-02  0.1298590E+00
          1   -1    0    0  501    0  0.00000000000E+00  0.00000000000E+00  0.40439273771E+03  0.40439273771E+03  0.00000000000E+00 0. -1.
         -1   -1    0    0    0  501 -0.00000000000E+00 -0.00000000000E+00 -0.52078808412E+01  0.52078808412E+01  0.00000000000E+00 0.  1.
         23    2    1    2    0    0  0.00000000000E+00  0.00000000000E+00  0.39918485687E+03  0.40960061855E+03  0.91782987335E+02 0.  0.
          2    1    3    3  502    0 -0.31699255957E+02  0.16900579740E+02  0.32703822402E+03  0.32900527715E+03  0.00000000000E+00 0. -1.
         -2    1    3    3    0  502  0.31699255957E+02 -0.16900579740E+02  0.72146632847E+02  0.80595341397E+02  0.00000000000E+00 0.  1.
<mgrwt>
<rscale>  0 0.91782987E+02</rscale>
<asrwt>0</asrwt>
<pdfrwt beam="1">  1        1 0.62214243E-01 0.91782987E+02</pdfrwt>
<pdfrwt beam="2">  1       -1 0.80121276E-03 0.91782987E+02</pdfrwt>
<totfact> 0.13277333E+05</totfact>
</mgrwt>
</event>
<event>
 5    1  0.3862918E+001  0.9072714E+02  0.7546771E-02  0.1301100E+00
         -1   -1    0    0    0  501 -0.00000000000E+00  0.00000000000E+00  0.10585825899E+01  0.10585825899E+01  0.00000000000E+00 0.  1.
          1   -1    0    0  501    0  0.00000000000E+00 -0.00000000000E+00 -0.19439706808E+04  0.19439706808E+04  0.00000000000E+00 0. -1.
         23    2    1    2    0    0  0.00000000000E+00  0.00000000000E+00 -0.19429120983E+04  0.19450292634E+04  0.90727140770E+02 0.  0.
          2    1    3    3  502    0 -0.26544299679E+02 -0.21302707599E+02 -0.16144057864E+04  0.16147645179E+04  0.00000000000E+00 0. -1.
         -2    1    3    3    0  502  0.26544299679E+02  0.21302707599E+02 -0.32850631190E+03  0.33026474555E+03  0.00000000000E+00 0.  1.
<mgrwt>
<rscale>  0 0.90727141E+02</rscale>
<asrwt>0</asrwt>
<pdfrwt beam="2">  1        1 0.29906945E+00 0.90727141E+02</pdfrwt>
<pdfrwt beam="1">  1       -1 0.16286047E-03 0.90727141E+02</pdfrwt>
<totfact> 0.84220439E+04</totfact>
</mgrwt>
</event>
<event>
 5    1  0.3862918E+001  0.9451892E+02  0.7546771E-02  0.1292263E+00
          2   -1    0    0  501    0  0.00000000000E+00  0.00000000000E+00  0.96238807867E+03  0.96238807867E+03  0.00000000000E+00 0. -1.
         -2   -1    0    0    0  501 -0.00000000000E+00 -0.00000000000E+00 -0.23207439736E+01  0.23207439736E+01  0.00000000000E+00 0.  1.
         23    2    1    2    0    0  0.00000000000E+00  0.00000000000E+00  0.96006733470E+03  0.96470882264E+03  0.94518915226E+02 0.  0.
          2    1    3    3  502    0  0.21684903461E+00  0.29690709042E+02  0.85530480578E+03  0.85582001379E+03  0.00000000000E+00 0. -1.
         -2    1    3    3    0  502 -0.21684903461E+00 -0.29690709042E+02  0.10476252892E+03  0.10888880885E+03  0.00000000000E+00 0.  1.
<mgrwt>
<rscale>  0 0.94518915E+02</rscale>
<asrwt>0</asrwt>
<pdfrwt beam="1">  1        2 0.14805939E+00 0.94518915E+02</pdfrwt>
<pdfrwt beam="2">  1       -2 0.35703830E-03 0.94518915E+02</pdfrwt>
<totfact> 0.22686736E+05</totfact>
</mgrwt>
</event>
<event>
 5    1  0.3862918E+001  0.9997492E+02  0.7546771E-02  0.1280349E+00
         -3   -1    0    0    0  501 -0.00000000000E+00  0.00000000000E+00  0.17051328217E+04  0.17051328217E+04  0.00000000000E+00 0.  1.
          3   -1    0    0  501    0  0.00000000000E+00 -0.00000000000E+00 -0.14654261523E+01  0.14654261523E+01  0.00000000000E+00 0. -1.
         23    2    1    2    0    0  0.00000000000E+00  0.00000000000E+00  0.17036673955E+04  0.17065982478E+04  0.99974921454E+02 0.  0.
          2    1    3    3  502    0  0.25854359006E+02 -0.19336819372E+02  0.20038767524E+03  0.20297187206E+03  0.00000000000E+00 0. -1.
         -2    1    3    3    0  502 -0.25854359006E+02  0.19336819372E+02  0.15032797203E+04  0.15036263757E+04  0.00000000000E+00 0.  1.
<mgrwt>
<rscale>  0 0.99974921E+02</rscale>
<asrwt>0</asrwt>
<pdfrwt beam="2">  1        3 0.22545154E-03 0.99974921E+02</pdfrwt>
<pdfrwt beam="1">  1       -3 0.26232654E+00 0.99974921E+02</pdfrwt>
<totfact> 0.38448084E+03</totfact>
</mgrwt>
</event>
<event>
 5    1  0.3862918E+001  0.9080765E+02  0.7546771E-02  0.1300908E+00
         -3   -1    0    0    0  501 -0.00000000000E+00  0.00000000000E+00  0.37732599538E+02  0.37732599538E+02  0.00000000000E+00 0.  1.
          3   -1    0    0  501    0  0.00000000000E+00 -0.00000000000E+00 -0.54634643283E+02  0.54634643283E+02  0.00000000000E+00 0. -1.
         23    2    1    2    0    0  0.00000000000E+00  0.00000000000E+00 -0.16902043745E+02  0.92367242821E+02  0.90807645402E+02 0.  0.
          2    1    3    3  502    0 -0.26465021195E+02  0.17044409118E+02 -0.41732971287E+02  0.52273799570E+02  0.00000000000E+00 0. -1.
         -2    1    3    3    0  502  0.26465021195E+02 -0.17044409118E+02  0.24830927542E+02  0.40093443250E+02  0.00000000000E+00 0.  1.
<mgrwt>
<rscale>  0 0.90807645E+02</rscale>
<asrwt>0</asrwt>
<pdfrwt beam="2">  1        3 0.84053297E-02 0.90807645E+02</pdfrwt>
<pdfrwt beam="1">  1       -3 0.58050153E-02 0.90807645E+02</pdfrwt>
<totfact> 0.35638914E+04</totfact>
</mgrwt>
</event>
<event>
 5    1  0.3862918E+001  0.9459626E+02  0.7546771E-02  0.1292088E+00
          3   -1    0    0  501    0  0.00000000000E+00  0.00000000000E+00  0.72576930112E+03  0.72576930112E+03  0.00000000000E+00 0. -1.
         -3   -1    0    0    0  501 -0.00000000000E+00 -0.00000000000E+00 -0.30824027447E+01  0.30824027447E+01  0.00000000000E+00 0.  1.
         23    2    1    2    0    0  0.00000000000E+00  0.00000000000E+00  0.72268689837E+03  0.72885170386E+03  0.94596263896E+02 0.  0.
          2    1    3    3  502    0 -0.40603146506E+02 -0.21110250304E+02  0.26925332010E+03  0.27311464361E+03  0.00000000000E+00 0.  1.
         -2    1    3    3    0  502  0.40603146506E+02  0.21110250304E+02  0.45343357828E+03  0.45573706025E+03  0.00000000000E+00 0. -1.
<mgrwt>
<rscale>  0 0.94596264E+02</rscale>
<asrwt>0</asrwt>
<pdfrwt beam="1">  1        3 0.11165668E+00 0.94596264E+02</pdfrwt>
<pdfrwt beam="2">  1       -3 0.47421639E-03 0.94596264E+02</pdfrwt>
<totfact> 0.12197766E+04</totfact>
</mgrwt>
</event>
<event>
 5    1  0.3862918E+001  0.8997696E+02  0.7546771E-02  0.1302907E+00
          2   -1    0    0  501    0  0.00000000000E+00  0.00000000000E+00  0.11061962727E+04  0.11061962727E+04  0.00000000000E+00 0.  1.
         -2   -1    0    0    0  501 -0.00000000000E+00 -0.00000000000E+00 -0.18296603377E+01  0.18296603377E+01  0.00000000000E+00 0. -1.
         23    2    1    2    0    0  0.00000000000E+00  0.00000000000E+00  0.11043666123E+04  0.11080259330E+04  0.89976962515E+02 0.  0.
          2    1    3    3  502    0  0.41130992693E+02 -0.51475216923E+01  0.33686947307E+03  0.33941021998E+03  0.00000000000E+00 0. -1.
         -2    1    3    3    0  502 -0.41130992693E+02  0.51475216923E+01  0.76749713925E+03  0.76861571302E+03  0.00000000000E+00 0.  1.
<mgrwt>
<rscale>  0 0.89976963E+02</rscale>
<asrwt>0</asrwt>
<pdfrwt beam="1">  1        2 0.17018351E+00 0.89976963E+02</pdfrwt>
<pdfrwt beam="2">  1       -2 0.28148709E-03 0.89976963E+02</pdfrwt>
<totfact> 0.25901553E+05</totfact>
</mgrwt>
</event>
<event>
 5    1  0.3862918E+001  0.9099887E+02  0.7546771E-02  0.1300451E+00
         -1   -1    0    0    0  501 -0.00000000000E+00  0.00000000000E+00  0.84831980248E+01  0.84831980248E+01  0.00000000000E+00 0.  1.
          1   -1    0    0  501    0  0.00000000000E+00 -0.00000000000E+00 -0.24403513831E+03  0.24403513831E+03  0.00000000000E+00 0. -1.
         23    2    1    2    0    0  0.00000000000E+00  0.00000000000E+00 -0.23555194028E+03  0.25251833633E+03  0.90998865999E+02 0.  0.
          2    1    3    3  502    0 -0.17322150638E+02  0.29240947667E+02 -0.20172066002E+03  0.20456371771E+03  0.00000000000E+00 0. -1.
         -2    1    3    3    0  502  0.17322150638E+02 -0.29240947667E+02 -0.33831280259E+02  0.47954618621E+02  0.00000000000E+00 0.  1.
<mgrwt>
<rscale>  0 0.90998866E+02</rscale>
<asrwt>0</asrwt>
<pdfrwt beam="2">  1        1 0.37543861E-01 0.90998866E+02</pdfrwt>
<pdfrwt beam="1">  1       -1 0.13051076E-02 0.90998866E+02</pdfrwt>
<totfact> 0.12373410E+05</totfact>
</mgrwt>
</event>
<event>
 5    1  0.3862918E+001  0.9030915E+02  0.7546771E-02  0.1302105E+00
          4   -1    0    0  501    0  0.00000000000E+00  0.00000000000E+00  0.60392940227E+03  0.60392940227E+03  0.00000000000E+00 0.  1.
         -4   -1    0    0    0  501 -0.00000000000E+00 -0.00000000000E+00 -0.33761162248E+01  0.33761162248E+01  0.00000000000E+00 0. -1.
         23    2    1    2    0    0  0.00000000000E+00  0.00000000000E+00  0.60055328604E+03  0.60730551849E+03  0.90309154656E+02 0.  0.
          2    1    3    3  502    0 -0.24655730556E+02  0.13951491739E+01  0.46059763162E+02  0.52262350435E+02  0.00000000000E+00 0. -1.
         -2    1    3    3    0  502  0.24655730556E+02 -0.13951491739E+01  0.55449352288E+03  0.55504316806E+03  0.00000000000E+00 0.  1.
<mgrwt>
<rscale>  0 0.90309155E+02</rscale>
<asrwt>0</asrwt>
<pdfrwt beam="1">  1        4 0.92912130E-01 0.90309155E+02</pdfrwt>
<pdfrwt beam="2">  1       -4 0.51940298E-03 0.90309155E+02</pdfrwt>
<totfact> 0.11586572E+04</totfact>
</mgrwt>
</event>
<event>
 5    1  0.3862918E+001  0.9192684E+02  0.7546771E-02  0.1298252E+00
          2   -1    0    0  501    0  0.00000000000E+00  0.00000000000E+00  0.26382328886E+03  0.26382328886E+03  0.00000000000E+00 0. -1.
         -2   -1    0    0    0  501 -0.00000000000E+00 -0.00000000000E+00 -0.80077696887E+01  0.80077696887E+01  0.00000000000E+00 0.  1.
         23    2    1    2    0    0  0.00000000000E+00  0.00000000000E+00  0.25581551917E+03  0.27183105855E+03  0.91926843429E+02 0.  0.
          2    1    3    3  502    0 -0.32370945855E+02 -0.24917459096E+02  0.19020784651E+03  0.19454506619E+03  0.00000000000E+00 0. -1.
         -2    1    3    3    0  502  0.32370945855E+02  0.24917459096E+02  0.65607672659E+02  0.77285992360E+02  0.00000000000E+00 0.  1.
<mgrwt>
<rscale>  0 0.91926843E+02</rscale>
<asrwt>0</asrwt>
<pdfrwt beam="1">  1        2 0.40588192E-01 0.91926843E+02</pdfrwt>
<pdfrwt beam="2">  1       -2 0.12319648E-02 0.91926843E+02</pdfrwt>
<totfact> 0.16753529E+05</totfact>
</mgrwt>
</event>
<event>
 5    1  0.3862918E+001  0.9124837E+02  0.7546771E-02  0.1299856E+00
          1   -1    0    0  501    0  0.00000000000E+00  0.00000000000E+00  0.15739492101E+02  0.15739492101E+02  0.00000000000E+00 0. -1.
         -1   -1    0    0    0  501 -0.00000000000E+00 -0.00000000000E+00 -0.13225117692E+03  0.13225117692E+03  0.00000000000E+00 0.  1.
         23    2    1    2    0    0  0.00000000000E+00  0.00000000000E+00 -0.11651168482E+03  0.14799066902E+03  0.91248372139E+02 0.  0.
          2    1    3    3  502    0 -0.14583075543E+02  0.28882854484E+02 -0.60868509744E+01  0.32923170112E+02  0.00000000000E+00 0. -1.
         -2    1    3    3    0  502  0.14583075543E+02 -0.28882854484E+02 -0.11042483385E+03  0.11506749891E+03  0.00000000000E+00 0.  1.
<mgrwt>
<rscale>  0 0.91248372E+02</rscale>
<asrwt>0</asrwt>
<pdfrwt beam="1">  1        1 0.24214603E-02 0.91248372E+02</pdfrwt>
<pdfrwt beam="2">  1       -1 0.20346335E-01 0.91248372E+02</pdfrwt>
<totfact> 0.76783279E+04</totfact>
</mgrwt>
</event>
<event>
 5    1  0.3862918E+001  0.8912522E+02  0.7546771E-02  0.1304984E+00
          1   -1    0    0  501    0  0.00000000000E+00  0.00000000000E+00  0.91240787986E+02  0.91240787986E+02  0.00000000000E+00 0. -1.
         -1   -1    0    0    0  501 -0.00000000000E+00 -0.00000000000E+00 -0.21764674512E+02  0.21764674512E+02  0.00000000000E+00 0.  1.
         23    2    1    2    0    0  0.00000000000E+00  0.00000000000E+00  0.69476113474E+02  0.11300546250E+03  0.89125216470E+02 0.  0.
          2    1    3    3  502    0  0.17745773531E+02 -0.18545835534E+02  0.80926004382E+02  0.84899226611E+02  0.00000000000E+00 0. -1.
         -2    1    3    3    0  502 -0.17745773531E+02  0.18545835534E+02 -0.11449890908E+02  0.28106235886E+02  0.00000000000E+00 0.  1.
<mgrwt>
<rscale>  0 0.89125216E+02</rscale>
<asrwt>0</asrwt>
<pdfrwt beam="1">  1        1 0.14037044E-01 0.89125216E+02</pdfrwt>
<pdfrwt beam="2">  1       -1 0.33484115E-02 0.89125216E+02</pdfrwt>
<totfact> 0.10947713E+05</totfact>
</mgrwt>
</event>
<event>
 5    1  0.3862918E+001  0.8018704E+02  0.7546771E-02  0.1328521E+00
          2   -1    0    0  501    0  0.00000000000E+00  0.00000000000E+00  0.73968351045E+03  0.73968351045E+03  0.00000000000E+00 0. -1.
         -2   -1    0    0    0  501 -0.00000000000E+00 -0.00000000000E+00 -0.21732138048E+01  0.21732138048E+01  0.00000000000E+00 0.  1.
         23    2    1    2    0    0  0.00000000000E+00  0.00000000000E+00  0.73751029664E+03  0.74185672425E+03  0.80187041749E+02 0.  0.
          2    1    3    3  502    0  0.33895469726E+02  0.15571256880E+02  0.50476389829E+03  0.50614025717E+03  0.00000000000E+00 0. -1.
         -2    1    3    3    0  502 -0.33895469726E+02 -0.15571256880E+02  0.23274639835E+03  0.23571646708E+03  0.00000000000E+00 0.  1.
<mgrwt>
<rscale>  0 0.80187042E+02</rscale>
<asrwt>0</asrwt>
<pdfrwt beam="1">  1        2 0.11379726E+00 0.80187042E+02</pdfrwt>
<pdfrwt beam="2">  1       -2 0.33434118E-03 0.80187042E+02</pdfrwt>
<totfact> 0.33607157E+05</totfact>
</mgrwt>
</event>
<event>
 5    1  0.3862918E+001  0.8399760E+02  0.7546771E-02  0.1318075E+00
         -2   -1    0    0    0  501 -0.00000000000E+00  0.00000000000E+00  0.52403362925E+03  0.52403362925E+03  0.00000000000E+00 0. -1.
          2   -1    0    0  501    0  0.00000000000E+00 -0.00000000000E+00 -0.33660041927E+01  0.33660041927E+01  0.00000000000E+00 0.  1.
         23    2    1    2    0    0  0.00000000000E+00  0.00000000000E+00  0.52066762505E+03  0.52739963344E+03  0.83997604564E+02 0.  0.
          2    1    3    3  502    0 -0.25257630744E+02  0.15955664034E+02  0.44567579014E+03  0.44667599112E+03  0.00000000000E+00 0. -1.
         -2    1    3    3    0  502  0.25257630744E+02 -0.15955664034E+02  0.74991834909E+02  0.80723642315E+02  0.00000000000E+00 0.  1.
<mgrwt>
<rscale>  0 0.83997605E+02</rscale>
<asrwt>0</asrwt>
<pdfrwt beam="2">  1        2 0.51784721E-03 0.83997605E+02</pdfrwt>
<pdfrwt beam="1">  1       -2 0.80620494E-01 0.83997605E+02</pdfrwt>
<totfact> 0.43239016E+04</totfact>
</mgrwt>
</event>
<event>
 5    1  0.3862918E+001  0.9059439E+02  0.7546771E-02  0.1301419E+00
          1   -1    0    0  501    0  0.00000000000E+00  0.00000000000E+00  0.10075565699E+03  0.10075565699E+03  0.00000000000E+00 0. -1.
         -1   -1    0    0    0  501 -0.00000000000E+00 -0.00000000000E+00 -0.20364473509E+02  0.20364473509E+02  0.00000000000E+00 0.  1.
         23    2    1    2    0    0  0.00000000000E+00  0.00000000000E+00  0.80391183485E+02  0.12112013050E+03  0.90594390726E+02 0.  0.
          2    1    3    3  502    0  0.23254610107E+02  0.13269876531E+02  0.89044029163E+02  0.92982286721E+02  0.00000000000E+00 0. -1.
         -2    1    3    3    0  502 -0.23254610107E+02 -0.13269876531E+02 -0.86528456784E+01  0.28137843782E+02  0.00000000000E+00 0.  1.
<mgrwt>
<rscale>  0 0.90594391E+02</rscale>
<asrwt>0</asrwt>
<pdfrwt beam="1">  1        1 0.15500870E-01 0.90594391E+02</pdfrwt>
<pdfrwt beam="2">  1       -1 0.31329960E-02 0.90594391E+02</pdfrwt>
<totfact> 0.10642373E+05</totfact>
</mgrwt>
</event>
<event>
 5    1  0.3862918E+001  0.9183585E+02  0.7546771E-02  0.1298466E+00
          1   -1    0    0  501    0  0.00000000000E+00  0.00000000000E+00  0.15088978607E+03  0.15088978607E+03  0.00000000000E+00 0. -1.
         -1   -1    0    0    0  501 -0.00000000000E+00 -0.00000000000E+00 -0.13973483173E+02  0.13973483173E+02  0.00000000000E+00 0.  1.
         23    2    1    2    0    0  0.00000000000E+00  0.00000000000E+00  0.13691630289E+03  0.16486326924E+03  0.91835851093E+02 0.  0.
          2    1    3    3  502    0  0.31743986815E+02 -0.16732413721E+02  0.11988983351E+03  0.12514482230E+03  0.00000000000E+00 0. -1.
         -2    1    3    3    0  502 -0.31743986815E+02  0.16732413721E+02  0.17026469379E+02  0.39718446941E+02  0.00000000000E+00 0.  1.
<mgrwt>
<rscale>  0 0.91835851E+02</rscale>
<asrwt>0</asrwt>
<pdfrwt beam="1">  1        1 0.23213812E-01 0.91835851E+02</pdfrwt>
<pdfrwt beam="2">  1       -1 0.21497668E-02 0.91835851E+02</pdfrwt>
<totfact> 0.11009236E+05</totfact>
</mgrwt>
</event>
<event>
 5    1  0.3862918E+001  0.9008464E+02  0.7546771E-02  0.1302647E+00
         -1   -1    0    0    0  501 -0.00000000000E+00  0.00000000000E+00  0.62781251996E+03  0.62781251996E+03  0.00000000000E+00 0.  1.
          1   -1    0    0  501    0  0.00000000000E+00 -0.00000000000E+00 -0.32315548587E+01  0.32315548587E+01  0.00000000000E+00 0. -1.
         23    2    1    2    0    0  0.00000000000E+00  0.00000000000E+00  0.62458096510E+03  0.63104407482E+03  0.90084640183E+02 0.  0.
          2    1    3    3  502    0 -0.19487094454E+02 -0.23740196722E+02  0.54308060583E+03  0.54394842422E+03  0.00000000000E+00 0. -1.
         -2    1    3    3    0  502  0.19487094454E+02  0.23740196722E+02  0.81500359275E+02  0.87095650595E+02  0.00000000000E+00 0.  1.
<mgrwt>
<rscale>  0 0.90084640E+02</rscale>
<asrwt>0</asrwt>
<pdfrwt beam="2">  1        1 0.49716278E-03 0.90084640E+02</pdfrwt>
<pdfrwt beam="1">  1       -1 0.96586445E-01 0.90084640E+02</pdfrwt>
<totfact> 0.41522571E+04</totfact>
</mgrwt>
</event>
<event>
 5    1  0.3862918E+001  0.9031660E+02  0.7546771E-02  0.1302087E+00
         -2   -1    0    0    0  501 -0.00000000000E+00  0.00000000000E+00  0.38597645678E+02  0.38597645678E+02  0.00000000000E+00 0.  1.
          2   -1    0    0  501    0  0.00000000000E+00 -0.00000000000E+00 -0.52834103248E+02  0.52834103248E+02  0.00000000000E+00 0. -1.
         23    2    1    2    0    0  0.00000000000E+00  0.00000000000E+00 -0.14236457571E+02  0.91431748926E+02  0.90316598627E+02 0.  0.
          2    1    3    3  502    0 -0.37358949548E+02  0.18584941569E+02 -0.24599351242E+02  0.48437787377E+02  0.00000000000E+00 0.  1.
         -2    1    3    3    0  502  0.37358949548E+02 -0.18584941569E+02  0.10362893671E+02  0.42993961549E+02  0.00000000000E+00 0. -1.
<mgrwt>
<rscale>  0 0.90316599E+02</rscale>
<asrwt>0</asrwt>
<pdfrwt beam="2">  1        2 0.81283236E-02 0.90316599E+02</pdfrwt>
<pdfrwt beam="1">  1       -2 0.59380993E-02 0.90316599E+02</pdfrwt>
<totfact> 0.10534467E+05</totfact>
</mgrwt>
</event>
<event>
 5    1  0.3862918E+001  0.9167955E+02  0.7546771E-02  0.1298835E+00
         -2   -1    0    0    0  501 -0.00000000000E+00  0.00000000000E+00  0.65187334562E+02  0.65187334562E+02  0.00000000000E+00 0.  1.
          2   -1    0    0  501    0  0.00000000000E+00 -0.00000000000E+00 -0.32234561285E+02  0.32234561285E+02  0.00000000000E+00 0. -1.
         23    2    1    2    0    0  0.00000000000E+00  0.00000000000E+00  0.32952773277E+02  0.97421895848E+02  0.91679553467E+02 0.  0.
          2    1    3    3  502    0  0.18918005365E+01 -0.43916597263E+02  0.26605506851E+01  0.44037767363E+02  0.00000000000E+00 0. -1.
         -2    1    3    3    0  502 -0.18918005365E+01  0.43916597263E+02  0.30292222592E+02  0.53384128484E+02  0.00000000000E+00 0.  1.
<mgrwt>
<rscale>  0 0.91679553E+02</rscale>
<asrwt>0</asrwt>
<pdfrwt beam="2">  1        2 0.49591633E-02 0.91679553E+02</pdfrwt>
<pdfrwt beam="1">  1       -2 0.10028821E-01 0.91679553E+02</pdfrwt>
<totfact> 0.88716210E+04</totfact>
</mgrwt>
</event>
<event>
 5    1  0.3862918E+001  0.9079965E+02  0.7546771E-02  0.1300927E+00
         -2   -1    0    0    0  501 -0.00000000000E+00  0.00000000000E+00  0.14723853676E+02  0.14723853676E+02  0.00000000000E+00 0.  1.
          2   -1    0    0  501    0  0.00000000000E+00 -0.00000000000E+00 -0.13998672570E+03  0.13998672570E+03  0.00000000000E+00 0. -1.
         23    2    1    2    0    0  0.00000000000E+00  0.00000000000E+00 -0.12526287202E+03  0.15471057938E+03  0.90799649027E+02 0.  0.
          2    1    3    3  502    0 -0.27910220676E+02  0.21791135284E+01 -0.12352927302E+03  0.12666179474E+03  0.00000000000E+00 0. -1.
         -2    1    3    3    0  502  0.27910220676E+02 -0.21791135284E+01 -0.17335990017E+01  0.28048784634E+02  0.00000000000E+00 0.  1.
<mgrwt>
<rscale>  0 0.90799649E+02</rscale>
<asrwt>0</asrwt>
<pdfrwt beam="2">  1        2 0.21536419E-01 0.90799649E+02</pdfrwt>
<pdfrwt beam="1">  1       -2 0.22652083E-02 0.90799649E+02</pdfrwt>
<totfact> 0.13813720E+05</totfact>
</mgrwt>
</event>
<event>
 5    1  0.3862918E+001  0.9091020E+02  0.7546771E-02  0.1300662E+00
         -2   -1    0    0    0  501 -0.00000000000E+00  0.00000000000E+00  0.15877646317E+03  0.15877646317E+03  0.00000000000E+00 0.  1.
          2   -1    0    0  501    0  0.00000000000E+00 -0.00000000000E+00 -0.13013050133E+02  0.13013050133E+02  0.00000000000E+00 0. -1.
         23    2    1    2    0    0  0.00000000000E+00  0.00000000000E+00  0.14576341304E+03  0.17178951330E+03  0.90910199100E+02 0.  0.
          2    1    3    3  502    0 -0.42310434929E+02  0.48636177420E+01  0.42864124396E+02  0.60424836298E+02  0.00000000000E+00 0. -1.
         -2    1    3    3    0  502  0.42310434929E+02 -0.48636177420E+01  0.10289928864E+03  0.11136467701E+03  0.00000000000E+00 0.  1.
<mgrwt>
<rscale>  0 0.90910199E+02</rscale>
<asrwt>0</asrwt>
<pdfrwt beam="2">  1        2 0.20020078E-02 0.90910199E+02</pdfrwt>
<pdfrwt beam="1">  1       -2 0.24427147E-01 0.90910199E+02</pdfrwt>
<totfact> 0.68912575E+04</totfact>
</mgrwt>
</event>
<event>
 5    1  0.3862918E+001  0.9082571E+02  0.7546771E-02  0.1300864E+00
          4   -1    0    0  501    0  0.00000000000E+00  0.00000000000E+00  0.95825834921E+01  0.95825834921E+01  0.00000000000E+00 0.  1.
         -4   -1    0    0    0  501 -0.00000000000E+00 -0.00000000000E+00 -0.21521621652E+03  0.21521621652E+03  0.00000000000E+00 0. -1.
         23    2    1    2    0    0  0.00000000000E+00  0.00000000000E+00 -0.20563363303E+03  0.22479880001E+03  0.90825709216E+02 0.  0.
          2    1    3    3  502    0 -0.32195113421E+02  0.30043256987E+02 -0.13028936244E+03  0.13752978071E+03  0.00000000000E+00 0. -1.
         -2    1    3    3    0  502  0.32195113421E+02 -0.30043256987E+02 -0.75344270589E+02  0.87269019298E+02  0.00000000000E+00 0.  1.
<mgrwt>
<rscale>  0 0.90825709E+02</rscale>
<asrwt>0</asrwt>
<pdfrwt beam="1">  1        4 0.14742438E-02 0.90825709E+02</pdfrwt>
<pdfrwt beam="2">  1       -4 0.33110183E-01 0.90825709E+02</pdfrwt>
<totfact> 0.20604257E+04</totfact>
</mgrwt>
</event>
<event>
 5    1  0.3862918E+001  0.9067820E+02  0.7546771E-02  0.1301218E+00
         -4   -1    0    0    0  501 -0.00000000000E+00  0.00000000000E+00  0.10260870635E+02  0.10260870635E+02  0.00000000000E+00 0.  1.
          4   -1    0    0  501    0  0.00000000000E+00 -0.00000000000E+00 -0.20033719071E+03  0.20033719071E+03  0.00000000000E+00 0. -1.
         23    2    1    2    0    0  0.00000000000E+00  0.00000000000E+00 -0.19007632007E+03  0.21059806134E+03  0.90678200184E+02 0.  0.
          2    1    3    3  502    0  0.37134401827E+02 -0.22208148106E+02 -0.63580090944E+02  0.76906395090E+02  0.00000000000E+00 0. -1.
         -2    1    3    3    0  502 -0.37134401827E+02  0.22208148106E+02 -0.12649622913E+03  0.13369166625E+03  0.00000000000E+00 0.  1.
<mgrwt>
<rscale>  0 0.90678200E+02</rscale>
<asrwt>0</asrwt>
<pdfrwt beam="2">  1        4 0.30821102E-01 0.90678200E+02</pdfrwt>
<pdfrwt beam="1">  1       -4 0.15785957E-02 0.90678200E+02</pdfrwt>
<totfact> 0.21260693E+04</totfact>
</mgrwt>
</event>
<event>
 5    1  0.3862918E+001  0.9202502E+02  0.7546771E-02  0.1298021E+00
         -2   -1    0    0    0  501 -0.00000000000E+00  0.00000000000E+00  0.20513709343E+02  0.20513709343E+02  0.00000000000E+00 0.  1.
          2   -1    0    0  501    0  0.00000000000E+00 -0.00000000000E+00 -0.10320663675E+03  0.10320663675E+03  0.00000000000E+00 0. -1.
         23    2    1    2    0    0  0.00000000000E+00  0.00000000000E+00 -0.82692927404E+02  0.12372034609E+03  0.92025017218E+02 0.  0.
          2    1    3    3  502    0 -0.16274339359E+02  0.21725562192E+02  0.86019218493E+01  0.28475379429E+02  0.00000000000E+00 0.  1.
         -2    1    3    3    0  502  0.16274339359E+02 -0.21725562192E+02 -0.91294849253E+02  0.95244966661E+02  0.00000000000E+00 0. -1.
<mgrwt>
<rscale>  0 0.92025017E+02</rscale>
<asrwt>0</asrwt>
<pdfrwt beam="2">  1        2 0.15877944E-01 0.92025017E+02</pdfrwt>
<pdfrwt beam="1">  1       -2 0.31559552E-02 0.92025017E+02</pdfrwt>
<totfact> 0.12074748E+05</totfact>
</mgrwt>
</event>
<event>
 5    1  0.3862918E+001  0.1094578E+03  0.7546771E-02  0.1261577E+00
         -1   -1    0    0    0  501 -0.00000000000E+00  0.00000000000E+00  0.10430055244E+03  0.10430055244E+03  0.00000000000E+00 0.  1.
          1   -1    0    0  501    0  0.00000000000E+00 -0.00000000000E+00 -0.28717530085E+02  0.28717530085E+02  0.00000000000E+00 0. -1.
         23    2    1    2    0    0  0.00000000000E+00  0.00000000000E+00  0.75583022360E+02  0.13301808253E+03  0.10945783211E+03 0.  0.
          2    1    3    3  502    0 -0.21622954167E+01  0.45316458811E+02  0.74990660517E+02  0.87646198579E+02  0.00000000000E+00 0. -1.
         -2    1    3    3    0  502  0.21622954167E+01 -0.45316458811E+02  0.59236184333E+00  0.45371883951E+02  0.00000000000E+00 0.  1.
<mgrwt>
<rscale>  0 0.10945783E+03</rscale>
<asrwt>0</asrwt>
<pdfrwt beam="2">  1        1 0.44180816E-02 0.10945783E+03</pdfrwt>
<pdfrwt beam="1">  1       -1 0.16046239E-01 0.10945783E+03</pdfrwt>
<totfact> 0.50337362E+04</totfact>
</mgrwt>
</event>
<event>
 5    1  0.3862918E+001  0.9378031E+02  0.7546771E-02  0.1293947E+00
         -2   -1    0    0    0  501 -0.00000000000E+00  0.00000000000E+00  0.30412679745E+02  0.30412679745E+02  0.00000000000E+00 0.  1.
          2   -1    0    0  501    0  0.00000000000E+00 -0.00000000000E+00 -0.72295058967E+02  0.72295058967E+02  0.00000000000E+00 0. -1.
         23    2    1    2    0    0  0.00000000000E+00  0.00000000000E+00 -0.41882379222E+02  0.10270773871E+03  0.93780306579E+02 0.  0.
          2    1    3    3  502    0 -0.40820601600E+02 -0.19201754801E+02 -0.34951881185E+02  0.57067178840E+02  0.00000000000E+00 0. -1.
         -2    1    3    3    0  502  0.40820601600E+02  0.19201754801E+02 -0.69304980367E+01  0.45640559872E+02  0.00000000000E+00 0.  1.
<mgrwt>
<rscale>  0 0.93780307E+02</rscale>
<asrwt>0</asrwt>
<pdfrwt beam="2">  1        2 0.11122317E-01 0.93780307E+02</pdfrwt>
<pdfrwt beam="1">  1       -2 0.46788738E-02 0.93780307E+02</pdfrwt>
<totfact> 0.10314879E+05</totfact>
</mgrwt>
</event>
<event>
 5    1  0.3862918E+001  0.9113640E+02  0.7546771E-02  0.1300123E+00
         -1   -1    0    0    0  501 -0.00000000000E+00  0.00000000000E+00  0.34346113375E+02  0.34346113375E+02  0.00000000000E+00 0.  1.
          1   -1    0    0  501    0  0.00000000000E+00 -0.00000000000E+00 -0.60456937384E+02  0.60456937384E+02  0.00000000000E+00 0. -1.
         23    2    1    2    0    0  0.00000000000E+00  0.00000000000E+00 -0.26110824010E+02  0.94803050759E+02  0.91136399439E+02 0.  0.
          2    1    3    3  502    0  0.69374327068E+01 -0.41981531577E+02 -0.30017387585E+02  0.52073222711E+02  0.00000000000E+00 0. -1.
         -2    1    3    3    0  502 -0.69374327068E+01  0.41981531577E+02  0.39065635750E+01  0.42729828048E+02  0.00000000000E+00 0.  1.
<mgrwt>
<rscale>  0 0.91136399E+02</rscale>
<asrwt>0</asrwt>
<pdfrwt beam="2">  1        1 0.93010672E-02 0.91136399E+02</pdfrwt>
<pdfrwt beam="1">  1       -1 0.52840175E-02 0.91136399E+02</pdfrwt>
<totfact> 0.96600904E+04</totfact>
</mgrwt>
</event>
<event>
 5    1  0.3862918E+001  0.9134255E+02  0.7546771E-02  0.1299633E+00
         -2   -1    0    0    0  501 -0.00000000000E+00  0.00000000000E+00  0.31990061473E+01  0.31990061473E+01  0.00000000000E+00 0.  1.
          2   -1    0    0  501    0  0.00000000000E+00 -0.00000000000E+00 -0.65203543096E+03  0.65203543096E+03  0.00000000000E+00 0. -1.
         23    2    1    2    0    0  0.00000000000E+00  0.00000000000E+00 -0.64883642482E+03  0.65523443711E+03  0.91342549820E+02 0.  0.
          2    1    3    3  502    0 -0.25808477057E+02  0.19098088646E+02 -0.55742055349E+03  0.55834441694E+03  0.00000000000E+00 0. -1.
         -2    1    3    3    0  502  0.25808477057E+02 -0.19098088646E+02 -0.91415871332E+02  0.96890020174E+02  0.00000000000E+00 0.  1.
<mgrwt>
<rscale>  0 0.91342550E+02</rscale>
<asrwt>0</asrwt>
<pdfrwt beam="2">  1        2 0.10031322E+00 0.91342550E+02</pdfrwt>
<pdfrwt beam="1">  1       -2 0.49215440E-03 0.91342550E+02</pdfrwt>
<totfact> 0.23192864E+05</totfact>
</mgrwt>
</event>
<event>
 5    1  0.3862918E+001  0.9029359E+02  0.7546771E-02  0.1302142E+00
         -2   -1    0    0    0  501 -0.00000000000E+00  0.00000000000E+00  0.90995321304E+01  0.90995321304E+01  0.00000000000E+00 0.  1.
          2   -1    0    0  501    0  0.00000000000E+00 -0.00000000000E+00 -0.22399317099E+03  0.22399317099E+03  0.00000000000E+00 0. -1.
         23    2    1    2    0    0  0.00000000000E+00  0.00000000000E+00 -0.21489363886E+03  0.23309270312E+03  0.90293589062E+02 0.  0.
          2    1    3    3  502    0  0.35960840001E+02  0.78835901130E+01 -0.39986198472E+02  0.54352820303E+02  0.00000000000E+00 0.  1.
         -2    1    3    3    0  502 -0.35960840001E+02 -0.78835901130E+01 -0.17490744039E+03  0.17873988282E+03  0.00000000000E+00 0. -1.
<mgrwt>
<rscale>  0 0.90293589E+02</rscale>
<asrwt>0</asrwt>
<pdfrwt beam="2">  1        2 0.34460486E-01 0.90293589E+02</pdfrwt>
<pdfrwt beam="1">  1       -2 0.13999281E-02 0.90293589E+02</pdfrwt>
<totfact> 0.16546370E+05</totfact>
</mgrwt>
</event>
<event>
 5    1  0.3862918E+001  0.9532665E+02  0.7546771E-02  0.1290442E+00
         -1   -1    0    0    0  501 -0.00000000000E+00  0.00000000000E+00  0.27048439786E+03  0.27048439786E+03  0.00000000000E+00 0.  1.
          1   -1    0    0  501    0  0.00000000000E+00 -0.00000000000E+00 -0.83989776785E+01  0.83989776785E+01  0.00000000000E+00 0. -1.
         23    2    1    2    0    0  0.00000000000E+00  0.00000000000E+00  0.26208542018E+03  0.27888337554E+03  0.95326647272E+02 0.  0.
          2    1    3    3  502    0 -0.18914771520E+02  0.32935686096E+02  0.46795636591E+02  0.60269060091E+02  0.00000000000E+00 0. -1.
         -2    1    3    3    0  502  0.18914771520E+02 -0.32935686096E+02  0.21528978359E+03  0.21861431545E+03  0.00000000000E+00 0.  1.
<mgrwt>
<rscale>  0 0.95326647E+02</rscale>
<asrwt>0</asrwt>
<pdfrwt beam="2">  1        1 0.12921506E-02 0.95326647E+02</pdfrwt>
<pdfrwt beam="1">  1       -1 0.41612978E-01 0.95326647E+02</pdfrwt>
<totfact> 0.56071464E+04</totfact>
</mgrwt>
</event>
<event>
 5    1  0.3862918E+001  0.8874966E+02  0.7546771E-02  0.1305908E+00
          2   -1    0    0  501    0  0.00000000000E+00  0.00000000000E+00  0.14807291810E+02  0.14807291810E+02  0.00000000000E+00 0. -1.
         -2   -1    0    0    0  501 -0.00000000000E+00 -0.00000000000E+00 -0.13298349880E+03  0.13298349880E+03  0.00000000000E+00 0.  1.
         23    2    1    2    0    0  0.00000000000E+00  0.00000000000E+00 -0.11817620699E+03  0.14779079061E+03  0.88749658538E+02 0.  0.
          2    1    3    3  502    0 -0.20826416892E+02  0.14484679358E+02  0.15413475506E+01  0.25414982372E+02  0.00000000000E+00 0. -1.
         -2    1    3    3    0  502  0.20826416892E+02 -0.14484679358E+02 -0.11971755455E+03  0.12237580824E+03  0.00000000000E+00 0.  1.
<mgrwt>
<rscale>  0 0.88749659E+02</rscale>
<asrwt>0</asrwt>
<pdfrwt beam="1">  1        2 0.22780449E-02 0.88749659E+02</pdfrwt>
<pdfrwt beam="2">  1       -2 0.20459000E-01 0.88749659E+02</pdfrwt>
<totfact> 0.78008485E+04</totfact>
</mgrwt>
</event>
<event>
 5    1  0.3862918E+001  0.9322985E+02  0.7546771E-02  0.1295213E+00
         -1   -1    0    0    0  501 -0.00000000000E+00  0.00000000000E+00  0.11040594591E+02  0.11040594591E+02  0.00000000000E+00 0.  1.
          1   -1    0    0  501    0  0.00000000000E+00 -0.00000000000E+00 -0.19681469586E+03  0.19681469586E+03  0.00000000000E+00 0. -1.
         23    2    1    2    0    0  0.00000000000E+00  0.00000000000E+00 -0.18577410127E+03  0.20785529046E+03  0.93229850727E+02 0.  0.
          2    1    3    3  502    0 -0.19015546419E+02 -0.99941411457E+01 -0.18512118557E+03  0.18636342777E+03  0.00000000000E+00 0. -1.
         -2    1    3    3    0  502  0.19015546419E+02  0.99941411457E+01 -0.65291570322E+00  0.21491862687E+02  0.00000000000E+00 0.  1.
<mgrwt>
<rscale>  0 0.93229851E+02</rscale>
<asrwt>0</asrwt>
<pdfrwt beam="2">  1        1 0.30279183E-01 0.93229851E+02</pdfrwt>
<pdfrwt beam="1">  1       -1 0.16985530E-02 0.93229851E+02</pdfrwt>
<totfact> 0.11118060E+05</totfact>
</mgrwt>
</event>
<event>
 5    1  0.3862918E+001  0.9810580E+02  0.7546771E-02  0.1284330E+00
         -1   -1    0    0    0  501 -0.00000000000E+00  0.00000000000E+00  0.50323180759E+02  0.50323180759E+02  0.00000000000E+00 0.  1.
          1   -1    0    0  501    0  0.00000000000E+00 -0.00000000000E+00 -0.47814679749E+02  0.47814679749E+02  0.00000000000E+00 0. -1.
         23    2    1    2    0    0  0.00000000000E+00  0.00000000000E+00  0.25085010093E+01  0.98137860508E+02  0.98105795383E+02 0.  0.
          2    1    3    3  502    0 -0.85134230254E+01 -0.40421082358E+02 -0.25208970269E+02  0.48392504095E+02  0.00000000000E+00 0. -1.
         -2    1    3    3    0  502  0.85134230254E+01  0.40421082358E+02  0.27717471278E+02  0.49745356413E+02  0.00000000000E+00 0.  1.
<mgrwt>
<rscale>  0 0.98105795E+02</rscale>
<asrwt>0</asrwt>
<pdfrwt beam="2">  1        1 0.73561046E-02 0.98105795E+02</pdfrwt>
<pdfrwt beam="1">  1       -1 0.77420278E-02 0.98105795E+02</pdfrwt>
<totfact> 0.75757425E+04</totfact>
</mgrwt>
</event>
<event>
 5    1  0.3862918E+001  0.8031190E+02  0.7546771E-02  0.1328169E+00
         -1   -1    0    0    0  501 -0.00000000000E+00  0.00000000000E+00  0.30938097616E+01  0.30938097616E+01  0.00000000000E+00 0.  1.
          1   -1    0    0  501    0  0.00000000000E+00 -0.00000000000E+00 -0.52120219506E+03  0.52120219506E+03  0.00000000000E+00 0. -1.
         23    2    1    2    0    0  0.00000000000E+00  0.00000000000E+00 -0.51810838530E+03  0.52429600483E+03  0.80311902950E+02 0.  0.
          2    1    3    3  502    0 -0.38346479137E+02 -0.30662184276E+01 -0.33424143760E+03  0.33644790498E+03  0.00000000000E+00 0. -1.
         -2    1    3    3    0  502  0.38346479137E+02  0.30662184276E+01 -0.18386694770E+03  0.18784809984E+03  0.00000000000E+00 0.  1.
<mgrwt>
<rscale>  0 0.80311903E+02</rscale>
<asrwt>0</asrwt>
<pdfrwt beam="2">  1        1 0.80184892E-01 0.80311903E+02</pdfrwt>
<pdfrwt beam="1">  1       -1 0.47597109E-03 0.80311903E+02</pdfrwt>
<totfact> 0.19539380E+05</totfact>
</mgrwt>
</event>
<event>
 5    1  0.3862918E+001  0.9231571E+02  0.7546771E-02  0.1297339E+00
          1   -1    0    0  501    0  0.00000000000E+00  0.00000000000E+00  0.14246618743E+02  0.14246618743E+02  0.00000000000E+00 0. -1.
         -1   -1    0    0    0  501 -0.00000000000E+00 -0.00000000000E+00 -0.14954760513E+03  0.14954760513E+03  0.00000000000E+00 0.  1.
         23    2    1    2    0    0  0.00000000000E+00  0.00000000000E+00 -0.13530098639E+03  0.16379422388E+03  0.92315712947E+02 0.  0.
          2    1    3    3  502    0 -0.21475627694E+02 -0.86122079095E+01 -0.13851473133E+03  0.14043398273E+03  0.00000000000E+00 0.  1.
         -2    1    3    3    0  502  0.21475627694E+02  0.86122079095E+01  0.32137449382E+01  0.23360241148E+02  0.00000000000E+00 0. -1.
<mgrwt>
<rscale>  0 0.92315713E+02</rscale>
<asrwt>0</asrwt>
<pdfrwt beam="1">  1        1 0.21917876E-02 0.92315713E+02</pdfrwt>
<pdfrwt beam="2">  1       -1 0.23007323E-01 0.92315713E+02</pdfrwt>
<totfact> 0.72465717E+04</totfact>
</mgrwt>
</event>
<event>
 5    1  0.3862918E+001  0.9202997E+02  0.7546771E-02  0.1298009E+00
         -2   -1    0    0    0  501 -0.00000000000E+00  0.00000000000E+00  0.81917022471E+01  0.81917022471E+01  0.00000000000E+00 0. -1.
          2   -1    0    0  501    0  0.00000000000E+00 -0.00000000000E+00 -0.25847850362E+03  0.25847850362E+03  0.00000000000E+00 0.  1.
         23    2    1    2    0    0  0.00000000000E+00  0.00000000000E+00 -0.25028680137E+03  0.26667020586E+03  0.92029972050E+02 0.  0.
          2    1    3    3  502    0 -0.30057082177E+02 -0.34809160080E+02 -0.12077465454E+03  0.12923475923E+03  0.00000000000E+00 0. -1.
         -2    1    3    3    0  502  0.30057082177E+02  0.34809160080E+02 -0.12951214683E+03  0.13743544663E+03  0.00000000000E+00 0.  1.
<mgrwt>
<rscale>  0 0.92029972E+02</rscale>
<asrwt>0</asrwt>
<pdfrwt beam="2">  1        2 0.39765913E-01 0.92029972E+02</pdfrwt>
<pdfrwt beam="1">  1       -2 0.12602622E-02 0.92029972E+02</pdfrwt>
<totfact> 0.16576116E+05</totfact>
</mgrwt>
</event>
<event>
 4    1  0.3862918E+001  0.1355237E+03  0.7546771E-02  0.1219482E+00
          1   -1    0    0  501    0  0.00000000000E+00  0.00000000000E+00  0.19327299025E+03  0.19327299025E+03  0.00000000000E+00 0. -1.
         -1   -1    0    0    0  501 -0.00000000000E+00 -0.00000000000E+00 -0.23757430960E+02  0.23757430960E+02  0.00000000000E+00 0.  1.
          2    1    1    2  502    0 -0.34179604228E+02 -0.13348989224E+02  0.17598573928E+03  0.17977046835E+03  0.00000000000E+00 0. -1.
         -2    1    1    2    0  502  0.34179604228E+02  0.13348989224E+02 -0.64701799907E+01  0.37259952867E+02  0.00000000000E+00 0.  1.
<mgrwt>
<rscale>  0 0.13552372E+03</rscale>
<asrwt>0</asrwt>
<pdfrwt beam="1">  1        1 0.29734305E-01 0.13552372E+03</pdfrwt>
<pdfrwt beam="2">  1       -1 0.36549895E-02 0.13552372E+03</pdfrwt>
<totfact> 0.39590533E+04</totfact>
</mgrwt>
</event>
<event>
 5    1  0.3862918E+001  0.9060214E+02  0.7546771E-02  0.1301400E+00
          2   -1    0    0  501    0  0.00000000000E+00  0.00000000000E+00  0.51015647393E+01  0.51015647393E+01  0.00000000000E+00 0. -1.
         -2   -1    0    0    0  501 -0.00000000000E+00 -0.00000000000E+00 -0.40226619711E+03  0.40226619711E+03  0.00000000000E+00 0.  1.
         23    2    1    2    0    0  0.00000000000E+00  0.00000000000E+00 -0.39716463237E+03  0.40736776185E+03  0.90602142293E+02 0.  0.
          2    1    3    3  502    0  0.38941486009E+02 -0.77936056855E+01 -0.10058856352E+03  0.10814452706E+03  0.00000000000E+00 0. -1.
         -2    1    3    3    0  502 -0.38941486009E+02  0.77936056855E+01 -0.29657606886E+03  0.29922323479E+03  0.00000000000E+00 0.  1.
<mgrwt>
<rscale>  0 0.90602142E+02</rscale>
<asrwt>0</asrwt>
<pdfrwt beam="1">  1        2 0.78485635E-03 0.90602142E+02</pdfrwt>
<pdfrwt beam="2">  1       -2 0.61887088E-01 0.90602142E+02</pdfrwt>
<totfact> 0.43229830E+04</totfact>
</mgrwt>
</event>
<event>
 5    1  0.3862918E+001  0.9151388E+02  0.7546771E-02  0.1299226E+00
          2   -1    0    0  501    0  0.00000000000E+00  0.00000000000E+00  0.18568948192E+03  0.18568948192E+03  0.00000000000E+00 0. -1.
         -2   -1    0    0    0  501 -0.00000000000E+00 -0.00000000000E+00 -0.11275262318E+02  0.11275262318E+02  0.00000000000E+00 0.  1.
         23    2    1    2    0    0  0.00000000000E+00  0.00000000000E+00  0.17441421960E+03  0.19696474424E+03  0.91513881313E+02 0.  0.
          2    1    3    3  502    0 -0.29786758854E+02  0.33435933314E+02  0.10745297293E+03  0.11641028318E+03  0.00000000000E+00 0. -1.
         -2    1    3    3    0  502  0.29786758854E+02 -0.33435933314E+02  0.66961246671E+02  0.80554461052E+02  0.00000000000E+00 0.  1.
<mgrwt>
<rscale>  0 0.91513881E+02</rscale>
<asrwt>0</asrwt>
<pdfrwt beam="1">  1        2 0.28567610E-01 0.91513881E+02</pdfrwt>
<pdfrwt beam="2">  1       -2 0.17346559E-02 0.91513881E+02</pdfrwt>
<totfact> 0.14911330E+05</totfact>
</mgrwt>
</event>
<event>
 5    1  0.3862918E+001  0.9066008E+02  0.7546771E-02  0.1301261E+00
         -1   -1    0    0    0  501 -0.00000000000E+00  0.00000000000E+00  0.30119066022E+01  0.30119066022E+01  0.00000000000E+00 0.  1.
          1   -1    0    0  501    0  0.00000000000E+00 -0.00000000000E+00 -0.68222983880E+03  0.68222983880E+03  0.00000000000E+00 0. -1.
         23    2    1    2    0    0  0.00000000000E+00  0.00000000000E+00 -0.67921793219E+03  0.68524174540E+03  0.90660080646E+02 0.  0.
          2    1    3    3  502    0 -0.31945990104E+02 -0.31566268765E+02 -0.29311615968E+03  0.29653677457E+03  0.00000000000E+00 0. -1.
         -2    1    3    3    0  502  0.31945990104E+02  0.31566268765E+02 -0.38610177252E+03  0.38870497083E+03  0.00000000000E+00 0.  1.
<mgrwt>
<rscale>  0 0.90660081E+02</rscale>
<asrwt>0</asrwt>
<pdfrwt beam="2">  1        1 0.10495831E+00 0.90660081E+02</pdfrwt>
<pdfrwt beam="1">  1       -1 0.46337079E-03 0.90660081E+02</pdfrwt>
<totfact> 0.14433815E+05</totfact>
</mgrwt>
</event>
<event>
 5    1  0.3862918E+001  0.9085976E+02  0.7546771E-02  0.1300783E+00
          1   -1    0    0  501    0  0.00000000000E+00  0.00000000000E+00  0.35716830200E+03  0.35716830200E+03  0.00000000000E+00 0. -1.
         -1   -1    0    0    0  501 -0.00000000000E+00 -0.00000000000E+00 -0.57784357186E+01  0.57784357186E+01  0.00000000000E+00 0.  1.
         23    2    1    2    0    0  0.00000000000E+00  0.00000000000E+00  0.35138986628E+03  0.36294673772E+03  0.90859761695E+02 0.  0.
          2    1    3    3  502    0  0.22420371052E+02 -0.17032669709E+02  0.31811110829E+03  0.31935475900E+03  0.00000000000E+00 0. -1.
         -2    1    3    3    0  502 -0.22420371052E+02  0.17032669709E+02  0.33278757989E+02  0.43591978721E+02  0.00000000000E+00 0.  1.
<mgrwt>
<rscale>  0 0.90859762E+02</rscale>
<asrwt>0</asrwt>
<pdfrwt beam="1">  1        1 0.54948952E-01 0.90859762E+02</pdfrwt>
<pdfrwt beam="2">  1       -1 0.88899039E-03 0.90859762E+02</pdfrwt>
<totfact> 0.13353861E+05</totfact>
</mgrwt>
</event>
<event>
 5    1  0.3862918E+001  0.9118602E+02  0.7546771E-02  0.1300005E+00
          2   -1    0    0  501    0  0.00000000000E+00  0.00000000000E+00  0.17433709665E+03  0.17433709665E+03  0.00000000000E+00 0. -1.
         -2   -1    0    0    0  501 -0.00000000000E+00 -0.00000000000E+00 -0.11923581286E+02  0.11923581286E+02  0.00000000000E+00 0.  1.
         23    2    1    2    0    0  0.00000000000E+00  0.00000000000E+00  0.16241351536E+03  0.18626067793E+03  0.91186019609E+02 0.  0.
          2    1    3    3  502    0 -0.23671574861E+02  0.56767107812E+01  0.15995209254E+03  0.16179382068E+03  0.00000000000E+00 0. -1.
         -2    1    3    3    0  502  0.23671574861E+02 -0.56767107812E+01  0.24614228221E+01  0.24466857256E+02  0.00000000000E+00 0.  1.
<mgrwt>
<rscale>  0 0.91186020E+02</rscale>
<asrwt>0</asrwt>
<pdfrwt beam="1">  1        2 0.26821090E-01 0.91186020E+02</pdfrwt>
<pdfrwt beam="2">  1       -2 0.18343972E-02 0.91186020E+02</pdfrwt>
<totfact> 0.14723331E+05</totfact>
</mgrwt>
</event>
<event>
 5    1  0.3862918E+001  0.6035543E+02  0.7546771E-02  0.1396346E+00
          2   -1    0    0  501    0  0.00000000000E+00  0.00000000000E+00  0.25603072721E+02  0.25603072721E+02  0.00000000000E+00 0.  1.
         -2   -1    0    0    0  501 -0.00000000000E+00 -0.00000000000E+00 -0.35569730979E+02  0.35569730979E+02  0.00000000000E+00 0. -1.
         23    2    1    2    0    0  0.00000000000E+00  0.00000000000E+00 -0.99666582582E+01  0.61172803700E+02  0.60355427558E+02 0.  0.
          2    1    3    3  502    0  0.72549090428E+01  0.19363296964E+02 -0.27261067888E+02  0.34216031286E+02  0.00000000000E+00 0. -1.
         -2    1    3    3    0  502 -0.72549090428E+01 -0.19363296964E+02  0.17294409630E+02  0.26956772414E+02  0.00000000000E+00 0.  1.
<mgrwt>
<rscale>  0 0.60355428E+02</rscale>
<asrwt>0</asrwt>
<pdfrwt beam="1">  1        2 0.39389343E-02 0.60355428E+02</pdfrwt>
<pdfrwt beam="2">  1       -2 0.54722663E-02 0.60355428E+02</pdfrwt>
<totfact> 0.27621812E+05</totfact>
</mgrwt>
</event>
<event>
 5    1  0.3862918E+001  0.7534894E+02  0.7546771E-02  0.1342794E+00
          1   -1    0    0  501    0  0.00000000000E+00  0.00000000000E+00  0.33341463731E+02  0.33341463731E+02  0.00000000000E+00 0. -1.
         -1   -1    0    0    0  501 -0.00000000000E+00 -0.00000000000E+00 -0.42570586273E+02  0.42570586273E+02  0.00000000000E+00 0.  1.
         23    2    1    2    0    0  0.00000000000E+00  0.00000000000E+00 -0.92291225417E+01  0.75912050004E+02  0.75348939163E+02 0.  0.
          2    1    3    3  502    0 -0.13327900558E+02 -0.27130582664E+02 -0.27269593545E+02  0.40710344890E+02  0.00000000000E+00 0. -1.
         -2    1    3    3    0  502  0.13327900558E+02  0.27130582664E+02  0.18040471003E+02  0.35201705115E+02  0.00000000000E+00 0.  1.
<mgrwt>
<rscale>  0 0.75348939E+02</rscale>
<asrwt>0</asrwt>
<pdfrwt beam="1">  1        1 0.51294560E-02 0.75348939E+02</pdfrwt>
<pdfrwt beam="2">  1       -1 0.65493210E-02 0.75348939E+02</pdfrwt>
<totfact> 0.15045221E+05</totfact>
</mgrwt>
</event>
<event>
 5    1  0.3862918E+001  0.9046320E+02  0.7546771E-02  0.1301734E+00
          2   -1    0    0  501    0  0.00000000000E+00  0.00000000000E+00  0.77718529695E+03  0.77718529695E+03  0.00000000000E+00 0. -1.
         -2   -1    0    0    0  501 -0.00000000000E+00 -0.00000000000E+00 -0.26324451226E+01  0.26324451226E+01  0.00000000000E+00 0.  1.
         23    2    1    2    0    0  0.00000000000E+00  0.00000000000E+00  0.77455285183E+03  0.77981774207E+03  0.90463200127E+02 0.  0.
          2    1    3    3  502    0  0.20639346479E+02 -0.35223810159E+02  0.55513916659E+03  0.55663829702E+03  0.00000000000E+00 0. -1.
         -2    1    3    3    0  502 -0.20639346479E+02  0.35223810159E+02  0.21941368523E+03  0.22317944505E+03  0.00000000000E+00 0.  1.
<mgrwt>
<rscale>  0 0.90463200E+02</rscale>
<asrwt>0</asrwt>
<pdfrwt beam="1">  1        2 0.11956679E+00 0.90463200E+02</pdfrwt>
<pdfrwt beam="2">  1       -2 0.40499218E-03 0.90463200E+02</pdfrwt>
<totfact> 0.24752716E+05</totfact>
</mgrwt>
</event>
<event>
 5    1  0.3862918E+001  0.9109756E+02  0.7546771E-02  0.1300215E+00
          2   -1    0    0  501    0  0.00000000000E+00  0.00000000000E+00  0.52180371180E+03  0.52180371180E+03  0.00000000000E+00 0. -1.
         -2   -1    0    0    0  501 -0.00000000000E+00 -0.00000000000E+00 -0.39759997519E+01  0.39759997519E+01  0.00000000000E+00 0.  1.
         23    2    1    2    0    0  0.00000000000E+00  0.00000000000E+00  0.51782771205E+03  0.52577971155E+03  0.91097561518E+02 0.  0.
          2    1    3    3  502    0 -0.24343854157E+02 -0.37584805974E+02  0.30701273194E+03  0.31026127449E+03  0.00000000000E+00 0. -1.
         -2    1    3    3    0  502  0.24343854157E+02  0.37584805974E+02  0.21081498011E+03  0.21551843706E+03  0.00000000000E+00 0.  1.
<mgrwt>
<rscale>  0 0.91097562E+02</rscale>
<asrwt>0</asrwt>
<pdfrwt beam="1">  1        2 0.80277440E-01 0.91097562E+02</pdfrwt>
<pdfrwt beam="2">  1       -2 0.61169268E-03 0.91097562E+02</pdfrwt>
<totfact> 0.21897123E+05</totfact>
</mgrwt>
</event>
<event>
 5    1  0.3862918E+001  0.9105939E+02  0.7546771E-02  0.1300306E+00
         -2   -1    0    0    0  501 -0.00000000000E+00  0.00000000000E+00  0.21435505723E+01  0.21435505723E+01  0.00000000000E+00 0.  1.
          2   -1    0    0  501    0  0.00000000000E+00 -0.00000000000E+00 -0.96706510711E+03  0.96706510711E+03  0.00000000000E+00 0. -1.
         23    2    1    2    0    0  0.00000000000E+00  0.00000000000E+00 -0.96492155654E+03  0.96920865768E+03  0.91059386420E+02 0.  0.
          2    1    3    3  502    0  0.13639450413E+02  0.17431006407E+02 -0.90595137645E+03  0.90622170085E+03  0.00000000000E+00 0. -1.
         -2    1    3    3    0  502 -0.13639450413E+02 -0.17431006407E+02 -0.58970180081E+02  0.62986956830E+02  0.00000000000E+00 0.  1.
<mgrwt>
<rscale>  0 0.91059386E+02</rscale>
<asrwt>0</asrwt>
<pdfrwt beam="2">  1        2 0.14877932E+00 0.91059386E+02</pdfrwt>
<pdfrwt beam="1">  1       -2 0.32977684E-03 0.91059386E+02</pdfrwt>
<totfact> 0.25040030E+05</totfact>
</mgrwt>
</event>
<event>
 5    1  0.3862918E+001  0.9435428E+02  0.7546771E-02  0.1292637E+00
          1   -1    0    0  501    0  0.00000000000E+00  0.00000000000E+00  0.69444413207E+03  0.69444413207E+03  0.00000000000E+00 0. -1.
         -1   -1    0    0    0  501 -0.00000000000E+00 -0.00000000000E+00 -0.32049840276E+01  0.32049840276E+01  0.00000000000E+00 0.  1.
         23    2    1    2    0    0  0.00000000000E+00  0.00000000000E+00  0.69123914804E+03  0.69764911610E+03  0.94354276032E+02 0.  0.
          2    1    3    3  502    0  0.26174544647E+02  0.93228323477E+01  0.62752727230E+03  0.62814210134E+03  0.00000000000E+00 0. -1.
         -2    1    3    3    0  502 -0.26174544647E+02 -0.93228323477E+01  0.63711875743E+02  0.69507014763E+02  0.00000000000E+00 0.  1.
<mgrwt>
<rscale>  0 0.94354276E+02</rscale>
<asrwt>0</asrwt>
<pdfrwt beam="1">  1        1 0.10683744E+00 0.94354276E+02</pdfrwt>
<pdfrwt beam="2">  1       -1 0.49307502E-03 0.94354276E+02</pdfrwt>
<totfact> 0.12984567E+05</totfact>
</mgrwt>
</event>
<event>
 5    1  0.3862918E+001  0.8898362E+02  0.7546771E-02  0.1305332E+00
         -1   -1    0    0    0  501 -0.00000000000E+00  0.00000000000E+00  0.31512541150E+01  0.31512541150E+01  0.00000000000E+00 0.  1.
          1   -1    0    0  501    0  0.00000000000E+00 -0.00000000000E+00 -0.62816928907E+03  0.62816928907E+03  0.00000000000E+00 0. -1.
         23    2    1    2    0    0  0.00000000000E+00  0.00000000000E+00 -0.62501803496E+03  0.63132054319E+03  0.88983617753E+02 0.  0.
          2    1    3    3  502    0  0.12458961598E+02 -0.23052891505E+02 -0.57406036931E+02  0.63103998344E+02  0.00000000000E+00 0.  1.
         -2    1    3    3    0  502 -0.12458961598E+02  0.23052891505E+02 -0.56761199803E+03  0.56821654484E+03  0.00000000000E+00 0. -1.
<mgrwt>
<rscale>  0 0.88983618E+02</rscale>
<asrwt>0</asrwt>
<pdfrwt beam="2">  1        1 0.96641446E-01 0.88983618E+02</pdfrwt>
<pdfrwt beam="1">  1       -1 0.48480824E-03 0.88983618E+02</pdfrwt>
<totfact> 0.15134814E+05</totfact>
</mgrwt>
</event>
<event>
 5    1  0.3862918E+001  0.8970853E+02  0.7546771E-02  0.1303559E+00
          2   -1    0    0  501    0  0.00000000000E+00  0.00000000000E+00  0.15055530775E+04  0.15055530775E+04  0.00000000000E+00 0. -1.
         -2   -1    0    0    0  501 -0.00000000000E+00 -0.00000000000E+00 -0.13363230097E+01  0.13363230097E+01  0.00000000000E+00 0.  1.
         23    2    1    2    0    0  0.00000000000E+00  0.00000000000E+00  0.15042167545E+04  0.15068894005E+04  0.89708532921E+02 0.  0.
          2    1    3    3  502    0 -0.30794015551E+02 -0.31909408242E+02  0.86531918286E+03  0.86645471315E+03  0.00000000000E+00 0. -1.
         -2    1    3    3    0  502  0.30794015551E+02  0.31909408242E+02  0.63889757159E+03  0.64043468732E+03  0.00000000000E+00 0.  1.
<mgrwt>
<rscale>  0 0.89708533E+02</rscale>
<asrwt>0</asrwt>
<pdfrwt beam="1">  1        2 0.23162219E+00 0.89708533E+02</pdfrwt>
<pdfrwt beam="2">  1       -2 0.20558936E-03 0.89708533E+02</pdfrwt>
<totfact> 0.24592727E+05</totfact>
</mgrwt>
</event>
<event>
 5    1  0.3862918E+001  0.7984016E+02  0.7546771E-02  0.1329506E+00
         -1   -1    0    0    0  501 -0.00000000000E+00  0.00000000000E+00  0.66027098931E+03  0.66027098931E+03  0.00000000000E+00 0.  1.
          1   -1    0    0  501    0  0.00000000000E+00 -0.00000000000E+00 -0.24135741368E+01  0.24135741368E+01  0.00000000000E+00 0. -1.
         23    2    1    2    0    0  0.00000000000E+00  0.00000000000E+00  0.65785741517E+03  0.66268456344E+03  0.79840164907E+02 0.  0.
          2    1    3    3  502    0  0.15304854014E+02 -0.22411029488E+02  0.85928698357E+02  0.90112341000E+02  0.00000000000E+00 0. -1.
         -2    1    3    3    0  502 -0.15304854014E+02  0.22411029488E+02  0.57192871681E+03  0.57257222244E+03  0.00000000000E+00 0.  1.
<mgrwt>
<rscale>  0 0.79840165E+02</rscale>
<asrwt>0</asrwt>
<pdfrwt beam="2">  1        1 0.37131963E-03 0.79840165E+02</pdfrwt>
<pdfrwt beam="1">  1       -1 0.10158001E+00 0.79840165E+02</pdfrwt>
<totfact> 0.54698638E+04</totfact>
</mgrwt>
</event>
<event>
 5    1  0.3862918E+001  0.8285251E+02  0.7546771E-02  0.1321146E+00
         -4   -1    0    0    0  501 -0.00000000000E+00  0.00000000000E+00  0.13942882942E+02  0.13942882942E+02  0.00000000000E+00 0.  1.
          4   -1    0    0  501    0  0.00000000000E+00 -0.00000000000E+00 -0.12308319928E+03  0.12308319928E+03  0.00000000000E+00 0. -1.
         23    2    1    2    0    0  0.00000000000E+00  0.00000000000E+00 -0.10914031634E+03  0.13702608223E+03  0.82852510879E+02 0.  0.
          2    1    3    3  502    0  0.14594334172E+02  0.38625046624E+02 -0.60116328343E+02  0.72930526873E+02  0.00000000000E+00 0. -1.
         -2    1    3    3    0  502 -0.14594334172E+02 -0.38625046624E+02 -0.49023988000E+02  0.64095555353E+02  0.00000000000E+00 0.  1.
<mgrwt>
<rscale>  0 0.82852511E+02</rscale>
<asrwt>0</asrwt>
<pdfrwt beam="2">  1        4 0.18935877E-01 0.82852511E+02</pdfrwt>
<pdfrwt beam="1">  1       -4 0.21450589E-02 0.82852511E+02</pdfrwt>
<totfact> 0.31441770E+04</totfact>
</mgrwt>
</event>
<event>
 5    1  0.3862918E+001  0.9048491E+02  0.7546771E-02  0.1301682E+00
         -2   -1    0    0    0  501 -0.00000000000E+00  0.00000000000E+00  0.83452713034E+02  0.83452713034E+02  0.00000000000E+00 0.  1.
          2   -1    0    0  501    0  0.00000000000E+00 -0.00000000000E+00 -0.24527420391E+02  0.24527420391E+02  0.00000000000E+00 0. -1.
         23    2    1    2    0    0  0.00000000000E+00  0.00000000000E+00  0.58925292643E+02  0.10798013342E+03  0.90484910904E+02 0.  0.
          2    1    3    3  502    0 -0.15150897080E+02  0.40620143628E+02  0.14025755771E+02  0.45566079222E+02  0.00000000000E+00 0. -1.
         -2    1    3    3    0  502  0.15150897080E+02 -0.40620143628E+02  0.44899536872E+02  0.62414054203E+02  0.00000000000E+00 0.  1.
<mgrwt>
<rscale>  0 0.90484911E+02</rscale>
<asrwt>0</asrwt>
<pdfrwt beam="2">  1        2 0.37734493E-02 0.90484911E+02</pdfrwt>
<pdfrwt beam="1">  1       -2 0.12838879E-01 0.90484911E+02</pdfrwt>
<totfact> 0.85677605E+04</totfact>
</mgrwt>
</event>
<event>
 5    1  0.3862918E+001  0.8706779E+02  0.7546771E-02  0.1310112E+00
         -2   -1    0    0    0  501 -0.00000000000E+00  0.00000000000E+00  0.76036027522E+01  0.76036027522E+01  0.00000000000E+00 0.  1.
          2   -1    0    0  501    0  0.00000000000E+00 -0.00000000000E+00 -0.24925028046E+03  0.24925028046E+03  0.00000000000E+00 0. -1.
         23    2    1    2    0    0  0.00000000000E+00  0.00000000000E+00 -0.24164667770E+03  0.25685388321E+03  0.87067792402E+02 0.  0.
          2    1    3    3  502    0 -0.29287403820E+02 -0.32183881854E+02 -0.11703871226E+03  0.12486638635E+03  0.00000000000E+00 0. -1.
         -2    1    3    3    0  502  0.29287403820E+02  0.32183881854E+02 -0.12460796545E+03  0.13198749686E+03  0.00000000000E+00 0.  1.
<mgrwt>
<rscale>  0 0.87067792E+02</rscale>
<asrwt>0</asrwt>
<pdfrwt beam="2">  1        2 0.38346196E-01 0.87067792E+02</pdfrwt>
<pdfrwt beam="1">  1       -2 0.11697851E-02 0.87067792E+02</pdfrwt>
<totfact> 0.18964008E+05</totfact>
</mgrwt>
</event>
<event>
 5    1  0.3862918E+001  0.9047054E+02  0.7546771E-02  0.1301716E+00
         -3   -1    0    0    0  501 -0.00000000000E+00  0.00000000000E+00  0.24033064926E+02  0.24033064926E+02  0.00000000000E+00 0.  1.
          3   -1    0    0  501    0  0.00000000000E+00 -0.00000000000E+00 -0.85142260579E+02  0.85142260579E+02  0.00000000000E+00 0. -1.
         23    2    1    2    0    0  0.00000000000E+00  0.00000000000E+00 -0.61109195653E+02  0.10917532551E+03  0.90470536120E+02 0.  0.
          2    1    3    3  502    0  0.11439618748E+02  0.40524349274E+02 -0.10610639973E+02  0.43424341582E+02  0.00000000000E+00 0.  1.
         -2    1    3    3    0  502 -0.11439618748E+02 -0.40524349274E+02 -0.50498555679E+02  0.65750983923E+02  0.00000000000E+00 0. -1.
<mgrwt>
<rscale>  0 0.90470536E+02</rscale>
<asrwt>0</asrwt>
<pdfrwt beam="2">  1        3 0.13098809E-01 0.90470536E+02</pdfrwt>
<pdfrwt beam="1">  1       -3 0.36973946E-02 0.90470536E+02</pdfrwt>
<totfact> 0.34729062E+04</totfact>
</mgrwt>
</event>
<event>
 5    1  0.3862918E+001  0.9592798E+02  0.7546771E-02  0.1289100E+00
          2   -1    0    0  501    0  0.00000000000E+00  0.00000000000E+00  0.12333750864E+03  0.12333750864E+03  0.00000000000E+00 0. -1.
         -2   -1    0    0    0  501 -0.00000000000E+00 -0.00000000000E+00 -0.18652432444E+02  0.18652432444E+02  0.00000000000E+00 0.  1.
         23    2    1    2    0    0  0.00000000000E+00  0.00000000000E+00  0.10468507620E+03  0.14198994109E+03  0.95927984402E+02 0.  0.
          2    1    3    3  502    0 -0.38239826951E+01  0.32349995790E+02  0.10445215902E+03  0.10941388667E+03  0.00000000000E+00 0. -1.
         -2    1    3    3    0  502  0.38239826951E+01 -0.32349995790E+02  0.23291717816E+00  0.32576054422E+02  0.00000000000E+00 0.  1.
<mgrwt>
<rscale>  0 0.95927984E+02</rscale>
<asrwt>0</asrwt>
<pdfrwt beam="1">  1        2 0.18975001E-01 0.95927984E+02</pdfrwt>
<pdfrwt beam="2">  1       -2 0.28696051E-02 0.95927984E+02</pdfrwt>
<totfact> 0.11397502E+05</totfact>
</mgrwt>
</event>
<event>
 5    1  0.3862918E+001  0.9123812E+02  0.7546771E-02  0.1299881E+00
         -1   -1    0    0    0  501 -0.00000000000E+00  0.00000000000E+00  0.14386761881E+02  0.14386761881E+02  0.00000000000E+00 0.  1.
          1   -1    0    0  501    0  0.00000000000E+00 -0.00000000000E+00 -0.14465372091E+03  0.14465372091E+03  0.00000000000E+00 0. -1.
         23    2    1    2    0    0  0.00000000000E+00  0.00000000000E+00 -0.13026695903E+03  0.15904048279E+03  0.91238120058E+02 0.  0.
          2    1    3    3  502    0 -0.23602656291E+02  0.15830549914E+02 -0.12733699989E+03  0.13046993230E+03  0.00000000000E+00 0. -1.
         -2    1    3    3    0  502  0.23602656291E+02 -0.15830549914E+02 -0.29299591383E+01  0.28570550486E+02  0.00000000000E+00 0.  1.
<mgrwt>
<rscale>  0 0.91238120E+02</rscale>
<asrwt>0</asrwt>
<pdfrwt beam="2">  1        1 0.22254419E-01 0.91238120E+02</pdfrwt>
<pdfrwt beam="1">  1       -1 0.22133480E-02 0.91238120E+02</pdfrwt>
<totfact> 0.11118788E+05</totfact>
</mgrwt>
</event>
<event>
 5    1  0.3862918E+001  0.9139577E+02  0.7546771E-02  0.1299506E+00
          3   -1    0    0  501    0  0.00000000000E+00  0.00000000000E+00  0.60001991934E+02  0.60001991934E+02  0.00000000000E+00 0. -1.
         -3   -1    0    0    0  501 -0.00000000000E+00 -0.00000000000E+00 -0.34803787767E+02  0.34803787767E+02  0.00000000000E+00 0.  1.
         23    2    1    2    0    0  0.00000000000E+00  0.00000000000E+00  0.25198204167E+02  0.94805779701E+02  0.91395767798E+02 0.  0.
          2    1    3    3  502    0 -0.58586157076E+01 -0.43224412638E+02  0.26731799205E+02  0.51159186024E+02  0.00000000000E+00 0. -1.
         -2    1    3    3    0  502  0.58586157076E+01  0.43224412638E+02 -0.15335950374E+01  0.43646593677E+02  0.00000000000E+00 0.  1.
<mgrwt>
<rscale>  0 0.91395768E+02</rscale>
<asrwt>0</asrwt>
<pdfrwt beam="1">  1        3 0.92310757E-02 0.91395768E+02</pdfrwt>
<pdfrwt beam="2">  1       -3 0.53544289E-02 0.91395768E+02</pdfrwt>
<totfact> 0.34832566E+04</totfact>
</mgrwt>
</event>
<event>
 5    1  0.3862918E+001  0.7967661E+02  0.7546771E-02  0.1329972E+00
          2   -1    0    0  501    0  0.00000000000E+00  0.00000000000E+00  0.10405497017E+03  0.10405497017E+03  0.00000000000E+00 0. -1.
         -2   -1    0    0    0  501 -0.00000000000E+00 -0.00000000000E+00 -0.15252425787E+02  0.15252425787E+02  0.00000000000E+00 0.  1.
         23    2    1    2    0    0  0.00000000000E+00  0.00000000000E+00  0.88802544383E+02  0.11930739596E+03  0.79676614142E+02 0.  0.
          2    1    3    3  502    0 -0.34868368304E+02  0.12397407894E+02  0.66489345660E+02  0.76094230510E+02  0.00000000000E+00 0. -1.
         -2    1    3    3    0  502  0.34868368304E+02 -0.12397407894E+02  0.22313198723E+02  0.43213165447E+02  0.00000000000E+00 0.  1.
<mgrwt>
<rscale>  0 0.79676614E+02</rscale>
<asrwt>0</asrwt>
<pdfrwt beam="1">  1        2 0.16008456E-01 0.79676614E+02</pdfrwt>
<pdfrwt beam="2">  1       -2 0.23465271E-02 0.79676614E+02</pdfrwt>
<totfact> 0.17920740E+05</totfact>
</mgrwt>
</event>
<event>
 5    1  0.3862918E+001  0.9233212E+02  0.7546771E-02  0.1297300E+00
          3   -1    0    0  501    0  0.00000000000E+00  0.00000000000E+00  0.18444826043E+03  0.18444826043E+03  0.00000000000E+00 0. -1.
         -3   -1    0    0    0  501 -0.00000000000E+00 -0.00000000000E+00 -0.11555028916E+02  0.11555028916E+02  0.00000000000E+00 0.  1.
         23    2    1    2    0    0  0.00000000000E+00  0.00000000000E+00  0.17289323151E+03  0.19600328935E+03  0.92332117550E+02 0.  0.
          2    1    3    3  502    0  0.19098285080E+02 -0.29365511689E+02  0.15028021762E+03  0.15430885126E+03  0.00000000000E+00 0. -1.
         -2    1    3    3    0  502 -0.19098285080E+02  0.29365511689E+02  0.22613013892E+02  0.41694438083E+02  0.00000000000E+00 0.  1.
<mgrwt>
<rscale>  0 0.92332118E+02</rscale>
<asrwt>0</asrwt>
<pdfrwt beam="1">  1        3 0.28376653E-01 0.92332118E+02</pdfrwt>
<pdfrwt beam="2">  1       -3 0.17776969E-02 0.92332118E+02</pdfrwt>
<totfact> 0.27745424E+04</totfact>
</mgrwt>
</event>
<event>
 5    1  0.3862918E+001  0.9095652E+02  0.7546771E-02  0.1300552E+00
          1   -1    0    0  501    0  0.00000000000E+00  0.00000000000E+00  0.86926845213E+02  0.86926845213E+02  0.00000000000E+00 0.  1.
         -1   -1    0    0    0  501 -0.00000000000E+00 -0.00000000000E+00 -0.23793249078E+02  0.23793249078E+02  0.00000000000E+00 0. -1.
         23    2    1    2    0    0  0.00000000000E+00  0.00000000000E+00  0.63133596135E+02  0.11072009429E+03  0.90956518837E+02 0.  0.
          2    1    3    3  502    0  0.24748894209E+02  0.36935995722E+02  0.43210603529E+02  0.61999450012E+02  0.00000000000E+00 0. -1.
         -2    1    3    3    0  502 -0.24748894209E+02 -0.36935995722E+02  0.19922992606E+02  0.48720644279E+02  0.00000000000E+00 0.  1.
<mgrwt>
<rscale>  0 0.90956519E+02</rscale>
<asrwt>0</asrwt>
<pdfrwt beam="1">  1        1 0.13373361E-01 0.90956519E+02</pdfrwt>
<pdfrwt beam="2">  1       -1 0.36604999E-02 0.90956519E+02</pdfrwt>
<totfact> 0.10276433E+05</totfact>
</mgrwt>
</event>
<event>
 5    1  0.3862918E+001  0.9209868E+02  0.7546771E-02  0.1297848E+00
         -2   -1    0    0    0  501 -0.00000000000E+00  0.00000000000E+00  0.48864697465E+03  0.48864697465E+03  0.00000000000E+00 0.  1.
          2   -1    0    0  501    0  0.00000000000E+00 -0.00000000000E+00 -0.43396194441E+01  0.43396194441E+01  0.00000000000E+00 0. -1.
         23    2    1    2    0    0  0.00000000000E+00  0.00000000000E+00  0.48430735521E+03  0.49298659410E+03  0.92098684301E+02 0.  0.
          2    1    3    3  502    0 -0.42425886860E+02  0.13532501357E+02  0.17939615157E+03  0.18484064398E+03  0.00000000000E+00 0. -1.
         -2    1    3    3    0  502  0.42425886860E+02 -0.13532501357E+02  0.30491120364E+03  0.30814595012E+03  0.00000000000E+00 0.  1.
<mgrwt>
<rscale>  0 0.92098684E+02</rscale>
<asrwt>0</asrwt>
<pdfrwt beam="2">  1        2 0.66763415E-03 0.92098684E+02</pdfrwt>
<pdfrwt beam="1">  1       -2 0.75176414E-01 0.92098684E+02</pdfrwt>
<totfact> 0.36003332E+04</totfact>
</mgrwt>
</event>
<event>
 5    1  0.3862918E+001  0.8995763E+02  0.7546771E-02  0.1302954E+00
          2   -1    0    0  501    0  0.00000000000E+00  0.00000000000E+00  0.30449170574E+03  0.30449170574E+03  0.00000000000E+00 0. -1.
         -2   -1    0    0    0  501 -0.00000000000E+00 -0.00000000000E+00 -0.66441673793E+01  0.66441673793E+01  0.00000000000E+00 0.  1.
         23    2    1    2    0    0  0.00000000000E+00  0.00000000000E+00  0.29784753836E+03  0.31113587312E+03  0.89957631329E+02 0.  0.
          2    1    3    3  502    0 -0.23691426522E+02 -0.25119453710E+02  0.24861716433E+03  0.25100351601E+03  0.00000000000E+00 0. -1.
         -2    1    3    3    0  502  0.23691426522E+02  0.25119453710E+02  0.49230374028E+02  0.60132357115E+02  0.00000000000E+00 0.  1.
<mgrwt>
<rscale>  0 0.89957631E+02</rscale>
<asrwt>0</asrwt>
<pdfrwt beam="1">  1        2 0.46844867E-01 0.89957631E+02</pdfrwt>
<pdfrwt beam="2">  1       -2 0.10221798E-02 0.89957631E+02</pdfrwt>
<totfact> 0.18725347E+05</totfact>
</mgrwt>
</event>
<event>
 5    1  0.3862918E+001  0.9166301E+02  0.7546771E-02  0.1298874E+00
         -3   -1    0    0    0  501 -0.00000000000E+00  0.00000000000E+00  0.10787981987E+02  0.10787981987E+02  0.00000000000E+00 0.  1.
          3   -1    0    0  501    0  0.00000000000E+00 -0.00000000000E+00 -0.19470990804E+03  0.19470990804E+03  0.00000000000E+00 0. -1.
         23    2    1    2    0    0  0.00000000000E+00  0.00000000000E+00 -0.18392192605E+03  0.20549789003E+03  0.91663012838E+02 0.  0.
          2    1    3    3  502    0  0.30148426093E+02  0.35270017295E+01 -0.14977127872E+02  0.33847920119E+02  0.00000000000E+00 0.  1.
         -2    1    3    3    0  502 -0.30148426093E+02 -0.35270017295E+01 -0.16894479818E+03  0.17164996991E+03  0.00000000000E+00 0. -1.
<mgrwt>
<rscale>  0 0.91663013E+02</rscale>
<asrwt>0</asrwt>
<pdfrwt beam="2">  1        3 0.29955373E-01 0.91663013E+02</pdfrwt>
<pdfrwt beam="1">  1       -3 0.16596894E-02 0.91663013E+02</pdfrwt>
<totfact> 0.27814251E+04</totfact>
</mgrwt>
</event>
<event>
 5    1  0.3862918E+001  0.9102546E+02  0.7546771E-02  0.1300387E+00
         -2   -1    0    0    0  501 -0.00000000000E+00  0.00000000000E+00  0.53022529829E+01  0.53022529829E+01  0.00000000000E+00 0.  1.
          2   -1    0    0  501    0  0.00000000000E+00 -0.00000000000E+00 -0.39066571605E+03  0.39066571605E+03  0.00000000000E+00 0. -1.
         23    2    1    2    0    0  0.00000000000E+00  0.00000000000E+00 -0.38536346307E+03  0.39596796903E+03  0.91025457059E+02 0.  0.
          2    1    3    3  502    0 -0.43368534476E+02  0.74838421316E+01 -0.24314467474E+03  0.24709546845E+03  0.00000000000E+00 0. -1.
         -2    1    3    3    0  502  0.43368534476E+02 -0.74838421316E+01 -0.14221878833E+03  0.14887250058E+03  0.00000000000E+00 0.  1.
<mgrwt>
<rscale>  0 0.91025457E+02</rscale>
<asrwt>0</asrwt>
<pdfrwt beam="2">  1        2 0.60102424E-01 0.91025457E+02</pdfrwt>
<pdfrwt beam="1">  1       -2 0.81573114E-03 0.91025457E+02</pdfrwt>
<totfact> 0.19881728E+05</totfact>
</mgrwt>
</event>
<event>
 5    1  0.3862918E+001  0.9094308E+02  0.7546771E-02  0.1300584E+00
         -1   -1    0    0    0  501 -0.00000000000E+00  0.00000000000E+00  0.87013386536E+01  0.87013386536E+01  0.00000000000E+00 0.  1.
          1   -1    0    0  501    0  0.00000000000E+00 -0.00000000000E+00 -0.23762563146E+03  0.23762563146E+03  0.00000000000E+00 0. -1.
         23    2    1    2    0    0  0.00000000000E+00  0.00000000000E+00 -0.22892429281E+03  0.24632697012E+03  0.90943083126E+02 0.  0.
          2    1    3    3  502    0  0.43879849235E+02 -0.68982057355E+01 -0.14081134753E+03  0.14765114969E+03  0.00000000000E+00 0. -1.
         -2    1    3    3    0  502 -0.43879849235E+02  0.68982057355E+01 -0.88112945281E+02  0.98675820429E+02  0.00000000000E+00 0.  1.
<mgrwt>
<rscale>  0 0.90943083E+02</rscale>
<asrwt>0</asrwt>
<pdfrwt beam="2">  1        1 0.36557794E-01 0.90943083E+02</pdfrwt>
<pdfrwt beam="1">  1       -1 0.13386673E-02 0.90943083E+02</pdfrwt>
<totfact> 0.12329544E+05</totfact>
</mgrwt>
</event>
<event>
 5    1  0.3862918E+001  0.8908184E+02  0.7546771E-02  0.1305090E+00
         -1   -1    0    0    0  501 -0.00000000000E+00  0.00000000000E+00  0.18405382407E+03  0.18405382407E+03  0.00000000000E+00 0.  1.
          1   -1    0    0  501    0  0.00000000000E+00 -0.00000000000E+00 -0.10778877993E+02  0.10778877993E+02  0.00000000000E+00 0. -1.
         23    2    1    2    0    0  0.00000000000E+00  0.00000000000E+00  0.17327494608E+03  0.19483270207E+03  0.89081843580E+02 0.  0.
          2    1    3    3  502    0 -0.27073503606E+02  0.34830022531E+02  0.10008224151E+03  0.10937348917E+03  0.00000000000E+00 0.  1.
         -2    1    3    3    0  502  0.27073503606E+02 -0.34830022531E+02  0.73192704567E+02  0.85459212896E+02  0.00000000000E+00 0. -1.
<mgrwt>
<rscale>  0 0.89081844E+02</rscale>
<asrwt>0</asrwt>
<pdfrwt beam="2">  1        1 0.16582891E-02 0.89081844E+02</pdfrwt>
<pdfrwt beam="1">  1       -1 0.28315971E-01 0.89081844E+02</pdfrwt>
<totfact> 0.75469733E+04</totfact>
</mgrwt>
</event>
<event>
 5    1  0.3862918E+001  0.9286472E+02  0.7546771E-02  0.1296059E+00
          2   -1    0    0  501    0  0.00000000000E+00  0.00000000000E+00  0.40685989261E+03  0.40685989261E+03  0.00000000000E+00 0. -1.
         -2   -1    0    0    0  501 -0.00000000000E+00 -0.00000000000E+00 -0.52990329588E+01  0.52990329588E+01  0.00000000000E+00 0.  1.
         23    2    1    2    0    0  0.00000000000E+00  0.00000000000E+00  0.40156085965E+03  0.41215892557E+03  0.92864718393E+02 0.  0.
          2    1    3    3  502    0 -0.22445907591E+02 -0.40565658330E+02  0.21215884594E+03  0.21716529952E+03  0.00000000000E+00 0. -1.
         -2    1    3    3    0  502  0.22445907591E+02  0.40565658330E+02  0.18940201371E+03  0.19499362605E+03  0.00000000000E+00 0.  1.
<mgrwt>
<rscale>  0 0.92864718E+02</rscale>
<asrwt>0</asrwt>
<pdfrwt beam="1">  1        2 0.62593805E-01 0.92864718E+02</pdfrwt>
<pdfrwt beam="2">  1       -2 0.81523616E-03 0.92864718E+02</pdfrwt>
<totfact> 0.19128155E+05</totfact>
</mgrwt>
</event>
<event>
 5    1  0.3862918E+001  0.6939069E+02  0.7546771E-02  0.1362177E+00
          1   -1    0    0  501    0  0.00000000000E+00  0.00000000000E+00  0.53517048803E+03  0.53517048803E+03  0.00000000000E+00 0. -1.
         -1   -1    0    0    0  501 -0.00000000000E+00 -0.00000000000E+00 -0.22493151434E+01  0.22493151434E+01  0.00000000000E+00 0.  1.
         23    2    1    2    0    0  0.00000000000E+00  0.00000000000E+00  0.53292117289E+03  0.53741980317E+03  0.69390693411E+02 0.  0.
          2    1    3    3  502    0 -0.54769895086E+01  0.31814670680E+02  0.36491343288E+03  0.36633861955E+03  0.00000000000E+00 0. -1.
         -2    1    3    3    0  502  0.54769895086E+01 -0.31814670680E+02  0.16800774001E+03  0.17108118362E+03  0.00000000000E+00 0.  1.
<mgrwt>
<rscale>  0 0.69390693E+02</rscale>
<asrwt>0</asrwt>
<pdfrwt beam="1">  1        1 0.82333820E-01 0.69390693E+02</pdfrwt>
<pdfrwt beam="2">  1       -1 0.34604891E-03 0.69390693E+02</pdfrwt>
<totfact> 0.28630737E+05</totfact>
</mgrwt>
</event>
<event>
 5    1  0.3862918E+001  0.9178215E+02  0.7546771E-02  0.1298592E+00
          1   -1    0    0  501    0  0.00000000000E+00  0.00000000000E+00  0.54091783220E+03  0.54091783220E+03  0.00000000000E+00 0. -1.
         -1   -1    0    0    0  501 -0.00000000000E+00 -0.00000000000E+00 -0.38933657039E+01  0.38933657039E+01  0.00000000000E+00 0.  1.
         23    2    1    2    0    0  0.00000000000E+00  0.00000000000E+00  0.53702446649E+03  0.54481119790E+03  0.91782153745E+02 0.  0.
          2    1    3    3  502    0  0.38765834325E+02  0.18597766924E+02  0.17329227109E+03  0.17854657114E+03  0.00000000000E+00 0. -1.
         -2    1    3    3    0  502 -0.38765834325E+02 -0.18597766924E+02  0.36373219540E+03  0.36626462676E+03  0.00000000000E+00 0.  1.
<mgrwt>
<rscale>  0 0.91782154E+02</rscale>
<asrwt>0</asrwt>
<pdfrwt beam="1">  1        1 0.83218068E-01 0.91782154E+02</pdfrwt>
<pdfrwt beam="2">  1       -1 0.59897977E-03 0.91782154E+02</pdfrwt>
<totfact> 0.13800168E+05</totfact>
</mgrwt>
</event>
<event>
 5    1  0.3862918E+001  0.9162364E+02  0.7546771E-02  0.1298967E+00
          2   -1    0    0  501    0  0.00000000000E+00  0.00000000000E+00  0.85733557329E+02  0.85733557329E+02  0.00000000000E+00 0. -1.
         -2   -1    0    0    0  501 -0.00000000000E+00 -0.00000000000E+00 -0.24479595744E+02  0.24479595744E+02  0.00000000000E+00 0.  1.
         23    2    1    2    0    0  0.00000000000E+00  0.00000000000E+00  0.61253961585E+02  0.11021315307E+03  0.91623639419E+02 0.  0.
          2    1    3    3  502    0 -0.15969332805E+01 -0.28931927660E+02  0.73310359815E+02  0.78829026953E+02  0.00000000000E+00 0. -1.
         -2    1    3    3    0  502  0.15969332805E+01  0.28931927660E+02 -0.12056398230E+02  0.31384126120E+02  0.00000000000E+00 0.  1.
<mgrwt>
<rscale>  0 0.91623639E+02</rscale>
<asrwt>0</asrwt>
<pdfrwt beam="1">  1        2 0.13189778E-01 0.91623639E+02</pdfrwt>
<pdfrwt beam="2">  1       -2 0.37660917E-02 0.91623639E+02</pdfrwt>
<totfact> 0.11559643E+05</totfact>
</mgrwt>
</event>
<event>
 5    1  0.3862918E+001  0.8457118E+02  0.7546771E-02  0.1316558E+00
         -2   -1    0    0    0  501 -0.00000000000E+00  0.00000000000E+00  0.10899023206E+03  0.10899023206E+03  0.00000000000E+00 0.  1.
          2   -1    0    0  501    0  0.00000000000E+00 -0.00000000000E+00 -0.16405791409E+02  0.16405791409E+02  0.00000000000E+00 0. -1.
         23    2    1    2    0    0  0.00000000000E+00  0.00000000000E+00  0.92584440653E+02  0.12539602347E+03  0.84571177428E+02 0.  0.
          2    1    3    3  502    0 -0.35055105685E+02  0.18547506671E+02  0.24541026386E+02  0.46638314875E+02  0.00000000000E+00 0. -1.
         -2    1    3    3    0  502  0.35055105685E+02 -0.18547506671E+02  0.68043414266E+02  0.78757708596E+02  0.00000000000E+00 0.  1.
<mgrwt>
<rscale>  0 0.84571177E+02</rscale>
<asrwt>0</asrwt>
<pdfrwt beam="2">  1        2 0.25239680E-02 0.84571177E+02</pdfrwt>
<pdfrwt beam="1">  1       -2 0.16767728E-01 0.84571177E+02</pdfrwt>
<totfact> 0.93811658E+04</totfact>
</mgrwt>
</event>
<event>
 5    1  0.3862918E+001  0.9694702E+02  0.7546771E-02  0.1286850E+00
          1   -1    0    0  501    0  0.00000000000E+00  0.00000000000E+00  0.62664288223E+02  0.62664288223E+02  0.00000000000E+00 0. -1.
         -1   -1    0    0    0  501 -0.00000000000E+00 -0.00000000000E+00 -0.37496338524E+02  0.37496338524E+02  0.00000000000E+00 0.  1.
         23    2    1    2    0    0  0.00000000000E+00  0.00000000000E+00  0.25167949699E+02  0.10016062675E+03  0.96947023979E+02 0.  0.
          2    1    3    3  502    0  0.24116983311E+02 -0.35252393781E+02 -0.11095661078E+02  0.44130192001E+02  0.00000000000E+00 0.  1.
         -2    1    3    3    0  502 -0.24116983311E+02  0.35252393781E+02  0.36263610777E+02  0.56030434746E+02  0.00000000000E+00 0. -1.
<mgrwt>
<rscale>  0 0.96947024E+02</rscale>
<asrwt>0</asrwt>
<pdfrwt beam="1">  1        1 0.96406597E-02 0.96947024E+02</pdfrwt>
<pdfrwt beam="2">  1       -1 0.57686675E-02 0.96947024E+02</pdfrwt>
<totfact> 0.81773821E+04</totfact>
</mgrwt>
</event>
<event>
 5    1  0.3862918E+001  0.9240794E+02  0.7546771E-02  0.1297123E+00
          1   -1    0    0  501    0  0.00000000000E+00  0.00000000000E+00  0.11884540021E+02  0.11884540021E+02  0.00000000000E+00 0. -1.
         -1   -1    0    0    0  501 -0.00000000000E+00 -0.00000000000E+00 -0.17962889413E+03  0.17962889413E+03  0.00000000000E+00 0.  1.
         23    2    1    2    0    0  0.00000000000E+00  0.00000000000E+00 -0.16774435411E+03  0.19151343415E+03  0.92407938647E+02 0.  0.
          2    1    3    3  502    0  0.25952086913E+02  0.18955087259E+01 -0.47452158915E+01  0.26450346733E+02  0.00000000000E+00 0. -1.
         -2    1    3    3    0  502 -0.25952086913E+02 -0.18955087259E+01 -0.16299913822E+03  0.16506308742E+03  0.00000000000E+00 0.  1.
<mgrwt>
<rscale>  0 0.92407939E+02</rscale>
<asrwt>0</asrwt>
<pdfrwt beam="1">  1        1 0.18283909E-02 0.92407939E+02</pdfrwt>
<pdfrwt beam="2">  1       -1 0.27635213E-01 0.92407939E+02</pdfrwt>
<totfact> 0.69053084E+04</totfact>
</mgrwt>
</event>
<event>
 5    1  0.3862918E+001  0.9099507E+02  0.7546771E-02  0.1300460E+00
         -2   -1    0    0    0  501 -0.00000000000E+00  0.00000000000E+00  0.25558982572E+01  0.25558982572E+01  0.00000000000E+00 0.  1.
          2   -1    0    0  501    0  0.00000000000E+00 -0.00000000000E+00 -0.80990152859E+03  0.80990152859E+03  0.00000000000E+00 0. -1.
         23    2    1    2    0    0  0.00000000000E+00  0.00000000000E+00 -0.80734563033E+03  0.81245742685E+03  0.90995074712E+02 0.  0.
          2    1    3    3  502    0 -0.68510932937E+01 -0.44472450914E+02 -0.46375997300E+03  0.46593781659E+03  0.00000000000E+00 0.  1.
         -2    1    3    3    0  502  0.68510932937E+01  0.44472450914E+02 -0.34358565734E+03  0.34651961026E+03  0.00000000000E+00 0. -1.
<mgrwt>
<rscale>  0 0.90995075E+02</rscale>
<asrwt>0</asrwt>
<pdfrwt beam="2">  1        2 0.12460055E+00 0.90995075E+02</pdfrwt>
<pdfrwt beam="1">  1       -2 0.39321413E-03 0.90995075E+02</pdfrwt>
<totfact> 0.24554566E+05</totfact>
</mgrwt>
</event>
<event>
 5    1  0.3862918E+001  0.9143618E+02  0.7546771E-02  0.1299411E+00
         -1   -1    0    0    0  501 -0.00000000000E+00  0.00000000000E+00  0.11502824822E+03  0.11502824822E+03  0.00000000000E+00 0.  1.
          1   -1    0    0  501    0  0.00000000000E+00 -0.00000000000E+00 -0.18170701114E+02  0.18170701114E+02  0.00000000000E+00 0. -1.
         23    2    1    2    0    0  0.00000000000E+00  0.00000000000E+00  0.96857547108E+02  0.13319894934E+03  0.91436183607E+02 0.  0.
          2    1    3    3  502    0 -0.22451335027E+02 -0.32211268188E+02  0.14311271233E+02  0.41790438225E+02  0.00000000000E+00 0. -1.
         -2    1    3    3    0  502  0.22451335027E+02  0.32211268188E+02  0.82546275875E+02  0.91408511112E+02  0.00000000000E+00 0.  1.
<mgrwt>
<rscale>  0 0.91436184E+02</rscale>
<asrwt>0</asrwt>
<pdfrwt beam="2">  1        1 0.27954926E-02 0.91436184E+02</pdfrwt>
<pdfrwt beam="1">  1       -1 0.17696653E-01 0.91436184E+02</pdfrwt>
<totfact> 0.78625667E+04</totfact>
</mgrwt>
</event>
<event>
 5    1  0.3862918E+001  0.9434046E+02  0.7546771E-02  0.1292668E+00
         -1   -1    0    0    0  501 -0.00000000000E+00  0.00000000000E+00  0.29016519780E+02  0.29016519780E+02  0.00000000000E+00 0.  1.
          1   -1    0    0  501    0  0.00000000000E+00 -0.00000000000E+00 -0.76681509057E+02  0.76681509057E+02  0.00000000000E+00 0. -1.
         23    2    1    2    0    0  0.00000000000E+00  0.00000000000E+00 -0.47664989277E+02  0.10569802884E+03  0.94340458433E+02 0.  0.
          2    1    3    3  502    0 -0.34903327959E+02  0.24244526203E+02 -0.89894172846E+00  0.42507028238E+02  0.00000000000E+00 0.  1.
         -2    1    3    3    0  502  0.34903327959E+02 -0.24244526203E+02 -0.46766047549E+02  0.63191000599E+02  0.00000000000E+00 0. -1.
<mgrwt>
<rscale>  0 0.94340458E+02</rscale>
<asrwt>0</asrwt>
<pdfrwt beam="2">  1        1 0.11797155E-01 0.94340458E+02</pdfrwt>
<pdfrwt beam="1">  1       -1 0.44640801E-02 0.94340458E+02</pdfrwt>
<totfact> 0.91090192E+04</totfact>
</mgrwt>
</event>
<event>
 5    1  0.3862918E+001  0.8767117E+02  0.7546771E-02  0.1308591E+00
         -2   -1    0    0    0  501 -0.00000000000E+00  0.00000000000E+00  0.36041737771E+02  0.36041737771E+02  0.00000000000E+00 0.  1.
          2   -1    0    0  501    0  0.00000000000E+00 -0.00000000000E+00 -0.53314813966E+02  0.53314813966E+02  0.00000000000E+00 0. -1.
         23    2    1    2    0    0  0.00000000000E+00  0.00000000000E+00 -0.17273076195E+02  0.89356551737E+02  0.87671170730E+02 0.  0.
          2    1    3    3  502    0 -0.33357869120E+02 -0.43920803888E+00 -0.37619405724E+02  0.50280811677E+02  0.00000000000E+00 0. -1.
         -2    1    3    3    0  502  0.33357869120E+02  0.43920803888E+00  0.20346329529E+02  0.39075740060E+02  0.00000000000E+00 0.  1.
<mgrwt>
<rscale>  0 0.87671171E+02</rscale>
<asrwt>0</asrwt>
<pdfrwt beam="2">  1        2 0.82022791E-02 0.87671171E+02</pdfrwt>
<pdfrwt beam="1">  1       -2 0.55448827E-02 0.87671171E+02</pdfrwt>
<totfact> 0.11484449E+05</totfact>
</mgrwt>
</event>
<event>
 5    1  0.3862918E+001  0.8921409E+02  0.7546771E-02  0.1304766E+00
          4   -1    0    0  501    0  0.00000000000E+00  0.00000000000E+00  0.19048439341E+03  0.19048439341E+03  0.00000000000E+00 0. -1.
         -4   -1    0    0    0  501 -0.00000000000E+00 -0.00000000000E+00 -0.10445939240E+02  0.10445939240E+02  0.00000000000E+00 0.  1.
         23    2    1    2    0    0  0.00000000000E+00  0.00000000000E+00  0.18003845417E+03  0.20093033265E+03  0.89214088566E+02 0.  0.
          2    1    3    3  502    0  0.30747678381E+02 -0.13128198857E+02  0.15652740520E+03  0.16005810791E+03  0.00000000000E+00 0. -1.
         -2    1    3    3    0  502 -0.30747678381E+02  0.13128198857E+02  0.23511048972E+02  0.40872224736E+02  0.00000000000E+00 0.  1.
<mgrwt>
<rscale>  0 0.89214089E+02</rscale>
<asrwt>0</asrwt>
<pdfrwt beam="1">  1        4 0.29305289E-01 0.89214089E+02</pdfrwt>
<pdfrwt beam="2">  1       -4 0.16070677E-02 0.89214089E+02</pdfrwt>
<totfact> 0.22623704E+04</totfact>
</mgrwt>
</event>
<event>
 5    1  0.3862918E+001  0.9020091E+02  0.7546771E-02  0.1302366E+00
         -1   -1    0    0    0  501 -0.00000000000E+00  0.00000000000E+00  0.10203571869E+02  0.10203571869E+02  0.00000000000E+00 0.  1.
          1   -1    0    0  501    0  0.00000000000E+00 -0.00000000000E+00 -0.19934695404E+03  0.19934695404E+03  0.00000000000E+00 0. -1.
         23    2    1    2    0    0  0.00000000000E+00  0.00000000000E+00 -0.18914338217E+03  0.20955052590E+03  0.90200908472E+02 0.  0.
          2    1    3    3  502    0 -0.31649974709E+02  0.14377471081E+02 -0.16132418943E+03  0.16502704830E+03  0.00000000000E+00 0. -1.
         -2    1    3    3    0  502  0.31649974709E+02 -0.14377471081E+02 -0.27819192733E+02  0.44523477605E+02  0.00000000000E+00 0.  1.
<mgrwt>
<rscale>  0 0.90200908E+02</rscale>
<asrwt>0</asrwt>
<pdfrwt beam="2">  1        1 0.30668760E-01 0.90200908E+02</pdfrwt>
<pdfrwt beam="1">  1       -1 0.15697804E-02 0.90200908E+02</pdfrwt>
<totfact> 0.12179197E+05</totfact>
</mgrwt>
</event>
<event>
 5    1  0.3862918E+001  0.9038917E+02  0.7546771E-02  0.1301912E+00
         -2   -1    0    0    0  501 -0.00000000000E+00  0.00000000000E+00  0.18044159109E+01  0.18044159109E+01  0.00000000000E+00 0.  1.
          2   -1    0    0  501    0  0.00000000000E+00 -0.00000000000E+00 -0.11319732506E+04  0.11319732506E+04  0.00000000000E+00 0. -1.
         23    2    1    2    0    0  0.00000000000E+00  0.00000000000E+00 -0.11301688347E+04  0.11337776665E+04  0.90389170679E+02 0.  0.
          2    1    3    3  502    0  0.28580865781E+02 -0.20184929865E+02 -0.92388684154E+03  0.92454918380E+03  0.00000000000E+00 0. -1.
         -2    1    3    3    0  502 -0.28580865781E+02  0.20184929865E+02 -0.20628199312E+03  0.20922848268E+03  0.00000000000E+00 0.  1.
<mgrwt>
<rscale>  0 0.90389171E+02</rscale>
<asrwt>0</asrwt>
<pdfrwt beam="2">  1        2 0.17414990E+00 0.90389171E+02</pdfrwt>
<pdfrwt beam="1">  1       -2 0.27760218E-03 0.90389171E+02</pdfrwt>
<totfact> 0.25565256E+05</totfact>
</mgrwt>
</event>
<event>
 5    1  0.3862918E+001  0.9429769E+02  0.7546771E-02  0.1292766E+00
          2   -1    0    0  501    0  0.00000000000E+00  0.00000000000E+00  0.82109830018E+01  0.82109830018E+01  0.00000000000E+00 0. -1.
         -2   -1    0    0    0  501 -0.00000000000E+00 -0.00000000000E+00 -0.27073660181E+03  0.27073660181E+03  0.00000000000E+00 0.  1.
         23    2    1    2    0    0  0.00000000000E+00  0.00000000000E+00 -0.26252561881E+03  0.27894758482E+03  0.94297691074E+02 0.  0.
          2    1    3    3  502    0  0.34223202238E+02  0.31165479787E+02 -0.10472185045E+03  0.11449533032E+03  0.00000000000E+00 0. -1.
         -2    1    3    3    0  502 -0.34223202238E+02 -0.31165479787E+02 -0.15780376836E+03  0.16445225450E+03  0.00000000000E+00 0.  1.
<mgrwt>
<rscale>  0 0.94297691E+02</rscale>
<asrwt>0</asrwt>
<pdfrwt beam="1">  1        2 0.12632280E-02 0.94297691E+02</pdfrwt>
<pdfrwt beam="2">  1       -2 0.41651789E-01 0.94297691E+02</pdfrwt>
<totfact> 0.49453906E+04</totfact>
</mgrwt>
</event>
<event>
 5    1  0.3862918E+001  0.9094924E+02  0.7546771E-02  0.1300569E+00
         -4   -1    0    0    0  501 -0.00000000000E+00  0.00000000000E+00  0.47949536440E+03  0.47949536440E+03  0.00000000000E+00 0. -1.
          4   -1    0    0  501    0  0.00000000000E+00 -0.00000000000E+00 -0.43127442065E+01  0.43127442065E+01  0.00000000000E+00 0.  1.
         23    2    1    2    0    0  0.00000000000E+00  0.00000000000E+00  0.47518262019E+03  0.48380810861E+03  0.90949235398E+02 0.  0.
          2    1    3    3  502    0  0.19174889204E+02 -0.24307755624E+02  0.41477252736E+03  0.41592642717E+03  0.00000000000E+00 0. -1.
         -2    1    3    3    0  502 -0.19174889204E+02  0.24307755624E+02  0.60410092828E+02  0.67881681439E+02  0.00000000000E+00 0.  1.
<mgrwt>
<rscale>  0 0.90949235E+02</rscale>
<asrwt>0</asrwt>
<pdfrwt beam="2">  1        4 0.66349949E-03 0.90949235E+02</pdfrwt>
<pdfrwt beam="1">  1       -4 0.73768475E-01 0.90949235E+02</pdfrwt>
<totfact> 0.13463858E+04</totfact>
</mgrwt>
</event>
<event>
 5    1  0.3862918E+001  0.9189962E+02  0.7546771E-02  0.1298316E+00
          2   -1    0    0  501    0  0.00000000000E+00  0.00000000000E+00  0.33203130956E+01  0.33203130956E+01  0.00000000000E+00 0. -1.
         -2   -1    0    0    0  501 -0.00000000000E+00 -0.00000000000E+00 -0.63589932604E+03  0.63589932604E+03  0.00000000000E+00 0.  1.
         23    2    1    2    0    0  0.00000000000E+00  0.00000000000E+00 -0.63257901295E+03  0.63921963914E+03  0.91899616098E+02 0.  0.
          2    1    3    3  502    0 -0.27988781473E+02  0.34993866916E+02 -0.24554619407E+03  0.24960143435E+03  0.00000000000E+00 0. -1.
         -2    1    3    3    0  502  0.27988781473E+02 -0.34993866916E+02 -0.38703281888E+03  0.38961820479E+03  0.00000000000E+00 0.  1.
<mgrwt>
<rscale>  0 0.91899616E+02</rscale>
<asrwt>0</asrwt>
<pdfrwt beam="1">  1        2 0.51081715E-03 0.91899616E+02</pdfrwt>
<pdfrwt beam="2">  1       -2 0.97830713E-01 0.91899616E+02</pdfrwt>
<totfact> 0.29102703E+04</totfact>
</mgrwt>
</event>
<event>
 5    1  0.3862918E+001  0.7580560E+02  0.7546771E-02  0.1341394E+00
          2   -1    0    0  501    0  0.00000000000E+00  0.00000000000E+00  0.44106074516E+02  0.44106074516E+02  0.00000000000E+00 0. -1.
         -2   -1    0    0    0  501 -0.00000000000E+00 -0.00000000000E+00 -0.32571979073E+02  0.32571979073E+02  0.00000000000E+00 0.  1.
         23    2    1    2    0    0  0.00000000000E+00  0.00000000000E+00  0.11534095443E+02  0.76678053589E+02  0.75805597052E+02 0.  0.
          2    1    3    3  502    0  0.11463090457E+02 -0.23236974323E+02  0.33748811460E+02  0.42548110339E+02  0.00000000000E+00 0. -1.
         -2    1    3    3    0  502 -0.11463090457E+02  0.23236974323E+02 -0.22214716016E+02  0.34129943249E+02  0.00000000000E+00 0.  1.
<mgrwt>
<rscale>  0 0.75805597E+02</rscale>
<asrwt>0</asrwt>
<pdfrwt beam="1">  1        2 0.67855499E-02 0.75805597E+02</pdfrwt>
<pdfrwt beam="2">  1       -2 0.50110737E-02 0.75805597E+02</pdfrwt>
<totfact> 0.16474888E+05</totfact>
</mgrwt>
</event>
<event>
 5    1  0.3862918E+001  0.9083166E+02  0.7546771E-02  0.1300850E+00
         -2   -1    0    0    0  501 -0.00000000000E+00  0.00000000000E+00  0.42612769632E+02  0.42612769632E+02  0.00000000000E+00 0.  1.
          2   -1    0    0  501    0  0.00000000000E+00 -0.00000000000E+00 -0.48403272617E+02  0.48403272617E+02  0.00000000000E+00 0. -1.
         23    2    1    2    0    0  0.00000000000E+00  0.00000000000E+00 -0.57905029853E+01  0.91016042249E+02  0.90831657597E+02 0.  0.
          2    1    3    3  502    0  0.31695376052E+02  0.16162596819E+01  0.29657436395E+02  0.43436996811E+02  0.00000000000E+00 0.  1.
         -2    1    3    3    0  502 -0.31695376052E+02 -0.16162596819E+01 -0.35447939380E+02  0.47579045438E+02  0.00000000000E+00 0. -1.
<mgrwt>
<rscale>  0 0.90831658E+02</rscale>
<asrwt>0</asrwt>
<pdfrwt beam="2">  1        2 0.74466573E-02 0.90831658E+02</pdfrwt>
<pdfrwt beam="1">  1       -2 0.65558108E-02 0.90831658E+02</pdfrwt>
<totfact> 0.10131620E+05</totfact>
</mgrwt>
</event>
<event>
 5    1  0.3862918E+001  0.9314177E+02  0.7546771E-02  0.1295417E+00
         -3   -1    0    0    0  501 -0.00000000000E+00  0.00000000000E+00  0.10953084735E+04  0.10953084735E+04  0.00000000000E+00 0.  1.
          3   -1    0    0  501    0  0.00000000000E+00 -0.00000000000E+00 -0.19801246749E+01  0.19801246749E+01  0.00000000000E+00 0. -1.
         23    2    1    2    0    0  0.00000000000E+00  0.00000000000E+00  0.10933283488E+04  0.10972885982E+04  0.93141770113E+02 0.  0.
          2    1    3    3  502    0 -0.22414096522E+02 -0.36985168555E+02  0.34310670641E+03  0.34582149500E+03  0.00000000000E+00 0. -1.
         -2    1    3    3    0  502  0.22414096522E+02  0.36985168555E+02  0.75022164240E+03  0.75146710317E+03  0.00000000000E+00 0.  1.
<mgrwt>
<rscale>  0 0.93141770E+02</rscale>
<asrwt>0</asrwt>
<pdfrwt beam="2">  1        3 0.30463544E-03 0.93141770E+02</pdfrwt>
<pdfrwt beam="1">  1       -3 0.16850851E+00 0.93141770E+02</pdfrwt>
<totfact> 0.85346074E+03</totfact>
</mgrwt>
</event>
<event>
 5    1  0.3862918E+001  0.9194428E+02  0.7546771E-02  0.1298210E+00
          2   -1    0    0  501    0  0.00000000000E+00  0.00000000000E+00  0.10388590170E+03  0.10388590170E+03  0.00000000000E+00 0. -1.
         -2   -1    0    0    0  501 -0.00000000000E+00 -0.00000000000E+00 -0.20343835264E+02  0.20343835264E+02  0.00000000000E+00 0.  1.
         23    2    1    2    0    0  0.00000000000E+00  0.00000000000E+00  0.83542066434E+02  0.12422973696E+03  0.91944280309E+02 0.  0.
          2    1    3    3  502    0 -0.33525090829E+02 -0.27607861057E+02  0.62142016591E+02  0.75813956058E+02  0.00000000000E+00 0. -1.
         -2    1    3    3    0  502  0.33525090829E+02  0.27607861057E+02  0.21400049844E+02  0.48415780904E+02  0.00000000000E+00 0.  1.
<mgrwt>
<rscale>  0 0.91944280E+02</rscale>
<asrwt>0</asrwt>
<pdfrwt beam="1">  1        2 0.15982446E-01 0.91944280E+02</pdfrwt>
<pdfrwt beam="2">  1       -2 0.31298209E-02 0.91944280E+02</pdfrwt>
<totfact> 0.12128500E+05</totfact>
</mgrwt>
</event>
<event>
 5    1  0.3862918E+001  0.8900734E+02  0.7546771E-02  0.1305274E+00
          1   -1    0    0  501    0  0.00000000000E+00  0.00000000000E+00  0.49054160625E+03  0.49054160625E+03  0.00000000000E+00 0. -1.
         -1   -1    0    0    0  501 -0.00000000000E+00 -0.00000000000E+00 -0.40375303869E+01  0.40375303869E+01  0.00000000000E+00 0.  1.
         23    2    1    2    0    0  0.00000000000E+00  0.00000000000E+00  0.48650407587E+03  0.49457913664E+03  0.89007339951E+02 0.  0.
          2    1    3    3  502    0 -0.33684236655E+01  0.41811570366E+02  0.32586128284E+03  0.32855004086E+03  0.00000000000E+00 0. -1.
         -2    1    3    3    0  502  0.33684236655E+01 -0.41811570366E+02  0.16064279302E+03  0.16602909578E+03  0.00000000000E+00 0.  1.
<mgrwt>
<rscale>  0 0.89007340E+02</rscale>
<asrwt>0</asrwt>
<pdfrwt beam="1">  1        1 0.75467892E-01 0.89007340E+02</pdfrwt>
<pdfrwt beam="2">  1       -1 0.62115891E-03 0.89007340E+02</pdfrwt>
<totfact> 0.14808786E+05</totfact>
</mgrwt>
</event>
<event>
 5    1  0.3862918E+001  0.9086545E+02  0.7546771E-02  0.1300769E+00
          2   -1    0    0  501    0  0.00000000000E+00  0.00000000000E+00  0.16236376295E+03  0.16236376295E+03  0.00000000000E+00 0. -1.
         -2   -1    0    0    0  501 -0.00000000000E+00 -0.00000000000E+00 -0.12713012217E+02  0.12713012217E+02  0.00000000000E+00 0.  1.
         23    2    1    2    0    0  0.00000000000E+00  0.00000000000E+00  0.14965075074E+03  0.17507677517E+03  0.90865450026E+02 0.  0.
          2    1    3    3  502    0  0.21586138524E+02  0.39641223234E+02  0.84789688655E+02  0.96055605032E+02  0.00000000000E+00 0.  1.
         -2    1    3    3    0  502 -0.21586138524E+02 -0.39641223234E+02  0.64861062081E+02  0.79021170139E+02  0.00000000000E+00 0. -1.
<mgrwt>
<rscale>  0 0.90865450E+02</rscale>
<asrwt>0</asrwt>
<pdfrwt beam="1">  1        2 0.24979039E-01 0.90865450E+02</pdfrwt>
<pdfrwt beam="2">  1       -2 0.19558481E-02 0.90865450E+02</pdfrwt>
<totfact> 0.14499923E+05</totfact>
</mgrwt>
</event>
<event>
 5    1  0.3862918E+001  0.9366514E+02  0.7546771E-02  0.1294211E+00
         -3   -1    0    0    0  501 -0.00000000000E+00  0.00000000000E+00  0.38663954898E+02  0.38663954898E+02  0.00000000000E+00 0.  1.
          3   -1    0    0  501    0  0.00000000000E+00 -0.00000000000E+00 -0.56726987592E+02  0.56726987592E+02  0.00000000000E+00 0. -1.
         23    2    1    2    0    0  0.00000000000E+00  0.00000000000E+00 -0.18063032694E+02  0.95390942491E+02  0.93665141644E+02 0.  0.
          2    1    3    3  502    0 -0.38322393010E+02  0.18751780022E+02 -0.28702014686E+02  0.51420236357E+02  0.00000000000E+00 0. -1.
         -2    1    3    3    0  502  0.38322393010E+02 -0.18751780022E+02  0.10638981992E+02  0.43970706133E+02  0.00000000000E+00 0.  1.
<mgrwt>
<rscale>  0 0.93665142E+02</rscale>
<asrwt>0</asrwt>
<pdfrwt beam="2">  1        3 0.87272289E-02 0.93665142E+02</pdfrwt>
<pdfrwt beam="1">  1       -3 0.59483007E-02 0.93665142E+02</pdfrwt>
<totfact> 0.32534337E+04</totfact>
</mgrwt>
</event>
<event>
 5    1  0.3862918E+001  0.9075093E+02  0.7546771E-02  0.1301043E+00
          2   -1    0    0  501    0  0.00000000000E+00  0.00000000000E+00  0.42887050049E+02  0.42887050049E+02  0.00000000000E+00 0. -1.
         -2   -1    0    0    0  501 -0.00000000000E+00 -0.00000000000E+00 -0.48008266454E+02  0.48008266454E+02  0.00000000000E+00 0.  1.
         23    2    1    2    0    0  0.00000000000E+00  0.00000000000E+00 -0.51212164048E+01  0.90895316503E+02  0.90750932253E+02 0.  0.
          2    1    3    3  502    0 -0.23353220230E+02 -0.36029866566E+01 -0.41359540423E+02  0.47633664482E+02  0.00000000000E+00 0.  1.
         -2    1    3    3    0  502  0.23353220230E+02  0.36029866566E+01  0.36238324018E+02  0.43261652021E+02  0.00000000000E+00 0. -1.
<mgrwt>
<rscale>  0 0.90750932E+02</rscale>
<asrwt>0</asrwt>
<pdfrwt beam="1">  1        2 0.65980077E-02 0.90750932E+02</pdfrwt>
<pdfrwt beam="2">  1       -2 0.73858872E-02 0.90750932E+02</pdfrwt>
<totfact> 0.98442993E+04</totfact>
</mgrwt>
</event>
<event>
 5    1  0.3862918E+001  0.9108292E+02  0.7546771E-02  0.1300250E+00
         -1   -1    0    0    0  501 -0.00000000000E+00  0.00000000000E+00  0.19722324114E+03  0.19722324114E+03  0.00000000000E+00 0.  1.
          1   -1    0    0  501    0  0.00000000000E+00 -0.00000000000E+00 -0.10516126376E+02  0.10516126376E+02  0.00000000000E+00 0. -1.
         23    2    1    2    0    0  0.00000000000E+00  0.00000000000E+00  0.18670711476E+03  0.20773936751E+03  0.91082918884E+02 0.  0.
          2    1    3    3  502    0  0.14573851917E+02  0.35927367558E+02  0.38860209842E+02  0.54893431377E+02  0.00000000000E+00 0. -1.
         -2    1    3    3    0  502 -0.14573851917E+02 -0.35927367558E+02  0.14784690492E+03  0.15284593614E+03  0.00000000000E+00 0.  1.
<mgrwt>
<rscale>  0 0.91082919E+02</rscale>
<asrwt>0</asrwt>
<pdfrwt beam="2">  1        1 0.16178657E-02 0.91082919E+02</pdfrwt>
<pdfrwt beam="1">  1       -1 0.30342034E-01 0.91082919E+02</pdfrwt>
<totfact> 0.69888941E+04</totfact>
</mgrwt>
</event>
<event>
 5    1  0.3862918E+001  0.9530639E+02  0.7546771E-02  0.1290488E+00
          2   -1    0    0  501    0  0.00000000000E+00  0.00000000000E+00  0.55455934091E+03  0.55455934091E+03  0.00000000000E+00 0. -1.
         -2   -1    0    0    0  501 -0.00000000000E+00 -0.00000000000E+00 -0.40948314498E+01  0.40948314498E+01  0.00000000000E+00 0.  1.
         23    2    1    2    0    0  0.00000000000E+00  0.00000000000E+00  0.55046450946E+03  0.55865417236E+03  0.95306390760E+02 0.  0.
          2    1    3    3  502    0 -0.19421570799E+02  0.43363137968E+02  0.25388107667E+03  0.25828890847E+03  0.00000000000E+00 0. -1.
         -2    1    3    3    0  502  0.19421570799E+02 -0.43363137968E+02  0.29658343279E+03  0.30036526389E+03  0.00000000000E+00 0.  1.
<mgrwt>
<rscale>  0 0.95306391E+02</rscale>
<asrwt>0</asrwt>
<pdfrwt beam="1">  1        2 0.85316762E-01 0.95306391E+02</pdfrwt>
<pdfrwt beam="2">  1       -2 0.62997451E-03 0.95306391E+02</pdfrwt>
<totfact> 0.19797427E+05</totfact>
</mgrwt>
</event>
<event>
 5    1  0.3862918E+001  0.9118913E+02  0.7546771E-02  0.1299997E+00
         -1   -1    0    0    0  501 -0.00000000000E+00  0.00000000000E+00  0.13903948969E+01  0.13903948969E+01  0.00000000000E+00 0.  1.
          1   -1    0    0  501    0  0.00000000000E+00 -0.00000000000E+00 -0.14951611573E+04  0.14951611573E+04  0.00000000000E+00 0. -1.
         23    2    1    2    0    0  0.00000000000E+00  0.00000000000E+00 -0.14937707624E+04  0.14965515522E+04  0.91189131876E+02 0.  0.
          2    1    3    3  502    0 -0.23512486082E+02  0.37409308435E+02 -0.93152115454E+03  0.93256847186E+03  0.00000000000E+00 0. -1.
         -2    1    3    3    0  502  0.23512486082E+02 -0.37409308435E+02 -0.56224960784E+03  0.56398308031E+03  0.00000000000E+00 0.  1.
<mgrwt>
<rscale>  0 0.91189132E+02</rscale>
<asrwt>0</asrwt>
<pdfrwt beam="2">  1        1 0.23002522E+00 0.91189132E+02</pdfrwt>
<pdfrwt beam="1">  1       -1 0.21390651E-03 0.91189132E+02</pdfrwt>
<totfact> 0.11076177E+05</totfact>
</mgrwt>
</event>
<event>
 5    1  0.3862918E+001  0.7316513E+02  0.7546771E-02  0.1349649E+00
          3   -1    0    0  501    0  0.00000000000E+00  0.00000000000E+00  0.33073452361E+01  0.33073452361E+01  0.00000000000E+00 0. -1.
         -3   -1    0    0    0  501 -0.00000000000E+00 -0.00000000000E+00 -0.40463991305E+03  0.40463991305E+03  0.00000000000E+00 0.  1.
         23    2    1    2    0    0  0.00000000000E+00  0.00000000000E+00 -0.40133256782E+03  0.40794725829E+03  0.73165125266E+02 0.  0.
          2    1    3    3  502    0 -0.16681918368E+02  0.23127959863E+02 -0.72899246862E+02  0.78278280008E+02  0.00000000000E+00 0. -1.
         -2    1    3    3    0  502  0.16681918368E+02 -0.23127959863E+02 -0.32843332096E+03  0.32966897828E+03  0.00000000000E+00 0.  1.
<mgrwt>
<rscale>  0 0.73165125E+02</rscale>
<asrwt>0</asrwt>
<pdfrwt beam="1">  1        3 0.50882277E-03 0.73165125E+02</pdfrwt>
<pdfrwt beam="2">  1       -3 0.62252242E-01 0.73165125E+02</pdfrwt>
<totfact> 0.36392074E+04</totfact>
</mgrwt>
</event>
<event>
 5    1  0.3862918E+001  0.9421377E+02  0.7546771E-02  0.1292957E+00
         -3   -1    0    0    0  501 -0.00000000000E+00  0.00000000000E+00  0.33838904072E+01  0.33838904072E+01  0.00000000000E+00 0.  1.
          3   -1    0    0  501    0  0.00000000000E+00 -0.00000000000E+00 -0.65577138430E+03  0.65577138430E+03  0.00000000000E+00 0. -1.
         23    2    1    2    0    0  0.00000000000E+00  0.00000000000E+00 -0.65238749389E+03  0.65915527470E+03  0.94213767499E+02 0.  0.
          2    1    3    3  502    0  0.31831280286E+01  0.23282231107E+02 -0.61183664595E+03  0.61228773948E+03  0.00000000000E+00 0. -1.
         -2    1    3    3    0  502 -0.31831280286E+01 -0.23282231107E+02 -0.40550847938E+02  0.46867535223E+02  0.00000000000E+00 0.  1.
<mgrwt>
<rscale>  0 0.94213767E+02</rscale>
<asrwt>0</asrwt>
<pdfrwt beam="2">  1        3 0.10088789E+00 0.94213767E+02</pdfrwt>
<pdfrwt beam="1">  1       -3 0.52059860E-03 0.94213767E+02</pdfrwt>
<totfact> 0.13396538E+04</totfact>
</mgrwt>
</event>
<event>
 5    1  0.3862918E+001  0.9207075E+02  0.7546771E-02  0.1297913E+00
          2   -1    0    0  501    0  0.00000000000E+00  0.00000000000E+00  0.43024397194E+03  0.43024397194E+03  0.00000000000E+00 0. -1.
         -2   -1    0    0    0  501 -0.00000000000E+00 -0.00000000000E+00 -0.49257069602E+01  0.49257069602E+01  0.00000000000E+00 0.  1.
         23    2    1    2    0    0  0.00000000000E+00  0.00000000000E+00  0.42531826498E+03  0.43516967890E+03  0.92070749474E+02 0.  0.
          2    1    3    3  502    0 -0.18495098333E+02  0.15897949154E+02  0.39719995056E+03  0.39794800436E+03  0.00000000000E+00 0. -1.
         -2    1    3    3    0  502  0.18495098333E+02 -0.15897949154E+02  0.28118314415E+02  0.37221674535E+02  0.00000000000E+00 0.  1.
<mgrwt>
<rscale>  0 0.92070749E+02</rscale>
<asrwt>0</asrwt>
<pdfrwt beam="1">  1        2 0.66191351E-01 0.92070749E+02</pdfrwt>
<pdfrwt beam="2">  1       -2 0.75780141E-03 0.92070749E+02</pdfrwt>
<totfact> 0.19959675E+05</totfact>
</mgrwt>
</event>
<event>
 5    1  0.3862918E+001  0.9620695E+02  0.7546771E-02  0.1288481E+00
          1   -1    0    0  501    0  0.00000000000E+00  0.00000000000E+00  0.60837918438E+03  0.60837918438E+03  0.00000000000E+00 0. -1.
         -1   -1    0    0    0  501 -0.00000000000E+00 -0.00000000000E+00 -0.38034573023E+01  0.38034573023E+01  0.00000000000E+00 0.  1.
         23    2    1    2    0    0  0.00000000000E+00  0.00000000000E+00  0.60457572708E+03  0.61218264168E+03  0.96206948842E+02 0.  0.
          2    1    3    3  502    0 -0.16342929517E+02  0.43193332039E+02  0.38794044410E+03  0.39067959180E+03  0.00000000000E+00 0. -1.
         -2    1    3    3    0  502  0.16342929517E+02 -0.43193332039E+02  0.21663528298E+03  0.22150304989E+03  0.00000000000E+00 0.  1.
<mgrwt>
<rscale>  0 0.96206949E+02</rscale>
<asrwt>0</asrwt>
<pdfrwt beam="1">  1        1 0.93596721E-01 0.96206949E+02</pdfrwt>
<pdfrwt beam="2">  1       -1 0.58514776E-03 0.96206949E+02</pdfrwt>
<totfact> 0.12287711E+05</totfact>
</mgrwt>
</event>
<event>
 5    1  0.3862918E+001  0.9092026E+02  0.7546771E-02  0.1300638E+00
          1   -1    0    0  501    0  0.00000000000E+00  0.00000000000E+00  0.15364561053E+04  0.15364561053E+04  0.00000000000E+00 0. -1.
         -1   -1    0    0    0  501 -0.00000000000E+00 -0.00000000000E+00 -0.13450586319E+01  0.13450586319E+01  0.00000000000E+00 0.  1.
         23    2    1    2    0    0  0.00000000000E+00  0.00000000000E+00  0.15351110467E+04  0.15378011639E+04  0.90920262802E+02 0.  0.
          2    1    3    3  502    0 -0.45404371230E+02  0.75757709958E+00  0.80340584659E+03  0.80468819128E+03  0.00000000000E+00 0. -1.
         -2    1    3    3    0  502  0.45404371230E+02 -0.75757709958E+00  0.73170520007E+03  0.73311297265E+03  0.00000000000E+00 0.  1.
<mgrwt>
<rscale>  0 0.90920263E+02</rscale>
<asrwt>0</asrwt>
<pdfrwt beam="1">  1        1 0.23637646E+00 0.90920263E+02</pdfrwt>
<pdfrwt beam="2">  1       -1 0.20693333E-03 0.90920263E+02</pdfrwt>
<totfact> 0.10911141E+05</totfact>
</mgrwt>
</event>
<event>
 5    1  0.3862918E+001  0.8947134E+02  0.7546771E-02  0.1304137E+00
         -2   -1    0    0    0  501 -0.00000000000E+00  0.00000000000E+00  0.65309479514E+00  0.65309479514E+00  0.00000000000E+00 0.  1.
          2   -1    0    0  501    0  0.00000000000E+00 -0.00000000000E+00 -0.30643030319E+04  0.30643030319E+04  0.00000000000E+00 0. -1.
         23    2    1    2    0    0  0.00000000000E+00  0.00000000000E+00 -0.30636499371E+04  0.30649561267E+04  0.89471344260E+02 0.  0.
          2    1    3    3  502    0  0.30506630394E+02  0.18141481760E+02 -0.59900133908E+03  0.60005197448E+03  0.00000000000E+00 0. -1.
         -2    1    3    3    0  502 -0.30506630394E+02 -0.18141481760E+02 -0.24646485981E+04  0.24649041522E+04  0.00000000000E+00 0.  1.
<mgrwt>
<rscale>  0 0.89471344E+02</rscale>
<asrwt>0</asrwt>
<pdfrwt beam="2">  1        2 0.47143938E+00 0.89471344E+02</pdfrwt>
<pdfrwt beam="1">  1       -2 0.10047439E-03 0.89471344E+02</pdfrwt>
<totfact> 0.10138061E+05</totfact>
</mgrwt>
</event>
<event>
 5    1  0.3862918E+001  0.8928291E+02  0.7546771E-02  0.1304598E+00
          2   -1    0    0  501    0  0.00000000000E+00  0.00000000000E+00  0.67936381118E+03  0.67936381118E+03  0.00000000000E+00 0. -1.
         -2   -1    0    0    0  501 -0.00000000000E+00 -0.00000000000E+00 -0.29334204010E+01  0.29334204010E+01  0.00000000000E+00 0.  1.
         23    2    1    2    0    0  0.00000000000E+00  0.00000000000E+00  0.67643039078E+03  0.68229723158E+03  0.89282913560E+02 0.  0.
          2    1    3    3  502    0 -0.44265870752E+02 -0.11659890748E+01  0.38146686114E+03  0.38402837525E+03  0.00000000000E+00 0. -1.
         -2    1    3    3    0  502  0.44265870752E+02  0.11659890748E+01  0.29496352964E+03  0.29826885634E+03  0.00000000000E+00 0.  1.
<mgrwt>
<rscale>  0 0.89282914E+02</rscale>
<asrwt>0</asrwt>
<pdfrwt beam="1">  1        2 0.10451738E+00 0.89282914E+02</pdfrwt>
<pdfrwt beam="2">  1       -2 0.45129599E-03 0.89282914E+02</pdfrwt>
<totfact> 0.24884712E+05</totfact>
</mgrwt>
</event>
<event>
 5    1  0.3862918E+001  0.9433130E+02  0.7546771E-02  0.1292689E+00
          2   -1    0    0  501    0  0.00000000000E+00  0.00000000000E+00  0.10711377082E+04  0.10711377082E+04  0.00000000000E+00 0. -1.
         -2   -1    0    0    0  501 -0.00000000000E+00 -0.00000000000E+00 -0.20768558687E+01  0.20768558687E+01  0.00000000000E+00 0.  1.
         23    2    1    2    0    0  0.00000000000E+00  0.00000000000E+00  0.10690608523E+04  0.10732145640E+04  0.94331302023E+02 0.  0.
          2    1    3    3  502    0 -0.45362364827E+02  0.75501219469E+01  0.41528793010E+03  0.41782629569E+03  0.00000000000E+00 0. -1.
         -2    1    3    3    0  502  0.45362364827E+02 -0.75501219469E+01  0.65377292219E+03  0.65538826834E+03  0.00000000000E+00 0.  1.
<mgrwt>
<rscale>  0 0.94331302E+02</rscale>
<asrwt>0</asrwt>
<pdfrwt beam="1">  1        2 0.16478998E+00 0.94331302E+02</pdfrwt>
<pdfrwt beam="2">  1       -2 0.31951714E-03 0.94331302E+02</pdfrwt>
<totfact> 0.22884669E+05</totfact>
</mgrwt>
</event>
<event>
 5    1  0.3862918E+001  0.8753269E+02  0.7546771E-02  0.1308939E+00
          1   -1    0    0  501    0  0.00000000000E+00  0.00000000000E+00  0.15071268403E+02  0.15071268403E+02  0.00000000000E+00 0. -1.
         -1   -1    0    0    0  501 -0.00000000000E+00 -0.00000000000E+00 -0.12709567736E+03  0.12709567736E+03  0.00000000000E+00 0.  1.
         23    2    1    2    0    0  0.00000000000E+00  0.00000000000E+00 -0.11202440896E+03  0.14216694577E+03  0.87532692553E+02 0.  0.
          2    1    3    3  502    0  0.43288074711E+02  0.47272487496E+00 -0.66464036486E+02  0.79319285341E+02  0.00000000000E+00 0. -1.
         -2    1    3    3    0  502 -0.43288074711E+02 -0.47272487496E+00 -0.45560372473E+02  0.62847660425E+02  0.00000000000E+00 0.  1.
<mgrwt>
<rscale>  0 0.87532693E+02</rscale>
<asrwt>0</asrwt>
<pdfrwt beam="1">  1        1 0.23186566E-02 0.87532693E+02</pdfrwt>
<pdfrwt beam="2">  1       -1 0.19553182E-01 0.87532693E+02</pdfrwt>
<totfact> 0.86221253E+04</totfact>
</mgrwt>
</event>
<event>
 5    1  0.3862918E+001  0.8923390E+02  0.7546771E-02  0.1304718E+00
         -2   -1    0    0    0  501 -0.00000000000E+00  0.00000000000E+00  0.21653703426E+01  0.21653703426E+01  0.00000000000E+00 0.  1.
          2   -1    0    0  501    0  0.00000000000E+00 -0.00000000000E+00 -0.91932186396E+03  0.91932186396E+03  0.00000000000E+00 0. -1.
         23    2    1    2    0    0  0.00000000000E+00  0.00000000000E+00 -0.91715649362E+03  0.92148723430E+03  0.89233901619E+02 0.  0.
          2    1    3    3  502    0 -0.61200631281E+01  0.40248254408E+02 -0.64710541056E+03  0.64838475424E+03  0.00000000000E+00 0. -1.
         -2    1    3    3    0  502  0.61200631281E+01 -0.40248254408E+02 -0.27005108306E+03  0.27310248006E+03  0.00000000000E+00 0.  1.
<mgrwt>
<rscale>  0 0.89233902E+02</rscale>
<asrwt>0</asrwt>
<pdfrwt beam="2">  1        2 0.14143417E+00 0.89233902E+02</pdfrwt>
<pdfrwt beam="1">  1       -2 0.33313380E-03 0.89233902E+02</pdfrwt>
<totfact> 0.26298812E+05</totfact>
</mgrwt>
</event>
<event>
 5    1  0.3862918E+001  0.9340548E+02  0.7546771E-02  0.1294808E+00
         -2   -1    0    0    0  501 -0.00000000000E+00  0.00000000000E+00  0.77856999738E+02  0.77856999738E+02  0.00000000000E+00 0.  1.
          2   -1    0    0  501    0  0.00000000000E+00 -0.00000000000E+00 -0.28014771936E+02  0.28014771936E+02  0.00000000000E+00 0. -1.
         23    2    1    2    0    0  0.00000000000E+00  0.00000000000E+00  0.49842227802E+02  0.10587177167E+03  0.93405483592E+02 0.  0.
          2    1    3    3  502    0 -0.31971190278E+02  0.30153242291E+02  0.42834548741E+02  0.61369158331E+02  0.00000000000E+00 0.  1.
         -2    1    3    3    0  502  0.31971190278E+02 -0.30153242291E+02  0.70076790613E+01  0.44502613342E+02  0.00000000000E+00 0. -1.
<mgrwt>
<rscale>  0 0.93405484E+02</rscale>
<asrwt>0</asrwt>
<pdfrwt beam="2">  1        2 0.43099650E-02 0.93405484E+02</pdfrwt>
<pdfrwt beam="1">  1       -2 0.11978000E-01 0.93405484E+02</pdfrwt>
<totfact> 0.80784926E+04</totfact>
</mgrwt>
</event>
<event>
 5    1  0.3862918E+001  0.8982338E+02  0.7546771E-02  0.1303280E+00
         -2   -1    0    0    0  501 -0.00000000000E+00  0.00000000000E+00  0.11130103024E+01  0.11130103024E+01  0.00000000000E+00 0.  1.
          2   -1    0    0  501    0  0.00000000000E+00 -0.00000000000E+00 -0.18122563292E+04  0.18122563292E+04  0.00000000000E+00 0. -1.
         23    2    1    2    0    0  0.00000000000E+00  0.00000000000E+00 -0.18111433189E+04  0.18133693395E+04  0.89823381477E+02 0.  0.
          2    1    3    3  502    0 -0.45543274149E+01  0.44330248490E+02 -0.79290227420E+03  0.79415359299E+03  0.00000000000E+00 0. -1.
         -2    1    3    3    0  502  0.45543274149E+01 -0.44330248490E+02 -0.10182410447E+04  0.10192157465E+04  0.00000000000E+00 0.  1.
<mgrwt>
<rscale>  0 0.89823381E+02</rscale>
<asrwt>0</asrwt>
<pdfrwt beam="2">  1        2 0.27880696E+00 0.89823381E+02</pdfrwt>
<pdfrwt beam="1">  1       -2 0.17123340E-03 0.89823381E+02</pdfrwt>
<totfact> 0.22190101E+05</totfact>
</mgrwt>
</event>
<event>
 5    1  0.3862918E+001  0.8168930E+02  0.7546771E-02  0.1324325E+00
          1   -1    0    0  501    0  0.00000000000E+00  0.00000000000E+00  0.35750267079E+01  0.35750267079E+01  0.00000000000E+00 0. -1.
         -1   -1    0    0    0  501 -0.00000000000E+00 -0.00000000000E+00 -0.46664975214E+03  0.46664975214E+03  0.00000000000E+00 0.  1.
         23    2    1    2    0    0  0.00000000000E+00  0.00000000000E+00 -0.46307472543E+03  0.47022477885E+03  0.81689297392E+02 0.  0.
          2    1    3    3  502    0 -0.22400355793E+02  0.15759820374E+02 -0.57118198507E+02  0.63345374564E+02  0.00000000000E+00 0. -1.
         -2    1    3    3    0  502  0.22400355793E+02 -0.15759820374E+02 -0.40595652692E+03  0.40687940428E+03  0.00000000000E+00 0.  1.
<mgrwt>
<rscale>  0 0.81689297E+02</rscale>
<asrwt>0</asrwt>
<pdfrwt beam="1">  1        1 0.55000427E-03 0.81689297E+02</pdfrwt>
<pdfrwt beam="2">  1       -1 0.71792248E-01 0.81689297E+02</pdfrwt>
<totfact> 0.65309079E+04</totfact>
</mgrwt>
</event>
<event>
 5    1  0.3862918E+001  0.9093030E+02  0.7546771E-02  0.1300614E+00
         -2   -1    0    0    0  501 -0.00000000000E+00  0.00000000000E+00  0.45473512522E+03  0.45473512522E+03  0.00000000000E+00 0.  1.
          2   -1    0    0  501    0  0.00000000000E+00 -0.00000000000E+00 -0.45456789957E+01  0.45456789957E+01  0.00000000000E+00 0. -1.
         23    2    1    2    0    0  0.00000000000E+00  0.00000000000E+00  0.45018944622E+03  0.45928080422E+03  0.90930300941E+02 0.  0.
          2    1    3    3  502    0  0.22740343191E+02 -0.22669251420E+02  0.62516458391E+02  0.70280336782E+02  0.00000000000E+00 0. -1.
         -2    1    3    3    0  502 -0.22740343191E+02  0.22669251420E+02  0.38767298783E+03  0.38900046743E+03  0.00000000000E+00 0.  1.
<mgrwt>
<rscale>  0 0.90930301E+02</rscale>
<asrwt>0</asrwt>
<pdfrwt beam="2">  1        2 0.69933559E-03 0.90930301E+02</pdfrwt>
<pdfrwt beam="1">  1       -2 0.69959214E-01 0.90930301E+02</pdfrwt>
<totfact> 0.39277495E+04</totfact>
</mgrwt>
</event>
<event>
 5    1  0.3862918E+001  0.8871110E+02  0.7546771E-02  0.1306003E+00
         -2   -1    0    0    0  501 -0.00000000000E+00  0.00000000000E+00  0.64228978314E+02  0.64228978314E+02  0.00000000000E+00 0.  1.
          2   -1    0    0  501    0  0.00000000000E+00 -0.00000000000E+00 -0.30631266743E+02  0.30631266743E+02  0.00000000000E+00 0. -1.
         23    2    1    2    0    0  0.00000000000E+00  0.00000000000E+00  0.33597711571E+02  0.94860245056E+02  0.88711103416E+02 0.  0.
          2    1    3    3  502    0 -0.16047055583E+02  0.36744849117E+02 -0.34821919505E+01  0.40246957528E+02  0.00000000000E+00 0. -1.
         -2    1    3    3    0  502  0.16047055583E+02 -0.36744849117E+02  0.37079903522E+02  0.54613287528E+02  0.00000000000E+00 0.  1.
<mgrwt>
<rscale>  0 0.88711103E+02</rscale>
<asrwt>0</asrwt>
<pdfrwt beam="2">  1        2 0.47125026E-02 0.88711103E+02</pdfrwt>
<pdfrwt beam="1">  1       -2 0.98813813E-02 0.88711103E+02</pdfrwt>
<totfact> 0.96451444E+04</totfact>
</mgrwt>
</event>
<event>
 5    1  0.3862918E+001  0.9012878E+02  0.7546771E-02  0.1302540E+00
         -2   -1    0    0    0  501 -0.00000000000E+00  0.00000000000E+00  0.15829736152E+04  0.15829736152E+04  0.00000000000E+00 0.  1.
          2   -1    0    0  501    0  0.00000000000E+00 -0.00000000000E+00 -0.12829014836E+01  0.12829014836E+01  0.00000000000E+00 0. -1.
         23    2    1    2    0    0  0.00000000000E+00  0.00000000000E+00  0.15816907137E+04  0.15842565167E+04  0.90128778966E+02 0.  0.
          2    1    3    3  502    0  0.32879306128E+02  0.15557722388E+02  0.12584609405E+04  0.12589865091E+04  0.00000000000E+00 0.  1.
         -2    1    3    3    0  502 -0.32879306128E+02 -0.15557722388E+02  0.32322977327E+03  0.32527000757E+03  0.00000000000E+00 0. -1.
<mgrwt>
<rscale>  0 0.90128779E+02</rscale>
<asrwt>0</asrwt>
<pdfrwt beam="2">  1        2 0.19737073E-03 0.90128779E+02</pdfrwt>
<pdfrwt beam="1">  1       -2 0.24353284E+00 0.90128779E+02</pdfrwt>
<totfact> 0.99406805E+03</totfact>
</mgrwt>
</event>
<event>
 5    1  0.3862918E+001  0.9123338E+02  0.7546771E-02  0.1299892E+00
          1   -1    0    0  501    0  0.00000000000E+00  0.00000000000E+00  0.66617973882E+01  0.66617973882E+01  0.00000000000E+00 0. -1.
         -1   -1    0    0    0  501 -0.00000000000E+00 -0.00000000000E+00 -0.31236051632E+03  0.31236051632E+03  0.00000000000E+00 0.  1.
         23    2    1    2    0    0  0.00000000000E+00  0.00000000000E+00 -0.30569871893E+03  0.31902231370E+03  0.91233381429E+02 0.  0.
          2    1    3    3  502    0 -0.33840345818E+02 -0.15616678203E+02 -0.60874767067E+02  0.71377776013E+02  0.00000000000E+00 0. -1.
         -2    1    3    3    0  502  0.33840345818E+02  0.15616678203E+02 -0.24482395186E+03  0.24764453769E+03  0.00000000000E+00 0.  1.
<mgrwt>
<rscale>  0 0.91233381E+02</rscale>
<asrwt>0</asrwt>
<pdfrwt beam="1">  1        1 0.10248921E-02 0.91233381E+02</pdfrwt>
<pdfrwt beam="2">  1       -1 0.48055457E-01 0.91233381E+02</pdfrwt>
<totfact> 0.59518274E+04</totfact>
</mgrwt>
</event>
<event>
 5    1  0.3862918E+001  0.9165587E+02  0.7546771E-02  0.1298891E+00
         -1   -1    0    0    0  501 -0.00000000000E+00  0.00000000000E+00  0.73793865925E+02  0.73793865925E+02  0.00000000000E+00 0. -1.
          1   -1    0    0  501    0  0.00000000000E+00 -0.00000000000E+00 -0.28460355125E+02  0.28460355125E+02  0.00000000000E+00 0.  1.
         23    2    1    2    0    0  0.00000000000E+00  0.00000000000E+00  0.45333510800E+02  0.10225422105E+03  0.91655870085E+02 0.  0.
          2    1    3    3  502    0  0.20874618822E+02  0.37807635681E+02  0.55632544600E+01  0.43544423604E+02  0.00000000000E+00 0. -1.
         -2    1    3    3    0  502 -0.20874618822E+02 -0.37807635681E+02  0.39770256340E+02  0.58709797446E+02  0.00000000000E+00 0.  1.
<mgrwt>
<rscale>  0 0.91655870E+02</rscale>
<asrwt>0</asrwt>
<pdfrwt beam="2">  1        1 0.43785162E-02 0.91655870E+02</pdfrwt>
<pdfrwt beam="1">  1       -1 0.11352902E-01 0.91655870E+02</pdfrwt>
<totfact> 0.84656027E+04</totfact>
</mgrwt>
</event>
<event>
 5    1  0.3862918E+001  0.9081974E+02  0.7546771E-02  0.1300879E+00
         -2   -1    0    0    0  501 -0.00000000000E+00  0.00000000000E+00  0.35393838672E+01  0.35393838672E+01  0.00000000000E+00 0.  1.
          2   -1    0    0  501    0  0.00000000000E+00 -0.00000000000E+00 -0.58260312664E+03  0.58260312664E+03  0.00000000000E+00 0. -1.
         23    2    1    2    0    0  0.00000000000E+00  0.00000000000E+00 -0.57906374277E+03  0.58614251050E+03  0.90819735903E+02 0.  0.
          2    1    3    3  502    0 -0.28553984831E+02 -0.33565284501E+02 -0.36025971089E+03  0.36294492373E+03  0.00000000000E+00 0. -1.
         -2    1    3    3    0  502  0.28553984831E+02  0.33565284501E+02 -0.21880403188E+03  0.22319758677E+03  0.00000000000E+00 0.  1.
<mgrwt>
<rscale>  0 0.90819736E+02</rscale>
<asrwt>0</asrwt>
<pdfrwt beam="2">  1        2 0.89631297E-01 0.90819736E+02</pdfrwt>
<pdfrwt beam="1">  1       -2 0.54452031E-03 0.90819736E+02</pdfrwt>
<totfact> 0.22828469E+05</totfact>
</mgrwt>
</event>
<event>
 5    1  0.3862918E+001  0.9425613E+02  0.7546771E-02  0.1292860E+00
          1   -1    0    0  501    0  0.00000000000E+00  0.00000000000E+00  0.51421559214E+02  0.51421559214E+02  0.00000000000E+00 0. -1.
         -1   -1    0    0    0  501 -0.00000000000E+00 -0.00000000000E+00 -0.43193059702E+02  0.43193059702E+02  0.00000000000E+00 0.  1.
         23    2    1    2    0    0  0.00000000000E+00  0.00000000000E+00  0.82284995114E+01  0.94614618916E+02  0.94256129288E+02 0.  0.
          2    1    3    3  502    0 -0.30909401894E+02  0.20041182211E+02  0.33620167372E+02  0.49873397357E+02  0.00000000000E+00 0. -1.
         -2    1    3    3    0  502  0.30909401894E+02 -0.20041182211E+02 -0.25391667861E+02  0.44741221559E+02  0.00000000000E+00 0.  1.
<mgrwt>
<rscale>  0 0.94256129E+02</rscale>
<asrwt>0</asrwt>
<pdfrwt beam="1">  1        1 0.79110091E-02 0.94256129E+02</pdfrwt>
<pdfrwt beam="2">  1       -1 0.66450861E-02 0.94256129E+02</pdfrwt>
<totfact> 0.85792337E+04</totfact>
</mgrwt>
</event>
<event>
 5    1  0.3862918E+001  0.8984946E+02  0.7546771E-02  0.1303217E+00
          1   -1    0    0  501    0  0.00000000000E+00  0.00000000000E+00  0.33476946737E+03  0.33476946737E+03  0.00000000000E+00 0. -1.
         -1   -1    0    0    0  501 -0.00000000000E+00 -0.00000000000E+00 -0.60287202174E+01  0.60287202174E+01  0.00000000000E+00 0.  1.
         23    2    1    2    0    0  0.00000000000E+00  0.00000000000E+00  0.32874074715E+03  0.34079818759E+03  0.89849462016E+02 0.  0.
          2    1    3    3  502    0  0.96794831141E+01  0.43278183054E+02  0.19160022673E+03  0.19666555470E+03  0.00000000000E+00 0. -1.
         -2    1    3    3    0  502 -0.96794831141E+01 -0.43278183054E+02  0.13714052043E+03  0.14413263289E+03  0.00000000000E+00 0.  1.
<mgrwt>
<rscale>  0 0.89849462E+02</rscale>
<asrwt>0</asrwt>
<pdfrwt beam="1">  1        1 0.51502980E-01 0.89849462E+02</pdfrwt>
<pdfrwt beam="2">  1       -1 0.92749568E-03 0.89849462E+02</pdfrwt>
<totfact> 0.13597395E+05</totfact>
</mgrwt>
</event>
<event>
 5    1  0.3862918E+001  0.8884462E+02  0.7546771E-02  0.1305674E+00
         -2   -1    0    0    0  501 -0.00000000000E+00  0.00000000000E+00  0.14067220081E+03  0.14067220081E+03  0.00000000000E+00 0.  1.
          2   -1    0    0  501    0  0.00000000000E+00 -0.00000000000E+00 -0.14027941628E+02  0.14027941628E+02  0.00000000000E+00 0. -1.
         23    2    1    2    0    0  0.00000000000E+00  0.00000000000E+00  0.12664425918E+03  0.15470014244E+03  0.88844615407E+02 0.  0.
          2    1    3    3  502    0  0.22413056888E+02 -0.30749849618E+02  0.23408389191E+02  0.44674948854E+02  0.00000000000E+00 0. -1.
         -2    1    3    3    0  502 -0.22413056888E+02  0.30749849618E+02  0.10323586999E+03  0.11002519359E+03  0.00000000000E+00 0.  1.
<mgrwt>
<rscale>  0 0.88844615E+02</rscale>
<asrwt>0</asrwt>
<pdfrwt beam="2">  1        2 0.21581450E-02 0.88844615E+02</pdfrwt>
<pdfrwt beam="1">  1       -2 0.21641876E-01 0.88844615E+02</pdfrwt>
<totfact> 0.76309459E+04</totfact>
</mgrwt>
</event>
<event>
 5    1  0.3862918E+001  0.9168106E+02  0.7546771E-02  0.1298831E+00
         -2   -1    0    0    0  501 -0.00000000000E+00  0.00000000000E+00  0.83245711600E+00  0.83245711600E+00  0.00000000000E+00 0.  1.
          2   -1    0    0  501    0  0.00000000000E+00 -0.00000000000E+00 -0.25242791305E+04  0.25242791305E+04  0.00000000000E+00 0. -1.
         23    2    1    2    0    0  0.00000000000E+00  0.00000000000E+00 -0.25234466734E+04  0.25251115877E+04  0.91681058567E+02 0.  0.
          2    1    3    3  502    0 -0.23105333331E+02  0.37739990544E+02 -0.15913015760E+04  0.15919167281E+04  0.00000000000E+00 0. -1.
         -2    1    3    3    0  502  0.23105333331E+02 -0.37739990544E+02 -0.93214509742E+03  0.93319485959E+03  0.00000000000E+00 0.  1.
<mgrwt>
<rscale>  0 0.91681059E+02</rscale>
<asrwt>0</asrwt>
<pdfrwt beam="2">  1        2 0.38835124E+00 0.91681059E+02</pdfrwt>
<pdfrwt beam="1">  1       -2 0.12807013E-03 0.91681059E+02</pdfrwt>
<totfact> 0.14405609E+05</totfact>
</mgrwt>
</event>
<event>
 5    1  0.3862918E+001  0.9357257E+02  0.7546771E-02  0.1294424E+00
          2   -1    0    0  501    0  0.00000000000E+00  0.00000000000E+00  0.16308933679E+04  0.16308933679E+04  0.00000000000E+00 0. -1.
         -2   -1    0    0    0  501 -0.00000000000E+00 -0.00000000000E+00 -0.13421825374E+01  0.13421825374E+01  0.00000000000E+00 0.  1.
         23    2    1    2    0    0  0.00000000000E+00  0.00000000000E+00  0.16295511854E+04  0.16322355504E+04  0.93572572879E+02 0.  0.
          2    1    3    3  502    0 -0.27697106961E+02  0.20427234067E+02  0.13676431623E+04  0.13680761020E+04  0.00000000000E+00 0. -1.
         -2    1    3    3    0  502  0.27697106961E+02 -0.20427234067E+02  0.26190802307E+03  0.26415944839E+03  0.00000000000E+00 0.  1.
<mgrwt>
<rscale>  0 0.93572573E+02</rscale>
<asrwt>0</asrwt>
<pdfrwt beam="1">  1        2 0.25090509E+00 0.93572573E+02</pdfrwt>
<pdfrwt beam="2">  1       -2 0.20649093E-03 0.93572573E+02</pdfrwt>
<totfact> 0.21234528E+05</totfact>
</mgrwt>
</event>
<event>
 5    1  0.3862918E+001  0.9316955E+02  0.7546771E-02  0.1295353E+00
         -1   -1    0    0    0  501 -0.00000000000E+00  0.00000000000E+00  0.14478345869E+03  0.14478345869E+03  0.00000000000E+00 0.  1.
          1   -1    0    0  501    0  0.00000000000E+00 -0.00000000000E+00 -0.14988875727E+02  0.14988875727E+02  0.00000000000E+00 0. -1.
         23    2    1    2    0    0  0.00000000000E+00  0.00000000000E+00  0.12979458296E+03  0.15977233442E+03  0.93169550169E+02 0.  0.
          2    1    3    3  502    0  0.17085370639E+02  0.25451408446E+02  0.47438005964E+01  0.31019150953E+02  0.00000000000E+00 0. -1.
         -2    1    3    3    0  502 -0.17085370639E+02 -0.25451408446E+02  0.12505078237E+03  0.12875318347E+03  0.00000000000E+00 0.  1.
<mgrwt>
<rscale>  0 0.93169550E+02</rscale>
<asrwt>0</asrwt>
<pdfrwt beam="2">  1        1 0.23059810E-02 0.93169550E+02</pdfrwt>
<pdfrwt beam="1">  1       -1 0.22274377E-01 0.93169550E+02</pdfrwt>
<totfact> 0.71285820E+04</totfact>
</mgrwt>
</event>
<event>
 5    1  0.3862918E+001  0.8925077E+02  0.7546771E-02  0.1304676E+00
         -4   -1    0    0    0  501 -0.00000000000E+00  0.00000000000E+00  0.42378214470E+02  0.42378214470E+02  0.00000000000E+00 0.  1.
          4   -1    0    0  501    0  0.00000000000E+00 -0.00000000000E+00 -0.46991717316E+02  0.46991717316E+02  0.00000000000E+00 0. -1.
         23    2    1    2    0    0  0.00000000000E+00  0.00000000000E+00 -0.46135028466E+01  0.89369931786E+02  0.89250771979E+02 0.  0.
          2    1    3    3  502    0  0.22130776794E+01 -0.44313058472E+02 -0.70964640266E+01  0.44932223022E+02  0.00000000000E+00 0. -1.
         -2    1    3    3    0  502 -0.22130776794E+01  0.44313058472E+02  0.24829611800E+01  0.44437708764E+02  0.00000000000E+00 0.  1.
<mgrwt>
<rscale>  0 0.89250772E+02</rscale>
<asrwt>0</asrwt>
<pdfrwt beam="2">  1        4 0.72294950E-02 0.89250772E+02</pdfrwt>
<pdfrwt beam="1">  1       -4 0.65197253E-02 0.89250772E+02</pdfrwt>
<totfact> 0.28747641E+04</totfact>
</mgrwt>
</event>
<event>
 5    1  0.3862918E+001  0.9077920E+02  0.7546771E-02  0.1300976E+00
          3   -1    0    0  501    0  0.00000000000E+00  0.00000000000E+00  0.71894281088E+03  0.71894281088E+03  0.00000000000E+00 0. -1.
         -3   -1    0    0    0  501 -0.00000000000E+00 -0.00000000000E+00 -0.28656183590E+01  0.28656183590E+01  0.00000000000E+00 0.  1.
         23    2    1    2    0    0  0.00000000000E+00  0.00000000000E+00  0.71607719252E+03  0.72180842924E+03  0.90779198452E+02 0.  0.
          2    1    3    3  502    0 -0.40933839607E+02 -0.26716743427E+01  0.51252608251E+03  0.51416505358E+03  0.00000000000E+00 0. -1.
         -2    1    3    3    0  502  0.40933839607E+02  0.26716743427E+01  0.20355111001E+03  0.20764337566E+03  0.00000000000E+00 0.  1.
<mgrwt>
<rscale>  0 0.90779198E+02</rscale>
<asrwt>0</asrwt>
<pdfrwt beam="1">  1        3 0.11060644E+00 0.90779198E+02</pdfrwt>
<pdfrwt beam="2">  1       -3 0.44086493E-03 0.90779198E+02</pdfrwt>
<totfact> 0.13725449E+04</totfact>
</mgrwt>
</event>
<event>
 5    1  0.3862918E+001  0.9025074E+02  0.7546771E-02  0.1302246E+00
         -2   -1    0    0    0  501 -0.00000000000E+00  0.00000000000E+00  0.85975782263E+00  0.85975782263E+00  0.00000000000E+00 0. -1.
          2   -1    0    0  501    0  0.00000000000E+00 -0.00000000000E+00 -0.23684566728E+04  0.23684566728E+04  0.00000000000E+00 0.  1.
         23    2    1    2    0    0  0.00000000000E+00  0.00000000000E+00 -0.23675969149E+04  0.23693164306E+04  0.90250742977E+02 0.  0.
          2    1    3    3  502    0 -0.34265241816E+02  0.12906771102E+02 -0.18761942882E+04  0.18765515444E+04  0.00000000000E+00 0.  1.
         -2    1    3    3    0  502  0.34265241816E+02 -0.12906771102E+02 -0.49140262670E+03  0.49276488619E+03  0.00000000000E+00 0. -1.
<mgrwt>
<rscale>  0 0.90250743E+02</rscale>
<asrwt>0</asrwt>
<pdfrwt beam="2">  1        2 0.36438510E+00 0.90250743E+02</pdfrwt>
<pdfrwt beam="1">  1       -2 0.13226784E-03 0.90250743E+02</pdfrwt>
<totfact> 0.16586444E+05</totfact>
</mgrwt>
</event>
<event>
 5    1  0.3862918E+001  0.8977774E+02  0.7546771E-02  0.1303391E+00
         -2   -1    0    0    0  501 -0.00000000000E+00  0.00000000000E+00  0.69374136283E+02  0.69374136283E+02  0.00000000000E+00 0.  1.
          2   -1    0    0  501    0  0.00000000000E+00 -0.00000000000E+00 -0.29045558819E+02  0.29045558819E+02  0.00000000000E+00 0. -1.
         23    2    1    2    0    0  0.00000000000E+00  0.00000000000E+00  0.40328577464E+02  0.98419695102E+02  0.89777737907E+02 0.  0.
          2    1    3    3  502    0 -0.43720786431E+02 -0.53203371461E+01  0.10657917358E+02  0.45314504917E+02  0.00000000000E+00 0. -1.
         -2    1    3    3    0  502  0.43720786431E+02  0.53203371461E+01  0.29670660106E+02  0.53105190185E+02  0.00000000000E+00 0.  1.
<mgrwt>
<rscale>  0 0.89777738E+02</rscale>
<asrwt>0</asrwt>
<pdfrwt beam="2">  1        2 0.44685475E-02 0.89777738E+02</pdfrwt>
<pdfrwt beam="1">  1       -2 0.10672944E-01 0.89777738E+02</pdfrwt>
<totfact> 0.91823204E+04</totfact>
</mgrwt>
</event>
<event>
 5    1  0.3862918E+001  0.9363517E+02  0.7546771E-02  0.1294280E+00
         -1   -1    0    0    0  501 -0.00000000000E+00  0.00000000000E+00  0.24587551615E+02  0.24587551615E+02  0.00000000000E+00 0.  1.
          1   -1    0    0  501    0  0.00000000000E+00 -0.00000000000E+00 -0.89146180882E+02  0.89146180882E+02  0.00000000000E+00 0. -1.
         23    2    1    2    0    0  0.00000000000E+00  0.00000000000E+00 -0.64558629267E+02  0.11373373250E+03  0.93635171250E+02 0.  0.
          2    1    3    3  502    0  0.77772395293E+01 -0.40530500466E+02 -0.59130428070E+02  0.72108352127E+02  0.00000000000E+00 0. -1.
         -2    1    3    3    0  502 -0.77772395293E+01  0.40530500466E+02 -0.54282011962E+01  0.41625380370E+02  0.00000000000E+00 0.  1.
<mgrwt>
<rscale>  0 0.93635171E+02</rscale>
<asrwt>0</asrwt>
<pdfrwt beam="2">  1        1 0.13714797E-01 0.93635171E+02</pdfrwt>
<pdfrwt beam="1">  1       -1 0.37827003E-02 0.93635171E+02</pdfrwt>
<totfact> 0.95288824E+04</totfact>
</mgrwt>
</event>
<event>
 5    1  0.3862918E+001  0.9139953E+02  0.7546771E-02  0.1299497E+00
         -3   -1    0    0    0  501 -0.00000000000E+00  0.00000000000E+00  0.92007103033E+02  0.92007103033E+02  0.00000000000E+00 0.  1.
          3   -1    0    0  501    0  0.00000000000E+00 -0.00000000000E+00 -0.22698992327E+02  0.22698992327E+02  0.00000000000E+00 0. -1.
         23    2    1    2    0    0  0.00000000000E+00  0.00000000000E+00  0.69308110706E+02  0.11470609536E+03  0.91399530104E+02 0.  0.
          2    1    3    3  502    0  0.33351484792E+02  0.48663142565E+01 -0.40777078752E+01  0.33950408743E+02  0.00000000000E+00 0. -1.
         -2    1    3    3    0  502 -0.33351484792E+02 -0.48663142565E+01  0.73385818581E+02  0.80755686618E+02  0.00000000000E+00 0.  1.
<mgrwt>
<rscale>  0 0.91399530E+02</rscale>
<asrwt>0</asrwt>
<pdfrwt beam="2">  1        3 0.34921527E-02 0.91399530E+02</pdfrwt>
<pdfrwt beam="1">  1       -3 0.14154939E-01 0.91399530E+02</pdfrwt>
<totfact> 0.33391594E+04</totfact>
</mgrwt>
</event>
<event>
 5    1  0.3862918E+001  0.9052241E+02  0.7546771E-02  0.1301592E+00
          2   -1    0    0  501    0  0.00000000000E+00  0.00000000000E+00  0.19916393000E+03  0.19916393000E+03  0.00000000000E+00 0.  1.
         -2   -1    0    0    0  501 -0.00000000000E+00 -0.00000000000E+00 -0.10285881047E+02  0.10285881047E+02  0.00000000000E+00 0. -1.
         23    2    1    2    0    0  0.00000000000E+00  0.00000000000E+00  0.18887804895E+03  0.20944981105E+03  0.90522405908E+02 0.  0.
          2    1    3    3  502    0  0.32867182335E+02 -0.28679893974E+02  0.66501654560E+02  0.79531490947E+02  0.00000000000E+00 0. -1.
         -2    1    3    3    0  502 -0.32867182335E+02  0.28679893974E+02  0.12237639439E+03  0.12991832010E+03  0.00000000000E+00 0.  1.
<mgrwt>
<rscale>  0 0.90522406E+02</rscale>
<asrwt>0</asrwt>
<pdfrwt beam="1">  1        2 0.30640602E-01 0.90522406E+02</pdfrwt>
<pdfrwt beam="2">  1       -2 0.15824434E-02 0.90522406E+02</pdfrwt>
<totfact> 0.15746782E+05</totfact>
</mgrwt>
</event>
<event>
 5    1  0.3862918E+001  0.9096314E+02  0.7546771E-02  0.1300536E+00
          2   -1    0    0  501    0  0.00000000000E+00  0.00000000000E+00  0.18222882382E+02  0.18222882382E+02  0.00000000000E+00 0. -1.
         -2   -1    0    0    0  501 -0.00000000000E+00 -0.00000000000E+00 -0.11351513775E+03  0.11351513775E+03  0.00000000000E+00 0.  1.
         23    2    1    2    0    0  0.00000000000E+00  0.00000000000E+00 -0.95292255366E+02  0.13173802013E+03  0.90963135474E+02 0.  0.
          2    1    3    3  502    0 -0.35820098555E+02 -0.26333353166E+02 -0.33751304749E+02  0.55818236462E+02  0.00000000000E+00 0. -1.
         -2    1    3    3    0  502  0.35820098555E+02  0.26333353166E+02 -0.61540950616E+02  0.75919783668E+02  0.00000000000E+00 0.  1.
<mgrwt>
<rscale>  0 0.90963135E+02</rscale>
<asrwt>0</asrwt>
<pdfrwt beam="1">  1        2 0.28035204E-02 0.90963135E+02</pdfrwt>
<pdfrwt beam="2">  1       -2 0.17463867E-01 0.90963135E+02</pdfrwt>
<totfact> 0.77218288E+04</totfact>
</mgrwt>
</event>
<event>
 5    1  0.3862918E+001  0.7435774E+02  0.7546771E-02  0.1345872E+00
          4   -1    0    0  501    0  0.00000000000E+00  0.00000000000E+00  0.45817309968E+01  0.45817309968E+01  0.00000000000E+00 0. -1.
         -4   -1    0    0    0  501 -0.00000000000E+00 -0.00000000000E+00 -0.30169128603E+03  0.30169128603E+03  0.00000000000E+00 0.  1.
         23    2    1    2    0    0  0.00000000000E+00  0.00000000000E+00 -0.29710955504E+03  0.30627301703E+03  0.74357738446E+02 0.  0.
          2    1    3    3  502    0 -0.34834476020E+01  0.29114799002E+02 -0.54406998340E+02  0.61805561210E+02  0.00000000000E+00 0. -1.
         -2    1    3    3    0  502  0.34834476020E+01 -0.29114799002E+02 -0.24270255670E+03  0.24446745582E+03  0.00000000000E+00 0.  1.
<mgrwt>
<rscale>  0 0.74357738E+02</rscale>
<asrwt>0</asrwt>
<pdfrwt beam="1">  1        4 0.70488173E-03 0.74357738E+02</pdfrwt>
<pdfrwt beam="2">  1       -4 0.46414041E-01 0.74357738E+02</pdfrwt>
<totfact> 0.30070179E+04</totfact>
</mgrwt>
</event>
<event>
 5    1  0.3862918E+001  0.9004365E+02  0.7546771E-02  0.1302746E+00
          2   -1    0    0  501    0  0.00000000000E+00  0.00000000000E+00  0.16607824058E+04  0.16607824058E+04  0.00000000000E+00 0. -1.
         -2   -1    0    0    0  501 -0.00000000000E+00 -0.00000000000E+00 -0.12204879294E+01  0.12204879294E+01  0.00000000000E+00 0.  1.
         23    2    1    2    0    0  0.00000000000E+00  0.00000000000E+00  0.16595619179E+04  0.16620028938E+04  0.90043653408E+02 0.  0.
          2    1    3    3  502    0  0.36506016804E+02 -0.26347041608E+02  0.83587523999E+03  0.83708677728E+03  0.00000000000E+00 0. -1.
         -2    1    3    3    0  502 -0.36506016804E+02  0.26347041608E+02  0.82368667793E+03  0.82491611650E+03  0.00000000000E+00 0.  1.
<mgrwt>
<rscale>  0 0.90043653E+02</rscale>
<asrwt>0</asrwt>
<pdfrwt beam="1">  1        2 0.25550318E+00 0.90043653E+02</pdfrwt>
<pdfrwt beam="2">  1       -2 0.18776870E-03 0.90043653E+02</pdfrwt>
<totfact> 0.23277698E+05</totfact>
</mgrwt>
</event>
<event>
 5    1  0.3862918E+001  0.9395389E+02  0.7546771E-02  0.1293550E+00
         -2   -1    0    0    0  501 -0.00000000000E+00  0.00000000000E+00  0.19048065810E+01  0.19048065810E+01  0.00000000000E+00 0.  1.
          2   -1    0    0  501    0  0.00000000000E+00 -0.00000000000E+00 -0.11585604425E+04  0.11585604425E+04  0.00000000000E+00 0. -1.
         23    2    1    2    0    0  0.00000000000E+00  0.00000000000E+00 -0.11566556359E+04  0.11604652491E+04  0.93953894125E+02 0.  0.
          2    1    3    3  502    0 -0.39650670111E+02 -0.24051986853E+02 -0.67088929989E+03  0.67249024262E+03  0.00000000000E+00 0. -1.
         -2    1    3    3    0  502  0.39650670111E+02  0.24051986853E+02 -0.48576633601E+03  0.48797500644E+03  0.00000000000E+00 0.  1.
<mgrwt>
<rscale>  0 0.93953894E+02</rscale>
<asrwt>0</asrwt>
<pdfrwt beam="2">  1        2 0.17824069E+00 0.93953894E+02</pdfrwt>
<pdfrwt beam="1">  1       -2 0.29304615E-03 0.93953894E+02</pdfrwt>
<totfact> 0.23052448E+05</totfact>
</mgrwt>
</event>
<event>
 5    1  0.3862918E+001  0.9591630E+02  0.7546771E-02  0.1289126E+00
         -2   -1    0    0    0  501 -0.00000000000E+00  0.00000000000E+00  0.11421202642E+02  0.11421202642E+02  0.00000000000E+00 0.  1.
          2   -1    0    0  501    0  0.00000000000E+00 -0.00000000000E+00 -0.20137846933E+03  0.20137846933E+03  0.00000000000E+00 0. -1.
         23    2    1    2    0    0  0.00000000000E+00  0.00000000000E+00 -0.18995726669E+03  0.21279967197E+03  0.95916303222E+02 0.  0.
          2    1    3    3  502    0 -0.20242430066E+01  0.20462707722E+02 -0.19110215417E+03  0.19220523743E+03  0.00000000000E+00 0. -1.
         -2    1    3    3    0  502  0.20242430066E+01 -0.20462707722E+02  0.11448874749E+01  0.20594434549E+02  0.00000000000E+00 0.  1.
<mgrwt>
<rscale>  0 0.95916303E+02</rscale>
<asrwt>0</asrwt>
<pdfrwt beam="2">  1        2 0.30981304E-01 0.95916303E+02</pdfrwt>
<pdfrwt beam="1">  1       -2 0.17571080E-02 0.95916303E+02</pdfrwt>
<totfact> 0.13522260E+05</totfact>
</mgrwt>
</event>
<event>
 5    1  0.3862918E+001  0.9081270E+02  0.7546771E-02  0.1300895E+00
          3   -1    0    0  501    0  0.00000000000E+00  0.00000000000E+00  0.37412427270E+03  0.37412427270E+03  0.00000000000E+00 0. -1.
         -3   -1    0    0    0  501 -0.00000000000E+00 -0.00000000000E+00 -0.55108338499E+01  0.55108338499E+01  0.00000000000E+00 0.  1.
         23    2    1    2    0    0  0.00000000000E+00  0.00000000000E+00  0.36861343885E+03  0.37963510655E+03  0.90812701888E+02 0.  0.
          2    1    3    3  502    0 -0.17245833542E+02  0.16333389552E+02  0.34608072591E+03  0.34689489364E+03  0.00000000000E+00 0. -1.
         -2    1    3    3    0  502  0.17245833542E+02 -0.16333389552E+02  0.22532712942E+02  0.32740212910E+02  0.00000000000E+00 0.  1.
<mgrwt>
<rscale>  0 0.90812702E+02</rscale>
<asrwt>0</asrwt>
<pdfrwt beam="1">  1        3 0.57557560E-01 0.90812702E+02</pdfrwt>
<pdfrwt beam="2">  1       -3 0.84782089E-03 0.90812702E+02</pdfrwt>
<totfact> 0.21473047E+04</totfact>
</mgrwt>
</event>
<event>
 5    1  0.3862918E+001  0.8873213E+02  0.7546771E-02  0.1305951E+00
          1   -1    0    0  501    0  0.00000000000E+00  0.00000000000E+00  0.23819111279E+02  0.23819111279E+02  0.00000000000E+00 0. -1.
         -1   -1    0    0    0  501 -0.00000000000E+00 -0.00000000000E+00 -0.82637334956E+02  0.82637334956E+02  0.00000000000E+00 0.  1.
         23    2    1    2    0    0  0.00000000000E+00  0.00000000000E+00 -0.58818223677E+02  0.10645644624E+03  0.88732133461E+02 0.  0.
          2    1    3    3  502    0 -0.33088239588E+02  0.55867584560E+00  0.60435573644E+01  0.33640277992E+02  0.00000000000E+00 0. -1.
         -2    1    3    3    0  502  0.33088239588E+02 -0.55867584560E+00 -0.64861781042E+02  0.72816168243E+02  0.00000000000E+00 0.  1.
<mgrwt>
<rscale>  0 0.88732133E+02</rscale>
<asrwt>0</asrwt>
<pdfrwt beam="1">  1        1 0.36644786E-02 0.88732133E+02</pdfrwt>
<pdfrwt beam="2">  1       -1 0.12713436E-01 0.88732133E+02</pdfrwt>
<totfact> 0.90248670E+04</totfact>
</mgrwt>
</event>
<event>
 5    1  0.3862918E+001  0.9154410E+02  0.7546771E-02  0.1299155E+00
         -2   -1    0    0    0  501 -0.00000000000E+00  0.00000000000E+00  0.40419779461E+03  0.40419779461E+03  0.00000000000E+00 0.  1.
          2   -1    0    0  501    0  0.00000000000E+00 -0.00000000000E+00 -0.51833053991E+01  0.51833053991E+01  0.00000000000E+00 0. -1.
         23    2    1    2    0    0  0.00000000000E+00  0.00000000000E+00  0.39901448921E+03  0.40938110001E+03  0.91544101091E+02 0.  0.
          2    1    3    3  502    0 -0.15145393312E+01  0.35341821992E+02  0.69609275513E+02  0.78081940605E+02  0.00000000000E+00 0. -1.
         -2    1    3    3    0  502  0.15145393312E+01 -0.35341821992E+02  0.32940521370E+03  0.33129915940E+03  0.00000000000E+00 0.  1.
<mgrwt>
<rscale>  0 0.91544101E+02</rscale>
<asrwt>0</asrwt>
<pdfrwt beam="2">  1        2 0.79743191E-03 0.91544101E+02</pdfrwt>
<pdfrwt beam="1">  1       -2 0.62184252E-01 0.91544101E+02</pdfrwt>
<totfact> 0.41952420E+04</totfact>
</mgrwt>
</event>
<event>
 5    1  0.3862918E+001  0.9358848E+02  0.7546771E-02  0.1294387E+00
          1   -1    0    0  501    0  0.00000000000E+00  0.00000000000E+00  0.64601199452E+03  0.64601199452E+03  0.00000000000E+00 0. -1.
         -1   -1    0    0    0  501 -0.00000000000E+00 -0.00000000000E+00 -0.33895666857E+01  0.33895666857E+01  0.00000000000E+00 0.  1.
         23    2    1    2    0    0  0.00000000000E+00  0.00000000000E+00  0.64262242784E+03  0.64940156121E+03  0.93588476538E+02 0.  0.
          2    1    3    3  502    0  0.44172370829E+02 -0.42221278529E+01  0.42438981804E+03  0.42670334234E+03  0.00000000000E+00 0. -1.
         -2    1    3    3    0  502 -0.44172370829E+02  0.42221278529E+01  0.21823260980E+03  0.22269821887E+03  0.00000000000E+00 0.  1.
<mgrwt>
<rscale>  0 0.93588477E+02</rscale>
<asrwt>0</asrwt>
<pdfrwt beam="1">  1        1 0.99386363E-01 0.93588477E+02</pdfrwt>
<pdfrwt beam="2">  1       -1 0.52147231E-03 0.93588477E+02</pdfrwt>
<totfact> 0.13256338E+05</totfact>
</mgrwt>
</event>
<event>
 5    1  0.3862918E+001  0.9047907E+02  0.7546771E-02  0.1301696E+00
         -2   -1    0    0    0  501 -0.00000000000E+00  0.00000000000E+00  0.10925749371E+01  0.10925749371E+01  0.00000000000E+00 0.  1.
          2   -1    0    0  501    0  0.00000000000E+00 -0.00000000000E+00 -0.18732037928E+04  0.18732037928E+04  0.00000000000E+00 0. -1.
         23    2    1    2    0    0  0.00000000000E+00  0.00000000000E+00 -0.18721112179E+04  0.18742963678E+04  0.90479069758E+02 0.  0.
          2    1    3    3  502    0  0.17607235636E+02  0.31504430346E+02 -0.15011194432E+04  0.15015532380E+04  0.00000000000E+00 0. -1.
         -2    1    3    3    0  502 -0.17607235636E+02 -0.31504430346E+02 -0.37099177470E+03  0.37274312975E+03  0.00000000000E+00 0.  1.
<mgrwt>
<rscale>  0 0.90479070E+02</rscale>
<asrwt>0</asrwt>
<pdfrwt beam="2">  1        2 0.28818253E+00 0.90479070E+02</pdfrwt>
<pdfrwt beam="1">  1       -2 0.16809001E-03 0.90479070E+02</pdfrwt>
<totfact> 0.21239975E+05</totfact>
</mgrwt>
</event>
<event>
 5    1  0.3862918E+001  0.9131684E+02  0.7546771E-02  0.1299694E+00
          1   -1    0    0  501    0  0.00000000000E+00  0.00000000000E+00  0.38565143925E+03  0.38565143925E+03  0.00000000000E+00 0. -1.
         -1   -1    0    0    0  501 -0.00000000000E+00 -0.00000000000E+00 -0.54056354533E+01  0.54056354533E+01  0.00000000000E+00 0.  1.
         23    2    1    2    0    0  0.00000000000E+00  0.00000000000E+00  0.38024580380E+03  0.39105707470E+03  0.91316835088E+02 0.  0.
          2    1    3    3  502    0  0.90003761161E+01 -0.23891332193E+02  0.35222756395E+03  0.35315160955E+03  0.00000000000E+00 0. -1.
         -2    1    3    3    0  502 -0.90003761161E+01  0.23891332193E+02  0.28018239850E+02  0.37905465153E+02  0.00000000000E+00 0.  1.
<mgrwt>
<rscale>  0 0.91316835E+02</rscale>
<asrwt>0</asrwt>
<pdfrwt beam="1">  1        1 0.59330969E-01 0.91316835E+02</pdfrwt>
<pdfrwt beam="2">  1       -1 0.83163653E-03 0.91316835E+02</pdfrwt>
<totfact> 0.13352842E+05</totfact>
</mgrwt>
</event>
<event>
 5    1  0.3862918E+001  0.9156209E+02  0.7546771E-02  0.1299112E+00
         -1   -1    0    0    0  501 -0.00000000000E+00  0.00000000000E+00  0.15927381859E+02  0.15927381859E+02  0.00000000000E+00 0.  1.
          1   -1    0    0  501    0  0.00000000000E+00 -0.00000000000E+00 -0.13159124979E+03  0.13159124979E+03  0.00000000000E+00 0. -1.
         23    2    1    2    0    0  0.00000000000E+00  0.00000000000E+00 -0.11566386793E+03  0.14751863165E+03  0.91562090075E+02 0.  0.
          2    1    3    3  502    0  0.31642540176E+02 -0.17721245861E+02 -0.10284603293E+03  0.10905319525E+03  0.00000000000E+00 0. -1.
         -2    1    3    3    0  502 -0.31642540176E+02  0.17721245861E+02 -0.12817835002E+02  0.38465436405E+02  0.00000000000E+00 0.  1.
<mgrwt>
<rscale>  0 0.91562090E+02</rscale>
<asrwt>0</asrwt>
<pdfrwt beam="2">  1        1 0.20244807E-01 0.91562090E+02</pdfrwt>
<pdfrwt beam="1">  1       -1 0.24503665E-02 0.91562090E+02</pdfrwt>
<totfact> 0.10826049E+05</totfact>
</mgrwt>
</event>
<event>
 5    1  0.3862918E+001  0.9067064E+02  0.7546771E-02  0.1301236E+00
          1   -1    0    0  501    0  0.00000000000E+00  0.00000000000E+00  0.30231681937E+02  0.30231681937E+02  0.00000000000E+00 0. -1.
         -1   -1    0    0    0  501 -0.00000000000E+00 -0.00000000000E+00 -0.67984686147E+02  0.67984686147E+02  0.00000000000E+00 0.  1.
         23    2    1    2    0    0  0.00000000000E+00  0.00000000000E+00 -0.37753004211E+02  0.98216368084E+02  0.90670643720E+02 0.  0.
          2    1    3    3  502    0 -0.33645439943E+01 -0.45058165029E+02 -0.14862291663E+02  0.47565177446E+02  0.00000000000E+00 0. -1.
         -2    1    3    3    0  502  0.33645439943E+01  0.45058165029E+02 -0.22890712548E+02  0.50651190637E+02  0.00000000000E+00 0.  1.
<mgrwt>
<rscale>  0 0.90670644E+02</rscale>
<asrwt>0</asrwt>
<pdfrwt beam="1">  1        1 0.46510281E-02 0.90670644E+02</pdfrwt>
<pdfrwt beam="2">  1       -1 0.10459182E-01 0.90670644E+02</pdfrwt>
<totfact> 0.88188445E+04</totfact>
</mgrwt>
</event>
<event>
 5    1  0.3862918E+001  0.9132991E+02  0.7546771E-02  0.1299663E+00
         -3   -1    0    0    0  501 -0.00000000000E+00  0.00000000000E+00  0.87983619265E+03  0.87983619265E+03  0.00000000000E+00 0.  1.
          3   -1    0    0  501    0  0.00000000000E+00 -0.00000000000E+00 -0.23700866544E+01  0.23700866544E+01  0.00000000000E+00 0. -1.
         23    2    1    2    0    0  0.00000000000E+00  0.00000000000E+00  0.87746610600E+03  0.88220627931E+03  0.91329907877E+02 0.  0.
          2    1    3    3  502    0  0.29870984014E+02  0.70242787829E+01  0.11206411627E+03  0.11618942436E+03  0.00000000000E+00 0. -1.
         -2    1    3    3    0  502 -0.29870984014E+02 -0.70242787829E+01  0.76540198973E+03  0.76601685495E+03  0.00000000000E+00 0.  1.
<mgrwt>
<rscale>  0 0.91329908E+02</rscale>
<asrwt>0</asrwt>
<pdfrwt beam="2">  1        3 0.36462942E-03 0.91329908E+02</pdfrwt>
<pdfrwt beam="1">  1       -3 0.13535915E+00 0.91329908E+02</pdfrwt>
<totfact> 0.11254110E+04</totfact>
</mgrwt>
</event>
<event>
 5    1  0.3862918E+001  0.9299359E+02  0.7546771E-02  0.1295760E+00
          1   -1    0    0  501    0  0.00000000000E+00  0.00000000000E+00  0.44693878114E+03  0.44693878114E+03  0.00000000000E+00 0. -1.
         -1   -1    0    0    0  501 -0.00000000000E+00 -0.00000000000E+00 -0.48372438182E+01  0.48372438182E+01  0.00000000000E+00 0.  1.
         23    2    1    2    0    0  0.00000000000E+00  0.00000000000E+00  0.44210153732E+03  0.45177602496E+03  0.92993588084E+02 0.  0.
          2    1    3    3  502    0 -0.11033608227E+02  0.44580946866E+02  0.25633523528E+03  0.26041688536E+03  0.00000000000E+00 0. -1.
         -2    1    3    3    0  502  0.11033608227E+02 -0.44580946866E+02  0.18576630204E+03  0.19135913960E+03  0.00000000000E+00 0.  1.
<mgrwt>
<rscale>  0 0.92993588E+02</rscale>
<asrwt>0</asrwt>
<pdfrwt beam="1">  1        1 0.68759780E-01 0.92993588E+02</pdfrwt>
<pdfrwt beam="2">  1       -1 0.74419171E-03 0.92993588E+02</pdfrwt>
<totfact> 0.13021674E+05</totfact>
</mgrwt>
</event>
<event>
 5    1  0.3862918E+001  0.8947289E+02  0.7546771E-02  0.1304133E+00
         -2   -1    0    0    0  501 -0.00000000000E+00  0.00000000000E+00  0.10450383515E+04  0.10450383515E+04  0.00000000000E+00 0. -1.
          2   -1    0    0  501    0  0.00000000000E+00 -0.00000000000E+00 -0.19150966238E+01  0.19150966238E+01  0.00000000000E+00 0.  1.
         23    2    1    2    0    0  0.00000000000E+00  0.00000000000E+00  0.10431232548E+04  0.10469534481E+04  0.89472887930E+02 0.  0.
          2    1    3    3  502    0 -0.30236752046E+02 -0.18568578110E+02  0.84036618444E+03  0.84111496076E+03  0.00000000000E+00 0. -1.
         -2    1    3    3    0  502  0.30236752046E+02  0.18568578110E+02  0.20275707039E+03  0.20583848731E+03  0.00000000000E+00 0.  1.
<mgrwt>
<rscale>  0 0.89472888E+02</rscale>
<asrwt>0</asrwt>
<pdfrwt beam="2">  1        2 0.29463109E-03 0.89472888E+02</pdfrwt>
<pdfrwt beam="1">  1       -2 0.16077468E+00 0.89472888E+02</pdfrwt>
<totfact> 0.18619685E+04</totfact>
</mgrwt>
</event>
<event>
 5    1  0.3862918E+001  0.9887796E+02  0.7546771E-02  0.1282673E+00
          3   -1    0    0  501    0  0.00000000000E+00  0.00000000000E+00  0.21607167441E+02  0.21607167441E+02  0.00000000000E+00 0. -1.
         -3   -1    0    0    0  501 -0.00000000000E+00 -0.00000000000E+00 -0.11312045503E+03  0.11312045503E+03  0.00000000000E+00 0.  1.
         23    2    1    2    0    0  0.00000000000E+00  0.00000000000E+00 -0.91513287590E+02  0.13472762247E+03  0.98877957357E+02 0.  0.
          2    1    3    3  502    0 -0.16863109406E+02  0.25510955833E+02  0.71740312790E+01  0.31410826973E+02  0.00000000000E+00 0. -1.
         -2    1    3    3    0  502  0.16863109406E+02 -0.25510955833E+02 -0.98687318869E+02  0.10331679550E+03  0.00000000000E+00 0.  1.
<mgrwt>
<rscale>  0 0.98877957E+02</rscale>
<asrwt>0</asrwt>
<pdfrwt beam="1">  1        3 0.33241796E-02 0.98877957E+02</pdfrwt>
<pdfrwt beam="2">  1       -3 0.17403147E-01 0.98877957E+02</pdfrwt>
<totfact> 0.25864723E+04</totfact>
</mgrwt>
</event>
<event>
 5    1  0.3862918E+001  0.9206325E+02  0.7546771E-02  0.1297931E+00
          2   -1    0    0  501    0  0.00000000000E+00  0.00000000000E+00  0.22509528798E+01  0.22509528798E+01  0.00000000000E+00 0. -1.
         -2   -1    0    0    0  501 -0.00000000000E+00 -0.00000000000E+00 -0.94133933125E+03  0.94133933125E+03  0.00000000000E+00 0.  1.
         23    2    1    2    0    0  0.00000000000E+00  0.00000000000E+00 -0.93908837837E+03  0.94359028413E+03  0.92063249530E+02 0.  0.
          2    1    3    3  502    0  0.37456028092E+02 -0.26018784661E+02 -0.40555389850E+03  0.40811015153E+03  0.00000000000E+00 0. -1.
         -2    1    3    3    0  502 -0.37456028092E+02  0.26018784661E+02 -0.53353447987E+03  0.53548013260E+03  0.00000000000E+00 0.  1.
<mgrwt>
<rscale>  0 0.92063250E+02</rscale>
<asrwt>0</asrwt>
<pdfrwt beam="1">  1        2 0.34630008E-03 0.92063250E+02</pdfrwt>
<pdfrwt beam="2">  1       -2 0.14482159E+00 0.92063250E+02</pdfrwt>
<totfact> 0.19530213E+04</totfact>
</mgrwt>
</event>
<event>
 5    1  0.3862918E+001  0.9306268E+02  0.7546771E-02  0.1295600E+00
         -1   -1    0    0    0  501 -0.00000000000E+00  0.00000000000E+00  0.52377018509E+02  0.52377018509E+02  0.00000000000E+00 0.  1.
          1   -1    0    0  501    0  0.00000000000E+00 -0.00000000000E+00 -0.41338086587E+02  0.41338086587E+02  0.00000000000E+00 0. -1.
         23    2    1    2    0    0  0.00000000000E+00  0.00000000000E+00  0.11038931923E+02  0.93715105096E+02  0.93062682667E+02 0.  0.
          2    1    3    3  502    0 -0.34067675735E+02  0.18630026586E+02 -0.20301693129E+02  0.43816014932E+02  0.00000000000E+00 0. -1.
         -2    1    3    3    0  502  0.34067675735E+02 -0.18630026586E+02  0.31340625051E+02  0.49899090164E+02  0.00000000000E+00 0.  1.
<mgrwt>
<rscale>  0 0.93062683E+02</rscale>
<asrwt>0</asrwt>
<pdfrwt beam="2">  1        1 0.63597056E-02 0.93062683E+02</pdfrwt>
<pdfrwt beam="1">  1       -1 0.80580029E-02 0.93062683E+02</pdfrwt>
<totfact> 0.85992355E+04</totfact>
</mgrwt>
</event>
<event>
 5    1  0.3862918E+001  0.8763741E+02  0.7546771E-02  0.1308676E+00
          2   -1    0    0  501    0  0.00000000000E+00  0.00000000000E+00  0.42249758377E+03  0.42249758377E+03  0.00000000000E+00 0. -1.
         -2   -1    0    0    0  501 -0.00000000000E+00 -0.00000000000E+00 -0.45445914270E+01  0.45445914270E+01  0.00000000000E+00 0.  1.
         23    2    1    2    0    0  0.00000000000E+00  0.00000000000E+00  0.41795299234E+03  0.42704217519E+03  0.87637409754E+02 0.  0.
          2    1    3    3  502    0 -0.37829672953E+01 -0.29922147610E+02  0.36387064986E+03  0.36511846788E+03  0.00000000000E+00 0. -1.
         -2    1    3    3    0  502  0.37829672953E+01  0.29922147610E+02  0.54082342482E+02  0.61923707313E+02  0.00000000000E+00 0.  1.
<mgrwt>
<rscale>  0 0.87637410E+02</rscale>
<asrwt>0</asrwt>
<pdfrwt beam="1">  1        2 0.64999598E-01 0.87637410E+02</pdfrwt>
<pdfrwt beam="2">  1       -2 0.69916824E-03 0.87637410E+02</pdfrwt>
<totfact> 0.22601537E+05</totfact>
</mgrwt>
</event>
<event>
 5    1  0.3862918E+001  0.9253709E+02  0.7546771E-02  0.1296822E+00
          2   -1    0    0  501    0  0.00000000000E+00  0.00000000000E+00  0.67655004005E+03  0.67655004005E+03  0.00000000000E+00 0. -1.
         -2   -1    0    0    0  501 -0.00000000000E+00 -0.00000000000E+00 -0.31642573843E+01  0.31642573843E+01  0.00000000000E+00 0.  1.
         23    2    1    2    0    0  0.00000000000E+00  0.00000000000E+00  0.67338578266E+03  0.67971429743E+03  0.92537094402E+02 0.  0.
          2    1    3    3  502    0 -0.28126647622E+02  0.22353107063E+02  0.55084494652E+03  0.55201533023E+03  0.00000000000E+00 0. -1.
         -2    1    3    3    0  502  0.28126647622E+02 -0.22353107063E+02  0.12254083614E+03  0.12769896720E+03  0.00000000000E+00 0.  1.
<mgrwt>
<rscale>  0 0.92537094E+02</rscale>
<asrwt>0</asrwt>
<pdfrwt beam="1">  1        2 0.10408451E+00 0.92537094E+02</pdfrwt>
<pdfrwt beam="2">  1       -2 0.48680937E-03 0.92537094E+02</pdfrwt>
<totfact> 0.22619594E+05</totfact>
</mgrwt>
</event>
<event>
 5    1  0.3862918E+001  0.8804699E+02  0.7546771E-02  0.1307651E+00
          4   -1    0    0  501    0  0.00000000000E+00  0.00000000000E+00  0.23836406420E+01  0.23836406420E+01  0.00000000000E+00 0. -1.
         -4   -1    0    0    0  501 -0.00000000000E+00 -0.00000000000E+00 -0.81307060480E+03  0.81307060480E+03  0.00000000000E+00 0.  1.
         23    2    1    2    0    0  0.00000000000E+00  0.00000000000E+00 -0.81068696415E+03  0.81545424544E+03  0.88046990600E+02 0.  0.
          2    1    3    3  502    0  0.43591957305E+02  0.59806092557E+01 -0.41857720609E+03  0.42088348018E+03  0.00000000000E+00 0. -1.
         -2    1    3    3    0  502 -0.43591957305E+02 -0.59806092557E+01 -0.39210975806E+03  0.39457076525E+03  0.00000000000E+00 0.  1.
<mgrwt>
<rscale>  0 0.88046991E+02</rscale>
<asrwt>0</asrwt>
<pdfrwt beam="1">  1        4 0.36671418E-03 0.88046991E+02</pdfrwt>
<pdfrwt beam="2">  1       -4 0.12508771E+00 0.88046991E+02</pdfrwt>
<totfact> 0.95847539E+03</totfact>
</mgrwt>
</event>
<event>
 5    1  0.3862918E+001  0.9029947E+02  0.7546771E-02  0.1302128E+00
         -3   -1    0    0    0  501 -0.00000000000E+00  0.00000000000E+00  0.72106927484E+01  0.72106927484E+01  0.00000000000E+00 0.  1.
          3   -1    0    0  501    0  0.00000000000E+00 -0.00000000000E+00 -0.28270498561E+03  0.28270498561E+03  0.00000000000E+00 0. -1.
         23    2    1    2    0    0  0.00000000000E+00  0.00000000000E+00 -0.27549429287E+03  0.28991567836E+03  0.90299474854E+02 0.  0.
          2    1    3    3  502    0  0.22668292753E+02  0.36982127424E+02 -0.17797197266E+03  0.18318174663E+03  0.00000000000E+00 0. -1.
         -2    1    3    3    0  502 -0.22668292753E+02 -0.36982127424E+02 -0.97522320202E+02  0.10673393173E+03  0.00000000000E+00 0.  1.
<mgrwt>
<rscale>  0 0.90299475E+02</rscale>
<asrwt>0</asrwt>
<pdfrwt beam="2">  1        3 0.43493078E-01 0.90299475E+02</pdfrwt>
<pdfrwt beam="1">  1       -3 0.11093373E-02 0.90299475E+02</pdfrwt>
<totfact> 0.25068139E+04</totfact>
</mgrwt>
</event>
<event>
 5    1  0.3862918E+001  0.9343318E+02  0.7546771E-02  0.1294744E+00
          4   -1    0    0  501    0  0.00000000000E+00  0.00000000000E+00  0.64843246549E+02  0.64843246549E+02  0.00000000000E+00 0. -1.
         -4   -1    0    0    0  501 -0.00000000000E+00 -0.00000000000E+00 -0.33657164735E+02  0.33657164735E+02  0.00000000000E+00 0.  1.
         23    2    1    2    0    0  0.00000000000E+00  0.00000000000E+00  0.31186081815E+02  0.98500411284E+02  0.93433181066E+02 0.  0.
          2    1    3    3  502    0  0.38904852499E+02  0.18801805352E+02  0.34314059265E+02  0.55177441910E+02  0.00000000000E+00 0. -1.
         -2    1    3    3    0  502 -0.38904852499E+02 -0.18801805352E+02 -0.31279774501E+01  0.43322969374E+02  0.00000000000E+00 0.  1.
<mgrwt>
<rscale>  0 0.93433181E+02</rscale>
<asrwt>0</asrwt>
<pdfrwt beam="1">  1        4 0.99758841E-02 0.93433181E+02</pdfrwt>
<pdfrwt beam="2">  1       -4 0.51780254E-02 0.93433181E+02</pdfrwt>
<totfact> 0.24843007E+04</totfact>
</mgrwt>
</event>
<event>
 5    1  0.3862918E+001  0.9153255E+02  0.7546771E-02  0.1299182E+00
          1   -1    0    0  501    0  0.00000000000E+00  0.00000000000E+00  0.10112928961E+04  0.10112928961E+04  0.00000000000E+00 0. -1.
         -1   -1    0    0    0  501 -0.00000000000E+00 -0.00000000000E+00 -0.20711627202E+01  0.20711627202E+01  0.00000000000E+00 0.  1.
         23    2    1    2    0    0  0.00000000000E+00  0.00000000000E+00  0.10092217334E+04  0.10133640588E+04  0.91532554769E+02 0.  0.
          2    1    3    3  502    0  0.18000744571E+02 -0.41866062042E+02  0.45795682666E+03  0.46021869697E+03  0.00000000000E+00 0.  1.
         -2    1    3    3    0  502 -0.18000744571E+02  0.41866062042E+02  0.55126490670E+03  0.55314536183E+03  0.00000000000E+00 0. -1.
<mgrwt>
<rscale>  0 0.91532555E+02</rscale>
<asrwt>0</asrwt>
<pdfrwt beam="1">  1        1 0.15558313E+00 0.91532555E+02</pdfrwt>
<pdfrwt beam="2">  1       -1 0.31864123E-03 0.91532555E+02</pdfrwt>
<totfact> 0.13421284E+05</totfact>
</mgrwt>
</event>
<event>
 5    1  0.3862918E+001  0.8874836E+02  0.7546771E-02  0.1305911E+00
         -2   -1    0    0    0  501 -0.00000000000E+00  0.00000000000E+00  0.29618302196E+01  0.29618302196E+01  0.00000000000E+00 0.  1.
          2   -1    0    0  501    0  0.00000000000E+00 -0.00000000000E+00 -0.66481463223E+03  0.66481463223E+03  0.00000000000E+00 0. -1.
         23    2    1    2    0    0  0.00000000000E+00  0.00000000000E+00 -0.66185280201E+03  0.66777646245E+03  0.88748364901E+02 0.  0.
          2    1    3    3  502    0  0.42673278192E+02 -0.99253445357E+01 -0.38389020040E+03  0.38638220339E+03  0.00000000000E+00 0. -1.
         -2    1    3    3    0  502 -0.42673278192E+02  0.99253445357E+01 -0.27796260161E+03  0.28139425906E+03  0.00000000000E+00 0.  1.
<mgrwt>
<rscale>  0 0.88748365E+02</rscale>
<asrwt>0</asrwt>
<pdfrwt beam="2">  1        2 0.10227936E+00 0.88748365E+02</pdfrwt>
<pdfrwt beam="1">  1       -2 0.45566538E-03 0.88748365E+02</pdfrwt>
<totfact> 0.25146186E+05</totfact>
</mgrwt>
</event>
<event>
 5    1  0.3862918E+001  0.9138857E+02  0.7546771E-02  0.1299523E+00
         -1   -1    0    0    0  501 -0.00000000000E+00  0.00000000000E+00  0.30246004306E+02  0.30246004306E+02  0.00000000000E+00 0.  1.
          1   -1    0    0  501    0  0.00000000000E+00 -0.00000000000E+00 -0.69032845533E+02  0.69032845533E+02  0.00000000000E+00 0. -1.
         23    2    1    2    0    0  0.00000000000E+00  0.00000000000E+00 -0.38786841228E+02  0.99278849839E+02  0.91388571347E+02 0.  0.
          2    1    3    3  502    0 -0.44385212409E+02 -0.89171316195E+01 -0.12661156521E+02  0.47009224641E+02  0.00000000000E+00 0. -1.
         -2    1    3    3    0  502  0.44385212409E+02  0.89171316195E+01 -0.26125684707E+02  0.52269625198E+02  0.00000000000E+00 0.  1.
<mgrwt>
<rscale>  0 0.91388571E+02</rscale>
<asrwt>0</asrwt>
<pdfrwt beam="2">  1        1 0.10620438E-01 0.91388571E+02</pdfrwt>
<pdfrwt beam="1">  1       -1 0.46532314E-02 0.91388571E+02</pdfrwt>
<totfact> 0.97826695E+04</totfact>
</mgrwt>
</event>
<event>
 5    1  0.3862918E+001  0.9151009E+02  0.7546771E-02  0.1299235E+00
          3   -1    0    0  501    0  0.00000000000E+00  0.00000000000E+00  0.28490690281E+03  0.28490690281E+03  0.00000000000E+00 0. -1.
         -3   -1    0    0    0  501 -0.00000000000E+00 -0.00000000000E+00 -0.73480987835E+01  0.73480987835E+01  0.00000000000E+00 0.  1.
         23    2    1    2    0    0  0.00000000000E+00  0.00000000000E+00  0.27755880402E+03  0.29225500159E+03  0.91510088316E+02 0.  0.
          2    1    3    3  502    0  0.77898288107E+01 -0.37125515077E+02  0.22048666515E+03  0.22372607092E+03  0.00000000000E+00 0. -1.
         -2    1    3    3    0  502 -0.77898288107E+01  0.37125515077E+02  0.57072138877E+02  0.68528930669E+02  0.00000000000E+00 0.  1.
<mgrwt>
<rscale>  0 0.91510088E+02</rscale>
<asrwt>0</asrwt>
<pdfrwt beam="1">  1        3 0.43831823E-01 0.91510088E+02</pdfrwt>
<pdfrwt beam="2">  1       -3 0.11304770E-02 0.91510088E+02</pdfrwt>
<totfact> 0.24096419E+04</totfact>
</mgrwt>
</event>
<event>
 5    1  0.3862918E+001  0.9215774E+02  0.7546771E-02  0.1297709E+00
         -1   -1    0    0    0  501 -0.00000000000E+00  0.00000000000E+00  0.61115360028E+01  0.61115360028E+01  0.00000000000E+00 0.  1.
          1   -1    0    0  501    0  0.00000000000E+00 -0.00000000000E+00 -0.34741877051E+03  0.34741877051E+03  0.00000000000E+00 0. -1.
         23    2    1    2    0    0  0.00000000000E+00  0.00000000000E+00 -0.34130723451E+03  0.35353030651E+03  0.92157741379E+02 0.  0.
          2    1    3    3  502    0  0.20997423626E+02 -0.19945240954E+02 -0.30814379315E+03  0.30950169901E+03  0.00000000000E+00 0. -1.
         -2    1    3    3    0  502 -0.20997423626E+02  0.19945240954E+02 -0.33163441358E+02  0.44028607500E+02  0.00000000000E+00 0.  1.
<mgrwt>
<rscale>  0 0.92157741E+02</rscale>
<asrwt>0</asrwt>
<pdfrwt beam="2">  1        1 0.53449038E-01 0.92157741E+02</pdfrwt>
<pdfrwt beam="1">  1       -1 0.94023638E-03 0.92157741E+02</pdfrwt>
<totfact> 0.12796011E+05</totfact>
</mgrwt>
</event>
<event>
 5    1  0.3862918E+001  0.8842183E+02  0.7546771E-02  0.1306719E+00
          2   -1    0    0  501    0  0.00000000000E+00  0.00000000000E+00  0.55679947425E+03  0.55679947425E+03  0.00000000000E+00 0. -1.
         -2   -1    0    0    0  501 -0.00000000000E+00 -0.00000000000E+00 -0.35104287733E+01  0.35104287733E+01  0.00000000000E+00 0.  1.
         23    2    1    2    0    0  0.00000000000E+00  0.00000000000E+00  0.55328904548E+03  0.56030990303E+03  0.88421827518E+02 0.  0.
          2    1    3    3  502    0  0.35698694161E+02  0.23640833216E+02  0.20684805169E+03  0.21123305198E+03  0.00000000000E+00 0. -1.
         -2    1    3    3    0  502 -0.35698694161E+02 -0.23640833216E+02  0.34644099379E+03  0.34907685105E+03  0.00000000000E+00 0.  1.
<mgrwt>
<rscale>  0 0.88421828E+02</rscale>
<asrwt>0</asrwt>
<pdfrwt beam="1">  1        2 0.85661387E-01 0.88421828E+02</pdfrwt>
<pdfrwt beam="2">  1       -2 0.54006641E-03 0.88421828E+02</pdfrwt>
<totfact> 0.24170221E+05</totfact>
</mgrwt>
</event>
<event>
 5    1  0.3862918E+001  0.8998098E+02  0.7546771E-02  0.1302898E+00
         -2   -1    0    0    0  501 -0.00000000000E+00  0.00000000000E+00  0.11593322001E+03  0.11593322001E+03  0.00000000000E+00 0.  1.
          2   -1    0    0  501    0  0.00000000000E+00 -0.00000000000E+00 -0.17459572004E+02  0.17459572004E+02  0.00000000000E+00 0. -1.
         23    2    1    2    0    0  0.00000000000E+00  0.00000000000E+00  0.98473648002E+02  0.13339279201E+03  0.89980984710E+02 0.  0.
          2    1    3    3  502    0 -0.20406273389E+01  0.40947311838E+02  0.21769446784E+02  0.46419342089E+02  0.00000000000E+00 0. -1.
         -2    1    3    3    0  502  0.20406273389E+01 -0.40947311838E+02  0.76704201218E+02  0.86973449921E+02  0.00000000000E+00 0.  1.
<mgrwt>
<rscale>  0 0.89980985E+02</rscale>
<asrwt>0</asrwt>
<pdfrwt beam="2">  1        2 0.26860881E-02 0.89980985E+02</pdfrwt>
<pdfrwt beam="1">  1       -2 0.17835879E-01 0.89980985E+02</pdfrwt>
<totfact> 0.78818170E+04</totfact>
</mgrwt>
</event>
<event>
 5    1  0.3862918E+001  0.8998982E+02  0.7546771E-02  0.1302876E+00
          2   -1    0    0  501    0  0.00000000000E+00  0.00000000000E+00  0.13136029127E+04  0.13136029127E+04  0.00000000000E+00 0. -1.
         -2   -1    0    0    0  501 -0.00000000000E+00 -0.00000000000E+00 -0.15412131478E+01  0.15412131478E+01  0.00000000000E+00 0.  1.
         23    2    1    2    0    0  0.00000000000E+00  0.00000000000E+00  0.13120616996E+04  0.13151441259E+04  0.89989823427E+02 0.  0.
          2    1    3    3  502    0  0.32959763304E+02 -0.28914546550E+02  0.80373363274E+03  0.80492866107E+03  0.00000000000E+00 0. -1.
         -2    1    3    3    0  502 -0.32959763304E+02  0.28914546550E+02  0.50832806685E+03  0.51021546482E+03  0.00000000000E+00 0.  1.
<mgrwt>
<rscale>  0 0.89989823E+02</rscale>
<asrwt>0</asrwt>
<pdfrwt beam="1">  1        2 0.20209186E+00 0.89989823E+02</pdfrwt>
<pdfrwt beam="2">  1       -2 0.23711077E-03 0.89989823E+02</pdfrwt>
<totfact> 0.25378758E+05</totfact>
</mgrwt>
</event>
<event>
 5    1  0.3862918E+001  0.9076996E+02  0.7546771E-02  0.1300998E+00
          1   -1    0    0  501    0  0.00000000000E+00  0.00000000000E+00  0.83479897222E+01  0.83479897222E+01  0.00000000000E+00 0. -1.
         -1   -1    0    0    0  501 -0.00000000000E+00 -0.00000000000E+00 -0.24674161965E+03  0.24674161965E+03  0.00000000000E+00 0.  1.
         23    2    1    2    0    0  0.00000000000E+00  0.00000000000E+00 -0.23839362993E+03  0.25508960937E+03  0.90769962100E+02 0.  0.
          2    1    3    3  502    0 -0.77271111918E+01  0.33912991049E+02 -0.37263715041E+02  0.50974343232E+02  0.00000000000E+00 0. -1.
         -2    1    3    3    0  502  0.77271111918E+01 -0.33912991049E+02 -0.20112991489E+03  0.20411526614E+03  0.00000000000E+00 0.  1.
<mgrwt>
<rscale>  0 0.90769962E+02</rscale>
<asrwt>0</asrwt>
<pdfrwt beam="1">  1        1 0.12843063E-02 0.90769962E+02</pdfrwt>
<pdfrwt beam="2">  1       -1 0.37960244E-01 0.90769962E+02</pdfrwt>
<totfact> 0.65815841E+04</totfact>
</mgrwt>
</event>
<event>
 5    1  0.3862918E+001  0.9129680E+02  0.7546771E-02  0.1299741E+00
         -3   -1    0    0    0  501 -0.00000000000E+00  0.00000000000E+00  0.42673378670E+01  0.42673378670E+01  0.00000000000E+00 0.  1.
          3   -1    0    0  501    0  0.00000000000E+00 -0.00000000000E+00 -0.48830830578E+03  0.48830830578E+03  0.00000000000E+00 0. -1.
         23    2    1    2    0    0  0.00000000000E+00  0.00000000000E+00 -0.48404096791E+03  0.49257564365E+03  0.91296802223E+02 0.  0.
          2    1    3    3  502    0  0.10833182453E+02 -0.25631082493E+02 -0.43725856441E+03  0.43814308437E+03  0.00000000000E+00 0. -1.
         -2    1    3    3    0  502 -0.10833182453E+02  0.25631082493E+02 -0.46782403500E+02  0.54432559273E+02  0.00000000000E+00 0.  1.
<mgrwt>
<rscale>  0 0.91296802E+02</rscale>
<asrwt>0</asrwt>
<pdfrwt beam="2">  1        3 0.75124358E-01 0.91296802E+02</pdfrwt>
<pdfrwt beam="1">  1       -3 0.65651349E-03 0.91296802E+02</pdfrwt>
<totfact> 0.18029760E+04</totfact>
</mgrwt>
</event>
<event>
 5    1  0.3862918E+001  0.9499421E+02  0.7546771E-02  0.1291189E+00
          4   -1    0    0  501    0  0.00000000000E+00  0.00000000000E+00  0.12483851234E+03  0.12483851234E+03  0.00000000000E+00 0. -1.
         -4   -1    0    0    0  501 -0.00000000000E+00 -0.00000000000E+00 -0.18071146154E+02  0.18071146154E+02  0.00000000000E+00 0.  1.
         23    2    1    2    0    0  0.00000000000E+00  0.00000000000E+00  0.10676736618E+03  0.14290965849E+03  0.94994210394E+02 0.  0.
          2    1    3    3  502    0  0.42129460991E+02  0.21649683172E+02  0.58675836657E+02  0.75408580893E+02  0.00000000000E+00 0. -1.
         -2    1    3    3    0  502 -0.42129460991E+02 -0.21649683172E+02  0.48091529527E+02  0.67501077599E+02  0.00000000000E+00 0.  1.
<mgrwt>
<rscale>  0 0.94994210E+02</rscale>
<asrwt>0</asrwt>
<pdfrwt beam="1">  1        4 0.19205924E-01 0.94994210E+02</pdfrwt>
<pdfrwt beam="2">  1       -4 0.27801764E-02 0.94994210E+02</pdfrwt>
<totfact> 0.21510155E+04</totfact>
</mgrwt>
</event>
<event>
 5    1  0.3862918E+001  0.8815248E+02  0.7546771E-02  0.1307388E+00
         -1   -1    0    0    0  501 -0.00000000000E+00  0.00000000000E+00  0.50772970749E+01  0.50772970749E+01  0.00000000000E+00 0.  1.
          1   -1    0    0  501    0  0.00000000000E+00 -0.00000000000E+00 -0.38262778415E+03  0.38262778415E+03  0.00000000000E+00 0. -1.
         23    2    1    2    0    0  0.00000000000E+00  0.00000000000E+00 -0.37755048707E+03  0.38770508122E+03  0.88152479925E+02 0.  0.
          2    1    3    3  502    0 -0.22021924574E+02 -0.26258902756E+02 -0.31067692741E+03  0.31256143134E+03  0.00000000000E+00 0. -1.
         -2    1    3    3    0  502  0.22021924574E+02  0.26258902756E+02 -0.66873559664E+02  0.75143649885E+02  0.00000000000E+00 0.  1.
<mgrwt>
<rscale>  0 0.88152480E+02</rscale>
<asrwt>0</asrwt>
<pdfrwt beam="2">  1        1 0.58865817E-01 0.88152480E+02</pdfrwt>
<pdfrwt beam="1">  1       -1 0.78112257E-03 0.88152480E+02</pdfrwt>
<totfact> 0.14642011E+05</totfact>
</mgrwt>
</event>
<event>
 5    1  0.3862918E+001  0.9017006E+02  0.7546771E-02  0.1302440E+00
          1   -1    0    0  501    0  0.00000000000E+00  0.00000000000E+00  0.95162271265E+02  0.95162271265E+02  0.00000000000E+00 0.  1.
         -1   -1    0    0    0  501 -0.00000000000E+00 -0.00000000000E+00 -0.21359935795E+02  0.21359935795E+02  0.00000000000E+00 0. -1.
         23    2    1    2    0    0  0.00000000000E+00  0.00000000000E+00  0.73802335470E+02  0.11652220706E+03  0.90170061646E+02 0.  0.
          2    1    3    3  502    0  0.25859465031E+01  0.30755879767E+02 -0.55674390362E+01  0.31362519621E+02  0.00000000000E+00 0. -1.
         -2    1    3    3    0  502 -0.25859465031E+01 -0.30755879767E+02  0.79369774507E+02  0.85159687439E+02  0.00000000000E+00 0.  1.
<mgrwt>
<rscale>  0 0.90170062E+02</rscale>
<asrwt>0</asrwt>
<pdfrwt beam="1">  1        1 0.14640349E-01 0.90170062E+02</pdfrwt>
<pdfrwt beam="2">  1       -1 0.32861440E-02 0.90170062E+02</pdfrwt>
<totfact> 0.10678305E+05</totfact>
</mgrwt>
</event>
<event>
 5    1  0.3862918E+001  0.9004544E+02  0.7546771E-02  0.1302742E+00
          2   -1    0    0  501    0  0.00000000000E+00  0.00000000000E+00  0.39733419007E+03  0.39733419007E+03  0.00000000000E+00 0. -1.
         -2   -1    0    0    0  501 -0.00000000000E+00 -0.00000000000E+00 -0.51016128335E+01  0.51016128335E+01  0.00000000000E+00 0.  1.
         23    2    1    2    0    0  0.00000000000E+00  0.00000000000E+00  0.39223257724E+03  0.40243580291E+03  0.90045437492E+02 0.  0.
          2    1    3    3  502    0  0.18029859558E+02 -0.30141744183E+02  0.32200686149E+03  0.32391668593E+03  0.00000000000E+00 0. -1.
         -2    1    3    3    0  502 -0.18029859558E+02  0.30141744183E+02  0.70225715752E+02  0.78519116978E+02  0.00000000000E+00 0.  1.
<mgrwt>
<rscale>  0 0.90045437E+02</rscale>
<asrwt>0</asrwt>
<pdfrwt beam="1">  1        2 0.61128313E-01 0.90045437E+02</pdfrwt>
<pdfrwt beam="2">  1       -2 0.78486382E-03 0.90045437E+02</pdfrwt>
<totfact> 0.20585353E+05</totfact>
</mgrwt>
</event>
<event>
 5    1  0.3862918E+001  0.9061640E+02  0.7546771E-02  0.1301366E+00
          1   -1    0    0  501    0  0.00000000000E+00  0.00000000000E+00  0.11311729672E+04  0.11311729672E+04  0.00000000000E+00 0. -1.
         -1   -1    0    0    0  501 -0.00000000000E+00 -0.00000000000E+00 -0.18147823921E+01  0.18147823921E+01  0.00000000000E+00 0.  1.
         23    2    1    2    0    0  0.00000000000E+00  0.00000000000E+00  0.11293581848E+04  0.11329877496E+04  0.90616395500E+02 0.  0.
          2    1    3    3  502    0 -0.20351924778E+02  0.19670972186E+02  0.10070289780E+04  0.10074266775E+04  0.00000000000E+00 0. -1.
         -2    1    3    3    0  502  0.20351924778E+02 -0.19670972186E+02  0.12232920680E+03  0.12556107210E+03  0.00000000000E+00 0.  1.
<mgrwt>
<rscale>  0 0.90616395E+02</rscale>
<asrwt>0</asrwt>
<pdfrwt beam="1">  1        1 0.17402605E+00 0.90616395E+02</pdfrwt>
<pdfrwt beam="2">  1       -1 0.27919820E-03 0.90616395E+02</pdfrwt>
<totfact> 0.13274846E+05</totfact>
</mgrwt>
</event>
<event>
 5    1  0.3862918E+001  0.9231501E+02  0.7546771E-02  0.1297340E+00
          2   -1    0    0  501    0  0.00000000000E+00  0.00000000000E+00  0.98310990619E+01  0.98310990619E+01  0.00000000000E+00 0. -1.
         -2   -1    0    0    0  501 -0.00000000000E+00 -0.00000000000E+00 -0.21671182632E+03  0.21671182632E+03  0.00000000000E+00 0.  1.
         23    2    1    2    0    0  0.00000000000E+00  0.00000000000E+00 -0.20688072726E+03  0.22654292539E+03  0.92315013567E+02 0.  0.
          2    1    3    3  502    0  0.22525279543E+02 -0.28979443848E+02 -0.34757639784E+02  0.50549875446E+02  0.00000000000E+00 0. -1.
         -2    1    3    3    0  502 -0.22525279543E+02  0.28979443848E+02 -0.17212308748E+03  0.17599304994E+03  0.00000000000E+00 0.  1.
<mgrwt>
<rscale>  0 0.92315014E+02</rscale>
<asrwt>0</asrwt>
<pdfrwt beam="1">  1        2 0.15124768E-02 0.92315014E+02</pdfrwt>
<pdfrwt beam="2">  1       -2 0.33340281E-01 0.92315014E+02</pdfrwt>
<totfact> 0.58256708E+04</totfact>
</mgrwt>
</event>
<event>
 5    1  0.3862918E+001  0.9184085E+02  0.7546771E-02  0.1298454E+00
          1   -1    0    0  501    0  0.00000000000E+00  0.00000000000E+00  0.10064793771E+04  0.10064793771E+04  0.00000000000E+00 0. -1.
         -1   -1    0    0    0  501 -0.00000000000E+00 -0.00000000000E+00 -0.20951105504E+01  0.20951105504E+01  0.00000000000E+00 0.  1.
         23    2    1    2    0    0  0.00000000000E+00  0.00000000000E+00  0.10043842665E+04  0.10085744876E+04  0.91840852821E+02 0.  0.
          2    1    3    3  502    0 -0.11675872512E+02 -0.43804084589E+02  0.58256313722E+03  0.58432433859E+03  0.00000000000E+00 0. -1.
         -2    1    3    3    0  502  0.11675872512E+02  0.43804084589E+02  0.42182112931E+03  0.42425014904E+03  0.00000000000E+00 0.  1.
<mgrwt>
<rscale>  0 0.91840853E+02</rscale>
<asrwt>0</asrwt>
<pdfrwt beam="1">  1        1 0.15484259E+00 0.91840853E+02</pdfrwt>
<pdfrwt beam="2">  1       -1 0.32232550E-03 0.91840853E+02</pdfrwt>
<totfact> 0.13319892E+05</totfact>
</mgrwt>
</event>
<event>
 5    1  0.3862918E+001  0.9157922E+02  0.7546771E-02  0.1299072E+00
         -2   -1    0    0    0  501 -0.00000000000E+00  0.00000000000E+00  0.66714307322E+01  0.66714307322E+01  0.00000000000E+00 0.  1.
          2   -1    0    0  501    0  0.00000000000E+00 -0.00000000000E+00 -0.31427870066E+03  0.31427870066E+03  0.00000000000E+00 0. -1.
         23    2    1    2    0    0  0.00000000000E+00  0.00000000000E+00 -0.30760726993E+03  0.32095013139E+03  0.91579224327E+02 0.  0.
          2    1    3    3  502    0 -0.21663321110E+02 -0.38643683361E+02 -0.11322645685E+03  0.12158480282E+03  0.00000000000E+00 0. -1.
         -2    1    3    3    0  502  0.21663321110E+02  0.38643683361E+02 -0.19438081308E+03  0.19936532857E+03  0.00000000000E+00 0.  1.
<mgrwt>
<rscale>  0 0.91579224E+02</rscale>
<asrwt>0</asrwt>
<pdfrwt beam="2">  1        2 0.48350572E-01 0.91579224E+02</pdfrwt>
<pdfrwt beam="1">  1       -2 0.10263739E-02 0.91579224E+02</pdfrwt>
<totfact> 0.18065792E+05</totfact>
</mgrwt>
</event>
<event>
 5    1  0.3862918E+001  0.8900604E+02  0.7546771E-02  0.1305277E+00
          3   -1    0    0  501    0  0.00000000000E+00  0.00000000000E+00  0.45107895014E+02  0.45107895014E+02  0.00000000000E+00 0. -1.
         -3   -1    0    0    0  501 -0.00000000000E+00 -0.00000000000E+00 -0.43906259866E+02  0.43906259866E+02  0.00000000000E+00 0.  1.
         23    2    1    2    0    0  0.00000000000E+00  0.00000000000E+00  0.12016351476E+01  0.89014154880E+02  0.89006043851E+02 0.  0.
          2    1    3    3  502    0  0.31189151320E+01  0.43989341381E+02  0.65787508284E+01  0.44587775782E+02  0.00000000000E+00 0. -1.
         -2    1    3    3    0  502 -0.31189151320E+01 -0.43989341381E+02 -0.53771156809E+01  0.44426379098E+02  0.00000000000E+00 0.  1.
<mgrwt>
<rscale>  0 0.89006044E+02</rscale>
<asrwt>0</asrwt>
<pdfrwt beam="1">  1        3 0.69396762E-02 0.89006044E+02</pdfrwt>
<pdfrwt beam="2">  1       -3 0.67548092E-02 0.89006044E+02</pdfrwt>
<totfact> 0.37908751E+04</totfact>
</mgrwt>
</event>
<event>
 5    1  0.3862918E+001  0.9008136E+02  0.7546771E-02  0.1302655E+00
          4   -1    0    0  501    0  0.00000000000E+00  0.00000000000E+00  0.45908232775E+01  0.45908232775E+01  0.00000000000E+00 0. -1.
         -4   -1    0    0    0  501 -0.00000000000E+00 -0.00000000000E+00 -0.44189524076E+03  0.44189524076E+03  0.00000000000E+00 0.  1.
         23    2    1    2    0    0  0.00000000000E+00  0.00000000000E+00 -0.43730441749E+03  0.44648606404E+03  0.90081362279E+02 0.  0.
          2    1    3    3  502    0 -0.82526979866E+00  0.44656331218E+02 -0.18983893759E+03  0.19502228389E+03  0.00000000000E+00 0. -1.
         -2    1    3    3    0  502  0.82526979866E+00 -0.44656331218E+02 -0.24746547990E+03  0.25146378015E+03  0.00000000000E+00 0.  1.
<mgrwt>
<rscale>  0 0.90081362E+02</rscale>
<asrwt>0</asrwt>
<pdfrwt beam="1">  1        4 0.70628044E-03 0.90081362E+02</pdfrwt>
<pdfrwt beam="2">  1       -4 0.67983890E-01 0.90081362E+02</pdfrwt>
<totfact> 0.14579650E+04</totfact>
</mgrwt>
</event>
<event>
 5    1  0.3862918E+001  0.8768311E+02  0.7546771E-02  0.1308561E+00
         -1   -1    0    0    0  501 -0.00000000000E+00  0.00000000000E+00  0.25222602962E+03  0.25222602962E+03  0.00000000000E+00 0.  1.
          1   -1    0    0  501    0  0.00000000000E+00 -0.00000000000E+00 -0.76204745656E+01  0.76204745656E+01  0.00000000000E+00 0. -1.
         23    2    1    2    0    0  0.00000000000E+00  0.00000000000E+00  0.24460555505E+03  0.25984650418E+03  0.87683112250E+02 0.  0.
          2    1    3    3  502    0 -0.24674616714E-01  0.43217210356E+02  0.10045449360E+03  0.10935645004E+03  0.00000000000E+00 0. -1.
         -2    1    3    3    0  502  0.24674616714E-01 -0.43217210356E+02  0.14415106145E+03  0.15049005415E+03  0.00000000000E+00 0.  1.
<mgrwt>
<rscale>  0 0.87683112E+02</rscale>
<asrwt>0</asrwt>
<pdfrwt beam="2">  1        1 0.11723809E-02 0.87683112E+02</pdfrwt>
<pdfrwt beam="1">  1       -1 0.38803998E-01 0.87683112E+02</pdfrwt>
<totfact> 0.71492287E+04</totfact>
</mgrwt>
</event>
<event>
 5    1  0.3862918E+001  0.8885596E+02  0.7546771E-02  0.1305646E+00
         -1   -1    0    0    0  501 -0.00000000000E+00  0.00000000000E+00  0.16093745020E+01  0.16093745020E+01  0.00000000000E+00 0.  1.
          1   -1    0    0  501    0  0.00000000000E+00 -0.00000000000E+00 -0.12264675168E+04  0.12264675168E+04  0.00000000000E+00 0. -1.
         23    2    1    2    0    0  0.00000000000E+00  0.00000000000E+00 -0.12248581423E+04  0.12280768913E+04  0.88855963200E+02 0.  0.
          2    1    3    3  502    0 -0.68667047085E+01 -0.41038636183E+02 -0.82766589295E+03  0.82871113884E+03  0.00000000000E+00 0. -1.
         -2    1    3    3    0  502  0.68667047085E+01  0.41038636183E+02 -0.39719224933E+03  0.39936575244E+03  0.00000000000E+00 0.  1.
<mgrwt>
<rscale>  0 0.88855963E+02</rscale>
<asrwt>0</asrwt>
<pdfrwt beam="2">  1        1 0.18868745E+00 0.88855963E+02</pdfrwt>
<pdfrwt beam="1">  1       -1 0.24759590E-03 0.88855963E+02</pdfrwt>
<totfact> 0.13484396E+05</totfact>
</mgrwt>
</event>
<event>
 5    1  0.3862918E+001  0.9190072E+02  0.7546771E-02  0.1298313E+00
         -1   -1    0    0    0  501 -0.00000000000E+00  0.00000000000E+00  0.59056569598E+02  0.59056569598E+02  0.00000000000E+00 0.  1.
          1   -1    0    0  501    0  0.00000000000E+00 -0.00000000000E+00 -0.35752766763E+02  0.35752766763E+02  0.00000000000E+00 0. -1.
         23    2    1    2    0    0  0.00000000000E+00  0.00000000000E+00  0.23303802834E+02  0.94809336361E+02  0.91900723798E+02 0.  0.
          2    1    3    3  502    0 -0.39640561558E+02  0.18031617466E+02 -0.34723199498E+01  0.43687187537E+02  0.00000000000E+00 0. -1.
         -2    1    3    3    0  502  0.39640561558E+02 -0.18031617466E+02  0.26776122784E+02  0.51122148824E+02  0.00000000000E+00 0.  1.
<mgrwt>
<rscale>  0 0.91900724E+02</rscale>
<asrwt>0</asrwt>
<pdfrwt beam="2">  1        1 0.55004257E-02 0.91900724E+02</pdfrwt>
<pdfrwt beam="1">  1       -1 0.90856261E-02 0.91900724E+02</pdfrwt>
<totfact> 0.87133868E+04</totfact>
</mgrwt>
</event>
<event>
 5    1  0.3862918E+001  0.9131789E+02  0.7546771E-02  0.1299691E+00
          1   -1    0    0  501    0  0.00000000000E+00  0.00000000000E+00  0.70375629489E+03  0.70375629489E+03  0.00000000000E+00 0. -1.
         -1   -1    0    0    0  501 -0.00000000000E+00 -0.00000000000E+00 -0.29623026641E+01  0.29623026641E+01  0.00000000000E+00 0.  1.
         23    2    1    2    0    0  0.00000000000E+00  0.00000000000E+00  0.70079399222E+03  0.70671859755E+03  0.91317887562E+02 0.  0.
          2    1    3    3  502    0 -0.29401209626E+02  0.33590953206E+01  0.61949359832E+03  0.62019999436E+03  0.00000000000E+00 0. -1.
         -2    1    3    3    0  502  0.29401209626E+02 -0.33590953206E+01  0.81300393906E+02  0.86518603191E+02  0.00000000000E+00 0.  1.
<mgrwt>
<rscale>  0 0.91317888E+02</rscale>
<asrwt>0</asrwt>
<pdfrwt beam="1">  1        1 0.10827007E+00 0.91317888E+02</pdfrwt>
<pdfrwt beam="2">  1       -1 0.45573943E-03 0.91317888E+02</pdfrwt>
<totfact> 0.14158706E+05</totfact>
</mgrwt>
</event>
<event>
 5    1  0.3862918E+001  0.8486247E+02  0.7546771E-02  0.1315793E+00
         -1   -1    0    0    0  501 -0.00000000000E+00  0.00000000000E+00  0.79318297309E+01  0.79318297309E+01  0.00000000000E+00 0.  1.
          1   -1    0    0  501    0  0.00000000000E+00 -0.00000000000E+00 -0.22698541216E+03  0.22698541216E+03  0.00000000000E+00 0. -1.
         23    2    1    2    0    0  0.00000000000E+00  0.00000000000E+00 -0.21905358243E+03  0.23491724189E+03  0.84862468516E+02 0.  0.
          2    1    3    3  502    0 -0.63960259551E-01 -0.36893492185E+02 -0.16754547391E+03  0.17155937656E+03  0.00000000000E+00 0. -1.
         -2    1    3    3    0  502  0.63960259551E-01  0.36893492185E+02 -0.51508108513E+02  0.63357865329E+02  0.00000000000E+00 0.  1.
<mgrwt>
<rscale>  0 0.84862469E+02</rscale>
<asrwt>0</asrwt>
<pdfrwt beam="2">  1        1 0.34920829E-01 0.84862469E+02</pdfrwt>
<pdfrwt beam="1">  1       -1 0.12202816E-02 0.84862469E+02</pdfrwt>
<totfact> 0.14693082E+05</totfact>
</mgrwt>
</event>
<event>
 5    1  0.3862918E+001  0.9100397E+02  0.7546771E-02  0.1300438E+00
          1   -1    0    0  501    0  0.00000000000E+00  0.00000000000E+00  0.57066654962E+03  0.57066654962E+03  0.00000000000E+00 0. -1.
         -1   -1    0    0    0  501 -0.00000000000E+00 -0.00000000000E+00 -0.36280918005E+01  0.36280918005E+01  0.00000000000E+00 0.  1.
         23    2    1    2    0    0  0.00000000000E+00  0.00000000000E+00  0.56703845782E+03  0.57429464142E+03  0.91003969792E+02 0.  0.
          2    1    3    3  502    0  0.49309113963E+01 -0.23528459967E+02  0.52732035976E+03  0.52786803666E+03  0.00000000000E+00 0. -1.
         -2    1    3    3    0  502 -0.49309113963E+01  0.23528459967E+02  0.39718098060E+02  0.46426604755E+02  0.00000000000E+00 0.  1.
<mgrwt>
<rscale>  0 0.91003970E+02</rscale>
<asrwt>0</asrwt>
<pdfrwt beam="1">  1        1 0.87794783E-01 0.91003970E+02</pdfrwt>
<pdfrwt beam="2">  1       -1 0.55816842E-03 0.91003970E+02</pdfrwt>
<totfact> 0.14180909E+05</totfact>
</mgrwt>
</event>
<event>
 5    1  0.3862918E+001  0.9021047E+02  0.7546771E-02  0.1302343E+00
         -2   -1    0    0    0  501 -0.00000000000E+00  0.00000000000E+00  0.48774582545E+01  0.48774582545E+01  0.00000000000E+00 0.  1.
          2   -1    0    0  501    0  0.00000000000E+00 -0.00000000000E+00 -0.41711937630E+03  0.41711937630E+03  0.00000000000E+00 0. -1.
         23    2    1    2    0    0  0.00000000000E+00  0.00000000000E+00 -0.41224191805E+03  0.42199683456E+03  0.90210472675E+02 0.  0.
          2    1    3    3  502    0  0.17810949762E+02  0.41419816798E+02 -0.20010990302E+03  0.20512631339E+03  0.00000000000E+00 0. -1.
         -2    1    3    3    0  502 -0.17810949762E+02 -0.41419816798E+02 -0.21213201503E+03  0.21687052117E+03  0.00000000000E+00 0.  1.
<mgrwt>
<rscale>  0 0.90210473E+02</rscale>
<asrwt>0</asrwt>
<pdfrwt beam="2">  1        2 0.64172216E-01 0.90210473E+02</pdfrwt>
<pdfrwt beam="1">  1       -2 0.75037814E-03 0.90210473E+02</pdfrwt>
<totfact> 0.20842340E+05</totfact>
</mgrwt>
</event>
<event>
 5    1  0.3862918E+001  0.9652662E+02  0.7546771E-02  0.1287774E+00
         -1   -1    0    0    0  501 -0.00000000000E+00  0.00000000000E+00  0.15823085538E+03  0.15823085538E+03  0.00000000000E+00 0.  1.
          1   -1    0    0  501    0  0.00000000000E+00 -0.00000000000E+00 -0.14721193436E+02  0.14721193436E+02  0.00000000000E+00 0. -1.
         23    2    1    2    0    0  0.00000000000E+00  0.00000000000E+00  0.14350966194E+03  0.17295204881E+03  0.96526618702E+02 0.  0.
          2    1    3    3  502    0 -0.76378891562E+00 -0.44333069565E+02  0.37601208222E+02  0.58136522861E+02  0.00000000000E+00 0. -1.
         -2    1    3    3    0  502  0.76378891562E+00  0.44333069565E+02  0.10590845372E+03  0.11481552595E+03  0.00000000000E+00 0.  1.
<mgrwt>
<rscale>  0 0.96526619E+02</rscale>
<asrwt>0</asrwt>
<pdfrwt beam="2">  1        1 0.22647991E-02 0.96526619E+02</pdfrwt>
<pdfrwt beam="1">  1       -1 0.24343207E-01 0.96526619E+02</pdfrwt>
<totfact> 0.63656904E+04</totfact>
</mgrwt>
</event>
<event>
 5    1  0.3862918E+001  0.8733367E+02  0.7546771E-02  0.1309440E+00
         -2   -1    0    0    0  501 -0.00000000000E+00  0.00000000000E+00  0.10857279934E+02  0.10857279934E+02  0.00000000000E+00 0.  1.
          2   -1    0    0  501    0  0.00000000000E+00 -0.00000000000E+00 -0.17562340110E+03  0.17562340110E+03  0.00000000000E+00 0. -1.
         23    2    1    2    0    0  0.00000000000E+00  0.00000000000E+00 -0.16476612116E+03  0.18648068103E+03  0.87333668848E+02 0.  0.
          2    1    3    3  502    0 -0.17621467605E+02 -0.23935149149E+02 -0.15069107368E+03  0.15359429407E+03  0.00000000000E+00 0. -1.
         -2    1    3    3    0  502  0.17621467605E+02  0.23935149149E+02 -0.14075047482E+02  0.32886386955E+02  0.00000000000E+00 0.  1.
<mgrwt>
<rscale>  0 0.87333669E+02</rscale>
<asrwt>0</asrwt>
<pdfrwt beam="2">  1        2 0.27018983E-01 0.87333669E+02</pdfrwt>
<pdfrwt beam="1">  1       -2 0.16703509E-02 0.87333669E+02</pdfrwt>
<totfact> 0.16580789E+05</totfact>
</mgrwt>
</event>
<event>
 5    1  0.3862918E+001  0.9461349E+02  0.7546771E-02  0.1292049E+00
          1   -1    0    0  501    0  0.00000000000E+00  0.00000000000E+00  0.12880041386E+04  0.12880041386E+04  0.00000000000E+00 0. -1.
         -1   -1    0    0    0  501 -0.00000000000E+00 -0.00000000000E+00 -0.17375163930E+01  0.17375163930E+01  0.00000000000E+00 0.  1.
         23    2    1    2    0    0  0.00000000000E+00  0.00000000000E+00  0.12862666222E+04  0.12897416550E+04  0.94613493859E+02 0.  0.
          2    1    3    3  502    0 -0.42991528167E+01  0.35825683451E+02  0.22609141968E+03  0.22895259851E+03  0.00000000000E+00 0.  1.
         -2    1    3    3    0  502  0.42991528167E+01 -0.35825683451E+02  0.10601752025E+04  0.10607890565E+04  0.00000000000E+00 0. -1.
<mgrwt>
<rscale>  0 0.94613494E+02</rscale>
<asrwt>0</asrwt>
<pdfrwt beam="1">  1        1 0.19815372E+00 0.94613494E+02</pdfrwt>
<pdfrwt beam="2">  1       -1 0.26731124E-03 0.94613494E+02</pdfrwt>
<totfact> 0.11126121E+05</totfact>
</mgrwt>
</event>
<event>
 5    1  0.3862918E+001  0.9030135E+02  0.7546771E-02  0.1302124E+00
          2   -1    0    0  501    0  0.00000000000E+00  0.00000000000E+00  0.74604083277E+03  0.74604083277E+03  0.00000000000E+00 0. -1.
         -2   -1    0    0    0  501 -0.00000000000E+00 -0.00000000000E+00 -0.27325361716E+01  0.27325361716E+01  0.00000000000E+00 0.  1.
         23    2    1    2    0    0  0.00000000000E+00  0.00000000000E+00  0.74330829659E+03  0.74877336894E+03  0.90301352393E+02 0.  0.
          2    1    3    3  502    0 -0.10907671190E+02 -0.41055509257E+02  0.49851037362E+03  0.50031702423E+03  0.00000000000E+00 0. -1.
         -2    1    3    3    0  502  0.10907671190E+02  0.41055509257E+02  0.24479792298E+03  0.24845634471E+03  0.00000000000E+00 0.  1.
<mgrwt>
<rscale>  0 0.90301352E+02</rscale>
<asrwt>0</asrwt>
<pdfrwt beam="1">  1        2 0.11477535E+00 0.90301352E+02</pdfrwt>
<pdfrwt beam="2">  1       -2 0.42039077E-03 0.90301352E+02</pdfrwt>
<totfact> 0.24668797E+05</totfact>
</mgrwt>
</event>
<event>
 5    1  0.3862918E+001  0.9031356E+02  0.7546771E-02  0.1302094E+00
          2   -1    0    0  501    0  0.00000000000E+00  0.00000000000E+00  0.28727263095E+03  0.28727263095E+03  0.00000000000E+00 0. -1.
         -2   -1    0    0    0  501 -0.00000000000E+00 -0.00000000000E+00 -0.70982556384E+01  0.70982556384E+01  0.00000000000E+00 0.  1.
         23    2    1    2    0    0  0.00000000000E+00  0.00000000000E+00  0.28017437531E+03  0.29437088659E+03  0.90313555403E+02 0.  0.
          2    1    3    3  502    0 -0.45251283114E+01 -0.43412089732E+02  0.10234974270E+03  0.11126794755E+03  0.00000000000E+00 0.  1.
         -2    1    3    3    0  502  0.45251283114E+01  0.43412089732E+02  0.17782463262E+03  0.18310293904E+03  0.00000000000E+00 0. -1.
<mgrwt>
<rscale>  0 0.90313555E+02</rscale>
<asrwt>0</asrwt>
<pdfrwt beam="1">  1        2 0.44195780E-01 0.90313555E+02</pdfrwt>
<pdfrwt beam="2">  1       -2 0.10920396E-02 0.90313555E+02</pdfrwt>
<totfact> 0.18132441E+05</totfact>
</mgrwt>
</event>
<event>
 5    1  0.3862918E+001  0.9146932E+02  0.7546771E-02  0.1299332E+00
          2   -1    0    0  501    0  0.00000000000E+00  0.00000000000E+00  0.35993227394E+02  0.35993227394E+02  0.00000000000E+00 0.  1.
         -2   -1    0    0    0  501 -0.00000000000E+00 -0.00000000000E+00 -0.58112572671E+02  0.58112572671E+02  0.00000000000E+00 0. -1.
         23    2    1    2    0    0  0.00000000000E+00  0.00000000000E+00 -0.22119345277E+02  0.94105800065E+02  0.91469318191E+02 0.  0.
          2    1    3    3  502    0 -0.17424656432E+02  0.16631690314E+02 -0.51057331872E+02  0.56454255042E+02  0.00000000000E+00 0. -1.
         -2    1    3    3    0  502  0.17424656432E+02 -0.16631690314E+02  0.28937986595E+02  0.37651545023E+02  0.00000000000E+00 0.  1.
<mgrwt>
<rscale>  0 0.91469318E+02</rscale>
<asrwt>0</asrwt>
<pdfrwt beam="1">  1        2 0.55374197E-02 0.91469318E+02</pdfrwt>
<pdfrwt beam="2">  1       -2 0.89403957E-02 0.91469318E+02</pdfrwt>
<totfact> 0.91947303E+04</totfact>
</mgrwt>
</event>
<event>
 5    1  0.3862918E+001  0.9073417E+02  0.7546771E-02  0.1301083E+00
          1   -1    0    0  501    0  0.00000000000E+00  0.00000000000E+00  0.71719985635E+01  0.71719985635E+01  0.00000000000E+00 0. -1.
         -1   -1    0    0    0  501 -0.00000000000E+00 -0.00000000000E+00 -0.28697335464E+03  0.28697335464E+03  0.00000000000E+00 0.  1.
         23    2    1    2    0    0  0.00000000000E+00  0.00000000000E+00 -0.27980135607E+03  0.29414535320E+03  0.90734171892E+02 0.  0.
          2    1    3    3  502    0 -0.42238341575E+02  0.16162677848E+02 -0.15152745731E+03  0.15813247602E+03  0.00000000000E+00 0. -1.
         -2    1    3    3    0  502  0.42238341575E+02 -0.16162677848E+02 -0.12827389877E+03  0.13601287718E+03  0.00000000000E+00 0.  1.
<mgrwt>
<rscale>  0 0.90734172E+02</rscale>
<asrwt>0</asrwt>
<pdfrwt beam="1">  1        1 0.11033843E-02 0.90734172E+02</pdfrwt>
<pdfrwt beam="2">  1       -1 0.44149751E-01 0.90734172E+02</pdfrwt>
<totfact> 0.62424107E+04</totfact>
</mgrwt>
</event>
<event>
 5    1  0.3862918E+001  0.9119910E+02  0.7546771E-02  0.1299974E+00
         -2   -1    0    0    0  501 -0.00000000000E+00  0.00000000000E+00  0.40703300351E+01  0.40703300351E+01  0.00000000000E+00 0.  1.
          2   -1    0    0  501    0  0.00000000000E+00 -0.00000000000E+00 -0.51084773281E+03  0.51084773281E+03  0.00000000000E+00 0. -1.
         23    2    1    2    0    0  0.00000000000E+00  0.00000000000E+00 -0.50677740277E+03  0.51491806284E+03  0.91199098027E+02 0.  0.
          2    1    3    3  502    0 -0.95266766780E+01  0.40042281906E+02 -0.36419839015E+03  0.36651686086E+03  0.00000000000E+00 0. -1.
         -2    1    3    3    0  502  0.95266766780E+01 -0.40042281906E+02 -0.14257901262E+03  0.14840120198E+03  0.00000000000E+00 0.  1.
<mgrwt>
<rscale>  0 0.91199098E+02</rscale>
<asrwt>0</asrwt>
<pdfrwt beam="2">  1        2 0.78591925E-01 0.91199098E+02</pdfrwt>
<pdfrwt beam="1">  1       -2 0.62620489E-03 0.91199098E+02</pdfrwt>
<totfact> 0.21685532E+05</totfact>
</mgrwt>
</event>
<event>
 5    1  0.3862918E+001  0.9112225E+02  0.7546771E-02  0.1300157E+00
         -2   -1    0    0    0  501 -0.00000000000E+00  0.00000000000E+00  0.38062300025E+01  0.38062300025E+01  0.00000000000E+00 0.  1.
          2   -1    0    0  501    0  0.00000000000E+00 -0.00000000000E+00 -0.54537324073E+03  0.54537324073E+03  0.00000000000E+00 0. -1.
         23    2    1    2    0    0  0.00000000000E+00  0.00000000000E+00 -0.54156701073E+03  0.54917947073E+03  0.91122247369E+02 0.  0.
          2    1    3    3  502    0 -0.37874822120E+02 -0.14451135838E+02 -0.14544857044E+03  0.15099213265E+03  0.00000000000E+00 0.  1.
         -2    1    3    3    0  502  0.37874822120E+02  0.14451135838E+02 -0.39611844028E+03  0.39818733808E+03  0.00000000000E+00 0. -1.
<mgrwt>
<rscale>  0 0.91122247E+02</rscale>
<asrwt>0</asrwt>
<pdfrwt beam="2">  1        2 0.83903496E-01 0.91122247E+02</pdfrwt>
<pdfrwt beam="1">  1       -2 0.58557440E-03 0.91122247E+02</pdfrwt>
<totfact> 0.22185142E+05</totfact>
</mgrwt>
</event>
<event>
 5    1  0.3862918E+001  0.9150254E+02  0.7546771E-02  0.1299253E+00
         -2   -1    0    0    0  501 -0.00000000000E+00  0.00000000000E+00  0.15174908685E+01  0.15174908685E+01  0.00000000000E+00 0.  1.
          2   -1    0    0  501    0  0.00000000000E+00 -0.00000000000E+00 -0.13793682055E+04  0.13793682055E+04  0.00000000000E+00 0. -1.
         23    2    1    2    0    0  0.00000000000E+00  0.00000000000E+00 -0.13778507146E+04  0.13808856964E+04  0.91502538897E+02 0.  0.
          2    1    3    3  502    0 -0.28361861946E+02  0.35722017088E+02 -0.63510034234E+03  0.63673613260E+03  0.00000000000E+00 0. -1.
         -2    1    3    3    0  502  0.28361861946E+02 -0.35722017088E+02 -0.74275037228E+03  0.74414956376E+03  0.00000000000E+00 0.  1.
<mgrwt>
<rscale>  0 0.91502539E+02</rscale>
<asrwt>0</asrwt>
<pdfrwt beam="2">  1        2 0.21221049E+00 0.91502539E+02</pdfrwt>
<pdfrwt beam="1">  1       -2 0.23346014E-03 0.91502539E+02</pdfrwt>
<totfact> 0.24011778E+05</totfact>
</mgrwt>
</event>
<event>
 5    1  0.3862918E+001  0.7156227E+02  0.7546771E-02  0.1354860E+00
         -2   -1    0    0    0  501 -0.00000000000E+00  0.00000000000E+00  0.34369011719E+02  0.34369011719E+02  0.00000000000E+00 0.  1.
          2   -1    0    0  501    0  0.00000000000E+00 -0.00000000000E+00 -0.37251275680E+02  0.37251275680E+02  0.00000000000E+00 0. -1.
         23    2    1    2    0    0  0.00000000000E+00  0.00000000000E+00 -0.28822639617E+01  0.71620287399E+02  0.71562267443E+02 0.  0.
          2    1    3    3  502    0  0.27705391204E+02 -0.17839258759E+02 -0.15397389630E+02  0.36371794873E+02  0.00000000000E+00 0. -1.
         -2    1    3    3    0  502 -0.27705391204E+02  0.17839258759E+02  0.12515125669E+02  0.35248492526E+02  0.00000000000E+00 0.  1.
<mgrwt>
<rscale>  0 0.71562267E+02</rscale>
<asrwt>0</asrwt>
<pdfrwt beam="2">  1        2 0.57309654E-02 0.71562267E+02</pdfrwt>
<pdfrwt beam="1">  1       -2 0.52875403E-02 0.71562267E+02</pdfrwt>
<totfact> 0.18618613E+05</totfact>
</mgrwt>
</event>
<event>
 5    1  0.3862918E+001  0.1089979E+03  0.7546771E-02  0.1262437E+00
          4   -1    0    0  501    0  0.00000000000E+00  0.00000000000E+00  0.40861701781E+02  0.40861701781E+02  0.00000000000E+00 0. -1.
         -4   -1    0    0    0  501 -0.00000000000E+00 -0.00000000000E+00 -0.72687463296E+02  0.72687463296E+02  0.00000000000E+00 0.  1.
         23    2    1    2    0    0  0.00000000000E+00  0.00000000000E+00 -0.31825761515E+02  0.11354916508E+03  0.10899786142E+03 0.  0.
          2    1    3    3  502    0  0.10056066855E+02  0.23608220832E+02  0.34174466345E+02  0.42736011997E+02  0.00000000000E+00 0. -1.
         -2    1    3    3    0  502 -0.10056066855E+02 -0.23608220832E+02 -0.66000227860E+02  0.70813153080E+02  0.00000000000E+00 0.  1.
<mgrwt>
<rscale>  0 0.10899786E+03</rscale>
<asrwt>0</asrwt>
<pdfrwt beam="1">  1        4 0.62864156E-02 0.10899786E+03</pdfrwt>
<pdfrwt beam="2">  1       -4 0.11182687E-01 0.10899786E+03</pdfrwt>
<totfact> 0.15723693E+04</totfact>
</mgrwt>
</event>
<event>
 5    1  0.3862918E+001  0.9281928E+02  0.7546771E-02  0.1296165E+00
         -1   -1    0    0    0  501 -0.00000000000E+00  0.00000000000E+00  0.46931278428E+02  0.46931278428E+02  0.00000000000E+00 0.  1.
          1   -1    0    0  501    0  0.00000000000E+00 -0.00000000000E+00 -0.45893800653E+02  0.45893800653E+02  0.00000000000E+00 0. -1.
         23    2    1    2    0    0  0.00000000000E+00  0.00000000000E+00  0.10374777755E+01  0.92825079081E+02  0.92819281113E+02 0.  0.
          2    1    3    3  502    0  0.11573200188E+02 -0.44597218077E+02  0.60872025220E+01  0.46474776571E+02  0.00000000000E+00 0.  1.
         -2    1    3    3    0  502 -0.11573200188E+02  0.44597218077E+02 -0.50497247465E+01  0.46350302510E+02  0.00000000000E+00 0. -1.
<mgrwt>
<rscale>  0 0.92819281E+02</rscale>
<asrwt>0</asrwt>
<pdfrwt beam="2">  1        1 0.70605847E-02 0.92819281E+02</pdfrwt>
<pdfrwt beam="1">  1       -1 0.72201967E-02 0.92819281E+02</pdfrwt>
<totfact> 0.88031390E+04</totfact>
</mgrwt>
</event>
<event>
 5    1  0.3862918E+001  0.8922499E+02  0.7546771E-02  0.1304739E+00
         -1   -1    0    0    0  501 -0.00000000000E+00  0.00000000000E+00  0.88518024642E+01  0.88518024642E+01  0.00000000000E+00 0.  1.
          1   -1    0    0  501    0  0.00000000000E+00 -0.00000000000E+00 -0.22484399405E+03  0.22484399405E+03  0.00000000000E+00 0. -1.
         23    2    1    2    0    0  0.00000000000E+00  0.00000000000E+00 -0.21599219159E+03  0.23369579652E+03  0.89224987993E+02 0.  0.
          2    1    3    3  502    0  0.40753904522E+02 -0.16166402830E+02 -0.12960091937E+03  0.13681605028E+03  0.00000000000E+00 0. -1.
         -2    1    3    3    0  502 -0.40753904522E+02  0.16166402830E+02 -0.86391272221E+02  0.96879746234E+02  0.00000000000E+00 0.  1.
<mgrwt>
<rscale>  0 0.89224988E+02</rscale>
<asrwt>0</asrwt>
<pdfrwt beam="2">  1        1 0.34591388E-01 0.89224988E+02</pdfrwt>
<pdfrwt beam="1">  1       -1 0.13618156E-02 0.89224988E+02</pdfrwt>
<totfact> 0.12834666E+05</totfact>
</mgrwt>
</event>
<event>
 5    1  0.3862918E+001  0.8799021E+02  0.7546771E-02  0.1307793E+00
         -2   -1    0    0    0  501 -0.00000000000E+00  0.00000000000E+00  0.11867335096E+01  0.11867335096E+01  0.00000000000E+00 0. -1.
          2   -1    0    0  501    0  0.00000000000E+00 -0.00000000000E+00 -0.16310060066E+04  0.16310060066E+04  0.00000000000E+00 0.  1.
         23    2    1    2    0    0  0.00000000000E+00  0.00000000000E+00 -0.16298192731E+04  0.16321927401E+04  0.87990214965E+02 0.  0.
          2    1    3    3  502    0 -0.31549162455E+02 -0.30627665337E+02 -0.78760974316E+03  0.78883617505E+03  0.00000000000E+00 0.  1.
         -2    1    3    3    0  502  0.31549162455E+02  0.30627665337E+02 -0.84220952992E+03  0.84335656506E+03  0.00000000000E+00 0. -1.
<mgrwt>
<rscale>  0 0.87990215E+02</rscale>
<asrwt>0</asrwt>
<pdfrwt beam="2">  1        2 0.25092439E+00 0.87990215E+02</pdfrwt>
<pdfrwt beam="1">  1       -2 0.18257410E-03 0.87990215E+02</pdfrwt>
<totfact> 0.24970834E+05</totfact>
</mgrwt>
</event>
<event>
 5    1  0.3862918E+001  0.9689995E+02  0.7546771E-02  0.1286953E+00
         -1   -1    0    0    0  501 -0.00000000000E+00  0.00000000000E+00  0.13835626765E+02  0.13835626765E+02  0.00000000000E+00 0.  1.
          1   -1    0    0  501    0  0.00000000000E+00 -0.00000000000E+00 -0.16966342581E+03  0.16966342581E+03  0.00000000000E+00 0. -1.
         23    2    1    2    0    0  0.00000000000E+00  0.00000000000E+00 -0.15582779905E+03  0.18349905258E+03  0.96899945001E+02 0.  0.
          2    1    3    3  502    0  0.26437350394E+02 -0.29916108864E+02 -0.12989552315E+03  0.13589243541E+03  0.00000000000E+00 0. -1.
         -2    1    3    3    0  502 -0.26437350394E+02  0.29916108864E+02 -0.25932275893E+02  0.47606617171E+02  0.00000000000E+00 0.  1.
<mgrwt>
<rscale>  0 0.96899945E+02</rscale>
<asrwt>0</asrwt>
<pdfrwt beam="2">  1        1 0.26102064E-01 0.96899945E+02</pdfrwt>
<pdfrwt beam="1">  1       -1 0.21285580E-02 0.96899945E+02</pdfrwt>
<totfact> 0.97332138E+04</totfact>
</mgrwt>
</event>
<event>
 5    1  0.3862918E+001  0.9085304E+02  0.7546771E-02  0.1300799E+00
         -1   -1    0    0    0  501 -0.00000000000E+00  0.00000000000E+00  0.30226952054E+01  0.30226952054E+01  0.00000000000E+00 0.  1.
          1   -1    0    0  501    0  0.00000000000E+00 -0.00000000000E+00 -0.68269167030E+03  0.68269167030E+03  0.00000000000E+00 0. -1.
         23    2    1    2    0    0  0.00000000000E+00  0.00000000000E+00 -0.67966897510E+03  0.68571436551E+03  0.90853042626E+02 0.  0.
          2    1    3    3  502    0  0.26519318614E+02  0.30002571554E+02 -0.50173525127E+03  0.50333059804E+03  0.00000000000E+00 0. -1.
         -2    1    3    3    0  502 -0.26519318614E+02 -0.30002571554E+02 -0.17793372383E+03  0.18238376746E+03  0.00000000000E+00 0.  1.
<mgrwt>
<rscale>  0 0.90853043E+02</rscale>
<asrwt>0</asrwt>
<pdfrwt beam="2">  1        1 0.10502951E+00 0.90853043E+02</pdfrwt>
<pdfrwt beam="1">  1       -1 0.46502994E-03 0.90853043E+02</pdfrwt>
<totfact> 0.14352952E+05</totfact>
</mgrwt>
</event>
<event>
 5    1  0.3862918E+001  0.8824829E+02  0.7546771E-02  0.1307150E+00
         -1   -1    0    0    0  501 -0.00000000000E+00  0.00000000000E+00  0.66667281483E+00  0.66667281483E+00  0.00000000000E+00 0.  1.
          1   -1    0    0  501    0  0.00000000000E+00 -0.00000000000E+00 -0.29203833534E+04  0.29203833534E+04  0.00000000000E+00 0. -1.
         23    2    1    2    0    0  0.00000000000E+00  0.00000000000E+00 -0.29197166806E+04  0.29210500263E+04  0.88248290422E+02 0.  0.
          2    1    3    3  502    0  0.35329311776E+02  0.26129642743E+02 -0.15923494869E+04  0.15929556827E+04  0.00000000000E+00 0. -1.
         -2    1    3    3    0  502 -0.35329311776E+02 -0.26129642743E+02 -0.13273671937E+04  0.13280943436E+04  0.00000000000E+00 0.  1.
<mgrwt>
<rscale>  0 0.88248290E+02</rscale>
<asrwt>0</asrwt>
<pdfrwt beam="2">  1        1 0.44929509E+00 0.88248290E+02</pdfrwt>
<pdfrwt beam="1">  1       -1 0.10256383E-03 0.88248290E+02</pdfrwt>
<totfact> 0.37427773E+04</totfact>
</mgrwt>
</event>
<event>
 5    1  0.3862918E+001  0.9247843E+02  0.7546771E-02  0.1296958E+00
         -2   -1    0    0    0  501 -0.00000000000E+00  0.00000000000E+00  0.16011589665E+01  0.16011589665E+01  0.00000000000E+00 0.  1.
          2   -1    0    0  501    0  0.00000000000E+00 -0.00000000000E+00 -0.13353232500E+04  0.13353232500E+04  0.00000000000E+00 0. -1.
         23    2    1    2    0    0  0.00000000000E+00  0.00000000000E+00 -0.13337220910E+04  0.13369244090E+04  0.92478425483E+02 0.  0.
          2    1    3    3  502    0 -0.88373133285E+01 -0.45102377552E+02 -0.59351284128E+03  0.59528969027E+03  0.00000000000E+00 0. -1.
         -2    1    3    3    0  502  0.88373133285E+01  0.45102377552E+02 -0.74020924976E+03  0.74163471871E+03  0.00000000000E+00 0.  1.
<mgrwt>
<rscale>  0 0.92478425E+02</rscale>
<asrwt>0</asrwt>
<pdfrwt beam="2">  1        2 0.20543457E+00 0.92478425E+02</pdfrwt>
<pdfrwt beam="1">  1       -2 0.24633188E-03 0.92478425E+02</pdfrwt>
<totfact> 0.23536088E+05</totfact>
</mgrwt>
</event>
<event>
 5    1  0.3862918E+001  0.9686333E+02  0.7546771E-02  0.1287034E+00
         -2   -1    0    0    0  501 -0.00000000000E+00  0.00000000000E+00  0.11710131811E+03  0.11710131811E+03  0.00000000000E+00 0.  1.
          2   -1    0    0  501    0  0.00000000000E+00 -0.00000000000E+00 -0.20030741011E+02  0.20030741011E+02  0.00000000000E+00 0. -1.
         23    2    1    2    0    0  0.00000000000E+00  0.00000000000E+00  0.97070577096E+02  0.13713205912E+03  0.96863330007E+02 0.  0.
          2    1    3    3  502    0  0.37749106075E+02 -0.11479871383E+02  0.88297917245E+02  0.96712484438E+02  0.00000000000E+00 0.  1.
         -2    1    3    3    0  502 -0.37749106075E+02  0.11479871383E+02  0.87726598510E+01  0.40419574679E+02  0.00000000000E+00 0. -1.
<mgrwt>
<rscale>  0 0.96863330E+02</rscale>
<asrwt>0</asrwt>
<pdfrwt beam="2">  1        2 0.30816525E-02 0.96863330E+02</pdfrwt>
<pdfrwt beam="1">  1       -2 0.18015587E-01 0.96863330E+02</pdfrwt>
<totfact> 0.65310048E+04</totfact>
</mgrwt>
</event>
<event>
 5    1  0.3862918E+001  0.9280301E+02  0.7546771E-02  0.1296202E+00
          4   -1    0    0  501    0  0.00000000000E+00  0.00000000000E+00  0.38507505495E+02  0.38507505495E+02  0.00000000000E+00 0.  1.
         -4   -1    0    0    0  501 -0.00000000000E+00 -0.00000000000E+00 -0.55913770774E+02  0.55913770774E+02  0.00000000000E+00 0. -1.
         23    2    1    2    0    0  0.00000000000E+00  0.00000000000E+00 -0.17406265278E+02  0.94421276269E+02  0.92803013644E+02 0.  0.
          2    1    3    3  502    0  0.24686020468E+02 -0.26250934057E+02 -0.38446241269E+02  0.52693686654E+02  0.00000000000E+00 0. -1.
         -2    1    3    3    0  502 -0.24686020468E+02  0.26250934057E+02  0.21039975991E+02  0.41727589615E+02  0.00000000000E+00 0.  1.
<mgrwt>
<rscale>  0 0.92803014E+02</rscale>
<asrwt>0</asrwt>
<pdfrwt beam="1">  1        4 0.59242316E-02 0.92803014E+02</pdfrwt>
<pdfrwt beam="2">  1       -4 0.86021186E-02 0.92803014E+02</pdfrwt>
<totfact> 0.25549721E+04</totfact>
</mgrwt>
</event>
<event>
 5    1  0.3862918E+001  0.9026778E+02  0.7546771E-02  0.1302205E+00
          2   -1    0    0  501    0  0.00000000000E+00  0.00000000000E+00  0.81672540636E+02  0.81672540636E+02  0.00000000000E+00 0. -1.
         -2   -1    0    0    0  501 -0.00000000000E+00 -0.00000000000E+00 -0.24941897736E+02  0.24941897736E+02  0.00000000000E+00 0.  1.
         23    2    1    2    0    0  0.00000000000E+00  0.00000000000E+00  0.56730642900E+02  0.10661443837E+03  0.90267782877E+02 0.  0.
          2    1    3    3  502    0 -0.21949045087E+02  0.38082202089E+02  0.16259662665E+02  0.46865673218E+02  0.00000000000E+00 0.  1.
         -2    1    3    3    0  502  0.21949045087E+02 -0.38082202089E+02  0.40470980235E+02  0.59748765154E+02  0.00000000000E+00 0. -1.
<mgrwt>
<rscale>  0 0.90267783E+02</rscale>
<asrwt>0</asrwt>
<pdfrwt beam="1">  1        2 0.12565006E-01 0.90267783E+02</pdfrwt>
<pdfrwt beam="2">  1       -2 0.38372151E-02 0.90267783E+02</pdfrwt>
<totfact> 0.11879428E+05</totfact>
</mgrwt>
</event>
<event>
 5    1  0.3862918E+001  0.9157437E+02  0.7546771E-02  0.1299083E+00
         -2   -1    0    0    0  501 -0.00000000000E+00  0.00000000000E+00  0.12679906699E+01  0.12679906699E+01  0.00000000000E+00 0.  1.
          2   -1    0    0  501    0  0.00000000000E+00 -0.00000000000E+00 -0.16533766177E+04  0.16533766177E+04  0.00000000000E+00 0. -1.
         23    2    1    2    0    0  0.00000000000E+00  0.00000000000E+00 -0.16521086270E+04  0.16546446084E+04  0.91574365956E+02 0.  0.
          2    1    3    3  502    0 -0.31262565248E+02  0.28523032260E+02 -0.11419002850E+04  0.11426841962E+04  0.00000000000E+00 0. -1.
         -2    1    3    3    0  502  0.31262565248E+02 -0.28523032260E+02 -0.51020834202E+03  0.51196041216E+03  0.00000000000E+00 0.  1.
<mgrwt>
<rscale>  0 0.91574366E+02</rscale>
<asrwt>0</asrwt>
<pdfrwt beam="2">  1        2 0.25436588E+00 0.91574366E+02</pdfrwt>
<pdfrwt beam="1">  1       -2 0.19507530E-03 0.91574366E+02</pdfrwt>
<totfact> 0.22319299E+05</totfact>
</mgrwt>
</event>
<event>
 5    1  0.3862918E+001  0.9181983E+02  0.7546771E-02  0.1298504E+00
          1   -1    0    0  501    0  0.00000000000E+00  0.00000000000E+00  0.27376190560E+02  0.27376190560E+02  0.00000000000E+00 0. -1.
         -1   -1    0    0    0  501 -0.00000000000E+00 -0.00000000000E+00 -0.76991002231E+02  0.76991002231E+02  0.00000000000E+00 0.  1.
         23    2    1    2    0    0  0.00000000000E+00  0.00000000000E+00 -0.49614811671E+02  0.10436719279E+03  0.91819831158E+02 0.  0.
          2    1    3    3  502    0  0.25281414595E+02 -0.29989390794E+02  0.23109014037E+01  0.39291904375E+02  0.00000000000E+00 0. -1.
         -2    1    3    3    0  502 -0.25281414595E+02  0.29989390794E+02 -0.51925713074E+02  0.65075288416E+02  0.00000000000E+00 0.  1.
<mgrwt>
<rscale>  0 0.91819831E+02</rscale>
<asrwt>0</asrwt>
<pdfrwt beam="1">  1        1 0.42117216E-02 0.91819831E+02</pdfrwt>
<pdfrwt beam="2">  1       -1 0.11844770E-01 0.91819831E+02</pdfrwt>
<totfact> 0.83678522E+04</totfact>
</mgrwt>
</event>
<event>
 5    1  0.3862918E+001  0.9063819E+02  0.7546771E-02  0.1301314E+00
         -1   -1    0    0    0  501 -0.00000000000E+00  0.00000000000E+00  0.56831866751E+02  0.56831866751E+02  0.00000000000E+00 0.  1.
          1   -1    0    0  501    0  0.00000000000E+00 -0.00000000000E+00 -0.36138537337E+02  0.36138537337E+02  0.00000000000E+00 0. -1.
         23    2    1    2    0    0  0.00000000000E+00  0.00000000000E+00  0.20693329414E+02  0.92970404087E+02  0.90638193682E+02 0.  0.
          2    1    3    3  502    0 -0.10588965126E+02  0.20429560449E+02  0.50393906232E+02  0.55398907100E+02  0.00000000000E+00 0.  1.
         -2    1    3    3    0  502  0.10588965126E+02 -0.20429560449E+02 -0.29700576818E+02  0.37571496987E+02  0.00000000000E+00 0. -1.
<mgrwt>
<rscale>  0 0.90638194E+02</rscale>
<asrwt>0</asrwt>
<pdfrwt beam="2">  1        1 0.55597750E-02 0.90638194E+02</pdfrwt>
<pdfrwt beam="1">  1       -1 0.87433641E-02 0.90638194E+02</pdfrwt>
<totfact> 0.90778786E+04</totfact>
</mgrwt>
</event>
<event>
 5    1  0.3862918E+001  0.9123311E+02  0.7546771E-02  0.1299893E+00
         -1   -1    0    0    0  501 -0.00000000000E+00  0.00000000000E+00  0.75095953863E+01  0.75095953863E+01  0.00000000000E+00 0.  1.
          1   -1    0    0  501    0  0.00000000000E+00 -0.00000000000E+00 -0.27709485302E+03  0.27709485302E+03  0.00000000000E+00 0. -1.
         23    2    1    2    0    0  0.00000000000E+00  0.00000000000E+00 -0.26958525763E+03  0.28460444840E+03  0.91233113063E+02 0.  0.
          2    1    3    3  502    0  0.21849340078E+02  0.30518723505E+02 -0.53920105284E+02  0.65697518218E+02  0.00000000000E+00 0.  1.
         -2    1    3    3    0  502 -0.21849340078E+02 -0.30518723505E+02 -0.21566515235E+03  0.21890693018E+03  0.00000000000E+00 0. -1.
<mgrwt>
<rscale>  0 0.91233113E+02</rscale>
<asrwt>0</asrwt>
<pdfrwt beam="2">  1        1 0.42629983E-01 0.91233113E+02</pdfrwt>
<pdfrwt beam="1">  1       -1 0.11553222E-02 0.91233113E+02</pdfrwt>
<totfact> 0.12596992E+05</totfact>
</mgrwt>
</event>
<event>
 5    1  0.3862918E+001  0.9565074E+02  0.7546771E-02  0.1289717E+00
          1   -1    0    0  501    0  0.00000000000E+00  0.00000000000E+00  0.12716446985E+04  0.12716446985E+04  0.00000000000E+00 0. -1.
         -1   -1    0    0    0  501 -0.00000000000E+00 -0.00000000000E+00 -0.17986674505E+01  0.17986674505E+01  0.00000000000E+00 0.  1.
         23    2    1    2    0    0  0.00000000000E+00  0.00000000000E+00  0.12698460310E+04  0.12734433659E+04  0.95650738163E+02 0.  0.
          2    1    3    3  502    0 -0.27294041929E+02  0.38830875924E+02  0.71308145891E+03  0.71465933751E+03  0.00000000000E+00 0. -1.
         -2    1    3    3    0  502  0.27294041929E+02 -0.38830875924E+02  0.55676457209E+03  0.55878402839E+03  0.00000000000E+00 0.  1.
<mgrwt>
<rscale>  0 0.95650738E+02</rscale>
<asrwt>0</asrwt>
<pdfrwt beam="1">  1        1 0.19563693E+00 0.95650738E+02</pdfrwt>
<pdfrwt beam="2">  1       -1 0.27671909E-03 0.95650738E+02</pdfrwt>
<totfact> 0.10886050E+05</totfact>
</mgrwt>
</event>
<event>
 5    1  0.3862918E+001  0.8863756E+02  0.7546771E-02  0.1306185E+00
         -3   -1    0    0    0  501 -0.00000000000E+00  0.00000000000E+00  0.10251545684E+04  0.10251545684E+04  0.00000000000E+00 0.  1.
          3   -1    0    0  501    0  0.00000000000E+00 -0.00000000000E+00 -0.19159591401E+01  0.19159591401E+01  0.00000000000E+00 0. -1.
         23    2    1    2    0    0  0.00000000000E+00  0.00000000000E+00  0.10232386092E+04  0.10270705275E+04  0.88637560105E+02 0.  0.
          2    1    3    3  502    0 -0.17230071087E+02 -0.35073564551E+02  0.26935758657E+03  0.27217740487E+03  0.00000000000E+00 0. -1.
         -2    1    3    3    0  502  0.17230071087E+02  0.35073564551E+02  0.75388102268E+03  0.75489312265E+03  0.00000000000E+00 0.  1.
<mgrwt>
<rscale>  0 0.88637560E+02</rscale>
<asrwt>0</asrwt>
<pdfrwt beam="2">  1        3 0.29476376E-03 0.88637560E+02</pdfrwt>
<pdfrwt beam="1">  1       -3 0.15771565E+00 0.88637560E+02</pdfrwt>
<totfact> 0.10459070E+04</totfact>
</mgrwt>
</event>
<event>
 5    1  0.3862918E+001  0.9085417E+02  0.7546771E-02  0.1300796E+00
         -4   -1    0    0    0  501 -0.00000000000E+00  0.00000000000E+00  0.15416287611E+02  0.15416287611E+02  0.00000000000E+00 0.  1.
          4   -1    0    0  501    0  0.00000000000E+00 -0.00000000000E+00 -0.13385973093E+03  0.13385973093E+03  0.00000000000E+00 0. -1.
         23    2    1    2    0    0  0.00000000000E+00  0.00000000000E+00 -0.11844344332E+03  0.14927601854E+03  0.90854171321E+02 0.  0.
          2    1    3    3  502    0 -0.23299429556E+01  0.37527727152E+02 -0.10110642718E+03  0.10787153729E+03  0.00000000000E+00 0. -1.
         -2    1    3    3    0  502  0.23299429556E+01 -0.37527727152E+02 -0.17337016136E+02  0.41404481253E+02  0.00000000000E+00 0.  1.
<mgrwt>
<rscale>  0 0.90854171E+02</rscale>
<asrwt>0</asrwt>
<pdfrwt beam="2">  1        4 0.20593805E-01 0.90854171E+02</pdfrwt>
<pdfrwt beam="1">  1       -4 0.23717366E-02 0.90854171E+02</pdfrwt>
<totfact> 0.23936680E+04</totfact>
</mgrwt>
</event>
<event>
 5    1  0.3862918E+001  0.9801933E+02  0.7546771E-02  0.1284517E+00
          3   -1    0    0  501    0  0.00000000000E+00  0.00000000000E+00  0.41995125840E+03  0.41995125840E+03  0.00000000000E+00 0. -1.
         -3   -1    0    0    0  501 -0.00000000000E+00 -0.00000000000E+00 -0.57195859508E+01  0.57195859508E+01  0.00000000000E+00 0.  1.
         23    2    1    2    0    0  0.00000000000E+00  0.00000000000E+00  0.41423167245E+03  0.42567084435E+03  0.98019331105E+02 0.  0.
          2    1    3    3  502    0 -0.46870308006E+02 -0.92303639414E+01  0.25467250971E+03  0.25911409184E+03  0.00000000000E+00 0. -1.
         -2    1    3    3    0  502  0.46870308006E+02  0.92303639414E+01  0.15955916274E+03  0.16655675251E+03  0.00000000000E+00 0.  1.
<mgrwt>
<rscale>  0 0.98019331E+02</rscale>
<asrwt>0</asrwt>
<pdfrwt beam="1">  1        3 0.64607862E-01 0.98019331E+02</pdfrwt>
<pdfrwt beam="2">  1       -3 0.87993663E-03 0.98019331E+02</pdfrwt>
<totfact> 0.16353530E+04</totfact>
</mgrwt>
</event>
<event>
 5    1  0.3862918E+001  0.8900455E+02  0.7546771E-02  0.1305280E+00
         -4   -1    0    0    0  501 -0.00000000000E+00  0.00000000000E+00  0.48776893476E+02  0.48776893476E+02  0.00000000000E+00 0.  1.
          4   -1    0    0  501    0  0.00000000000E+00 -0.00000000000E+00 -0.40602263478E+02  0.40602263478E+02  0.00000000000E+00 0. -1.
         23    2    1    2    0    0  0.00000000000E+00  0.00000000000E+00  0.81746299983E+01  0.89379156954E+02  0.89004545515E+02 0.  0.
          2    1    3    3  502    0  0.17890536759E+02 -0.30314651438E+02 -0.23256002315E+02  0.42188754912E+02  0.00000000000E+00 0. -1.
         -2    1    3    3    0  502 -0.17890536759E+02  0.30314651438E+02  0.31430632313E+02  0.47190402043E+02  0.00000000000E+00 0.  1.
<mgrwt>
<rscale>  0 0.89004546E+02</rscale>
<asrwt>0</asrwt>
<pdfrwt beam="2">  1        4 0.62465021E-02 0.89004546E+02</pdfrwt>
<pdfrwt beam="1">  1       -4 0.75041374E-02 0.89004546E+02</pdfrwt>
<totfact> 0.28962527E+04</totfact>
</mgrwt>
</event>
<event>
 5    1  0.3862918E+001  0.9186694E+02  0.7546771E-02  0.1298393E+00
         -3   -1    0    0    0  501 -0.00000000000E+00  0.00000000000E+00  0.49947335670E+03  0.49947335670E+03  0.00000000000E+00 0.  1.
          3   -1    0    0  501    0  0.00000000000E+00 -0.00000000000E+00 -0.42242164243E+01  0.42242164243E+01  0.00000000000E+00 0. -1.
         23    2    1    2    0    0  0.00000000000E+00  0.00000000000E+00  0.49524914028E+03  0.50369757313E+03  0.91866937619E+02 0.  0.
          2    1    3    3  502    0  0.16915642402E+02  0.12104575236E+02  0.23078150539E+02  0.31068645477E+02  0.00000000000E+00 0. -1.
         -2    1    3    3    0  502 -0.16915642402E+02 -0.12104575236E+02  0.47217098974E+03  0.47262892765E+03  0.00000000000E+00 0.  1.
<mgrwt>
<rscale>  0 0.91866938E+02</rscale>
<asrwt>0</asrwt>
<pdfrwt beam="2">  1        3 0.64987985E-03 0.91866938E+02</pdfrwt>
<pdfrwt beam="1">  1       -3 0.76842008E-01 0.91866938E+02</pdfrwt>
<totfact> 0.17446817E+04</totfact>
</mgrwt>
</event>
<event>
 5    1  0.3862918E+001  0.9032697E+02  0.7546771E-02  0.1302062E+00
          3   -1    0    0  501    0  0.00000000000E+00  0.00000000000E+00  0.10649819154E+02  0.10649819154E+02  0.00000000000E+00 0. -1.
         -3   -1    0    0    0  501 -0.00000000000E+00 -0.00000000000E+00 -0.19152818329E+03  0.19152818329E+03  0.00000000000E+00 0.  1.
         23    2    1    2    0    0  0.00000000000E+00  0.00000000000E+00 -0.18087836414E+03  0.20217800245E+03  0.90326973048E+02 0.  0.
          2    1    3    3  502    0  0.14712186160E+02  0.23744226935E+02 -0.11003398796E+02  0.30021850700E+02  0.00000000000E+00 0. -1.
         -2    1    3    3    0  502 -0.14712186160E+02 -0.23744226935E+02 -0.16987496534E+03  0.17215615175E+03  0.00000000000E+00 0.  1.
<mgrwt>
<rscale>  0 0.90326973E+02</rscale>
<asrwt>0</asrwt>
<pdfrwt beam="1">  1        3 0.16384338E-02 0.90326973E+02</pdfrwt>
<pdfrwt beam="2">  1       -3 0.29465872E-01 0.90326973E+02</pdfrwt>
<totfact> 0.29109965E+04</totfact>
</mgrwt>
</event>
<event>
 5    1  0.3862918E+001  0.9329591E+02  0.7546771E-02  0.1295061E+00
          2   -1    0    0  501    0  0.00000000000E+00  0.00000000000E+00  0.16002105325E+03  0.16002105325E+03  0.00000000000E+00 0. -1.
         -2   -1    0    0    0  501 -0.00000000000E+00 -0.00000000000E+00 -0.13598407763E+02  0.13598407763E+02  0.00000000000E+00 0.  1.
         23    2    1    2    0    0  0.00000000000E+00  0.00000000000E+00  0.14642264549E+03  0.17361946101E+03  0.93295906293E+02 0.  0.
          2    1    3    3  502    0 -0.57766125860E+01 -0.43888674933E+02  0.45832731875E+02  0.63719889764E+02  0.00000000000E+00 0.  1.
         -2    1    3    3    0  502  0.57766125860E+01  0.43888674933E+02  0.10058991361E+03  0.10989957125E+03  0.00000000000E+00 0. -1.
<mgrwt>
<rscale>  0 0.93295906E+02</rscale>
<asrwt>0</asrwt>
<pdfrwt beam="1">  1        2 0.24618622E-01 0.93295906E+02</pdfrwt>
<pdfrwt beam="2">  1       -2 0.20920628E-02 0.93295906E+02</pdfrwt>
<totfact> 0.13429864E+05</totfact>
</mgrwt>
</event>
<event>
 5    1  0.3862918E+001  0.9078865E+02  0.7546771E-02  0.1300953E+00
          2   -1    0    0  501    0  0.00000000000E+00  0.00000000000E+00  0.27079932009E+03  0.27079932009E+03  0.00000000000E+00 0. -1.
         -2   -1    0    0    0  501 -0.00000000000E+00 -0.00000000000E+00 -0.76094905440E+01  0.76094905440E+01  0.00000000000E+00 0.  1.
         23    2    1    2    0    0  0.00000000000E+00  0.00000000000E+00  0.26318982955E+03  0.27840881063E+03  0.90788652717E+02 0.  0.
          2    1    3    3  502    0 -0.19993345668E+02  0.36578425788E+01  0.25606592811E+03  0.25687131647E+03  0.00000000000E+00 0. -1.
         -2    1    3    3    0  502  0.19993345668E+02 -0.36578425788E+01  0.71239014316E+01  0.21537494165E+02  0.00000000000E+00 0.  1.
<mgrwt>
<rscale>  0 0.90788653E+02</rscale>
<asrwt>0</asrwt>
<pdfrwt beam="1">  1        2 0.41661426E-01 0.90788653E+02</pdfrwt>
<pdfrwt beam="2">  1       -2 0.11706911E-02 0.90788653E+02</pdfrwt>
<totfact> 0.17491021E+05</totfact>
</mgrwt>
</event>
<event>
 5    1  0.3862918E+001  0.9242204E+02  0.7546771E-02  0.1297090E+00
          2   -1    0    0  501    0  0.00000000000E+00  0.00000000000E+00  0.21208382109E+04  0.21208382109E+04  0.00000000000E+00 0.  1.
         -2   -1    0    0    0  501 -0.00000000000E+00 -0.00000000000E+00 -0.10068935194E+01  0.10068935194E+01  0.00000000000E+00 0. -1.
         23    2    1    2    0    0  0.00000000000E+00  0.00000000000E+00  0.21198313174E+04  0.21218451045E+04  0.92422037423E+02 0.  0.
          2    1    3    3  502    0  0.42519939821E+02 -0.69315129377E+00  0.64473835688E+03  0.64613928419E+03  0.00000000000E+00 0. -1.
         -2    1    3    3    0  502 -0.42519939821E+02  0.69315129377E+00  0.14750929605E+04  0.14757058203E+04  0.00000000000E+00 0.  1.
<mgrwt>
<rscale>  0 0.92422037E+02</rscale>
<asrwt>0</asrwt>
<pdfrwt beam="1">  1        2 0.32627923E+00 0.92422037E+02</pdfrwt>
<pdfrwt beam="2">  1       -2 0.15490839E-03 0.92422037E+02</pdfrwt>
<totfact> 0.17895320E+05</totfact>
</mgrwt>
</event>
<event>
 5    1  0.3862918E+001  0.9360631E+02  0.7546771E-02  0.1294346E+00
          4   -1    0    0  501    0  0.00000000000E+00  0.00000000000E+00  0.60115870412E+02  0.60115870412E+02  0.00000000000E+00 0. -1.
         -4   -1    0    0    0  501 -0.00000000000E+00 -0.00000000000E+00 -0.36438553683E+02  0.36438553683E+02  0.00000000000E+00 0.  1.
         23    2    1    2    0    0  0.00000000000E+00  0.00000000000E+00  0.23677316728E+02  0.96554424095E+02  0.93606311138E+02 0.  0.
          2    1    3    3  502    0  0.14855972245E+02  0.41637311889E+02  0.27690479126E+02  0.52164435077E+02  0.00000000000E+00 0. -1.
         -2    1    3    3    0  502 -0.14855972245E+02 -0.41637311889E+02 -0.40131623972E+01  0.44389989019E+02  0.00000000000E+00 0.  1.
<mgrwt>
<rscale>  0 0.93606311E+02</rscale>
<asrwt>0</asrwt>
<pdfrwt beam="1">  1        4 0.92485954E-02 0.93606311E+02</pdfrwt>
<pdfrwt beam="2">  1       -4 0.56059313E-02 0.93606311E+02</pdfrwt>
<totfact> 0.24831322E+04</totfact>
</mgrwt>
</event>
<event>
 5    1  0.3862918E+001  0.9012809E+02  0.7546771E-02  0.1302542E+00
         -2   -1    0    0    0  501 -0.00000000000E+00  0.00000000000E+00  0.17204377807E+01  0.17204377807E+01  0.00000000000E+00 0.  1.
          2   -1    0    0  501    0  0.00000000000E+00 -0.00000000000E+00 -0.11803786992E+04  0.11803786992E+04  0.00000000000E+00 0. -1.
         23    2    1    2    0    0  0.00000000000E+00  0.00000000000E+00 -0.11786582614E+04  0.11820991370E+04  0.90128089066E+02 0.  0.
          2    1    3    3  502    0  0.37731021091E+02  0.23939904950E+02 -0.51283022924E+03  0.51477334141E+03  0.00000000000E+00 0. -1.
         -2    1    3    3    0  502 -0.37731021091E+02 -0.23939904950E+02 -0.66582803220E+03  0.66732579559E+03  0.00000000000E+00 0.  1.
<mgrwt>
<rscale>  0 0.90128089E+02</rscale>
<asrwt>0</asrwt>
<pdfrwt beam="2">  1        2 0.18159656E+00 0.90128089E+02</pdfrwt>
<pdfrwt beam="1">  1       -2 0.26468297E-03 0.90128089E+02</pdfrwt>
<totfact> 0.25680313E+05</totfact>
</mgrwt>
</event>
<event>
 5    1  0.3862918E+001  0.8917332E+02  0.7546771E-02  0.1304866E+00
         -1   -1    0    0    0  501 -0.00000000000E+00  0.00000000000E+00  0.21033262428E+01  0.21033262428E+01  0.00000000000E+00 0.  1.
          1   -1    0    0  501    0  0.00000000000E+00 -0.00000000000E+00 -0.94515547319E+03  0.94515547319E+03  0.00000000000E+00 0. -1.
         23    2    1    2    0    0  0.00000000000E+00  0.00000000000E+00 -0.94305214694E+03  0.94725879943E+03  0.89173321354E+02 0.  0.
          2    1    3    3  502    0 -0.82251328692E+01 -0.42840815940E+02 -0.56945187882E+03  0.57112032936E+03  0.00000000000E+00 0. -1.
         -2    1    3    3    0  502  0.82251328692E+01  0.42840815940E+02 -0.37360026812E+03  0.37613847007E+03  0.00000000000E+00 0.  1.
<mgrwt>
<rscale>  0 0.89173321E+02</rscale>
<asrwt>0</asrwt>
<pdfrwt beam="2">  1        1 0.14540822E+00 0.89173321E+02</pdfrwt>
<pdfrwt beam="1">  1       -1 0.32358935E-03 0.89173321E+02</pdfrwt>
<totfact> 0.14619663E+05</totfact>
</mgrwt>
</event>
<event>
 5    1  0.3862918E+001  0.9104979E+02  0.7546771E-02  0.1300329E+00
          1   -1    0    0  501    0  0.00000000000E+00  0.00000000000E+00  0.24651546798E+04  0.24651546798E+04  0.00000000000E+00 0. -1.
         -1   -1    0    0    0  501 -0.00000000000E+00 -0.00000000000E+00 -0.84072452181E+00  0.84072452181E+00  0.00000000000E+00 0.  1.
         23    2    1    2    0    0  0.00000000000E+00  0.00000000000E+00  0.24643139553E+04  0.24659954043E+04  0.91049788344E+02 0.  0.
          2    1    3    3  502    0 -0.20226449955E+02  0.33226755352E+02  0.18727326695E+04  0.18731366148E+04  0.00000000000E+00 0. -1.
         -2    1    3    3    0  502  0.20226449955E+02 -0.33226755352E+02  0.59158128582E+03  0.59285878950E+03  0.00000000000E+00 0.  1.
<mgrwt>
<rscale>  0 0.91049788E+02</rscale>
<asrwt>0</asrwt>
<pdfrwt beam="1">  1        1 0.37924878E+00 0.91049788E+02</pdfrwt>
<pdfrwt beam="2">  1       -1 0.12934421E-03 0.91049788E+02</pdfrwt>
<totfact> 0.54222898E+04</totfact>
</mgrwt>
</event>
<event>
 5    1  0.3862918E+001  0.9158051E+02  0.7546771E-02  0.1299069E+00
         -3   -1    0    0    0  501 -0.00000000000E+00  0.00000000000E+00  0.15627104836E+01  0.15627104836E+01  0.00000000000E+00 0.  1.
          3   -1    0    0  501    0  0.00000000000E+00 -0.00000000000E+00 -0.13417377467E+04  0.13417377467E+04  0.00000000000E+00 0. -1.
         23    2    1    2    0    0  0.00000000000E+00  0.00000000000E+00 -0.13401750362E+04  0.13433004572E+04  0.91580514150E+02 0.  0.
          2    1    3    3  502    0 -0.26944169574E+02  0.14218413739E+02 -0.11715082630E+04  0.11719043313E+04  0.00000000000E+00 0. -1.
         -2    1    3    3    0  502  0.26944169574E+02 -0.14218413739E+02 -0.16866677327E+03  0.17139612589E+03  0.00000000000E+00 0.  1.
<mgrwt>
<rscale>  0 0.91580514E+02</rscale>
<asrwt>0</asrwt>
<pdfrwt beam="2">  1        3 0.20642098E+00 0.91580514E+02</pdfrwt>
<pdfrwt beam="1">  1       -3 0.24041724E-03 0.91580514E+02</pdfrwt>
<totfact> 0.70380113E+03</totfact>
</mgrwt>
</event>
<event>
 5    1  0.3862918E+001  0.9044605E+02  0.7546771E-02  0.1301775E+00
         -1   -1    0    0    0  501 -0.00000000000E+00  0.00000000000E+00  0.96143197838E+01  0.96143197838E+01  0.00000000000E+00 0.  1.
          1   -1    0    0  501    0  0.00000000000E+00 -0.00000000000E+00 -0.21271622456E+03  0.21271622456E+03  0.00000000000E+00 0. -1.
         23    2    1    2    0    0  0.00000000000E+00  0.00000000000E+00 -0.20310190477E+03  0.22233054434E+03  0.90446045930E+02 0.  0.
          2    1    3    3  502    0 -0.26567619411E+02 -0.74162215880E+01 -0.13458251927E+02  0.30691420442E+02  0.00000000000E+00 0.  1.
         -2    1    3    3    0  502  0.26567619411E+02  0.74162215880E+01 -0.18964365285E+03  0.19163912390E+03  0.00000000000E+00 0. -1.
<mgrwt>
<rscale>  0 0.90446046E+02</rscale>
<asrwt>0</asrwt>
<pdfrwt beam="2">  1        1 0.32725574E-01 0.90446046E+02</pdfrwt>
<pdfrwt beam="1">  1       -1 0.14791261E-02 0.90446046E+02</pdfrwt>
<totfact> 0.12244285E+05</totfact>
</mgrwt>
</event>
<event>
 5    1  0.3862918E+001  0.9174465E+02  0.7546771E-02  0.1298681E+00
         -2   -1    0    0    0  501 -0.00000000000E+00  0.00000000000E+00  0.23465076427E+02  0.23465076427E+02  0.00000000000E+00 0.  1.
          2   -1    0    0  501    0  0.00000000000E+00 -0.00000000000E+00 -0.89676686119E+02  0.89676686119E+02  0.00000000000E+00 0. -1.
         23    2    1    2    0    0  0.00000000000E+00  0.00000000000E+00 -0.66211609692E+02  0.11314176255E+03  0.91744652018E+02 0.  0.
          2    1    3    3  502    0 -0.16486849768E+02 -0.31782706031E+02 -0.68469768755E+02  0.77266201222E+02  0.00000000000E+00 0. -1.
         -2    1    3    3    0  502  0.16486849768E+02  0.31782706031E+02  0.22581590629E+01  0.35875561324E+02  0.00000000000E+00 0.  1.
<mgrwt>
<rscale>  0 0.91744652E+02</rscale>
<asrwt>0</asrwt>
<pdfrwt beam="2">  1        2 0.13796413E-01 0.91744652E+02</pdfrwt>
<pdfrwt beam="1">  1       -2 0.36100117E-02 0.91744652E+02</pdfrwt>
<totfact> 0.11670820E+05</totfact>
</mgrwt>
</event>
<event>
 5    1  0.3862918E+001  0.9047662E+02  0.7546771E-02  0.1301702E+00
          1   -1    0    0  501    0  0.00000000000E+00  0.00000000000E+00  0.25401820112E+03  0.25401820112E+03  0.00000000000E+00 0. -1.
         -1   -1    0    0    0  501 -0.00000000000E+00 -0.00000000000E+00 -0.80565276593E+01  0.80565276593E+01  0.00000000000E+00 0.  1.
         23    2    1    2    0    0  0.00000000000E+00  0.00000000000E+00  0.24596167346E+03  0.26207472878E+03  0.90476619373E+02 0.  0.
          2    1    3    3  502    0 -0.21361029066E+02  0.24059379014E+02  0.21509811644E+03  0.21749102735E+03  0.00000000000E+00 0. -1.
         -2    1    3    3    0  502  0.21361029066E+02 -0.24059379014E+02  0.30863557023E+02  0.44583701433E+02  0.00000000000E+00 0.  1.
<mgrwt>
<rscale>  0 0.90476619E+02</rscale>
<asrwt>0</asrwt>
<pdfrwt beam="1">  1        1 0.39079717E-01 0.90476619E+02</pdfrwt>
<pdfrwt beam="2">  1       -1 0.12394660E-02 0.90476619E+02</pdfrwt>
<totfact> 0.12663304E+05</totfact>
</mgrwt>
</event>
<event>
 5    1  0.3862918E+001  0.9468247E+02  0.7546771E-02  0.1291893E+00
         -2   -1    0    0    0  501 -0.00000000000E+00  0.00000000000E+00  0.40814969600E+02  0.40814969600E+02  0.00000000000E+00 0.  1.
          2   -1    0    0  501    0  0.00000000000E+00 -0.00000000000E+00 -0.54911043282E+02  0.54911043282E+02  0.00000000000E+00 0. -1.
         23    2    1    2    0    0  0.00000000000E+00  0.00000000000E+00 -0.14096073682E+02  0.95726012881E+02  0.94682470653E+02 0.  0.
          2    1    3    3  502    0  0.66308135367E+01 -0.30278419479E+02 -0.43225688752E+02  0.53190323767E+02  0.00000000000E+00 0. -1.
         -2    1    3    3    0  502 -0.66308135367E+01  0.30278419479E+02  0.29129615070E+02  0.42535689115E+02  0.00000000000E+00 0.  1.
<mgrwt>
<rscale>  0 0.94682471E+02</rscale>
<asrwt>0</asrwt>
<pdfrwt beam="2">  1        2 0.84478529E-02 0.94682471E+02</pdfrwt>
<pdfrwt beam="1">  1       -2 0.62792261E-02 0.94682471E+02</pdfrwt>
<totfact> 0.93042235E+04</totfact>
</mgrwt>
</event>
<event>
 5    1  0.3862918E+001  0.9114424E+02  0.7546771E-02  0.1300104E+00
          4   -1    0    0  501    0  0.00000000000E+00  0.00000000000E+00  0.95926386587E+02  0.95926386587E+02  0.00000000000E+00 0.  1.
         -4   -1    0    0    0  501 -0.00000000000E+00 -0.00000000000E+00 -0.21650124551E+02  0.21650124551E+02  0.00000000000E+00 0. -1.
         23    2    1    2    0    0  0.00000000000E+00  0.00000000000E+00  0.74276262036E+02  0.11757651114E+03  0.91144242108E+02 0.  0.
          2    1    3    3  502    0  0.43219696215E+02  0.20196129326E+01  0.18677209290E+02  0.47125992023E+02  0.00000000000E+00 0. -1.
         -2    1    3    3    0  502 -0.43219696215E+02 -0.20196129326E+01  0.55599052746E+02  0.70450519115E+02  0.00000000000E+00 0.  1.
<mgrwt>
<rscale>  0 0.91144242E+02</rscale>
<asrwt>0</asrwt>
<pdfrwt beam="1">  1        4 0.14757905E-01 0.91144242E+02</pdfrwt>
<pdfrwt beam="2">  1       -4 0.33307884E-02 0.91144242E+02</pdfrwt>
<totfact> 0.25435481E+04</totfact>
</mgrwt>
</event>
<event>
 5    1  0.3862918E+001  0.9119490E+02  0.7546771E-02  0.1299984E+00
          2   -1    0    0  501    0  0.00000000000E+00  0.00000000000E+00  0.37261950772E+03  0.37261950772E+03  0.00000000000E+00 0. -1.
         -2   -1    0    0    0  501 -0.00000000000E+00 -0.00000000000E+00 -0.55797595323E+01  0.55797595323E+01  0.00000000000E+00 0.  1.
         23    2    1    2    0    0  0.00000000000E+00  0.00000000000E+00  0.36703974819E+03  0.37819926725E+03  0.91194895693E+02 0.  0.
          2    1    3    3  502    0  0.16664521604E+02  0.11865603392E+02  0.35251975011E+03  0.35311283331E+03  0.00000000000E+00 0. -1.
         -2    1    3    3    0  502 -0.16664521604E+02 -0.11865603392E+02  0.14519998074E+02  0.25086433948E+02  0.00000000000E+00 0.  1.
<mgrwt>
<rscale>  0 0.91194896E+02</rscale>
<asrwt>0</asrwt>
<pdfrwt beam="1">  1        2 0.57326059E-01 0.91194896E+02</pdfrwt>
<pdfrwt beam="2">  1       -2 0.85842484E-03 0.91194896E+02</pdfrwt>
<totfact> 0.19447964E+05</totfact>
</mgrwt>
</event>
<event>
 5    1  0.3862918E+001  0.9089591E+02  0.7546771E-02  0.1300697E+00
         -3   -1    0    0    0  501 -0.00000000000E+00  0.00000000000E+00  0.17483613767E+01  0.17483613767E+01  0.00000000000E+00 0.  1.
          3   -1    0    0  501    0  0.00000000000E+00 -0.00000000000E+00 -0.11814013110E+04  0.11814013110E+04  0.00000000000E+00 0. -1.
         23    2    1    2    0    0  0.00000000000E+00  0.00000000000E+00 -0.11796529497E+04  0.11831496724E+04  0.90895905797E+02 0.  0.
          2    1    3    3  502    0 -0.21281004875E+02 -0.20069473197E+02 -0.10425795404E+04  0.10429898192E+04  0.00000000000E+00 0. -1.
         -2    1    3    3    0  502  0.21281004875E+02  0.20069473197E+02 -0.13707340927E+03  0.14015985321E+03  0.00000000000E+00 0.  1.
<mgrwt>
<rscale>  0 0.90895906E+02</rscale>
<asrwt>0</asrwt>
<pdfrwt beam="2">  1        3 0.18175356E+00 0.90895906E+02</pdfrwt>
<pdfrwt beam="1">  1       -3 0.26897940E-03 0.90895906E+02</pdfrwt>
<totfact> 0.83999497E+03</totfact>
</mgrwt>
</event>
<event>
 5    1  0.3862918E+001  0.9444101E+02  0.7546771E-02  0.1292440E+00
         -1   -1    0    0    0  501 -0.00000000000E+00  0.00000000000E+00  0.23049081022E+02  0.23049081022E+02  0.00000000000E+00 0.  1.
          1   -1    0    0  501    0  0.00000000000E+00 -0.00000000000E+00 -0.96740341775E+02  0.96740341775E+02  0.00000000000E+00 0. -1.
         23    2    1    2    0    0  0.00000000000E+00  0.00000000000E+00 -0.73691260753E+02  0.11978942280E+03  0.94441007526E+02 0.  0.
          2    1    3    3  502    0  0.40313069753E+02  0.23161646660E+02 -0.47318269100E+02  0.66337199666E+02  0.00000000000E+00 0. -1.
         -2    1    3    3    0  502 -0.40313069753E+02 -0.23161646660E+02 -0.26372991653E+02  0.53452223131E+02  0.00000000000E+00 0.  1.
<mgrwt>
<rscale>  0 0.94441008E+02</rscale>
<asrwt>0</asrwt>
<pdfrwt beam="2">  1        1 0.14883129E-01 0.94441008E+02</pdfrwt>
<pdfrwt beam="1">  1       -1 0.35460125E-02 0.94441008E+02</pdfrwt>
<totfact> 0.94344563E+04</totfact>
</mgrwt>
</event>
<event>
 5    1  0.3862918E+001  0.8621925E+02  0.7546771E-02  0.1312275E+00
         -1   -1    0    0    0  501 -0.00000000000E+00  0.00000000000E+00  0.72828766443E+02  0.72828766443E+02  0.00000000000E+00 0.  1.
          1   -1    0    0  501    0  0.00000000000E+00 -0.00000000000E+00 -0.25517935301E+02  0.25517935301E+02  0.00000000000E+00 0. -1.
         23    2    1    2    0    0  0.00000000000E+00  0.00000000000E+00  0.47310831143E+02  0.98346701744E+02  0.86219249594E+02 0.  0.
          2    1    3    3  502    0 -0.33177965345E+01  0.42911480712E+02  0.26458001475E+02  0.50521567600E+02  0.00000000000E+00 0. -1.
         -2    1    3    3    0  502  0.33177965345E+01 -0.42911480712E+02  0.20852829668E+02  0.47825134144E+02  0.00000000000E+00 0.  1.
<mgrwt>
<rscale>  0 0.86219250E+02</rscale>
<asrwt>0</asrwt>
<pdfrwt beam="2">  1        1 0.39258362E-02 0.86219250E+02</pdfrwt>
<pdfrwt beam="1">  1       -1 0.11204426E-01 0.86219250E+02</pdfrwt>
<totfact> 0.99152501E+04</totfact>
</mgrwt>
</event>
<event>
 5    1  0.3862918E+001  0.9260250E+02  0.7546771E-02  0.1296669E+00
          1   -1    0    0  501    0  0.00000000000E+00  0.00000000000E+00  0.40753828357E+03  0.40753828357E+03  0.00000000000E+00 0. -1.
         -1   -1    0    0    0  501 -0.00000000000E+00 -0.00000000000E+00 -0.52603793103E+01  0.52603793103E+01  0.00000000000E+00 0.  1.
         23    2    1    2    0    0  0.00000000000E+00  0.00000000000E+00  0.40227790426E+03  0.41279866288E+03  0.92602504395E+02 0.  0.
          2    1    3    3  502    0 -0.45771001702E+02  0.69868673663E+01  0.20082239855E+03  0.20609084568E+03  0.00000000000E+00 0. -1.
         -2    1    3    3    0  502  0.45771001702E+02 -0.69868673663E+01  0.20145550571E+03  0.20670781721E+03  0.00000000000E+00 0.  1.
<mgrwt>
<rscale>  0 0.92602504E+02</rscale>
<asrwt>0</asrwt>
<pdfrwt beam="1">  1        1 0.62698173E-01 0.92602504E+02</pdfrwt>
<pdfrwt beam="2">  1       -1 0.80928944E-03 0.92602504E+02</pdfrwt>
<totfact> 0.12983436E+05</totfact>
</mgrwt>
</event>
<event>
 5    1  0.3862918E+001  0.9537664E+02  0.7546771E-02  0.1290330E+00
         -1   -1    0    0    0  501 -0.00000000000E+00  0.00000000000E+00  0.31700606609E+02  0.31700606609E+02  0.00000000000E+00 0.  1.
          1   -1    0    0  501    0  0.00000000000E+00 -0.00000000000E+00 -0.71739186444E+02  0.71739186444E+02  0.00000000000E+00 0. -1.
         23    2    1    2    0    0  0.00000000000E+00  0.00000000000E+00 -0.40038579835E+02  0.10343979305E+03  0.95376637138E+02 0.  0.
          2    1    3    3  502    0  0.27905207064E+02 -0.31905142351E+02  0.36807549434E+01  0.42546288283E+02  0.00000000000E+00 0. -1.
         -2    1    3    3    0  502 -0.27905207064E+02  0.31905142351E+02 -0.43719334778E+02  0.60893504770E+02  0.00000000000E+00 0.  1.
<mgrwt>
<rscale>  0 0.95376637E+02</rscale>
<asrwt>0</asrwt>
<pdfrwt beam="2">  1        1 0.11036798E-01 0.95376637E+02</pdfrwt>
<pdfrwt beam="1">  1       -1 0.48770164E-02 0.95376637E+02</pdfrwt>
<totfact> 0.87439987E+04</totfact>
</mgrwt>
</event>
<event>
 5    1  0.3862918E+001  0.9222231E+02  0.7546771E-02  0.1297558E+00
         -1   -1    0    0    0  501 -0.00000000000E+00  0.00000000000E+00  0.12158211989E+03  0.12158211989E+03  0.00000000000E+00 0.  1.
          1   -1    0    0  501    0  0.00000000000E+00 -0.00000000000E+00 -0.17488084623E+02  0.17488084623E+02  0.00000000000E+00 0. -1.
         23    2    1    2    0    0  0.00000000000E+00  0.00000000000E+00  0.10409403527E+03  0.13907020452E+03  0.92222305357E+02 0.  0.
          2    1    3    3  502    0  0.16119653147E+02  0.39814868147E+02  0.26760807921E+02  0.50608376616E+02  0.00000000000E+00 0. -1.
         -2    1    3    3    0  502 -0.16119653147E+02 -0.39814868147E+02  0.77333227350E+02  0.88461827901E+02  0.00000000000E+00 0.  1.
<mgrwt>
<rscale>  0 0.92222305E+02</rscale>
<asrwt>0</asrwt>
<pdfrwt beam="2">  1        1 0.26904746E-02 0.92222305E+02</pdfrwt>
<pdfrwt beam="1">  1       -1 0.18704941E-01 0.92222305E+02</pdfrwt>
<totfact> 0.76041896E+04</totfact>
</mgrwt>
</event>
<event>
 5    1  0.3862918E+001  0.9059761E+02  0.7546771E-02  0.1301411E+00
         -2   -1    0    0    0  501 -0.00000000000E+00  0.00000000000E+00  0.15122275947E+01  0.15122275947E+01  0.00000000000E+00 0.  1.
          2   -1    0    0  501    0  0.00000000000E+00 -0.00000000000E+00 -0.13569263772E+04  0.13569263772E+04  0.00000000000E+00 0. -1.
         23    2    1    2    0    0  0.00000000000E+00  0.00000000000E+00 -0.13554141496E+04  0.13584386048E+04  0.90597605080E+02 0.  0.
          2    1    3    3  502    0 -0.39824187632E+02  0.13757304233E+02 -0.92714863606E+03  0.92810550191E+03  0.00000000000E+00 0. -1.
         -2    1    3    3    0  502  0.39824187632E+02 -0.13757304233E+02 -0.42826551354E+03  0.43033310287E+03  0.00000000000E+00 0.  1.
<mgrwt>
<rscale>  0 0.90597605E+02</rscale>
<asrwt>0</asrwt>
<pdfrwt beam="2">  1        2 0.20875818E+00 0.90597605E+02</pdfrwt>
<pdfrwt beam="1">  1       -2 0.23265009E-03 0.90597605E+02</pdfrwt>
<totfact> 0.24751688E+05</totfact>
</mgrwt>
</event>
<event>
 5    1  0.3862918E+001  0.8936157E+02  0.7546771E-02  0.1304405E+00
         -2   -1    0    0    0  501 -0.00000000000E+00  0.00000000000E+00  0.17967346710E+01  0.17967346710E+01  0.00000000000E+00 0.  1.
          2   -1    0    0  501    0  0.00000000000E+00 -0.00000000000E+00 -0.11111116185E+04  0.11111116185E+04  0.00000000000E+00 0. -1.
         23    2    1    2    0    0  0.00000000000E+00  0.00000000000E+00 -0.11093148838E+04  0.11129083532E+04  0.89361574925E+02 0.  0.
          2    1    3    3  502    0  0.34182387759E+02 -0.24396319085E+02 -0.74466012355E+03  0.74584335864E+03  0.00000000000E+00 0. -1.
         -2    1    3    3    0  502 -0.34182387759E+02  0.24396319085E+02 -0.36465476027E+03  0.36706499452E+03  0.00000000000E+00 0.  1.
<mgrwt>
<rscale>  0 0.89361575E+02</rscale>
<asrwt>0</asrwt>
<pdfrwt beam="2">  1        2 0.17094056E+00 0.89361575E+02</pdfrwt>
<pdfrwt beam="1">  1       -2 0.27642021E-03 0.89361575E+02</pdfrwt>
<totfact> 0.26368654E+05</totfact>
</mgrwt>
</event>
<event>
 5    1  0.3862918E+001  0.8613439E+02  0.7546771E-02  0.1312492E+00
          1   -1    0    0  501    0  0.00000000000E+00  0.00000000000E+00  0.61499070901E+02  0.61499070901E+02  0.00000000000E+00 0. -1.
         -1   -1    0    0    0  501 -0.00000000000E+00 -0.00000000000E+00 -0.30159535311E+02  0.30159535311E+02  0.00000000000E+00 0.  1.
         23    2    1    2    0    0  0.00000000000E+00  0.00000000000E+00  0.31339535590E+02  0.91658606212E+02  0.86134392676E+02 0.  0.
          2    1    3    3  502    0 -0.33177899155E+02 -0.11211366931E+02  0.42343611061E+02  0.54949514452E+02  0.00000000000E+00 0. -1.
         -2    1    3    3    0  502  0.33177899155E+02  0.11211366931E+02 -0.11004075472E+02  0.36709091760E+02  0.00000000000E+00 0.  1.
<mgrwt>
<rscale>  0 0.86134393E+02</rscale>
<asrwt>0</asrwt>
<pdfrwt beam="1">  1        1 0.94613955E-02 0.86134393E+02</pdfrwt>
<pdfrwt beam="2">  1       -1 0.46399285E-02 0.86134393E+02</pdfrwt>
<totfact> 0.11316150E+05</totfact>
</mgrwt>
</event>
<event>
 5    1  0.3862918E+001  0.9249080E+02  0.7546771E-02  0.1296930E+00
         -2   -1    0    0    0  501 -0.00000000000E+00  0.00000000000E+00  0.65353474294E+01  0.65353474294E+01  0.00000000000E+00 0.  1.
          2   -1    0    0  501    0  0.00000000000E+00 -0.00000000000E+00 -0.32724154761E+03  0.32724154761E+03  0.00000000000E+00 0. -1.
         23    2    1    2    0    0  0.00000000000E+00  0.00000000000E+00 -0.32070620018E+03  0.33377689504E+03  0.92490804018E+02 0.  0.
          2    1    3    3  502    0 -0.43994081592E+01 -0.45929598086E+02 -0.17162400439E+03  0.17771798349E+03  0.00000000000E+00 0. -1.
         -2    1    3    3    0  502  0.43994081592E+01  0.45929598086E+02 -0.14908219579E+03  0.15605891155E+03  0.00000000000E+00 0.  1.
<mgrwt>
<rscale>  0 0.92490804E+02</rscale>
<asrwt>0</asrwt>
<pdfrwt beam="2">  1        2 0.50344860E-01 0.92490804E+02</pdfrwt>
<pdfrwt beam="1">  1       -2 0.10054379E-02 0.92490804E+02</pdfrwt>
<totfact> 0.17860149E+05</totfact>
</mgrwt>
</event>
<event>
 5    1  0.3862918E+001  0.8817738E+02  0.7546771E-02  0.1307326E+00
         -1   -1    0    0    0  501 -0.00000000000E+00  0.00000000000E+00  0.47483532479E+03  0.47483532479E+03  0.00000000000E+00 0.  1.
          1   -1    0    0  501    0  0.00000000000E+00 -0.00000000000E+00 -0.40936564877E+01  0.40936564877E+01  0.00000000000E+00 0. -1.
         23    2    1    2    0    0  0.00000000000E+00  0.00000000000E+00  0.47074166830E+03  0.47892898127E+03  0.88177382766E+02 0.  0.
          2    1    3    3  502    0 -0.24478140730E+02 -0.34335310111E+02  0.16545088040E+03  0.17073982172E+03  0.00000000000E+00 0. -1.
         -2    1    3    3    0  502  0.24478140730E+02  0.34335310111E+02  0.30529078790E+03  0.30818915956E+03  0.00000000000E+00 0.  1.
<mgrwt>
<rscale>  0 0.88177383E+02</rscale>
<asrwt>0</asrwt>
<pdfrwt beam="2">  1        1 0.62979368E-03 0.88177383E+02</pdfrwt>
<pdfrwt beam="1">  1       -1 0.73051545E-01 0.88177383E+02</pdfrwt>
<totfact> 0.52971003E+04</totfact>
</mgrwt>
</event>
<event>
 5    1  0.3862918E+001  0.9170883E+02  0.7546771E-02  0.1298765E+00
          1   -1    0    0  501    0  0.00000000000E+00  0.00000000000E+00  0.33350483047E+03  0.33350483047E+03  0.00000000000E+00 0. -1.
         -1   -1    0    0    0  501 -0.00000000000E+00 -0.00000000000E+00 -0.63046391280E+01  0.63046391280E+01  0.00000000000E+00 0.  1.
         23    2    1    2    0    0  0.00000000000E+00  0.00000000000E+00  0.32720019134E+03  0.33980946960E+03  0.91708834985E+02 0.  0.
          2    1    3    3  502    0 -0.36681061230E+02 -0.26124080612E+02  0.19561613492E+03  0.20073275787E+03  0.00000000000E+00 0. -1.
         -2    1    3    3    0  502  0.36681061230E+02  0.26124080612E+02  0.13158405643E+03  0.13907671173E+03  0.00000000000E+00 0.  1.
<mgrwt>
<rscale>  0 0.91708835E+02</rscale>
<asrwt>0</asrwt>
<pdfrwt beam="1">  1        1 0.51308422E-01 0.91708835E+02</pdfrwt>
<pdfrwt beam="2">  1       -1 0.96994474E-03 0.91708835E+02</pdfrwt>
<totfact> 0.12867696E+05</totfact>
</mgrwt>
</event>
<event>
 5    1  0.3862918E+001  0.9097736E+02  0.7546771E-02  0.1300502E+00
          2   -1    0    0  501    0  0.00000000000E+00  0.00000000000E+00  0.16417971579E+04  0.16417971579E+04  0.00000000000E+00 0. -1.
         -2   -1    0    0    0  501 -0.00000000000E+00 -0.00000000000E+00 -0.12603382784E+01  0.12603382784E+01  0.00000000000E+00 0.  1.
         23    2    1    2    0    0  0.00000000000E+00  0.00000000000E+00  0.16405368197E+04  0.16430574962E+04  0.90977355501E+02 0.  0.
          2    1    3    3  502    0 -0.18849100556E+02 -0.91688214741E+01  0.15493818871E+04  0.15495236648E+04  0.00000000000E+00 0. -1.
         -2    1    3    3    0  502  0.18849100556E+02  0.91688214741E+01  0.91154932606E+02  0.93533831405E+02  0.00000000000E+00 0.  1.
<mgrwt>
<rscale>  0 0.90977356E+02</rscale>
<asrwt>0</asrwt>
<pdfrwt beam="1">  1        2 0.25258247E+00 0.90977356E+02</pdfrwt>
<pdfrwt beam="2">  1       -2 0.19389951E-03 0.90977356E+02</pdfrwt>
<totfact> 0.22791922E+05</totfact>
</mgrwt>
</event>
<event>
 5    1  0.3862918E+001  0.9134069E+02  0.7546771E-02  0.1299637E+00
          1   -1    0    0  501    0  0.00000000000E+00  0.00000000000E+00  0.21812722373E+04  0.21812722373E+04  0.00000000000E+00 0. -1.
         -1   -1    0    0    0  501 -0.00000000000E+00 -0.00000000000E+00 -0.95622205136E+00  0.95622205136E+00  0.00000000000E+00 0.  1.
         23    2    1    2    0    0  0.00000000000E+00  0.00000000000E+00  0.21803160153E+04  0.21822284594E+04  0.91340694400E+02 0.  0.
          2    1    3    3  502    0  0.30825719058E+02  0.36082753974E+01  0.18906113945E+04  0.18908661216E+04  0.00000000000E+00 0. -1.
         -2    1    3    3    0  502 -0.30825719058E+02 -0.36082753974E+01  0.28970462075E+03  0.29136233780E+03  0.00000000000E+00 0.  1.
<mgrwt>
<rscale>  0 0.91340694E+02</rscale>
<asrwt>0</asrwt>
<pdfrwt beam="1">  1        1 0.33557636E+00 0.91340694E+02</pdfrwt>
<pdfrwt beam="2">  1       -1 0.14711283E-03 0.91340694E+02</pdfrwt>
<totfact> 0.68819036E+04</totfact>
</mgrwt>
</event>
<event>
 5    1  0.3862918E+001  0.8958459E+02  0.7546771E-02  0.1303861E+00
         -3   -1    0    0    0  501 -0.00000000000E+00  0.00000000000E+00  0.52682826221E+03  0.52682826221E+03  0.00000000000E+00 0.  1.
          3   -1    0    0  501    0  0.00000000000E+00 -0.00000000000E+00 -0.38083565051E+01  0.38083565051E+01  0.00000000000E+00 0. -1.
         23    2    1    2    0    0  0.00000000000E+00  0.00000000000E+00  0.52301990571E+03  0.53063661872E+03  0.89584593306E+02 0.  0.
          2    1    3    3  502    0  0.27837809650E+02 -0.26710988989E+01  0.54256036065E+02  0.61039297710E+02  0.00000000000E+00 0. -1.
         -2    1    3    3    0  502 -0.27837809650E+02  0.26710988989E+01  0.46876386964E+03  0.46959732101E+03  0.00000000000E+00 0.  1.
<mgrwt>
<rscale>  0 0.89584593E+02</rscale>
<asrwt>0</asrwt>
<pdfrwt beam="2">  1        3 0.58590142E-03 0.89584593E+02</pdfrwt>
<pdfrwt beam="1">  1       -3 0.81050444E-01 0.89584593E+02</pdfrwt>
<totfact> 0.17995685E+04</totfact>
</mgrwt>
</event>
<event>
 5    1  0.3862918E+001  0.9078495E+02  0.7546771E-02  0.1300962E+00
          2   -1    0    0  501    0  0.00000000000E+00  0.00000000000E+00  0.21469622194E+04  0.21469622194E+04  0.00000000000E+00 0.  1.
         -2   -1    0    0    0  501 -0.00000000000E+00 -0.00000000000E+00 -0.95971722768E+00  0.95971722768E+00  0.00000000000E+00 0. -1.
         23    2    1    2    0    0  0.00000000000E+00  0.00000000000E+00  0.21460025022E+04  0.21479219367E+04  0.90784946532E+02 0.  0.
          2    1    3    3  502    0  0.36014399600E+02  0.10880927061E+02  0.47210473808E+03  0.47360143081E+03  0.00000000000E+00 0. -1.
         -2    1    3    3    0  502 -0.36014399600E+02 -0.10880927061E+02  0.16738977641E+04  0.16743205059E+04  0.00000000000E+00 0.  1.
<mgrwt>
<rscale>  0 0.90784947E+02</rscale>
<asrwt>0</asrwt>
<pdfrwt beam="1">  1        2 0.33029803E+00 0.90784947E+02</pdfrwt>
<pdfrwt beam="2">  1       -2 0.14765052E-03 0.90784947E+02</pdfrwt>
<totfact> 0.18509364E+05</totfact>
</mgrwt>
</event>
<event>
 5    1  0.3862918E+001  0.8995193E+02  0.7546771E-02  0.1302968E+00
         -3   -1    0    0    0  501 -0.00000000000E+00  0.00000000000E+00  0.50676148425E+01  0.50676148425E+01  0.00000000000E+00 0.  1.
          3   -1    0    0  501    0  0.00000000000E+00 -0.00000000000E+00 -0.39916954251E+03  0.39916954251E+03  0.00000000000E+00 0. -1.
         23    2    1    2    0    0  0.00000000000E+00  0.00000000000E+00 -0.39410192766E+03  0.40423715735E+03  0.89951931569E+02 0.  0.
          2    1    3    3  502    0 -0.34142263040E+02  0.21565169927E+02 -0.28603597492E+03  0.28887251449E+03  0.00000000000E+00 0. -1.
         -2    1    3    3    0  502  0.34142263040E+02 -0.21565169927E+02 -0.10806595274E+03  0.11536464286E+03  0.00000000000E+00 0.  1.
<mgrwt>
<rscale>  0 0.89951932E+02</rscale>
<asrwt>0</asrwt>
<pdfrwt beam="2">  1        3 0.61410696E-01 0.89951932E+02</pdfrwt>
<pdfrwt beam="1">  1       -3 0.77963309E-03 0.89951932E+02</pdfrwt>
<totfact> 0.21240724E+04</totfact>
</mgrwt>
</event>
<event>
 5    1  0.3862918E+001  0.8909463E+02  0.7546771E-02  0.1305059E+00
         -1   -1    0    0    0  501 -0.00000000000E+00  0.00000000000E+00  0.82900145597E+02  0.82900145597E+02  0.00000000000E+00 0.  1.
          1   -1    0    0  501    0  0.00000000000E+00 -0.00000000000E+00 -0.23937993994E+02  0.23937993994E+02  0.00000000000E+00 0. -1.
         23    2    1    2    0    0  0.00000000000E+00  0.00000000000E+00  0.58962151602E+02  0.10683813959E+03  0.89094628063E+02 0.  0.
          2    1    3    3  502    0  0.18038935232E+02  0.20723249951E+02 -0.12568144385E+02  0.30212820559E+02  0.00000000000E+00 0. -1.
         -2    1    3    3    0  502 -0.18038935232E+02 -0.20723249951E+02  0.71530295987E+02  0.76625319032E+02  0.00000000000E+00 0.  1.
<mgrwt>
<rscale>  0 0.89094628E+02</rscale>
<asrwt>0</asrwt>
<pdfrwt beam="2">  1        1 0.36827683E-02 0.89094628E+02</pdfrwt>
<pdfrwt beam="1">  1       -1 0.12753868E-01 0.89094628E+02</pdfrwt>
<totfact> 0.89264194E+04</totfact>
</mgrwt>
</event>
<event>
 5    1  0.3862918E+001  0.9116729E+02  0.7546771E-02  0.1300049E+00
         -2   -1    0    0    0  501 -0.00000000000E+00  0.00000000000E+00  0.22854045343E+01  0.22854045343E+01  0.00000000000E+00 0.  1.
          2   -1    0    0  501    0  0.00000000000E+00 -0.00000000000E+00 -0.90919070682E+03  0.90919070682E+03  0.00000000000E+00 0. -1.
         23    2    1    2    0    0  0.00000000000E+00  0.00000000000E+00 -0.90690530229E+03  0.91147611135E+03  0.91167287201E+02 0.  0.
          2    1    3    3  502    0  0.21157070252E+01 -0.29658212404E+02 -0.79888969996E+03  0.79944283003E+03  0.00000000000E+00 0. -1.
         -2    1    3    3    0  502 -0.21157070252E+01  0.29658212404E+02 -0.10801560233E+03  0.11203328133E+03  0.00000000000E+00 0.  1.
<mgrwt>
<rscale>  0 0.91167287E+02</rscale>
<asrwt>0</asrwt>
<pdfrwt beam="2">  1        2 0.13987518E+00 0.91167287E+02</pdfrwt>
<pdfrwt beam="1">  1       -2 0.35160147E-03 0.91167287E+02</pdfrwt>
<totfact> 0.24828569E+05</totfact>
</mgrwt>
</event>
<event>
 5    1  0.3862918E+001  0.9086339E+02  0.7546771E-02  0.1300774E+00
          2   -1    0    0  501    0  0.00000000000E+00  0.00000000000E+00  0.11555101810E+03  0.11555101810E+03  0.00000000000E+00 0. -1.
         -2   -1    0    0    0  501 -0.00000000000E+00 -0.00000000000E+00 -0.17862576931E+02  0.17862576931E+02  0.00000000000E+00 0.  1.
         23    2    1    2    0    0  0.00000000000E+00  0.00000000000E+00  0.97688441169E+02  0.13341359503E+03  0.90863390872E+02 0.  0.
          2    1    3    3  502    0  0.31639771554E+02 -0.32565367935E+02  0.46541012382E+02  0.65020336560E+02  0.00000000000E+00 0. -1.
         -2    1    3    3    0  502 -0.31639771554E+02  0.32565367935E+02  0.51147428786E+02  0.68393258470E+02  0.00000000000E+00 0.  1.
<mgrwt>
<rscale>  0 0.90863391E+02</rscale>
<asrwt>0</asrwt>
<pdfrwt beam="1">  1        2 0.17777079E-01 0.90863391E+02</pdfrwt>
<pdfrwt beam="2">  1       -2 0.27480888E-02 0.90863391E+02</pdfrwt>
<totfact> 0.12952565E+05</totfact>
</mgrwt>
</event>
<event>
 5    1  0.3862918E+001  0.9114247E+02  0.7546771E-02  0.1300108E+00
          3   -1    0    0  501    0  0.00000000000E+00  0.00000000000E+00  0.18634240650E+02  0.18634240650E+02  0.00000000000E+00 0. -1.
         -3   -1    0    0    0  501 -0.00000000000E+00 -0.00000000000E+00 -0.11144737928E+03  0.11144737928E+03  0.00000000000E+00 0.  1.
         23    2    1    2    0    0  0.00000000000E+00  0.00000000000E+00 -0.92813138626E+02  0.13008161993E+03  0.91142466177E+02 0.  0.
          2    1    3    3  502    0 -0.86950094574E+01  0.37175129611E+02 -0.81919861701E+02  0.90379517548E+02  0.00000000000E+00 0. -1.
         -2    1    3    3    0  502  0.86950094574E+01 -0.37175129611E+02 -0.10893276925E+02  0.39702102378E+02  0.00000000000E+00 0.  1.
<mgrwt>
<rscale>  0 0.91142466E+02</rscale>
<asrwt>0</asrwt>
<pdfrwt beam="1">  1        3 0.28668062E-02 0.91142466E+02</pdfrwt>
<pdfrwt beam="2">  1       -3 0.17145751E-01 0.91142466E+02</pdfrwt>
<totfact> 0.32605490E+04</totfact>
</mgrwt>
</event>
<event>
 5    1  0.3862918E+001  0.9118432E+02  0.7546771E-02  0.1300009E+00
          2   -1    0    0  501    0  0.00000000000E+00  0.00000000000E+00  0.10982194946E+04  0.10982194946E+04  0.00000000000E+00 0. -1.
         -2   -1    0    0    0  501 -0.00000000000E+00 -0.00000000000E+00 -0.18927409308E+01  0.18927409308E+01  0.00000000000E+00 0.  1.
         23    2    1    2    0    0  0.00000000000E+00  0.00000000000E+00  0.10963267537E+04  0.11001122356E+04  0.91184318574E+02 0.  0.
          2    1    3    3  502    0  0.29753553578E+02 -0.10029567728E+02  0.94698892465E+03  0.94750930844E+03  0.00000000000E+00 0. -1.
         -2    1    3    3    0  502 -0.29753553578E+02  0.10029567728E+02  0.14933782905E+03  0.15260292711E+03  0.00000000000E+00 0.  1.
<mgrwt>
<rscale>  0 0.91184319E+02</rscale>
<asrwt>0</asrwt>
<pdfrwt beam="1">  1        2 0.16895634E+00 0.91184319E+02</pdfrwt>
<pdfrwt beam="2">  1       -2 0.29119179E-03 0.91184319E+02</pdfrwt>
<totfact> 0.25014800E+05</totfact>
</mgrwt>
</event>
<event>
 5    1  0.3862918E+001  0.9283861E+02  0.7546771E-02  0.1296120E+00
          1   -1    0    0  501    0  0.00000000000E+00  0.00000000000E+00  0.26251730488E+02  0.26251730488E+02  0.00000000000E+00 0. -1.
         -1   -1    0    0    0  501 -0.00000000000E+00 -0.00000000000E+00 -0.82080373593E+02  0.82080373593E+02  0.00000000000E+00 0.  1.
         23    2    1    2    0    0  0.00000000000E+00  0.00000000000E+00 -0.55828643105E+02  0.10833210408E+03  0.92838609336E+02 0.  0.
          2    1    3    3  502    0 -0.10499926616E+02  0.37605837616E+02  0.13813669373E+01  0.39068601925E+02  0.00000000000E+00 0. -1.
         -2    1    3    3    0  502  0.10499926616E+02 -0.37605837616E+02 -0.57210010043E+02  0.69263502155E+02  0.00000000000E+00 0.  1.
<mgrwt>
<rscale>  0 0.92838609E+02</rscale>
<asrwt>0</asrwt>
<pdfrwt beam="1">  1        1 0.40387277E-02 0.92838609E+02</pdfrwt>
<pdfrwt beam="2">  1       -1 0.12627750E-01 0.92838609E+02</pdfrwt>
<totfact> 0.80466890E+04</totfact>
</mgrwt>
</event>
<event>
 5    1  0.3862918E+001  0.9205987E+02  0.7546771E-02  0.1297939E+00
          4   -1    0    0  501    0  0.00000000000E+00  0.00000000000E+00  0.83376276537E+02  0.83376276537E+02  0.00000000000E+00 0. -1.
         -4   -1    0    0    0  501 -0.00000000000E+00 -0.00000000000E+00 -0.25411963570E+02  0.25411963570E+02  0.00000000000E+00 0.  1.
         23    2    1    2    0    0  0.00000000000E+00  0.00000000000E+00  0.57964312967E+02  0.10878824011E+03  0.92059869693E+02 0.  0.
          2    1    3    3  502    0  0.40912662059E+02 -0.11522328104E+02  0.49860197436E+02  0.65518312326E+02  0.00000000000E+00 0. -1.
         -2    1    3    3    0  502 -0.40912662059E+02  0.11522328104E+02  0.81041155316E+01  0.43269927782E+02  0.00000000000E+00 0.  1.
<mgrwt>
<rscale>  0 0.92059870E+02</rscale>
<asrwt>0</asrwt>
<pdfrwt beam="1">  1        4 0.12827119E-01 0.92059870E+02</pdfrwt>
<pdfrwt beam="2">  1       -4 0.39095329E-02 0.92059870E+02</pdfrwt>
<totfact> 0.25255717E+04</totfact>
</mgrwt>
</event>
<event>
 5    1  0.3862918E+001  0.9068349E+02  0.7546771E-02  0.1301205E+00
         -2   -1    0    0    0  501 -0.00000000000E+00  0.00000000000E+00  0.13808225093E+01  0.13808225093E+01  0.00000000000E+00 0.  1.
          2   -1    0    0  501    0  0.00000000000E+00 -0.00000000000E+00 -0.14888761218E+04  0.14888761218E+04  0.00000000000E+00 0. -1.
         23    2    1    2    0    0  0.00000000000E+00  0.00000000000E+00 -0.14874952993E+04  0.14902569443E+04  0.90683486093E+02 0.  0.
          2    1    3    3  502    0  0.13473017301E+01 -0.38015905645E+02 -0.11492448625E+04  0.11498742446E+04  0.00000000000E+00 0. -1.
         -2    1    3    3    0  502 -0.13473017301E+01  0.38015905645E+02 -0.33825043674E+03  0.34038269971E+03  0.00000000000E+00 0.  1.
<mgrwt>
<rscale>  0 0.90683486E+02</rscale>
<asrwt>0</asrwt>
<pdfrwt beam="2">  1        2 0.22905747E+00 0.90683486E+02</pdfrwt>
<pdfrwt beam="1">  1       -2 0.21243460E-03 0.90683486E+02</pdfrwt>
<totfact> 0.24002745E+05</totfact>
</mgrwt>
</event>
<event>
 5    1  0.3862918E+001  0.9195319E+02  0.7546771E-02  0.1298190E+00
          2   -1    0    0  501    0  0.00000000000E+00  0.00000000000E+00  0.78068076185E+02  0.78068076185E+02  0.00000000000E+00 0. -1.
         -2   -1    0    0    0  501 -0.00000000000E+00 -0.00000000000E+00 -0.27076977142E+02  0.27076977142E+02  0.00000000000E+00 0.  1.
         23    2    1    2    0    0  0.00000000000E+00  0.00000000000E+00  0.50991099043E+02  0.10514505333E+03  0.91953194928E+02 0.  0.
          2    1    3    3  502    0  0.15274140031E+02  0.35808275870E+02  0.53465208004E+02  0.66136680000E+02  0.00000000000E+00 0. -1.
         -2    1    3    3    0  502 -0.15274140031E+02 -0.35808275870E+02 -0.24741089612E+01  0.39008373327E+02  0.00000000000E+00 0.  1.
<mgrwt>
<rscale>  0 0.91953195E+02</rscale>
<asrwt>0</asrwt>
<pdfrwt beam="1">  1        2 0.12010473E-01 0.91953195E+02</pdfrwt>
<pdfrwt beam="2">  1       -2 0.41656888E-02 0.91953195E+02</pdfrwt>
<totfact> 0.11139434E+05</totfact>
</mgrwt>
</event>
<event>
 5    1  0.3862918E+001  0.9070772E+02  0.7546771E-02  0.1301147E+00
         -2   -1    0    0    0  501 -0.00000000000E+00  0.00000000000E+00  0.12630537335E+01  0.12630537335E+01  0.00000000000E+00 0.  1.
          2   -1    0    0  501    0  0.00000000000E+00 -0.00000000000E+00 -0.16285709786E+04  0.16285709786E+04  0.00000000000E+00 0. -1.
         23    2    1    2    0    0  0.00000000000E+00  0.00000000000E+00 -0.16273079248E+04  0.16298340323E+04  0.90707720833E+02 0.  0.
          2    1    3    3  502    0  0.26876788927E+02 -0.31081585455E+02 -0.11585950509E+04  0.11593234745E+04  0.00000000000E+00 0. -1.
         -2    1    3    3    0  502 -0.26876788927E+02  0.31081585455E+02 -0.46871287396E+03  0.47051055775E+03  0.00000000000E+00 0.  1.
<mgrwt>
<rscale>  0 0.90707721E+02</rscale>
<asrwt>0</asrwt>
<pdfrwt beam="2">  1        2 0.25055034E+00 0.90707721E+02</pdfrwt>
<pdfrwt beam="1">  1       -2 0.19431522E-03 0.90707721E+02</pdfrwt>
<totfact> 0.23066705E+05</totfact>
</mgrwt>
</event>
<event>
 5    1  0.3862918E+001  0.9179099E+02  0.7546771E-02  0.1298572E+00
         -2   -1    0    0    0  501 -0.00000000000E+00  0.00000000000E+00  0.64127254621E+02  0.64127254621E+02  0.00000000000E+00 0.  1.
          2   -1    0    0  501    0  0.00000000000E+00 -0.00000000000E+00 -0.32847136273E+02  0.32847136273E+02  0.00000000000E+00 0. -1.
         23    2    1    2    0    0  0.00000000000E+00  0.00000000000E+00  0.31280118347E+02  0.96974390894E+02  0.91790994577E+02 0.  0.
          2    1    3    3  502    0  0.88036999484E+01 -0.35929032271E+02 -0.13060082555E+02  0.39229660323E+02  0.00000000000E+00 0. -1.
         -2    1    3    3    0  502 -0.88036999484E+01  0.35929032271E+02  0.44340200902E+02  0.57744730571E+02  0.00000000000E+00 0.  1.
<mgrwt>
<rscale>  0 0.91790995E+02</rscale>
<asrwt>0</asrwt>
<pdfrwt beam="2">  1        2 0.50534056E-02 0.91790995E+02</pdfrwt>
<pdfrwt beam="1">  1       -2 0.98657315E-02 0.91790995E+02</pdfrwt>
<totfact> 0.88840680E+04</totfact>
</mgrwt>
</event>
<event>
 5    1  0.3862918E+001  0.7933068E+02  0.7546771E-02  0.1330962E+00
          1   -1    0    0  501    0  0.00000000000E+00  0.00000000000E+00  0.10272466205E+04  0.10272466205E+04  0.00000000000E+00 0. -1.
         -1   -1    0    0    0  501 -0.00000000000E+00 -0.00000000000E+00 -0.15316082274E+01  0.15316082274E+01  0.00000000000E+00 0.  1.
         23    2    1    2    0    0  0.00000000000E+00  0.00000000000E+00  0.10257150123E+04  0.10287782287E+04  0.79330684494E+02 0.  0.
          2    1    3    3  502    0  0.29030323337E+02  0.14296008912E+02  0.81033736486E+03  0.81098321834E+03  0.00000000000E+00 0. -1.
         -2    1    3    3    0  502 -0.29030323337E+02 -0.14296008912E+02  0.21537764741E+03  0.21779501038E+03  0.00000000000E+00 0.  1.
<mgrwt>
<rscale>  0 0.79330684E+02</rscale>
<asrwt>0</asrwt>
<pdfrwt beam="1">  1        1 0.15803739E+00 0.79330684E+02</pdfrwt>
<pdfrwt beam="2">  1       -1 0.23563286E-03 0.79330684E+02</pdfrwt>
<totfact> 0.19455707E+05</totfact>
</mgrwt>
</event>
<event>
 5    1  0.3862918E+001  0.9011559E+02  0.7546771E-02  0.1302572E+00
         -2   -1    0    0    0  501 -0.00000000000E+00  0.00000000000E+00  0.15163570533E+01  0.15163570533E+01  0.00000000000E+00 0.  1.
          2   -1    0    0  501    0  0.00000000000E+00 -0.00000000000E+00 -0.13388700444E+04  0.13388700444E+04  0.00000000000E+00 0. -1.
         23    2    1    2    0    0  0.00000000000E+00  0.00000000000E+00 -0.13373536873E+04  0.13403864014E+04  0.90115593216E+02 0.  0.
          2    1    3    3  502    0 -0.34827626156E+02  0.90603893752E+01 -0.10719676251E+04  0.10725715097E+04  0.00000000000E+00 0. -1.
         -2    1    3    3    0  502  0.34827626156E+02 -0.90603893752E+01 -0.26538606219E+03  0.26781489168E+03  0.00000000000E+00 0.  1.
<mgrwt>
<rscale>  0 0.90115593E+02</rscale>
<asrwt>0</asrwt>
<pdfrwt beam="2">  1        2 0.20598001E+00 0.90115593E+02</pdfrwt>
<pdfrwt beam="1">  1       -2 0.23328570E-03 0.90115593E+02</pdfrwt>
<totfact> 0.25181293E+05</totfact>
</mgrwt>
</event>
<event>
 5    1  0.3862918E+001  0.9895077E+02  0.7546771E-02  0.1282518E+00
         -3   -1    0    0    0  501 -0.00000000000E+00  0.00000000000E+00  0.35461470029E+03  0.35461470029E+03  0.00000000000E+00 0.  1.
          3   -1    0    0  501    0  0.00000000000E+00 -0.00000000000E+00 -0.69027412706E+01  0.69027412706E+01  0.00000000000E+00 0. -1.
         23    2    1    2    0    0  0.00000000000E+00  0.00000000000E+00  0.34771195902E+03  0.36151744156E+03  0.98950766078E+02 0.  0.
          2    1    3    3  502    0  0.21476061244E+01 -0.47709272124E+02  0.12663847799E+03  0.13534434220E+03  0.00000000000E+00 0. -1.
         -2    1    3    3    0  502 -0.21476061244E+01  0.47709272124E+02  0.22107348103E+03  0.22617309936E+03  0.00000000000E+00 0.  1.
<mgrwt>
<rscale>  0 0.98950766E+02</rscale>
<asrwt>0</asrwt>
<pdfrwt beam="2">  1        3 0.10619605E-02 0.98950766E+02</pdfrwt>
<pdfrwt beam="1">  1       -3 0.54556094E-01 0.98950766E+02</pdfrwt>
<totfact> 0.17503977E+04</totfact>
</mgrwt>
</event>
<event>
 5    1  0.3862918E+001  0.9384545E+02  0.7546771E-02  0.1293798E+00
         -1   -1    0    0    0  501 -0.00000000000E+00  0.00000000000E+00  0.11976139726E+02  0.11976139726E+02  0.00000000000E+00 0.  1.
          1   -1    0    0  501    0  0.00000000000E+00 -0.00000000000E+00 -0.18384406353E+03  0.18384406353E+03  0.00000000000E+00 0. -1.
         23    2    1    2    0    0  0.00000000000E+00  0.00000000000E+00 -0.17186792380E+03  0.19582020326E+03  0.93845451519E+02 0.  0.
          2    1    3    3  502    0  0.44715402485E+02 -0.71215370985E+01 -0.60245702404E+02  0.75363971287E+02  0.00000000000E+00 0.  1.
         -2    1    3    3    0  502 -0.44715402485E+02  0.71215370985E+01 -0.11162222140E+03  0.12045623197E+03  0.00000000000E+00 0. -1.
<mgrwt>
<rscale>  0 0.93845452E+02</rscale>
<asrwt>0</asrwt>
<pdfrwt beam="2">  1        1 0.28283698E-01 0.93845452E+02</pdfrwt>
<pdfrwt beam="1">  1       -1 0.18424833E-02 0.93845452E+02</pdfrwt>
<totfact> 0.10779078E+05</totfact>
</mgrwt>
</event>
<event>
 5    1  0.3862918E+001  0.9763039E+02  0.7546771E-02  0.1285359E+00
         -1   -1    0    0    0  501 -0.00000000000E+00  0.00000000000E+00  0.94588745181E+02  0.94588745181E+02  0.00000000000E+00 0.  1.
          1   -1    0    0  501    0  0.00000000000E+00 -0.00000000000E+00 -0.25192459865E+02  0.25192459865E+02  0.00000000000E+00 0. -1.
         23    2    1    2    0    0  0.00000000000E+00  0.00000000000E+00  0.69396285316E+02  0.11978120505E+03  0.97630388028E+02 0.  0.
          2    1    3    3  502    0  0.38821510597E+02 -0.29525827894E+02  0.37163835136E+02  0.61319122954E+02  0.00000000000E+00 0.  1.
         -2    1    3    3    0  502 -0.38821510597E+02  0.29525827894E+02  0.32232450180E+02  0.58462082092E+02  0.00000000000E+00 0. -1.
<mgrwt>
<rscale>  0 0.97630388E+02</rscale>
<asrwt>0</asrwt>
<pdfrwt beam="2">  1        1 0.38757631E-02 0.97630388E+02</pdfrwt>
<pdfrwt beam="1">  1       -1 0.14552114E-01 0.97630388E+02</pdfrwt>
<totfact> 0.68927825E+04</totfact>
</mgrwt>
</event>
<event>
 5    1  0.3862918E+001  0.9204328E+02  0.7546771E-02  0.1297978E+00
         -1   -1    0    0    0  501 -0.00000000000E+00  0.00000000000E+00  0.69571469748E+02  0.69571469748E+02  0.00000000000E+00 0.  1.
          1   -1    0    0  501    0  0.00000000000E+00 -0.00000000000E+00 -0.30443390257E+02  0.30443390257E+02  0.00000000000E+00 0. -1.
         23    2    1    2    0    0  0.00000000000E+00  0.00000000000E+00  0.39128079491E+02  0.10001486000E+03  0.92043281216E+02 0.  0.
          2    1    3    3  502    0  0.40084160185E+02 -0.11416023851E+02  0.40771696887E+02  0.58304346025E+02  0.00000000000E+00 0. -1.
         -2    1    3    3    0  502 -0.40084160185E+02  0.11416023851E+02 -0.16436173964E+01  0.41710513980E+02  0.00000000000E+00 0.  1.
<mgrwt>
<rscale>  0 0.92043281E+02</rscale>
<asrwt>0</asrwt>
<pdfrwt beam="2">  1        1 0.46835985E-02 0.92043281E+02</pdfrwt>
<pdfrwt beam="1">  1       -1 0.10703303E-01 0.92043281E+02</pdfrwt>
<totfact> 0.84559627E+04</totfact>
</mgrwt>
</event>
<event>
 5    1  0.3862918E+001  0.9052130E+02  0.7546771E-02  0.1301594E+00
         -2   -1    0    0    0  501 -0.00000000000E+00  0.00000000000E+00  0.11443233799E+03  0.11443233799E+03  0.00000000000E+00 0.  1.
          2   -1    0    0  501    0  0.00000000000E+00 -0.00000000000E+00 -0.17901638654E+02  0.17901638654E+02  0.00000000000E+00 0. -1.
         23    2    1    2    0    0  0.00000000000E+00  0.00000000000E+00  0.96530699339E+02  0.13233397665E+03  0.90521298380E+02 0.  0.
          2    1    3    3  502    0 -0.18157950850E+02 -0.20054754726E+02 -0.47804672866E+01  0.27472845387E+02  0.00000000000E+00 0. -1.
         -2    1    3    3    0  502  0.18157950850E+02  0.20054754726E+02  0.10131116663E+03  0.10486113126E+03  0.00000000000E+00 0.  1.
<mgrwt>
<rscale>  0 0.90521298E+02</rscale>
<asrwt>0</asrwt>
<pdfrwt beam="2">  1        2 0.27540983E-02 0.90521298E+02</pdfrwt>
<pdfrwt beam="1">  1       -2 0.17604975E-01 0.90521298E+02</pdfrwt>
<totfact> 0.77966490E+04</totfact>
</mgrwt>
</event>
<event>
 5    1  0.3862918E+001  0.9159289E+02  0.7546771E-02  0.1299040E+00
         -2   -1    0    0    0  501 -0.00000000000E+00  0.00000000000E+00  0.11560959688E+01  0.11560959688E+01  0.00000000000E+00 0.  1.
          2   -1    0    0  501    0  0.00000000000E+00 -0.00000000000E+00 -0.18141350969E+04  0.18141350969E+04  0.00000000000E+00 0. -1.
         23    2    1    2    0    0  0.00000000000E+00  0.00000000000E+00 -0.18129790010E+04  0.18152911929E+04  0.91592887766E+02 0.  0.
          2    1    3    3  502    0  0.37690600074E+02  0.15212187011E+02 -0.13247258477E+04  0.13253492232E+04  0.00000000000E+00 0. -1.
         -2    1    3    3    0  502 -0.37690600074E+02 -0.15212187011E+02 -0.48825315328E+03  0.48994196968E+03  0.00000000000E+00 0.  1.
<mgrwt>
<rscale>  0 0.91592888E+02</rscale>
<asrwt>0</asrwt>
<pdfrwt beam="2">  1        2 0.27909884E+00 0.91592888E+02</pdfrwt>
<pdfrwt beam="1">  1       -2 0.17786020E-03 0.91592888E+02</pdfrwt>
<totfact> 0.21060966E+05</totfact>
</mgrwt>
</event>
<event>
 5    1  0.3862918E+001  0.9098193E+02  0.7546771E-02  0.1300491E+00
          2   -1    0    0  501    0  0.00000000000E+00  0.00000000000E+00  0.22080623367E+03  0.22080623367E+03  0.00000000000E+00 0. -1.
         -2   -1    0    0    0  501 -0.00000000000E+00 -0.00000000000E+00 -0.93721449381E+01  0.93721449381E+01  0.00000000000E+00 0.  1.
         23    2    1    2    0    0  0.00000000000E+00  0.00000000000E+00  0.21143408874E+03  0.23017837861E+03  0.90981932827E+02 0.  0.
          2    1    3    3  502    0 -0.32163313252E+02  0.26509756216E+02  0.15182729696E+03  0.15744451085E+03  0.00000000000E+00 0. -1.
         -2    1    3    3    0  502  0.32163313252E+02 -0.26509756216E+02  0.59606791774E+02  0.72733867762E+02  0.00000000000E+00 0.  1.
<mgrwt>
<rscale>  0 0.90981933E+02</rscale>
<asrwt>0</asrwt>
<pdfrwt beam="1">  1        2 0.33970186E-01 0.90981933E+02</pdfrwt>
<pdfrwt beam="2">  1       -2 0.14418686E-02 0.90981933E+02</pdfrwt>
<totfact> 0.16127950E+05</totfact>
</mgrwt>
</event>
<event>
 5    1  0.3862918E+001  0.8835065E+02  0.7546771E-02  0.1306896E+00
         -4   -1    0    0    0  501 -0.00000000000E+00  0.00000000000E+00  0.57862210323E+02  0.57862210323E+02  0.00000000000E+00 0.  1.
          4   -1    0    0  501    0  0.00000000000E+00 -0.00000000000E+00 -0.33725971126E+02  0.33725971126E+02  0.00000000000E+00 0. -1.
         23    2    1    2    0    0  0.00000000000E+00  0.00000000000E+00  0.24136239198E+02  0.91588181449E+02  0.88350647641E+02 0.  0.
          2    1    3    3  502    0  0.25803609188E+02 -0.34496056715E+02  0.19293869857E+01  0.43122229883E+02  0.00000000000E+00 0. -1.
         -2    1    3    3    0  502 -0.25803609188E+02  0.34496056715E+02  0.22206852212E+02  0.48465951566E+02  0.00000000000E+00 0.  1.
<mgrwt>
<rscale>  0 0.88350648E+02</rscale>
<asrwt>0</asrwt>
<pdfrwt beam="2">  1        4 0.51886109E-02 0.88350648E+02</pdfrwt>
<pdfrwt beam="1">  1       -4 0.89018785E-02 0.88350648E+02</pdfrwt>
<totfact> 0.29388206E+04</totfact>
</mgrwt>
</event>
<event>
 5    1  0.3862918E+001  0.9160445E+02  0.7546771E-02  0.1299012E+00
         -2   -1    0    0    0  501 -0.00000000000E+00  0.00000000000E+00  0.19572767329E+01  0.19572767329E+01  0.00000000000E+00 0.  1.
          2   -1    0    0  501    0  0.00000000000E+00 -0.00000000000E+00 -0.10718176754E+04  0.10718176754E+04  0.00000000000E+00 0. -1.
         23    2    1    2    0    0  0.00000000000E+00  0.00000000000E+00 -0.10698603986E+04  0.10737749521E+04  0.91604449627E+02 0.  0.
          2    1    3    3  502    0 -0.35136747099E+02  0.18790037928E+01 -0.87862721107E+03  0.87933150614E+03  0.00000000000E+00 0. -1.
         -2    1    3    3    0  502  0.35136747099E+02 -0.18790037928E+01 -0.19123318755E+03  0.19444344595E+03  0.00000000000E+00 0.  1.
<mgrwt>
<rscale>  0 0.91604450E+02</rscale>
<asrwt>0</asrwt>
<pdfrwt beam="2">  1        2 0.16489468E+00 0.91604450E+02</pdfrwt>
<pdfrwt beam="1">  1       -2 0.30112014E-03 0.91604450E+02</pdfrwt>
<totfact> 0.24725446E+05</totfact>
</mgrwt>
</event>
<event>
 5    1  0.3862918E+001  0.9080696E+02  0.7546771E-02  0.1300909E+00
         -2   -1    0    0    0  501 -0.00000000000E+00  0.00000000000E+00  0.92895577764E+02  0.92895577764E+02  0.00000000000E+00 0. -1.
          2   -1    0    0  501    0  0.00000000000E+00 -0.00000000000E+00 -0.22191327484E+02  0.22191327484E+02  0.00000000000E+00 0.  1.
         23    2    1    2    0    0  0.00000000000E+00  0.00000000000E+00  0.70704250280E+02  0.11508690525E+03  0.90806964225E+02 0.  0.
          2    1    3    3  502    0  0.36552754367E+02  0.62919964162E+01  0.68541582319E+02  0.77933571569E+02  0.00000000000E+00 0. -1.
         -2    1    3    3    0  502 -0.36552754367E+02 -0.62919964162E+01  0.21626679611E+01  0.37153333679E+02  0.00000000000E+00 0.  1.
<mgrwt>
<rscale>  0 0.90806964E+02</rscale>
<asrwt>0</asrwt>
<pdfrwt beam="2">  1        2 0.34140504E-02 0.90806964E+02</pdfrwt>
<pdfrwt beam="1">  1       -2 0.14291627E-01 0.90806964E+02</pdfrwt>
<totfact> 0.82381278E+04</totfact>
</mgrwt>
</event>
<event>
 5    1  0.3862918E+001  0.9130276E+02  0.7546771E-02  0.1299727E+00
         -1   -1    0    0    0  501 -0.00000000000E+00  0.00000000000E+00  0.80500868084E+02  0.80500868084E+02  0.00000000000E+00 0.  1.
          1   -1    0    0  501    0  0.00000000000E+00 -0.00000000000E+00 -0.25888519360E+02  0.25888519360E+02  0.00000000000E+00 0. -1.
         23    2    1    2    0    0  0.00000000000E+00  0.00000000000E+00  0.54612348724E+02  0.10638938744E+03  0.91302755311E+02 0.  0.
          2    1    3    3  502    0 -0.28797854831E+02 -0.11749353263E+02 -0.11632366728E+02  0.33206561109E+02  0.00000000000E+00 0. -1.
         -2    1    3    3    0  502  0.28797854831E+02  0.11749353263E+02  0.66244715452E+02  0.73182826335E+02  0.00000000000E+00 0.  1.
<mgrwt>
<rscale>  0 0.91302755E+02</rscale>
<asrwt>0</asrwt>
<pdfrwt beam="2">  1        1 0.39828492E-02 0.91302755E+02</pdfrwt>
<pdfrwt beam="1">  1       -1 0.12384749E-01 0.91302755E+02</pdfrwt>
<totfact> 0.84262649E+04</totfact>
</mgrwt>
</event>
<event>
 5    1  0.3862918E+001  0.5942167E+02  0.7546771E-02  0.1400275E+00
          2   -1    0    0  501    0  0.00000000000E+00  0.00000000000E+00  0.85389956538E+02  0.85389956538E+02  0.00000000000E+00 0. -1.
         -2   -1    0    0    0  501 -0.00000000000E+00 -0.00000000000E+00 -0.10337677619E+02  0.10337677619E+02  0.00000000000E+00 0.  1.
         23    2    1    2    0    0  0.00000000000E+00  0.00000000000E+00  0.75052278919E+02  0.95727634157E+02  0.59421674248E+02 0.  0.
          2    1    3    3  502    0 -0.10505815013E+02 -0.26467969416E+02  0.23874659699E+02  0.37160798294E+02  0.00000000000E+00 0. -1.
         -2    1    3    3    0  502  0.10505815013E+02  0.26467969416E+02  0.51177619220E+02  0.58566835864E+02  0.00000000000E+00 0.  1.
<mgrwt>
<rscale>  0 0.59421674E+02</rscale>
<asrwt>0</asrwt>
<pdfrwt beam="1">  1        2 0.13136916E-01 0.59421674E+02</pdfrwt>
<pdfrwt beam="2">  1       -2 0.15904120E-02 0.59421674E+02</pdfrwt>
<totfact> 0.36917794E+05</totfact>
</mgrwt>
</event>
<event>
 5    1  0.3862918E+001  0.9216871E+02  0.7546771E-02  0.1297683E+00
         -2   -1    0    0    0  501 -0.00000000000E+00  0.00000000000E+00  0.48445591353E+03  0.48445591353E+03  0.00000000000E+00 0.  1.
          2   -1    0    0  501    0  0.00000000000E+00 -0.00000000000E+00 -0.43838201798E+01  0.43838201798E+01  0.00000000000E+00 0. -1.
         23    2    1    2    0    0  0.00000000000E+00  0.00000000000E+00  0.48007209335E+03  0.48883973371E+03  0.92168706402E+02 0.  0.
          2    1    3    3  502    0 -0.20642032347E+01  0.36092876780E+02  0.88455393379E+02  0.95557905518E+02  0.00000000000E+00 0. -1.
         -2    1    3    3    0  502  0.20642032347E+01 -0.36092876780E+02  0.39161669998E+03  0.39328182820E+03  0.00000000000E+00 0.  1.
<mgrwt>
<rscale>  0 0.92168706E+02</rscale>
<asrwt>0</asrwt>
<pdfrwt beam="2">  1        2 0.67443426E-03 0.92168706E+02</pdfrwt>
<pdfrwt beam="1">  1       -2 0.74531637E-01 0.92168706E+02</pdfrwt>
<totfact> 0.36170052E+04</totfact>
</mgrwt>
</event>
<event>
 5    1  0.3862918E+001  0.9143460E+02  0.7546771E-02  0.1299414E+00
          1   -1    0    0  501    0  0.00000000000E+00  0.00000000000E+00  0.11817797967E+01  0.11817797967E+01  0.00000000000E+00 0.  1.
         -1   -1    0    0    0  501 -0.00000000000E+00 -0.00000000000E+00 -0.17685795192E+04  0.17685795192E+04  0.00000000000E+00 0. -1.
         23    2    1    2    0    0  0.00000000000E+00  0.00000000000E+00 -0.17673977394E+04  0.17697612990E+04  0.91434600556E+02 0.  0.
          2    1    3    3  502    0  0.23900864846E+02  0.35759091998E+02 -0.11836199726E+04  0.11844012004E+04  0.00000000000E+00 0. -1.
         -2    1    3    3    0  502 -0.23900864846E+02 -0.35759091998E+02 -0.58377776684E+03  0.58536009863E+03  0.00000000000E+00 0.  1.
<mgrwt>
<rscale>  0 0.91434601E+02</rscale>
<asrwt>0</asrwt>
<pdfrwt beam="1">  1        1 0.18181058E-03 0.91434601E+02</pdfrwt>
<pdfrwt beam="2">  1       -1 0.27209169E+00 0.91434601E+02</pdfrwt>
<totfact> 0.95898907E+03</totfact>
</mgrwt>
</event>
<event>
 5    1  0.3862918E+001  0.9089389E+02  0.7546771E-02  0.1300701E+00
          2   -1    0    0  501    0  0.00000000000E+00  0.00000000000E+00  0.26753653949E+02  0.26753653949E+02  0.00000000000E+00 0. -1.
         -2   -1    0    0    0  501 -0.00000000000E+00 -0.00000000000E+00 -0.77201599515E+02  0.77201599515E+02  0.00000000000E+00 0.  1.
         23    2    1    2    0    0  0.00000000000E+00  0.00000000000E+00 -0.50447945566E+02  0.10395525346E+03  0.90893891494E+02 0.  0.
          2    1    3    3  502    0  0.39292407896E+02 -0.14126797299E+02 -0.47021382324E+01  0.42018684227E+02  0.00000000000E+00 0.  1.
         -2    1    3    3    0  502 -0.39292407896E+02  0.14126797299E+02 -0.45745807334E+02  0.61936569237E+02  0.00000000000E+00 0. -1.
<mgrwt>
<rscale>  0 0.90893891E+02</rscale>
<asrwt>0</asrwt>
<pdfrwt beam="1">  1        2 0.41159468E-02 0.90893891E+02</pdfrwt>
<pdfrwt beam="2">  1       -2 0.11877169E-01 0.90893891E+02</pdfrwt>
<totfact> 0.86572666E+04</totfact>
</mgrwt>
</event>
<event>
 5    1  0.3862918E+001  0.9220293E+02  0.7546771E-02  0.1297603E+00
          3   -1    0    0  501    0  0.00000000000E+00  0.00000000000E+00  0.68963916301E+02  0.68963916301E+02  0.00000000000E+00 0. -1.
         -3   -1    0    0    0  501 -0.00000000000E+00 -0.00000000000E+00 -0.30818221658E+02  0.30818221658E+02  0.00000000000E+00 0.  1.
         23    2    1    2    0    0  0.00000000000E+00  0.00000000000E+00  0.38145694642E+02  0.99782137959E+02  0.92202933987E+02 0.  0.
          2    1    3    3  502    0 -0.25191848829E+02  0.38587016188E+02  0.17637882133E+02  0.49342496409E+02  0.00000000000E+00 0. -1.
         -2    1    3    3    0  502  0.25191848829E+02 -0.38587016188E+02  0.20507812509E+02  0.50439641550E+02  0.00000000000E+00 0.  1.
<mgrwt>
<rscale>  0 0.92202934E+02</rscale>
<asrwt>0</asrwt>
<pdfrwt beam="1">  1        3 0.10609833E-01 0.92202934E+02</pdfrwt>
<pdfrwt beam="2">  1       -3 0.47412649E-02 0.92202934E+02</pdfrwt>
<totfact> 0.33644098E+04</totfact>
</mgrwt>
</event>
<event>
 5    1  0.3862918E+001  0.8207647E+02  0.7546771E-02  0.1323260E+00
         -1   -1    0    0    0  501 -0.00000000000E+00  0.00000000000E+00  0.50346084065E+01  0.50346084065E+01  0.00000000000E+00 0. -1.
          1   -1    0    0  501    0  0.00000000000E+00 -0.00000000000E+00 -0.33451195155E+03  0.33451195155E+03  0.00000000000E+00 0.  1.
         23    2    1    2    0    0  0.00000000000E+00  0.00000000000E+00 -0.32947734314E+03  0.33954655996E+03  0.82076468817E+02 0.  0.
          2    1    3    3  502    0  0.31325193877E+02 -0.10978387280E+02 -0.64906516594E+02  0.72901636848E+02  0.00000000000E+00 0. -1.
         -2    1    3    3    0  502 -0.31325193877E+02  0.10978387280E+02 -0.26457082655E+03  0.26664492311E+03  0.00000000000E+00 0.  1.
<mgrwt>
<rscale>  0 0.82076469E+02</rscale>
<asrwt>0</asrwt>
<pdfrwt beam="2">  1        1 0.51463380E-01 0.82076469E+02</pdfrwt>
<pdfrwt beam="1">  1       -1 0.77455510E-03 0.82076469E+02</pdfrwt>
<totfact> 0.17269354E+05</totfact>
</mgrwt>
</event>
<event>
 5    1  0.3862918E+001  0.9217167E+02  0.7546771E-02  0.1297676E+00
         -1   -1    0    0    0  501 -0.00000000000E+00  0.00000000000E+00  0.11725102089E+04  0.11725102089E+04  0.00000000000E+00 0.  1.
          1   -1    0    0  501    0  0.00000000000E+00 -0.00000000000E+00 -0.18114165169E+01  0.18114165169E+01  0.00000000000E+00 0. -1.
         23    2    1    2    0    0  0.00000000000E+00  0.00000000000E+00  0.11706987924E+04  0.11743216254E+04  0.92171673711E+02 0.  0.
          2    1    3    3  502    0 -0.71648326707E+00 -0.24535543520E+02  0.88401310828E+02  0.91745833693E+02  0.00000000000E+00 0. -1.
         -2    1    3    3    0  502  0.71648326707E+00  0.24535543520E+02  0.10822974816E+04  0.10825757917E+04  0.00000000000E+00 0.  1.
<mgrwt>
<rscale>  0 0.92171674E+02</rscale>
<asrwt>0</asrwt>
<pdfrwt beam="2">  1        1 0.27868040E-03 0.92171674E+02</pdfrwt>
<pdfrwt beam="1">  1       -1 0.18038558E+00 0.92171674E+02</pdfrwt>
<totfact> 0.20199614E+04</totfact>
</mgrwt>
</event>
<event>
 5    1  0.3862918E+001  0.9128479E+02  0.7546771E-02  0.1299770E+00
          2   -1    0    0  501    0  0.00000000000E+00  0.00000000000E+00  0.20577084488E+02  0.20577084488E+02  0.00000000000E+00 0. -1.
         -2   -1    0    0    0  501 -0.00000000000E+00 -0.00000000000E+00 -0.10124019825E+03  0.10124019825E+03  0.00000000000E+00 0.  1.
         23    2    1    2    0    0  0.00000000000E+00  0.00000000000E+00 -0.80663113766E+02  0.12181728274E+03  0.91284787627E+02 0.  0.
          2    1    3    3  502    0  0.43713256505E+02  0.25248340644E+01 -0.23137812324E+02  0.49523549353E+02  0.00000000000E+00 0. -1.
         -2    1    3    3    0  502 -0.43713256505E+02 -0.25248340644E+01 -0.57525301442E+02  0.72293733389E+02  0.00000000000E+00 0.  1.
<mgrwt>
<rscale>  0 0.91284788E+02</rscale>
<asrwt>0</asrwt>
<pdfrwt beam="1">  1        2 0.31657054E-02 0.91284788E+02</pdfrwt>
<pdfrwt beam="2">  1       -2 0.15575415E-01 0.91284788E+02</pdfrwt>
<totfact> 0.79278414E+04</totfact>
</mgrwt>
</event>
<event>
 5    1  0.3862918E+001  0.9228709E+02  0.7546771E-02  0.1297406E+00
         -1   -1    0    0    0  501 -0.00000000000E+00  0.00000000000E+00  0.15171205358E+01  0.15171205358E+01  0.00000000000E+00 0.  1.
          1   -1    0    0  501    0  0.00000000000E+00 -0.00000000000E+00 -0.14034656857E+04  0.14034656857E+04  0.00000000000E+00 0. -1.
         23    2    1    2    0    0  0.00000000000E+00  0.00000000000E+00 -0.14019485652E+04  0.14049828063E+04  0.92287087139E+02 0.  0.
          2    1    3    3  502    0 -0.37652001097E+02  0.13092568666E+02 -0.10547943542E+04  0.10555473548E+04  0.00000000000E+00 0. -1.
         -2    1    3    3    0  502  0.37652001097E+02 -0.13092568666E+02 -0.34715421101E+03  0.34943545149E+03  0.00000000000E+00 0.  1.
<mgrwt>
<rscale>  0 0.92287087E+02</rscale>
<asrwt>0</asrwt>
<pdfrwt beam="2">  1        1 0.21591811E+00 0.92287087E+02</pdfrwt>
<pdfrwt beam="1">  1       -1 0.23340282E-03 0.92287087E+02</pdfrwt>
<totfact> 0.11256610E+05</totfact>
</mgrwt>
</event>
<event>
 5    1  0.3862918E+001  0.9257492E+02  0.7546771E-02  0.1296733E+00
          1   -1    0    0  501    0  0.00000000000E+00  0.00000000000E+00  0.74799442551E+03  0.74799442551E+03  0.00000000000E+00 0. -1.
         -1   -1    0    0    0  501 -0.00000000000E+00 -0.00000000000E+00 -0.28643649523E+01  0.28643649523E+01  0.00000000000E+00 0.  1.
         23    2    1    2    0    0  0.00000000000E+00  0.00000000000E+00  0.74513006056E+03  0.75085879046E+03  0.92574921376E+02 0.  0.
          2    1    3    3  502    0 -0.48514752507E+01 -0.20434704597E+02  0.70712197782E+03  0.70743381703E+03  0.00000000000E+00 0. -1.
         -2    1    3    3    0  502  0.48514752507E+01  0.20434704597E+02  0.38008082741E+02  0.43424973434E+02  0.00000000000E+00 0.  1.
<mgrwt>
<rscale>  0 0.92574921E+02</rscale>
<asrwt>0</asrwt>
<pdfrwt beam="1">  1        1 0.11507591E+00 0.92574921E+02</pdfrwt>
<pdfrwt beam="2">  1       -1 0.44067213E-03 0.92574921E+02</pdfrwt>
<totfact> 0.13632226E+05</totfact>
</mgrwt>
</event>
<event>
 5    1  0.3862918E+001  0.9018470E+02  0.7546771E-02  0.1302405E+00
         -2   -1    0    0    0  501 -0.00000000000E+00  0.00000000000E+00  0.12742016855E+02  0.12742016855E+02  0.00000000000E+00 0.  1.
          2   -1    0    0  501    0  0.00000000000E+00 -0.00000000000E+00 -0.15957599928E+03  0.15957599928E+03  0.00000000000E+00 0. -1.
         23    2    1    2    0    0  0.00000000000E+00  0.00000000000E+00 -0.14683398242E+03  0.17231801613E+03  0.90184700975E+02 0.  0.
          2    1    3    3  502    0 -0.29878613774E+02 -0.33474404809E+02 -0.64860718579E+02  0.78868118736E+02  0.00000000000E+00 0.  1.
         -2    1    3    3    0  502  0.29878613774E+02  0.33474404809E+02 -0.81973263844E+02  0.93449897397E+02  0.00000000000E+00 0. -1.
<mgrwt>
<rscale>  0 0.90184701E+02</rscale>
<asrwt>0</asrwt>
<pdfrwt beam="2">  1        2 0.24550155E-01 0.90184701E+02</pdfrwt>
<pdfrwt beam="1">  1       -2 0.19603101E-02 0.90184701E+02</pdfrwt>
<totfact> 0.14709570E+05</totfact>
</mgrwt>
</event>
<event>
 5    1  0.3862918E+001  0.8998477E+02  0.7546771E-02  0.1302889E+00
         -1   -1    0    0    0  501 -0.00000000000E+00  0.00000000000E+00  0.16510821504E+02  0.16510821504E+02  0.00000000000E+00 0.  1.
          1   -1    0    0  501    0  0.00000000000E+00 -0.00000000000E+00 -0.12260533614E+03  0.12260533614E+03  0.00000000000E+00 0. -1.
         23    2    1    2    0    0  0.00000000000E+00  0.00000000000E+00 -0.10609451464E+03  0.13911615764E+03  0.89984772501E+02 0.  0.
          2    1    3    3  502    0  0.31527883894E+02 -0.11207731205E+02 -0.99547951321E+02  0.10502102320E+03  0.00000000000E+00 0. -1.
         -2    1    3    3    0  502 -0.31527883894E+02  0.11207731205E+02 -0.65465633147E+01  0.34095134445E+02  0.00000000000E+00 0.  1.
<mgrwt>
<rscale>  0 0.89984773E+02</rscale>
<asrwt>0</asrwt>
<pdfrwt beam="2">  1        1 0.18862359E-01 0.89984773E+02</pdfrwt>
<pdfrwt beam="1">  1       -1 0.25401264E-02 0.89984773E+02</pdfrwt>
<totfact> 0.11206455E+05</totfact>
</mgrwt>
</event>
<event>
 5    1  0.3862918E+001  0.9757545E+02  0.7546771E-02  0.1285479E+00
         -2   -1    0    0    0  501 -0.00000000000E+00  0.00000000000E+00  0.13421793732E+02  0.13421793732E+02  0.00000000000E+00 0.  1.
          2   -1    0    0  501    0  0.00000000000E+00 -0.00000000000E+00 -0.17734157823E+03  0.17734157823E+03  0.00000000000E+00 0. -1.
         23    2    1    2    0    0  0.00000000000E+00  0.00000000000E+00 -0.16391978450E+03  0.19076337196E+03  0.97575449433E+02 0.  0.
          2    1    3    3  502    0 -0.43132748821E+02  0.22459218019E+02 -0.89629906070E+02  0.10197240096E+03  0.00000000000E+00 0. -1.
         -2    1    3    3    0  502  0.43132748821E+02 -0.22459218019E+02 -0.74289878426E+02  0.88790971002E+02  0.00000000000E+00 0.  1.
<mgrwt>
<rscale>  0 0.97575449E+02</rscale>
<asrwt>0</asrwt>
<pdfrwt beam="2">  1        2 0.27283319E-01 0.97575449E+02</pdfrwt>
<pdfrwt beam="1">  1       -2 0.20648914E-02 0.97575449E+02</pdfrwt>
<totfact> 0.12325208E+05</totfact>
</mgrwt>
</event>
<event>
 5    1  0.3862918E+001  0.9260927E+02  0.7546771E-02  0.1296653E+00
          2   -1    0    0  501    0  0.00000000000E+00  0.00000000000E+00  0.72983243418E+03  0.72983243418E+03  0.00000000000E+00 0. -1.
         -2   -1    0    0    0  501 -0.00000000000E+00 -0.00000000000E+00 -0.29378238189E+01  0.29378238189E+01  0.00000000000E+00 0.  1.
         23    2    1    2    0    0  0.00000000000E+00  0.00000000000E+00  0.72689461037E+03  0.73277025800E+03  0.92609267548E+02 0.  0.
          2    1    3    3  502    0  0.22790039128E+02  0.20852113247E+01  0.68195689107E+03  0.68234077649E+03  0.00000000000E+00 0. -1.
         -2    1    3    3    0  502 -0.22790039128E+02 -0.20852113247E+01  0.44937719297E+02  0.50429481510E+02  0.00000000000E+00 0.  1.
<mgrwt>
<rscale>  0 0.92609268E+02</rscale>
<asrwt>0</asrwt>
<pdfrwt beam="1">  1        2 0.11228177E+00 0.92609268E+02</pdfrwt>
<pdfrwt beam="2">  1       -2 0.45197347E-03 0.92609268E+02</pdfrwt>
<totfact> 0.22972919E+05</totfact>
</mgrwt>
</event>
<event>
 5    1  0.3862918E+001  0.9249274E+02  0.7546771E-02  0.1296925E+00
          1   -1    0    0  501    0  0.00000000000E+00  0.00000000000E+00  0.14356461848E+03  0.14356461848E+03  0.00000000000E+00 0. -1.
         -1   -1    0    0    0  501 -0.00000000000E+00 -0.00000000000E+00 -0.14897310106E+02  0.14897310106E+02  0.00000000000E+00 0.  1.
         23    2    1    2    0    0  0.00000000000E+00  0.00000000000E+00  0.12866730838E+03  0.15846192859E+03  0.92492737914E+02 0.  0.
          2    1    3    3  502    0 -0.42621885956E+02 -0.62301958034E+01  0.35497989617E+02  0.55817092087E+02  0.00000000000E+00 0.  1.
         -2    1    3    3    0  502  0.42621885956E+02  0.62301958034E+01  0.93169318758E+02  0.10264483650E+03  0.00000000000E+00 0. -1.
<mgrwt>
<rscale>  0 0.92492738E+02</rscale>
<asrwt>0</asrwt>
<pdfrwt beam="1">  1        1 0.22086863E-01 0.92492738E+02</pdfrwt>
<pdfrwt beam="2">  1       -1 0.22918940E-02 0.92492738E+02</pdfrwt>
<totfact> 0.10700749E+05</totfact>
</mgrwt>
</event>
<event>
 5    1  0.3862918E+001  0.8959593E+02  0.7546771E-02  0.1303833E+00
          3   -1    0    0  501    0  0.00000000000E+00  0.00000000000E+00  0.13208122084E+02  0.13208122084E+02  0.00000000000E+00 0. -1.
         -3   -1    0    0    0  501 -0.00000000000E+00 -0.00000000000E+00 -0.15194119477E+03  0.15194119477E+03  0.00000000000E+00 0.  1.
         23    2    1    2    0    0  0.00000000000E+00  0.00000000000E+00 -0.13873307269E+03  0.16514931686E+03  0.89595934063E+02 0.  0.
          2    1    3    3  502    0 -0.31042683071E+02  0.26563982443E+02 -0.10323276790E+03  0.11102386096E+03  0.00000000000E+00 0.  1.
         -2    1    3    3    0  502  0.31042683071E+02 -0.26563982443E+02 -0.35500304792E+02  0.54125455895E+02  0.00000000000E+00 0. -1.
<mgrwt>
<rscale>  0 0.89595934E+02</rscale>
<asrwt>0</asrwt>
<pdfrwt beam="1">  1        3 0.20320188E-02 0.89595934E+02</pdfrwt>
<pdfrwt beam="2">  1       -3 0.23375568E-01 0.89595934E+02</pdfrwt>
<totfact> 0.31875276E+04</totfact>
</mgrwt>
</event>
<event>
 5    1  0.3862918E+001  0.7828223E+02  0.7546771E-02  0.1333998E+00
         -2   -1    0    0    0  501 -0.00000000000E+00  0.00000000000E+00  0.10172570605E+01  0.10172570605E+01  0.00000000000E+00 0. -1.
          2   -1    0    0  501    0  0.00000000000E+00 -0.00000000000E+00 -0.15060369708E+04  0.15060369708E+04  0.00000000000E+00 0.  1.
         23    2    1    2    0    0  0.00000000000E+00  0.00000000000E+00 -0.15050197137E+04  0.15070542278E+04  0.78282226383E+02 0.  0.
          2    1    3    3  502    0 -0.16370621352E+02 -0.25335730366E+02 -0.27232730461E+03  0.27399280522E+03  0.00000000000E+00 0. -1.
         -2    1    3    3    0  502  0.16370621352E+02  0.25335730366E+02 -0.12326924091E+04  0.12330614226E+04  0.00000000000E+00 0.  1.
<mgrwt>
<rscale>  0 0.78282226E+02</rscale>
<asrwt>0</asrwt>
<pdfrwt beam="2">  1        2 0.23169599E+00 0.78282226E+02</pdfrwt>
<pdfrwt beam="1">  1       -2 0.15650244E-03 0.78282226E+02</pdfrwt>
<totfact> 0.35106581E+05</totfact>
</mgrwt>
</event>
<event>
 5    1  0.3862918E+001  0.8958086E+02  0.7546771E-02  0.1303870E+00
         -2   -1    0    0    0  501 -0.00000000000E+00  0.00000000000E+00  0.51418097142E+01  0.51418097142E+01  0.00000000000E+00 0.  1.
          2   -1    0    0  501    0  0.00000000000E+00 -0.00000000000E+00 -0.39017056758E+03  0.39017056758E+03  0.00000000000E+00 0. -1.
         23    2    1    2    0    0  0.00000000000E+00  0.00000000000E+00 -0.38502875787E+03  0.39531237729E+03  0.89580864353E+02 0.  0.
          2    1    3    3  502    0  0.40110524134E+02 -0.19558566080E+02 -0.17554264174E+03  0.18112595265E+03  0.00000000000E+00 0. -1.
         -2    1    3    3    0  502 -0.40110524134E+02  0.19558566080E+02 -0.20948611612E+03  0.21418642464E+03  0.00000000000E+00 0.  1.
<mgrwt>
<rscale>  0 0.89580864E+02</rscale>
<asrwt>0</asrwt>
<pdfrwt beam="2">  1        2 0.60026257E-01 0.89580864E+02</pdfrwt>
<pdfrwt beam="1">  1       -2 0.79104744E-03 0.89580864E+02</pdfrwt>
<totfact> 0.20733792E+05</totfact>
</mgrwt>
</event>
<event>
 5    1  0.3862918E+001  0.8996146E+02  0.7546771E-02  0.1302945E+00
         -1   -1    0    0    0  501 -0.00000000000E+00  0.00000000000E+00  0.34553589054E+03  0.34553589054E+03  0.00000000000E+00 0.  1.
          1   -1    0    0  501    0  0.00000000000E+00 -0.00000000000E+00 -0.58554440196E+01  0.58554440196E+01  0.00000000000E+00 0. -1.
         23    2    1    2    0    0  0.00000000000E+00  0.00000000000E+00  0.33968044652E+03  0.35139133456E+03  0.89961459833E+02 0.  0.
          2    1    3    3  502    0 -0.35638507751E+02  0.16226465901E+02  0.83388710686E+02  0.92125341249E+02  0.00000000000E+00 0. -1.
         -2    1    3    3    0  502  0.35638507751E+02 -0.16226465901E+02  0.25629173584E+03  0.25926599331E+03  0.00000000000E+00 0.  1.
<mgrwt>
<rscale>  0 0.89961460E+02</rscale>
<asrwt>0</asrwt>
<pdfrwt beam="2">  1        1 0.90083781E-03 0.89961460E+02</pdfrwt>
<pdfrwt beam="1">  1       -1 0.53159352E-01 0.89961460E+02</pdfrwt>
<totfact> 0.59152741E+04</totfact>
</mgrwt>
</event>
<event>
 5    1  0.3862918E+001  0.9891874E+02  0.7546771E-02  0.1282586E+00
         -1   -1    0    0    0  501 -0.00000000000E+00  0.00000000000E+00  0.73461712414E+01  0.73461712414E+01  0.00000000000E+00 0. -1.
          1   -1    0    0  501    0  0.00000000000E+00 -0.00000000000E+00 -0.33299378580E+03  0.33299378580E+03  0.00000000000E+00 0.  1.
         23    2    1    2    0    0  0.00000000000E+00  0.00000000000E+00 -0.32564761456E+03  0.34033995704E+03  0.98918741860E+02 0.  0.
          2    1    3    3  502    0  0.30145067096E+02  0.29199227438E+02 -0.72780606340E+02  0.84013907256E+02  0.00000000000E+00 0. -1.
         -2    1    3    3    0  502 -0.30145067096E+02 -0.29199227438E+02 -0.25286700822E+03  0.25632604978E+03  0.00000000000E+00 0.  1.
<mgrwt>
<rscale>  0 0.98918742E+02</rscale>
<asrwt>0</asrwt>
<pdfrwt beam="2">  1        1 0.51229812E-01 0.98918742E+02</pdfrwt>
<pdfrwt beam="1">  1       -1 0.11301802E-02 0.98918742E+02</pdfrwt>
<totfact> 0.10507337E+05</totfact>
</mgrwt>
</event>
<event>
 5    1  0.3862918E+001  0.8895492E+02  0.7546771E-02  0.1305402E+00
          3   -1    0    0  501    0  0.00000000000E+00  0.00000000000E+00  0.35434777010E+02  0.35434777010E+02  0.00000000000E+00 0. -1.
         -3   -1    0    0    0  501 -0.00000000000E+00 -0.00000000000E+00 -0.55827767456E+02  0.55827767456E+02  0.00000000000E+00 0.  1.
         23    2    1    2    0    0  0.00000000000E+00  0.00000000000E+00 -0.20392990447E+02  0.91262544466E+02  0.88954920960E+02 0.  0.
          2    1    3    3  502    0 -0.37057941159E+02 -0.92961388721E+01  0.13165598084E+02  0.40410916517E+02  0.00000000000E+00 0. -1.
         -2    1    3    3    0  502  0.37057941159E+02  0.92961388721E+01 -0.33558588530E+02  0.50851627949E+02  0.00000000000E+00 0.  1.
<mgrwt>
<rscale>  0 0.88954921E+02</rscale>
<asrwt>0</asrwt>
<pdfrwt beam="1">  1        3 0.54515042E-02 0.88954921E+02</pdfrwt>
<pdfrwt beam="2">  1       -3 0.85888873E-02 0.88954921E+02</pdfrwt>
<totfact> 0.37781970E+04</totfact>
</mgrwt>
</event>
<event>
 5    1  0.3862918E+001  0.9190767E+02  0.7546771E-02  0.1298297E+00
          1   -1    0    0  501    0  0.00000000000E+00  0.00000000000E+00  0.15349480566E+04  0.15349480566E+04  0.00000000000E+00 0. -1.
         -1   -1    0    0    0  501 -0.00000000000E+00 -0.00000000000E+00 -0.13757825873E+01  0.13757825873E+01  0.00000000000E+00 0.  1.
         23    2    1    2    0    0  0.00000000000E+00  0.00000000000E+00  0.15335722740E+04  0.15363238392E+04  0.91907666900E+02 0.  0.
          2    1    3    3  502    0  0.19238471942E+02  0.22910541218E+02  0.18370300847E+03  0.18612309642E+03  0.00000000000E+00 0.  1.
         -2    1    3    3    0  502 -0.19238471942E+02 -0.22910541218E+02  0.13498692656E+04  0.13502007428E+04  0.00000000000E+00 0. -1.
<mgrwt>
<rscale>  0 0.91907667E+02</rscale>
<asrwt>0</asrwt>
<pdfrwt beam="1">  1        1 0.23614448E+00 0.91907667E+02</pdfrwt>
<pdfrwt beam="2">  1       -1 0.21166009E-03 0.91907667E+02</pdfrwt>
<totfact> 0.10612481E+05</totfact>
</mgrwt>
</event>
<event>
 5    1  0.3862918E+001  0.9793124E+02  0.7546771E-02  0.1284707E+00
          3   -1    0    0  501    0  0.00000000000E+00  0.00000000000E+00  0.16457910382E+02  0.16457910382E+02  0.00000000000E+00 0. -1.
         -3   -1    0    0    0  501 -0.00000000000E+00 -0.00000000000E+00 -0.14568265708E+03  0.14568265708E+03  0.00000000000E+00 0.  1.
         23    2    1    2    0    0  0.00000000000E+00  0.00000000000E+00 -0.12922474670E+03  0.16214056746E+03  0.97931243522E+02 0.  0.
          2    1    3    3  502    0  0.81545741653E+01  0.48129654126E+02 -0.70954086841E+02  0.86124579102E+02  0.00000000000E+00 0. -1.
         -2    1    3    3    0  502 -0.81545741653E+01 -0.48129654126E+02 -0.58270659855E+02  0.76015988358E+02  0.00000000000E+00 0.  1.
<mgrwt>
<rscale>  0 0.97931244E+02</rscale>
<asrwt>0</asrwt>
<pdfrwt beam="1">  1        3 0.25319861E-02 0.97931244E+02</pdfrwt>
<pdfrwt beam="2">  1       -3 0.22412717E-01 0.97931244E+02</pdfrwt>
<totfact> 0.25178270E+04</totfact>
</mgrwt>
</event>
<event>
 5    1  0.3862918E+001  0.9091322E+02  0.7546771E-02  0.1300655E+00
         -1   -1    0    0    0  501 -0.00000000000E+00  0.00000000000E+00  0.85710919627E+03  0.85710919627E+03  0.00000000000E+00 0.  1.
          1   -1    0    0  501    0  0.00000000000E+00 -0.00000000000E+00 -0.24107820819E+01  0.24107820819E+01  0.00000000000E+00 0. -1.
         23    2    1    2    0    0  0.00000000000E+00  0.00000000000E+00  0.85469841419E+03  0.85951997835E+03  0.90913222197E+02 0.  0.
          2    1    3    3  502    0 -0.82556282619E+00 -0.40042467586E+02  0.63061044841E+03  0.63188101602E+03  0.00000000000E+00 0.  1.
         -2    1    3    3    0  502  0.82556282619E+00  0.40042467586E+02  0.22408796578E+03  0.22763896233E+03  0.00000000000E+00 0. -1.
<mgrwt>
<rscale>  0 0.90913222E+02</rscale>
<asrwt>0</asrwt>
<pdfrwt beam="2">  1        1 0.37089023E-03 0.90913222E+02</pdfrwt>
<pdfrwt beam="1">  1       -1 0.13186271E+00 0.90913222E+02</pdfrwt>
<totfact> 0.30709517E+04</totfact>
</mgrwt>
</event>
<event>
 5    1  0.3862918E+001  0.9526026E+02  0.7546771E-02  0.1290591E+00
          1   -1    0    0  501    0  0.00000000000E+00  0.00000000000E+00  0.13785348359E+03  0.13785348359E+03  0.00000000000E+00 0. -1.
         -1   -1    0    0    0  501 -0.00000000000E+00 -0.00000000000E+00 -0.16456814950E+02  0.16456814950E+02  0.00000000000E+00 0.  1.
         23    2    1    2    0    0  0.00000000000E+00  0.00000000000E+00  0.12139666864E+03  0.15431029854E+03  0.95260259703E+02 0.  0.
          2    1    3    3  502    0  0.18785455757E+02 -0.10072928986E+02  0.12969599271E+03  0.13143594551E+03  0.00000000000E+00 0. -1.
         -2    1    3    3    0  502 -0.18785455757E+02  0.10072928986E+02 -0.82993240753E+01  0.22874353028E+02  0.00000000000E+00 0.  1.
<mgrwt>
<rscale>  0 0.95260260E+02</rscale>
<asrwt>0</asrwt>
<pdfrwt beam="1">  1        1 0.21208227E-01 0.95260260E+02</pdfrwt>
<pdfrwt beam="2">  1       -1 0.25318178E-02 0.95260260E+02</pdfrwt>
<totfact> 0.98050099E+04</totfact>
</mgrwt>
</event>
<event>
 5    1  0.3862918E+001  0.9087132E+02  0.7546771E-02  0.1300755E+00
          4   -1    0    0  501    0  0.00000000000E+00  0.00000000000E+00  0.12364331488E+02  0.12364331488E+02  0.00000000000E+00 0. -1.
         -4   -1    0    0    0  501 -0.00000000000E+00 -0.00000000000E+00 -0.16696407132E+03  0.16696407132E+03  0.00000000000E+00 0.  1.
         23    2    1    2    0    0  0.00000000000E+00  0.00000000000E+00 -0.15459973983E+03  0.17932840280E+03  0.90871318342E+02 0.  0.
          2    1    3    3  502    0  0.32380861999E+02 -0.25712175367E+02 -0.40129971567E+02  0.57619882018E+02  0.00000000000E+00 0. -1.
         -2    1    3    3    0  502 -0.32380861999E+02  0.25712175367E+02 -0.11446976826E+03  0.12170852079E+03  0.00000000000E+00 0.  1.
<mgrwt>
<rscale>  0 0.90871318E+02</rscale>
<asrwt>0</asrwt>
<pdfrwt beam="1">  1        4 0.19022050E-02 0.90871318E+02</pdfrwt>
<pdfrwt beam="2">  1       -4 0.25686778E-01 0.90871318E+02</pdfrwt>
<totfact> 0.22482861E+04</totfact>
</mgrwt>
</event>
<event>
 5    1  0.3862918E+001  0.8971039E+02  0.7546771E-02  0.1303555E+00
          4   -1    0    0  501    0  0.00000000000E+00  0.00000000000E+00  0.26292029390E+02  0.26292029390E+02  0.00000000000E+00 0. -1.
         -4   -1    0    0    0  501 -0.00000000000E+00 -0.00000000000E+00 -0.76524663487E+02  0.76524663487E+02  0.00000000000E+00 0.  1.
         23    2    1    2    0    0  0.00000000000E+00  0.00000000000E+00 -0.50232634096E+02  0.10281669288E+03  0.89710394080E+02 0.  0.
          2    1    3    3  502    0 -0.41242388855E+02  0.74754776407E+01 -0.68084910264E+01  0.42463784034E+02  0.00000000000E+00 0. -1.
         -2    1    3    3    0  502  0.41242388855E+02 -0.74754776407E+01 -0.43424143070E+02  0.60352908843E+02  0.00000000000E+00 0.  1.
<mgrwt>
<rscale>  0 0.89710394E+02</rscale>
<asrwt>0</asrwt>
<pdfrwt beam="1">  1        4 0.40449276E-02 0.89710394E+02</pdfrwt>
<pdfrwt beam="2">  1       -4 0.11773025E-01 0.89710394E+02</pdfrwt>
<totfact> 0.27461837E+04</totfact>
</mgrwt>
</event>
<event>
 5    1  0.3862918E+001  0.1067276E+03  0.7546771E-02  0.1266753E+00
          1   -1    0    0  501    0  0.00000000000E+00  0.00000000000E+00  0.42200487883E+01  0.42200487883E+01  0.00000000000E+00 0. -1.
         -1   -1    0    0    0  501 -0.00000000000E+00 -0.00000000000E+00 -0.67480096158E+03  0.67480096158E+03  0.00000000000E+00 0.  1.
         23    2    1    2    0    0  0.00000000000E+00  0.00000000000E+00 -0.67058091279E+03  0.67902101037E+03  0.10672755933E+03 0.  0.
          2    1    3    3  502    0  0.41844251448E+02 -0.28700768125E+02 -0.44041445825E+03  0.44332783638E+03  0.00000000000E+00 0.  1.
         -2    1    3    3    0  502 -0.41844251448E+02  0.28700768125E+02 -0.23016645454E+03  0.23569317399E+03  0.00000000000E+00 0. -1.
<mgrwt>
<rscale>  0 0.10672756E+03</rscale>
<asrwt>0</asrwt>
<pdfrwt beam="1">  1        1 0.64923915E-03 0.10672756E+03</pdfrwt>
<pdfrwt beam="2">  1       -1 0.10381539E+00 0.10672756E+03</pdfrwt>
<totfact> 0.25057845E+04</totfact>
</mgrwt>
</event>
<event>
 5    1  0.3862918E+001  0.8854858E+02  0.7546771E-02  0.1306405E+00
         -1   -1    0    0    0  501 -0.00000000000E+00  0.00000000000E+00  0.13539481149E+03  0.13539481149E+03  0.00000000000E+00 0.  1.
          1   -1    0    0  501    0  0.00000000000E+00 -0.00000000000E+00 -0.14477753465E+02  0.14477753465E+02  0.00000000000E+00 0. -1.
         23    2    1    2    0    0  0.00000000000E+00  0.00000000000E+00  0.12091705803E+03  0.14987256495E+03  0.88548578784E+02 0.  0.
          2    1    3    3  502    0 -0.11182238816E+02  0.23196151768E+02 -0.49919513976E+00  0.25755642441E+02  0.00000000000E+00 0. -1.
         -2    1    3    3    0  502  0.11182238816E+02 -0.23196151768E+02  0.12141625316E+03  0.12411692251E+03  0.00000000000E+00 0.  1.
<mgrwt>
<rscale>  0 0.88548579E+02</rscale>
<asrwt>0</asrwt>
<pdfrwt beam="2">  1        1 0.22273468E-02 0.88548579E+02</pdfrwt>
<pdfrwt beam="1">  1       -1 0.20829970E-01 0.88548579E+02</pdfrwt>
<totfact> 0.82563680E+04</totfact>
</mgrwt>
</event>
<event>
 5    1  0.3862918E+001  0.9135388E+02  0.7546771E-02  0.1299606E+00
         -2   -1    0    0    0  501 -0.00000000000E+00  0.00000000000E+00  0.22236232259E+01  0.22236232259E+01  0.00000000000E+00 0.  1.
          2   -1    0    0  501    0  0.00000000000E+00 -0.00000000000E+00 -0.93828077479E+03  0.93828077479E+03  0.00000000000E+00 0. -1.
         23    2    1    2    0    0  0.00000000000E+00  0.00000000000E+00 -0.93605715156E+03  0.94050439801E+03  0.91353881652E+02 0.  0.
          2    1    3    3  502    0 -0.35975546600E+02 -0.57683532347E+00 -0.75772583064E+03  0.75857959840E+03  0.00000000000E+00 0. -1.
         -2    1    3    3    0  502  0.35975546600E+02  0.57683532347E+00 -0.17833132092E+03  0.18192479961E+03  0.00000000000E+00 0.  1.
<mgrwt>
<rscale>  0 0.91353882E+02</rscale>
<asrwt>0</asrwt>
<pdfrwt beam="2">  1        2 0.14435084E+00 0.91353882E+02</pdfrwt>
<pdfrwt beam="1">  1       -2 0.34209599E-03 0.91353882E+02</pdfrwt>
<totfact> 0.24770445E+05</totfact>
</mgrwt>
</event>
<event>
 5    1  0.3862918E+001  0.9119563E+02  0.7546771E-02  0.1299982E+00
         -2   -1    0    0    0  501 -0.00000000000E+00  0.00000000000E+00  0.66413662399E+03  0.66413662399E+03  0.00000000000E+00 0.  1.
          2   -1    0    0  501    0  0.00000000000E+00 -0.00000000000E+00 -0.31306217085E+01  0.31306217085E+01  0.00000000000E+00 0. -1.
         23    2    1    2    0    0  0.00000000000E+00  0.00000000000E+00  0.66100600228E+03  0.66726724570E+03  0.91195625607E+02 0.  0.
          2    1    3    3  502    0  0.42256404363E+02  0.34288625193E+01  0.45333063403E+03  0.45530871347E+03  0.00000000000E+00 0.  1.
         -2    1    3    3    0  502 -0.42256404363E+02 -0.34288625193E+01  0.20767536825E+03  0.21195853223E+03  0.00000000000E+00 0. -1.
<mgrwt>
<rscale>  0 0.91195626E+02</rscale>
<asrwt>0</asrwt>
<pdfrwt beam="2">  1        2 0.48163464E-03 0.91195626E+02</pdfrwt>
<pdfrwt beam="1">  1       -2 0.10217475E+00 0.91195626E+02</pdfrwt>
<totfact> 0.28539419E+04</totfact>
</mgrwt>
</event>
<event>
 5    1  0.3862918E+001  0.9160674E+02  0.7546771E-02  0.1299007E+00
          1   -1    0    0  501    0  0.00000000000E+00  0.00000000000E+00  0.55794267987E+03  0.55794267987E+03  0.00000000000E+00 0. -1.
         -1   -1    0    0    0  501 -0.00000000000E+00 -0.00000000000E+00 -0.37601506305E+01  0.37601506305E+01  0.00000000000E+00 0.  1.
         23    2    1    2    0    0  0.00000000000E+00  0.00000000000E+00  0.55418252924E+03  0.56170283050E+03  0.91606735986E+02 0.  0.
          2    1    3    3  502    0 -0.43278993267E+02 -0.12712378105E+02  0.32586515538E+03  0.32897230173E+03  0.00000000000E+00 0. -1.
         -2    1    3    3    0  502  0.43278993267E+02  0.12712378105E+02  0.22831737386E+03  0.23273052877E+03  0.00000000000E+00 0.  1.
<mgrwt>
<rscale>  0 0.91606736E+02</rscale>
<asrwt>0</asrwt>
<pdfrwt beam="1">  1        1 0.85837270E-01 0.91606736E+02</pdfrwt>
<pdfrwt beam="2">  1       -1 0.57848515E-03 0.91606736E+02</pdfrwt>
<totfact> 0.13909386E+05</totfact>
</mgrwt>
</event>
<event>
 5    1  0.3862918E+001  0.9263512E+02  0.7546771E-02  0.1296593E+00
          1   -1    0    0  501    0  0.00000000000E+00  0.00000000000E+00  0.14200915497E+02  0.14200915497E+02  0.00000000000E+00 0. -1.
         -1   -1    0    0    0  501 -0.00000000000E+00 -0.00000000000E+00 -0.15106888363E+03  0.15106888363E+03  0.00000000000E+00 0.  1.
         23    2    1    2    0    0  0.00000000000E+00  0.00000000000E+00 -0.13686796813E+03  0.16526979913E+03  0.92635121862E+02 0.  0.
          2    1    3    3  502    0  0.13497112120E+02 -0.33945333314E+02 -0.17630858897E+02  0.40562357856E+02  0.00000000000E+00 0. -1.
         -2    1    3    3    0  502 -0.13497112120E+02  0.33945333314E+02 -0.11923710924E+03  0.12470744127E+03  0.00000000000E+00 0.  1.
<mgrwt>
<rscale>  0 0.92635122E+02</rscale>
<asrwt>0</asrwt>
<pdfrwt beam="1">  1        1 0.21847563E-02 0.92635122E+02</pdfrwt>
<pdfrwt beam="2">  1       -1 0.23241366E-01 0.92635122E+02</pdfrwt>
<totfact> 0.71647325E+04</totfact>
</mgrwt>
</event>
<event>
 5    1  0.3862918E+001  0.9468462E+02  0.7546771E-02  0.1291888E+00
          2   -1    0    0  501    0  0.00000000000E+00  0.00000000000E+00  0.10228877481E+04  0.10228877481E+04  0.00000000000E+00 0. -1.
         -2   -1    0    0    0  501 -0.00000000000E+00 -0.00000000000E+00 -0.21911441872E+01  0.21911441872E+01  0.00000000000E+00 0.  1.
         23    2    1    2    0    0  0.00000000000E+00  0.00000000000E+00  0.10206966039E+04  0.10250788923E+04  0.94684624798E+02 0.  0.
          2    1    3    3  502    0 -0.85502617302E+01 -0.34356431003E+02  0.85061342997E+03  0.85134991547E+03  0.00000000000E+00 0. -1.
         -2    1    3    3    0  502  0.85502617302E+01  0.34356431003E+02  0.17008317391E+03  0.17372897679E+03  0.00000000000E+00 0.  1.
<mgrwt>
<rscale>  0 0.94684625E+02</rscale>
<asrwt>0</asrwt>
<pdfrwt beam="1">  1        2 0.15736697E+00 0.94684625E+02</pdfrwt>
<pdfrwt beam="2">  1       -2 0.33709992E-03 0.94684625E+02</pdfrwt>
<totfact> 0.22649749E+05</totfact>
</mgrwt>
</event>
<event>
 5    1  0.3862918E+001  0.9301947E+02  0.7546771E-02  0.1295700E+00
          1   -1    0    0  501    0  0.00000000000E+00  0.00000000000E+00  0.62620083380E+02  0.62620083380E+02  0.00000000000E+00 0. -1.
         -1   -1    0    0    0  501 -0.00000000000E+00 -0.00000000000E+00 -0.34544117337E+02  0.34544117337E+02  0.00000000000E+00 0.  1.
         23    2    1    2    0    0  0.00000000000E+00  0.00000000000E+00  0.28075966042E+02  0.97164200717E+02  0.93019471251E+02 0.  0.
          2    1    3    3  502    0 -0.30828890313E+01 -0.44245427234E+02 -0.58558060980E+00  0.44356565924E+02  0.00000000000E+00 0. -1.
         -2    1    3    3    0  502  0.30828890313E+01  0.44245427234E+02  0.28661546652E+02  0.52807634793E+02  0.00000000000E+00 0.  1.
<mgrwt>
<rscale>  0 0.93019471E+02</rscale>
<asrwt>0</asrwt>
<pdfrwt beam="1">  1        1 0.96338590E-02 0.93019471E+02</pdfrwt>
<pdfrwt beam="2">  1       -1 0.53144796E-02 0.93019471E+02</pdfrwt>
<totfact> 0.91757547E+04</totfact>
</mgrwt>
</event>
<event>
 5    1  0.3862918E+001  0.9033477E+02  0.7546771E-02  0.1302043E+00
          1   -1    0    0  501    0  0.00000000000E+00  0.00000000000E+00  0.31633619556E+01  0.31633619556E+01  0.00000000000E+00 0. -1.
         -1   -1    0    0    0  501 -0.00000000000E+00 -0.00000000000E+00 -0.64491280931E+03  0.64491280931E+03  0.00000000000E+00 0.  1.
         23    2    1    2    0    0  0.00000000000E+00  0.00000000000E+00 -0.64174944736E+03  0.64807617127E+03  0.90334769511E+02 0.  0.
          2    1    3    3  502    0  0.43037655573E+01  0.41979501310E+02 -0.20535252798E+03  0.20964365403E+03  0.00000000000E+00 0. -1.
         -2    1    3    3    0  502 -0.43037655573E+01 -0.41979501310E+02 -0.43639691938E+03  0.43843251723E+03  0.00000000000E+00 0.  1.
<mgrwt>
<rscale>  0 0.90334770E+02</rscale>
<asrwt>0</asrwt>
<pdfrwt beam="1">  1        1 0.48667057E-03 0.90334770E+02</pdfrwt>
<pdfrwt beam="2">  1       -1 0.99217458E-01 0.90334770E+02</pdfrwt>
<totfact> 0.40373914E+04</totfact>
</mgrwt>
</event>
<event>
 5    1  0.3862918E+001  0.9044238E+02  0.7546771E-02  0.1301784E+00
         -1   -1    0    0    0  501 -0.00000000000E+00  0.00000000000E+00  0.44072129203E+02  0.44072129203E+02  0.00000000000E+00 0.  1.
          1   -1    0    0  501    0  0.00000000000E+00 -0.00000000000E+00 -0.46400209765E+02  0.46400209765E+02  0.00000000000E+00 0. -1.
         23    2    1    2    0    0  0.00000000000E+00  0.00000000000E+00 -0.23280805624E+01  0.90472338968E+02  0.90442380327E+02 0.  0.
          2    1    3    3  502    0  0.18905713654E+02  0.70876431122E+01 -0.41640949990E+02  0.46277742055E+02  0.00000000000E+00 0. -1.
         -2    1    3    3    0  502 -0.18905713654E+02 -0.70876431122E+01  0.39312869428E+02  0.44194596913E+02  0.00000000000E+00 0.  1.
<mgrwt>
<rscale>  0 0.90442380E+02</rscale>
<asrwt>0</asrwt>
<pdfrwt beam="2">  1        1 0.71384938E-02 0.90442380E+02</pdfrwt>
<pdfrwt beam="1">  1       -1 0.67803276E-02 0.90442380E+02</pdfrwt>
<totfact> 0.94842398E+04</totfact>
</mgrwt>
</event>
<event>
 5    1  0.3862918E+001  0.9330861E+02  0.7546771E-02  0.1295032E+00
          4   -1    0    0  501    0  0.00000000000E+00  0.00000000000E+00  0.11405470826E+02  0.11405470826E+02  0.00000000000E+00 0. -1.
         -4   -1    0    0    0  501 -0.00000000000E+00 -0.00000000000E+00 -0.19084036536E+03  0.19084036536E+03  0.00000000000E+00 0.  1.
         23    2    1    2    0    0  0.00000000000E+00  0.00000000000E+00 -0.17943489453E+03  0.20224583619E+03  0.93308610954E+02 0.  0.
          2    1    3    3  502    0 -0.32438781206E+02 -0.15297235213E+02 -0.25042385326E+02  0.43742439280E+02  0.00000000000E+00 0. -1.
         -2    1    3    3    0  502  0.32438781206E+02  0.15297235213E+02 -0.15439250921E+03  0.15850339691E+03  0.00000000000E+00 0.  1.
<mgrwt>
<rscale>  0 0.93308611E+02</rscale>
<asrwt>0</asrwt>
<pdfrwt beam="1">  1        4 0.17546879E-02 0.93308611E+02</pdfrwt>
<pdfrwt beam="2">  1       -4 0.29360055E-01 0.93308611E+02</pdfrwt>
<totfact> 0.20011468E+04</totfact>
</mgrwt>
</event>
<event>
 5    1  0.3862918E+001  0.9190824E+02  0.7546771E-02  0.1298295E+00
         -1   -1    0    0    0  501 -0.00000000000E+00  0.00000000000E+00  0.10887125336E+03  0.10887125336E+03  0.00000000000E+00 0.  1.
          1   -1    0    0  501    0  0.00000000000E+00 -0.00000000000E+00 -0.19397048427E+02  0.19397048427E+02  0.00000000000E+00 0. -1.
         23    2    1    2    0    0  0.00000000000E+00  0.00000000000E+00  0.89474204936E+02  0.12826830179E+03  0.91908236276E+02 0.  0.
          2    1    3    3  502    0  0.17482744591E+02 -0.32863892622E+02  0.71306051327E+01  0.37901547808E+02  0.00000000000E+00 0. -1.
         -2    1    3    3    0  502 -0.17482744591E+02  0.32863892622E+02  0.82343599803E+02  0.90366753982E+02  0.00000000000E+00 0.  1.
<mgrwt>
<rscale>  0 0.91908236E+02</rscale>
<asrwt>0</asrwt>
<pdfrwt beam="2">  1        1 0.29841613E-02 0.91908236E+02</pdfrwt>
<pdfrwt beam="1">  1       -1 0.16749423E-01 0.91908236E+02</pdfrwt>
<totfact> 0.78432295E+04</totfact>
</mgrwt>
</event>
<event>
 5    1  0.3862918E+001  0.9138653E+02  0.7546771E-02  0.1299528E+00
          1   -1    0    0  501    0  0.00000000000E+00  0.00000000000E+00  0.10032154891E+04  0.10032154891E+04  0.00000000000E+00 0. -1.
         -1   -1    0    0    0  501 -0.00000000000E+00 -0.00000000000E+00 -0.20811826018E+01  0.20811826018E+01  0.00000000000E+00 0.  1.
         23    2    1    2    0    0  0.00000000000E+00  0.00000000000E+00  0.10011343065E+04  0.10052966717E+04  0.91386533399E+02 0.  0.
          2    1    3    3  502    0  0.81705953809E+00 -0.32204461877E+02  0.14409700506E+03  0.14765412902E+03  0.00000000000E+00 0. -1.
         -2    1    3    3    0  502 -0.81705953809E+00  0.32204461877E+02  0.85703730139E+03  0.85764254263E+03  0.00000000000E+00 0.  1.
<mgrwt>
<rscale>  0 0.91386533E+02</rscale>
<asrwt>0</asrwt>
<pdfrwt beam="1">  1        1 0.15434046E+00 0.91386533E+02</pdfrwt>
<pdfrwt beam="2">  1       -1 0.32018274E-03 0.91386533E+02</pdfrwt>
<totfact> 0.13507580E+05</totfact>
</mgrwt>
</event>
<event>
 5    1  0.3862918E+001  0.9297330E+02  0.7546771E-02  0.1295807E+00
          1   -1    0    0  501    0  0.00000000000E+00  0.00000000000E+00  0.37050477053E+03  0.37050477053E+03  0.00000000000E+00 0. -1.
         -1   -1    0    0    0  501 -0.00000000000E+00 -0.00000000000E+00 -0.58326063457E+01  0.58326063457E+01  0.00000000000E+00 0.  1.
         23    2    1    2    0    0  0.00000000000E+00  0.00000000000E+00  0.36467216419E+03  0.37633737688E+03  0.92973296720E+02 0.  0.
          2    1    3    3  502    0  0.27102945530E+02  0.36188724282E+02  0.22608512235E+03  0.23056165329E+03  0.00000000000E+00 0. -1.
         -2    1    3    3    0  502 -0.27102945530E+02 -0.36188724282E+02  0.13858704184E+03  0.14577572359E+03  0.00000000000E+00 0.  1.
<mgrwt>
<rscale>  0 0.92973297E+02</rscale>
<asrwt>0</asrwt>
<pdfrwt beam="1">  1        1 0.57000716E-01 0.92973297E+02</pdfrwt>
<pdfrwt beam="2">  1       -1 0.89732434E-03 0.92973297E+02</pdfrwt>
<totfact> 0.12641842E+05</totfact>
</mgrwt>
</event>
<event>
 5    1  0.3862918E+001  0.8839711E+02  0.7546771E-02  0.1306780E+00
         -1   -1    0    0    0  501 -0.00000000000E+00  0.00000000000E+00  0.16239500554E+02  0.16239500554E+02  0.00000000000E+00 0.  1.
          1   -1    0    0  501    0  0.00000000000E+00 -0.00000000000E+00 -0.12029385682E+03  0.12029385682E+03  0.00000000000E+00 0. -1.
         23    2    1    2    0    0  0.00000000000E+00  0.00000000000E+00 -0.10405435626E+03  0.13653335737E+03  0.88397107521E+02 0.  0.
          2    1    3    3  502    0 -0.18856558268E+02 -0.39969569338E+02 -0.51080217123E+02  0.67544983856E+02  0.00000000000E+00 0. -1.
         -2    1    3    3    0  502  0.18856558268E+02  0.39969569338E+02 -0.52974139141E+02  0.68988373517E+02  0.00000000000E+00 0.  1.
<mgrwt>
<rscale>  0 0.88397108E+02</rscale>
<asrwt>0</asrwt>
<pdfrwt beam="2">  1        1 0.18506747E-01 0.88397108E+02</pdfrwt>
<pdfrwt beam="1">  1       -1 0.24983848E-02 0.88397108E+02</pdfrwt>
<totfact> 0.11719935E+05</totfact>
</mgrwt>
</event>
<event>
 5    1  0.3862918E+001  0.9328558E+02  0.7546771E-02  0.1295085E+00
         -2   -1    0    0    0  501 -0.00000000000E+00  0.00000000000E+00  0.51872140871E+01  0.51872140871E+01  0.00000000000E+00 0.  1.
          2   -1    0    0  501    0  0.00000000000E+00 -0.00000000000E+00 -0.41940623043E+03  0.41940623043E+03  0.00000000000E+00 0. -1.
         23    2    1    2    0    0  0.00000000000E+00  0.00000000000E+00 -0.41421901634E+03  0.42459344451E+03  0.93285581023E+02 0.  0.
          2    1    3    3  502    0  0.30297511456E+02  0.35461489541E+02 -0.20571800217E+03  0.21093921602E+03  0.00000000000E+00 0. -1.
         -2    1    3    3    0  502 -0.30297511456E+02 -0.35461489541E+02 -0.20850101417E+03  0.21365422849E+03  0.00000000000E+00 0.  1.
<mgrwt>
<rscale>  0 0.93285581E+02</rscale>
<asrwt>0</asrwt>
<pdfrwt beam="2">  1        2 0.64524044E-01 0.93285581E+02</pdfrwt>
<pdfrwt beam="1">  1       -2 0.79803283E-03 0.93285581E+02</pdfrwt>
<totfact> 0.19104175E+05</totfact>
</mgrwt>
</event>
<event>
 5    1  0.3862918E+001  0.9321477E+02  0.7546771E-02  0.1295248E+00
          4   -1    0    0  501    0  0.00000000000E+00  0.00000000000E+00  0.26094662167E+01  0.26094662167E+01  0.00000000000E+00 0. -1.
         -4   -1    0    0    0  501 -0.00000000000E+00 -0.00000000000E+00 -0.83244928897E+03  0.83244928897E+03  0.00000000000E+00 0.  1.
         23    2    1    2    0    0  0.00000000000E+00  0.00000000000E+00 -0.82983982276E+03  0.83505875519E+03  0.93214769146E+02 0.  0.
          2    1    3    3  502    0  0.37907312392E+02 -0.19353867268E+02 -0.58506227887E+03  0.58660839294E+03  0.00000000000E+00 0. -1.
         -2    1    3    3    0  502 -0.37907312392E+02  0.19353867268E+02 -0.24477754389E+03  0.24845036225E+03  0.00000000000E+00 0.  1.
<mgrwt>
<rscale>  0 0.93214769E+02</rscale>
<asrwt>0</asrwt>
<pdfrwt beam="1">  1        4 0.40145600E-03 0.93214769E+02</pdfrwt>
<pdfrwt beam="2">  1       -4 0.12806923E+00 0.93214769E+02</pdfrwt>
<totfact> 0.80694705E+03</totfact>
</mgrwt>
</event>
<event>
 5    1  0.3862918E+001  0.7387112E+02  0.7546771E-02  0.1347403E+00
         -1   -1    0    0    0  501 -0.00000000000E+00  0.00000000000E+00  0.15540837716E+01  0.15540837716E+01  0.00000000000E+00 0.  1.
          1   -1    0    0  501    0  0.00000000000E+00 -0.00000000000E+00 -0.87783922093E+03  0.87783922093E+03  0.00000000000E+00 0. -1.
         23    2    1    2    0    0  0.00000000000E+00  0.00000000000E+00 -0.87628513716E+03  0.87939330471E+03  0.73871122566E+02 0.  0.
          2    1    3    3  502    0 -0.27409134742E+02 -0.15048110319E+02 -0.67218775853E+03  0.67291462238E+03  0.00000000000E+00 0. -1.
         -2    1    3    3    0  502  0.27409134742E+02  0.15048110319E+02 -0.20409737864E+03  0.20647868233E+03  0.00000000000E+00 0.  1.
<mgrwt>
<rscale>  0 0.73871123E+02</rscale>
<asrwt>0</asrwt>
<pdfrwt beam="2">  1        1 0.13505239E+00 0.73871123E+02</pdfrwt>
<pdfrwt beam="1">  1       -1 0.23908946E-03 0.73871123E+02</pdfrwt>
<totfact> 0.24237142E+05</totfact>
</mgrwt>
</event>
<event>
 5    1  0.3862918E+001  0.9120050E+02  0.7546771E-02  0.1299970E+00
          1   -1    0    0  501    0  0.00000000000E+00  0.00000000000E+00  0.23278953029E+03  0.23278953029E+03  0.00000000000E+00 0. -1.
         -1   -1    0    0    0  501 -0.00000000000E+00 -0.00000000000E+00 -0.89324587241E+01  0.89324587241E+01  0.00000000000E+00 0.  1.
         23    2    1    2    0    0  0.00000000000E+00  0.00000000000E+00  0.22385707157E+03  0.24172198901E+03  0.91200501550E+02 0.  0.
          2    1    3    3  502    0  0.13043892754E+02  0.39623480238E+02  0.63112853128E+02  0.75653126534E+02  0.00000000000E+00 0.  1.
         -2    1    3    3    0  502 -0.13043892754E+02 -0.39623480238E+02  0.16074421844E+03  0.16606886248E+03  0.00000000000E+00 0. -1.
<mgrwt>
<rscale>  0 0.91200502E+02</rscale>
<asrwt>0</asrwt>
<pdfrwt beam="1">  1        1 0.35813769E-01 0.91200502E+02</pdfrwt>
<pdfrwt beam="2">  1       -1 0.13742246E-02 0.91200502E+02</pdfrwt>
<totfact> 0.12187699E+05</totfact>
</mgrwt>
</event>
<event>
 5    1  0.3862918E+001  0.7823074E+02  0.7546771E-02  0.1334149E+00
         -1   -1    0    0    0  501 -0.00000000000E+00  0.00000000000E+00  0.12332175760E+01  0.12332175760E+01  0.00000000000E+00 0.  1.
          1   -1    0    0  501    0  0.00000000000E+00 -0.00000000000E+00 -0.12406669953E+04  0.12406669953E+04  0.00000000000E+00 0. -1.
         23    2    1    2    0    0  0.00000000000E+00  0.00000000000E+00 -0.12394337778E+04  0.12419002129E+04  0.78230744457E+02 0.  0.
          2    1    3    3  502    0  0.13014564405E+02  0.15356567794E+02 -0.11521299297E+04  0.11523057659E+04  0.00000000000E+00 0. -1.
         -2    1    3    3    0  502 -0.13014564405E+02 -0.15356567794E+02 -0.87303848003E+02  0.89594447022E+02  0.00000000000E+00 0.  1.
<mgrwt>
<rscale>  0 0.78230744E+02</rscale>
<asrwt>0</asrwt>
<pdfrwt beam="2">  1        1 0.19087233E+00 0.78230744E+02</pdfrwt>
<pdfrwt beam="1">  1       -1 0.18972530E-03 0.78230744E+02</pdfrwt>
<totfact> 0.18721115E+05</totfact>
</mgrwt>
</event>
<event>
 5    1  0.3862918E+001  0.9220870E+02  0.7546771E-02  0.1297589E+00
         -4   -1    0    0    0  501 -0.00000000000E+00  0.00000000000E+00  0.90965715131E+02  0.90965715131E+02  0.00000000000E+00 0.  1.
          4   -1    0    0  501    0  0.00000000000E+00 -0.00000000000E+00 -0.23367166930E+02  0.23367166930E+02  0.00000000000E+00 0. -1.
         23    2    1    2    0    0  0.00000000000E+00  0.00000000000E+00  0.67598548202E+02  0.11433288206E+03  0.92208699164E+02 0.  0.
          2    1    3    3  502    0  0.69440281051E+01 -0.40250927117E+02  0.72850942476E+01  0.41490110368E+02  0.00000000000E+00 0. -1.
         -2    1    3    3    0  502 -0.69440281051E+01  0.40250927117E+02  0.60313453954E+02  0.72842771694E+02  0.00000000000E+00 0.  1.
<mgrwt>
<rscale>  0 0.92208699E+02</rscale>
<asrwt>0</asrwt>
<pdfrwt beam="2">  1        4 0.35949488E-02 0.92208699E+02</pdfrwt>
<pdfrwt beam="1">  1       -4 0.13994725E-01 0.92208699E+02</pdfrwt>
<totfact> 0.24828973E+04</totfact>
</mgrwt>
</event>
<event>
 5    1  0.3862918E+001  0.9082610E+02  0.7546771E-02  0.1300863E+00
          1   -1    0    0  501    0  0.00000000000E+00  0.00000000000E+00  0.41059480416E+02  0.41059480416E+02  0.00000000000E+00 0. -1.
         -1   -1    0    0    0  501 -0.00000000000E+00 -0.00000000000E+00 -0.50228228485E+02  0.50228228485E+02  0.00000000000E+00 0.  1.
         23    2    1    2    0    0  0.00000000000E+00  0.00000000000E+00 -0.91687480697E+01  0.91287708901E+02  0.90826096774E+02 0.  0.
          2    1    3    3  502    0 -0.23777796536E+02 -0.90756518177E+01  0.33217867009E+02  0.41847075796E+02  0.00000000000E+00 0. -1.
         -2    1    3    3    0  502  0.23777796536E+02  0.90756518177E+01 -0.42386615079E+02  0.49440633105E+02  0.00000000000E+00 0.  1.
<mgrwt>
<rscale>  0 0.90826097E+02</rscale>
<asrwt>0</asrwt>
<pdfrwt beam="1">  1        1 0.63168432E-02 0.90826097E+02</pdfrwt>
<pdfrwt beam="2">  1       -1 0.77274197E-02 0.90826097E+02</pdfrwt>
<totfact> 0.92018689E+04</totfact>
</mgrwt>
</event>
<event>
 5    1  0.3862918E+001  0.9057450E+02  0.7546771E-02  0.1301466E+00
          1   -1    0    0  501    0  0.00000000000E+00  0.00000000000E+00  0.83595490041E+03  0.83595490041E+03  0.00000000000E+00 0. -1.
         -1   -1    0    0    0  501 -0.00000000000E+00 -0.00000000000E+00 -0.24534041571E+01  0.24534041571E+01  0.00000000000E+00 0.  1.
         23    2    1    2    0    0  0.00000000000E+00  0.00000000000E+00  0.83350149625E+03  0.83840830456E+03  0.90574504752E+02 0.  0.
          2    1    3    3  502    0 -0.19345360263E+02 -0.63857640926E+01  0.79114560592E+03  0.79140785358E+03  0.00000000000E+00 0. -1.
         -2    1    3    3    0  502  0.19345360263E+02  0.63857640926E+01  0.42355890328E+02  0.47000450979E+02  0.00000000000E+00 0.  1.
<mgrwt>
<rscale>  0 0.90574505E+02</rscale>
<asrwt>0</asrwt>
<pdfrwt beam="1">  1        1 0.12860822E+00 0.90574505E+02</pdfrwt>
<pdfrwt beam="2">  1       -1 0.37744746E-03 0.90574505E+02</pdfrwt>
<totfact> 0.14315229E+05</totfact>
</mgrwt>
</event>
<event>
 5    1  0.3862918E+001  0.9103113E+02  0.7546771E-02  0.1300374E+00
          2   -1    0    0  501    0  0.00000000000E+00  0.00000000000E+00  0.53657608694E+02  0.53657608694E+02  0.00000000000E+00 0. -1.
         -2   -1    0    0    0  501 -0.00000000000E+00 -0.00000000000E+00 -0.38608998909E+02  0.38608998909E+02  0.00000000000E+00 0.  1.
         23    2    1    2    0    0  0.00000000000E+00  0.00000000000E+00  0.15048609784E+02  0.92266607603E+02  0.91031127765E+02 0.  0.
          2    1    3    3  502    0 -0.14018718570E+02  0.42076784734E+02  0.17894800126E+02  0.47824723266E+02  0.00000000000E+00 0. -1.
         -2    1    3    3    0  502  0.14018718570E+02 -0.42076784734E+02 -0.28461903421E+01  0.44441884337E+02  0.00000000000E+00 0.  1.
<mgrwt>
<rscale>  0 0.91031128E+02</rscale>
<asrwt>0</asrwt>
<pdfrwt beam="1">  1        2 0.82550168E-02 0.91031128E+02</pdfrwt>
<pdfrwt beam="2">  1       -2 0.59398460E-02 0.91031128E+02</pdfrwt>
<totfact> 0.10343615E+05</totfact>
</mgrwt>
</event>
<event>
 5    1  0.3862918E+001  0.9250615E+02  0.7546771E-02  0.1296894E+00
          2   -1    0    0  501    0  0.00000000000E+00  0.00000000000E+00  0.19143810475E+03  0.19143810475E+03  0.00000000000E+00 0. -1.
         -2   -1    0    0    0  501 -0.00000000000E+00 -0.00000000000E+00 -0.11175136063E+02  0.11175136063E+02  0.00000000000E+00 0.  1.
         23    2    1    2    0    0  0.00000000000E+00  0.00000000000E+00  0.18026296869E+03  0.20261324081E+03  0.92506148297E+02 0.  0.
          2    1    3    3  502    0  0.23975177194E+02  0.20469053640E+02  0.16426341470E+03  0.16726105550E+03  0.00000000000E+00 0. -1.
         -2    1    3    3    0  502 -0.23975177194E+02 -0.20469053640E+02  0.15999553984E+02  0.35352185308E+02  0.00000000000E+00 0.  1.
<mgrwt>
<rscale>  0 0.92506148E+02</rscale>
<asrwt>0</asrwt>
<pdfrwt beam="1">  1        2 0.29452014E-01 0.92506148E+02</pdfrwt>
<pdfrwt beam="2">  1       -2 0.17192518E-02 0.92506148E+02</pdfrwt>
<totfact> 0.14642469E+05</totfact>
</mgrwt>
</event>
<event>
 5    1  0.3862918E+001  0.9320682E+02  0.7546771E-02  0.1295267E+00
          1   -1    0    0  501    0  0.00000000000E+00  0.00000000000E+00  0.19778994060E+04  0.19778994060E+04  0.00000000000E+00 0. -1.
         -1   -1    0    0    0  501 -0.00000000000E+00 -0.00000000000E+00 -0.10980730452E+01  0.10980730452E+01  0.00000000000E+00 0.  1.
         23    2    1    2    0    0  0.00000000000E+00  0.00000000000E+00  0.19768013329E+04  0.19789974790E+04  0.93206824294E+02 0.  0.
          2    1    3    3  502    0 -0.49689715523E+01 -0.25466262644E+02  0.18103567723E+04  0.18105426989E+04  0.00000000000E+00 0. -1.
         -2    1    3    3    0  502  0.49689715523E+01  0.25466262644E+02  0.16644456059E+03  0.16845478017E+03  0.00000000000E+00 0.  1.
<mgrwt>
<rscale>  0 0.93206824E+02</rscale>
<asrwt>0</asrwt>
<pdfrwt beam="1">  1        1 0.30428937E+00 0.93206824E+02</pdfrwt>
<pdfrwt beam="2">  1       -1 0.16893590E-03 0.93206824E+02</pdfrwt>
<totfact> 0.76460601E+04</totfact>
</mgrwt>
</event>
<event>
 5    1  0.3862918E+001  0.8845749E+02  0.7546771E-02  0.1306631E+00
         -2   -1    0    0    0  501 -0.00000000000E+00  0.00000000000E+00  0.38660828864E+01  0.38660828864E+01  0.00000000000E+00 0.  1.
          2   -1    0    0  501    0  0.00000000000E+00 -0.00000000000E+00 -0.50598552286E+03  0.50598552286E+03  0.00000000000E+00 0. -1.
         23    2    1    2    0    0  0.00000000000E+00  0.00000000000E+00 -0.50211943998E+03  0.50985160575E+03  0.88457491955E+02 0.  0.
          2    1    3    3  502    0  0.66700105013E+01 -0.33973295473E+02 -0.92423330236E+02  0.98695216790E+02  0.00000000000E+00 0.  1.
         -2    1    3    3    0  502 -0.66700105013E+01  0.33973295473E+02 -0.40969610974E+03  0.41115638896E+03  0.00000000000E+00 0. -1.
<mgrwt>
<rscale>  0 0.88457492E+02</rscale>
<asrwt>0</asrwt>
<pdfrwt beam="2">  1        2 0.77843914E-01 0.88457492E+02</pdfrwt>
<pdfrwt beam="1">  1       -2 0.59478208E-03 0.88457492E+02</pdfrwt>
<totfact> 0.23433898E+05</totfact>
</mgrwt>
</event>
<event>
 5    1  0.3862918E+001  0.9501665E+02  0.7546771E-02  0.1291139E+00
         -4   -1    0    0    0  501 -0.00000000000E+00  0.00000000000E+00  0.14982475689E+03  0.14982475689E+03  0.00000000000E+00 0. -1.
          4   -1    0    0  501    0  0.00000000000E+00 -0.00000000000E+00 -0.15064538394E+02  0.15064538394E+02  0.00000000000E+00 0.  1.
         23    2    1    2    0    0  0.00000000000E+00  0.00000000000E+00  0.13476021849E+03  0.16488929528E+03  0.95016647016E+02 0.  0.
          2    1    3    3  502    0 -0.43293547117E+02 -0.18119918461E+02  0.54583205083E+02  0.71986032980E+02  0.00000000000E+00 0. -1.
         -2    1    3    3    0  502  0.43293547117E+02  0.18119918461E+02  0.80177013410E+02  0.92903262302E+02  0.00000000000E+00 0.  1.
<mgrwt>
<rscale>  0 0.95016647E+02</rscale>
<asrwt>0</asrwt>
<pdfrwt beam="2">  1        4 0.23176214E-02 0.95016647E+02</pdfrwt>
<pdfrwt beam="1">  1       -4 0.23049962E-01 0.95016647E+02</pdfrwt>
<totfact> 0.20529886E+04</totfact>
</mgrwt>
</event>
<event>
 5    1  0.3862918E+001  0.8963024E+02  0.7546771E-02  0.1303750E+00
         -2   -1    0    0    0  501 -0.00000000000E+00  0.00000000000E+00  0.82050806732E+00  0.82050806732E+00  0.00000000000E+00 0.  1.
          2   -1    0    0  501    0  0.00000000000E+00 -0.00000000000E+00 -0.24477457237E+04  0.24477457237E+04  0.00000000000E+00 0. -1.
         23    2    1    2    0    0  0.00000000000E+00  0.00000000000E+00 -0.24469252157E+04  0.24485662318E+04  0.89630242956E+02 0.  0.
          2    1    3    3  502    0  0.23092053307E+02  0.30285010858E+02 -0.57816088400E+03  0.57941386987E+03  0.00000000000E+00 0. -1.
         -2    1    3    3    0  502 -0.23092053307E+02 -0.30285010858E+02 -0.18687643317E+04  0.18691523619E+04  0.00000000000E+00 0.  1.
<mgrwt>
<rscale>  0 0.89630243E+02</rscale>
<asrwt>0</asrwt>
<pdfrwt beam="2">  1        2 0.37658003E+00 0.89630243E+02</pdfrwt>
<pdfrwt beam="1">  1       -2 0.12623075E-03 0.89630243E+02</pdfrwt>
<totfact> 0.16079578E+05</totfact>
</mgrwt>
</event>
<event>
 5    1  0.3862918E+001  0.8649636E+02  0.7546771E-02  0.1311565E+00
         -1   -1    0    0    0  501 -0.00000000000E+00  0.00000000000E+00  0.24148910296E+01  0.24148910296E+01  0.00000000000E+00 0.  1.
          1   -1    0    0  501    0  0.00000000000E+00 -0.00000000000E+00 -0.77452986721E+03  0.77452986721E+03  0.00000000000E+00 0. -1.
         23    2    1    2    0    0  0.00000000000E+00  0.00000000000E+00 -0.77211497618E+03  0.77694475824E+03  0.86496363587E+02 0.  0.
          2    1    3    3  502    0 -0.28611083317E+02  0.13777517871E+02 -0.64977786800E+03  0.65055337354E+03  0.00000000000E+00 0. -1.
         -2    1    3    3    0  502  0.28611083317E+02 -0.13777517871E+02 -0.12233710818E+03  0.12639138470E+03  0.00000000000E+00 0.  1.
<mgrwt>
<rscale>  0 0.86496364E+02</rscale>
<asrwt>0</asrwt>
<pdfrwt beam="2">  1        1 0.11915830E+00 0.86496364E+02</pdfrwt>
<pdfrwt beam="1">  1       -1 0.37152214E-03 0.86496364E+02</pdfrwt>
<totfact> 0.16276954E+05</totfact>
</mgrwt>
</event>
<event>
 5    1  0.3862918E+001  0.9245941E+02  0.7546771E-02  0.1297003E+00
          2   -1    0    0  501    0  0.00000000000E+00  0.00000000000E+00  0.99799626363E+03  0.99799626363E+03  0.00000000000E+00 0. -1.
         -2   -1    0    0    0  501 -0.00000000000E+00 -0.00000000000E+00 -0.21414765945E+01  0.21414765945E+01  0.00000000000E+00 0.  1.
         23    2    1    2    0    0  0.00000000000E+00  0.00000000000E+00  0.99585478704E+03  0.10001377402E+04  0.92459410337E+02 0.  0.
          2    1    3    3  502    0 -0.30296150957E+01 -0.44434345846E+02  0.63198721083E+03  0.63355459458E+03  0.00000000000E+00 0. -1.
         -2    1    3    3    0  502  0.30296150957E+01  0.44434345846E+02  0.36386757620E+03  0.36658314565E+03  0.00000000000E+00 0.  1.
<mgrwt>
<rscale>  0 0.92459410E+02</rscale>
<asrwt>0</asrwt>
<pdfrwt beam="1">  1        2 0.15353751E+00 0.92459410E+02</pdfrwt>
<pdfrwt beam="2">  1       -2 0.32945874E-03 0.92459410E+02</pdfrwt>
<totfact> 0.24095761E+05</totfact>
</mgrwt>
</event>
<event>
 5    1  0.3862918E+001  0.9042324E+02  0.7546771E-02  0.1301830E+00
          1   -1    0    0  501    0  0.00000000000E+00  0.00000000000E+00  0.28958567893E+03  0.28958567893E+03  0.00000000000E+00 0. -1.
         -1   -1    0    0    0  501 -0.00000000000E+00 -0.00000000000E+00 -0.70586732370E+01  0.70586732370E+01  0.00000000000E+00 0.  1.
         23    2    1    2    0    0  0.00000000000E+00  0.00000000000E+00  0.28252700570E+03  0.29664435217E+03  0.90423242183E+02 0.  0.
          2    1    3    3  502    0  0.21616531330E+02 -0.34895929191E+02  0.20343021442E+03  0.20753036510E+03  0.00000000000E+00 0. -1.
         -2    1    3    3    0  502 -0.21616531330E+02  0.34895929191E+02  0.79096791276E+02  0.89113987067E+02  0.00000000000E+00 0.  1.
<mgrwt>
<rscale>  0 0.90423242E+02</rscale>
<asrwt>0</asrwt>
<pdfrwt beam="1">  1        1 0.44551634E-01 0.90423242E+02</pdfrwt>
<pdfrwt beam="2">  1       -1 0.10859500E-02 0.90423242E+02</pdfrwt>
<totfact> 0.13010228E+05</totfact>
</mgrwt>
</event>
<event>
 5    1  0.3862918E+001  0.9201612E+02  0.7546771E-02  0.1298042E+00
          1   -1    0    0  501    0  0.00000000000E+00  0.00000000000E+00  0.55549600436E+02  0.55549600436E+02  0.00000000000E+00 0. -1.
         -1   -1    0    0    0  501 -0.00000000000E+00 -0.00000000000E+00 -0.38105435388E+02  0.38105435388E+02  0.00000000000E+00 0.  1.
         23    2    1    2    0    0  0.00000000000E+00  0.00000000000E+00  0.17444165049E+02  0.93655035824E+02  0.92016122723E+02 0.  0.
          2    1    3    3  502    0 -0.29179473453E+02 -0.16093796024E+02 -0.23564994771E+02  0.40813734453E+02  0.00000000000E+00 0.  1.
         -2    1    3    3    0  502  0.29179473453E+02  0.16093796024E+02  0.41009159820E+02  0.52841301371E+02  0.00000000000E+00 0. -1.
<mgrwt>
<rscale>  0 0.92016123E+02</rscale>
<asrwt>0</asrwt>
<pdfrwt beam="1">  1        1 0.85460923E-02 0.92016123E+02</pdfrwt>
<pdfrwt beam="2">  1       -1 0.58623747E-02 0.92016123E+02</pdfrwt>
<totfact> 0.92855623E+04</totfact>
</mgrwt>
</event>
<event>
 5    1  0.3862918E+001  0.9051204E+02  0.7546771E-02  0.1301616E+00
          1   -1    0    0  501    0  0.00000000000E+00  0.00000000000E+00  0.37118007296E+03  0.37118007296E+03  0.00000000000E+00 0. -1.
         -1   -1    0    0    0  501 -0.00000000000E+00 -0.00000000000E+00 -0.55178265174E+01  0.55178265174E+01  0.00000000000E+00 0.  1.
         23    2    1    2    0    0  0.00000000000E+00  0.00000000000E+00  0.36566224644E+03  0.37669789947E+03  0.90512037858E+02 0.  0.
          2    1    3    3  502    0  0.33994920901E+02 -0.10770772225E+02  0.29880005691E+03  0.30092048483E+03  0.00000000000E+00 0. -1.
         -2    1    3    3    0  502 -0.33994920901E+02  0.10770772225E+02  0.66862189532E+02  0.75777414646E+02  0.00000000000E+00 0.  1.
<mgrwt>
<rscale>  0 0.90512038E+02</rscale>
<asrwt>0</asrwt>
<pdfrwt beam="1">  1        1 0.57104607E-01 0.90512038E+02</pdfrwt>
<pdfrwt beam="2">  1       -1 0.84889668E-03 0.90512038E+02</pdfrwt>
<totfact> 0.13581212E+05</totfact>
</mgrwt>
</event>
<event>
 5    1  0.3862918E+001  0.8989291E+02  0.7546771E-02  0.1303111E+00
         -1   -1    0    0    0  501 -0.00000000000E+00  0.00000000000E+00  0.10428033171E+02  0.10428033171E+02  0.00000000000E+00 0.  1.
          1   -1    0    0  501    0  0.00000000000E+00 -0.00000000000E+00 -0.19372625376E+03  0.19372625376E+03  0.00000000000E+00 0. -1.
         23    2    1    2    0    0  0.00000000000E+00  0.00000000000E+00 -0.18329822059E+03  0.20415428694E+03  0.89892909627E+02 0.  0.
          2    1    3    3  502    0 -0.42850105979E+02 -0.25798224152E+01 -0.61400468691E+02  0.74918653362E+02  0.00000000000E+00 0. -1.
         -2    1    3    3    0  502  0.42850105979E+02  0.25798224152E+01 -0.12189775190E+03  0.12923563357E+03  0.00000000000E+00 0.  1.
<mgrwt>
<rscale>  0 0.89892910E+02</rscale>
<asrwt>0</asrwt>
<pdfrwt beam="2">  1        1 0.29804040E-01 0.89892910E+02</pdfrwt>
<pdfrwt beam="1">  1       -1 0.16043128E-02 0.89892910E+02</pdfrwt>
<totfact> 0.12223576E+05</totfact>
</mgrwt>
</event>
<event>
 5    1  0.3862918E+001  0.9034657E+02  0.7546771E-02  0.1302015E+00
          2   -1    0    0  501    0  0.00000000000E+00  0.00000000000E+00  0.76906354019E+03  0.76906354019E+03  0.00000000000E+00 0.  1.
         -2   -1    0    0    0  501 -0.00000000000E+00 -0.00000000000E+00 -0.26533899797E+01  0.26533899797E+01  0.00000000000E+00 0. -1.
         23    2    1    2    0    0  0.00000000000E+00  0.00000000000E+00  0.76641015021E+03  0.77171693017E+03  0.90346565875E+02 0.  0.
          2    1    3    3  502    0 -0.34810798855E+02 -0.18282642414E+02  0.19324422273E+03  0.19720389537E+03  0.00000000000E+00 0. -1.
         -2    1    3    3    0  502  0.34810798855E+02  0.18282642414E+02  0.57316592748E+03  0.57451303480E+03  0.00000000000E+00 0.  1.
<mgrwt>
<rscale>  0 0.90346566E+02</rscale>
<asrwt>0</asrwt>
<pdfrwt beam="1">  1        2 0.11831729E+00 0.90346566E+02</pdfrwt>
<pdfrwt beam="2">  1       -2 0.40821446E-03 0.90346566E+02</pdfrwt>
<totfact> 0.24787029E+05</totfact>
</mgrwt>
</event>
<event>
 5    1  0.3862918E+001  0.9163329E+02  0.7546771E-02  0.1298944E+00
          4   -1    0    0  501    0  0.00000000000E+00  0.00000000000E+00  0.89043719657E+01  0.89043719657E+01  0.00000000000E+00 0. -1.
         -4   -1    0    0    0  501 -0.00000000000E+00 -0.00000000000E+00 -0.23574544876E+03  0.23574544876E+03  0.00000000000E+00 0.  1.
         23    2    1    2    0    0  0.00000000000E+00  0.00000000000E+00 -0.22684107679E+03  0.24464982072E+03  0.91633294494E+02 0.  0.
          2    1    3    3  502    0  0.33751259536E+02  0.92107599212E+01 -0.34436346263E+02  0.49090198233E+02  0.00000000000E+00 0. -1.
         -2    1    3    3    0  502 -0.33751259536E+02 -0.92107599212E+01 -0.19240473053E+03  0.19555962249E+03  0.00000000000E+00 0.  1.
<mgrwt>
<rscale>  0 0.91633294E+02</rscale>
<asrwt>0</asrwt>
<pdfrwt beam="1">  1        4 0.13699036E-02 0.91633294E+02</pdfrwt>
<pdfrwt beam="2">  1       -4 0.36268525E-01 0.91633294E+02</pdfrwt>
<totfact> 0.19394230E+04</totfact>
</mgrwt>
</event>
<event>
 5    1  0.3862918E+001  0.6013817E+02  0.7546771E-02  0.1397253E+00
          2   -1    0    0  501    0  0.00000000000E+00  0.00000000000E+00  0.22141484685E+03  0.22141484685E+03  0.00000000000E+00 0. -1.
         -2   -1    0    0    0  501 -0.00000000000E+00 -0.00000000000E+00 -0.40835105682E+01  0.40835105682E+01  0.00000000000E+00 0.  1.
         23    2    1    2    0    0  0.00000000000E+00  0.00000000000E+00  0.21733133628E+03  0.22549835742E+03  0.60138169812E+02 0.  0.
          2    1    3    3  502    0  0.24870396438E+02 -0.31430287586E+01  0.17092992702E+03  0.17275837230E+03  0.00000000000E+00 0. -1.
         -2    1    3    3    0  502 -0.24870396438E+02  0.31430287586E+01  0.46401409262E+02  0.52739985119E+02  0.00000000000E+00 0.  1.
<mgrwt>
<rscale>  0 0.60138170E+02</rscale>
<asrwt>0</asrwt>
<pdfrwt beam="1">  1        2 0.34063813E-01 0.60138170E+02</pdfrwt>
<pdfrwt beam="2">  1       -2 0.62823257E-03 0.60138170E+02</pdfrwt>
<totfact> 0.47761416E+05</totfact>
</mgrwt>
</event>
<event>
 5    1  0.3862918E+001  0.8674015E+02  0.7546771E-02  0.1310944E+00
         -2   -1    0    0    0  501 -0.00000000000E+00  0.00000000000E+00  0.12158633865E+01  0.12158633865E+01  0.00000000000E+00 0.  1.
          2   -1    0    0  501    0  0.00000000000E+00 -0.00000000000E+00 -0.15470188586E+04  0.15470188586E+04  0.00000000000E+00 0. -1.
         23    2    1    2    0    0  0.00000000000E+00  0.00000000000E+00 -0.15458029952E+04  0.15482347220E+04  0.86740154217E+02 0.  0.
          2    1    3    3  502    0  0.54417592126E+01 -0.37975549220E+02 -0.11339694472E+04  0.11346182011E+04  0.00000000000E+00 0. -1.
         -2    1    3    3    0  502 -0.54417592126E+01  0.37975549220E+02 -0.41183354807E+03  0.41361652094E+03  0.00000000000E+00 0.  1.
<mgrwt>
<rscale>  0 0.86740154E+02</rscale>
<asrwt>0</asrwt>
<pdfrwt beam="2">  1        2 0.23800274E+00 0.86740154E+02</pdfrwt>
<pdfrwt beam="1">  1       -2 0.18705603E-03 0.86740154E+02</pdfrwt>
<totfact> 0.26573297E+05</totfact>
</mgrwt>
</event>
<event>
 5    1  0.3862918E+001  0.8747142E+02  0.7546771E-02  0.1309093E+00
          1   -1    0    0  501    0  0.00000000000E+00  0.00000000000E+00  0.11791152270E+02  0.11791152270E+02  0.00000000000E+00 0. -1.
         -1   -1    0    0    0  501 -0.00000000000E+00 -0.00000000000E+00 -0.16222436471E+03  0.16222436471E+03  0.00000000000E+00 0.  1.
         23    2    1    2    0    0  0.00000000000E+00  0.00000000000E+00 -0.15043321244E+03  0.17401551698E+03  0.87471416729E+02 0.  0.
          2    1    3    3  502    0 -0.10503564785E+02 -0.24000988927E+02 -0.14488646672E+03  0.14723607093E+03  0.00000000000E+00 0.  1.
         -2    1    3    3    0  502  0.10503564785E+02  0.24000988927E+02 -0.55467457120E+01  0.26779446048E+02  0.00000000000E+00 0. -1.
<mgrwt>
<rscale>  0 0.87471417E+02</rscale>
<asrwt>0</asrwt>
<pdfrwt beam="1">  1        1 0.18140235E-02 0.87471417E+02</pdfrwt>
<pdfrwt beam="2">  1       -1 0.24957594E-01 0.87471417E+02</pdfrwt>
<totfact> 0.81731824E+04</totfact>
</mgrwt>
</event>
<event>
 5    1  0.3862918E+001  0.8917786E+02  0.7546771E-02  0.1304855E+00
         -1   -1    0    0    0  501 -0.00000000000E+00  0.00000000000E+00  0.16115120105E+02  0.16115120105E+02  0.00000000000E+00 0.  1.
          1   -1    0    0  501    0  0.00000000000E+00 -0.00000000000E+00 -0.12337312060E+03  0.12337312060E+03  0.00000000000E+00 0. -1.
         23    2    1    2    0    0  0.00000000000E+00  0.00000000000E+00 -0.10725800049E+03  0.13948824070E+03  0.89177859498E+02 0.  0.
          2    1    3    3  502    0  0.44090826277E+02  0.56424124155E+01 -0.48135515079E+02  0.65519963306E+02  0.00000000000E+00 0. -1.
         -2    1    3    3    0  502 -0.44090826277E+02 -0.56424124155E+01 -0.59122485414E+02  0.73968277397E+02  0.00000000000E+00 0.  1.
<mgrwt>
<rscale>  0 0.89177859E+02</rscale>
<asrwt>0</asrwt>
<pdfrwt beam="2">  1        1 0.18980479E-01 0.89177859E+02</pdfrwt>
<pdfrwt beam="1">  1       -1 0.24792494E-02 0.89177859E+02</pdfrwt>
<totfact> 0.11495076E+05</totfact>
</mgrwt>
</event>
<event>
 5    1  0.3862918E+001  0.9217039E+02  0.7546771E-02  0.1297679E+00
         -3   -1    0    0    0  501 -0.00000000000E+00  0.00000000000E+00  0.59774092661E+02  0.59774092661E+02  0.00000000000E+00 0.  1.
          3   -1    0    0  501    0  0.00000000000E+00 -0.00000000000E+00 -0.35531197397E+02  0.35531197397E+02  0.00000000000E+00 0. -1.
         23    2    1    2    0    0  0.00000000000E+00  0.00000000000E+00  0.24242895264E+02  0.95305290058E+02  0.92170387556E+02 0.  0.
          2    1    3    3  502    0  0.21708670870E+02 -0.39796241417E+02  0.35423959191E+01  0.45470383666E+02  0.00000000000E+00 0.  1.
         -2    1    3    3    0  502 -0.21708670870E+02  0.39796241417E+02  0.20700499345E+02  0.49834906392E+02  0.00000000000E+00 0. -1.
<mgrwt>
<rscale>  0 0.92170388E+02</rscale>
<asrwt>0</asrwt>
<pdfrwt beam="2">  1        3 0.54663381E-02 0.92170388E+02</pdfrwt>
<pdfrwt beam="1">  1       -3 0.91960143E-02 0.92170388E+02</pdfrwt>
<totfact> 0.34003428E+04</totfact>
</mgrwt>
</event>
<event>
 5    1  0.3862918E+001  0.1060091E+03  0.7546771E-02  0.1268144E+00
         -3   -1    0    0    0  501 -0.00000000000E+00  0.00000000000E+00  0.75735445058E+01  0.75735445058E+01  0.00000000000E+00 0.  1.
          3   -1    0    0  501    0  0.00000000000E+00 -0.00000000000E+00 -0.37096030127E+03  0.37096030127E+03  0.00000000000E+00 0. -1.
         23    2    1    2    0    0  0.00000000000E+00  0.00000000000E+00 -0.36338675676E+03  0.37853384577E+03  0.10600913831E+03 0.  0.
          2    1    3    3  502    0  0.26170110218E+02 -0.29893292347E+02 -0.56410831859E+02  0.68997576387E+02  0.00000000000E+00 0.  1.
         -2    1    3    3    0  502 -0.26170110218E+02  0.29893292347E+02 -0.30697592490E+03  0.30953626939E+03  0.00000000000E+00 0. -1.
<mgrwt>
<rscale>  0 0.10600914E+03</rscale>
<asrwt>0</asrwt>
<pdfrwt beam="2">  1        3 0.57070806E-01 0.10600914E+03</pdfrwt>
<pdfrwt beam="1">  1       -3 0.11651609E-02 0.10600914E+03</pdfrwt>
<totfact> 0.14162769E+04</totfact>
</mgrwt>
</event>
<event>
 5    1  0.3862918E+001  0.9122724E+02  0.7546771E-02  0.1299907E+00
         -4   -1    0    0    0  501 -0.00000000000E+00  0.00000000000E+00  0.35610599071E+02  0.35610599071E+02  0.00000000000E+00 0. -1.
          4   -1    0    0  501    0  0.00000000000E+00 -0.00000000000E+00 -0.58426494958E+02  0.58426494958E+02  0.00000000000E+00 0.  1.
         23    2    1    2    0    0  0.00000000000E+00  0.00000000000E+00 -0.22815895887E+02  0.94037094029E+02  0.91227243454E+02 0.  0.
          2    1    3    3  502    0  0.27860779904E+02  0.35086857116E+02 -0.20232701826E+02  0.49159666621E+02  0.00000000000E+00 0. -1.
         -2    1    3    3    0  502 -0.27860779904E+02 -0.35086857116E+02 -0.25831940605E+01  0.44877427407E+02  0.00000000000E+00 0.  1.
<mgrwt>
<rscale>  0 0.91227243E+02</rscale>
<asrwt>0</asrwt>
<pdfrwt beam="2">  1        4 0.89886915E-02 0.91227243E+02</pdfrwt>
<pdfrwt beam="1">  1       -4 0.54785537E-02 0.91227243E+02</pdfrwt>
<totfact> 0.26792969E+04</totfact>
</mgrwt>
</event>
<event>
 5    1  0.3862918E+001  0.9049850E+02  0.7546771E-02  0.1301649E+00
          2   -1    0    0  501    0  0.00000000000E+00  0.00000000000E+00  0.75329350343E+02  0.75329350343E+02  0.00000000000E+00 0. -1.
         -2   -1    0    0    0  501 -0.00000000000E+00 -0.00000000000E+00 -0.27180568121E+02  0.27180568121E+02  0.00000000000E+00 0.  1.
         23    2    1    2    0    0  0.00000000000E+00  0.00000000000E+00  0.48148782222E+02  0.10250991846E+03  0.90498498077E+02 0.  0.
          2    1    3    3  502    0 -0.36464454650E+02  0.30066947619E+01  0.54231223277E+02  0.65419586092E+02  0.00000000000E+00 0. -1.
         -2    1    3    3    0  502  0.36464454650E+02 -0.30066947619E+01 -0.60824410551E+01  0.37090332372E+02  0.00000000000E+00 0.  1.
<mgrwt>
<rscale>  0 0.90498498E+02</rscale>
<asrwt>0</asrwt>
<pdfrwt beam="1">  1        2 0.11589131E-01 0.90498498E+02</pdfrwt>
<pdfrwt beam="2">  1       -2 0.41816259E-02 0.90498498E+02</pdfrwt>
<totfact> 0.11528302E+05</totfact>
</mgrwt>
</event>
<event>
 5    1  0.3862918E+001  0.8997869E+02  0.7546771E-02  0.1302903E+00
          1   -1    0    0  501    0  0.00000000000E+00  0.00000000000E+00  0.50767195416E+03  0.50767195416E+03  0.00000000000E+00 0. -1.
         -1   -1    0    0    0  501 -0.00000000000E+00 -0.00000000000E+00 -0.39869073389E+01  0.39869073389E+01  0.00000000000E+00 0.  1.
         23    2    1    2    0    0  0.00000000000E+00  0.00000000000E+00  0.50368504682E+03  0.51165886150E+03  0.89978687250E+02 0.  0.
          2    1    3    3  502    0  0.36321778487E+02  0.18667929313E+02  0.35917601726E+03  0.36149021364E+03  0.00000000000E+00 0. -1.
         -2    1    3    3    0  502 -0.36321778487E+02 -0.18667929313E+02  0.14450902955E+03  0.15016864786E+03  0.00000000000E+00 0.  1.
<mgrwt>
<rscale>  0 0.89978687E+02</rscale>
<asrwt>0</asrwt>
<pdfrwt beam="1">  1        1 0.78103327E-01 0.89978687E+02</pdfrwt>
<pdfrwt beam="2">  1       -1 0.61337076E-03 0.89978687E+02</pdfrwt>
<totfact> 0.14448296E+05</totfact>
</mgrwt>
</event>
<event>
 5    1  0.3862918E+001  0.9596455E+02  0.7546771E-02  0.1289018E+00
         -1   -1    0    0    0  501 -0.00000000000E+00  0.00000000000E+00  0.39928977629E+01  0.39928977629E+01  0.00000000000E+00 0.  1.
          1   -1    0    0  501    0  0.00000000000E+00 -0.00000000000E+00 -0.57659850395E+03  0.57659850395E+03  0.00000000000E+00 0. -1.
         23    2    1    2    0    0  0.00000000000E+00  0.00000000000E+00 -0.57260560619E+03  0.58059140172E+03  0.95964553383E+02 0.  0.
          2    1    3    3  502    0  0.25878645911E+02  0.30420577741E+02 -0.44719154780E+03  0.44897148716E+03  0.00000000000E+00 0. -1.
         -2    1    3    3    0  502 -0.25878645911E+02 -0.30420577741E+02 -0.12541405839E+03  0.13161991455E+03  0.00000000000E+00 0.  1.
<mgrwt>
<rscale>  0 0.95964553E+02</rscale>
<asrwt>0</asrwt>
<pdfrwt beam="2">  1        1 0.88707426E-01 0.95964553E+02</pdfrwt>
<pdfrwt beam="1">  1       -1 0.61429221E-03 0.95964553E+02</pdfrwt>
<totfact> 0.12327135E+05</totfact>
</mgrwt>
</event>
<event>
 5    1  0.3862918E+001  0.8513787E+02  0.7546771E-02  0.1315072E+00
         -1   -1    0    0    0  501 -0.00000000000E+00  0.00000000000E+00  0.14570675782E+01  0.14570675782E+01  0.00000000000E+00 0.  1.
          1   -1    0    0  501    0  0.00000000000E+00 -0.00000000000E+00 -0.12436720871E+04  0.12436720871E+04  0.00000000000E+00 0. -1.
         23    2    1    2    0    0  0.00000000000E+00  0.00000000000E+00 -0.12422150195E+04  0.12451291546E+04  0.85137871151E+02 0.  0.
          2    1    3    3  502    0  0.69043479716E+00 -0.30072978897E+02 -0.10616176861E+04  0.10620437714E+04  0.00000000000E+00 0. -1.
         -2    1    3    3    0  502 -0.69043479716E+00  0.30072978897E+02 -0.18059733335E+03  0.18308538329E+03  0.00000000000E+00 0.  1.
<mgrwt>
<rscale>  0 0.85137871E+02</rscale>
<asrwt>0</asrwt>
<pdfrwt beam="2">  1        1 0.19133373E+00 0.85137871E+02</pdfrwt>
<pdfrwt beam="1">  1       -1 0.22416476E-03 0.85137871E+02</pdfrwt>
<totfact> 0.14984758E+05</totfact>
</mgrwt>
</event>
<event>
 5    1  0.3862918E+001  0.9156797E+02  0.7546771E-02  0.1299098E+00
          1   -1    0    0  501    0  0.00000000000E+00  0.00000000000E+00  0.81791597968E+03  0.81791597968E+03  0.00000000000E+00 0. -1.
         -1   -1    0    0    0  501 -0.00000000000E+00 -0.00000000000E+00 -0.25628221978E+01  0.25628221978E+01  0.00000000000E+00 0.  1.
         23    2    1    2    0    0  0.00000000000E+00  0.00000000000E+00  0.81535315748E+03  0.82047880188E+03  0.91567968824E+02 0.  0.
          2    1    3    3  502    0  0.10434968501E+02  0.40286753437E+02  0.57869024303E+03  0.58018471925E+03  0.00000000000E+00 0. -1.
         -2    1    3    3    0  502 -0.10434968501E+02 -0.40286753437E+02  0.23666291445E+03  0.24029408263E+03  0.00000000000E+00 0.  1.
<mgrwt>
<rscale>  0 0.91567969E+02</rscale>
<asrwt>0</asrwt>
<pdfrwt beam="1">  1        1 0.12583302E+00 0.91567969E+02</pdfrwt>
<pdfrwt beam="2">  1       -1 0.39428099E-03 0.91567969E+02</pdfrwt>
<totfact> 0.13941588E+05</totfact>
</mgrwt>
</event>
<event>
 5    1  0.3862918E+001  0.8852919E+02  0.7546771E-02  0.1306453E+00
          3   -1    0    0  501    0  0.00000000000E+00  0.00000000000E+00  0.27901195456E+02  0.27901195456E+02  0.00000000000E+00 0. -1.
         -3   -1    0    0    0  501 -0.00000000000E+00 -0.00000000000E+00 -0.70224750110E+02  0.70224750110E+02  0.00000000000E+00 0.  1.
         23    2    1    2    0    0  0.00000000000E+00  0.00000000000E+00 -0.42323554654E+02  0.98125945566E+02  0.88529192444E+02 0.  0.
          2    1    3    3  502    0 -0.33023922877E+02  0.25717748255E+02 -0.52003086034E+01  0.42178492945E+02  0.00000000000E+00 0. -1.
         -2    1    3    3    0  502  0.33023922877E+02 -0.25717748255E+02 -0.37123246050E+02  0.55947452621E+02  0.00000000000E+00 0.  1.
<mgrwt>
<rscale>  0 0.88529192E+02</rscale>
<asrwt>0</asrwt>
<pdfrwt beam="1">  1        3 0.42924917E-02 0.88529192E+02</pdfrwt>
<pdfrwt beam="2">  1       -3 0.10803808E-01 0.88529192E+02</pdfrwt>
<totfact> 0.37710183E+04</totfact>
</mgrwt>
</event>
<event>
 5    1  0.3862918E+001  0.9122103E+02  0.7546771E-02  0.1299921E+00
          2   -1    0    0  501    0  0.00000000000E+00  0.00000000000E+00  0.24690004243E+02  0.24690004243E+02  0.00000000000E+00 0. -1.
         -2   -1    0    0    0  501 -0.00000000000E+00 -0.00000000000E+00 -0.84257537309E+02  0.84257537309E+02  0.00000000000E+00 0.  1.
         23    2    1    2    0    0  0.00000000000E+00  0.00000000000E+00 -0.59567533066E+02  0.10894754155E+03  0.91221027262E+02 0.  0.
          2    1    3    3  502    0 -0.22458755867E+01 -0.40913326494E+02 -0.58562580235E+01  0.41391303434E+02  0.00000000000E+00 0. -1.
         -2    1    3    3    0  502  0.22458755867E+01  0.40913326494E+02 -0.53711275042E+02  0.67556238118E+02  0.00000000000E+00 0.  1.
<mgrwt>
<rscale>  0 0.91221027E+02</rscale>
<asrwt>0</asrwt>
<pdfrwt beam="1">  1        2 0.37984621E-02 0.91221027E+02</pdfrwt>
<pdfrwt beam="2">  1       -2 0.12962698E-01 0.91221027E+02</pdfrwt>
<totfact> 0.83759679E+04</totfact>
</mgrwt>
</event>
<event>
 5    1  0.3862918E+001  0.9628293E+02  0.7546771E-02  0.1288312E+00
         -2   -1    0    0    0  501 -0.00000000000E+00  0.00000000000E+00  0.16519291324E+03  0.16519291324E+03  0.00000000000E+00 0.  1.
          2   -1    0    0  501    0  0.00000000000E+00 -0.00000000000E+00 -0.14029662599E+02  0.14029662599E+02  0.00000000000E+00 0. -1.
         23    2    1    2    0    0  0.00000000000E+00  0.00000000000E+00  0.15116325064E+03  0.17922257584E+03  0.96282933825E+02 0.  0.
          2    1    3    3  502    0 -0.14317205868E+02  0.30507037226E+02  0.11587375025E+02  0.35636062691E+02  0.00000000000E+00 0. -1.
         -2    1    3    3    0  502  0.14317205868E+02 -0.30507037226E+02  0.13957587561E+03  0.14358651314E+03  0.00000000000E+00 0.  1.
<mgrwt>
<rscale>  0 0.96282934E+02</rscale>
<asrwt>0</asrwt>
<pdfrwt beam="2">  1        2 0.21584097E-02 0.96282934E+02</pdfrwt>
<pdfrwt beam="1">  1       -2 0.25414293E-01 0.96282934E+02</pdfrwt>
<totfact> 0.58661938E+04</totfact>
</mgrwt>
</event>
<event>
 5    1  0.3862918E+001  0.8829207E+02  0.7546771E-02  0.1307041E+00
          4   -1    0    0  501    0  0.00000000000E+00  0.00000000000E+00  0.17908502797E+03  0.17908502797E+03  0.00000000000E+00 0.  1.
         -4   -1    0    0    0  501 -0.00000000000E+00 -0.00000000000E+00 -0.10882385729E+02  0.10882385729E+02  0.00000000000E+00 0. -1.
         23    2    1    2    0    0  0.00000000000E+00  0.00000000000E+00  0.16820264225E+03  0.18996741370E+03  0.88292068787E+02 0.  0.
          2    1    3    3  502    0 -0.35563944138E+02  0.18997384754E+02  0.12278057113E+03  0.12923143347E+03  0.00000000000E+00 0.  1.
         -2    1    3    3    0  502  0.35563944138E+02 -0.18997384754E+02  0.45422071112E+02  0.60735980228E+02  0.00000000000E+00 0. -1.
<mgrwt>
<rscale>  0 0.88292069E+02</rscale>
<asrwt>0</asrwt>
<pdfrwt beam="1">  1        4 0.27551541E-01 0.88292069E+02</pdfrwt>
<pdfrwt beam="2">  1       -4 0.16742133E-02 0.88292069E+02</pdfrwt>
<totfact> 0.23767082E+04</totfact>
</mgrwt>
</event>
<event>
 5    1  0.3862918E+001  0.8982492E+02  0.7546771E-02  0.1303276E+00
          2   -1    0    0  501    0  0.00000000000E+00  0.00000000000E+00  0.16851993163E+01  0.16851993163E+01  0.00000000000E+00 0. -1.
         -2   -1    0    0    0  501 -0.00000000000E+00 -0.00000000000E+00 -0.11969677634E+04  0.11969677634E+04  0.00000000000E+00 0.  1.
         23    2    1    2    0    0  0.00000000000E+00  0.00000000000E+00 -0.11952825641E+04  0.11986529627E+04  0.89824924305E+02 0.  0.
          2    1    3    3  502    0  0.24021138728E+02 -0.34133278057E+02 -0.81894534392E+03  0.82000827563E+03  0.00000000000E+00 0. -1.
         -2    1    3    3    0  502 -0.24021138728E+02  0.34133278057E+02 -0.37633722017E+03  0.37864468709E+03  0.00000000000E+00 0.  1.
<mgrwt>
<rscale>  0 0.89824924E+02</rscale>
<asrwt>0</asrwt>
<pdfrwt beam="1">  1        2 0.25926178E-03 0.89824924E+02</pdfrwt>
<pdfrwt beam="2">  1       -2 0.18414864E+00 0.89824924E+02</pdfrwt>
<totfact> 0.15499376E+04</totfact>
</mgrwt>
</event>
<event>
 5    1  0.3862918E+001  0.9086633E+02  0.7546771E-02  0.1300767E+00
          1   -1    0    0  501    0  0.00000000000E+00  0.00000000000E+00  0.17596522132E+03  0.17596522132E+03  0.00000000000E+00 0. -1.
         -1   -1    0    0    0  501 -0.00000000000E+00 -0.00000000000E+00 -0.11730569556E+02  0.11730569556E+02  0.00000000000E+00 0.  1.
         23    2    1    2    0    0  0.00000000000E+00  0.00000000000E+00  0.16423465176E+03  0.18769579087E+03  0.90866325295E+02 0.  0.
          2    1    3    3  502    0  0.42573738787E+02 -0.14686341019E+01  0.49490110549E+02  0.65298936918E+02  0.00000000000E+00 0.  1.
         -2    1    3    3    0  502 -0.42573738787E+02  0.14686341019E+01  0.11474454121E+03  0.12239685395E+03  0.00000000000E+00 0. -1.
<mgrwt>
<rscale>  0 0.90866325E+02</rscale>
<asrwt>0</asrwt>
<pdfrwt beam="1">  1        1 0.27071571E-01 0.90866325E+02</pdfrwt>
<pdfrwt beam="2">  1       -1 0.18047031E-02 0.90866325E+02</pdfrwt>
<totfact> 0.11658971E+05</totfact>
</mgrwt>
</event>
<event>
 5    1  0.3862918E+001  0.9947717E+02  0.7546771E-02  0.1281399E+00
         -2   -1    0    0    0  501 -0.00000000000E+00  0.00000000000E+00  0.19524837357E+03  0.19524837357E+03  0.00000000000E+00 0.  1.
          2   -1    0    0  501    0  0.00000000000E+00 -0.00000000000E+00 -0.12670666447E+02  0.12670666447E+02  0.00000000000E+00 0. -1.
         23    2    1    2    0    0  0.00000000000E+00  0.00000000000E+00  0.18257770712E+03  0.20791904002E+03  0.99477173579E+02 0.  0.
          2    1    3    3  502    0 -0.45170623010E+02  0.56437555680E+01  0.49398284874E+02  0.67174606129E+02  0.00000000000E+00 0. -1.
         -2    1    3    3    0  502  0.45170623010E+02 -0.56437555680E+01  0.13317942225E+03  0.14074443389E+03  0.00000000000E+00 0.  1.
<mgrwt>
<rscale>  0 0.99477174E+02</rscale>
<asrwt>0</asrwt>
<pdfrwt beam="2">  1        2 0.19493334E-02 0.99477174E+02</pdfrwt>
<pdfrwt beam="1">  1       -2 0.30038209E-01 0.99477174E+02</pdfrwt>
<totfact> 0.50395613E+04</totfact>
</mgrwt>
</event>
<event>
 5    1  0.3862918E+001  0.8365304E+02  0.7546771E-02  0.1318993E+00
          1   -1    0    0  501    0  0.00000000000E+00  0.00000000000E+00  0.10486578554E+04  0.10486578554E+04  0.00000000000E+00 0. -1.
         -1   -1    0    0    0  501 -0.00000000000E+00 -0.00000000000E+00 -0.16682828086E+01  0.16682828086E+01  0.00000000000E+00 0.  1.
         23    2    1    2    0    0  0.00000000000E+00  0.00000000000E+00  0.10469895726E+04  0.10503261382E+04  0.83653042320E+02 0.  0.
          2    1    3    3  502    0  0.25644441156E+02 -0.30950140947E+02  0.66878881958E+03  0.66999554759E+03  0.00000000000E+00 0. -1.
         -2    1    3    3    0  502 -0.25644441156E+02  0.30950140947E+02  0.37820075304E+03  0.38033059065E+03  0.00000000000E+00 0.  1.
<mgrwt>
<rscale>  0 0.83653042E+02</rscale>
<asrwt>0</asrwt>
<pdfrwt beam="1">  1        1 0.16133145E+00 0.83653042E+02</pdfrwt>
<pdfrwt beam="2">  1       -1 0.25665973E-03 0.83653042E+02</pdfrwt>
<totfact> 0.16830454E+05</totfact>
</mgrwt>
</event>
<event>
 5    1  0.3862918E+001  0.9149736E+02  0.7546771E-02  0.1299266E+00
          3   -1    0    0  501    0  0.00000000000E+00  0.00000000000E+00  0.17924322149E+02  0.17924322149E+02  0.00000000000E+00 0. -1.
         -3   -1    0    0    0  501 -0.00000000000E+00 -0.00000000000E+00 -0.11676546091E+03  0.11676546091E+03  0.00000000000E+00 0.  1.
         23    2    1    2    0    0  0.00000000000E+00  0.00000000000E+00 -0.98841138758E+02  0.13468978306E+03  0.91497360337E+02 0.  0.
          2    1    3    3  502    0 -0.34973357129E+02  0.17993834352E+02 -0.15022542877E+02  0.42102144578E+02  0.00000000000E+00 0. -1.
         -2    1    3    3    0  502  0.34973357129E+02 -0.17993834352E+02 -0.83818595881E+02  0.92587638478E+02  0.00000000000E+00 0.  1.
<mgrwt>
<rscale>  0 0.91497360E+02</rscale>
<asrwt>0</asrwt>
<pdfrwt beam="1">  1        3 0.27575880E-02 0.91497360E+02</pdfrwt>
<pdfrwt beam="2">  1       -3 0.17963917E-01 0.91497360E+02</pdfrwt>
<totfact> 0.31965383E+04</totfact>
</mgrwt>
</event>
<event>
 5    1  0.3862918E+001  0.9304480E+02  0.7546771E-02  0.1295641E+00
          2   -1    0    0  501    0  0.00000000000E+00  0.00000000000E+00  0.92294668910E+03  0.92294668910E+03  0.00000000000E+00 0. -1.
         -2   -1    0    0    0  501 -0.00000000000E+00 -0.00000000000E+00 -0.23450258789E+01  0.23450258789E+01  0.00000000000E+00 0.  1.
         23    2    1    2    0    0  0.00000000000E+00  0.00000000000E+00  0.92060166322E+03  0.92529171498E+03  0.93044803632E+02 0.  0.
          2    1    3    3  502    0  0.32364755122E+02  0.91285320587E+01  0.78000429198E+03  0.78072882807E+03  0.00000000000E+00 0. -1.
         -2    1    3    3    0  502 -0.32364755122E+02 -0.91285320587E+01  0.14059737124E+03  0.14456288691E+03  0.00000000000E+00 0.  1.
<mgrwt>
<rscale>  0 0.93044804E+02</rscale>
<asrwt>0</asrwt>
<pdfrwt beam="1">  1        2 0.14199151E+00 0.93044804E+02</pdfrwt>
<pdfrwt beam="2">  1       -2 0.36077395E-03 0.93044804E+02</pdfrwt>
<totfact> 0.23565370E+05</totfact>
</mgrwt>
</event>
<event>
 5    1  0.3862918E+001  0.9176579E+02  0.7546771E-02  0.1298631E+00
          1   -1    0    0  501    0  0.00000000000E+00  0.00000000000E+00  0.68333146461E+02  0.68333146461E+02  0.00000000000E+00 0. -1.
         -1   -1    0    0    0  501 -0.00000000000E+00 -0.00000000000E+00 -0.30808478245E+02  0.30808478245E+02  0.00000000000E+00 0.  1.
         23    2    1    2    0    0  0.00000000000E+00  0.00000000000E+00  0.37524668216E+02  0.99141624706E+02  0.91765794415E+02 0.  0.
          2    1    3    3  502    0 -0.29688385345E+02 -0.33002967431E+02  0.62260454402E+01  0.44825882317E+02  0.00000000000E+00 0. -1.
         -2    1    3    3    0  502  0.29688385345E+02  0.33002967431E+02  0.31298622776E+02  0.54315742389E+02  0.00000000000E+00 0.  1.
<mgrwt>
<rscale>  0 0.91765794E+02</rscale>
<asrwt>0</asrwt>
<pdfrwt beam="1">  1        1 0.10512792E-01 0.91765794E+02</pdfrwt>
<pdfrwt beam="2">  1       -1 0.47397659E-02 0.91765794E+02</pdfrwt>
<totfact> 0.96567176E+04</totfact>
</mgrwt>
</event>
<event>
 5    1  0.3862918E+001  0.7929375E+02  0.7546771E-02  0.1331068E+00
          1   -1    0    0  501    0  0.00000000000E+00  0.00000000000E+00  0.13062294082E+03  0.13062294082E+03  0.00000000000E+00 0. -1.
         -1   -1    0    0    0  501 -0.00000000000E+00 -0.00000000000E+00 -0.12033679238E+02  0.12033679238E+02  0.00000000000E+00 0.  1.
         23    2    1    2    0    0  0.00000000000E+00  0.00000000000E+00  0.11858926158E+03  0.14265662006E+03  0.79293746812E+02 0.  0.
          2    1    3    3  502    0  0.37167197991E+02  0.90186781732E+01  0.78089521675E+02  0.86952346477E+02  0.00000000000E+00 0. -1.
         -2    1    3    3    0  502 -0.37167197991E+02 -0.90186781732E+01  0.40499739906E+02  0.55704273579E+02  0.00000000000E+00 0.  1.
<mgrwt>
<rscale>  0 0.79293747E+02</rscale>
<asrwt>0</asrwt>
<pdfrwt beam="1">  1        1 0.20095836E-01 0.79293747E+02</pdfrwt>
<pdfrwt beam="2">  1       -1 0.18513354E-02 0.79293747E+02</pdfrwt>
<totfact> 0.15905279E+05</totfact>
</mgrwt>
</event>
<event>
 5    1  0.3862918E+001  0.9134926E+02  0.7546771E-02  0.1299617E+00
         -1   -1    0    0    0  501 -0.00000000000E+00  0.00000000000E+00  0.26016047376E+01  0.26016047376E+01  0.00000000000E+00 0.  1.
          1   -1    0    0  501    0  0.00000000000E+00 -0.00000000000E+00 -0.80187891476E+03  0.80187891476E+03  0.00000000000E+00 0. -1.
         23    2    1    2    0    0  0.00000000000E+00  0.00000000000E+00 -0.79927731002E+03  0.80448051950E+03  0.91349263458E+02 0.  0.
          2    1    3    3  502    0 -0.20594584789E+02  0.25611248947E+02 -0.67897718172E+03  0.67977208407E+03  0.00000000000E+00 0. -1.
         -2    1    3    3    0  502  0.20594584789E+02 -0.25611248947E+02 -0.12030012830E+03  0.12470843542E+03  0.00000000000E+00 0.  1.
<mgrwt>
<rscale>  0 0.91349263E+02</rscale>
<asrwt>0</asrwt>
<pdfrwt beam="2">  1        1 0.12336623E+00 0.91349263E+02</pdfrwt>
<pdfrwt beam="1">  1       -1 0.40024609E-03 0.91349263E+02</pdfrwt>
<totfact> 0.14056548E+05</totfact>
</mgrwt>
</event>
<event>
 5    1  0.3862918E+001  0.9077997E+02  0.7546771E-02  0.1300974E+00
          1   -1    0    0  501    0  0.00000000000E+00  0.00000000000E+00  0.83009093745E+02  0.83009093745E+02  0.00000000000E+00 0. -1.
         -1   -1    0    0    0  501 -0.00000000000E+00 -0.00000000000E+00 -0.24819581083E+02  0.24819581083E+02  0.00000000000E+00 0.  1.
         23    2    1    2    0    0  0.00000000000E+00  0.00000000000E+00  0.58189512662E+02  0.10782867483E+03  0.90779974286E+02 0.  0.
          2    1    3    3  502    0 -0.20316969099E+02  0.14403721723E+02  0.74168760152E+02  0.78238426719E+02  0.00000000000E+00 0. -1.
         -2    1    3    3    0  502  0.20316969099E+02 -0.14403721723E+02 -0.15979247491E+02  0.29590248110E+02  0.00000000000E+00 0.  1.
<mgrwt>
<rscale>  0 0.90779974E+02</rscale>
<asrwt>0</asrwt>
<pdfrwt beam="1">  1        1 0.12770630E-01 0.90779974E+02</pdfrwt>
<pdfrwt beam="2">  1       -1 0.38183971E-02 0.90779974E+02</pdfrwt>
<totfact> 0.10255370E+05</totfact>
</mgrwt>
</event>
<event>
 5    1  0.3862918E+001  0.9277367E+02  0.7546771E-02  0.1296271E+00
          2   -1    0    0  501    0  0.00000000000E+00  0.00000000000E+00  0.71821805480E+02  0.71821805480E+02  0.00000000000E+00 0. -1.
         -2   -1    0    0    0  501 -0.00000000000E+00 -0.00000000000E+00 -0.29959404580E+02  0.29959404580E+02  0.00000000000E+00 0.  1.
         23    2    1    2    0    0  0.00000000000E+00  0.00000000000E+00  0.41862400900E+02  0.10178121006E+03  0.92773671439E+02 0.  0.
          2    1    3    3  502    0  0.12920077725E+02  0.44545058174E+02  0.21743279370E+02  0.51224611408E+02  0.00000000000E+00 0. -1.
         -2    1    3    3    0  502 -0.12920077725E+02 -0.44545058174E+02  0.20119121530E+02  0.50556598652E+02  0.00000000000E+00 0.  1.
<mgrwt>
<rscale>  0 0.92773671E+02</rscale>
<asrwt>0</asrwt>
<pdfrwt beam="1">  1        2 0.11049508E-01 0.92773671E+02</pdfrwt>
<pdfrwt beam="2">  1       -2 0.46091392E-02 0.92773671E+02</pdfrwt>
<totfact> 0.10612410E+05</totfact>
</mgrwt>
</event>
<event>
 5    1  0.3862918E+001  0.8542356E+02  0.7546771E-02  0.1314329E+00
         -1   -1    0    0    0  501 -0.00000000000E+00  0.00000000000E+00  0.45706791724E+01  0.45706791724E+01  0.00000000000E+00 0.  1.
          1   -1    0    0  501    0  0.00000000000E+00 -0.00000000000E+00 -0.39913024844E+03  0.39913024844E+03  0.00000000000E+00 0. -1.
         23    2    1    2    0    0  0.00000000000E+00  0.00000000000E+00 -0.39455956927E+03  0.40370092762E+03  0.85423563814E+02 0.  0.
          2    1    3    3  502    0  0.16370881339E+02 -0.38438211200E+02 -0.23922959013E+03  0.24285036263E+03  0.00000000000E+00 0. -1.
         -2    1    3    3    0  502 -0.16370881339E+02  0.38438211200E+02 -0.15532997914E+03  0.16085056499E+03  0.00000000000E+00 0.  1.
<mgrwt>
<rscale>  0 0.85423564E+02</rscale>
<asrwt>0</asrwt>
<pdfrwt beam="2">  1        1 0.61404661E-01 0.85423564E+02</pdfrwt>
<pdfrwt beam="1">  1       -1 0.70318133E-03 0.85423564E+02</pdfrwt>
<totfact> 0.16022208E+05</totfact>
</mgrwt>
</event>
<event>
 5    1  0.3862918E+001  0.8491642E+02  0.7546771E-02  0.1315651E+00
         -3   -1    0    0    0  501 -0.00000000000E+00  0.00000000000E+00  0.49760226885E+03  0.49760226885E+03  0.00000000000E+00 0.  1.
          3   -1    0    0  501    0  0.00000000000E+00 -0.00000000000E+00 -0.36227724843E+01  0.36227724843E+01  0.00000000000E+00 0. -1.
         23    2    1    2    0    0  0.00000000000E+00  0.00000000000E+00  0.49397949636E+03  0.50122504133E+03  0.84916424977E+02 0.  0.
          2    1    3    3  502    0  0.16123992439E+01 -0.35877150552E+02  0.38067088425E+03  0.38236120603E+03  0.00000000000E+00 0.  1.
         -2    1    3    3    0  502 -0.16123992439E+01  0.35877150552E+02  0.11330861212E+03  0.11886383530E+03  0.00000000000E+00 0. -1.
<mgrwt>
<rscale>  0 0.84916425E+02</rscale>
<asrwt>0</asrwt>
<pdfrwt beam="2">  1        3 0.55735001E-03 0.84916425E+02</pdfrwt>
<pdfrwt beam="1">  1       -3 0.76554141E-01 0.84916425E+02</pdfrwt>
<totfact> 0.21573902E+04</totfact>
</mgrwt>
</event>
<event>
 5    1  0.3862918E+001  0.9217985E+02  0.7546771E-02  0.1297657E+00
          1   -1    0    0  501    0  0.00000000000E+00  0.00000000000E+00  0.61057436719E+02  0.61057436719E+02  0.00000000000E+00 0. -1.
         -1   -1    0    0    0  501 -0.00000000000E+00 -0.00000000000E+00 -0.34791521119E+02  0.34791521119E+02  0.00000000000E+00 0.  1.
         23    2    1    2    0    0  0.00000000000E+00  0.00000000000E+00  0.26265915599E+02  0.95848957838E+02  0.92179848103E+02 0.  0.
          2    1    3    3  502    0  0.18131661307E+02 -0.17195331222E+02 -0.27136383937E+02  0.36889292359E+02  0.00000000000E+00 0.  1.
         -2    1    3    3    0  502 -0.18131661307E+02  0.17195331222E+02  0.53402299537E+02  0.58959665479E+02  0.00000000000E+00 0. -1.
<mgrwt>
<rscale>  0 0.92179848E+02</rscale>
<asrwt>0</asrwt>
<pdfrwt beam="1">  1        1 0.93934518E-02 0.92179848E+02</pdfrwt>
<pdfrwt beam="2">  1       -1 0.53525417E-02 0.92179848E+02</pdfrwt>
<totfact> 0.93735171E+04</totfact>
</mgrwt>
</event>
<event>
 5    1  0.3862918E+001  0.8844305E+02  0.7546771E-02  0.1306666E+00
         -2   -1    0    0    0  501 -0.00000000000E+00  0.00000000000E+00  0.31597450004E+01  0.31597450004E+01  0.00000000000E+00 0.  1.
          2   -1    0    0  501    0  0.00000000000E+00 -0.00000000000E+00 -0.61889276942E+03  0.61889276942E+03  0.00000000000E+00 0. -1.
         23    2    1    2    0    0  0.00000000000E+00  0.00000000000E+00 -0.61573302442E+03  0.62205251442E+03  0.88443051371E+02 0.  0.
          2    1    3    3  502    0 -0.81092984129E+01  0.35733325503E+02 -0.48199202811E+03  0.48338281562E+03  0.00000000000E+00 0. -1.
         -2    1    3    3    0  502  0.81092984129E+01 -0.35733325503E+02 -0.13374099630E+03  0.13866969880E+03  0.00000000000E+00 0.  1.
<mgrwt>
<rscale>  0 0.88443051E+02</rscale>
<asrwt>0</asrwt>
<pdfrwt beam="2">  1        2 0.95214246E-01 0.88443051E+02</pdfrwt>
<pdfrwt beam="1">  1       -2 0.48611475E-03 0.88443051E+02</pdfrwt>
<totfact> 0.24902918E+05</totfact>
</mgrwt>
</event>
<event>
 5    1  0.3862918E+001  0.9077001E+02  0.7546771E-02  0.1300998E+00
         -1   -1    0    0    0  501 -0.00000000000E+00  0.00000000000E+00  0.59465522457E+01  0.59465522457E+01  0.00000000000E+00 0.  1.
          1   -1    0    0  501    0  0.00000000000E+00 -0.00000000000E+00 -0.34638536930E+03  0.34638536930E+03  0.00000000000E+00 0. -1.
         23    2    1    2    0    0  0.00000000000E+00  0.00000000000E+00 -0.34043881706E+03  0.35233192155E+03  0.90770010371E+02 0.  0.
          2    1    3    3  502    0 -0.24116551285E+02  0.13432949962E+02 -0.31005075555E+03  0.31127724492E+03  0.00000000000E+00 0. -1.
         -2    1    3    3    0  502  0.24116551285E+02 -0.13432949962E+02 -0.30388061509E+02  0.41054676626E+02  0.00000000000E+00 0.  1.
<mgrwt>
<rscale>  0 0.90770010E+02</rscale>
<asrwt>0</asrwt>
<pdfrwt beam="2">  1        1 0.53290063E-01 0.90770010E+02</pdfrwt>
<pdfrwt beam="1">  1       -1 0.91485409E-03 0.90770010E+02</pdfrwt>
<totfact> 0.13316134E+05</totfact>
</mgrwt>
</event>
<event>
 5    1  0.3862918E+001  0.9102795E+02  0.7546771E-02  0.1300381E+00
          4   -1    0    0  501    0  0.00000000000E+00  0.00000000000E+00  0.97204779748E+01  0.97204779748E+01  0.00000000000E+00 0. -1.
         -4   -1    0    0    0  501 -0.00000000000E+00 -0.00000000000E+00 -0.21310906070E+03  0.21310906070E+03  0.00000000000E+00 0.  1.
         23    2    1    2    0    0  0.00000000000E+00  0.00000000000E+00 -0.20338858272E+03  0.22282953867E+03  0.91027950230E+02 0.  0.
          2    1    3    3  502    0 -0.40231284481E+02  0.20049904476E+02 -0.11917031313E+03  0.12736608046E+03  0.00000000000E+00 0. -1.
         -2    1    3    3    0  502  0.40231284481E+02 -0.20049904476E+02 -0.84218269596E+02  0.95463458215E+02  0.00000000000E+00 0.  1.
<mgrwt>
<rscale>  0 0.91027950E+02</rscale>
<asrwt>0</asrwt>
<pdfrwt beam="1">  1        4 0.14954583E-02 0.91027950E+02</pdfrwt>
<pdfrwt beam="2">  1       -4 0.32786006E-01 0.91027950E+02</pdfrwt>
<totfact> 0.20558692E+04</totfact>
</mgrwt>
</event>
<event>
 5    1  0.3862918E+001  0.9340585E+02  0.7546771E-02  0.1294807E+00
          1   -1    0    0  501    0  0.00000000000E+00  0.00000000000E+00  0.26390079750E+04  0.26390079750E+04  0.00000000000E+00 0. -1.
         -1   -1    0    0    0  501 -0.00000000000E+00 -0.00000000000E+00 -0.82650879125E+00  0.82650879125E+00  0.00000000000E+00 0.  1.
         23    2    1    2    0    0  0.00000000000E+00  0.00000000000E+00  0.26381814662E+04  0.26398344837E+04  0.93405851883E+02 0.  0.
          2    1    3    3  502    0 -0.43692155549E+02 -0.10279812982E+02  0.16837516572E+04  0.16843498218E+04  0.00000000000E+00 0. -1.
         -2    1    3    3    0  502  0.43692155549E+02  0.10279812982E+02  0.95442980895E+03  0.95548466196E+03  0.00000000000E+00 0.  1.
<mgrwt>
<rscale>  0 0.93405852E+02</rscale>
<asrwt>0</asrwt>
<pdfrwt beam="1">  1        1 0.40599448E+00 0.93405852E+02</pdfrwt>
<pdfrwt beam="2">  1       -1 0.12715731E-03 0.93405852E+02</pdfrwt>
<totfact> 0.42942333E+04</totfact>
</mgrwt>
</event>
<event>
 5    1  0.3862918E+001  0.9241866E+02  0.7546771E-02  0.1297098E+00
          2   -1    0    0  501    0  0.00000000000E+00  0.00000000000E+00  0.53255815460E+03  0.53255815460E+03  0.00000000000E+00 0. -1.
         -2   -1    0    0    0  501 -0.00000000000E+00 -0.00000000000E+00 -0.40095188336E+01  0.40095188336E+01  0.00000000000E+00 0.  1.
         23    2    1    2    0    0  0.00000000000E+00  0.00000000000E+00  0.52854863576E+03  0.53656767343E+03  0.92418655061E+02 0.  0.
          2    1    3    3  502    0  0.31522463419E+02 -0.10909406154E+02  0.44993598105E+03  0.45117077463E+03  0.00000000000E+00 0. -1.
         -2    1    3    3    0  502 -0.31522463419E+02  0.10909406154E+02  0.78612654716E+02  0.85396898796E+02  0.00000000000E+00 0.  1.
<mgrwt>
<rscale>  0 0.92418655E+02</rscale>
<asrwt>0</asrwt>
<pdfrwt beam="1">  1        2 0.81931968E-01 0.92418655E+02</pdfrwt>
<pdfrwt beam="2">  1       -2 0.61684947E-03 0.92418655E+02</pdfrwt>
<totfact> 0.21213787E+05</totfact>
</mgrwt>
</event>
<event>
 5    1  0.3862918E+001  0.8405890E+02  0.7546771E-02  0.1317912E+00
          1   -1    0    0  501    0  0.00000000000E+00  0.00000000000E+00  0.52922713656E+02  0.52922713656E+02  0.00000000000E+00 0. -1.
         -1   -1    0    0    0  501 -0.00000000000E+00 -0.00000000000E+00 -0.33378382832E+02  0.33378382832E+02  0.00000000000E+00 0.  1.
         23    2    1    2    0    0  0.00000000000E+00  0.00000000000E+00  0.19544330824E+02  0.86301096489E+02  0.84058898326E+02 0.  0.
          2    1    3    3  502    0 -0.30578856349E+01 -0.20301660299E+02  0.47424192013E+02  0.51677481204E+02  0.00000000000E+00 0. -1.
         -2    1    3    3    0  502  0.30578856349E+01  0.20301660299E+02 -0.27879861190E+02  0.34623615285E+02  0.00000000000E+00 0.  1.
<mgrwt>
<rscale>  0 0.84058898E+02</rscale>
<asrwt>0</asrwt>
<pdfrwt beam="1">  1        1 0.81419559E-02 0.84058898E+02</pdfrwt>
<pdfrwt beam="2">  1       -1 0.51351358E-02 0.84058898E+02</pdfrwt>
<totfact> 0.11843207E+05</totfact>
</mgrwt>
</event>
<event>
 5    1  0.3862918E+001  0.9209376E+02  0.7546771E-02  0.1297859E+00
         -1   -1    0    0    0  501 -0.00000000000E+00  0.00000000000E+00  0.69161992331E+00  0.69161992331E+00  0.00000000000E+00 0.  1.
          1   -1    0    0  501    0  0.00000000000E+00 -0.00000000000E+00 -0.30657233751E+04  0.30657233751E+04  0.00000000000E+00 0. -1.
         23    2    1    2    0    0  0.00000000000E+00  0.00000000000E+00 -0.30650317552E+04  0.30664149950E+04  0.92093764514E+02 0.  0.
          2    1    3    3  502    0  0.53118859427E+01 -0.44539089936E+02 -0.11858966599E+04  0.11867446375E+04  0.00000000000E+00 0. -1.
         -2    1    3    3    0  502 -0.53118859427E+01  0.44539089936E+02 -0.18791350953E+04  0.18796703576E+04  0.00000000000E+00 0.  1.
<mgrwt>
<rscale>  0 0.92093765E+02</rscale>
<asrwt>0</asrwt>
<pdfrwt beam="2">  1        1 0.47164580E+00 0.92093765E+02</pdfrwt>
<pdfrwt beam="1">  1       -1 0.10640396E-03 0.92093765E+02</pdfrwt>
<totfact> 0.28442998E+04</totfact>
</mgrwt>
</event>
<event>
 5    1  0.3862918E+001  0.9412918E+02  0.7546771E-02  0.1293150E+00
         -3   -1    0    0    0  501 -0.00000000000E+00  0.00000000000E+00  0.73099846958E+02  0.73099846958E+02  0.00000000000E+00 0.  1.
          3   -1    0    0  501    0  0.00000000000E+00 -0.00000000000E+00 -0.30302053890E+02  0.30302053890E+02  0.00000000000E+00 0. -1.
         23    2    1    2    0    0  0.00000000000E+00  0.00000000000E+00  0.42797793068E+02  0.10340190085E+03  0.94129177238E+02 0.  0.
          2    1    3    3  502    0  0.38154662894E+01  0.40364715735E+02 -0.48554485103E+01  0.40834341425E+02  0.00000000000E+00 0. -1.
         -2    1    3    3    0  502 -0.38154662894E+01 -0.40364715735E+02  0.47653241578E+02  0.62567559424E+02  0.00000000000E+00 0.  1.
<mgrwt>
<rscale>  0 0.94129177E+02</rscale>
<asrwt>0</asrwt>
<pdfrwt beam="2">  1        3 0.46618545E-02 0.94129177E+02</pdfrwt>
<pdfrwt beam="1">  1       -3 0.11246130E-01 0.94129177E+02</pdfrwt>
<totfact> 0.31553703E+04</totfact>
</mgrwt>
</event>
<event>
 5    1  0.3862918E+001  0.8958989E+02  0.7546771E-02  0.1303848E+00
         -2   -1    0    0    0  501 -0.00000000000E+00  0.00000000000E+00  0.28344877968E+01  0.28344877968E+01  0.00000000000E+00 0.  1.
          2   -1    0    0  501    0  0.00000000000E+00 -0.00000000000E+00 -0.70791879258E+03  0.70791879258E+03  0.00000000000E+00 0. -1.
         23    2    1    2    0    0  0.00000000000E+00  0.00000000000E+00 -0.70508430478E+03  0.71075328038E+03  0.89589891811E+02 0.  0.
          2    1    3    3  502    0 -0.23273062583E+02  0.25399118060E+02 -0.57969777742E+03  0.58072046958E+03  0.00000000000E+00 0. -1.
         -2    1    3    3    0  502  0.23273062583E+02 -0.25399118060E+02 -0.12538652736E+03  0.13003281080E+03  0.00000000000E+00 0.  1.
<mgrwt>
<rscale>  0 0.89589892E+02</rscale>
<asrwt>0</asrwt>
<pdfrwt beam="2">  1        2 0.10891056E+00 0.89589892E+02</pdfrwt>
<pdfrwt beam="1">  1       -2 0.43607514E-03 0.89589892E+02</pdfrwt>
<totfact> 0.24901635E+05</totfact>
</mgrwt>
</event>
<event>
 5    1  0.3862918E+001  0.9019372E+02  0.7546771E-02  0.1302383E+00
         -2   -1    0    0    0  501 -0.00000000000E+00  0.00000000000E+00  0.99649708470E+00  0.99649708470E+00  0.00000000000E+00 0.  1.
          2   -1    0    0  501    0  0.00000000000E+00 -0.00000000000E+00 -0.20408760107E+04  0.20408760107E+04  0.00000000000E+00 0. -1.
         23    2    1    2    0    0  0.00000000000E+00  0.00000000000E+00 -0.20398795137E+04  0.20418725078E+04  0.90193724725E+02 0.  0.
          2    1    3    3  502    0  0.69988392368E+01 -0.31882098267E+02 -0.17243921860E+04  0.17247010939E+04  0.00000000000E+00 0. -1.
         -2    1    3    3    0  502 -0.69988392368E+01  0.31882098267E+02 -0.31548732764E+03  0.31717141397E+03  0.00000000000E+00 0.  1.
<mgrwt>
<rscale>  0 0.90193725E+02</rscale>
<asrwt>0</asrwt>
<pdfrwt beam="2">  1        2 0.31397855E+00 0.90193725E+02</pdfrwt>
<pdfrwt beam="1">  1       -2 0.15330840E-03 0.90193725E+02</pdfrwt>
<totfact> 0.19864081E+05</totfact>
</mgrwt>
</event>
<event>
 5    1  0.3862918E+001  0.9442187E+02  0.7546771E-02  0.1292484E+00
         -1   -1    0    0    0  501 -0.00000000000E+00  0.00000000000E+00  0.65822160236E+02  0.65822160236E+02  0.00000000000E+00 0.  1.
          1   -1    0    0  501    0  0.00000000000E+00 -0.00000000000E+00 -0.33862034882E+02  0.33862034882E+02  0.00000000000E+00 0. -1.
         23    2    1    2    0    0  0.00000000000E+00  0.00000000000E+00  0.31960125354E+02  0.99684195119E+02  0.94421867932E+02 0.  0.
          2    1    3    3  502    0 -0.14670499479E+02  0.38145343353E+02  0.40931582107E+02  0.57841898208E+02  0.00000000000E+00 0.  1.
         -2    1    3    3    0  502  0.14670499479E+02 -0.38145343353E+02 -0.89714567527E+01  0.41842296911E+02  0.00000000000E+00 0. -1.
<mgrwt>
<rscale>  0 0.94421868E+02</rscale>
<asrwt>0</asrwt>
<pdfrwt beam="2">  1        1 0.52095438E-02 0.94421868E+02</pdfrwt>
<pdfrwt beam="1">  1       -1 0.10126486E-01 0.94421868E+02</pdfrwt>
<totfact> 0.79950087E+04</totfact>
</mgrwt>
</event>
<event>
 5    1  0.3862918E+001  0.8964649E+02  0.7546771E-02  0.1303710E+00
         -2   -1    0    0    0  501 -0.00000000000E+00  0.00000000000E+00  0.14967443478E+01  0.14967443478E+01  0.00000000000E+00 0.  1.
          2   -1    0    0  501    0  0.00000000000E+00 -0.00000000000E+00 -0.13423291051E+04  0.13423291051E+04  0.00000000000E+00 0. -1.
         23    2    1    2    0    0  0.00000000000E+00  0.00000000000E+00 -0.13408323608E+04  0.13438258495E+04  0.89646494656E+02 0.  0.
          2    1    3    3  502    0 -0.13110833256E+02  0.40828466406E+02 -0.86601827276E+03  0.86707929647E+03  0.00000000000E+00 0. -1.
         -2    1    3    3    0  502  0.13110833256E+02 -0.40828466406E+02 -0.47481408804E+03  0.47674655302E+03  0.00000000000E+00 0.  1.
<mgrwt>
<rscale>  0 0.89646495E+02</rscale>
<asrwt>0</asrwt>
<pdfrwt beam="2">  1        2 0.20651193E+00 0.89646495E+02</pdfrwt>
<pdfrwt beam="1">  1       -2 0.23026863E-03 0.89646495E+02</pdfrwt>
<totfact> 0.25514274E+05</totfact>
</mgrwt>
</event>
<event>
 5    1  0.3862918E+001  0.9176722E+02  0.7546771E-02  0.1298628E+00
         -2   -1    0    0    0  501 -0.00000000000E+00  0.00000000000E+00  0.29472145927E+01  0.29472145927E+01  0.00000000000E+00 0.  1.
          2   -1    0    0  501    0  0.00000000000E+00 -0.00000000000E+00 -0.71433738317E+03  0.71433738317E+03  0.00000000000E+00 0. -1.
         23    2    1    2    0    0  0.00000000000E+00  0.00000000000E+00 -0.71139016858E+03  0.71728459777E+03  0.91767217672E+02 0.  0.
          2    1    3    3  502    0  0.38469695688E+02  0.45094078127E+01 -0.54796031935E+03  0.54932755604E+03  0.00000000000E+00 0. -1.
         -2    1    3    3    0  502 -0.38469695688E+02 -0.45094078127E+01 -0.16342984923E+03  0.16795704173E+03  0.00000000000E+00 0.  1.
<mgrwt>
<rscale>  0 0.91767218E+02</rscale>
<asrwt>0</asrwt>
<pdfrwt beam="2">  1        2 0.10989807E+00 0.91767218E+02</pdfrwt>
<pdfrwt beam="1">  1       -2 0.45341760E-03 0.91767218E+02</pdfrwt>
<totfact> 0.23422372E+05</totfact>
</mgrwt>
</event>
<event>
 5    1  0.3862918E+001  0.9091150E+02  0.7546771E-02  0.1300659E+00
          2   -1    0    0  501    0  0.00000000000E+00  0.00000000000E+00  0.13250025078E+02  0.13250025078E+02  0.00000000000E+00 0. -1.
         -2   -1    0    0    0  501 -0.00000000000E+00 -0.00000000000E+00 -0.15594124649E+03  0.15594124649E+03  0.00000000000E+00 0.  1.
         23    2    1    2    0    0  0.00000000000E+00  0.00000000000E+00 -0.14269122141E+03  0.16919127157E+03  0.90911504810E+02 0.  0.
          2    1    3    3  502    0  0.34117572620E+02 -0.11807501681E+02 -0.19945467675E+02  0.41246182104E+02  0.00000000000E+00 0. -1.
         -2    1    3    3    0  502 -0.34117572620E+02  0.11807501681E+02 -0.12274575374E+03  0.12794508947E+03  0.00000000000E+00 0.  1.
<mgrwt>
<rscale>  0 0.90911505E+02</rscale>
<asrwt>0</asrwt>
<pdfrwt beam="1">  1        2 0.20384654E-02 0.90911505E+02</pdfrwt>
<pdfrwt beam="2">  1       -2 0.23990961E-01 0.90911505E+02</pdfrwt>
<totfact> 0.69375719E+04</totfact>
</mgrwt>
</event>
<event>
 5    1  0.3862918E+001  0.9120806E+02  0.7546771E-02  0.1299952E+00
         -1   -1    0    0    0  501 -0.00000000000E+00  0.00000000000E+00  0.14598634409E+01  0.14598634409E+01  0.00000000000E+00 0.  1.
          1   -1    0    0  501    0  0.00000000000E+00 -0.00000000000E+00 -0.14246040575E+04  0.14246040575E+04  0.00000000000E+00 0. -1.
         23    2    1    2    0    0  0.00000000000E+00  0.00000000000E+00 -0.14231441940E+04  0.14260639209E+04  0.91208056253E+02 0.  0.
          2    1    3    3  502    0 -0.18546183254E+02 -0.19380758761E+02 -0.12882052647E+04  0.12884845280E+04  0.00000000000E+00 0. -1.
         -2    1    3    3    0  502  0.18546183254E+02  0.19380758761E+02 -0.13493892931E+03  0.13757939296E+03  0.00000000000E+00 0.  1.
<mgrwt>
<rscale>  0 0.91208056E+02</rscale>
<asrwt>0</asrwt>
<pdfrwt beam="2">  1        1 0.21917000E+00 0.91208056E+02</pdfrwt>
<pdfrwt beam="1">  1       -1 0.22459422E-03 0.91208056E+02</pdfrwt>
<totfact> 0.11489350E+05</totfact>
</mgrwt>
</event>
<event>
 5    1  0.3862918E+001  0.8989618E+02  0.7546771E-02  0.1303103E+00
         -2   -1    0    0    0  501 -0.00000000000E+00  0.00000000000E+00  0.29427886476E+02  0.29427886476E+02  0.00000000000E+00 0. -1.
          2   -1    0    0  501    0  0.00000000000E+00 -0.00000000000E+00 -0.68653617002E+02  0.68653617002E+02  0.00000000000E+00 0.  1.
         23    2    1    2    0    0  0.00000000000E+00  0.00000000000E+00 -0.39225730527E+02  0.98081503478E+02  0.89896181171E+02 0.  0.
          2    1    3    3  502    0 -0.18585427743E+02 -0.15421458826E+02  0.21747851481E+02  0.32499362467E+02  0.00000000000E+00 0. -1.
         -2    1    3    3    0  502  0.18585427743E+02  0.15421458826E+02 -0.60973582008E+02  0.65582141011E+02  0.00000000000E+00 0.  1.
<mgrwt>
<rscale>  0 0.89896181E+02</rscale>
<asrwt>0</asrwt>
<pdfrwt beam="2">  1        2 0.10562095E-01 0.89896181E+02</pdfrwt>
<pdfrwt beam="1">  1       -2 0.45273672E-02 0.89896181E+02</pdfrwt>
<totfact> 0.11446439E+05</totfact>
</mgrwt>
</event>
<event>
 5    1  0.3862918E+001  0.8976099E+02  0.7546771E-02  0.1303432E+00
          1   -1    0    0  501    0  0.00000000000E+00  0.00000000000E+00  0.15326916027E+03  0.15326916027E+03  0.00000000000E+00 0. -1.
         -1   -1    0    0    0  501 -0.00000000000E+00 -0.00000000000E+00 -0.13141970063E+02  0.13141970063E+02  0.00000000000E+00 0.  1.
         23    2    1    2    0    0  0.00000000000E+00  0.00000000000E+00  0.14012719021E+03  0.16641113034E+03  0.89760987425E+02 0.  0.
          2    1    3    3  502    0 -0.26818211838E+02 -0.32128637613E+02  0.10011754389E+03  0.10851261879E+03  0.00000000000E+00 0. -1.
         -2    1    3    3    0  502  0.26818211838E+02  0.32128637613E+02  0.40009646316E+02  0.57898511547E+02  0.00000000000E+00 0.  1.
<mgrwt>
<rscale>  0 0.89760987E+02</rscale>
<asrwt>0</asrwt>
<pdfrwt beam="1">  1        1 0.23579870E-01 0.89760987E+02</pdfrwt>
<pdfrwt beam="2">  1       -1 0.20218417E-02 0.89760987E+02</pdfrwt>
<totfact> 0.11742386E+05</totfact>
</mgrwt>
</event>
<event>
 5    1  0.3862918E+001  0.9026220E+02  0.7546771E-02  0.1302218E+00
          1   -1    0    0  501    0  0.00000000000E+00  0.00000000000E+00  0.33647369256E+03  0.33647369256E+03  0.00000000000E+00 0. -1.
         -1   -1    0    0    0  501 -0.00000000000E+00 -0.00000000000E+00 -0.60534187987E+01  0.60534187987E+01  0.00000000000E+00 0.  1.
         23    2    1    2    0    0  0.00000000000E+00  0.00000000000E+00  0.33042027376E+03  0.34252711136E+03  0.90262199747E+02 0.  0.
          2    1    3    3  502    0  0.16758182558E+02  0.39843104842E+02  0.21447047114E+03  0.21878275224E+03  0.00000000000E+00 0. -1.
         -2    1    3    3    0  502 -0.16758182558E+02 -0.39843104842E+02  0.11594980262E+03  0.12374435912E+03  0.00000000000E+00 0.  1.
<mgrwt>
<rscale>  0 0.90262200E+02</rscale>
<asrwt>0</asrwt>
<pdfrwt beam="1">  1        1 0.51765169E-01 0.90262200E+02</pdfrwt>
<pdfrwt beam="2">  1       -1 0.93129546E-03 0.90262200E+02</pdfrwt>
<totfact> 0.13445332E+05</totfact>
</mgrwt>
</event>
<event>
 5    1  0.3862918E+001  0.9219251E+02  0.7546771E-02  0.1297627E+00
          1   -1    0    0  501    0  0.00000000000E+00  0.00000000000E+00  0.16962167977E+04  0.16962167977E+04  0.00000000000E+00 0. -1.
         -1   -1    0    0    0  501 -0.00000000000E+00 -0.00000000000E+00 -0.12527083211E+01  0.12527083211E+01  0.00000000000E+00 0.  1.
         23    2    1    2    0    0  0.00000000000E+00  0.00000000000E+00  0.16949640894E+04  0.16974695060E+04  0.92192513728E+02 0.  0.
          2    1    3    3  502    0 -0.25768809313E+02  0.14784312551E+02  0.19853070653E+03  0.20074124854E+03  0.00000000000E+00 0.  1.
         -2    1    3    3    0  502  0.25768809313E+02 -0.14784312551E+02  0.14964333828E+04  0.14967282575E+04  0.00000000000E+00 0. -1.
<mgrwt>
<rscale>  0 0.92192514E+02</rscale>
<asrwt>0</asrwt>
<pdfrwt beam="1">  1        1 0.26095459E+00 0.92192514E+02</pdfrwt>
<pdfrwt beam="2">  1       -1 0.19272571E-03 0.92192514E+02</pdfrwt>
<totfact> 0.95586652E+04</totfact>
</mgrwt>
</event>
<event>
 5    1  0.3862918E+001  0.8956765E+02  0.7546771E-02  0.1303902E+00
         -1   -1    0    0    0  501 -0.00000000000E+00  0.00000000000E+00  0.61113159145E+02  0.61113159145E+02  0.00000000000E+00 0.  1.
          1   -1    0    0  501    0  0.00000000000E+00 -0.00000000000E+00 -0.32817664722E+02  0.32817664722E+02  0.00000000000E+00 0. -1.
         23    2    1    2    0    0  0.00000000000E+00  0.00000000000E+00  0.28295494423E+02  0.93930823866E+02  0.89567654137E+02 0.  0.
          2    1    3    3  502    0  0.20750919107E+02  0.33402069266E+02  0.36622840870E+02  0.53735754842E+02  0.00000000000E+00 0.  1.
         -2    1    3    3    0  502 -0.20750919107E+02 -0.33402069266E+02 -0.83273464469E+01  0.40195069025E+02  0.00000000000E+00 0. -1.
<mgrwt>
<rscale>  0 0.89567654E+02</rscale>
<asrwt>0</asrwt>
<pdfrwt beam="2">  1        1 0.50488715E-02 0.89567654E+02</pdfrwt>
<pdfrwt beam="1">  1       -1 0.94020245E-02 0.89567654E+02</pdfrwt>
<totfact> 0.92509064E+04</totfact>
</mgrwt>
</event>
<event>
 5    1  0.3862918E+001  0.9129703E+02  0.7546771E-02  0.1299741E+00
          4   -1    0    0  501    0  0.00000000000E+00  0.00000000000E+00  0.11598477816E+03  0.11598477816E+03  0.00000000000E+00 0. -1.
         -4   -1    0    0    0  501 -0.00000000000E+00 -0.00000000000E+00 -0.17966038720E+02  0.17966038720E+02  0.00000000000E+00 0.  1.
         23    2    1    2    0    0  0.00000000000E+00  0.00000000000E+00  0.98018739436E+02  0.13395081688E+03  0.91297032051E+02 0.  0.
          2    1    3    3  502    0  0.38947717115E+02 -0.17006595596E+01  0.83852466588E+02  0.92471904189E+02  0.00000000000E+00 0. -1.
         -2    1    3    3    0  502 -0.38947717115E+02  0.17006595596E+01  0.14166272848E+02  0.41478912688E+02  0.00000000000E+00 0.  1.
<mgrwt>
<rscale>  0 0.91297032E+02</rscale>
<asrwt>0</asrwt>
<pdfrwt beam="1">  1        4 0.17843812E-01 0.91297032E+02</pdfrwt>
<pdfrwt beam="2">  1       -4 0.27640060E-02 0.91297032E+02</pdfrwt>
<totfact> 0.24417757E+04</totfact>
</mgrwt>
</event>
<event>
 5    1  0.3862918E+001  0.9180811E+02  0.7546771E-02  0.1298531E+00
         -1   -1    0    0    0  501 -0.00000000000E+00  0.00000000000E+00  0.23559132335E+02  0.23559132335E+02  0.00000000000E+00 0.  1.
          1   -1    0    0  501    0  0.00000000000E+00 -0.00000000000E+00 -0.89442260603E+02  0.89442260603E+02  0.00000000000E+00 0. -1.
         23    2    1    2    0    0  0.00000000000E+00  0.00000000000E+00 -0.65883128269E+02  0.11300139294E+03  0.91808105390E+02 0.  0.
          2    1    3    3  502    0  0.40500634841E+02  0.43324841207E+01 -0.58996811025E+02  0.71691670034E+02  0.00000000000E+00 0. -1.
         -2    1    3    3    0  502 -0.40500634841E+02 -0.43324841207E+01 -0.68863172439E+01  0.41309722904E+02  0.00000000000E+00 0.  1.
<mgrwt>
<rscale>  0 0.91808105E+02</rscale>
<asrwt>0</asrwt>
<pdfrwt beam="2">  1        1 0.13760348E-01 0.91808105E+02</pdfrwt>
<pdfrwt beam="1">  1       -1 0.36244819E-02 0.91808105E+02</pdfrwt>
<totfact> 0.10063709E+05</totfact>
</mgrwt>
</event>
<event>
 5    1  0.3862918E+001  0.9008790E+02  0.7546771E-02  0.1302639E+00
         -3   -1    0    0    0  501 -0.00000000000E+00  0.00000000000E+00  0.77720510985E+03  0.77720510985E+03  0.00000000000E+00 0.  1.
          3   -1    0    0  501    0  0.00000000000E+00 -0.00000000000E+00 -0.26105817707E+01  0.26105817707E+01  0.00000000000E+00 0. -1.
         23    2    1    2    0    0  0.00000000000E+00  0.00000000000E+00  0.77459452808E+03  0.77981569162E+03  0.90087901338E+02 0.  0.
          2    1    3    3  502    0  0.32605185903E+02 -0.29925044523E+02  0.31469322099E+03  0.31778991452E+03  0.00000000000E+00 0. -1.
         -2    1    3    3    0  502 -0.32605185903E+02  0.29925044523E+02  0.45990130709E+03  0.46202577710E+03  0.00000000000E+00 0.  1.
<mgrwt>
<rscale>  0 0.90087901E+02</rscale>
<asrwt>0</asrwt>
<pdfrwt beam="2">  1        3 0.40162859E-03 0.90087901E+02</pdfrwt>
<pdfrwt beam="1">  1       -3 0.11956983E+00 0.90087901E+02</pdfrwt>
<totfact> 0.13073111E+04</totfact>
</mgrwt>
</event>
<event>
 5    1  0.3862918E+001  0.9741179E+02  0.7546771E-02  0.1285835E+00
         -3   -1    0    0    0  501 -0.00000000000E+00  0.00000000000E+00  0.23083712449E+02  0.23083712449E+02  0.00000000000E+00 0.  1.
          3   -1    0    0  501    0  0.00000000000E+00 -0.00000000000E+00 -0.10276787387E+03  0.10276787387E+03  0.00000000000E+00 0. -1.
         23    2    1    2    0    0  0.00000000000E+00  0.00000000000E+00 -0.79684161421E+02  0.12585158632E+03  0.97411786748E+02 0.  0.
          2    1    3    3  502    0 -0.40321142514E+02  0.23590579417E+02 -0.57648290920E+02  0.74199969116E+02  0.00000000000E+00 0. -1.
         -2    1    3    3    0  502  0.40321142514E+02 -0.23590579417E+02 -0.22035870501E+02  0.51651617202E+02  0.00000000000E+00 0.  1.
<mgrwt>
<rscale>  0 0.97411787E+02</rscale>
<asrwt>0</asrwt>
<pdfrwt beam="2">  1        3 0.15810442E-01 0.97411787E+02</pdfrwt>
<pdfrwt beam="1">  1       -3 0.35513404E-02 0.97411787E+02</pdfrwt>
<totfact> 0.27426127E+04</totfact>
</mgrwt>
</event>
<event>
 5    1  0.3862918E+001  0.9263043E+02  0.7546771E-02  0.1296604E+00
          1   -1    0    0  501    0  0.00000000000E+00  0.00000000000E+00  0.83508611695E+02  0.83508611695E+02  0.00000000000E+00 0. -1.
         -1   -1    0    0    0  501 -0.00000000000E+00 -0.00000000000E+00 -0.25687160831E+02  0.25687160831E+02  0.00000000000E+00 0.  1.
         23    2    1    2    0    0  0.00000000000E+00  0.00000000000E+00  0.57821450864E+02  0.10919577253E+03  0.92630429975E+02 0.  0.
          2    1    3    3  502    0  0.36852238043E+02 -0.24329883911E+01  0.61856772290E+02  0.72043508795E+02  0.00000000000E+00 0. -1.
         -2    1    3    3    0  502 -0.36852238043E+02  0.24329883911E+01 -0.40353214261E+01  0.37152263731E+02  0.00000000000E+00 0.  1.
<mgrwt>
<rscale>  0 0.92630430E+02</rscale>
<asrwt>0</asrwt>
<pdfrwt beam="1">  1        1 0.12847479E-01 0.92630430E+02</pdfrwt>
<pdfrwt beam="2">  1       -1 0.39518709E-02 0.92630430E+02</pdfrwt>
<totfact> 0.97120129E+04</totfact>
</mgrwt>
</event>
<event>
 5    1  0.3862918E+001  0.9200617E+02  0.7546771E-02  0.1298065E+00
         -2   -1    0    0    0  501 -0.00000000000E+00  0.00000000000E+00  0.70291902915E+01  0.70291902915E+01  0.00000000000E+00 0.  1.
          2   -1    0    0  501    0  0.00000000000E+00 -0.00000000000E+00 -0.30107076011E+03  0.30107076011E+03  0.00000000000E+00 0. -1.
         23    2    1    2    0    0  0.00000000000E+00  0.00000000000E+00 -0.29404156982E+03  0.30809995040E+03  0.92006166403E+02 0.  0.
          2    1    3    3  502    0 -0.19191394791E+02  0.92267868107E+01 -0.10468182503E+02  0.23728170469E+02  0.00000000000E+00 0.  1.
         -2    1    3    3    0  502  0.19191394791E+02 -0.92267868107E+01 -0.28357338732E+03  0.28437177993E+03  0.00000000000E+00 0. -1.
<mgrwt>
<rscale>  0 0.92006166E+02</rscale>
<asrwt>0</asrwt>
<pdfrwt beam="2">  1        2 0.46318584E-01 0.92006166E+02</pdfrwt>
<pdfrwt beam="1">  1       -2 0.10814138E-02 0.92006166E+02</pdfrwt>
<totfact> 0.17559989E+05</totfact>
</mgrwt>
</event>
<event>
 4    1  0.3862918E+001  0.5306839E+02  0.7546771E-02  0.1429461E+00
         -2   -1    0    0    0  501 -0.00000000000E+00  0.00000000000E+00  0.79139004258E+00  0.79139004258E+00  0.00000000000E+00 0.  1.
          2   -1    0    0  501    0  0.00000000000E+00 -0.00000000000E+00 -0.88965439848E+03  0.88965439848E+03  0.00000000000E+00 0. -1.
          2    1    1    2  502    0  0.45133228912E+01  0.21221384106E+02 -0.18811764470E+03  0.18936463629E+03  0.00000000000E+00 0.  1.
         -2    1    1    2    0  502 -0.45133228912E+01 -0.21221384106E+02 -0.70074536373E+03  0.70108115224E+03  0.00000000000E+00 0. -1.
<mgrwt>
<rscale>  0 0.53068395E+02</rscale>
<asrwt>0</asrwt>
<pdfrwt beam="2">  1        2 0.13686960E+00 0.53068395E+02</pdfrwt>
<pdfrwt beam="1">  1       -2 0.12175259E-03 0.53068395E+02</pdfrwt>
<totfact> 0.98972672E+05</totfact>
</mgrwt>
</event>
<event>
 5    1  0.3862918E+001  0.9331275E+02  0.7546771E-02  0.1295022E+00
          3   -1    0    0  501    0  0.00000000000E+00  0.00000000000E+00  0.54800334495E+03  0.54800334495E+03  0.00000000000E+00 0. -1.
         -3   -1    0    0    0  501 -0.00000000000E+00 -0.00000000000E+00 -0.39722698426E+01  0.39722698426E+01  0.00000000000E+00 0.  1.
         23    2    1    2    0    0  0.00000000000E+00  0.00000000000E+00  0.54403107511E+03  0.55197561480E+03  0.93312746413E+02 0.  0.
          2    1    3    3  502    0 -0.34600954125E+02 -0.26252826701E+02  0.17121509510E+03  0.17663817744E+03  0.00000000000E+00 0.  1.
         -2    1    3    3    0  502  0.34600954125E+02  0.26252826701E+02  0.37281598001E+03  0.37533743736E+03  0.00000000000E+00 0. -1.
<mgrwt>
<rscale>  0 0.93312746E+02</rscale>
<asrwt>0</asrwt>
<pdfrwt beam="1">  1        3 0.84308147E-01 0.93312746E+02</pdfrwt>
<pdfrwt beam="2">  1       -3 0.61111887E-03 0.93312746E+02</pdfrwt>
<totfact> 0.15717698E+04</totfact>
</mgrwt>
</event>
<event>
 5    1  0.3862918E+001  0.9023177E+02  0.7546771E-02  0.1302291E+00
         -1   -1    0    0    0  501 -0.00000000000E+00  0.00000000000E+00  0.16009975535E+02  0.16009975535E+02  0.00000000000E+00 0.  1.
          1   -1    0    0  501    0  0.00000000000E+00 -0.00000000000E+00 -0.12713592979E+03  0.12713592979E+03  0.00000000000E+00 0. -1.
         23    2    1    2    0    0  0.00000000000E+00  0.00000000000E+00 -0.11112595425E+03  0.14314590532E+03  0.90231771023E+02 0.  0.
          2    1    3    3  502    0  0.29410561878E+02  0.15043137793E+02 -0.10430949771E+03  0.10941548546E+03  0.00000000000E+00 0. -1.
         -2    1    3    3    0  502 -0.29410561878E+02 -0.15043137793E+02 -0.68164565409E+01  0.33730419867E+02  0.00000000000E+00 0.  1.
<mgrwt>
<rscale>  0 0.90231771E+02</rscale>
<asrwt>0</asrwt>
<pdfrwt beam="2">  1        1 0.19559374E-01 0.90231771E+02</pdfrwt>
<pdfrwt beam="1">  1       -1 0.24630732E-02 0.90231771E+02</pdfrwt>
<totfact> 0.11194708E+05</totfact>
</mgrwt>
</event>
<event>
 5    1  0.3862918E+001  0.9200310E+02  0.7546771E-02  0.1298072E+00
          1   -1    0    0  501    0  0.00000000000E+00  0.00000000000E+00  0.38105398840E+03  0.38105398840E+03  0.00000000000E+00 0. -1.
         -1   -1    0    0    0  501 -0.00000000000E+00 -0.00000000000E+00 -0.55533937015E+01  0.55533937015E+01  0.00000000000E+00 0.  1.
         23    2    1    2    0    0  0.00000000000E+00  0.00000000000E+00  0.37550059469E+03  0.38660738210E+03  0.92003104710E+02 0.  0.
          2    1    3    3  502    0 -0.30814214302E+02 -0.16266024581E+02  0.31395670073E+03  0.31588432897E+03  0.00000000000E+00 0. -1.
         -2    1    3    3    0  502  0.30814214302E+02  0.16266024581E+02  0.61543893968E+02  0.70723053126E+02  0.00000000000E+00 0.  1.
<mgrwt>
<rscale>  0 0.92003105E+02</rscale>
<asrwt>0</asrwt>
<pdfrwt beam="1">  1        1 0.58623670E-01 0.92003105E+02</pdfrwt>
<pdfrwt beam="2">  1       -1 0.85436856E-03 0.92003105E+02</pdfrwt>
<totfact> 0.13062966E+05</totfact>
</mgrwt>
</event>
<event>
 5    1  0.3862918E+001  0.9168717E+02  0.7546771E-02  0.1298817E+00
          2   -1    0    0  501    0  0.00000000000E+00  0.00000000000E+00  0.31921952976E+01  0.31921952976E+01  0.00000000000E+00 0. -1.
         -2   -1    0    0    0  501 -0.00000000000E+00 -0.00000000000E+00 -0.65836651412E+03  0.65836651412E+03  0.00000000000E+00 0.  1.
         23    2    1    2    0    0  0.00000000000E+00  0.00000000000E+00 -0.65517431882E+03  0.66155870942E+03  0.91687174468E+02 0.  0.
          2    1    3    3  502    0  0.41017875758E+02  0.70113045996E+01 -0.46637982390E+03  0.46823259675E+03  0.00000000000E+00 0. -1.
         -2    1    3    3    0  502 -0.41017875758E+02 -0.70113045996E+01 -0.18879449493E+03  0.19332611267E+03  0.00000000000E+00 0.  1.
<mgrwt>
<rscale>  0 0.91687174E+02</rscale>
<asrwt>0</asrwt>
<pdfrwt beam="1">  1        2 0.49110689E-03 0.91687174E+02</pdfrwt>
<pdfrwt beam="2">  1       -2 0.10128717E+00 0.91687174E+02</pdfrwt>
<totfact> 0.28371135E+04</totfact>
</mgrwt>
</event>
<event>
 5    1  0.3862918E+001  0.9156907E+02  0.7546771E-02  0.1299096E+00
         -2   -1    0    0    0  501 -0.00000000000E+00  0.00000000000E+00  0.37171771529E+03  0.37171771529E+03  0.00000000000E+00 0.  1.
          2   -1    0    0  501    0  0.00000000000E+00 -0.00000000000E+00 -0.56392894823E+01  0.56392894823E+01  0.00000000000E+00 0. -1.
         23    2    1    2    0    0  0.00000000000E+00  0.00000000000E+00  0.36607842581E+03  0.37735700477E+03  0.91569073430E+02 0.  0.
          2    1    3    3  502    0  0.14692398539E+02  0.18265439713E+02  0.20966096545E+02  0.31449484369E+02  0.00000000000E+00 0. -1.
         -2    1    3    3    0  502 -0.14692398539E+02 -0.18265439713E+02  0.34511232926E+03  0.34590752040E+03  0.00000000000E+00 0.  1.
<mgrwt>
<rscale>  0 0.91569073E+02</rscale>
<asrwt>0</asrwt>
<pdfrwt beam="2">  1        2 0.86758329E-03 0.91569073E+02</pdfrwt>
<pdfrwt beam="1">  1       -2 0.57187322E-01 0.91569073E+02</pdfrwt>
<totfact> 0.44317768E+04</totfact>
</mgrwt>
</event>
<event>
 5    1  0.3862918E+001  0.9229898E+02  0.7546771E-02  0.1297378E+00
         -2   -1    0    0    0  501 -0.00000000000E+00  0.00000000000E+00  0.56029856635E+01  0.56029856635E+01  0.00000000000E+00 0.  1.
          2   -1    0    0  501    0  0.00000000000E+00 -0.00000000000E+00 -0.38011437761E+03  0.38011437761E+03  0.00000000000E+00 0. -1.
         23    2    1    2    0    0  0.00000000000E+00  0.00000000000E+00 -0.37451139195E+03  0.38571736327E+03  0.92298979588E+02 0.  0.
          2    1    3    3  502    0 -0.55381603216E+01 -0.38136702252E+02 -0.29336410947E+03  0.29588440311E+03  0.00000000000E+00 0. -1.
         -2    1    3    3    0  502  0.55381603216E+01  0.38136702252E+02 -0.81147282474E+02  0.89832960161E+02  0.00000000000E+00 0.  1.
<mgrwt>
<rscale>  0 0.92298980E+02</rscale>
<asrwt>0</asrwt>
<pdfrwt beam="2">  1        2 0.58479141E-01 0.92298980E+02</pdfrwt>
<pdfrwt beam="1">  1       -2 0.86199770E-03 0.92298980E+02</pdfrwt>
<totfact> 0.18971929E+05</totfact>
</mgrwt>
</event>
<event>
 5    1  0.3862918E+001  0.9085960E+02  0.7546771E-02  0.1300783E+00
         -1   -1    0    0    0  501 -0.00000000000E+00  0.00000000000E+00  0.27307308925E+01  0.27307308925E+01  0.00000000000E+00 0.  1.
          1   -1    0    0  501    0  0.00000000000E+00 -0.00000000000E+00 -0.75579284575E+03  0.75579284575E+03  0.00000000000E+00 0. -1.
         23    2    1    2    0    0  0.00000000000E+00  0.00000000000E+00 -0.75306211486E+03  0.75852357664E+03  0.90859603174E+02 0.  0.
          2    1    3    3  502    0  0.26831042902E+02  0.30488903911E+02 -0.54647364450E+03  0.54798076815E+03  0.00000000000E+00 0. -1.
         -2    1    3    3    0  502 -0.26831042902E+02 -0.30488903911E+02 -0.20658847035E+03  0.21054280849E+03  0.00000000000E+00 0.  1.
<mgrwt>
<rscale>  0 0.90859603E+02</rscale>
<asrwt>0</asrwt>
<pdfrwt beam="2">  1        1 0.11627582E+00 0.90859603E+02</pdfrwt>
<pdfrwt beam="1">  1       -1 0.42011246E-03 0.90859603E+02</pdfrwt>
<totfact> 0.14316700E+05</totfact>
</mgrwt>
</event>
<event>
 5    1  0.3862918E+001  0.9001041E+02  0.7546771E-02  0.1302826E+00
         -3   -1    0    0    0  501 -0.00000000000E+00  0.00000000000E+00  0.18475867138E+02  0.18475867138E+02  0.00000000000E+00 0.  1.
          3   -1    0    0  501    0  0.00000000000E+00 -0.00000000000E+00 -0.10962778304E+03  0.10962778304E+03  0.00000000000E+00 0. -1.
         23    2    1    2    0    0  0.00000000000E+00  0.00000000000E+00 -0.91151915898E+02  0.12810365017E+03  0.90010407266E+02 0.  0.
          2    1    3    3  502    0  0.61835885760E+01 -0.30212611167E+02 -0.92226616934E+02  0.97246015406E+02  0.00000000000E+00 0. -1.
         -2    1    3    3    0  502 -0.61835885760E+01  0.30212611167E+02  0.10747010359E+01  0.30857634769E+02  0.00000000000E+00 0.  1.
<mgrwt>
<rscale>  0 0.90010407E+02</rscale>
<asrwt>0</asrwt>
<pdfrwt beam="2">  1        3 0.16865813E-01 0.90010407E+02</pdfrwt>
<pdfrwt beam="1">  1       -3 0.28424411E-02 0.90010407E+02</pdfrwt>
<totfact> 0.33861219E+04</totfact>
</mgrwt>
</event>
<event>
 5    1  0.3862918E+001  0.9227621E+02  0.7546771E-02  0.1297431E+00
          1   -1    0    0  501    0  0.00000000000E+00  0.00000000000E+00  0.15228667539E+04  0.15228667539E+04  0.00000000000E+00 0. -1.
         -1   -1    0    0    0  501 -0.00000000000E+00 -0.00000000000E+00 -0.13978405135E+01  0.13978405135E+01  0.00000000000E+00 0.  1.
         23    2    1    2    0    0  0.00000000000E+00  0.00000000000E+00  0.15214689134E+04  0.15242645944E+04  0.92276212433E+02 0.  0.
          2    1    3    3  502    0 -0.18750932863E+02 -0.22533407952E+02  0.13492598563E+04  0.13495782718E+04  0.00000000000E+00 0. -1.
         -2    1    3    3    0  502  0.18750932863E+02  0.22533407952E+02  0.17220905708E+03  0.17468632258E+03  0.00000000000E+00 0.  1.
<mgrwt>
<rscale>  0 0.92276212E+02</rscale>
<asrwt>0</asrwt>
<pdfrwt beam="1">  1        1 0.23428587E+00 0.92276212E+02</pdfrwt>
<pdfrwt beam="2">  1       -1 0.21505360E-03 0.92276212E+02</pdfrwt>
<totfact> 0.10571731E+05</totfact>
</mgrwt>
</event>
<event>
 5    1  0.3862918E+001  0.9158145E+02  0.7546771E-02  0.1299067E+00
          1   -1    0    0  501    0  0.00000000000E+00  0.00000000000E+00  0.25280731620E+02  0.25280731620E+02  0.00000000000E+00 0. -1.
         -1   -1    0    0    0  501 -0.00000000000E+00 -0.00000000000E+00 -0.82940261032E+02  0.82940261032E+02  0.00000000000E+00 0.  1.
         23    2    1    2    0    0  0.00000000000E+00  0.00000000000E+00 -0.57659529412E+02  0.10822099265E+03  0.91581449643E+02 0.  0.
          2    1    3    3  502    0  0.31181691374E+02 -0.32418213529E+02 -0.18695287644E+02  0.48710904584E+02  0.00000000000E+00 0. -1.
         -2    1    3    3    0  502 -0.31181691374E+02  0.32418213529E+02 -0.38964241767E+02  0.59510088068E+02  0.00000000000E+00 0.  1.
<mgrwt>
<rscale>  0 0.91581450E+02</rscale>
<asrwt>0</asrwt>
<pdfrwt beam="1">  1        1 0.38893433E-02 0.91581450E+02</pdfrwt>
<pdfrwt beam="2">  1       -1 0.12760040E-01 0.91581450E+02</pdfrwt>
<totfact> 0.83181879E+04</totfact>
</mgrwt>
</event>
<event>
 5    1  0.3862918E+001  0.9498101E+02  0.7546771E-02  0.1291219E+00
         -2   -1    0    0    0  501 -0.00000000000E+00  0.00000000000E+00  0.33659619719E+02  0.33659619719E+02  0.00000000000E+00 0.  1.
          2   -1    0    0  501    0  0.00000000000E+00 -0.00000000000E+00 -0.67004567630E+02  0.67004567630E+02  0.00000000000E+00 0. -1.
         23    2    1    2    0    0  0.00000000000E+00  0.00000000000E+00 -0.33344947911E+02  0.10066418735E+03  0.94981014227E+02 0.  0.
          2    1    3    3  502    0  0.17359548853E+02 -0.11552348733E+02 -0.61893250073E+02  0.65311446947E+02  0.00000000000E+00 0. -1.
         -2    1    3    3    0  502 -0.17359548853E+02  0.11552348733E+02  0.28548302162E+02  0.35352740403E+02  0.00000000000E+00 0.  1.
<mgrwt>
<rscale>  0 0.94981014E+02</rscale>
<asrwt>0</asrwt>
<pdfrwt beam="2">  1        2 0.10308395E-01 0.94981014E+02</pdfrwt>
<pdfrwt beam="1">  1       -2 0.51784031E-02 0.94981014E+02</pdfrwt>
<totfact> 0.97409280E+04</totfact>
</mgrwt>
</event>
<event>
 5    1  0.3862918E+001  0.5910240E+02  0.7546771E-02  0.1401638E+00
         -3   -1    0    0    0  501 -0.00000000000E+00  0.00000000000E+00  0.14669512427E+02  0.14669512427E+02  0.00000000000E+00 0.  1.
          3   -1    0    0  501    0  0.00000000000E+00 -0.00000000000E+00 -0.59529814144E+02  0.59529814144E+02  0.00000000000E+00 0. -1.
         23    2    1    2    0    0  0.00000000000E+00  0.00000000000E+00 -0.44860301718E+02  0.74199326571E+02  0.59102397527E+02 0.  0.
          2    1    3    3  502    0  0.28442345474E+02 -0.39113421977E+01 -0.31218902225E+02  0.42413269975E+02  0.00000000000E+00 0. -1.
         -2    1    3    3    0  502 -0.28442345474E+02  0.39113421977E+01 -0.13641399493E+02  0.31786056596E+02  0.00000000000E+00 0.  1.
<mgrwt>
<rscale>  0 0.59102398E+02</rscale>
<asrwt>0</asrwt>
<pdfrwt beam="2">  1        3 0.91584328E-02 0.59102398E+02</pdfrwt>
<pdfrwt beam="1">  1       -3 0.22568481E-02 0.59102398E+02</pdfrwt>
<totfact> 0.11597420E+05</totfact>
</mgrwt>
</event>
<event>
 5    1  0.3862918E+001  0.9200612E+02  0.7546771E-02  0.1298065E+00
          3   -1    0    0  501    0  0.00000000000E+00  0.00000000000E+00  0.63584544998E+02  0.63584544998E+02  0.00000000000E+00 0. -1.
         -3   -1    0    0    0  501 -0.00000000000E+00 -0.00000000000E+00 -0.33282955250E+02  0.33282955250E+02  0.00000000000E+00 0.  1.
         23    2    1    2    0    0  0.00000000000E+00  0.00000000000E+00  0.30301589748E+02  0.96867500248E+02  0.92006120791E+02 0.  0.
          2    1    3    3  502    0  0.42397456889E+02 -0.17775326089E+02  0.16904645789E+02  0.48982380684E+02  0.00000000000E+00 0. -1.
         -2    1    3    3    0  502 -0.42397456889E+02  0.17775326089E+02  0.13396943959E+02  0.47885119564E+02  0.00000000000E+00 0.  1.
<mgrwt>
<rscale>  0 0.92006121E+02</rscale>
<asrwt>0</asrwt>
<pdfrwt beam="1">  1        3 0.97822377E-02 0.92006121E+02</pdfrwt>
<pdfrwt beam="2">  1       -3 0.51204547E-02 0.92006121E+02</pdfrwt>
<totfact> 0.34053287E+04</totfact>
</mgrwt>
</event>
<event>
 5    1  0.3862918E+001  0.9176487E+02  0.7546771E-02  0.1298633E+00
         -2   -1    0    0    0  501 -0.00000000000E+00  0.00000000000E+00  0.15092476070E+03  0.15092476070E+03  0.00000000000E+00 0.  1.
          2   -1    0    0  501    0  0.00000000000E+00 -0.00000000000E+00 -0.13948657529E+02  0.13948657529E+02  0.00000000000E+00 0. -1.
         23    2    1    2    0    0  0.00000000000E+00  0.00000000000E+00  0.13697610317E+03  0.16487341823E+03  0.91764869086E+02 0.  0.
          2    1    3    3  502    0  0.20084626327E+02 -0.33898325586E+02  0.26248188380E+02  0.47344018475E+02  0.00000000000E+00 0. -1.
         -2    1    3    3    0  502 -0.20084626327E+02  0.33898325586E+02  0.11072791479E+03  0.11752939975E+03  0.00000000000E+00 0.  1.
<mgrwt>
<rscale>  0 0.91764869E+02</rscale>
<asrwt>0</asrwt>
<pdfrwt beam="2">  1        2 0.21459474E-02 0.91764869E+02</pdfrwt>
<pdfrwt beam="1">  1       -2 0.23219193E-01 0.91764869E+02</pdfrwt>
<totfact> 0.68573622E+04</totfact>
</mgrwt>
</event>
<event>
 5    1  0.3862918E+001  0.8741378E+02  0.7546771E-02  0.1309238E+00
         -4   -1    0    0    0  501 -0.00000000000E+00  0.00000000000E+00  0.20395154858E+04  0.20395154858E+04  0.00000000000E+00 0. -1.
          4   -1    0    0  501    0  0.00000000000E+00 -0.00000000000E+00 -0.93664023789E+00  0.93664023789E+00  0.00000000000E+00 0.  1.
         23    2    1    2    0    0  0.00000000000E+00  0.00000000000E+00  0.20385788455E+04  0.20404521260E+04  0.87413780831E+02 0.  0.
          2    1    3    3  502    0  0.27948057809E+02 -0.99121806574E+01  0.17687774099E+04  0.17690259668E+04  0.00000000000E+00 0. -1.
         -2    1    3    3    0  502 -0.27948057809E+02  0.99121806574E+01  0.26980143561E+03  0.27142615923E+03  0.00000000000E+00 0.  1.
<mgrwt>
<rscale>  0 0.87413781E+02</rscale>
<asrwt>0</asrwt>
<pdfrwt beam="2">  1        4 0.14410013E-03 0.87413781E+02</pdfrwt>
<pdfrwt beam="1">  1       -4 0.31376806E+00 0.87413781E+02</pdfrwt>
<totfact> 0.24516004E+03</totfact>
</mgrwt>
</event>
<event>
 5    1  0.3862918E+001  0.9097958E+02  0.7546771E-02  0.1300497E+00
          1   -1    0    0  501    0  0.00000000000E+00  0.00000000000E+00  0.24408387516E+04  0.24408387516E+04  0.00000000000E+00 0. -1.
         -1   -1    0    0    0  501 -0.00000000000E+00 -0.00000000000E+00 -0.84779091821E+00  0.84779091821E+00  0.00000000000E+00 0.  1.
         23    2    1    2    0    0  0.00000000000E+00  0.00000000000E+00  0.24399909607E+04  0.24416865425E+04  0.90979578509E+02 0.  0.
          2    1    3    3  502    0 -0.43875968769E+02 -0.22252069780E+01  0.15367135341E+04  0.15373413863E+04  0.00000000000E+00 0. -1.
         -2    1    3    3    0  502  0.43875968769E+02  0.22252069780E+01  0.90327742659E+03  0.90434515622E+03  0.00000000000E+00 0.  1.
<mgrwt>
<rscale>  0 0.90979579E+02</rscale>
<asrwt>0</asrwt>
<pdfrwt beam="1">  1        1 0.37550803E+00 0.90979579E+02</pdfrwt>
<pdfrwt beam="2">  1       -1 0.13043133E-03 0.90979579E+02</pdfrwt>
<totfact> 0.55557032E+04</totfact>
</mgrwt>
</event>
<event>
 5    1  0.3862918E+001  0.8585719E+02  0.7546771E-02  0.1313206E+00
          1   -1    0    0  501    0  0.00000000000E+00  0.00000000000E+00  0.21946288670E+03  0.21946288670E+03  0.00000000000E+00 0. -1.
         -1   -1    0    0    0  501 -0.00000000000E+00 -0.00000000000E+00 -0.83971574031E+01  0.83971574031E+01  0.00000000000E+00 0.  1.
         23    2    1    2    0    0  0.00000000000E+00  0.00000000000E+00  0.21106572930E+03  0.22786004410E+03  0.85857193147E+02 0.  0.
          2    1    3    3  502    0 -0.40484372678E+02  0.13485812900E+02  0.11798458510E+03  0.12546399444E+03  0.00000000000E+00 0. -1.
         -2    1    3    3    0  502  0.40484372678E+02 -0.13485812900E+02  0.93081144201E+02  0.10239604966E+03  0.00000000000E+00 0.  1.
<mgrwt>
<rscale>  0 0.85857193E+02</rscale>
<asrwt>0</asrwt>
<pdfrwt beam="1">  1        1 0.33763517E-01 0.85857193E+02</pdfrwt>
<pdfrwt beam="2">  1       -1 0.12918705E-02 0.85857193E+02</pdfrwt>
<totfact> 0.14153193E+05</totfact>
</mgrwt>
</event>
<event>
 5    1  0.3862918E+001  0.8970914E+02  0.7546771E-02  0.1303558E+00
         -2   -1    0    0    0  501 -0.00000000000E+00  0.00000000000E+00  0.11573830658E+01  0.11573830658E+01  0.00000000000E+00 0.  1.
          2   -1    0    0  501    0  0.00000000000E+00 -0.00000000000E+00 -0.17383463620E+04  0.17383463620E+04  0.00000000000E+00 0. -1.
         23    2    1    2    0    0  0.00000000000E+00  0.00000000000E+00 -0.17371889789E+04  0.17395037450E+04  0.89709144279E+02 0.  0.
          2    1    3    3  502    0  0.43537344884E+02  0.56771244111E+01 -0.10465252966E+04  0.10474459063E+04  0.00000000000E+00 0. -1.
         -2    1    3    3    0  502 -0.43537344884E+02 -0.56771244111E+01 -0.69066368230E+03  0.69205783876E+03  0.00000000000E+00 0.  1.
<mgrwt>
<rscale>  0 0.89709144E+02</rscale>
<asrwt>0</asrwt>
<pdfrwt beam="2">  1        2 0.26743871E+00 0.89709144E+02</pdfrwt>
<pdfrwt beam="1">  1       -2 0.17805840E-03 0.89709144E+02</pdfrwt>
<totfact> 0.22890289E+05</totfact>
</mgrwt>
</event>
<event>
 5    1  0.3862918E+001  0.9748832E+02  0.7546771E-02  0.1285668E+00
         -2   -1    0    0    0  501 -0.00000000000E+00  0.00000000000E+00  0.16904150432E+01  0.16904150432E+01  0.00000000000E+00 0.  1.
          2   -1    0    0  501    0  0.00000000000E+00 -0.00000000000E+00 -0.14055678641E+04  0.14055678641E+04  0.00000000000E+00 0. -1.
         23    2    1    2    0    0  0.00000000000E+00  0.00000000000E+00 -0.14038774490E+04  0.14072582791E+04  0.97488318515E+02 0.  0.
          2    1    3    3  502    0  0.42099602735E+02 -0.22482085889E+02 -0.84496498094E+03  0.84631178637E+03  0.00000000000E+00 0. -1.
         -2    1    3    3    0  502 -0.42099602735E+02  0.22482085889E+02 -0.55891246807E+03  0.56094649272E+03  0.00000000000E+00 0.  1.
<mgrwt>
<rscale>  0 0.97488319E+02</rscale>
<asrwt>0</asrwt>
<pdfrwt beam="2">  1        2 0.21624070E+00 0.97488319E+02</pdfrwt>
<pdfrwt beam="1">  1       -2 0.26006447E-03 0.97488319E+02</pdfrwt>
<totfact> 0.20203992E+05</totfact>
</mgrwt>
</event>
<event>
 5    1  0.3862918E+001  0.8879483E+02  0.7546771E-02  0.1305797E+00
         -2   -1    0    0    0  501 -0.00000000000E+00  0.00000000000E+00  0.15177917649E+03  0.15177917649E+03  0.00000000000E+00 0.  1.
          2   -1    0    0  501    0  0.00000000000E+00 -0.00000000000E+00 -0.12986830502E+02  0.12986830502E+02  0.00000000000E+00 0. -1.
         23    2    1    2    0    0  0.00000000000E+00  0.00000000000E+00  0.13879234599E+03  0.16476600699E+03  0.88794829551E+02 0.  0.
          2    1    3    3  502    0  0.35661636244E+02 -0.18249793196E+02  0.33881146435E+02  0.52466554442E+02  0.00000000000E+00 0. -1.
         -2    1    3    3    0  502 -0.35661636244E+02  0.18249793196E+02  0.10491119955E+03  0.11229945255E+03  0.00000000000E+00 0.  1.
<mgrwt>
<rscale>  0 0.88794830E+02</rscale>
<asrwt>0</asrwt>
<pdfrwt beam="2">  1        2 0.19979740E-02 0.88794830E+02</pdfrwt>
<pdfrwt beam="1">  1       -2 0.23350641E-01 0.88794830E+02</pdfrwt>
<totfact> 0.74374774E+04</totfact>
</mgrwt>
</event>
<event>
 5    1  0.3862918E+001  0.9509984E+02  0.7546771E-02  0.1290951E+00
         -2   -1    0    0    0  501 -0.00000000000E+00  0.00000000000E+00  0.45216496515E+01  0.45216496515E+01  0.00000000000E+00 0.  1.
          2   -1    0    0  501    0  0.00000000000E+00 -0.00000000000E+00 -0.50003762864E+03  0.50003762864E+03  0.00000000000E+00 0. -1.
         23    2    1    2    0    0  0.00000000000E+00  0.00000000000E+00 -0.49551597899E+03  0.50455927830E+03  0.95099841626E+02 0.  0.
          2    1    3    3  502    0 -0.39966101810E+02  0.13068482398E+02 -0.12996462726E+03  0.13659750680E+03  0.00000000000E+00 0.  1.
         -2    1    3    3    0  502  0.39966101810E+02 -0.13068482398E+02 -0.36555135173E+03  0.36796177149E+03  0.00000000000E+00 0. -1.
<mgrwt>
<rscale>  0 0.95099842E+02</rscale>
<asrwt>0</asrwt>
<pdfrwt beam="2">  1        2 0.76928877E-01 0.95099842E+02</pdfrwt>
<pdfrwt beam="1">  1       -2 0.69563831E-03 0.95099842E+02</pdfrwt>
<totfact> 0.19271064E+05</totfact>
</mgrwt>
</event>
<event>
 5    1  0.3862918E+001  0.9469204E+02  0.7546771E-02  0.1291871E+00
          1   -1    0    0  501    0  0.00000000000E+00  0.00000000000E+00  0.67887615287E+03  0.67887615287E+03  0.00000000000E+00 0. -1.
         -1   -1    0    0    0  501 -0.00000000000E+00 -0.00000000000E+00 -0.33019950827E+01  0.33019950827E+01  0.00000000000E+00 0.  1.
         23    2    1    2    0    0  0.00000000000E+00  0.00000000000E+00  0.67557415779E+03  0.68217814796E+03  0.94692042297E+02 0.  0.
          2    1    3    3  502    0 -0.16958545832E+02  0.43598251587E+02  0.39035579955E+03  0.39314889045E+03  0.00000000000E+00 0.  1.
         -2    1    3    3    0  502  0.16958545832E+02 -0.43598251587E+02  0.28521835824E+03  0.28902925751E+03  0.00000000000E+00 0. -1.
<mgrwt>
<rscale>  0 0.94692042E+02</rscale>
<asrwt>0</asrwt>
<pdfrwt beam="1">  1        1 0.10444237E+00 0.94692042E+02</pdfrwt>
<pdfrwt beam="2">  1       -1 0.50799978E-03 0.94692042E+02</pdfrwt>
<totfact> 0.12861715E+05</totfact>
</mgrwt>
</event>
<event>
 5    1  0.3862918E+001  0.1040934E+03  0.7546771E-02  0.1271916E+00
          2   -1    0    0  501    0  0.00000000000E+00  0.00000000000E+00  0.74394717487E+02  0.74394717487E+02  0.00000000000E+00 0. -1.
         -2   -1    0    0    0  501 -0.00000000000E+00 -0.00000000000E+00 -0.36411971207E+02  0.36411971207E+02  0.00000000000E+00 0.  1.
         23    2    1    2    0    0  0.00000000000E+00  0.00000000000E+00  0.37982746280E+02  0.11080668869E+03  0.10409338713E+03 0.  0.
          2    1    3    3  502    0  0.42736409759E+02 -0.14085526164E+02  0.46832609679E+02  0.64946871331E+02  0.00000000000E+00 0. -1.
         -2    1    3    3    0  502 -0.42736409759E+02  0.14085526164E+02 -0.88498633986E+01  0.45859817363E+02  0.00000000000E+00 0.  1.
<mgrwt>
<rscale>  0 0.10409339E+03</rscale>
<asrwt>0</asrwt>
<pdfrwt beam="1">  1        2 0.11445341E-01 0.10409339E+03</pdfrwt>
<pdfrwt beam="2">  1       -2 0.56018417E-02 0.10409339E+03</pdfrwt>
<totfact> 0.77413227E+04</totfact>
</mgrwt>
</event>
<event>
 5    1  0.3862918E+001  0.9065427E+02  0.7546771E-02  0.1301275E+00
          1   -1    0    0  501    0  0.00000000000E+00  0.00000000000E+00  0.13834726365E+02  0.13834726365E+02  0.00000000000E+00 0. -1.
         -1   -1    0    0    0  501 -0.00000000000E+00 -0.00000000000E+00 -0.14850668400E+03  0.14850668400E+03  0.00000000000E+00 0.  1.
         23    2    1    2    0    0  0.00000000000E+00  0.00000000000E+00 -0.13467195763E+03  0.16234141036E+03  0.90654273733E+02 0.  0.
          2    1    3    3  502    0 -0.13579709303E+02 -0.40286147152E+02 -0.39182216977E+02  0.57815467519E+02  0.00000000000E+00 0.  1.
         -2    1    3    3    0  502  0.13579709303E+02  0.40286147152E+02 -0.95489740653E+02  0.10452594284E+03  0.00000000000E+00 0. -1.
<mgrwt>
<rscale>  0 0.90654274E+02</rscale>
<asrwt>0</asrwt>
<pdfrwt beam="1">  1        1 0.21284196E-02 0.90654274E+02</pdfrwt>
<pdfrwt beam="2">  1       -1 0.22847181E-01 0.90654274E+02</pdfrwt>
<totfact> 0.76089251E+04</totfact>
</mgrwt>
</event>
<event>
 5    1  0.3862918E+001  0.9202832E+02  0.7546771E-02  0.1298013E+00
         -1   -1    0    0    0  501 -0.00000000000E+00  0.00000000000E+00  0.22591207853E+01  0.22591207853E+01  0.00000000000E+00 0.  1.
          1   -1    0    0  501    0  0.00000000000E+00 -0.00000000000E+00 -0.93722425223E+03  0.93722425223E+03  0.00000000000E+00 0. -1.
         23    2    1    2    0    0  0.00000000000E+00  0.00000000000E+00 -0.93496513145E+03  0.93948337302E+03  0.92028317135E+02 0.  0.
          2    1    3    3  502    0  0.92152973597E+01  0.44180745015E+02 -0.55904373936E+03  0.56086251653E+03  0.00000000000E+00 0. -1.
         -2    1    3    3    0  502 -0.92152973597E+01 -0.44180745015E+02 -0.37592139209E+03  0.37862085649E+03  0.00000000000E+00 0.  1.
<mgrwt>
<rscale>  0 0.92028317E+02</rscale>
<asrwt>0</asrwt>
<pdfrwt beam="2">  1        1 0.14418805E+00 0.92028317E+02</pdfrwt>
<pdfrwt beam="1">  1       -1 0.34755776E-03 0.92028317E+02</pdfrwt>
<totfact> 0.13475640E+05</totfact>
</mgrwt>
</event>
<event>
 5    1  0.3862918E+001  0.8523168E+02  0.7546771E-02  0.1314828E+00
         -3   -1    0    0    0  501 -0.00000000000E+00  0.00000000000E+00  0.14463241643E+02  0.14463241643E+02  0.00000000000E+00 0.  1.
          3   -1    0    0  501    0  0.00000000000E+00 -0.00000000000E+00 -0.12556728160E+03  0.12556728160E+03  0.00000000000E+00 0. -1.
         23    2    1    2    0    0  0.00000000000E+00  0.00000000000E+00 -0.11110403996E+03  0.14003052324E+03  0.85231682753E+02 0.  0.
          2    1    3    3  502    0  0.12230895155E+02 -0.40700230179E+02 -0.50354925055E+02  0.65891744629E+02  0.00000000000E+00 0. -1.
         -2    1    3    3    0  502 -0.12230895155E+02  0.40700230179E+02 -0.60749114903E+02  0.74138778615E+02  0.00000000000E+00 0.  1.
<mgrwt>
<rscale>  0 0.85231683E+02</rscale>
<asrwt>0</asrwt>
<pdfrwt beam="2">  1        3 0.19318043E-01 0.85231683E+02</pdfrwt>
<pdfrwt beam="1">  1       -3 0.22251141E-02 0.85231683E+02</pdfrwt>
<totfact> 0.38293062E+04</totfact>
</mgrwt>
</event>
<event>
 5    1  0.3862918E+001  0.9022475E+02  0.7546771E-02  0.1302308E+00
         -1   -1    0    0    0  501 -0.00000000000E+00  0.00000000000E+00  0.11181383939E+01  0.11181383939E+01  0.00000000000E+00 0.  1.
          1   -1    0    0  501    0  0.00000000000E+00 -0.00000000000E+00 -0.18201025384E+04  0.18201025384E+04  0.00000000000E+00 0. -1.
         23    2    1    2    0    0  0.00000000000E+00  0.00000000000E+00 -0.18189844000E+04  0.18212206768E+04  0.90224753345E+02 0.  0.
          2    1    3    3  502    0  0.27297559539E+02 -0.99909788675E+01 -0.16058584909E+04  0.16061215612E+04  0.00000000000E+00 0. -1.
         -2    1    3    3    0  502 -0.27297559539E+02  0.99909788675E+01 -0.21312590904E+03  0.21509911557E+03  0.00000000000E+00 0.  1.
<mgrwt>
<rscale>  0 0.90224753E+02</rscale>
<asrwt>0</asrwt>
<pdfrwt beam="2">  1        1 0.28001207E+00 0.90224753E+02</pdfrwt>
<pdfrwt beam="1">  1       -1 0.17202357E-03 0.90224753E+02</pdfrwt>
<totfact> 0.93295194E+04</totfact>
</mgrwt>
</event>
<event>
 5    1  0.3862918E+001  0.9026710E+02  0.7546771E-02  0.1302206E+00
         -1   -1    0    0    0  501 -0.00000000000E+00  0.00000000000E+00  0.15885535075E+01  0.15885535075E+01  0.00000000000E+00 0.  1.
          1   -1    0    0  501    0  0.00000000000E+00 -0.00000000000E+00 -0.12823220766E+04  0.12823220766E+04  0.00000000000E+00 0. -1.
         23    2    1    2    0    0  0.00000000000E+00  0.00000000000E+00 -0.12807335231E+04  0.12839106301E+04  0.90267097716E+02 0.  0.
          2    1    3    3  502    0 -0.22949066937E+02  0.10039061867E+02 -0.11743805358E+04  0.11746476431E+04  0.00000000000E+00 0. -1.
         -2    1    3    3    0  502  0.22949066937E+02 -0.10039061867E+02 -0.10635298727E+03  0.10926298704E+03  0.00000000000E+00 0.  1.
<mgrwt>
<rscale>  0 0.90267098E+02</rscale>
<asrwt>0</asrwt>
<pdfrwt beam="2">  1        1 0.19728081E+00 0.90267098E+02</pdfrwt>
<pdfrwt beam="1">  1       -1 0.24439224E-03 0.90267098E+02</pdfrwt>
<totfact> 0.12633267E+05</totfact>
</mgrwt>
</event>
<event>
 5    1  0.3862918E+001  0.9063629E+02  0.7546771E-02  0.1301318E+00
          2   -1    0    0  501    0  0.00000000000E+00  0.00000000000E+00  0.26934762333E+04  0.26934762333E+04  0.00000000000E+00 0. -1.
         -2   -1    0    0    0  501 -0.00000000000E+00 -0.00000000000E+00 -0.76248465600E+00  0.76248465600E+00  0.00000000000E+00 0.  1.
         23    2    1    2    0    0  0.00000000000E+00  0.00000000000E+00  0.26927137486E+04  0.26942387179E+04  0.90636290727E+02 0.  0.
          2    1    3    3  502    0  0.42890279856E+02 -0.49610739520E+01  0.17556092324E+04  0.17561400756E+04  0.00000000000E+00 0. -1.
         -2    1    3    3    0  502 -0.42890279856E+02  0.49610739520E+01  0.93710451626E+03  0.93809864234E+03  0.00000000000E+00 0.  1.
<mgrwt>
<rscale>  0 0.90636291E+02</rscale>
<asrwt>0</asrwt>
<pdfrwt beam="1">  1        2 0.41437334E+00 0.90636291E+02</pdfrwt>
<pdfrwt beam="2">  1       -2 0.11730749E-03 0.90636291E+02</pdfrwt>
<totfact> 0.13195649E+05</totfact>
</mgrwt>
</event>
<event>
 5    1  0.3862918E+001  0.9189690E+02  0.7546771E-02  0.1298322E+00
         -2   -1    0    0    0  501 -0.00000000000E+00  0.00000000000E+00  0.92534621917E+00  0.92534621917E+00  0.00000000000E+00 0.  1.
          2   -1    0    0  501    0  0.00000000000E+00 -0.00000000000E+00 -0.22815893762E+04  0.22815893762E+04  0.00000000000E+00 0. -1.
         23    2    1    2    0    0  0.00000000000E+00  0.00000000000E+00 -0.22806640299E+04  0.22825147224E+04  0.91896900991E+02 0.  0.
          2    1    3    3  502    0  0.44420787734E+02  0.10975510960E+02 -0.10361557367E+04  0.10371655504E+04  0.00000000000E+00 0. -1.
         -2    1    3    3    0  502 -0.44420787734E+02 -0.10975510960E+02 -0.12445082933E+04  0.12453491720E+04  0.00000000000E+00 0.  1.
<mgrwt>
<rscale>  0 0.91896901E+02</rscale>
<asrwt>0</asrwt>
<pdfrwt beam="2">  1        2 0.35101447E+00 0.91896901E+02</pdfrwt>
<pdfrwt beam="1">  1       -2 0.14236067E-03 0.91896901E+02</pdfrwt>
<totfact> 0.16644445E+05</totfact>
</mgrwt>
</event>
<event>
 5    1  0.3862918E+001  0.9211828E+02  0.7546771E-02  0.1297802E+00
          3   -1    0    0  501    0  0.00000000000E+00  0.00000000000E+00  0.87778364273E+01  0.87778364273E+01  0.00000000000E+00 0.  1.
         -3   -1    0    0    0  501 -0.00000000000E+00 -0.00000000000E+00 -0.24168193681E+03  0.24168193681E+03  0.00000000000E+00 0. -1.
         23    2    1    2    0    0  0.00000000000E+00  0.00000000000E+00 -0.23290410038E+03  0.25045977324E+03  0.92118282849E+02 0.  0.
          2    1    3    3  502    0  0.23676831616E+02  0.19252865351E+02 -0.21025108097E+03  0.21245418854E+03  0.00000000000E+00 0. -1.
         -2    1    3    3    0  502 -0.23676831616E+02 -0.19252865351E+02 -0.22653019412E+02  0.38005584696E+02  0.00000000000E+00 0.  1.
<mgrwt>
<rscale>  0 0.92118283E+02</rscale>
<asrwt>0</asrwt>
<pdfrwt beam="1">  1        3 0.13504364E-02 0.92118283E+02</pdfrwt>
<pdfrwt beam="2">  1       -3 0.37181836E-01 0.92118283E+02</pdfrwt>
<totfact> 0.25366877E+04</totfact>
</mgrwt>
</event>
<event>
 5    1  0.3862918E+001  0.9095809E+02  0.7546771E-02  0.1300548E+00
         -4   -1    0    0    0  501 -0.00000000000E+00  0.00000000000E+00  0.27395111837E+02  0.27395111837E+02  0.00000000000E+00 0.  1.
          4   -1    0    0  501    0  0.00000000000E+00 -0.00000000000E+00 -0.75500456611E+02  0.75500456611E+02  0.00000000000E+00 0. -1.
         23    2    1    2    0    0  0.00000000000E+00  0.00000000000E+00 -0.48105344774E+02  0.10289556845E+03  0.90958088207E+02 0.  0.
          2    1    3    3  502    0 -0.38790652984E+02 -0.20260308950E+01 -0.50811351113E+02  0.63957899919E+02  0.00000000000E+00 0. -1.
         -2    1    3    3    0  502  0.38790652984E+02  0.20260308950E+01  0.27060063389E+01  0.38937668528E+02  0.00000000000E+00 0.  1.
<mgrwt>
<rscale>  0 0.90958088E+02</rscale>
<asrwt>0</asrwt>
<pdfrwt beam="2">  1        4 0.11615455E-01 0.90958088E+02</pdfrwt>
<pdfrwt beam="1">  1       -4 0.42146326E-02 0.90958088E+02</pdfrwt>
<totfact> 0.26451964E+04</totfact>
</mgrwt>
</event>
<event>
 5    1  0.3862918E+001  0.9171051E+02  0.7546771E-02  0.1298762E+00
         -2   -1    0    0    0  501 -0.00000000000E+00  0.00000000000E+00  0.12741781775E+01  0.12741781775E+01  0.00000000000E+00 0.  1.
          2   -1    0    0  501    0  0.00000000000E+00 -0.00000000000E+00 -0.16502437469E+04  0.16502437469E+04  0.00000000000E+00 0. -1.
         23    2    1    2    0    0  0.00000000000E+00  0.00000000000E+00 -0.16489695688E+04  0.16515179251E+04  0.91710513463E+02 0.  0.
          2    1    3    3  502    0  0.91767416595E+01  0.37037190428E+02 -0.12824458180E+04  0.12830133445E+04  0.00000000000E+00 0. -1.
         -2    1    3    3    0  502 -0.91767416595E+01 -0.37037190428E+02 -0.36652375078E+03  0.36850458063E+03  0.00000000000E+00 0.  1.
<mgrwt>
<rscale>  0 0.91710513E+02</rscale>
<asrwt>0</asrwt>
<pdfrwt beam="2">  1        2 0.25388330E+00 0.91710513E+02</pdfrwt>
<pdfrwt beam="1">  1       -2 0.19602768E-03 0.91710513E+02</pdfrwt>
<totfact> 0.22254513E+05</totfact>
</mgrwt>
</event>
<event>
 5    1  0.3862918E+001  0.9090749E+02  0.7546771E-02  0.1300669E+00
         -1   -1    0    0    0  501 -0.00000000000E+00  0.00000000000E+00  0.13012383860E+01  0.13012383860E+01  0.00000000000E+00 0.  1.
          1   -1    0    0  501    0  0.00000000000E+00 -0.00000000000E+00 -0.15877511843E+04  0.15877511843E+04  0.00000000000E+00 0. -1.
         23    2    1    2    0    0  0.00000000000E+00  0.00000000000E+00 -0.15864499459E+04  0.15890524227E+04  0.90907486786E+02 0.  0.
          2    1    3    3  502    0 -0.26951755536E+02  0.18985354012E+02 -0.13402090929E+04  0.13406145059E+04  0.00000000000E+00 0. -1.
         -2    1    3    3    0  502  0.26951755536E+02 -0.18985354012E+02 -0.24624085297E+03  0.24843791672E+03  0.00000000000E+00 0.  1.
<mgrwt>
<rscale>  0 0.90907487E+02</rscale>
<asrwt>0</asrwt>
<pdfrwt beam="2">  1        1 0.24426956E+00 0.90907487E+02</pdfrwt>
<pdfrwt beam="1">  1       -1 0.20019040E-03 0.90907487E+02</pdfrwt>
<totfact> 0.10598415E+05</totfact>
</mgrwt>
</event>
<event>
 5    1  0.3862918E+001  0.9273873E+02  0.7546771E-02  0.1296352E+00
         -1   -1    0    0    0  501 -0.00000000000E+00  0.00000000000E+00  0.10050714747E+03  0.10050714747E+03  0.00000000000E+00 0.  1.
          1   -1    0    0  501    0  0.00000000000E+00 -0.00000000000E+00 -0.21392689301E+02  0.21392689301E+02  0.00000000000E+00 0. -1.
         23    2    1    2    0    0  0.00000000000E+00  0.00000000000E+00  0.79114458166E+02  0.12189983677E+03  0.92738733619E+02 0.  0.
          2    1    3    3  502    0 -0.24458257467E+02  0.20882733679E+02 -0.43503676621E+01  0.32453360735E+02  0.00000000000E+00 0. -1.
         -2    1    3    3    0  502  0.24458257467E+02 -0.20882733679E+02  0.83464825828E+02  0.89446476033E+02  0.00000000000E+00 0.  1.
<mgrwt>
<rscale>  0 0.92738734E+02</rscale>
<asrwt>0</asrwt>
<pdfrwt beam="2">  1        1 0.32911830E-02 0.92738734E+02</pdfrwt>
<pdfrwt beam="1">  1       -1 0.15462638E-01 0.92738734E+02</pdfrwt>
<totfact> 0.77810132E+04</totfact>
</mgrwt>
</event>
<event>
 5    1  0.3862918E+001  0.8944515E+02  0.7546771E-02  0.1304201E+00
         -2   -1    0    0    0  501 -0.00000000000E+00  0.00000000000E+00  0.21087972567E+01  0.21087972567E+01  0.00000000000E+00 0. -1.
          2   -1    0    0  501    0  0.00000000000E+00 -0.00000000000E+00 -0.94845948653E+03  0.94845948653E+03  0.00000000000E+00 0.  1.
         23    2    1    2    0    0  0.00000000000E+00  0.00000000000E+00 -0.94635068927E+03  0.95056828378E+03  0.89445151087E+02 0.  0.
          2    1    3    3  502    0  0.22630733920E+02 -0.95541442178E+01 -0.76007111963E+02  0.79878112512E+02  0.00000000000E+00 0. -1.
         -2    1    3    3    0  502 -0.22630733920E+02  0.95541442178E+01 -0.87034357731E+03  0.87069017127E+03  0.00000000000E+00 0.  1.
<mgrwt>
<rscale>  0 0.89445151E+02</rscale>
<asrwt>0</asrwt>
<pdfrwt beam="2">  1        2 0.14591663E+00 0.89445151E+02</pdfrwt>
<pdfrwt beam="1">  1       -2 0.32443083E-03 0.89445151E+02</pdfrwt>
<totfact> 0.26209024E+05</totfact>
</mgrwt>
</event>
<event>
 5    1  0.3862918E+001  0.9187636E+02  0.7546771E-02  0.1298370E+00
         -2   -1    0    0    0  501 -0.00000000000E+00  0.00000000000E+00  0.12157720829E+03  0.12157720829E+03  0.00000000000E+00 0.  1.
          2   -1    0    0  501    0  0.00000000000E+00 -0.00000000000E+00 -0.17357830509E+02  0.17357830509E+02  0.00000000000E+00 0. -1.
         23    2    1    2    0    0  0.00000000000E+00  0.00000000000E+00  0.10421937779E+03  0.13893503880E+03  0.91876364216E+02 0.  0.
          2    1    3    3  502    0 -0.31814561702E+02  0.27624384765E+02  0.24430162636E+02  0.48704268974E+02  0.00000000000E+00 0. -1.
         -2    1    3    3    0  502  0.31814561702E+02 -0.27624384765E+02  0.79789215150E+02  0.90230769830E+02  0.00000000000E+00 0.  1.
<mgrwt>
<rscale>  0 0.91876364E+02</rscale>
<asrwt>0</asrwt>
<pdfrwt beam="2">  1        2 0.26704355E-02 0.91876364E+02</pdfrwt>
<pdfrwt beam="1">  1       -2 0.18704185E-01 0.91876364E+02</pdfrwt>
<totfact> 0.73669113E+04</totfact>
</mgrwt>
</event>
<event>
 5    1  0.3862918E+001  0.9060890E+02  0.7546771E-02  0.1301384E+00
         -3   -1    0    0    0  501 -0.00000000000E+00  0.00000000000E+00  0.45483031761E+02  0.45483031761E+02  0.00000000000E+00 0.  1.
          3   -1    0    0  501    0  0.00000000000E+00 -0.00000000000E+00 -0.45126573014E+02  0.45126573014E+02  0.00000000000E+00 0. -1.
         23    2    1    2    0    0  0.00000000000E+00  0.00000000000E+00  0.35645874695E+00  0.90609604776E+02  0.90608903618E+02 0.  0.
          2    1    3    3  502    0 -0.20061704624E+02 -0.40221427560E+02 -0.55014383594E+01  0.45282458540E+02  0.00000000000E+00 0.  1.
         -2    1    3    3    0  502  0.20061704624E+02  0.40221427560E+02  0.58578971063E+01  0.45327146236E+02  0.00000000000E+00 0. -1.
<mgrwt>
<rscale>  0 0.90608904E+02</rscale>
<asrwt>0</asrwt>
<pdfrwt beam="2">  1        3 0.69425498E-02 0.90608904E+02</pdfrwt>
<pdfrwt beam="1">  1       -3 0.69973894E-02 0.90608904E+02</pdfrwt>
<totfact> 0.35989121E+04</totfact>
</mgrwt>
</event>
<event>
 5    1  0.3862918E+001  0.9081824E+02  0.7546771E-02  0.1300882E+00
         -1   -1    0    0    0  501 -0.00000000000E+00  0.00000000000E+00  0.95125513031E+01  0.95125513031E+01  0.00000000000E+00 0.  1.
          1   -1    0    0  501    0  0.00000000000E+00 -0.00000000000E+00 -0.21676501583E+03  0.21676501583E+03  0.00000000000E+00 0. -1.
         23    2    1    2    0    0  0.00000000000E+00  0.00000000000E+00 -0.20725246453E+03  0.22627756714E+03  0.90818243406E+02 0.  0.
          2    1    3    3  502    0  0.26963017180E+02  0.13162238419E+02 -0.18854873496E+03  0.19092112055E+03  0.00000000000E+00 0. -1.
         -2    1    3    3    0  502 -0.26963017180E+02 -0.13162238419E+02 -0.18703729570E+02  0.35356446590E+02  0.00000000000E+00 0.  1.
<mgrwt>
<rscale>  0 0.90818243E+02</rscale>
<asrwt>0</asrwt>
<pdfrwt beam="2">  1        1 0.33348466E-01 0.90818243E+02</pdfrwt>
<pdfrwt beam="1">  1       -1 0.14634693E-02 0.90818243E+02</pdfrwt>
<totfact> 0.12155071E+05</totfact>
</mgrwt>
</event>
<event>
 5    1  0.3862918E+001  0.8993009E+02  0.7546771E-02  0.1303021E+00
          4   -1    0    0  501    0  0.00000000000E+00  0.00000000000E+00  0.33994545085E+01  0.33994545085E+01  0.00000000000E+00 0.  1.
         -4   -1    0    0    0  501 -0.00000000000E+00 -0.00000000000E+00 -0.59475867767E+03  0.59475867767E+03  0.00000000000E+00 0. -1.
         23    2    1    2    0    0  0.00000000000E+00  0.00000000000E+00 -0.59135922316E+03  0.59815813218E+03  0.89930085473E+02 0.  0.
          2    1    3    3  502    0  0.24576262684E+02  0.13627094375E+02 -0.52915729903E+03  0.52990295102E+03  0.00000000000E+00 0. -1.
         -2    1    3    3    0  502 -0.24576262684E+02 -0.13627094375E+02 -0.62201924134E+02  0.68255181156E+02  0.00000000000E+00 0.  1.
<mgrwt>
<rscale>  0 0.89930085E+02</rscale>
<asrwt>0</asrwt>
<pdfrwt beam="1">  1        4 0.52299334E-03 0.89930085E+02</pdfrwt>
<pdfrwt beam="2">  1       -4 0.91501277E-01 0.89930085E+02</pdfrwt>
<totfact> 0.11856190E+04</totfact>
</mgrwt>
</event>
<event>
 5    1  0.3862918E+001  0.8992098E+02  0.7546771E-02  0.1303043E+00
         -1   -1    0    0    0  501 -0.00000000000E+00  0.00000000000E+00  0.44047711646E+01  0.44047711646E+01  0.00000000000E+00 0.  1.
          1   -1    0    0  501    0  0.00000000000E+00 -0.00000000000E+00 -0.45892182844E+03  0.45892182844E+03  0.00000000000E+00 0. -1.
         23    2    1    2    0    0  0.00000000000E+00  0.00000000000E+00 -0.45451705728E+03  0.46332659961E+03  0.89920979460E+02 0.  0.
          2    1    3    3  502    0  0.38553511501E+02 -0.15553039523E+02 -0.31548317590E+03  0.31821047211E+03  0.00000000000E+00 0. -1.
         -2    1    3    3    0  502 -0.38553511501E+02  0.15553039523E+02 -0.13903388138E+03  0.14511612749E+03  0.00000000000E+00 0.  1.
<mgrwt>
<rscale>  0 0.89920979E+02</rscale>
<asrwt>0</asrwt>
<pdfrwt beam="2">  1        1 0.70603302E-01 0.89920979E+02</pdfrwt>
<pdfrwt beam="1">  1       -1 0.67765765E-03 0.89920979E+02</pdfrwt>
<totfact> 0.14289247E+05</totfact>
</mgrwt>
</event>
<event>
 5    1  0.3862918E+001  0.9136034E+02  0.7546771E-02  0.1299590E+00
          2   -1    0    0  501    0  0.00000000000E+00  0.00000000000E+00  0.18687432559E+03  0.18687432559E+03  0.00000000000E+00 0. -1.
         -2   -1    0    0    0  501 -0.00000000000E+00 -0.00000000000E+00 -0.11166210015E+02  0.11166210015E+02  0.00000000000E+00 0.  1.
         23    2    1    2    0    0  0.00000000000E+00  0.00000000000E+00  0.17570811558E+03  0.19804053561E+03  0.91360340761E+02 0.  0.
          2    1    3    3  502    0  0.25134069260E+02  0.43500209680E+01  0.16999860110E+03  0.17190162447E+03  0.00000000000E+00 0. -1.
         -2    1    3    3    0  502 -0.25134069260E+02 -0.43500209680E+01  0.57095144815E+01  0.26138911140E+02  0.00000000000E+00 0.  1.
<mgrwt>
<rscale>  0 0.91360341E+02</rscale>
<asrwt>0</asrwt>
<pdfrwt beam="1">  1        2 0.28749894E-01 0.91360341E+02</pdfrwt>
<pdfrwt beam="2">  1       -2 0.17178786E-02 0.91360341E+02</pdfrwt>
<totfact> 0.15013205E+05</totfact>
</mgrwt>
</event>
<event>
 5    1  0.3862918E+001  0.9279665E+02  0.7546771E-02  0.1296217E+00
          2   -1    0    0  501    0  0.00000000000E+00  0.00000000000E+00  0.94580035418E+01  0.94580035418E+01  0.00000000000E+00 0. -1.
         -2   -1    0    0    0  501 -0.00000000000E+00 -0.00000000000E+00 -0.22761721452E+03  0.22761721452E+03  0.00000000000E+00 0.  1.
         23    2    1    2    0    0  0.00000000000E+00  0.00000000000E+00 -0.21815921097E+03  0.23707521806E+03  0.92796646945E+02 0.  0.
          2    1    3    3  502    0  0.24935448412E+02 -0.20539679532E+02 -0.19416380135E+03  0.19683301750E+03  0.00000000000E+00 0.  1.
         -2    1    3    3    0  502 -0.24935448412E+02  0.20539679532E+02 -0.23995409621E+02  0.40242200556E+02  0.00000000000E+00 0. -1.
<mgrwt>
<rscale>  0 0.92796647E+02</rscale>
<asrwt>0</asrwt>
<pdfrwt beam="1">  1        2 0.14550775E-02 0.92796647E+02</pdfrwt>
<pdfrwt beam="2">  1       -2 0.35018033E-01 0.92796647E+02</pdfrwt>
<totfact> 0.56191712E+04</totfact>
</mgrwt>
</event>
<event>
 5    1  0.3862918E+001  0.9199046E+02  0.7546771E-02  0.1298102E+00
          1   -1    0    0  501    0  0.00000000000E+00  0.00000000000E+00  0.21344587464E+02  0.21344587464E+02  0.00000000000E+00 0. -1.
         -1   -1    0    0    0  501 -0.00000000000E+00 -0.00000000000E+00 -0.99114643700E+02  0.99114643700E+02  0.00000000000E+00 0.  1.
         23    2    1    2    0    0  0.00000000000E+00  0.00000000000E+00 -0.77770056236E+02  0.12045923116E+03  0.91990459971E+02 0.  0.
          2    1    3    3  502    0  0.24653719303E+02 -0.15406647131E+02  0.77879937474E+01  0.30096901799E+02  0.00000000000E+00 0. -1.
         -2    1    3    3    0  502 -0.24653719303E+02  0.15406647131E+02 -0.85558049984E+02  0.90362329365E+02  0.00000000000E+00 0.  1.
<mgrwt>
<rscale>  0 0.91990460E+02</rscale>
<asrwt>0</asrwt>
<pdfrwt beam="1">  1        1 0.32837827E-02 0.91990460E+02</pdfrwt>
<pdfrwt beam="2">  1       -1 0.15248407E-01 0.91990460E+02</pdfrwt>
<totfact> 0.79659783E+04</totfact>
</mgrwt>
</event>
<event>
 5    1  0.3862918E+001  0.8830502E+02  0.7546771E-02  0.1307009E+00
          2   -1    0    0  501    0  0.00000000000E+00  0.00000000000E+00  0.10305118432E+04  0.10305118432E+04  0.00000000000E+00 0. -1.
         -2   -1    0    0    0  501 -0.00000000000E+00 -0.00000000000E+00 -0.18917242183E+01  0.18917242183E+01  0.00000000000E+00 0.  1.
         23    2    1    2    0    0  0.00000000000E+00  0.00000000000E+00  0.10286201190E+04  0.10324035675E+04  0.88305021627E+02 0.  0.
          2    1    3    3  502    0  0.11577124731E+02 -0.41738554830E+02  0.61441098824E+03  0.61593587267E+03  0.00000000000E+00 0. -1.
         -2    1    3    3    0  502 -0.11577124731E+02  0.41738554830E+02  0.41420913079E+03  0.41646769479E+03  0.00000000000E+00 0.  1.
<mgrwt>
<rscale>  0 0.88305022E+02</rscale>
<asrwt>0</asrwt>
<pdfrwt beam="1">  1        2 0.15853983E+00 0.88305022E+02</pdfrwt>
<pdfrwt beam="2">  1       -2 0.29103532E-03 0.88305022E+02</pdfrwt>
<totfact> 0.27222296E+05</totfact>
</mgrwt>
</event>
<event>
 5    1  0.3862918E+001  0.9050284E+02  0.7546771E-02  0.1301639E+00
          1   -1    0    0  501    0  0.00000000000E+00  0.00000000000E+00  0.15123076104E+03  0.15123076104E+03  0.00000000000E+00 0. -1.
         -1   -1    0    0    0  501 -0.00000000000E+00 -0.00000000000E+00 -0.13540175603E+02  0.13540175603E+02  0.00000000000E+00 0.  1.
         23    2    1    2    0    0  0.00000000000E+00  0.00000000000E+00  0.13769058544E+03  0.16477093664E+03  0.90502841084E+02 0.  0.
          2    1    3    3  502    0 -0.35780871166E+02  0.18652109880E+02  0.31555130262E+02  0.51224000138E+02  0.00000000000E+00 0.  1.
         -2    1    3    3    0  502  0.35780871166E+02 -0.18652109880E+02  0.10613545518E+03  0.11354693651E+03  0.00000000000E+00 0. -1.
<mgrwt>
<rscale>  0 0.90502841E+02</rscale>
<asrwt>0</asrwt>
<pdfrwt beam="1">  1        1 0.23266270E-01 0.90502841E+02</pdfrwt>
<pdfrwt beam="2">  1       -1 0.20831040E-02 0.90502841E+02</pdfrwt>
<totfact> 0.11456942E+05</totfact>
</mgrwt>
</event>
<event>
 5    1  0.3862918E+001  0.9021313E+02  0.7546771E-02  0.1302336E+00
         -3   -1    0    0    0  501 -0.00000000000E+00  0.00000000000E+00  0.24363814968E+03  0.24363814968E+03  0.00000000000E+00 0.  1.
          3   -1    0    0  501    0  0.00000000000E+00 -0.00000000000E+00 -0.83509177508E+01  0.83509177508E+01  0.00000000000E+00 0. -1.
         23    2    1    2    0    0  0.00000000000E+00  0.00000000000E+00  0.23528723193E+03  0.25198906743E+03  0.90213128733E+02 0.  0.
          2    1    3    3  502    0 -0.19733592999E+02  0.13189851989E+02  0.10504005075E+02  0.25956136283E+02  0.00000000000E+00 0. -1.
         -2    1    3    3    0  502  0.19733592999E+02 -0.13189851989E+02  0.22478322686E+03  0.22603293115E+03  0.00000000000E+00 0.  1.
<mgrwt>
<rscale>  0 0.90213129E+02</rscale>
<asrwt>0</asrwt>
<pdfrwt beam="2">  1        3 0.12847568E-02 0.90213129E+02</pdfrwt>
<pdfrwt beam="1">  1       -3 0.37482787E-01 0.90213129E+02</pdfrwt>
<totfact> 0.26764103E+04</totfact>
</mgrwt>
</event>
<event>
 5    1  0.3862918E+001  0.1168910E+03  0.7546771E-02  0.1248316E+00
         -1   -1    0    0    0  501 -0.00000000000E+00  0.00000000000E+00  0.53099384885E+03  0.53099384885E+03  0.00000000000E+00 0.  1.
          1   -1    0    0  501    0  0.00000000000E+00 -0.00000000000E+00 -0.64329875797E+01  0.64329875797E+01  0.00000000000E+00 0. -1.
         23    2    1    2    0    0  0.00000000000E+00  0.00000000000E+00  0.52456086127E+03  0.53742683643E+03  0.11689100623E+03 0.  0.
          2    1    3    3  502    0  0.44608296184E+02  0.29216794946E+01  0.43537788304E+03  0.43766692511E+03  0.00000000000E+00 0.  1.
         -2    1    3    3    0  502 -0.44608296184E+02 -0.29216794946E+01  0.89182978233E+02  0.99759911317E+02  0.00000000000E+00 0. -1.
<mgrwt>
<rscale>  0 0.11689101E+03</rscale>
<asrwt>0</asrwt>
<pdfrwt beam="2">  1        1 0.98969082E-03 0.11689101E+03</pdfrwt>
<pdfrwt beam="1">  1       -1 0.81691327E-01 0.11689101E+03</pdfrwt>
<totfact> 0.23451980E+04</totfact>
</mgrwt>
</event>
<event>
 5    1  0.3862918E+001  0.7563373E+02  0.7546771E-02  0.1341920E+00
          1   -1    0    0  501    0  0.00000000000E+00  0.00000000000E+00  0.19757735732E+02  0.19757735732E+02  0.00000000000E+00 0. -1.
         -1   -1    0    0    0  501 -0.00000000000E+00 -0.00000000000E+00 -0.72382540623E+02  0.72382540623E+02  0.00000000000E+00 0.  1.
         23    2    1    2    0    0  0.00000000000E+00  0.00000000000E+00 -0.52624804890E+02  0.92140276355E+02  0.75633725527E+02 0.  0.
          2    1    3    3  502    0  0.68550944580E+01 -0.32980178833E+02 -0.53731221369E+01  0.34110921379E+02  0.00000000000E+00 0. -1.
         -2    1    3    3    0  502 -0.68550944580E+01  0.32980178833E+02 -0.47251682753E+02  0.58029354976E+02  0.00000000000E+00 0.  1.
<mgrwt>
<rscale>  0 0.75633726E+02</rscale>
<asrwt>0</asrwt>
<pdfrwt beam="1">  1        1 0.30396517E-02 0.75633726E+02</pdfrwt>
<pdfrwt beam="2">  1       -1 0.11135775E-01 0.75633726E+02</pdfrwt>
<totfact> 0.13850226E+05</totfact>
</mgrwt>
</event>
<event>
 5    1  0.3862918E+001  0.1124659E+03  0.7546771E-02  0.1256070E+00
          1   -1    0    0  501    0  0.00000000000E+00  0.00000000000E+00  0.69989619271E+03  0.69989619271E+03  0.00000000000E+00 0. -1.
         -1   -1    0    0    0  501 -0.00000000000E+00 -0.00000000000E+00 -0.45180184842E+01  0.45180184842E+01  0.00000000000E+00 0.  1.
         23    2    1    2    0    0  0.00000000000E+00  0.00000000000E+00  0.69537817423E+03  0.70441421120E+03  0.11246588702E+03 0.  0.
          2    1    3    3  502    0 -0.42788286857E+02  0.26184958343E+02  0.50683934757E+03  0.50931582911E+03  0.00000000000E+00 0. -1.
         -2    1    3    3    0  502  0.42788286857E+02 -0.26184958343E+02  0.18853882666E+03  0.19509838209E+03  0.00000000000E+00 0.  1.
<mgrwt>
<rscale>  0 0.11246589E+03</rscale>
<asrwt>0</asrwt>
<pdfrwt beam="1">  1        1 0.10767625E+00 0.11246589E+03</pdfrwt>
<pdfrwt beam="2">  1       -1 0.69508032E-03 0.11246589E+03</pdfrwt>
<totfact> 0.81159301E+04</totfact>
</mgrwt>
</event>
<event>
 5    1  0.3862918E+001  0.9169026E+02  0.7546771E-02  0.1298809E+00
         -1   -1    0    0    0  501 -0.00000000000E+00  0.00000000000E+00  0.10411774098E+01  0.10411774098E+01  0.00000000000E+00 0.  1.
          1   -1    0    0  501    0  0.00000000000E+00 -0.00000000000E+00 -0.20186530738E+04  0.20186530738E+04  0.00000000000E+00 0. -1.
         23    2    1    2    0    0  0.00000000000E+00  0.00000000000E+00 -0.20176118964E+04  0.20196942512E+04  0.91690260741E+02 0.  0.
          2    1    3    3  502    0 -0.43785513456E+02 -0.47747319244E+01 -0.12890011576E+04  0.12897534468E+04  0.00000000000E+00 0. -1.
         -2    1    3    3    0  502  0.43785513456E+02  0.47747319244E+01 -0.72861073880E+03  0.72994080441E+03  0.00000000000E+00 0.  1.
<mgrwt>
<rscale>  0 0.91690261E+02</rscale>
<asrwt>0</asrwt>
<pdfrwt beam="2">  1        1 0.31056110E+00 0.91690261E+02</pdfrwt>
<pdfrwt beam="1">  1       -1 0.16018161E-03 0.91690261E+02</pdfrwt>
<totfact> 0.77456635E+04</totfact>
</mgrwt>
</event>
<event>
 5    1  0.3862918E+001  0.9131601E+02  0.7546771E-02  0.1299696E+00
         -1   -1    0    0    0  501 -0.00000000000E+00  0.00000000000E+00  0.17242804539E+03  0.17242804539E+03  0.00000000000E+00 0.  1.
          1   -1    0    0  501    0  0.00000000000E+00 -0.00000000000E+00 -0.12089989590E+02  0.12089989590E+02  0.00000000000E+00 0. -1.
         23    2    1    2    0    0  0.00000000000E+00  0.00000000000E+00  0.16033805580E+03  0.18451803498E+03  0.91316006785E+02 0.  0.
          2    1    3    3  502    0 -0.21169689535E+02 -0.37673487273E+02  0.50388822164E+02  0.66381328681E+02  0.00000000000E+00 0. -1.
         -2    1    3    3    0  502  0.21169689535E+02  0.37673487273E+02  0.10994923363E+03  0.11813670630E+03  0.00000000000E+00 0.  1.
<mgrwt>
<rscale>  0 0.91316007E+02</rscale>
<asrwt>0</asrwt>
<pdfrwt beam="2">  1        1 0.18599985E-02 0.91316007E+02</pdfrwt>
<pdfrwt beam="1">  1       -1 0.26527390E-01 0.91316007E+02</pdfrwt>
<totfact> 0.71989393E+04</totfact>
</mgrwt>
</event>
<event>
 5    1  0.3862918E+001  0.9029660E+02  0.7546771E-02  0.1302135E+00
          1   -1    0    0  501    0  0.00000000000E+00  0.00000000000E+00  0.16398258713E+04  0.16398258713E+04  0.00000000000E+00 0. -1.
         -1   -1    0    0    0  501 -0.00000000000E+00 -0.00000000000E+00 -0.12430398925E+01  0.12430398925E+01  0.00000000000E+00 0.  1.
         23    2    1    2    0    0  0.00000000000E+00  0.00000000000E+00  0.16385828314E+04  0.16410689112E+04  0.90296599597E+02 0.  0.
          2    1    3    3  502    0  0.11039114235E+02  0.30709694921E+02  0.13863212435E+04  0.13867052814E+04  0.00000000000E+00 0. -1.
         -2    1    3    3    0  502 -0.11039114235E+02 -0.30709694921E+02  0.25226158792E+03  0.25436362976E+03  0.00000000000E+00 0.  1.
<mgrwt>
<rscale>  0 0.90296600E+02</rscale>
<asrwt>0</asrwt>
<pdfrwt beam="1">  1        1 0.25227917E+00 0.90296600E+02</pdfrwt>
<pdfrwt beam="2">  1       -1 0.19123822E-03 0.90296600E+02</pdfrwt>
<totfact> 0.10459390E+05</totfact>
</mgrwt>
</event>
<event>
 5    1  0.3862918E+001  0.9143151E+02  0.7546771E-02  0.1299422E+00
          2   -1    0    0  501    0  0.00000000000E+00  0.00000000000E+00  0.61604545076E+02  0.61604545076E+02  0.00000000000E+00 0. -1.
         -2   -1    0    0    0  501 -0.00000000000E+00 -0.00000000000E+00 -0.33924935264E+02  0.33924935264E+02  0.00000000000E+00 0.  1.
         23    2    1    2    0    0  0.00000000000E+00  0.00000000000E+00  0.27679609812E+02  0.95529480339E+02  0.91431508872E+02 0.  0.
          2    1    3    3  502    0  0.30541925735E+02  0.18187051508E+02  0.43874560673E+02  0.56467292696E+02  0.00000000000E+00 0. -1.
         -2    1    3    3    0  502 -0.30541925735E+02 -0.18187051508E+02 -0.16194950860E+02  0.39062187644E+02  0.00000000000E+00 0.  1.
<mgrwt>
<rscale>  0 0.91431509E+02</rscale>
<asrwt>0</asrwt>
<pdfrwt beam="1">  1        2 0.94776223E-02 0.91431509E+02</pdfrwt>
<pdfrwt beam="2">  1       -2 0.52192208E-02 0.91431509E+02</pdfrwt>
<totfact> 0.10598796E+05</totfact>
</mgrwt>
</event>
<event>
 5    1  0.3862918E+001  0.9254902E+02  0.7546771E-02  0.1296794E+00
          2   -1    0    0  501    0  0.00000000000E+00  0.00000000000E+00  0.99930951312E+03  0.99930951312E+03  0.00000000000E+00 0.  1.
         -2   -1    0    0    0  501 -0.00000000000E+00 -0.00000000000E+00 -0.21428100172E+01  0.21428100172E+01  0.00000000000E+00 0. -1.
         23    2    1    2    0    0  0.00000000000E+00  0.00000000000E+00  0.99716670310E+03  0.10014523231E+04  0.92549023441E+02 0.  0.
          2    1    3    3  502    0  0.12887297548E+02 -0.19980431505E+02  0.69006642470E+02  0.72987785185E+02  0.00000000000E+00 0. -1.
         -2    1    3    3    0  502 -0.12887297548E+02  0.19980431505E+02  0.92816006063E+03  0.92846453795E+03  0.00000000000E+00 0.  1.
<mgrwt>
<rscale>  0 0.92549023E+02</rscale>
<asrwt>0</asrwt>
<pdfrwt beam="1">  1        2 0.15373955E+00 0.92549023E+02</pdfrwt>
<pdfrwt beam="2">  1       -2 0.32966388E-03 0.92549023E+02</pdfrwt>
<totfact> 0.24035696E+05</totfact>
</mgrwt>
</event>
<event>
 5    1  0.3862918E+001  0.9377570E+02  0.7546771E-02  0.1293958E+00
         -2   -1    0    0    0  501 -0.00000000000E+00  0.00000000000E+00  0.27677917428E+02  0.27677917428E+02  0.00000000000E+00 0. -1.
          2   -1    0    0  501    0  0.00000000000E+00 -0.00000000000E+00 -0.79430482854E+02  0.79430482854E+02  0.00000000000E+00 0.  1.
         23    2    1    2    0    0  0.00000000000E+00  0.00000000000E+00 -0.51752565426E+02  0.10710840028E+03  0.93775697187E+02 0.  0.
          2    1    3    3  502    0 -0.41541621715E+02 -0.10012259160E+02 -0.38314271583E+01  0.42902581534E+02  0.00000000000E+00 0. -1.
         -2    1    3    3    0  502  0.41541621715E+02  0.10012259160E+02 -0.47921138268E+02  0.64205818748E+02  0.00000000000E+00 0.  1.
<mgrwt>
<rscale>  0 0.93775697E+02</rscale>
<asrwt>0</asrwt>
<pdfrwt beam="2">  1        2 0.12220074E-01 0.93775697E+02</pdfrwt>
<pdfrwt beam="1">  1       -2 0.42581411E-02 0.93775697E+02</pdfrwt>
<totfact> 0.10598006E+05</totfact>
</mgrwt>
</event>
<event>
 5    1  0.3862918E+001  0.8380015E+02  0.7546771E-02  0.1318600E+00
         -1   -1    0    0    0  501 -0.00000000000E+00  0.00000000000E+00  0.57306122400E+01  0.57306122400E+01  0.00000000000E+00 0.  1.
          1   -1    0    0  501    0  0.00000000000E+00 -0.00000000000E+00 -0.30635753245E+03  0.30635753245E+03  0.00000000000E+00 0. -1.
         23    2    1    2    0    0  0.00000000000E+00  0.00000000000E+00 -0.30062692021E+03  0.31208814469E+03  0.83800148574E+02 0.  0.
          2    1    3    3  502    0 -0.22342447133E+02 -0.23402035647E+02 -0.24946215165E+03  0.25155159574E+03  0.00000000000E+00 0. -1.
         -2    1    3    3    0  502  0.22342447133E+02  0.23402035647E+02 -0.51164768561E+02  0.60536548946E+02  0.00000000000E+00 0.  1.
<mgrwt>
<rscale>  0 0.83800149E+02</rscale>
<asrwt>0</asrwt>
<pdfrwt beam="2">  1        1 0.47131927E-01 0.83800149E+02</pdfrwt>
<pdfrwt beam="1">  1       -1 0.88163267E-03 0.83800149E+02</pdfrwt>
<totfact> 0.16087403E+05</totfact>
</mgrwt>
</event>
<event>
 5    1  0.3862918E+001  0.9050054E+02  0.7546771E-02  0.1301644E+00
          2   -1    0    0  501    0  0.00000000000E+00  0.00000000000E+00  0.14701521558E+04  0.14701521558E+04  0.00000000000E+00 0. -1.
         -2   -1    0    0    0  501 -0.00000000000E+00 -0.00000000000E+00 -0.13927722236E+01  0.13927722236E+01  0.00000000000E+00 0.  1.
         23    2    1    2    0    0  0.00000000000E+00  0.00000000000E+00  0.14687593835E+04  0.14715449280E+04  0.90500543359E+02 0.  0.
          2    1    3    3  502    0 -0.48690098372E+00  0.22015365372E+02  0.13771510127E+04  0.13773270582E+04  0.00000000000E+00 0. -1.
         -2    1    3    3    0  502  0.48690098372E+00 -0.22015365372E+02  0.91608370837E+02  0.94217869815E+02  0.00000000000E+00 0.  1.
<mgrwt>
<rscale>  0 0.90500543E+02</rscale>
<asrwt>0</asrwt>
<pdfrwt beam="1">  1        2 0.22617601E+00 0.90500543E+02</pdfrwt>
<pdfrwt beam="2">  1       -2 0.21427383E-03 0.90500543E+02</pdfrwt>
<totfact> 0.24240525E+05</totfact>
</mgrwt>
</event>
<event>
 5    1  0.3862918E+001  0.9143236E+02  0.7546771E-02  0.1299420E+00
         -2   -1    0    0    0  501 -0.00000000000E+00  0.00000000000E+00  0.87388966766E+01  0.87388966766E+01  0.00000000000E+00 0.  1.
          2   -1    0    0  501    0  0.00000000000E+00 -0.00000000000E+00 -0.23915708121E+03  0.23915708121E+03  0.00000000000E+00 0. -1.
         23    2    1    2    0    0  0.00000000000E+00  0.00000000000E+00 -0.23041818454E+03  0.24789597789E+03  0.91432357996E+02 0.  0.
          2    1    3    3  502    0  0.34219254066E+02  0.12601568224E+02 -0.18996352735E+03  0.19343189653E+03  0.00000000000E+00 0. -1.
         -2    1    3    3    0  502 -0.34219254066E+02 -0.12601568224E+02 -0.40454657180E+02  0.54464081357E+02  0.00000000000E+00 0.  1.
<mgrwt>
<rscale>  0 0.91432358E+02</rscale>
<asrwt>0</asrwt>
<pdfrwt beam="2">  1        2 0.36793394E-01 0.91432358E+02</pdfrwt>
<pdfrwt beam="1">  1       -2 0.13444457E-02 0.91432358E+02</pdfrwt>
<totfact> 0.16389710E+05</totfact>
</mgrwt>
</event>
<event>
 5    1  0.3862918E+001  0.9062007E+02  0.7546771E-02  0.1301357E+00
         -3   -1    0    0    0  501 -0.00000000000E+00  0.00000000000E+00  0.52617689585E+03  0.52617689585E+03  0.00000000000E+00 0.  1.
          3   -1    0    0  501    0  0.00000000000E+00 -0.00000000000E+00 -0.39017282900E+01  0.39017282900E+01  0.00000000000E+00 0. -1.
         23    2    1    2    0    0  0.00000000000E+00  0.00000000000E+00  0.52227516756E+03  0.53007862414E+03  0.90620070185E+02 0.  0.
          2    1    3    3  502    0 -0.29445116999E+02  0.31337856160E+02  0.17760630155E+03  0.18273772051E+03  0.00000000000E+00 0. -1.
         -2    1    3    3    0  502  0.29445116999E+02 -0.31337856160E+02  0.34466886600E+03  0.34734090363E+03  0.00000000000E+00 0.  1.
<mgrwt>
<rscale>  0 0.90620070E+02</rscale>
<asrwt>0</asrwt>
<pdfrwt beam="2">  1        3 0.60026631E-03 0.90620070E+02</pdfrwt>
<pdfrwt beam="1">  1       -3 0.80950236E-01 0.90620070E+02</pdfrwt>
<totfact> 0.17466887E+04</totfact>
</mgrwt>
</event>
<event>
 5    1  0.3862918E+001  0.9141116E+02  0.7546771E-02  0.1299470E+00
          2   -1    0    0  501    0  0.00000000000E+00  0.00000000000E+00  0.23570662268E+04  0.23570662268E+04  0.00000000000E+00 0. -1.
         -2   -1    0    0    0  501 -0.00000000000E+00 -0.00000000000E+00 -0.88627130974E+00  0.88627130974E+00  0.00000000000E+00 0.  1.
         23    2    1    2    0    0  0.00000000000E+00  0.00000000000E+00  0.23561799555E+04  0.23579524981E+04  0.91411162819E+02 0.  0.
          2    1    3    3  502    0  0.36693406269E+02  0.38459080743E+01  0.48219649590E+03  0.48360589092E+03  0.00000000000E+00 0.  1.
         -2    1    3    3    0  502 -0.36693406269E+02 -0.38459080743E+01  0.18739834596E+04  0.18743466072E+04  0.00000000000E+00 0. -1.
<mgrwt>
<rscale>  0 0.91411163E+02</rscale>
<asrwt>0</asrwt>
<pdfrwt beam="1">  1        2 0.36262056E+00 0.91411163E+02</pdfrwt>
<pdfrwt beam="2">  1       -2 0.13635132E-03 0.91411163E+02</pdfrwt>
<totfact> 0.16145727E+05</totfact>
</mgrwt>
</event>
<event>
 5    1  0.3862918E+001  0.9540577E+02  0.7546771E-02  0.1290265E+00
         -2   -1    0    0    0  501 -0.00000000000E+00  0.00000000000E+00  0.46851484048E+02  0.46851484048E+02  0.00000000000E+00 0.  1.
          2   -1    0    0  501    0  0.00000000000E+00 -0.00000000000E+00 -0.48569757433E+02  0.48569757433E+02  0.00000000000E+00 0. -1.
         23    2    1    2    0    0  0.00000000000E+00  0.00000000000E+00 -0.17182733847E+01  0.95421241481E+02  0.95405769545E+02 0.  0.
          2    1    3    3  502    0 -0.20906525778E+02 -0.22618010792E+02  0.35573518812E+02  0.47054569097E+02  0.00000000000E+00 0.  1.
         -2    1    3    3    0  502  0.20906525778E+02  0.22618010792E+02 -0.37291792196E+02  0.48366672384E+02  0.00000000000E+00 0. -1.
<mgrwt>
<rscale>  0 0.95405770E+02</rscale>
<asrwt>0</asrwt>
<pdfrwt beam="2">  1        2 0.74722704E-02 0.95405770E+02</pdfrwt>
<pdfrwt beam="1">  1       -2 0.72079206E-02 0.95405770E+02</pdfrwt>
<totfact> 0.88062358E+04</totfact>
</mgrwt>
</event>
<event>
 5    1  0.3862918E+001  0.8885290E+02  0.7546771E-02  0.1305654E+00
          1   -1    0    0  501    0  0.00000000000E+00  0.00000000000E+00  0.22679630096E+03  0.22679630096E+03  0.00000000000E+00 0. -1.
         -1   -1    0    0    0  501 -0.00000000000E+00 -0.00000000000E+00 -0.87025648162E+01  0.87025648162E+01  0.00000000000E+00 0.  1.
         23    2    1    2    0    0  0.00000000000E+00  0.00000000000E+00  0.21809373615E+03  0.23549886578E+03  0.88852901116E+02 0.  0.
          2    1    3    3  502    0  0.14853850539E+02 -0.36330793799E+02  0.53885581228E+02  0.66664978198E+02  0.00000000000E+00 0. -1.
         -2    1    3    3    0  502 -0.14853850539E+02  0.36330793799E+02  0.16420815492E+03  0.16883388758E+03  0.00000000000E+00 0.  1.
<mgrwt>
<rscale>  0 0.88852901E+02</rscale>
<asrwt>0</asrwt>
<pdfrwt beam="1">  1        1 0.34891734E-01 0.88852901E+02</pdfrwt>
<pdfrwt beam="2">  1       -1 0.13388563E-02 0.88852901E+02</pdfrwt>
<totfact> 0.13000327E+05</totfact>
</mgrwt>
</event>
<event>
 5    1  0.3862918E+001  0.9269188E+02  0.7546771E-02  0.1296461E+00
          1   -1    0    0  501    0  0.00000000000E+00  0.00000000000E+00  0.11331456548E+02  0.11331456548E+02  0.00000000000E+00 0. -1.
         -1   -1    0    0    0  501 -0.00000000000E+00 -0.00000000000E+00 -0.18955604884E+03  0.18955604884E+03  0.00000000000E+00 0.  1.
         23    2    1    2    0    0  0.00000000000E+00  0.00000000000E+00 -0.17822459229E+03  0.20088750539E+03  0.92691879491E+02 0.  0.
          2    1    3    3  502    0  0.32388842513E+02  0.27514114444E+02 -0.49039496564E+02  0.64891723942E+02  0.00000000000E+00 0. -1.
         -2    1    3    3    0  502 -0.32388842513E+02 -0.27514114444E+02 -0.12918509573E+03  0.13599578145E+03  0.00000000000E+00 0.  1.
<mgrwt>
<rscale>  0 0.92691879E+02</rscale>
<asrwt>0</asrwt>
<pdfrwt beam="1">  1        1 0.17433009E-02 0.92691879E+02</pdfrwt>
<pdfrwt beam="2">  1       -1 0.29162470E-01 0.92691879E+02</pdfrwt>
<totfact> 0.67513292E+04</totfact>
</mgrwt>
</event>
<event>
 5    1  0.3862918E+001  0.9130145E+02  0.7546771E-02  0.1299730E+00
         -1   -1    0    0    0  501 -0.00000000000E+00  0.00000000000E+00  0.33566531604E+01  0.33566531604E+01  0.00000000000E+00 0.  1.
          1   -1    0    0  501    0  0.00000000000E+00 -0.00000000000E+00 -0.62085319732E+03  0.62085319732E+03  0.00000000000E+00 0. -1.
         23    2    1    2    0    0  0.00000000000E+00  0.00000000000E+00 -0.61749654416E+03  0.62420985048E+03  0.91301453371E+02 0.  0.
          2    1    3    3  502    0 -0.39504791573E+01  0.36901153740E+02 -0.49049500191E+03  0.49189698956E+03  0.00000000000E+00 0. -1.
         -2    1    3    3    0  502  0.39504791573E+01 -0.36901153740E+02 -0.12700154225E+03  0.13231286093E+03  0.00000000000E+00 0.  1.
<mgrwt>
<rscale>  0 0.91301453E+02</rscale>
<asrwt>0</asrwt>
<pdfrwt beam="2">  1        1 0.95515847E-01 0.91301453E+02</pdfrwt>
<pdfrwt beam="1">  1       -1 0.51640834E-03 0.91301453E+02</pdfrwt>
<totfact> 0.14133227E+05</totfact>
</mgrwt>
</event>
<event>
 5    1  0.3862918E+001  0.9102987E+02  0.7546771E-02  0.1300377E+00
          2   -1    0    0  501    0  0.00000000000E+00  0.00000000000E+00  0.23489314694E+02  0.23489314694E+02  0.00000000000E+00 0. -1.
         -2   -1    0    0    0  501 -0.00000000000E+00 -0.00000000000E+00 -0.88193693575E+02  0.88193693575E+02  0.00000000000E+00 0.  1.
         23    2    1    2    0    0  0.00000000000E+00  0.00000000000E+00 -0.64704378880E+02  0.11168300827E+03  0.91029872512E+02 0.  0.
          2    1    3    3  502    0 -0.32232779370E+02  0.13474034204E+02  0.34405916097E+01  0.35104691058E+02  0.00000000000E+00 0. -1.
         -2    1    3    3    0  502  0.32232779370E+02 -0.13474034204E+02 -0.68144970490E+02  0.76578317210E+02  0.00000000000E+00 0.  1.
<mgrwt>
<rscale>  0 0.91029873E+02</rscale>
<asrwt>0</asrwt>
<pdfrwt beam="1">  1        2 0.36137406E-02 0.91029873E+02</pdfrwt>
<pdfrwt beam="2">  1       -2 0.13568261E-01 0.91029873E+02</pdfrwt>
<totfact> 0.83114268E+04</totfact>
</mgrwt>
</event>
<event>
 5    1  0.3862918E+001  0.9095881E+02  0.7546771E-02  0.1300546E+00
          2   -1    0    0  501    0  0.00000000000E+00  0.00000000000E+00  0.16058278167E+04  0.16058278167E+04  0.00000000000E+00 0. -1.
         -2   -1    0    0    0  501 -0.00000000000E+00 -0.00000000000E+00 -0.12880436143E+01  0.12880436143E+01  0.00000000000E+00 0.  1.
         23    2    1    2    0    0  0.00000000000E+00  0.00000000000E+00  0.16045397731E+04  0.16071158603E+04  0.90958809688E+02 0.  0.
          2    1    3    3  502    0  0.35542410621E+02 -0.27028113715E+02  0.95487021790E+03  0.95591365453E+03  0.00000000000E+00 0. -1.
         -2    1    3    3    0  502 -0.35542410621E+02  0.27028113715E+02  0.64966955522E+03  0.65120220582E+03  0.00000000000E+00 0.  1.
<mgrwt>
<rscale>  0 0.90958810E+02</rscale>
<asrwt>0</asrwt>
<pdfrwt beam="1">  1        2 0.24704883E+00 0.90958810E+02</pdfrwt>
<pdfrwt beam="2">  1       -2 0.19816184E-03 0.90958810E+02</pdfrwt>
<totfact> 0.23059532E+05</totfact>
</mgrwt>
</event>
<event>
 5    1  0.3862918E+001  0.9135365E+02  0.7546771E-02  0.1299606E+00
         -1   -1    0    0    0  501 -0.00000000000E+00  0.00000000000E+00  0.33598898819E+01  0.33598898819E+01  0.00000000000E+00 0.  1.
          1   -1    0    0  501    0  0.00000000000E+00 -0.00000000000E+00 -0.62096453188E+03  0.62096453188E+03  0.00000000000E+00 0. -1.
         23    2    1    2    0    0  0.00000000000E+00  0.00000000000E+00 -0.61760464200E+03  0.62432442176E+03  0.91353652312E+02 0.  0.
          2    1    3    3  502    0  0.41642002569E+01  0.44023484697E+02 -0.23059246254E+03  0.23479414718E+03  0.00000000000E+00 0.  1.
         -2    1    3    3    0  502 -0.41642002569E+01 -0.44023484697E+02 -0.38701217945E+03  0.38953027458E+03  0.00000000000E+00 0. -1.
<mgrwt>
<rscale>  0 0.91353652E+02</rscale>
<asrwt>0</asrwt>
<pdfrwt beam="2">  1        1 0.95532990E-01 0.91353652E+02</pdfrwt>
<pdfrwt beam="1">  1       -1 0.51690622E-03 0.91353652E+02</pdfrwt>
<totfact> 0.14111975E+05</totfact>
</mgrwt>
</event>
<event>
 5    1  0.3862918E+001  0.9082149E+02  0.7546771E-02  0.1300874E+00
          4   -1    0    0  501    0  0.00000000000E+00  0.00000000000E+00  0.45354694470E+02  0.45354694470E+02  0.00000000000E+00 0. -1.
         -4   -1    0    0    0  501 -0.00000000000E+00 -0.00000000000E+00 -0.45466863648E+02  0.45466863648E+02  0.00000000000E+00 0.  1.
         23    2    1    2    0    0  0.00000000000E+00  0.00000000000E+00 -0.11216917728E+00  0.90821558118E+02  0.90821488851E+02 0.  0.
          2    1    3    3  502    0  0.25425083584E+01  0.45052177044E+02  0.50402615266E+01  0.45404484816E+02  0.00000000000E+00 0. -1.
         -2    1    3    3    0  502 -0.25425083584E+01 -0.45052177044E+02 -0.51524307039E+01  0.45417073302E+02  0.00000000000E+00 0.  1.
<mgrwt>
<rscale>  0 0.90821489E+02</rscale>
<asrwt>0</asrwt>
<pdfrwt beam="1">  1        4 0.69776453E-02 0.90821489E+02</pdfrwt>
<pdfrwt beam="2">  1       -4 0.69949021E-02 0.90821489E+02</pdfrwt>
<totfact> 0.27327105E+04</totfact>
</mgrwt>
</event>
<event>
 5    1  0.3862918E+001  0.9047645E+02  0.7546771E-02  0.1301702E+00
         -2   -1    0    0    0  501 -0.00000000000E+00  0.00000000000E+00  0.14849648724E+03  0.14849648724E+03  0.00000000000E+00 0. -1.
          2   -1    0    0  501    0  0.00000000000E+00 -0.00000000000E+00 -0.13781451404E+02  0.13781451404E+02  0.00000000000E+00 0.  1.
         23    2    1    2    0    0  0.00000000000E+00  0.00000000000E+00  0.13471503583E+03  0.16227793864E+03  0.90476452683E+02 0.  0.
          2    1    3    3  502    0  0.22329367024E+02  0.35462367382E+02  0.97917996011E+02  0.10650875117E+03  0.00000000000E+00 0. -1.
         -2    1    3    3    0  502 -0.22329367024E+02 -0.35462367382E+02  0.36797039824E+02  0.55769187477E+02  0.00000000000E+00 0.  1.
<mgrwt>
<rscale>  0 0.90476453E+02</rscale>
<asrwt>0</asrwt>
<pdfrwt beam="2">  1        2 0.21202234E-02 0.90476453E+02</pdfrwt>
<pdfrwt beam="1">  1       -2 0.22845612E-01 0.90476453E+02</pdfrwt>
<totfact> 0.71493353E+04</totfact>
</mgrwt>
</event>
<event>
 5    1  0.3862918E+001  0.9181378E+02  0.7546771E-02  0.1298518E+00
          2   -1    0    0  501    0  0.00000000000E+00  0.00000000000E+00  0.54026938326E+03  0.54026938326E+03  0.00000000000E+00 0. -1.
         -2   -1    0    0    0  501 -0.00000000000E+00 -0.00000000000E+00 -0.39007251621E+01  0.39007251621E+01  0.00000000000E+00 0.  1.
         23    2    1    2    0    0  0.00000000000E+00  0.00000000000E+00  0.53636865810E+03  0.54417010842E+03  0.91813776256E+02 0.  0.
          2    1    3    3  502    0 -0.30253370139E+02 -0.18627201404E+02  0.95875538361E+02  0.10224655443E+03  0.00000000000E+00 0. -1.
         -2    1    3    3    0  502  0.30253370139E+02  0.18627201404E+02  0.44049311973E+03  0.44192355399E+03  0.00000000000E+00 0.  1.
<mgrwt>
<rscale>  0 0.91813776E+02</rscale>
<asrwt>0</asrwt>
<pdfrwt beam="1">  1        2 0.83118307E-01 0.91813776E+02</pdfrwt>
<pdfrwt beam="2">  1       -2 0.60011199E-03 0.91813776E+02</pdfrwt>
<totfact> 0.21682643E+05</totfact>
</mgrwt>
</event>
<event>
 5    1  0.3862918E+001  0.8918466E+02  0.7546771E-02  0.1304838E+00
          1   -1    0    0  501    0  0.00000000000E+00  0.00000000000E+00  0.17231448389E+03  0.17231448389E+03  0.00000000000E+00 0. -1.
         -1   -1    0    0    0  501 -0.00000000000E+00 -0.00000000000E+00 -0.11539807788E+02  0.11539807788E+02  0.00000000000E+00 0.  1.
         23    2    1    2    0    0  0.00000000000E+00  0.00000000000E+00  0.16077467610E+03  0.18385429167E+03  0.89184662878E+02 0.  0.
          2    1    3    3  502    0 -0.47161249827E+01 -0.43944495696E+02  0.92603448213E+02  0.10260974202E+03  0.00000000000E+00 0. -1.
         -2    1    3    3    0  502  0.47161249827E+01  0.43944495696E+02  0.68171227884E+02  0.81244549651E+02  0.00000000000E+00 0.  1.
<mgrwt>
<rscale>  0 0.89184663E+02</rscale>
<asrwt>0</asrwt>
<pdfrwt beam="1">  1        1 0.26509919E-01 0.89184663E+02</pdfrwt>
<pdfrwt beam="2">  1       -1 0.17753552E-02 0.89184663E+02</pdfrwt>
<totfact> 0.12209850E+05</totfact>
</mgrwt>
</event>
<event>
 5    1  0.3862918E+001  0.9504823E+02  0.7546771E-02  0.1291067E+00
         -2   -1    0    0    0  501 -0.00000000000E+00  0.00000000000E+00  0.92775522813E+01  0.92775522813E+01  0.00000000000E+00 0.  1.
          2   -1    0    0  501    0  0.00000000000E+00 -0.00000000000E+00 -0.24344155283E+03  0.24344155283E+03  0.00000000000E+00 0. -1.
         23    2    1    2    0    0  0.00000000000E+00  0.00000000000E+00 -0.23416400055E+03  0.25271910512E+03  0.95048234784E+02 0.  0.
          2    1    3    3  502    0  0.41931507661E+02  0.59782638398E+01 -0.17438938733E+03  0.17945932516E+03  0.00000000000E+00 0. -1.
         -2    1    3    3    0  502 -0.41931507661E+02 -0.59782638398E+01 -0.59774613223E+02  0.73259779957E+02  0.00000000000E+00 0.  1.
<mgrwt>
<rscale>  0 0.95048235E+02</rscale>
<asrwt>0</asrwt>
<pdfrwt beam="2">  1        2 0.37452540E-01 0.95048235E+02</pdfrwt>
<pdfrwt beam="1">  1       -2 0.14273160E-02 0.95048235E+02</pdfrwt>
<totfact> 0.14864078E+05</totfact>
</mgrwt>
</event>
<event>
 5    1  0.3862918E+001  0.9031122E+02  0.7546771E-02  0.1302100E+00
          3   -1    0    0  501    0  0.00000000000E+00  0.00000000000E+00  0.14621944430E+02  0.14621944430E+02  0.00000000000E+00 0. -1.
         -3   -1    0    0    0  501 -0.00000000000E+00 -0.00000000000E+00 -0.13944993604E+03  0.13944993604E+03  0.00000000000E+00 0.  1.
         23    2    1    2    0    0  0.00000000000E+00  0.00000000000E+00 -0.12482799161E+03  0.15407188047E+03  0.90311222239E+02 0.  0.
          2    1    3    3  502    0  0.24792571217E+02  0.35333787608E+01 -0.12651715874E+03  0.12897188767E+03  0.00000000000E+00 0.  1.
         -2    1    3    3    0  502 -0.24792571217E+02 -0.35333787608E+01  0.16891671318E+01  0.25099992801E+02  0.00000000000E+00 0. -1.
<mgrwt>
<rscale>  0 0.90311222E+02</rscale>
<asrwt>0</asrwt>
<pdfrwt beam="1">  1        3 0.22495300E-02 0.90311222E+02</pdfrwt>
<pdfrwt beam="2">  1       -3 0.21453836E-01 0.90311222E+02</pdfrwt>
<totfact> 0.31871905E+04</totfact>
</mgrwt>
</event>
<event>
 5    1  0.3862918E+001  0.9022625E+02  0.7546771E-02  0.1302305E+00
          3   -1    0    0  501    0  0.00000000000E+00  0.00000000000E+00  0.95478507628E+02  0.95478507628E+02  0.00000000000E+00 0. -1.
         -3   -1    0    0    0  501 -0.00000000000E+00 -0.00000000000E+00 -0.21315727408E+02  0.21315727408E+02  0.00000000000E+00 0.  1.
         23    2    1    2    0    0  0.00000000000E+00  0.00000000000E+00  0.74162780220E+02  0.11679423504E+03  0.90226245449E+02 0.  0.
          2    1    3    3  502    0 -0.16059081152E+02  0.12466993676E+02  0.89212509821E+02  0.91499682662E+02  0.00000000000E+00 0. -1.
         -2    1    3    3    0  502  0.16059081152E+02 -0.12466993676E+02 -0.15049729601E+02  0.25294552374E+02  0.00000000000E+00 0.  1.
<mgrwt>
<rscale>  0 0.90226245E+02</rscale>
<asrwt>0</asrwt>
<pdfrwt beam="1">  1        3 0.14689001E-01 0.90226245E+02</pdfrwt>
<pdfrwt beam="2">  1       -3 0.32793427E-02 0.90226245E+02</pdfrwt>
<totfact> 0.34431729E+04</totfact>
</mgrwt>
</event>
<event>
 5    1  0.3862918E+001  0.9161430E+02  0.7546771E-02  0.1298989E+00
         -1   -1    0    0    0  501 -0.00000000000E+00  0.00000000000E+00  0.40449266419E+03  0.40449266419E+03  0.00000000000E+00 0.  1.
          1   -1    0    0  501    0  0.00000000000E+00 -0.00000000000E+00 -0.51874739831E+01  0.51874739831E+01  0.00000000000E+00 0. -1.
         23    2    1    2    0    0  0.00000000000E+00  0.00000000000E+00  0.39930519021E+03  0.40968013818E+03  0.91614303946E+02 0.  0.
          2    1    3    3  502    0 -0.12957992515E+02 -0.28241238182E+02  0.49143859773E+02  0.58142893439E+02  0.00000000000E+00 0. -1.
         -2    1    3    3    0  502  0.12957992515E+02  0.28241238182E+02  0.35016133044E+03  0.35153724474E+03  0.00000000000E+00 0.  1.
<mgrwt>
<rscale>  0 0.91614304E+02</rscale>
<asrwt>0</asrwt>
<pdfrwt beam="2">  1        1 0.79807324E-03 0.91614304E+02</pdfrwt>
<pdfrwt beam="1">  1       -1 0.62229616E-01 0.91614304E+02</pdfrwt>
<totfact> 0.52327647E+04</totfact>
</mgrwt>
</event>
<event>
 5    1  0.3862918E+001  0.9189663E+02  0.7546771E-02  0.1298323E+00
         -2   -1    0    0    0  501 -0.00000000000E+00  0.00000000000E+00  0.74399881619E+01  0.74399881619E+01  0.00000000000E+00 0.  1.
          2   -1    0    0  501    0  0.00000000000E+00 -0.00000000000E+00 -0.28377027700E+03  0.28377027700E+03  0.00000000000E+00 0. -1.
         23    2    1    2    0    0  0.00000000000E+00  0.00000000000E+00 -0.27633028884E+03  0.29121026516E+03  0.91896626741E+02 0.  0.
          2    1    3    3  502    0 -0.44611536762E+02 -0.73951458478E+01 -0.16398140698E+03  0.17010226110E+03  0.00000000000E+00 0. -1.
         -2    1    3    3    0  502  0.44611536762E+02  0.73951458478E+01 -0.11234888185E+03  0.12110800406E+03  0.00000000000E+00 0.  1.
<mgrwt>
<rscale>  0 0.91896627E+02</rscale>
<asrwt>0</asrwt>
<pdfrwt beam="2">  1        2 0.43656966E-01 0.91896627E+02</pdfrwt>
<pdfrwt beam="1">  1       -2 0.11446136E-02 0.91896627E+02</pdfrwt>
<totfact> 0.17231166E+05</totfact>
</mgrwt>
</event>
<event>
 5    1  0.3862918E+001  0.9313098E+02  0.7546771E-02  0.1295442E+00
         -1   -1    0    0    0  501 -0.00000000000E+00  0.00000000000E+00  0.96019315948E+00  0.96019315948E+00  0.00000000000E+00 0.  1.
          1   -1    0    0  501    0  0.00000000000E+00 -0.00000000000E+00 -0.22582380095E+04  0.22582380095E+04  0.00000000000E+00 0. -1.
         23    2    1    2    0    0  0.00000000000E+00  0.00000000000E+00 -0.22572778163E+04  0.22591982027E+04  0.93130976355E+02 0.  0.
          2    1    3    3  502    0  0.19534271269E+02  0.36912209375E+02 -0.16282923921E+04  0.16288278648E+04  0.00000000000E+00 0. -1.
         -2    1    3    3    0  502 -0.19534271269E+02 -0.36912209375E+02 -0.62898542420E+03  0.63037033783E+03  0.00000000000E+00 0.  1.
<mgrwt>
<rscale>  0 0.93130976E+02</rscale>
<asrwt>0</asrwt>
<pdfrwt beam="2">  1        1 0.34742267E+00 0.93130976E+02</pdfrwt>
<pdfrwt beam="1">  1       -1 0.14772141E-03 0.93130976E+02</pdfrwt>
<totfact> 0.61293204E+04</totfact>
</mgrwt>
</event>
<event>
 5    1  0.3862918E+001  0.9074777E+02  0.7546771E-02  0.1301051E+00
          1   -1    0    0  501    0  0.00000000000E+00  0.00000000000E+00  0.32666050798E+03  0.32666050798E+03  0.00000000000E+00 0. -1.
         -1   -1    0    0    0  501 -0.00000000000E+00 -0.00000000000E+00 -0.63025351270E+01  0.63025351270E+01  0.00000000000E+00 0.  1.
         23    2    1    2    0    0  0.00000000000E+00  0.00000000000E+00  0.32035797285E+03  0.33296304310E+03  0.90747767491E+02 0.  0.
          2    1    3    3  502    0 -0.40468974344E+02  0.30794587686E+01  0.23461465281E+03  0.23809925716E+03  0.00000000000E+00 0. -1.
         -2    1    3    3    0  502  0.40468974344E+02 -0.30794587686E+01  0.85743320045E+02  0.94863785941E+02  0.00000000000E+00 0.  1.
<mgrwt>
<rscale>  0 0.90747767E+02</rscale>
<asrwt>0</asrwt>
<pdfrwt beam="1">  1        1 0.50255450E-01 0.90747767E+02</pdfrwt>
<pdfrwt beam="2">  1       -1 0.96962104E-03 0.90747767E+02</pdfrwt>
<totfact> 0.13183253E+05</totfact>
</mgrwt>
</event>
<event>
 5    1  0.3862918E+001  0.9154718E+02  0.7546771E-02  0.1299148E+00
         -4   -1    0    0    0  501 -0.00000000000E+00  0.00000000000E+00  0.13634761707E+03  0.13634761707E+03  0.00000000000E+00 0. -1.
          4   -1    0    0  501    0  0.00000000000E+00 -0.00000000000E+00 -0.15366762243E+02  0.15366762243E+02  0.00000000000E+00 0.  1.
         23    2    1    2    0    0  0.00000000000E+00  0.00000000000E+00  0.12098085483E+03  0.15171437932E+03  0.91547177213E+02 0.  0.
          2    1    3    3  502    0 -0.11307902529E+02  0.24573259662E+02  0.12168467209E+03  0.12465501664E+03  0.00000000000E+00 0. -1.
         -2    1    3    3    0  502  0.11307902529E+02 -0.24573259662E+02 -0.70381726075E+00  0.27059362682E+02  0.00000000000E+00 0.  1.
<mgrwt>
<rscale>  0 0.91547177E+02</rscale>
<asrwt>0</asrwt>
<pdfrwt beam="2">  1        4 0.23641174E-02 0.91547177E+02</pdfrwt>
<pdfrwt beam="1">  1       -4 0.20976556E-01 0.91547177E+02</pdfrwt>
<totfact> 0.23330983E+04</totfact>
</mgrwt>
</event>
<event>
 5    1  0.3862918E+001  0.8924685E+02  0.7546771E-02  0.1304686E+00
         -1   -1    0    0    0  501 -0.00000000000E+00  0.00000000000E+00  0.55711146270E+03  0.55711146270E+03  0.00000000000E+00 0.  1.
          1   -1    0    0  501    0  0.00000000000E+00 -0.00000000000E+00 -0.35742398223E+01  0.35742398223E+01  0.00000000000E+00 0. -1.
         23    2    1    2    0    0  0.00000000000E+00  0.00000000000E+00  0.55353722288E+03  0.56068570252E+03  0.89246848134E+02 0.  0.
          2    1    3    3  502    0  0.28168170772E+02  0.16599622530E+02  0.85979978989E+02  0.91986684361E+02  0.00000000000E+00 0. -1.
         -2    1    3    3    0  502 -0.28168170772E+02 -0.16599622530E+02  0.46755724389E+03  0.46869901816E+03  0.00000000000E+00 0.  1.
<mgrwt>
<rscale>  0 0.89246848E+02</rscale>
<asrwt>0</asrwt>
<pdfrwt beam="2">  1        1 0.54988349E-03 0.89246848E+02</pdfrwt>
<pdfrwt beam="1">  1       -1 0.85709387E-01 0.89246848E+02</pdfrwt>
<totfact> 0.46384129E+04</totfact>
</mgrwt>
</event>
<event>
 5    1  0.3862918E+001  0.9070038E+02  0.7546771E-02  0.1301164E+00
          3   -1    0    0  501    0  0.00000000000E+00  0.00000000000E+00  0.10777024783E+02  0.10777024783E+02  0.00000000000E+00 0. -1.
         -3   -1    0    0    0  501 -0.00000000000E+00 -0.00000000000E+00 -0.19083559298E+03  0.19083559298E+03  0.00000000000E+00 0.  1.
         23    2    1    2    0    0  0.00000000000E+00  0.00000000000E+00 -0.18005856820E+03  0.20161261776E+03  0.90700384014E+02 0.  0.
          2    1    3    3  502    0  0.28723185225E+02 -0.34537739701E+02 -0.76189869109E+02  0.88446441353E+02  0.00000000000E+00 0. -1.
         -2    1    3    3    0  502 -0.28723185225E+02  0.34537739701E+02 -0.10386869909E+03  0.11316617641E+03  0.00000000000E+00 0.  1.
<mgrwt>
<rscale>  0 0.90700384E+02</rscale>
<asrwt>0</asrwt>
<pdfrwt beam="1">  1        3 0.16580037E-02 0.90700384E+02</pdfrwt>
<pdfrwt beam="2">  1       -3 0.29359323E-01 0.90700384E+02</pdfrwt>
<totfact> 0.28818105E+04</totfact>
</mgrwt>
</event>
<event>
 5    1  0.3862918E+001  0.9049814E+02  0.7546771E-02  0.1301650E+00
          1   -1    0    0  501    0  0.00000000000E+00  0.00000000000E+00  0.14888320315E+01  0.14888320315E+01  0.00000000000E+00 0. -1.
         -1   -1    0    0    0  501 -0.00000000000E+00 -0.00000000000E+00 -0.13752244351E+04  0.13752244351E+04  0.00000000000E+00 0.  1.
         23    2    1    2    0    0  0.00000000000E+00  0.00000000000E+00 -0.13737356031E+04  0.13767132672E+04  0.90498136767E+02 0.  0.
          2    1    3    3  502    0  0.10571258947E+02 -0.20687167598E+02 -0.96162201935E+02  0.98928658638E+02  0.00000000000E+00 0. -1.
         -2    1    3    3    0  502 -0.10571258947E+02  0.20687167598E+02 -0.12775734012E+04  0.12777846085E+04  0.00000000000E+00 0.  1.
<mgrwt>
<rscale>  0 0.90498137E+02</rscale>
<asrwt>0</asrwt>
<pdfrwt beam="1">  1        1 0.22905145E-03 0.90498137E+02</pdfrwt>
<pdfrwt beam="2">  1       -1 0.21157265E+00 0.90498137E+02</pdfrwt>
<totfact> 0.16486244E+04</totfact>
</mgrwt>
</event>
<event>
 5    1  0.3862918E+001  0.9154973E+02  0.7546771E-02  0.1299142E+00
          1   -1    0    0  501    0  0.00000000000E+00  0.00000000000E+00  0.12790130686E+02  0.12790130686E+02  0.00000000000E+00 0. -1.
         -1   -1    0    0    0  501 -0.00000000000E+00 -0.00000000000E+00 -0.16382462060E+03  0.16382462060E+03  0.00000000000E+00 0.  1.
         23    2    1    2    0    0  0.00000000000E+00  0.00000000000E+00 -0.15103448992E+03  0.17661475129E+03  0.91549730903E+02 0.  0.
          2    1    3    3  502    0 -0.31986468127E+02  0.32720742157E+02 -0.73109881701E+02  0.86248686441E+02  0.00000000000E+00 0. -1.
         -2    1    3    3    0  502  0.31986468127E+02 -0.32720742157E+02 -0.77924608218E+02  0.90366064850E+02  0.00000000000E+00 0.  1.
<mgrwt>
<rscale>  0 0.91549731E+02</rscale>
<asrwt>0</asrwt>
<pdfrwt beam="1">  1        1 0.19677125E-02 0.91549731E+02</pdfrwt>
<pdfrwt beam="2">  1       -1 0.25203787E-01 0.91549731E+02</pdfrwt>
<totfact> 0.72442846E+04</totfact>
</mgrwt>
</event>
<event>
 5    1  0.3862918E+001  0.9037517E+02  0.7546771E-02  0.1301946E+00
         -1   -1    0    0    0  501 -0.00000000000E+00  0.00000000000E+00  0.13084854947E+01  0.13084854947E+01  0.00000000000E+00 0.  1.
          1   -1    0    0  501    0  0.00000000000E+00 -0.00000000000E+00 -0.15605201029E+04  0.15605201029E+04  0.00000000000E+00 0. -1.
         23    2    1    2    0    0  0.00000000000E+00  0.00000000000E+00 -0.15592116174E+04  0.15618285884E+04  0.90375171784E+02 0.  0.
          2    1    3    3  502    0  0.43394562918E+02 -0.57580927079E+01 -0.97334045336E+03  0.97432432068E+03  0.00000000000E+00 0. -1.
         -2    1    3    3    0  502 -0.43394562918E+02  0.57580927079E+01 -0.58587116404E+03  0.58750426771E+03  0.00000000000E+00 0.  1.
<mgrwt>
<rscale>  0 0.90375172E+02</rscale>
<asrwt>0</asrwt>
<pdfrwt beam="2">  1        1 0.24007991E+00 0.90375172E+02</pdfrwt>
<pdfrwt beam="1">  1       -1 0.20130555E-03 0.90375172E+02</pdfrwt>
<totfact> 0.10935811E+05</totfact>
</mgrwt>
</event>
<event>
 5    1  0.3862918E+001  0.8993041E+02  0.7546771E-02  0.1303020E+00
         -1   -1    0    0    0  501 -0.00000000000E+00  0.00000000000E+00  0.50379757304E+03  0.50379757304E+03  0.00000000000E+00 0.  1.
          1   -1    0    0  501    0  0.00000000000E+00 -0.00000000000E+00 -0.40132583504E+01  0.40132583504E+01  0.00000000000E+00 0. -1.
         23    2    1    2    0    0  0.00000000000E+00  0.00000000000E+00  0.49978431469E+03  0.50781083139E+03  0.89930413475E+02 0.  0.
          2    1    3    3  502    0 -0.24065846514E+02  0.33179162343E+02  0.14548941330E+03  0.15115287349E+03  0.00000000000E+00 0. -1.
         -2    1    3    3    0  502  0.24065846514E+02 -0.33179162343E+02  0.35429490139E+03  0.35665795790E+03  0.00000000000E+00 0.  1.
<mgrwt>
<rscale>  0 0.89930413E+02</rscale>
<asrwt>0</asrwt>
<pdfrwt beam="2">  1        1 0.61742476E-03 0.89930413E+02</pdfrwt>
<pdfrwt beam="1">  1       -1 0.77507269E-01 0.89930413E+02</pdfrwt>
<totfact> 0.48542674E+04</totfact>
</mgrwt>
</event>
<event>
 5    1  0.3862918E+001  0.9083603E+02  0.7546771E-02  0.1300840E+00
         -1   -1    0    0    0  501 -0.00000000000E+00  0.00000000000E+00  0.16240271174E+01  0.16240271174E+01  0.00000000000E+00 0.  1.
          1   -1    0    0  501    0  0.00000000000E+00 -0.00000000000E+00 -0.12701732990E+04  0.12701732990E+04  0.00000000000E+00 0. -1.
         23    2    1    2    0    0  0.00000000000E+00  0.00000000000E+00 -0.12685492719E+04  0.12717973261E+04  0.90836025484E+02 0.  0.
          2    1    3    3  502    0 -0.12400496250E+02 -0.27104953009E+02 -0.11140717744E+04  0.11144704434E+04  0.00000000000E+00 0. -1.
         -2    1    3    3    0  502  0.12400496250E+02  0.27104953009E+02 -0.15447749750E+03  0.15732688270E+03  0.00000000000E+00 0.  1.
<mgrwt>
<rscale>  0 0.90836025E+02</rscale>
<asrwt>0</asrwt>
<pdfrwt beam="2">  1        1 0.19541056E+00 0.90836025E+02</pdfrwt>
<pdfrwt beam="1">  1       -1 0.24985124E-03 0.90836025E+02</pdfrwt>
<totfact> 0.12490829E+05</totfact>
</mgrwt>
</event>
<event>
 5    1  0.3862918E+001  0.9159830E+02  0.7546771E-02  0.1299027E+00
         -3   -1    0    0    0  501 -0.00000000000E+00  0.00000000000E+00  0.24375265342E+02  0.24375265342E+02  0.00000000000E+00 0.  1.
          3   -1    0    0  501    0  0.00000000000E+00 -0.00000000000E+00 -0.86052900283E+02  0.86052900283E+02  0.00000000000E+00 0. -1.
         23    2    1    2    0    0  0.00000000000E+00  0.00000000000E+00 -0.61677634942E+02  0.11042816562E+03  0.91598302993E+02 0.  0.
          2    1    3    3  502    0 -0.18763642443E+02 -0.39329747180E+02 -0.47830897246E+02  0.64704698611E+02  0.00000000000E+00 0. -1.
         -2    1    3    3    0  502  0.18763642443E+02  0.39329747180E+02 -0.13846737696E+02  0.45723467014E+02  0.00000000000E+00 0.  1.
<mgrwt>
<rscale>  0 0.91598303E+02</rscale>
<asrwt>0</asrwt>
<pdfrwt beam="2">  1        3 0.13238908E-01 0.91598303E+02</pdfrwt>
<pdfrwt beam="1">  1       -3 0.37500407E-02 0.91598303E+02</pdfrwt>
<totfact> 0.33490926E+04</totfact>
</mgrwt>
</event>
<event>
 5    1  0.3862918E+001  0.1200159E+03  0.7546771E-02  0.1243071E+00
         -2   -1    0    0    0  501 -0.00000000000E+00  0.00000000000E+00  0.34371640596E+01  0.34371640596E+01  0.00000000000E+00 0.  1.
          2   -1    0    0  501    0  0.00000000000E+00 -0.00000000000E+00 -0.10476525226E+04  0.10476525226E+04  0.00000000000E+00 0. -1.
         23    2    1    2    0    0  0.00000000000E+00  0.00000000000E+00 -0.10442153586E+04  0.10510896867E+04  0.12001589224E+03 0.  0.
          2    1    3    3  502    0 -0.46489718930E+02 -0.11842165491E+02 -0.83780889137E+03  0.83918130896E+03  0.00000000000E+00 0. -1.
         -2    1    3    3    0  502  0.46489718930E+02  0.11842165491E+02 -0.20640646720E+03  0.21190837773E+03  0.00000000000E+00 0.  1.
<mgrwt>
<rscale>  0 0.12001589E+03</rscale>
<asrwt>0</asrwt>
<pdfrwt beam="2">  1        2 0.16117755E+00 0.12001589E+03</pdfrwt>
<pdfrwt beam="1">  1       -2 0.52879368E-03 0.12001589E+03</pdfrwt>
<totfact> 0.12023185E+05</totfact>
</mgrwt>
</event>
<event>
 5    1  0.3862918E+001  0.9271921E+02  0.7546771E-02  0.1296397E+00
         -2   -1    0    0    0  501 -0.00000000000E+00  0.00000000000E+00  0.28368210626E+01  0.28368210626E+01  0.00000000000E+00 0.  1.
          2   -1    0    0  501    0  0.00000000000E+00 -0.00000000000E+00 -0.75761316528E+03  0.75761316528E+03  0.00000000000E+00 0. -1.
         23    2    1    2    0    0  0.00000000000E+00  0.00000000000E+00 -0.75477634421E+03  0.76044998634E+03  0.92719210190E+02 0.  0.
          2    1    3    3  502    0  0.10542118091E+02 -0.36911236292E+02 -0.16420262273E+03  0.16863000009E+03  0.00000000000E+00 0.  1.
         -2    1    3    3    0  502 -0.10542118091E+02  0.36911236292E+02 -0.59057372148E+03  0.59181998625E+03  0.00000000000E+00 0. -1.
<mgrwt>
<rscale>  0 0.92719210E+02</rscale>
<asrwt>0</asrwt>
<pdfrwt beam="2">  1        2 0.11655607E+00 0.92719210E+02</pdfrwt>
<pdfrwt beam="1">  1       -2 0.43643325E-03 0.92719210E+02</pdfrwt>
<totfact> 0.23080611E+05</totfact>
</mgrwt>
</event>
<event>
 5    1  0.3862918E+001  0.9130095E+02  0.7546771E-02  0.1299732E+00
         -4   -1    0    0    0  501 -0.00000000000E+00  0.00000000000E+00  0.34015710572E+01  0.34015710572E+01  0.00000000000E+00 0.  1.
          4   -1    0    0  501    0  0.00000000000E+00 -0.00000000000E+00 -0.61264799849E+03  0.61264799849E+03  0.00000000000E+00 0. -1.
         23    2    1    2    0    0  0.00000000000E+00  0.00000000000E+00 -0.60924642743E+03  0.61604956955E+03  0.91300946324E+02 0.  0.
          2    1    3    3  502    0 -0.31020769271E+02  0.16969452762E+02 -0.49945026225E+03  0.50070032446E+03  0.00000000000E+00 0. -1.
         -2    1    3    3    0  502  0.31020769271E+02 -0.16969452762E+02 -0.10979616518E+03  0.11534924508E+03  0.00000000000E+00 0.  1.
<mgrwt>
<rscale>  0 0.91300946E+02</rscale>
<asrwt>0</asrwt>
<pdfrwt beam="2">  1        4 0.94253468E-01 0.91300946E+02</pdfrwt>
<pdfrwt beam="1">  1       -4 0.52331901E-03 0.91300946E+02</pdfrwt>
<totfact> 0.11131579E+04</totfact>
</mgrwt>
</event>
<event>
 5    1  0.3862918E+001  0.9020552E+02  0.7546771E-02  0.1302355E+00
         -2   -1    0    0    0  501 -0.00000000000E+00  0.00000000000E+00  0.11415516743E+02  0.11415516743E+02  0.00000000000E+00 0.  1.
          2   -1    0    0  501    0  0.00000000000E+00 -0.00000000000E+00 -0.17820119812E+03  0.17820119812E+03  0.00000000000E+00 0. -1.
         23    2    1    2    0    0  0.00000000000E+00  0.00000000000E+00 -0.16678568137E+03  0.18961671486E+03  0.90205515590E+02 0.  0.
          2    1    3    3  502    0  0.11897380445E+02  0.40442767549E+02 -0.11709744259E+03  0.12445471533E+03  0.00000000000E+00 0. -1.
         -2    1    3    3    0  502 -0.11897380445E+02 -0.40442767549E+02 -0.49688238787E+02  0.65161999526E+02  0.00000000000E+00 0.  1.
<mgrwt>
<rscale>  0 0.90205516E+02</rscale>
<asrwt>0</asrwt>
<pdfrwt beam="2">  1        2 0.27415567E-01 0.90205516E+02</pdfrwt>
<pdfrwt beam="1">  1       -2 0.17562335E-02 0.90205516E+02</pdfrwt>
<totfact> 0.15276662E+05</totfact>
</mgrwt>
</event>
<event>
 5    1  0.3862918E+001  0.7967803E+02  0.7546771E-02  0.1329968E+00
          1   -1    0    0  501    0  0.00000000000E+00  0.00000000000E+00  0.16467349171E+03  0.16467349171E+03  0.00000000000E+00 0. -1.
         -1   -1    0    0    0  501 -0.00000000000E+00 -0.00000000000E+00 -0.96381447083E+01  0.96381447083E+01  0.00000000000E+00 0.  1.
         23    2    1    2    0    0  0.00000000000E+00  0.00000000000E+00  0.15503534700E+03  0.17431163642E+03  0.79678025646E+02 0.  0.
          2    1    3    3  502    0 -0.79950979094E+01 -0.36821142577E+02  0.49210082435E+02  0.61978628127E+02  0.00000000000E+00 0. -1.
         -2    1    3    3    0  502  0.79950979094E+01  0.36821142577E+02  0.10582526457E+03  0.11233300829E+03  0.00000000000E+00 0.  1.
<mgrwt>
<rscale>  0 0.79678026E+02</rscale>
<asrwt>0</asrwt>
<pdfrwt beam="1">  1        1 0.25334381E-01 0.79678026E+02</pdfrwt>
<pdfrwt beam="2">  1       -1 0.14827916E-02 0.79678026E+02</pdfrwt>
<totfact> 0.16352493E+05</totfact>
</mgrwt>
</event>
<event>
 5    1  0.3862918E+001  0.9074019E+02  0.7546771E-02  0.1301069E+00
         -2   -1    0    0    0  501 -0.00000000000E+00  0.00000000000E+00  0.11364182956E+01  0.11364182956E+01  0.00000000000E+00 0.  1.
          2   -1    0    0  501    0  0.00000000000E+00 -0.00000000000E+00 -0.18113447499E+04  0.18113447499E+04  0.00000000000E+00 0. -1.
         23    2    1    2    0    0  0.00000000000E+00  0.00000000000E+00 -0.18102083316E+04  0.18124811682E+04  0.90740185441E+02 0.  0.
          2    1    3    3  502    0 -0.29773877026E+02 -0.66985602611E+01 -0.23451998732E+03  0.23649731270E+03  0.00000000000E+00 0.  1.
         -2    1    3    3    0  502  0.29773877026E+02  0.66985602611E+01 -0.15756883443E+04  0.15759838555E+04  0.00000000000E+00 0. -1.
<mgrwt>
<rscale>  0 0.90740185E+02</rscale>
<asrwt>0</asrwt>
<pdfrwt beam="2">  1        2 0.27866991E+00 0.90740185E+02</pdfrwt>
<pdfrwt beam="1">  1       -2 0.17483265E-03 0.90740185E+02</pdfrwt>
<totfact> 0.21610864E+05</totfact>
</mgrwt>
</event>
<event>
 5    1  0.3862918E+001  0.9094474E+02  0.7546771E-02  0.1300580E+00
          1   -1    0    0  501    0  0.00000000000E+00  0.00000000000E+00  0.64197169155E+03  0.64197169155E+03  0.00000000000E+00 0. -1.
         -1   -1    0    0    0  501 -0.00000000000E+00 -0.00000000000E+00 -0.32209155069E+01  0.32209155069E+01  0.00000000000E+00 0.  1.
         23    2    1    2    0    0  0.00000000000E+00  0.00000000000E+00  0.63875077604E+03  0.64519260706E+03  0.90944743142E+02 0.  0.
          2    1    3    3  502    0 -0.75498674492E+01  0.28089353261E+02  0.56734495846E+03  0.56809005814E+03  0.00000000000E+00 0. -1.
         -2    1    3    3    0  502  0.75498674492E+01 -0.28089353261E+02  0.71405817584E+02  0.77102548920E+02  0.00000000000E+00 0.  1.
<mgrwt>
<rscale>  0 0.90944743E+02</rscale>
<asrwt>0</asrwt>
<pdfrwt beam="1">  1        1 0.98764774E-01 0.90944743E+02</pdfrwt>
<pdfrwt beam="2">  1       -1 0.49552597E-03 0.90944743E+02</pdfrwt>
<totfact> 0.14299146E+05</totfact>
</mgrwt>
</event>
<event>
 5    1  0.3862918E+001  0.9089832E+02  0.7546771E-02  0.1300691E+00
          1   -1    0    0  501    0  0.00000000000E+00  0.00000000000E+00  0.16397150819E+02  0.16397150819E+02  0.00000000000E+00 0. -1.
         -1   -1    0    0    0  501 -0.00000000000E+00 -0.00000000000E+00 -0.12597470660E+03  0.12597470660E+03  0.00000000000E+00 0.  1.
         23    2    1    2    0    0  0.00000000000E+00  0.00000000000E+00 -0.10957755578E+03  0.14237185742E+03  0.90898322612E+02 0.  0.
          2    1    3    3  502    0 -0.65498793545E+01 -0.44314651674E+02 -0.66813145946E+02  0.80440572747E+02  0.00000000000E+00 0. -1.
         -2    1    3    3    0  502  0.65498793545E+01  0.44314651674E+02 -0.42764409835E+02  0.61931284671E+02  0.00000000000E+00 0.  1.
<mgrwt>
<rscale>  0 0.90898323E+02</rscale>
<asrwt>0</asrwt>
<pdfrwt beam="1">  1        1 0.25226386E-02 0.90898323E+02</pdfrwt>
<pdfrwt beam="2">  1       -1 0.19380724E-01 0.90898323E+02</pdfrwt>
<totfact> 0.78360548E+04</totfact>
</mgrwt>
</event>
<event>
 5    1  0.3862918E+001  0.9226063E+02  0.7546771E-02  0.1297468E+00
          2   -1    0    0  501    0  0.00000000000E+00  0.00000000000E+00  0.46859492776E+02  0.46859492776E+02  0.00000000000E+00 0. -1.
         -2   -1    0    0    0  501 -0.00000000000E+00 -0.00000000000E+00 -0.45412484047E+02  0.45412484047E+02  0.00000000000E+00 0.  1.
         23    2    1    2    0    0  0.00000000000E+00  0.00000000000E+00  0.14470087289E+01  0.92271976823E+02  0.92260630133E+02 0.  0.
          2    1    3    3  502    0 -0.14751253972E+02  0.43336446659E+02  0.64126892931E+01  0.46225206184E+02  0.00000000000E+00 0. -1.
         -2    1    3    3    0  502  0.14751253972E+02 -0.43336446659E+02 -0.49656805641E+01  0.46046770639E+02  0.00000000000E+00 0.  1.
<mgrwt>
<rscale>  0 0.92260630E+02</rscale>
<asrwt>0</asrwt>
<pdfrwt beam="1">  1        2 0.72091528E-02 0.92260630E+02</pdfrwt>
<pdfrwt beam="2">  1       -2 0.69865360E-02 0.92260630E+02</pdfrwt>
<totfact> 0.96067514E+04</totfact>
</mgrwt>
</event>
<event>
 5    1  0.3862918E+001  0.9288309E+02  0.7546771E-02  0.1296016E+00
          2   -1    0    0  501    0  0.00000000000E+00  0.00000000000E+00  0.30935234522E+03  0.30935234522E+03  0.00000000000E+00 0. -1.
         -2   -1    0    0    0  501 -0.00000000000E+00 -0.00000000000E+00 -0.69720407303E+01  0.69720407303E+01  0.00000000000E+00 0.  1.
         23    2    1    2    0    0  0.00000000000E+00  0.00000000000E+00  0.30238030449E+03  0.31632438595E+03  0.92883091052E+02 0.  0.
          2    1    3    3  502    0 -0.45291383822E+02 -0.55631628599E+01  0.18059682049E+03  0.18627256857E+03  0.00000000000E+00 0. -1.
         -2    1    3    3    0  502  0.45291383822E+02  0.55631628599E+01  0.12178348399E+03  0.13005181738E+03  0.00000000000E+00 0.  1.
<mgrwt>
<rscale>  0 0.92883091E+02</rscale>
<asrwt>0</asrwt>
<pdfrwt beam="1">  1        2 0.47592658E-01 0.92883091E+02</pdfrwt>
<pdfrwt beam="2">  1       -2 0.10726219E-02 0.92883091E+02</pdfrwt>
<totfact> 0.17294349E+05</totfact>
</mgrwt>
</event>
<event>
 5    1  0.3862918E+001  0.9184182E+02  0.7546771E-02  0.1298452E+00
         -1   -1    0    0    0  501 -0.00000000000E+00  0.00000000000E+00  0.49086662925E+01  0.49086662925E+01  0.00000000000E+00 0. -1.
          1   -1    0    0  501    0  0.00000000000E+00 -0.00000000000E+00 -0.42959330104E+03  0.42959330104E+03  0.00000000000E+00 0.  1.
         23    2    1    2    0    0  0.00000000000E+00  0.00000000000E+00 -0.42468463474E+03  0.43450196733E+03  0.91841823943E+02 0.  0.
          2    1    3    3  502    0  0.27646106213E+02 -0.10049280321E+01 -0.38939545882E+02  0.47766152268E+02  0.00000000000E+00 0. -1.
         -2    1    3    3    0  502 -0.27646106213E+02  0.10049280321E+01 -0.38574508886E+03  0.38673581506E+03  0.00000000000E+00 0.  1.
<mgrwt>
<rscale>  0 0.91841824E+02</rscale>
<asrwt>0</asrwt>
<pdfrwt beam="2">  1        1 0.66091287E-01 0.91841824E+02</pdfrwt>
<pdfrwt beam="1">  1       -1 0.75517931E-03 0.91841824E+02</pdfrwt>
<totfact> 0.13381364E+05</totfact>
</mgrwt>
</event>
<event>
 5    1  0.3862918E+001  0.8954181E+02  0.7546771E-02  0.1303965E+00
         -2   -1    0    0    0  501 -0.00000000000E+00  0.00000000000E+00  0.51206012646E+03  0.51206012646E+03  0.00000000000E+00 0.  1.
          2   -1    0    0  501    0  0.00000000000E+00 -0.00000000000E+00 -0.39144503973E+01  0.39144503973E+01  0.00000000000E+00 0. -1.
         23    2    1    2    0    0  0.00000000000E+00  0.00000000000E+00  0.50814567607E+03  0.51597457686E+03  0.89541810692E+02 0.  0.
          2    1    3    3  502    0 -0.38062814620E+02  0.76303781817E+01  0.12555307419E+03  0.13141755959E+03  0.00000000000E+00 0. -1.
         -2    1    3    3    0  502  0.38062814620E+02 -0.76303781817E+01  0.38259260187E+03  0.38455701728E+03  0.00000000000E+00 0.  1.
<mgrwt>
<rscale>  0 0.89541811E+02</rscale>
<asrwt>0</asrwt>
<pdfrwt beam="2">  1        2 0.60222354E-03 0.89541811E+02</pdfrwt>
<pdfrwt beam="1">  1       -2 0.78778428E-01 0.89541811E+02</pdfrwt>
<totfact> 0.37341385E+04</totfact>
</mgrwt>
</event>
<event>
 5    1  0.3862918E+001  0.9171099E+02  0.7546771E-02  0.1298760E+00
          2   -1    0    0  501    0  0.00000000000E+00  0.00000000000E+00  0.16528386561E+04  0.16528386561E+04  0.00000000000E+00 0.  1.
         -2   -1    0    0    0  501 -0.00000000000E+00 -0.00000000000E+00 -0.12721909854E+01  0.12721909854E+01  0.00000000000E+00 0. -1.
         23    2    1    2    0    0  0.00000000000E+00  0.00000000000E+00  0.16515664651E+04  0.16541108471E+04  0.91710990369E+02 0.  0.
          2    1    3    3  502    0 -0.33678619195E+02 -0.11267293573E+02  0.30257234281E+03  0.30464934586E+03  0.00000000000E+00 0. -1.
         -2    1    3    3    0  502  0.33678619195E+02  0.11267293573E+02  0.13489941223E+04  0.13494615012E+04  0.00000000000E+00 0.  1.
<mgrwt>
<rscale>  0 0.91710990E+02</rscale>
<asrwt>0</asrwt>
<pdfrwt beam="1">  1        2 0.25428115E+00 0.91710990E+02</pdfrwt>
<pdfrwt beam="2">  1       -2 0.19572301E-03 0.91710990E+02</pdfrwt>
<totfact> 0.22235679E+05</totfact>
</mgrwt>
</event>
<event>
 5    1  0.3862918E+001  0.9424820E+02  0.7546771E-02  0.1292878E+00
         -1   -1    0    0    0  501 -0.00000000000E+00  0.00000000000E+00  0.42527434653E+01  0.42527434653E+01  0.00000000000E+00 0.  1.
          1   -1    0    0  501    0  0.00000000000E+00 -0.00000000000E+00 -0.52217605991E+03  0.52217605991E+03  0.00000000000E+00 0. -1.
         23    2    1    2    0    0  0.00000000000E+00  0.00000000000E+00 -0.51792331645E+03  0.52642880338E+03  0.94248200545E+02 0.  0.
          2    1    3    3  502    0  0.11382226504E+00  0.23747341526E+02 -0.48631045487E+03  0.48688993387E+03  0.00000000000E+00 0. -1.
         -2    1    3    3    0  502 -0.11382226504E+00 -0.23747341526E+02 -0.31612861575E+02  0.39538869509E+02  0.00000000000E+00 0.  1.
<mgrwt>
<rscale>  0 0.94248201E+02</rscale>
<asrwt>0</asrwt>
<pdfrwt beam="2">  1        1 0.80334743E-01 0.94248201E+02</pdfrwt>
<pdfrwt beam="1">  1       -1 0.65426852E-03 0.94248201E+02</pdfrwt>
<totfact> 0.12816389E+05</totfact>
</mgrwt>
</event>
<event>
 5    1  0.3862918E+001  0.9060818E+02  0.7546771E-02  0.1301386E+00
          2   -1    0    0  501    0  0.00000000000E+00  0.00000000000E+00  0.27343817539E+03  0.27343817539E+03  0.00000000000E+00 0. -1.
         -2   -1    0    0    0  501 -0.00000000000E+00 -0.00000000000E+00 -0.75061228866E+01  0.75061228866E+01  0.00000000000E+00 0.  1.
         23    2    1    2    0    0  0.00000000000E+00  0.00000000000E+00  0.26593205250E+03  0.28094429828E+03  0.90608179462E+02 0.  0.
          2    1    3    3  502    0 -0.19704825546E+02  0.18074445348E+02  0.24636232326E+03  0.24780912019E+03  0.00000000000E+00 0. -1.
         -2    1    3    3    0  502  0.19704825546E+02 -0.18074445348E+02  0.19569729240E+02  0.33135178089E+02  0.00000000000E+00 0.  1.
<mgrwt>
<rscale>  0 0.90608179E+02</rscale>
<asrwt>0</asrwt>
<pdfrwt beam="1">  1        2 0.42067404E-01 0.90608179E+02</pdfrwt>
<pdfrwt beam="2">  1       -2 0.11547883E-02 0.90608179E+02</pdfrwt>
<totfact> 0.17647895E+05</totfact>
</mgrwt>
</event>
<event>
 5    1  0.3862918E+001  0.8825564E+02  0.7546771E-02  0.1307132E+00
         -3   -1    0    0    0  501 -0.00000000000E+00  0.00000000000E+00  0.53052389805E+02  0.53052389805E+02  0.00000000000E+00 0.  1.
          3   -1    0    0  501    0  0.00000000000E+00 -0.00000000000E+00 -0.36704553719E+02  0.36704553719E+02  0.00000000000E+00 0. -1.
         23    2    1    2    0    0  0.00000000000E+00  0.00000000000E+00  0.16347836086E+02  0.89756943524E+02  0.88255635322E+02 0.  0.
          2    1    3    3  502    0  0.33872853988E+01 -0.28385683856E+02 -0.26014042833E+02  0.38651664581E+02  0.00000000000E+00 0. -1.
         -2    1    3    3    0  502 -0.33872853988E+01  0.28385683856E+02  0.42361878919E+02  0.51105278943E+02  0.00000000000E+00 0.  1.
<mgrwt>
<rscale>  0 0.88255635E+02</rscale>
<asrwt>0</asrwt>
<pdfrwt beam="2">  1        3 0.56468544E-02 0.88255635E+02</pdfrwt>
<pdfrwt beam="1">  1       -3 0.81619061E-02 0.88255635E+02</pdfrwt>
<totfact> 0.38726488E+04</totfact>
</mgrwt>
</event>
<event>
 5    1  0.3862918E+001  0.9022681E+02  0.7546771E-02  0.1302303E+00
          2   -1    0    0  501    0  0.00000000000E+00  0.00000000000E+00  0.89821328888E+02  0.89821328888E+02  0.00000000000E+00 0. -1.
         -2   -1    0    0    0  501 -0.00000000000E+00 -0.00000000000E+00 -0.22658529116E+02  0.22658529116E+02  0.00000000000E+00 0.  1.
         23    2    1    2    0    0  0.00000000000E+00  0.00000000000E+00  0.67162799772E+02  0.11247985800E+03  0.90226807454E+02 0.  0.
          2    1    3    3  502    0  0.20151049274E+02 -0.39599869814E+02  0.43318303854E+02  0.62053927554E+02  0.00000000000E+00 0. -1.
         -2    1    3    3    0  502 -0.20151049274E+02  0.39599869814E+02  0.23844495918E+02  0.50425930450E+02  0.00000000000E+00 0.  1.
<mgrwt>
<rscale>  0 0.90226807E+02</rscale>
<asrwt>0</asrwt>
<pdfrwt beam="1">  1        2 0.13818666E-01 0.90226807E+02</pdfrwt>
<pdfrwt beam="2">  1       -2 0.34859276E-02 0.90226807E+02</pdfrwt>
<totfact> 0.12227409E+05</totfact>
</mgrwt>
</event>
<event>
 5    1  0.3862918E+001  0.9057579E+02  0.7546771E-02  0.1301463E+00
          2   -1    0    0  501    0  0.00000000000E+00  0.00000000000E+00  0.31794843812E+03  0.31794843812E+03  0.00000000000E+00 0. -1.
         -2   -1    0    0    0  501 -0.00000000000E+00 -0.00000000000E+00 -0.64507109322E+01  0.64507109322E+01  0.00000000000E+00 0.  1.
         23    2    1    2    0    0  0.00000000000E+00  0.00000000000E+00  0.31149772719E+03  0.32439914906E+03  0.90575790710E+02 0.  0.
          2    1    3    3  502    0  0.12196419998E+02 -0.35455586392E+02  0.24671825667E+03  0.24955109585E+03  0.00000000000E+00 0. -1.
         -2    1    3    3    0  502 -0.12196419998E+02  0.35455586392E+02  0.64779470521E+02  0.74848053202E+02  0.00000000000E+00 0.  1.
<mgrwt>
<rscale>  0 0.90575791E+02</rscale>
<asrwt>0</asrwt>
<pdfrwt beam="1">  1        2 0.48915132E-01 0.90575791E+02</pdfrwt>
<pdfrwt beam="2">  1       -2 0.99241732E-03 0.90575791E+02</pdfrwt>
<totfact> 0.18684448E+05</totfact>
</mgrwt>
</event>
<event>
 5    1  0.3862918E+001  0.9200906E+02  0.7546771E-02  0.1298058E+00
         -1   -1    0    0    0  501 -0.00000000000E+00  0.00000000000E+00  0.12165809264E+02  0.12165809264E+02  0.00000000000E+00 0.  1.
          1   -1    0    0  501    0  0.00000000000E+00 -0.00000000000E+00 -0.17396431953E+03  0.17396431953E+03  0.00000000000E+00 0. -1.
         23    2    1    2    0    0  0.00000000000E+00  0.00000000000E+00 -0.16179851026E+03  0.18613012879E+03  0.92009058905E+02 0.  0.
          2    1    3    3  502    0  0.33858726610E+02  0.39997476423E+01 -0.14338220165E+03  0.14738000915E+03  0.00000000000E+00 0. -1.
         -2    1    3    3    0  502 -0.33858726610E+02 -0.39997476423E+01 -0.18416308613E+02  0.38750119636E+02  0.00000000000E+00 0.  1.
<mgrwt>
<rscale>  0 0.92009059E+02</rscale>
<asrwt>0</asrwt>
<pdfrwt beam="2">  1        1 0.26763740E-01 0.92009059E+02</pdfrwt>
<pdfrwt beam="1">  1       -1 0.18716630E-02 0.92009059E+02</pdfrwt>
<totfact> 0.11248982E+05</totfact>
</mgrwt>
</event>
<event>
 5    1  0.3862918E+001  0.9329955E+02  0.7546771E-02  0.1295052E+00
         -1   -1    0    0    0  501 -0.00000000000E+00  0.00000000000E+00  0.27248720681E+02  0.27248720681E+02  0.00000000000E+00 0.  1.
          1   -1    0    0  501    0  0.00000000000E+00 -0.00000000000E+00 -0.79864362729E+02  0.79864362729E+02  0.00000000000E+00 0. -1.
         23    2    1    2    0    0  0.00000000000E+00  0.00000000000E+00 -0.52615642048E+02  0.10711308341E+03  0.93299554391E+02 0.  0.
          2    1    3    3  502    0 -0.35223562183E+02 -0.25976209366E+02 -0.44845949529E+02  0.62662763864E+02  0.00000000000E+00 0. -1.
         -2    1    3    3    0  502  0.35223562183E+02  0.25976209366E+02 -0.77696925185E+01  0.44450319546E+02  0.00000000000E+00 0.  1.
<mgrwt>
<rscale>  0 0.93299554E+02</rscale>
<asrwt>0</asrwt>
<pdfrwt beam="2">  1        1 0.12286825E-01 0.93299554E+02</pdfrwt>
<pdfrwt beam="1">  1       -1 0.41921109E-02 0.93299554E+02</pdfrwt>
<totfact> 0.94536396E+04</totfact>
</mgrwt>
</event>
<event>
 5    1  0.3862918E+001  0.9098753E+02  0.7546771E-02  0.1300478E+00
          2   -1    0    0  501    0  0.00000000000E+00  0.00000000000E+00  0.29448975520E+03  0.29448975520E+03  0.00000000000E+00 0. -1.
         -2   -1    0    0    0  501 -0.00000000000E+00 -0.00000000000E+00 -0.70280297313E+01  0.70280297313E+01  0.00000000000E+00 0.  1.
         23    2    1    2    0    0  0.00000000000E+00  0.00000000000E+00  0.28746172547E+03  0.30151778493E+03  0.90987532225E+02 0.  0.
          2    1    3    3  502    0 -0.39166861473E+02 -0.13033781543E+02  0.80354209097E+02  0.90336711356E+02  0.00000000000E+00 0.  1.
         -2    1    3    3    0  502  0.39166861473E+02  0.13033781543E+02  0.20710751637E+03  0.21118107357E+03  0.00000000000E+00 0. -1.
<mgrwt>
<rscale>  0 0.90987532E+02</rscale>
<asrwt>0</asrwt>
<pdfrwt beam="1">  1        2 0.45306107E-01 0.90987532E+02</pdfrwt>
<pdfrwt beam="2">  1       -2 0.10812356E-02 0.90987532E+02</pdfrwt>
<totfact> 0.17941644E+05</totfact>
</mgrwt>
</event>
<event>
 5    1  0.3862918E+001  0.9033867E+02  0.7546771E-02  0.1302034E+00
         -2   -1    0    0    0  501 -0.00000000000E+00  0.00000000000E+00  0.32708210550E+01  0.32708210550E+01  0.00000000000E+00 0.  1.
          2   -1    0    0  501    0  0.00000000000E+00 -0.00000000000E+00 -0.62377876736E+03  0.62377876736E+03  0.00000000000E+00 0. -1.
         23    2    1    2    0    0  0.00000000000E+00  0.00000000000E+00 -0.62050794630E+03  0.62704958841E+03  0.90338667821E+02 0.  0.
          2    1    3    3  502    0 -0.27422181095E+02  0.46028604373E+01 -0.63175593268E+02  0.69024038748E+02  0.00000000000E+00 0.  1.
         -2    1    3    3    0  502  0.27422181095E+02 -0.46028604373E+01 -0.55733235303E+03  0.55802554966E+03  0.00000000000E+00 0. -1.
<mgrwt>
<rscale>  0 0.90338668E+02</rscale>
<asrwt>0</asrwt>
<pdfrwt beam="2">  1        2 0.95965970E-01 0.90338668E+02</pdfrwt>
<pdfrwt beam="1">  1       -2 0.50320321E-03 0.90338668E+02</pdfrwt>
<totfact> 0.23600415E+05</totfact>
</mgrwt>
</event>
<event>
 5    1  0.3862918E+001  0.9306764E+02  0.7546771E-02  0.1295589E+00
         -2   -1    0    0    0  501 -0.00000000000E+00  0.00000000000E+00  0.88861141331E+01  0.88861141331E+01  0.00000000000E+00 0.  1.
          2   -1    0    0  501    0  0.00000000000E+00 -0.00000000000E+00 -0.24368315865E+03  0.24368315865E+03  0.00000000000E+00 0. -1.
         23    2    1    2    0    0  0.00000000000E+00  0.00000000000E+00 -0.23479704451E+03  0.25256927278E+03  0.93067639060E+02 0.  0.
          2    1    3    3  502    0 -0.44663419167E+02 -0.36272574198E+01 -0.15144792493E+03  0.15793812705E+03  0.00000000000E+00 0. -1.
         -2    1    3    3    0  502  0.44663419167E+02  0.36272574198E+01 -0.83349119580E+02  0.94631145733E+02  0.00000000000E+00 0.  1.
<mgrwt>
<rscale>  0 0.93067639E+02</rscale>
<asrwt>0</asrwt>
<pdfrwt beam="2">  1        2 0.37489714E-01 0.93067639E+02</pdfrwt>
<pdfrwt beam="1">  1       -2 0.13670946E-02 0.93067639E+02</pdfrwt>
<totfact> 0.15736488E+05</totfact>
</mgrwt>
</event>
<event>
 5    1  0.3862918E+001  0.1005811E+03  0.7546771E-02  0.1279079E+00
          1   -1    0    0  501    0  0.00000000000E+00  0.00000000000E+00  0.86993091607E+03  0.86993091607E+03  0.00000000000E+00 0. -1.
         -1   -1    0    0    0  501 -0.00000000000E+00 -0.00000000000E+00 -0.29072893060E+01  0.29072893060E+01  0.00000000000E+00 0.  1.
         23    2    1    2    0    0  0.00000000000E+00  0.00000000000E+00  0.86702362676E+03  0.87283820537E+03  0.10058112843E+03 0.  0.
          2    1    3    3  502    0  0.61716305535E+01  0.45285787217E+02  0.61559363175E+03  0.61728794820E+03  0.00000000000E+00 0. -1.
         -2    1    3    3    0  502 -0.61716305535E+01 -0.45285787217E+02  0.25142999501E+03  0.25555025717E+03  0.00000000000E+00 0.  1.
<mgrwt>
<rscale>  0 0.10058113E+03</rscale>
<asrwt>0</asrwt>
<pdfrwt beam="1">  1        1 0.13383532E+00 0.10058113E+03</pdfrwt>
<pdfrwt beam="2">  1       -1 0.44727597E-03 0.10058113E+03</pdfrwt>
<totfact> 0.10781772E+05</totfact>
</mgrwt>
</event>
<event>
 5    1  0.3862918E+001  0.9226855E+02  0.7546771E-02  0.1297449E+00
          1   -1    0    0  501    0  0.00000000000E+00  0.00000000000E+00  0.60623196001E+03  0.60623196001E+03  0.00000000000E+00 0. -1.
         -1   -1    0    0    0  501 -0.00000000000E+00 -0.00000000000E+00 -0.35108204379E+01  0.35108204379E+01  0.00000000000E+00 0.  1.
         23    2    1    2    0    0  0.00000000000E+00  0.00000000000E+00  0.60272113958E+03  0.60974278045E+03  0.92268554888E+02 0.  0.
          2    1    3    3  502    0  0.31018815958E+02  0.27649474360E+02  0.43380994292E+03  0.43579551048E+03  0.00000000000E+00 0. -1.
         -2    1    3    3    0  502 -0.31018815958E+02 -0.27649474360E+02  0.16891119666E+03  0.17394726997E+03  0.00000000000E+00 0.  1.
<mgrwt>
<rscale>  0 0.92268555E+02</rscale>
<asrwt>0</asrwt>
<pdfrwt beam="1">  1        1 0.93266372E-01 0.92268555E+02</pdfrwt>
<pdfrwt beam="2">  1       -1 0.54012670E-03 0.92268555E+02</pdfrwt>
<totfact> 0.13727488E+05</totfact>
</mgrwt>
</event>
<event>
 5    1  0.3862918E+001  0.9334123E+02  0.7546771E-02  0.1294956E+00
         -3   -1    0    0    0  501 -0.00000000000E+00  0.00000000000E+00  0.22739925339E+02  0.22739925339E+02  0.00000000000E+00 0.  1.
          3   -1    0    0  501    0  0.00000000000E+00 -0.00000000000E+00 -0.95785108998E+02  0.95785108998E+02  0.00000000000E+00 0. -1.
         23    2    1    2    0    0  0.00000000000E+00  0.00000000000E+00 -0.73045183659E+02  0.11852503434E+03  0.93341228344E+02 0.  0.
          2    1    3    3  502    0  0.24455106491E+02  0.24155065112E+02 -0.76609527931E+02  0.83967488791E+02  0.00000000000E+00 0. -1.
         -2    1    3    3    0  502 -0.24455106491E+02 -0.24155065112E+02  0.35643442719E+01  0.34557545546E+02  0.00000000000E+00 0.  1.
<mgrwt>
<rscale>  0 0.93341228E+02</rscale>
<asrwt>0</asrwt>
<pdfrwt beam="2">  1        3 0.14736171E-01 0.93341228E+02</pdfrwt>
<pdfrwt beam="1">  1       -3 0.34984500E-02 0.93341228E+02</pdfrwt>
<totfact> 0.31282868E+04</totfact>
</mgrwt>
</event>
<event>
 5    1  0.3862918E+001  0.8943443E+02  0.7546771E-02  0.1304227E+00
          1   -1    0    0  501    0  0.00000000000E+00  0.00000000000E+00  0.30712850258E+03  0.30712850258E+03  0.00000000000E+00 0.  1.
         -1   -1    0    0    0  501 -0.00000000000E+00 -0.00000000000E+00 -0.65107248103E+01  0.65107248103E+01  0.00000000000E+00 0. -1.
         23    2    1    2    0    0  0.00000000000E+00  0.00000000000E+00  0.30061777777E+03  0.31363922739E+03  0.89434426519E+02 0.  0.
          2    1    3    3  502    0  0.14174676409E+02  0.41115242520E+02  0.11382268721E+03  0.12184822011E+03  0.00000000000E+00 0. -1.
         -2    1    3    3    0  502 -0.14174676409E+02 -0.41115242520E+02  0.18679509055E+03  0.19179100728E+03  0.00000000000E+00 0.  1.
<mgrwt>
<rscale>  0 0.89434427E+02</rscale>
<asrwt>0</asrwt>
<pdfrwt beam="1">  1        1 0.47250528E-01 0.89434427E+02</pdfrwt>
<pdfrwt beam="2">  1       -1 0.10016502E-02 0.89434427E+02</pdfrwt>
<totfact> 0.13547167E+05</totfact>
</mgrwt>
</event>
<event>
 5    1  0.3862918E+001  0.9121509E+02  0.7546771E-02  0.1299936E+00
          3   -1    0    0  501    0  0.00000000000E+00  0.00000000000E+00  0.88090897787E+02  0.88090897787E+02  0.00000000000E+00 0. -1.
         -3   -1    0    0    0  501 -0.00000000000E+00 -0.00000000000E+00 -0.23612522816E+02  0.23612522816E+02  0.00000000000E+00 0.  1.
         23    2    1    2    0    0  0.00000000000E+00  0.00000000000E+00  0.64478374971E+02  0.11170342060E+03  0.91215093792E+02 0.  0.
          2    1    3    3  502    0 -0.34231529746E+02  0.19687489929E+02  0.60182258641E+02  0.71981241609E+02  0.00000000000E+00 0. -1.
         -2    1    3    3    0  502  0.34231529746E+02 -0.19687489929E+02  0.42961163303E+01  0.39722178994E+02  0.00000000000E+00 0.  1.
<mgrwt>
<rscale>  0 0.91215094E+02</rscale>
<asrwt>0</asrwt>
<pdfrwt beam="1">  1        3 0.13552446E-01 0.91215094E+02</pdfrwt>
<pdfrwt beam="2">  1       -3 0.36326959E-02 0.91215094E+02</pdfrwt>
<totfact> 0.33785041E+04</totfact>
</mgrwt>
</event>
<event>
 5    1  0.3862918E+001  0.8984137E+02  0.7546771E-02  0.1303236E+00
          2   -1    0    0  501    0  0.00000000000E+00  0.00000000000E+00  0.53354410957E+03  0.53354410957E+03  0.00000000000E+00 0. -1.
         -2   -1    0    0    0  501 -0.00000000000E+00 -0.00000000000E+00 -0.37820078399E+01  0.37820078399E+01  0.00000000000E+00 0.  1.
         23    2    1    2    0    0  0.00000000000E+00  0.00000000000E+00  0.52976210173E+03  0.53732611741E+03  0.89841371435E+02 0.  0.
          2    1    3    3  502    0  0.26359008804E+02  0.20714248730E+02  0.44370597278E+03  0.44497063692E+03  0.00000000000E+00 0. -1.
         -2    1    3    3    0  502 -0.26359008804E+02 -0.20714248730E+02  0.86056128955E+02  0.92355480489E+02  0.00000000000E+00 0.  1.
<mgrwt>
<rscale>  0 0.89841371E+02</rscale>
<asrwt>0</asrwt>
<pdfrwt beam="1">  1        2 0.82083650E-01 0.89841371E+02</pdfrwt>
<pdfrwt beam="2">  1       -2 0.58184778E-03 0.89841371E+02</pdfrwt>
<totfact> 0.22874492E+05</totfact>
</mgrwt>
</event>
<event>
 5    1  0.3862918E+001  0.8940461E+02  0.7546771E-02  0.1304300E+00
         -1   -1    0    0    0  501 -0.00000000000E+00  0.00000000000E+00  0.26954656003E+01  0.26954656003E+01  0.00000000000E+00 0.  1.
          1   -1    0    0  501    0  0.00000000000E+00 -0.00000000000E+00 -0.74135474388E+03  0.74135474388E+03  0.00000000000E+00 0. -1.
         23    2    1    2    0    0  0.00000000000E+00  0.00000000000E+00 -0.73865927828E+03  0.74405020948E+03  0.89404613075E+02 0.  0.
          2    1    3    3  502    0 -0.19775568845E+02 -0.53986277334E+01 -0.69993244485E+03  0.70023256541E+03  0.00000000000E+00 0. -1.
         -2    1    3    3    0  502  0.19775568845E+02  0.53986277334E+01 -0.38726833431E+02  0.43817644073E+02  0.00000000000E+00 0.  1.
<mgrwt>
<rscale>  0 0.89404613E+02</rscale>
<asrwt>0</asrwt>
<pdfrwt beam="2">  1        1 0.11405447E+00 0.89404613E+02</pdfrwt>
<pdfrwt beam="1">  1       -1 0.41468739E-03 0.89404613E+02</pdfrwt>
<totfact> 0.14953353E+05</totfact>
</mgrwt>
</event>
<event>
 5    1  0.3862918E+001  0.9846959E+02  0.7546771E-02  0.1283547E+00
         -2   -1    0    0    0  501 -0.00000000000E+00  0.00000000000E+00  0.53252791223E+02  0.53252791223E+02  0.00000000000E+00 0.  1.
          2   -1    0    0  501    0  0.00000000000E+00 -0.00000000000E+00 -0.45519962382E+02  0.45519962382E+02  0.00000000000E+00 0. -1.
         23    2    1    2    0    0  0.00000000000E+00  0.00000000000E+00  0.77328288410E+01  0.98772753605E+02  0.98469590295E+02 0.  0.
          2    1    3    3  502    0  0.21397013260E+01  0.27929442906E+02 -0.36748155631E+02  0.46206699136E+02  0.00000000000E+00 0. -1.
         -2    1    3    3    0  502 -0.21397013260E+01 -0.27929442906E+02  0.44480984472E+02  0.52566054469E+02  0.00000000000E+00 0.  1.
<mgrwt>
<rscale>  0 0.98469590E+02</rscale>
<asrwt>0</asrwt>
<pdfrwt beam="2">  1        2 0.70030711E-02 0.98469590E+02</pdfrwt>
<pdfrwt beam="1">  1       -2 0.81927371E-02 0.98469590E+02</pdfrwt>
<totfact> 0.78937393E+04</totfact>
</mgrwt>
</event>
<event>
 5    1  0.3862918E+001  0.9266875E+02  0.7546771E-02  0.1296515E+00
          1   -1    0    0  501    0  0.00000000000E+00  0.00000000000E+00  0.24598073113E+03  0.24598073113E+03  0.00000000000E+00 0. -1.
         -1   -1    0    0    0  501 -0.00000000000E+00 -0.00000000000E+00 -0.87278153994E+01  0.87278153994E+01  0.00000000000E+00 0.  1.
         23    2    1    2    0    0  0.00000000000E+00  0.00000000000E+00  0.23725291574E+03  0.25470854653E+03  0.92668752298E+02 0.  0.
          2    1    3    3  502    0  0.36926368347E+02 -0.15821789940E+02  0.55170967957E+02  0.68247501211E+02  0.00000000000E+00 0.  1.
         -2    1    3    3    0  502 -0.36926368347E+02  0.15821789940E+02  0.18208194778E+03  0.18646104532E+03  0.00000000000E+00 0. -1.
<mgrwt>
<rscale>  0 0.92668752E+02</rscale>
<asrwt>0</asrwt>
<pdfrwt beam="1">  1        1 0.37843184E-01 0.92668752E+02</pdfrwt>
<pdfrwt beam="2">  1       -1 0.13427410E-02 0.92668752E+02</pdfrwt>
<totfact> 0.11803975E+05</totfact>
</mgrwt>
</event>
<event>
 5    1  0.3862918E+001  0.9104251E+02  0.7546771E-02  0.1300347E+00
          2   -1    0    0  501    0  0.00000000000E+00  0.00000000000E+00  0.14000961776E+02  0.14000961776E+02  0.00000000000E+00 0. -1.
         -2   -1    0    0    0  501 -0.00000000000E+00 -0.00000000000E+00 -0.14800303469E+03  0.14800303469E+03  0.00000000000E+00 0.  1.
         23    2    1    2    0    0  0.00000000000E+00  0.00000000000E+00 -0.13400207292E+03  0.16200399647E+03  0.91042513837E+02 0.  0.
          2    1    3    3  502    0  0.23897916053E+02  0.12323410041E+02 -0.16396972477E+01  0.26938177996E+02  0.00000000000E+00 0. -1.
         -2    1    3    3    0  502 -0.23897916053E+02 -0.12323410041E+02 -0.13236237567E+03  0.13506581847E+03  0.00000000000E+00 0.  1.
<mgrwt>
<rscale>  0 0.91042514E+02</rscale>
<asrwt>0</asrwt>
<pdfrwt beam="1">  1        2 0.21539941E-02 0.91042514E+02</pdfrwt>
<pdfrwt beam="2">  1       -2 0.22769697E-01 0.91042514E+02</pdfrwt>
<totfact> 0.70459625E+04</totfact>
</mgrwt>
</event>
<event>
 5    1  0.3862918E+001  0.9074986E+02  0.7546771E-02  0.1301046E+00
         -4   -1    0    0    0  501 -0.00000000000E+00  0.00000000000E+00  0.12717507325E+02  0.12717507325E+02  0.00000000000E+00 0. -1.
          4   -1    0    0  501    0  0.00000000000E+00 -0.00000000000E+00 -0.16189369640E+03  0.16189369640E+03  0.00000000000E+00 0.  1.
         23    2    1    2    0    0  0.00000000000E+00  0.00000000000E+00 -0.14917618907E+03  0.17461120372E+03  0.90749859940E+02 0.  0.
          2    1    3    3  502    0 -0.28026552919E+02 -0.34950879770E+02 -0.88440578600E+02  0.99140242124E+02  0.00000000000E+00 0. -1.
         -2    1    3    3    0  502  0.28026552919E+02  0.34950879770E+02 -0.60735610474E+02  0.75470961600E+02  0.00000000000E+00 0.  1.
<mgrwt>
<rscale>  0 0.90749860E+02</rscale>
<asrwt>0</asrwt>
<pdfrwt beam="2">  1        4 0.24906723E-01 0.90749860E+02</pdfrwt>
<pdfrwt beam="1">  1       -4 0.19565396E-02 0.90749860E+02</pdfrwt>
<totfact> 0.22779960E+04</totfact>
</mgrwt>
</event>
<event>
 5    1  0.3862918E+001  0.9089768E+02  0.7546771E-02  0.1300692E+00
         -1   -1    0    0    0  501 -0.00000000000E+00  0.00000000000E+00  0.23100100202E+02  0.23100100202E+02  0.00000000000E+00 0.  1.
          1   -1    0    0  501    0  0.00000000000E+00 -0.00000000000E+00 -0.89419401556E+02  0.89419401556E+02  0.00000000000E+00 0. -1.
         23    2    1    2    0    0  0.00000000000E+00  0.00000000000E+00 -0.66319301353E+02  0.11251950176E+03  0.90897681730E+02 0.  0.
          2    1    3    3  502    0 -0.34720344834E+02 -0.17126270850E+02 -0.62629940820E+02  0.73629620301E+02  0.00000000000E+00 0. -1.
         -2    1    3    3    0  502  0.34720344834E+02  0.17126270850E+02 -0.36893605333E+01  0.38889881457E+02  0.00000000000E+00 0.  1.
<mgrwt>
<rscale>  0 0.90897682E+02</rscale>
<asrwt>0</asrwt>
<pdfrwt beam="2">  1        1 0.13756831E-01 0.90897682E+02</pdfrwt>
<pdfrwt beam="1">  1       -1 0.35538616E-02 0.90897682E+02</pdfrwt>
<totfact> 0.10341636E+05</totfact>
</mgrwt>
</event>
<event>
 5    1  0.3862918E+001  0.9111320E+02  0.7546771E-02  0.1300178E+00
          1   -1    0    0  501    0  0.00000000000E+00  0.00000000000E+00  0.78266889689E+02  0.78266889689E+02  0.00000000000E+00 0. -1.
         -1   -1    0    0    0  501 -0.00000000000E+00 -0.00000000000E+00 -0.26517008979E+02  0.26517008979E+02  0.00000000000E+00 0.  1.
         23    2    1    2    0    0  0.00000000000E+00  0.00000000000E+00  0.51749880710E+02  0.10478389867E+03  0.91113200287E+02 0.  0.
          2    1    3    3  502    0 -0.30892685977E+02  0.54223888938E+01  0.63872321238E+02  0.71157808907E+02  0.00000000000E+00 0. -1.
         -2    1    3    3    0  502  0.30892685977E+02 -0.54223888938E+01 -0.12122440528E+02  0.33626089760E+02  0.00000000000E+00 0.  1.
<mgrwt>
<rscale>  0 0.91113200E+02</rscale>
<asrwt>0</asrwt>
<pdfrwt beam="1">  1        1 0.12041060E-01 0.91113200E+02</pdfrwt>
<pdfrwt beam="2">  1       -1 0.40795399E-02 0.91113200E+02</pdfrwt>
<totfact> 0.10059017E+05</totfact>
</mgrwt>
</event>
<event>
 5    1  0.3862918E+001  0.9007397E+02  0.7546771E-02  0.1302673E+00
         -1   -1    0    0    0  501 -0.00000000000E+00  0.00000000000E+00  0.33422199806E+02  0.33422199806E+02  0.00000000000E+00 0.  1.
          1   -1    0    0  501    0  0.00000000000E+00 -0.00000000000E+00 -0.60688105938E+02  0.60688105938E+02  0.00000000000E+00 0. -1.
         23    2    1    2    0    0  0.00000000000E+00  0.00000000000E+00 -0.27265906132E+02  0.94110305745E+02  0.90073969659E+02 0.  0.
          2    1    3    3  502    0  0.29885579375E+02  0.89261218325E+00 -0.48822866126E+02  0.57250474827E+02  0.00000000000E+00 0. -1.
         -2    1    3    3    0  502 -0.29885579375E+02 -0.89261218325E+00  0.21556959994E+02  0.36859830918E+02  0.00000000000E+00 0.  1.
<mgrwt>
<rscale>  0 0.90073970E+02</rscale>
<asrwt>0</asrwt>
<pdfrwt beam="2">  1        1 0.93366315E-02 0.90073970E+02</pdfrwt>
<pdfrwt beam="1">  1       -1 0.51418770E-02 0.90073970E+02</pdfrwt>
<totfact> 0.99845133E+04</totfact>
</mgrwt>
</event>
<event>
 5    1  0.3862918E+001  0.8915340E+02  0.7546771E-02  0.1304915E+00
          1   -1    0    0  501    0  0.00000000000E+00  0.00000000000E+00  0.16337113902E+04  0.16337113902E+04  0.00000000000E+00 0. -1.
         -1   -1    0    0    0  501 -0.00000000000E+00 -0.00000000000E+00 -0.12162993563E+01  0.12162993563E+01  0.00000000000E+00 0.  1.
         23    2    1    2    0    0  0.00000000000E+00  0.00000000000E+00  0.16324950909E+04  0.16349276896E+04  0.89153398418E+02 0.  0.
          2    1    3    3  502    0 -0.23257735688E+02  0.13103747487E+02  0.14709173762E+04  0.14711595964E+04  0.00000000000E+00 0. -1.
         -2    1    3    3    0  502  0.23257735688E+02 -0.13103747487E+02  0.16157771473E+03  0.16376809324E+03  0.00000000000E+00 0.  1.
<mgrwt>
<rscale>  0 0.89153398E+02</rscale>
<asrwt>0</asrwt>
<pdfrwt beam="1">  1        1 0.25133846E+00 0.89153398E+02</pdfrwt>
<pdfrwt beam="2">  1       -1 0.18712429E-03 0.89153398E+02</pdfrwt>
<totfact> 0.10858476E+05</totfact>
</mgrwt>
</event>
<event>
 5    1  0.3862918E+001  0.9142600E+02  0.7546771E-02  0.1299435E+00
         -1   -1    0    0    0  501 -0.00000000000E+00  0.00000000000E+00  0.71965981014E+01  0.71965981014E+01  0.00000000000E+00 0.  1.
          1   -1    0    0  501    0  0.00000000000E+00 -0.00000000000E+00 -0.29037030606E+03  0.29037030606E+03  0.00000000000E+00 0. -1.
         23    2    1    2    0    0  0.00000000000E+00  0.00000000000E+00 -0.28317370796E+03  0.29756690416E+03  0.91426000531E+02 0.  0.
          2    1    3    3  502    0 -0.13948478298E+02 -0.24248874454E+02 -0.25925828788E+03  0.26076316418E+03  0.00000000000E+00 0. -1.
         -2    1    3    3    0  502  0.13948478298E+02  0.24248874454E+02 -0.23915420082E+02  0.36803739984E+02  0.00000000000E+00 0.  1.
<mgrwt>
<rscale>  0 0.91426001E+02</rscale>
<asrwt>0</asrwt>
<pdfrwt beam="2">  1        1 0.44672358E-01 0.91426001E+02</pdfrwt>
<pdfrwt beam="1">  1       -1 0.11071688E-02 0.91426001E+02</pdfrwt>
<totfact> 0.12640037E+05</totfact>
</mgrwt>
</event>
<event>
 5    1  0.3862918E+001  0.8995625E+02  0.7546771E-02  0.1302958E+00
          1   -1    0    0  501    0  0.00000000000E+00  0.00000000000E+00  0.16053277575E+04  0.16053277575E+04  0.00000000000E+00 0. -1.
         -1   -1    0    0    0  501 -0.00000000000E+00 -0.00000000000E+00 -0.12601985950E+01  0.12601985950E+01  0.00000000000E+00 0.  1.
         23    2    1    2    0    0  0.00000000000E+00  0.00000000000E+00  0.16040675589E+04  0.16065879561E+04  0.89956251243E+02 0.  0.
          2    1    3    3  502    0  0.13849857253E+02 -0.24604471330E+02  0.14273343904E+04  0.14276136244E+04  0.00000000000E+00 0. -1.
         -2    1    3    3    0  502 -0.13849857253E+02  0.24604471330E+02  0.17673316844E+03  0.17897433163E+03  0.00000000000E+00 0.  1.
<mgrwt>
<rscale>  0 0.89956251E+02</rscale>
<asrwt>0</asrwt>
<pdfrwt beam="1">  1        1 0.24697187E+00 0.89956251E+02</pdfrwt>
<pdfrwt beam="2">  1       -1 0.19387799E-03 0.89956251E+02</pdfrwt>
<totfact> 0.10785677E+05</totfact>
</mgrwt>
</event>
<event>
 5    1  0.3862918E+001  0.8306229E+02  0.7546771E-02  0.1320579E+00
         -1   -1    0    0    0  501 -0.00000000000E+00  0.00000000000E+00  0.68882905150E+02  0.68882905150E+02  0.00000000000E+00 0.  1.
          1   -1    0    0  501    0  0.00000000000E+00 -0.00000000000E+00 -0.25040115841E+02  0.25040115841E+02  0.00000000000E+00 0. -1.
         23    2    1    2    0    0  0.00000000000E+00  0.00000000000E+00  0.43842789309E+02  0.93923020991E+02  0.83062288059E+02 0.  0.
          2    1    3    3  502    0  0.24501281995E+02  0.56058568538E+01 -0.15463624561E+02  0.29510373346E+02  0.00000000000E+00 0. -1.
         -2    1    3    3    0  502 -0.24501281995E+02 -0.56058568538E+01  0.59306413870E+02  0.64412647644E+02  0.00000000000E+00 0.  1.
<mgrwt>
<rscale>  0 0.83062288E+02</rscale>
<asrwt>0</asrwt>
<pdfrwt beam="2">  1        1 0.38523256E-02 0.83062288E+02</pdfrwt>
<pdfrwt beam="1">  1       -1 0.10597370E-01 0.83062288E+02</pdfrwt>
<totfact> 0.10998203E+05</totfact>
</mgrwt>
</event>
<event>
 5    1  0.3862918E+001  0.9118118E+02  0.7546771E-02  0.1300016E+00
          1   -1    0    0  501    0  0.00000000000E+00  0.00000000000E+00  0.24372362973E+03  0.24372362973E+03  0.00000000000E+00 0. -1.
         -1   -1    0    0    0  501 -0.00000000000E+00 -0.00000000000E+00 -0.85281097843E+01  0.85281097843E+01  0.00000000000E+00 0.  1.
         23    2    1    2    0    0  0.00000000000E+00  0.00000000000E+00  0.23519551995E+03  0.25225173952E+03  0.91181179448E+02 0.  0.
          2    1    3    3  502    0  0.21479974332E+02 -0.38759315820E+02  0.14724285766E+03  0.15376648852E+03  0.00000000000E+00 0. -1.
         -2    1    3    3    0  502 -0.21479974332E+02  0.38759315820E+02  0.87952662285E+02  0.98485250993E+02  0.00000000000E+00 0.  1.
<mgrwt>
<rscale>  0 0.91181179E+02</rscale>
<asrwt>0</asrwt>
<pdfrwt beam="1">  1        1 0.37495938E-01 0.91181179E+02</pdfrwt>
<pdfrwt beam="2">  1       -1 0.13120171E-02 0.91181179E+02</pdfrwt>
<totfact> 0.12304312E+05</totfact>
</mgrwt>
</event>
<event>
 5    1  0.3862918E+001  0.9065938E+02  0.7546771E-02  0.1301263E+00
          2   -1    0    0  501    0  0.00000000000E+00  0.00000000000E+00  0.11954647147E+04  0.11954647147E+04  0.00000000000E+00 0. -1.
         -2   -1    0    0    0  501 -0.00000000000E+00 -0.00000000000E+00 -0.17188132917E+01  0.17188132917E+01  0.00000000000E+00 0.  1.
         23    2    1    2    0    0  0.00000000000E+00  0.00000000000E+00  0.11937459014E+04  0.11971835280E+04  0.90659376598E+02 0.  0.
          2    1    3    3  502    0  0.18058648456E+00 -0.40400218075E+02  0.86832776316E+03  0.86926711344E+03  0.00000000000E+00 0. -1.
         -2    1    3    3    0  502 -0.18058648456E+00  0.40400218075E+02  0.32541813821E+03  0.32791641452E+03  0.00000000000E+00 0.  1.
<mgrwt>
<rscale>  0 0.90659377E+02</rscale>
<asrwt>0</asrwt>
<pdfrwt beam="1">  1        2 0.18391698E+00 0.90659377E+02</pdfrwt>
<pdfrwt beam="2">  1       -2 0.26443377E-03 0.90659377E+02</pdfrwt>
<totfact> 0.25254155E+05</totfact>
</mgrwt>
</event>
<event>
 5    1  0.3862918E+001  0.9183969E+02  0.7546771E-02  0.1298457E+00
          1   -1    0    0  501    0  0.00000000000E+00  0.00000000000E+00  0.43953924952E+03  0.43953924952E+03  0.00000000000E+00 0. -1.
         -1   -1    0    0    0  501 -0.00000000000E+00 -0.00000000000E+00 -0.47973689621E+01  0.47973689621E+01  0.00000000000E+00 0.  1.
         23    2    1    2    0    0  0.00000000000E+00  0.00000000000E+00  0.43474188055E+03  0.44433661848E+03  0.91839685393E+02 0.  0.
          2    1    3    3  502    0 -0.39928525985E+02 -0.42059657231E+01  0.32519333107E+03  0.32766244812E+03  0.00000000000E+00 0. -1.
         -2    1    3    3    0  502  0.39928525985E+02  0.42059657231E+01  0.10954854949E+03  0.11667417036E+03  0.00000000000E+00 0.  1.
<mgrwt>
<rscale>  0 0.91839685E+02</rscale>
<asrwt>0</asrwt>
<pdfrwt beam="1">  1        1 0.67621391E-01 0.91839685E+02</pdfrwt>
<pdfrwt beam="2">  1       -1 0.73805711E-03 0.91839685E+02</pdfrwt>
<totfact> 0.13428172E+05</totfact>
</mgrwt>
</event>
<event>
 5    1  0.3862918E+001  0.9029081E+02  0.7546771E-02  0.1302149E+00
          2   -1    0    0  501    0  0.00000000000E+00  0.00000000000E+00  0.96671053776E+03  0.96671053776E+03  0.00000000000E+00 0. -1.
         -2   -1    0    0    0  501 -0.00000000000E+00 -0.00000000000E+00 -0.21082916076E+01  0.21082916076E+01  0.00000000000E+00 0.  1.
         23    2    1    2    0    0  0.00000000000E+00  0.00000000000E+00  0.96460224615E+03  0.96881882936E+03  0.90290812684E+02 0.  0.
          2    1    3    3  502    0 -0.60247607125E+01  0.38430841165E+02  0.23647434178E+03  0.23965254352E+03  0.00000000000E+00 0. -1.
         -2    1    3    3    0  502  0.60247607125E+01 -0.38430841165E+02  0.72812790436E+03  0.72916628584E+03  0.00000000000E+00 0.  1.
<mgrwt>
<rscale>  0 0.90290813E+02</rscale>
<asrwt>0</asrwt>
<pdfrwt beam="1">  1        2 0.14872434E+00 0.90290813E+02</pdfrwt>
<pdfrwt beam="2">  1       -2 0.32435333E-03 0.90290813E+02</pdfrwt>
<totfact> 0.25604236E+05</totfact>
</mgrwt>
</event>
<event>
 5    1  0.3862918E+001  0.9162892E+02  0.7546771E-02  0.1298954E+00
          1   -1    0    0  501    0  0.00000000000E+00  0.00000000000E+00  0.37761409008E+01  0.37761409008E+01  0.00000000000E+00 0. -1.
         -1   -1    0    0    0  501 -0.00000000000E+00 -0.00000000000E+00 -0.55584913551E+03  0.55584913551E+03  0.00000000000E+00 0.  1.
         23    2    1    2    0    0  0.00000000000E+00  0.00000000000E+00 -0.55207299461E+03  0.55962527641E+03  0.91628918039E+02 0.  0.
          2    1    3    3  502    0  0.12108795587E+02 -0.28247285480E+02 -0.68521708683E+02  0.75098313086E+02  0.00000000000E+00 0. -1.
         -2    1    3    3    0  502 -0.12108795587E+02  0.28247285480E+02 -0.48355128593E+03  0.48452696333E+03  0.00000000000E+00 0.  1.
<mgrwt>
<rscale>  0 0.91628918E+02</rscale>
<asrwt>0</asrwt>
<pdfrwt beam="1">  1        1 0.58094501E-03 0.91628918E+02</pdfrwt>
<pdfrwt beam="2">  1       -1 0.85515214E-01 0.91628918E+02</pdfrwt>
<totfact> 0.43355541E+04</totfact>
</mgrwt>
</event>
<event>
 5    1  0.3862918E+001  0.9019120E+02  0.7546771E-02  0.1302389E+00
         -3   -1    0    0    0  501 -0.00000000000E+00  0.00000000000E+00  0.85424572586E+02  0.85424572586E+02  0.00000000000E+00 0.  1.
          3   -1    0    0  501    0  0.00000000000E+00 -0.00000000000E+00 -0.23805949983E+02  0.23805949983E+02  0.00000000000E+00 0. -1.
         23    2    1    2    0    0  0.00000000000E+00  0.00000000000E+00  0.61618622603E+02  0.10923052257E+03  0.90191199178E+02 0.  0.
          2    1    3    3  502    0 -0.35146387431E+02  0.18091759190E+02  0.45244659568E+01  0.39787574596E+02  0.00000000000E+00 0. -1.
         -2    1    3    3    0  502  0.35146387431E+02 -0.18091759190E+02  0.57094156646E+02  0.69442947973E+02  0.00000000000E+00 0.  1.
<mgrwt>
<rscale>  0 0.90191199E+02</rscale>
<asrwt>0</asrwt>
<pdfrwt beam="2">  1        3 0.36624539E-02 0.90191199E+02</pdfrwt>
<pdfrwt beam="1">  1       -3 0.13142242E-01 0.90191199E+02</pdfrwt>
<totfact> 0.35019101E+04</totfact>
</mgrwt>
</event>
<event>
 5    1  0.3862918E+001  0.8863641E+02  0.7546771E-02  0.1306188E+00
          2   -1    0    0  501    0  0.00000000000E+00  0.00000000000E+00  0.46312097482E+02  0.46312097482E+02  0.00000000000E+00 0. -1.
         -2   -1    0    0    0  501 -0.00000000000E+00 -0.00000000000E+00 -0.42410154645E+02  0.42410154645E+02  0.00000000000E+00 0.  1.
         23    2    1    2    0    0  0.00000000000E+00  0.00000000000E+00  0.39019428373E+01  0.88722252127E+02  0.88636408234E+02 0.  0.
          2    1    3    3  502    0 -0.98119580645E+01 -0.20072523922E+02  0.40262345604E+02  0.46046033609E+02  0.00000000000E+00 0. -1.
         -2    1    3    3    0  502  0.98119580645E+01  0.20072523922E+02 -0.36360402767E+02  0.42676218518E+02  0.00000000000E+00 0.  1.
<mgrwt>
<rscale>  0 0.88636408E+02</rscale>
<asrwt>0</asrwt>
<pdfrwt beam="1">  1        2 0.71249381E-02 0.88636408E+02</pdfrwt>
<pdfrwt beam="2">  1       -2 0.65246392E-02 0.88636408E+02</pdfrwt>
<totfact> 0.10740730E+05</totfact>
</mgrwt>
</event>
<event>
 5    1  0.3862918E+001  0.9105191E+02  0.7546771E-02  0.1300324E+00
         -2   -1    0    0    0  501 -0.00000000000E+00  0.00000000000E+00  0.37383201930E+01  0.37383201930E+01  0.00000000000E+00 0.  1.
          2   -1    0    0  501    0  0.00000000000E+00 -0.00000000000E+00 -0.55442347030E+03  0.55442347030E+03  0.00000000000E+00 0. -1.
         23    2    1    2    0    0  0.00000000000E+00  0.00000000000E+00 -0.55068515010E+03  0.55816179049E+03  0.91051907272E+02 0.  0.
          2    1    3    3  502    0  0.42019839651E+02  0.62488351550E+01 -0.17500688115E+03  0.18008920932E+03  0.00000000000E+00 0. -1.
         -2    1    3    3    0  502 -0.42019839651E+02 -0.62488351550E+01 -0.37567826896E+03  0.37807258117E+03  0.00000000000E+00 0.  1.
<mgrwt>
<rscale>  0 0.91051907E+02</rscale>
<asrwt>0</asrwt>
<pdfrwt beam="2">  1        2 0.85295935E-01 0.91051907E+02</pdfrwt>
<pdfrwt beam="1">  1       -2 0.57512607E-03 0.91051907E+02</pdfrwt>
<totfact> 0.22342730E+05</totfact>
</mgrwt>
</event>
<event>
 4    1  0.3862918E+001  0.1619967E+03  0.7546771E-02  0.1186461E+00
         -2   -1    0    0    0  501 -0.00000000000E+00  0.00000000000E+00  0.37548935977E+02  0.37548935977E+02  0.00000000000E+00 0. -1.
          2   -1    0    0  501    0  0.00000000000E+00 -0.00000000000E+00 -0.17472476312E+03  0.17472476312E+03  0.00000000000E+00 0.  1.
          2    1    1    2  502    0  0.27305515372E+02 -0.23090005319E+02  0.26645402852E+02  0.44595033451E+02  0.00000000000E+00 0. -1.
         -2    1    1    2    0  502 -0.27305515372E+02  0.23090005319E+02 -0.16382122999E+03  0.16767866564E+03  0.00000000000E+00 0.  1.
<mgrwt>
<rscale>  0 0.16199665E+03</rscale>
<asrwt>0</asrwt>
<pdfrwt beam="2">  1        2 0.26880733E-01 0.16199665E+03</pdfrwt>
<pdfrwt beam="1">  1       -2 0.57767592E-02 0.16199665E+03</pdfrwt>
<totfact> 0.29261216E+04</totfact>
</mgrwt>
</event>
<event>
 5    1  0.3862918E+001  0.9015222E+02  0.7546771E-02  0.1302483E+00
          4   -1    0    0  501    0  0.00000000000E+00  0.00000000000E+00  0.16071444764E+02  0.16071444764E+02  0.00000000000E+00 0. -1.
         -4   -1    0    0    0  501 -0.00000000000E+00 -0.00000000000E+00 -0.12642645274E+03  0.12642645274E+03  0.00000000000E+00 0.  1.
         23    2    1    2    0    0  0.00000000000E+00  0.00000000000E+00 -0.11035500798E+03  0.14249789750E+03  0.90152221312E+02 0.  0.
          2    1    3    3  502    0 -0.38952272963E+02 -0.21828940690E+02 -0.45424383178E+02  0.63695814680E+02  0.00000000000E+00 0. -1.
         -2    1    3    3    0  502  0.38952272963E+02  0.21828940690E+02 -0.64930624797E+02  0.78802082823E+02  0.00000000000E+00 0.  1.
<mgrwt>
<rscale>  0 0.90152221E+02</rscale>
<asrwt>0</asrwt>
<pdfrwt beam="1">  1        4 0.24725299E-02 0.90152221E+02</pdfrwt>
<pdfrwt beam="2">  1       -4 0.19450224E-01 0.90152221E+02</pdfrwt>
<totfact> 0.24797087E+04</totfact>
</mgrwt>
</event>
<event>
 5    1  0.3862918E+001  0.9118762E+02  0.7546771E-02  0.1300001E+00
         -1   -1    0    0    0  501 -0.00000000000E+00  0.00000000000E+00  0.46951378094E+02  0.46951378094E+02  0.00000000000E+00 0.  1.
          1   -1    0    0  501    0  0.00000000000E+00 -0.00000000000E+00 -0.44275495522E+02  0.44275495522E+02  0.00000000000E+00 0. -1.
         23    2    1    2    0    0  0.00000000000E+00  0.00000000000E+00  0.26758825716E+01  0.91226873616E+02  0.91187620444E+02 0.  0.
          2    1    3    3  502    0  0.40003033444E+02 -0.11182523842E+02  0.20147736999E+02  0.46165169017E+02  0.00000000000E+00 0. -1.
         -2    1    3    3    0  502 -0.40003033444E+02  0.11182523842E+02 -0.17471854428E+02  0.45061704599E+02  0.00000000000E+00 0.  1.
<mgrwt>
<rscale>  0 0.91187620E+02</rscale>
<asrwt>0</asrwt>
<pdfrwt beam="2">  1        1 0.68116146E-02 0.91187620E+02</pdfrwt>
<pdfrwt beam="1">  1       -1 0.72232890E-02 0.91187620E+02</pdfrwt>
<totfact> 0.92035950E+04</totfact>
</mgrwt>
</event>
<event>
 5    1  0.3862918E+001  0.8794618E+02  0.7546771E-02  0.1307903E+00
          1   -1    0    0  501    0  0.00000000000E+00  0.00000000000E+00  0.21275822078E+03  0.21275822078E+03  0.00000000000E+00 0. -1.
         -1   -1    0    0    0  501 -0.00000000000E+00 -0.00000000000E+00 -0.90884044082E+01  0.90884044082E+01  0.00000000000E+00 0.  1.
         23    2    1    2    0    0  0.00000000000E+00  0.00000000000E+00  0.20366981637E+03  0.22184662519E+03  0.87946182444E+02 0.  0.
          2    1    3    3  502    0  0.37485368290E+02  0.18844379172E+02  0.13504896457E+03  0.14141600438E+03  0.00000000000E+00 0. -1.
         -2    1    3    3    0  502 -0.37485368290E+02 -0.18844379172E+02  0.68620851799E+02  0.80430620810E+02  0.00000000000E+00 0.  1.
<mgrwt>
<rscale>  0 0.87946182E+02</rscale>
<asrwt>0</asrwt>
<pdfrwt beam="1">  1        1 0.32732030E-01 0.87946182E+02</pdfrwt>
<pdfrwt beam="2">  1       -1 0.13982162E-02 0.87946182E+02</pdfrwt>
<totfact> 0.13196499E+05</totfact>
</mgrwt>
</event>
<event>
 5    1  0.3862918E+001  0.9103193E+02  0.7546771E-02  0.1300372E+00
         -4   -1    0    0    0  501 -0.00000000000E+00  0.00000000000E+00  0.54492314136E+02  0.54492314136E+02  0.00000000000E+00 0. -1.
          4   -1    0    0  501    0  0.00000000000E+00 -0.00000000000E+00 -0.38018260865E+02  0.38018260865E+02  0.00000000000E+00 0.  1.
         23    2    1    2    0    0  0.00000000000E+00  0.00000000000E+00  0.16474053272E+02  0.92510575001E+02  0.91031928771E+02 0.  0.
          2    1    3    3  502    0  0.67442500465E+01  0.31475875877E+02  0.40938704276E+02  0.52078720978E+02  0.00000000000E+00 0. -1.
         -2    1    3    3    0  502 -0.67442500465E+01 -0.31475875877E+02 -0.24464651005E+02  0.40431854023E+02  0.00000000000E+00 0.  1.
<mgrwt>
<rscale>  0 0.91031929E+02</rscale>
<asrwt>0</asrwt>
<pdfrwt beam="2">  1        4 0.58489632E-02 0.91031929E+02</pdfrwt>
<pdfrwt beam="1">  1       -4 0.83834329E-02 0.91031929E+02</pdfrwt>
<totfact> 0.27047518E+04</totfact>
</mgrwt>
</event>
<event>
 5    1  0.3862918E+001  0.9004884E+02  0.7546771E-02  0.1302733E+00
         -2   -1    0    0    0  501 -0.00000000000E+00  0.00000000000E+00  0.42510122662E+01  0.42510122662E+01  0.00000000000E+00 0.  1.
          2   -1    0    0  501    0  0.00000000000E+00 -0.00000000000E+00 -0.47687428829E+03  0.47687428829E+03  0.00000000000E+00 0. -1.
         23    2    1    2    0    0  0.00000000000E+00  0.00000000000E+00 -0.47262327603E+03  0.48112530056E+03  0.90048841169E+02 0.  0.
          2    1    3    3  502    0  0.11282372584E+02 -0.33225043450E+02 -0.38705473062E+03  0.38864194310E+03  0.00000000000E+00 0. -1.
         -2    1    3    3    0  502 -0.11282372584E+02  0.33225043450E+02 -0.85568545411E+02  0.92483357461E+02  0.00000000000E+00 0.  1.
<mgrwt>
<rscale>  0 0.90048841E+02</rscale>
<asrwt>0</asrwt>
<pdfrwt beam="2">  1        2 0.73365243E-01 0.90048841E+02</pdfrwt>
<pdfrwt beam="1">  1       -2 0.65400217E-03 0.90048841E+02</pdfrwt>
<totfact> 0.21926617E+05</totfact>
</mgrwt>
</event>
<event>
 5    1  0.3862918E+001  0.9172192E+02  0.7546771E-02  0.1298735E+00
         -1   -1    0    0    0  501 -0.00000000000E+00  0.00000000000E+00  0.43061456070E+03  0.43061456070E+03  0.00000000000E+00 0.  1.
          1   -1    0    0  501    0  0.00000000000E+00 -0.00000000000E+00 -0.48842469797E+01  0.48842469797E+01  0.00000000000E+00 0. -1.
         23    2    1    2    0    0  0.00000000000E+00  0.00000000000E+00  0.42573031372E+03  0.43549880768E+03  0.91721924697E+02 0.  0.
          2    1    3    3  502    0 -0.28678388207E+02  0.22184536413E+02  0.34620160368E+03  0.34809503587E+03  0.00000000000E+00 0.  1.
         -2    1    3    3    0  502  0.28678388207E+02 -0.22184536413E+02  0.79528710037E+02  0.87403771807E+02  0.00000000000E+00 0. -1.
<mgrwt>
<rscale>  0 0.91721925E+02</rscale>
<asrwt>0</asrwt>
<pdfrwt beam="2">  1        1 0.75142295E-03 0.91721925E+02</pdfrwt>
<pdfrwt beam="1">  1       -1 0.66248365E-01 0.91721925E+02</pdfrwt>
<totfact> 0.50481982E+04</totfact>
</mgrwt>
</event>
<event>
 5    1  0.3862918E+001  0.8968738E+02  0.7546771E-02  0.1303611E+00
         -2   -1    0    0    0  501 -0.00000000000E+00  0.00000000000E+00  0.84907197576E+00  0.84907197576E+00  0.00000000000E+00 0.  1.
          2   -1    0    0  501    0  0.00000000000E+00 -0.00000000000E+00 -0.23684169624E+04  0.23684169624E+04  0.00000000000E+00 0. -1.
         23    2    1    2    0    0  0.00000000000E+00  0.00000000000E+00 -0.23675678904E+04  0.23692660344E+04  0.89687378592E+02 0.  0.
          2    1    3    3  502    0  0.26467227103E+02 -0.19396828707E+02 -0.19912117178E+04  0.19914820753E+04  0.00000000000E+00 0. -1.
         -2    1    3    3    0  502 -0.26467227103E+02  0.19396828707E+02 -0.37635617260E+03  0.37778395906E+03  0.00000000000E+00 0.  1.
<mgrwt>
<rscale>  0 0.89687379E+02</rscale>
<asrwt>0</asrwt>
<pdfrwt beam="2">  1        2 0.36436715E+00 0.89687379E+02</pdfrwt>
<pdfrwt beam="1">  1       -2 0.13062814E-03 0.89687379E+02</pdfrwt>
<totfact> 0.16865283E+05</totfact>
</mgrwt>
</event>
<event>
 5    1  0.3862918E+001  0.9065820E+02  0.7546771E-02  0.1301266E+00
         -2   -1    0    0    0  501 -0.00000000000E+00  0.00000000000E+00  0.26754093791E+02  0.26754093791E+02  0.00000000000E+00 0.  1.
          2   -1    0    0  501    0  0.00000000000E+00 -0.00000000000E+00 -0.76800484108E+02  0.76800484108E+02  0.00000000000E+00 0. -1.
         23    2    1    2    0    0  0.00000000000E+00  0.00000000000E+00 -0.50046390317E+02  0.10355457790E+03  0.90658201064E+02 0.  0.
          2    1    3    3  502    0  0.21655484011E+02  0.43954940186E+01 -0.70231691072E+02  0.73625883942E+02  0.00000000000E+00 0. -1.
         -2    1    3    3    0  502 -0.21655484011E+02 -0.43954940186E+01  0.20185300755E+02  0.29928693957E+02  0.00000000000E+00 0.  1.
<mgrwt>
<rscale>  0 0.90658201E+02</rscale>
<asrwt>0</asrwt>
<pdfrwt beam="2">  1        2 0.11815459E-01 0.90658201E+02</pdfrwt>
<pdfrwt beam="1">  1       -2 0.41160145E-02 0.90658201E+02</pdfrwt>
<totfact> 0.11534563E+05</totfact>
</mgrwt>
</event>
<event>
 5    1  0.3862918E+001  0.9217972E+02  0.7546771E-02  0.1297657E+00
          4   -1    0    0  501    0  0.00000000000E+00  0.00000000000E+00  0.69921550095E+03  0.69921550095E+03  0.00000000000E+00 0. -1.
         -4   -1    0    0    0  501 -0.00000000000E+00 -0.00000000000E+00 -0.30380839767E+01  0.30380839767E+01  0.00000000000E+00 0.  1.
         23    2    1    2    0    0  0.00000000000E+00  0.00000000000E+00  0.69617741698E+03  0.70225358493E+03  0.92179724663E+02 0.  0.
          2    1    3    3  502    0  0.32004041662E+02 -0.31869188450E+02  0.41806591217E+03  0.42049852648E+03  0.00000000000E+00 0. -1.
         -2    1    3    3    0  502 -0.32004041662E+02  0.31869188450E+02  0.27811150481E+03  0.28175505845E+03  0.00000000000E+00 0.  1.
<mgrwt>
<rscale>  0 0.92179725E+02</rscale>
<asrwt>0</asrwt>
<pdfrwt beam="1">  1        4 0.10757149E+00 0.92179725E+02</pdfrwt>
<pdfrwt beam="2">  1       -4 0.46739809E-03 0.92179725E+02</pdfrwt>
<totfact> 0.97299276E+03</totfact>
</mgrwt>
</event>
<event>
 5    1  0.3862918E+001  0.9014026E+02  0.7546771E-02  0.1302512E+00
         -1   -1    0    0    0  501 -0.00000000000E+00  0.00000000000E+00  0.70922561214E+02  0.70922561214E+02  0.00000000000E+00 0.  1.
          1   -1    0    0  501    0  0.00000000000E+00 -0.00000000000E+00 -0.28641333953E+02  0.28641333953E+02  0.00000000000E+00 0. -1.
         23    2    1    2    0    0  0.00000000000E+00  0.00000000000E+00  0.42281227261E+02  0.99563895167E+02  0.90140263157E+02 0.  0.
          2    1    3    3  502    0 -0.20586242561E+02 -0.51430718823E+01 -0.22779040063E+02  0.31130840614E+02  0.00000000000E+00 0. -1.
         -2    1    3    3    0  502  0.20586242561E+02  0.51430718823E+01  0.65060267323E+02  0.68433054552E+02  0.00000000000E+00 0.  1.
<mgrwt>
<rscale>  0 0.90140263E+02</rscale>
<asrwt>0</asrwt>
<pdfrwt beam="2">  1        1 0.44063591E-02 0.90140263E+02</pdfrwt>
<pdfrwt beam="1">  1       -1 0.10911163E-01 0.90140263E+02</pdfrwt>
<totfact> 0.88908928E+04</totfact>
</mgrwt>
</event>
<event>
 5    1  0.3862918E+001  0.9347265E+02  0.7546771E-02  0.1294654E+00
          2   -1    0    0  501    0  0.00000000000E+00  0.00000000000E+00  0.39720030931E+03  0.39720030931E+03  0.00000000000E+00 0.  1.
         -2   -1    0    0    0  501 -0.00000000000E+00 -0.00000000000E+00 -0.54991998889E+01  0.54991998889E+01  0.00000000000E+00 0. -1.
         23    2    1    2    0    0  0.00000000000E+00  0.00000000000E+00  0.39170110942E+03  0.40269950920E+03  0.93472646199E+02 0.  0.
          2    1    3    3  502    0  0.35185253095E+02  0.21080215642E+02  0.29236846634E+03  0.29523159999E+03  0.00000000000E+00 0. -1.
         -2    1    3    3    0  502 -0.35185253095E+02 -0.21080215642E+02  0.99332643088E+02  0.10746790921E+03  0.00000000000E+00 0.  1.
<mgrwt>
<rscale>  0 0.93472646E+02</rscale>
<asrwt>0</asrwt>
<pdfrwt beam="1">  1        2 0.61107717E-01 0.93472646E+02</pdfrwt>
<pdfrwt beam="2">  1       -2 0.84603106E-03 0.93472646E+02</pdfrwt>
<totfact> 0.18637823E+05</totfact>
</mgrwt>
</event>
<event>
 5    1  0.3862918E+001  0.8623399E+02  0.7546771E-02  0.1312237E+00
          1   -1    0    0  501    0  0.00000000000E+00  0.00000000000E+00  0.17652160468E+03  0.17652160468E+03  0.00000000000E+00 0. -1.
         -1   -1    0    0    0  501 -0.00000000000E+00 -0.00000000000E+00 -0.10531714305E+02  0.10531714305E+02  0.00000000000E+00 0.  1.
         23    2    1    2    0    0  0.00000000000E+00  0.00000000000E+00  0.16598989038E+03  0.18705331899E+03  0.86233986555E+02 0.  0.
          2    1    3    3  502    0 -0.15622418770E+01  0.20314105329E+02  0.16542133635E+03  0.16667129925E+03  0.00000000000E+00 0. -1.
         -2    1    3    3    0  502  0.15622418770E+01 -0.20314105329E+02  0.56855403232E+00  0.20382019740E+02  0.00000000000E+00 0.  1.
<mgrwt>
<rscale>  0 0.86233987E+02</rscale>
<asrwt>0</asrwt>
<pdfrwt beam="1">  1        1 0.27157168E-01 0.86233987E+02</pdfrwt>
<pdfrwt beam="2">  1       -1 0.16202639E-02 0.86233987E+02</pdfrwt>
<totfact> 0.13420306E+05</totfact>
</mgrwt>
</event>
<event>
 5    1  0.3862918E+001  0.9088631E+02  0.7546771E-02  0.1300719E+00
         -1   -1    0    0    0  501 -0.00000000000E+00  0.00000000000E+00  0.24704105684E+01  0.24704105684E+01  0.00000000000E+00 0.  1.
          1   -1    0    0  501    0  0.00000000000E+00 -0.00000000000E+00 -0.83592598036E+03  0.83592598036E+03  0.00000000000E+00 0. -1.
         23    2    1    2    0    0  0.00000000000E+00  0.00000000000E+00 -0.83345556979E+03  0.83839639093E+03  0.90886310880E+02 0.  0.
          2    1    3    3  502    0  0.30178871654E+02  0.14327732093E+02 -0.13254917019E+03  0.13669429659E+03  0.00000000000E+00 0.  1.
         -2    1    3    3    0  502 -0.30178871654E+02 -0.14327732093E+02 -0.70090639960E+03  0.70170209434E+03  0.00000000000E+00 0. -1.
<mgrwt>
<rscale>  0 0.90886311E+02</rscale>
<asrwt>0</asrwt>
<pdfrwt beam="2">  1        1 0.12860412E+00 0.90886311E+02</pdfrwt>
<pdfrwt beam="1">  1       -1 0.38006281E-03 0.90886311E+02</pdfrwt>
<totfact> 0.14185881E+05</totfact>
</mgrwt>
</event>
<event>
 5    1  0.3862918E+001  0.9219640E+02  0.7546771E-02  0.1297618E+00
          2   -1    0    0  501    0  0.00000000000E+00  0.00000000000E+00  0.10782110067E+04  0.10782110067E+04  0.00000000000E+00 0. -1.
         -2   -1    0    0    0  501 -0.00000000000E+00 -0.00000000000E+00 -0.19708982562E+01  0.19708982562E+01  0.00000000000E+00 0.  1.
         23    2    1    2    0    0  0.00000000000E+00  0.00000000000E+00  0.10762401084E+04  0.10801819049E+04  0.92196403245E+02 0.  0.
          2    1    3    3  502    0  0.22026346697E+02  0.21514277962E+02  0.13616744103E+03  0.13960514354E+03  0.00000000000E+00 0.  1.
         -2    1    3    3    0  502 -0.22026346697E+02 -0.21514277962E+02  0.94007266739E+03  0.94057676140E+03  0.00000000000E+00 0. -1.
<mgrwt>
<rscale>  0 0.92196403E+02</rscale>
<asrwt>0</asrwt>
<pdfrwt beam="1">  1        2 0.16587815E+00 0.92196403E+02</pdfrwt>
<pdfrwt beam="2">  1       -2 0.30321598E-03 0.92196403E+02</pdfrwt>
<totfact> 0.24307699E+05</totfact>
</mgrwt>
</event>
<event>
 5    1  0.3862918E+001  0.9082955E+02  0.7546771E-02  0.1300855E+00
         -1   -1    0    0    0  501 -0.00000000000E+00  0.00000000000E+00  0.12911063057E+02  0.12911063057E+02  0.00000000000E+00 0.  1.
          1   -1    0    0  501    0  0.00000000000E+00 -0.00000000000E+00 -0.15974685088E+03  0.15974685088E+03  0.00000000000E+00 0. -1.
         23    2    1    2    0    0  0.00000000000E+00  0.00000000000E+00 -0.14683578782E+03  0.17265791393E+03  0.90829547280E+02 0.  0.
          2    1    3    3  502    0  0.26044439126E+02  0.14348707305E+02 -0.81667822106E+01  0.30836577995E+02  0.00000000000E+00 0.  1.
         -2    1    3    3    0  502 -0.26044439126E+02 -0.14348707305E+02 -0.13866900561E+03  0.14182133594E+03  0.00000000000E+00 0. -1.
<mgrwt>
<rscale>  0 0.90829547E+02</rscale>
<asrwt>0</asrwt>
<pdfrwt beam="2">  1        1 0.24576439E-01 0.90829547E+02</pdfrwt>
<pdfrwt beam="1">  1       -1 0.19863174E-02 0.90829547E+02</pdfrwt>
<totfact> 0.11461850E+05</totfact>
</mgrwt>
</event>
<event>
 5    1  0.3862918E+001  0.9342227E+02  0.7546771E-02  0.1294770E+00
          2   -1    0    0  501    0  0.00000000000E+00  0.00000000000E+00  0.28177356481E+03  0.28177356481E+03  0.00000000000E+00 0. -1.
         -2   -1    0    0    0  501 -0.00000000000E+00 -0.00000000000E+00 -0.77435588950E+01  0.77435588950E+01  0.00000000000E+00 0.  1.
         23    2    1    2    0    0  0.00000000000E+00  0.00000000000E+00  0.27403000592E+03  0.28951712371E+03  0.93422271310E+02 0.  0.
          2    1    3    3  502    0  0.30631369564E+02 -0.35011195956E+02  0.15011381877E+03  0.15715668369E+03  0.00000000000E+00 0. -1.
         -2    1    3    3    0  502 -0.30631369564E+02  0.35011195956E+02  0.12391618715E+03  0.13236044002E+03  0.00000000000E+00 0.  1.
<mgrwt>
<rscale>  0 0.93422271E+02</rscale>
<asrwt>0</asrwt>
<pdfrwt beam="1">  1        2 0.43349771E-01 0.93422271E+02</pdfrwt>
<pdfrwt beam="2">  1       -2 0.11913170E-02 0.93422271E+02</pdfrwt>
<totfact> 0.16444468E+05</totfact>
</mgrwt>
</event>
<event>
 5    1  0.3862918E+001  0.8756858E+02  0.7546771E-02  0.1308849E+00
          3   -1    0    0  501    0  0.00000000000E+00  0.00000000000E+00  0.44528766037E+02  0.44528766037E+02  0.00000000000E+00 0. -1.
         -3   -1    0    0    0  501 -0.00000000000E+00 -0.00000000000E+00 -0.43052263026E+02  0.43052263026E+02  0.00000000000E+00 0.  1.
         23    2    1    2    0    0  0.00000000000E+00  0.00000000000E+00  0.14765030113E+01  0.87581029063E+02  0.87568582212E+02 0.  0.
          2    1    3    3  502    0  0.28065353736E+02  0.25685483592E+02 -0.20936377020E+02  0.43425108294E+02  0.00000000000E+00 0.  1.
         -2    1    3    3    0  502 -0.28065353736E+02 -0.25685483592E+02  0.22412880031E+02  0.44155920769E+02  0.00000000000E+00 0. -1.
<mgrwt>
<rscale>  0 0.87568582E+02</rscale>
<asrwt>0</asrwt>
<pdfrwt beam="1">  1        3 0.68505794E-02 0.87568582E+02</pdfrwt>
<pdfrwt beam="2">  1       -3 0.66234251E-02 0.87568582E+02</pdfrwt>
<totfact> 0.39745032E+04</totfact>
</mgrwt>
</event>
<event>
 5    1  0.3862918E+001  0.9386842E+02  0.7546771E-02  0.1293745E+00
          2   -1    0    0  501    0  0.00000000000E+00  0.00000000000E+00  0.36281363054E+03  0.36281363054E+03  0.00000000000E+00 0. -1.
         -2   -1    0    0    0  501 -0.00000000000E+00 -0.00000000000E+00 -0.60714916961E+01  0.60714916961E+01  0.00000000000E+00 0.  1.
         23    2    1    2    0    0  0.00000000000E+00  0.00000000000E+00  0.35674213884E+03  0.36888512224E+03  0.93868417374E+02 0.  0.
          2    1    3    3  502    0  0.25644867128E+02  0.25177352216E+02  0.29700070484E+03  0.29916713883E+03  0.00000000000E+00 0. -1.
         -2    1    3    3    0  502 -0.25644867128E+02 -0.25177352216E+02  0.59741434000E+02  0.69717983412E+02  0.00000000000E+00 0.  1.
<mgrwt>
<rscale>  0 0.93868417E+02</rscale>
<asrwt>0</asrwt>
<pdfrwt beam="1">  1        2 0.55817465E-01 0.93868417E+02</pdfrwt>
<pdfrwt beam="2">  1       -2 0.93407593E-03 0.93868417E+02</pdfrwt>
<totfact> 0.17833415E+05</totfact>
</mgrwt>
</event>
<event>
 5    1  0.3862918E+001  0.9234041E+02  0.7546771E-02  0.1297281E+00
         -3   -1    0    0    0  501 -0.00000000000E+00  0.00000000000E+00  0.24849784829E+02  0.24849784829E+02  0.00000000000E+00 0.  1.
          3   -1    0    0  501    0  0.00000000000E+00 -0.00000000000E+00 -0.85782945814E+02  0.85782945814E+02  0.00000000000E+00 0. -1.
         23    2    1    2    0    0  0.00000000000E+00  0.00000000000E+00 -0.60933160985E+02  0.11063273064E+03  0.92340408174E+02 0.  0.
          2    1    3    3  502    0  0.45739626917E+01 -0.33234886892E+02 -0.68471158964E+02  0.76248137363E+02  0.00000000000E+00 0. -1.
         -2    1    3    3    0  502 -0.45739626917E+01  0.33234886892E+02  0.75379979786E+01  0.34384593279E+02  0.00000000000E+00 0.  1.
<mgrwt>
<rscale>  0 0.92340408E+02</rscale>
<asrwt>0</asrwt>
<pdfrwt beam="2">  1        3 0.13197376E-01 0.92340408E+02</pdfrwt>
<pdfrwt beam="1">  1       -3 0.38230439E-02 0.92340408E+02</pdfrwt>
<totfact> 0.32748464E+04</totfact>
</mgrwt>
</event>
<event>
 5    1  0.3862918E+001  0.9256473E+02  0.7546771E-02  0.1296757E+00
          2   -1    0    0  501    0  0.00000000000E+00  0.00000000000E+00  0.48652314520E+03  0.48652314520E+03  0.00000000000E+00 0. -1.
         -2   -1    0    0    0  501 -0.00000000000E+00 -0.00000000000E+00 -0.44027864613E+01  0.44027864613E+01  0.00000000000E+00 0.  1.
         23    2    1    2    0    0  0.00000000000E+00  0.00000000000E+00  0.48212035874E+03  0.49092593166E+03  0.92564734468E+02 0.  0.
          2    1    3    3  502    0  0.10005503512E+02  0.36232239519E+02  0.97846179229E+02  0.10481774693E+03  0.00000000000E+00 0.  1.
         -2    1    3    3    0  502 -0.10005503512E+02 -0.36232239519E+02  0.38427417951E+03  0.38610818474E+03  0.00000000000E+00 0. -1.
<mgrwt>
<rscale>  0 0.92564734E+02</rscale>
<asrwt>0</asrwt>
<pdfrwt beam="1">  1        2 0.74849672E-01 0.92564734E+02</pdfrwt>
<pdfrwt beam="2">  1       -2 0.67735215E-03 0.92564734E+02</pdfrwt>
<totfact> 0.20519289E+05</totfact>
</mgrwt>
</event>
<event>
 5    1  0.3862918E+001  0.9068789E+02  0.7546771E-02  0.1301194E+00
          1   -1    0    0  501    0  0.00000000000E+00  0.00000000000E+00  0.91484353530E+03  0.91484353530E+03  0.00000000000E+00 0. -1.
         -1   -1    0    0    0  501 -0.00000000000E+00 -0.00000000000E+00 -0.22474587760E+01  0.22474587760E+01  0.00000000000E+00 0.  1.
         23    2    1    2    0    0  0.00000000000E+00  0.00000000000E+00  0.91259607652E+03  0.91709099408E+03  0.90687885234E+02 0.  0.
          2    1    3    3  502    0  0.41574044276E+02  0.81664575564E+01  0.61966624961E+03  0.62111299543E+03  0.00000000000E+00 0. -1.
         -2    1    3    3    0  502 -0.41574044276E+02 -0.81664575564E+01  0.29292982692E+03  0.29597799865E+03  0.00000000000E+00 0.  1.
<mgrwt>
<rscale>  0 0.90687885E+02</rscale>
<asrwt>0</asrwt>
<pdfrwt beam="1">  1        1 0.14074486E+00 0.90687885E+02</pdfrwt>
<pdfrwt beam="2">  1       -1 0.34576362E-03 0.90687885E+02</pdfrwt>
<totfact> 0.14075368E+05</totfact>
</mgrwt>
</event>
<event>
 5    1  0.3862918E+001  0.9161230E+02  0.7546771E-02  0.1298994E+00
          1   -1    0    0  501    0  0.00000000000E+00  0.00000000000E+00  0.97231439159E+02  0.97231439159E+02  0.00000000000E+00 0. -1.
         -1   -1    0    0    0  501 -0.00000000000E+00 -0.00000000000E+00 -0.21579474090E+02  0.21579474090E+02  0.00000000000E+00 0.  1.
         23    2    1    2    0    0  0.00000000000E+00  0.00000000000E+00  0.75651965069E+02  0.11881091325E+03  0.91612298782E+02 0.  0.
          2    1    3    3  502    0  0.44050455572E+02 -0.45803468312E+01  0.52993538753E+02  0.69063285201E+02  0.00000000000E+00 0. -1.
         -2    1    3    3    0  502 -0.44050455572E+02  0.45803468312E+01  0.22658426317E+02  0.49747628048E+02  0.00000000000E+00 0.  1.
<mgrwt>
<rscale>  0 0.91612299E+02</rscale>
<asrwt>0</asrwt>
<pdfrwt beam="1">  1        1 0.14958683E-01 0.91612299E+02</pdfrwt>
<pdfrwt beam="2">  1       -1 0.33199191E-02 0.91612299E+02</pdfrwt>
<totfact> 0.10262250E+05</totfact>
</mgrwt>
</event>
<event>
 5    1  0.3862918E+001  0.9471644E+02  0.7546771E-02  0.1291816E+00
          2   -1    0    0  501    0  0.00000000000E+00  0.00000000000E+00  0.86705116410E+02  0.86705116410E+02  0.00000000000E+00 0. -1.
         -2   -1    0    0    0  501 -0.00000000000E+00 -0.00000000000E+00 -0.25866995277E+02  0.25866995277E+02  0.00000000000E+00 0.  1.
         23    2    1    2    0    0  0.00000000000E+00  0.00000000000E+00  0.60838121133E+02  0.11257211169E+03  0.94716436518E+02 0.  0.
          2    1    3    3  502    0  0.22295321894E+02 -0.20351895519E+02  0.73788047562E+02  0.79724255986E+02  0.00000000000E+00 0. -1.
         -2    1    3    3    0  502 -0.22295321894E+02  0.20351895519E+02 -0.12949926429E+02  0.32847855700E+02  0.00000000000E+00 0.  1.
<mgrwt>
<rscale>  0 0.94716437E+02</rscale>
<asrwt>0</asrwt>
<pdfrwt beam="1">  1        2 0.13339249E-01 0.94716437E+02</pdfrwt>
<pdfrwt beam="2">  1       -2 0.39795378E-02 0.94716437E+02</pdfrwt>
<totfact> 0.10575070E+05</totfact>
</mgrwt>
</event>
<event>
 5    1  0.3862918E+001  0.9052611E+02  0.7546771E-02  0.1301583E+00
         -1   -1    0    0    0  501 -0.00000000000E+00  0.00000000000E+00  0.16605782267E+03  0.16605782267E+03  0.00000000000E+00 0.  1.
          1   -1    0    0  501    0  0.00000000000E+00 -0.00000000000E+00 -0.12337533913E+02  0.12337533913E+02  0.00000000000E+00 0. -1.
         23    2    1    2    0    0  0.00000000000E+00  0.00000000000E+00  0.15372028876E+03  0.17839535659E+03  0.90526107145E+02 0.  0.
          2    1    3    3  502    0  0.19890952485E+02 -0.40554331431E+02  0.71134994714E+02  0.84264412782E+02  0.00000000000E+00 0. -1.
         -2    1    3    3    0  502 -0.19890952485E+02  0.40554331431E+02  0.82585294048E+02  0.94130943805E+02  0.00000000000E+00 0.  1.
<mgrwt>
<rscale>  0 0.90526107E+02</rscale>
<asrwt>0</asrwt>
<pdfrwt beam="2">  1        1 0.18980823E-02 0.90526107E+02</pdfrwt>
<pdfrwt beam="1">  1       -1 0.25547356E-01 0.90526107E+02</pdfrwt>
<totfact> 0.74339520E+04</totfact>
</mgrwt>
</event>
<event>
 5    1  0.3862918E+001  0.9036150E+02  0.7546771E-02  0.1301979E+00
         -2   -1    0    0    0  501 -0.00000000000E+00  0.00000000000E+00  0.49428347331E+01  0.49428347331E+01  0.00000000000E+00 0.  1.
          2   -1    0    0  501    0  0.00000000000E+00 -0.00000000000E+00 -0.41298168206E+03  0.41298168206E+03  0.00000000000E+00 0. -1.
         23    2    1    2    0    0  0.00000000000E+00  0.00000000000E+00 -0.40803884733E+03  0.41792451679E+03  0.90361500701E+02 0.  0.
          2    1    3    3  502    0 -0.40882982019E+02  0.11436198012E+02 -0.27553489194E+03  0.27878608559E+03  0.00000000000E+00 0. -1.
         -2    1    3    3    0  502  0.40882982019E+02 -0.11436198012E+02 -0.13250395539E+03  0.13913843120E+03  0.00000000000E+00 0.  1.
<mgrwt>
<rscale>  0 0.90361501E+02</rscale>
<asrwt>0</asrwt>
<pdfrwt beam="2">  1        2 0.63535657E-01 0.90361501E+02</pdfrwt>
<pdfrwt beam="1">  1       -2 0.76043595E-03 0.90361501E+02</pdfrwt>
<totfact> 0.20677273E+05</totfact>
</mgrwt>
</event>
<event>
 5    1  0.3862918E+001  0.9119876E+02  0.7546771E-02  0.1299974E+00
         -2   -1    0    0    0  501 -0.00000000000E+00  0.00000000000E+00  0.12254115513E+01  0.12254115513E+01  0.00000000000E+00 0.  1.
          2   -1    0    0  501    0  0.00000000000E+00 -0.00000000000E+00 -0.16968203270E+04  0.16968203270E+04  0.00000000000E+00 0. -1.
         23    2    1    2    0    0  0.00000000000E+00  0.00000000000E+00 -0.16955949155E+04  0.16980457386E+04  0.91198755018E+02 0.  0.
          2    1    3    3  502    0  0.47246007314E+01 -0.41601849301E+02 -0.11841133501E+04  0.11848533502E+04  0.00000000000E+00 0. -1.
         -2    1    3    3    0  502 -0.47246007314E+01  0.41601849301E+02 -0.51148156539E+03  0.51319238835E+03  0.00000000000E+00 0.  1.
<mgrwt>
<rscale>  0 0.91198755E+02</rscale>
<asrwt>0</asrwt>
<pdfrwt beam="2">  1        2 0.26104954E+00 0.91198755E+02</pdfrwt>
<pdfrwt beam="1">  1       -2 0.18852467E-03 0.91198755E+02</pdfrwt>
<totfact> 0.22238970E+05</totfact>
</mgrwt>
</event>
<event>
 5    1  0.3862918E+001  0.9407190E+02  0.7546771E-02  0.1293280E+00
         -4   -1    0    0    0  501 -0.00000000000E+00  0.00000000000E+00  0.11882019513E+03  0.11882019513E+03  0.00000000000E+00 0.  1.
          4   -1    0    0  501    0  0.00000000000E+00 -0.00000000000E+00 -0.18619566802E+02  0.18619566802E+02  0.00000000000E+00 0. -1.
         23    2    1    2    0    0  0.00000000000E+00  0.00000000000E+00  0.10020062832E+03  0.13743976193E+03  0.94071899322E+02 0.  0.
          2    1    3    3  502    0 -0.93355764122E+01 -0.39999515214E+02  0.16615933230E+02  0.44308051655E+02  0.00000000000E+00 0. -1.
         -2    1    3    3    0  502  0.93355764122E+01  0.39999515214E+02  0.83584695094E+02  0.93131710273E+02  0.00000000000E+00 0.  1.
<mgrwt>
<rscale>  0 0.94071899E+02</rscale>
<asrwt>0</asrwt>
<pdfrwt beam="2">  1        4 0.28645488E-02 0.94071899E+02</pdfrwt>
<pdfrwt beam="1">  1       -4 0.18280030E-01 0.94071899E+02</pdfrwt>
<totfact> 0.22347532E+04</totfact>
</mgrwt>
</event>
<event>
 5    1  0.3862918E+001  0.9196631E+02  0.7546771E-02  0.1298159E+00
          2   -1    0    0  501    0  0.00000000000E+00  0.00000000000E+00  0.53748545888E+03  0.53748545888E+03  0.00000000000E+00 0. -1.
         -2   -1    0    0    0  501 -0.00000000000E+00 -0.00000000000E+00 -0.39339678026E+01  0.39339678026E+01  0.00000000000E+00 0.  1.
         23    2    1    2    0    0  0.00000000000E+00  0.00000000000E+00  0.53355149107E+03  0.54141942668E+03  0.91966308822E+02 0.  0.
          2    1    3    3  502    0 -0.29573223090E+02 -0.12760750401E+02  0.45998175707E+03  0.46110804495E+03  0.00000000000E+00 0. -1.
         -2    1    3    3    0  502  0.29573223090E+02  0.12760750401E+02  0.73569734000E+02  0.80311381731E+02  0.00000000000E+00 0.  1.
<mgrwt>
<rscale>  0 0.91966309E+02</rscale>
<asrwt>0</asrwt>
<pdfrwt beam="1">  1        2 0.82690012E-01 0.91966309E+02</pdfrwt>
<pdfrwt beam="2">  1       -2 0.60522624E-03 0.91966309E+02</pdfrwt>
<totfact> 0.21553010E+05</totfact>
</mgrwt>
</event>
<event>
 5    1  0.3862918E+001  0.9067716E+02  0.7546771E-02  0.1301220E+00
         -1   -1    0    0    0  501 -0.00000000000E+00  0.00000000000E+00  0.63183801601E+02  0.63183801601E+02  0.00000000000E+00 0.  1.
          1   -1    0    0  501    0  0.00000000000E+00 -0.00000000000E+00 -0.32533444742E+02  0.32533444742E+02  0.00000000000E+00 0. -1.
         23    2    1    2    0    0  0.00000000000E+00  0.00000000000E+00  0.30650356859E+02  0.95717246343E+02  0.90677157387E+02 0.  0.
          2    1    3    3  502    0  0.24807040800E+02  0.12225951406E+02 -0.22598365681E+02  0.35714832948E+02  0.00000000000E+00 0. -1.
         -2    1    3    3    0  502 -0.24807040800E+02 -0.12225951406E+02  0.53248722540E+02  0.60002413395E+02  0.00000000000E+00 0.  1.
<mgrwt>
<rscale>  0 0.90677157E+02</rscale>
<asrwt>0</asrwt>
<pdfrwt beam="2">  1        1 0.50051453E-02 0.90677157E+02</pdfrwt>
<pdfrwt beam="1">  1       -1 0.97205849E-02 0.90677157E+02</pdfrwt>
<totfact> 0.89201349E+04</totfact>
</mgrwt>
</event>
<event>
 5    1  0.3862918E+001  0.7102040E+02  0.7546771E-02  0.1356657E+00
          2   -1    0    0  501    0  0.00000000000E+00  0.00000000000E+00  0.10458577444E+03  0.10458577444E+03  0.00000000000E+00 0.  1.
         -2   -1    0    0    0  501 -0.00000000000E+00 -0.00000000000E+00 -0.12056842134E+02  0.12056842134E+02  0.00000000000E+00 0. -1.
         23    2    1    2    0    0  0.00000000000E+00  0.00000000000E+00  0.92528932302E+02  0.11664261657E+03  0.71020396278E+02 0.  0.
          2    1    3    3  502    0  0.22692505564E+02 -0.16829830824E+02  0.10932972634E+02  0.30293941720E+02  0.00000000000E+00 0. -1.
         -2    1    3    3    0  502 -0.22692505564E+02  0.16829830824E+02  0.81595959668E+02  0.86348674850E+02  0.00000000000E+00 0.  1.
<mgrwt>
<rscale>  0 0.71020396E+02</rscale>
<asrwt>0</asrwt>
<pdfrwt beam="1">  1        2 0.16090119E-01 0.71020396E+02</pdfrwt>
<pdfrwt beam="2">  1       -2 0.18548989E-02 0.71020396E+02</pdfrwt>
<totfact> 0.24407440E+05</totfact>
</mgrwt>
</event>
<event>
 5    1  0.3862918E+001  0.9437255E+02  0.7546771E-02  0.1292596E+00
          2   -1    0    0  501    0  0.00000000000E+00  0.00000000000E+00  0.21583344850E+01  0.21583344850E+01  0.00000000000E+00 0.  1.
         -2   -1    0    0    0  501 -0.00000000000E+00 -0.00000000000E+00 -0.10316030798E+04  0.10316030798E+04  0.00000000000E+00 0. -1.
         23    2    1    2    0    0  0.00000000000E+00  0.00000000000E+00 -0.10294447453E+04  0.10337614143E+04  0.94372549017E+02 0.  0.
          2    1    3    3  502    0  0.58124767824E+00 -0.44527206643E+02 -0.34377796470E+03  0.34665011034E+03  0.00000000000E+00 0.  1.
         -2    1    3    3    0  502 -0.58124767824E+00  0.44527206643E+02 -0.68566678063E+03  0.68711130396E+03  0.00000000000E+00 0. -1.
<mgrwt>
<rscale>  0 0.94372549E+02</rscale>
<asrwt>0</asrwt>
<pdfrwt beam="1">  1        2 0.33205151E-03 0.94372549E+02</pdfrwt>
<pdfrwt beam="2">  1       -2 0.15870814E+00 0.94372549E+02</pdfrwt>
<totfact> 0.16461709E+04</totfact>
</mgrwt>
</event>
<event>
 5    1  0.3862918E+001  0.9250743E+02  0.7546771E-02  0.1296891E+00
         -1   -1    0    0    0  501 -0.00000000000E+00  0.00000000000E+00  0.61050263495E+02  0.61050263495E+02  0.00000000000E+00 0.  1.
          1   -1    0    0  501    0  0.00000000000E+00 -0.00000000000E+00 -0.35043360163E+02  0.35043360163E+02  0.00000000000E+00 0. -1.
         23    2    1    2    0    0  0.00000000000E+00  0.00000000000E+00  0.26006903331E+02  0.96093623658E+02  0.92507434765E+02 0.  0.
          2    1    3    3  502    0 -0.17125375595E+02  0.13053436929E+02 -0.29519234322E+02  0.36538416768E+02  0.00000000000E+00 0. -1.
         -2    1    3    3    0  502  0.17125375595E+02 -0.13053436929E+02  0.55526137654E+02  0.59555206890E+02  0.00000000000E+00 0.  1.
<mgrwt>
<rscale>  0 0.92507435E+02</rscale>
<asrwt>0</asrwt>
<pdfrwt beam="2">  1        1 0.53912862E-02 0.92507435E+02</pdfrwt>
<pdfrwt beam="1">  1       -1 0.93923482E-02 0.92507435E+02</pdfrwt>
<totfact> 0.85245567E+04</totfact>
</mgrwt>
</event>
<event>
 5    1  0.3862918E+001  0.9047736E+02  0.7546771E-02  0.1301700E+00
          2   -1    0    0  501    0  0.00000000000E+00  0.00000000000E+00  0.57817176477E+03  0.57817176477E+03  0.00000000000E+00 0. -1.
         -2   -1    0    0    0  501 -0.00000000000E+00 -0.00000000000E+00 -0.35396716600E+01  0.35396716600E+01  0.00000000000E+00 0.  1.
         23    2    1    2    0    0  0.00000000000E+00  0.00000000000E+00  0.57463209311E+03  0.58171143643E+03  0.90477360934E+02 0.  0.
          2    1    3    3  502    0  0.18974030566E+02  0.28850898773E+02  0.47521949650E+03  0.47647241058E+03  0.00000000000E+00 0. -1.
         -2    1    3    3    0  502 -0.18974030566E+02 -0.28850898773E+02  0.99412596618E+02  0.10523902585E+03  0.00000000000E+00 0.  1.
<mgrwt>
<rscale>  0 0.90477361E+02</rscale>
<asrwt>0</asrwt>
<pdfrwt beam="1">  1        2 0.88949427E-01 0.90477361E+02</pdfrwt>
<pdfrwt beam="2">  1       -2 0.54456533E-03 0.90477361E+02</pdfrwt>
<totfact> 0.23005781E+05</totfact>
</mgrwt>
</event>
<event>
 5    1  0.3862918E+001  0.9085722E+02  0.7546771E-02  0.1300789E+00
         -1   -1    0    0    0  501 -0.00000000000E+00  0.00000000000E+00  0.15751151165E+03  0.15751151165E+03  0.00000000000E+00 0.  1.
          1   -1    0    0  501    0  0.00000000000E+00 -0.00000000000E+00 -0.13102270733E+02  0.13102270733E+02  0.00000000000E+00 0. -1.
         23    2    1    2    0    0  0.00000000000E+00  0.00000000000E+00  0.14440924092E+03  0.17061378238E+03  0.90857216977E+02 0.  0.
          2    1    3    3  502    0  0.14994263258E+02  0.30091383576E+02  0.14832923934E+02  0.36746903660E+02  0.00000000000E+00 0. -1.
         -2    1    3    3    0  502 -0.14994263258E+02 -0.30091383576E+02  0.12957631698E+03  0.13386687872E+03  0.00000000000E+00 0.  1.
<mgrwt>
<rscale>  0 0.90857217E+02</rscale>
<asrwt>0</asrwt>
<pdfrwt beam="2">  1        1 0.20157341E-02 0.90857217E+02</pdfrwt>
<pdfrwt beam="1">  1       -1 0.24232539E-01 0.90857217E+02</pdfrwt>
<totfact> 0.74601530E+04</totfact>
</mgrwt>
</event>
<event>
 5    1  0.3862918E+001  0.9036355E+02  0.7546771E-02  0.1301974E+00
          1   -1    0    0  501    0  0.00000000000E+00  0.00000000000E+00  0.39275820911E+04  0.39275820911E+04  0.00000000000E+00 0. -1.
         -1   -1    0    0    0  501 -0.00000000000E+00 -0.00000000000E+00 -0.51975809623E+00  0.51975809623E+00  0.00000000000E+00 0.  1.
         23    2    1    2    0    0  0.00000000000E+00  0.00000000000E+00  0.39270623330E+04  0.39281018492E+04  0.90363545536E+02 0.  0.
          2    1    3    3  502    0 -0.62493606716E+01  0.44386674264E+02  0.17170091007E+04  0.17175940973E+04  0.00000000000E+00 0. -1.
         -2    1    3    3    0  502  0.62493606716E+01 -0.44386674264E+02  0.22100532324E+04  0.22105077519E+04  0.00000000000E+00 0.  1.
<mgrwt>
<rscale>  0 0.90363546E+02</rscale>
<asrwt>0</asrwt>
<pdfrwt beam="1">  1        1 0.60421963E+00 0.90363546E+02</pdfrwt>
<pdfrwt beam="2">  1       -1 0.79965929E-04 0.90363546E+02</pdfrwt>
<totfact> 0.97347988E+03</totfact>
</mgrwt>
</event>
<event>
 5    1  0.3862918E+001  0.9225974E+02  0.7546771E-02  0.1297470E+00
         -2   -1    0    0    0  501 -0.00000000000E+00  0.00000000000E+00  0.10633151802E+02  0.10633151802E+02  0.00000000000E+00 0.  1.
          2   -1    0    0  501    0  0.00000000000E+00 -0.00000000000E+00 -0.20012551731E+03  0.20012551731E+03  0.00000000000E+00 0. -1.
         23    2    1    2    0    0  0.00000000000E+00  0.00000000000E+00 -0.18949236551E+03  0.21075866911E+03  0.92259742140E+02 0.  0.
          2    1    3    3  502    0 -0.16098307908E+02  0.30586115109E+02 -0.16453464402E+03  0.16812589044E+03  0.00000000000E+00 0. -1.
         -2    1    3    3    0  502  0.16098307908E+02 -0.30586115109E+02 -0.24957721487E+02  0.42632778666E+02  0.00000000000E+00 0.  1.
<mgrwt>
<rscale>  0 0.92259742E+02</rscale>
<asrwt>0</asrwt>
<pdfrwt beam="2">  1        2 0.30788536E-01 0.92259742E+02</pdfrwt>
<pdfrwt beam="1">  1       -2 0.16358698E-02 0.92259742E+02</pdfrwt>
<totfact> 0.14986693E+05</totfact>
</mgrwt>
</event>
<event>
 5    1  0.3862918E+001  0.9962692E+02  0.7546771E-02  0.1281082E+00
         -2   -1    0    0    0  501 -0.00000000000E+00  0.00000000000E+00  0.38819184679E+01  0.38819184679E+01  0.00000000000E+00 0.  1.
          2   -1    0    0  501    0  0.00000000000E+00 -0.00000000000E+00 -0.63921508954E+03  0.63921508954E+03  0.00000000000E+00 0. -1.
         23    2    1    2    0    0  0.00000000000E+00  0.00000000000E+00 -0.63533317107E+03  0.64309700800E+03  0.99626921282E+02 0.  0.
          2    1    3    3  502    0  0.42454179591E+02  0.57960612392E+01 -0.48165911858E+03  0.48356122487E+03  0.00000000000E+00 0. -1.
         -2    1    3    3    0  502 -0.42454179591E+02 -0.57960612392E+01 -0.15367405249E+03  0.15953578313E+03  0.00000000000E+00 0.  1.
<mgrwt>
<rscale>  0 0.99626921E+02</rscale>
<asrwt>0</asrwt>
<pdfrwt beam="2">  1        2 0.98340826E-01 0.99626921E+02</pdfrwt>
<pdfrwt beam="1">  1       -2 0.59721796E-03 0.99626921E+02</pdfrwt>
<totfact> 0.18327265E+05</totfact>
</mgrwt>
</event>
<event>
 5    1  0.3862918E+001  0.9284255E+02  0.7546771E-02  0.1296110E+00
          1   -1    0    0  501    0  0.00000000000E+00  0.00000000000E+00  0.37657383759E+03  0.37657383759E+03  0.00000000000E+00 0. -1.
         -1   -1    0    0    0  501 -0.00000000000E+00 -0.00000000000E+00 -0.57224765582E+01  0.57224765582E+01  0.00000000000E+00 0.  1.
         23    2    1    2    0    0  0.00000000000E+00  0.00000000000E+00  0.37085136103E+03  0.38229631414E+03  0.92842553994E+02 0.  0.
          2    1    3    3  502    0  0.31732114684E+02 -0.28655915648E+02  0.25986884984E+03  0.26336269235E+03  0.00000000000E+00 0. -1.
         -2    1    3    3    0  502 -0.31732114684E+02  0.28655915648E+02  0.11098251119E+03  0.11893362179E+03  0.00000000000E+00 0.  1.
<mgrwt>
<rscale>  0 0.92842554E+02</rscale>
<asrwt>0</asrwt>
<pdfrwt beam="1">  1        1 0.57934417E-01 0.92842554E+02</pdfrwt>
<pdfrwt beam="2">  1       -1 0.88038131E-03 0.92842554E+02</pdfrwt>
<totfact> 0.12725075E+05</totfact>
</mgrwt>
</event>
<event>
 5    1  0.3862918E+001  0.8960746E+02  0.7546771E-02  0.1303805E+00
          1   -1    0    0  501    0  0.00000000000E+00  0.00000000000E+00  0.12973840079E+03  0.12973840079E+03  0.00000000000E+00 0. -1.
         -1   -1    0    0    0  501 -0.00000000000E+00 -0.00000000000E+00 -0.15472474690E+02  0.15472474690E+02  0.00000000000E+00 0.  1.
         23    2    1    2    0    0  0.00000000000E+00  0.00000000000E+00  0.11426592610E+03  0.14521087548E+03  0.89607457783E+02 0.  0.
          2    1    3    3  502    0  0.14865649589E+02  0.14960995798E+02  0.12119085909E+03  0.12301237036E+03  0.00000000000E+00 0. -1.
         -2    1    3    3    0  502 -0.14865649589E+02 -0.14960995798E+02 -0.69249329895E+01  0.22198505127E+02  0.00000000000E+00 0.  1.
<mgrwt>
<rscale>  0 0.89607458E+02</rscale>
<asrwt>0</asrwt>
<pdfrwt beam="1">  1        1 0.19959753E-01 0.89607458E+02</pdfrwt>
<pdfrwt beam="2">  1       -1 0.23803808E-02 0.89607458E+02</pdfrwt>
<totfact> 0.11447447E+05</totfact>
</mgrwt>
</event>
<event>
 5    1  0.3862918E+001  0.9201631E+02  0.7546771E-02  0.1298041E+00
         -3   -1    0    0    0  501 -0.00000000000E+00  0.00000000000E+00  0.29359241364E+01  0.29359241364E+01  0.00000000000E+00 0.  1.
          3   -1    0    0  501    0  0.00000000000E+00 -0.00000000000E+00 -0.72098267668E+03  0.72098267668E+03  0.00000000000E+00 0. -1.
         23    2    1    2    0    0  0.00000000000E+00  0.00000000000E+00 -0.71804675254E+03  0.72391860081E+03  0.92016312518E+02 0.  0.
          2    1    3    3  502    0  0.39238729512E+02 -0.64963404987E+01 -0.17707462700E+03  0.18148637376E+03  0.00000000000E+00 0.  1.
         -2    1    3    3    0  502 -0.39238729512E+02  0.64963404987E+01 -0.54097212554E+03  0.54243222705E+03  0.00000000000E+00 0. -1.
<mgrwt>
<rscale>  0 0.92016313E+02</rscale>
<asrwt>0</asrwt>
<pdfrwt beam="2">  1        3 0.11092056E+00 0.92016313E+02</pdfrwt>
<pdfrwt beam="1">  1       -3 0.45168004E-03 0.92016313E+02</pdfrwt>
<totfact> 0.13207263E+04</totfact>
</mgrwt>
</event>
<event>
 5    1  0.3862918E+001  0.9075720E+02  0.7546771E-02  0.1301028E+00
          2   -1    0    0  501    0  0.00000000000E+00  0.00000000000E+00  0.30977952051E+03  0.30977952051E+03  0.00000000000E+00 0. -1.
         -2   -1    0    0    0  501 -0.00000000000E+00 -0.00000000000E+00 -0.66473648644E+01  0.66473648644E+01  0.00000000000E+00 0.  1.
         23    2    1    2    0    0  0.00000000000E+00  0.00000000000E+00  0.30313215564E+03  0.31642688537E+03  0.90757203578E+02 0.  0.
          2    1    3    3  502    0  0.38808808564E+02  0.22562809547E+02  0.17469658954E+03  0.18037212200E+03  0.00000000000E+00 0. -1.
         -2    1    3    3    0  502 -0.38808808564E+02 -0.22562809547E+02  0.12843556610E+03  0.13605476337E+03  0.00000000000E+00 0.  1.
<mgrwt>
<rscale>  0 0.90757204E+02</rscale>
<asrwt>0</asrwt>
<pdfrwt beam="1">  1        2 0.47658376E-01 0.90757204E+02</pdfrwt>
<pdfrwt beam="2">  1       -2 0.10226718E-02 0.90757204E+02</pdfrwt>
<totfact> 0.18406618E+05</totfact>
</mgrwt>
</event>
<event>
 5    1  0.3862918E+001  0.9139136E+02  0.7546771E-02  0.1299517E+00
         -1   -1    0    0    0  501 -0.00000000000E+00  0.00000000000E+00  0.25752734319E+02  0.25752734319E+02  0.00000000000E+00 0.  1.
          1   -1    0    0  501    0  0.00000000000E+00 -0.00000000000E+00 -0.81082460558E+02  0.81082460558E+02  0.00000000000E+00 0. -1.
         23    2    1    2    0    0  0.00000000000E+00  0.00000000000E+00 -0.55329726239E+02  0.10683519488E+03  0.91391357681E+02 0.  0.
          2    1    3    3  502    0  0.44027394708E+02 -0.11636441076E+02 -0.23247888092E+02  0.51130055216E+02  0.00000000000E+00 0. -1.
         -2    1    3    3    0  502 -0.44027394708E+02  0.11636441076E+02 -0.32081838148E+02  0.55705139661E+02  0.00000000000E+00 0.  1.
<mgrwt>
<rscale>  0 0.91391358E+02</rscale>
<asrwt>0</asrwt>
<pdfrwt beam="2">  1        1 0.12474225E-01 0.91391358E+02</pdfrwt>
<pdfrwt beam="1">  1       -1 0.39619592E-02 0.91391358E+02</pdfrwt>
<totfact> 0.10030883E+05</totfact>
</mgrwt>
</event>
<event>
 5    1  0.3862918E+001  0.9248308E+02  0.7546771E-02  0.1296948E+00
          3   -1    0    0  501    0  0.00000000000E+00  0.00000000000E+00  0.11538620809E+02  0.11538620809E+02  0.00000000000E+00 0. -1.
         -3   -1    0    0    0  501 -0.00000000000E+00 -0.00000000000E+00 -0.18531505217E+03  0.18531505217E+03  0.00000000000E+00 0.  1.
         23    2    1    2    0    0  0.00000000000E+00  0.00000000000E+00 -0.17377643136E+03  0.19685367298E+03  0.92483082068E+02 0.  0.
          2    1    3    3  502    0 -0.15353400253E+02 -0.20185549370E+02 -0.16919125741E+03  0.17108145688E+03  0.00000000000E+00 0.  1.
         -2    1    3    3    0  502  0.15353400253E+02  0.20185549370E+02 -0.45851739503E+01  0.25772216102E+02  0.00000000000E+00 0. -1.
<mgrwt>
<rscale>  0 0.92483082E+02</rscale>
<asrwt>0</asrwt>
<pdfrwt beam="1">  1        3 0.17751727E-02 0.92483082E+02</pdfrwt>
<pdfrwt beam="2">  1       -3 0.28510004E-01 0.92483082E+02</pdfrwt>
<totfact> 0.27579226E+04</totfact>
</mgrwt>
</event>
<event>
 5    1  0.3862918E+001  0.8830981E+02  0.7546771E-02  0.1306997E+00
          2   -1    0    0  501    0  0.00000000000E+00  0.00000000000E+00  0.14931572247E+04  0.14931572247E+04  0.00000000000E+00 0. -1.
         -2   -1    0    0    0  501 -0.00000000000E+00 -0.00000000000E+00 -0.13057270093E+01  0.13057270093E+01  0.00000000000E+00 0.  1.
         23    2    1    2    0    0  0.00000000000E+00  0.00000000000E+00  0.14918514977E+04  0.14944629518E+04  0.88309811856E+02 0.  0.
          2    1    3    3  502    0 -0.23332175457E+02 -0.10855711874E+01  0.13800482710E+04  0.13802459198E+04  0.00000000000E+00 0. -1.
         -2    1    3    3    0  502  0.23332175457E+02  0.10855711874E+01  0.11180322671E+03  0.11421703191E+03  0.00000000000E+00 0.  1.
<mgrwt>
<rscale>  0 0.88309812E+02</rscale>
<asrwt>0</asrwt>
<pdfrwt beam="1">  1        2 0.22971513E+00 0.88309812E+02</pdfrwt>
<pdfrwt beam="2">  1       -2 0.20088227E-03 0.88309812E+02</pdfrwt>
<totfact> 0.25710326E+05</totfact>
</mgrwt>
</event>
<event>
 5    1  0.3862918E+001  0.8754054E+02  0.7546771E-02  0.1308919E+00
          2   -1    0    0  501    0  0.00000000000E+00  0.00000000000E+00  0.39538532943E+02  0.39538532943E+02  0.00000000000E+00 0. -1.
         -2   -1    0    0    0  501 -0.00000000000E+00 -0.00000000000E+00 -0.48454918349E+02  0.48454918349E+02  0.00000000000E+00 0.  1.
         23    2    1    2    0    0  0.00000000000E+00  0.00000000000E+00 -0.89163854060E+01  0.87993451291E+02  0.87540536561E+02 0.  0.
          2    1    3    3  502    0  0.30816883716E+02  0.11980170528E+02  0.24371753762E+02  0.41075384226E+02  0.00000000000E+00 0. -1.
         -2    1    3    3    0  502 -0.30816883716E+02 -0.11980170528E+02 -0.33288139168E+02  0.46918067065E+02  0.00000000000E+00 0.  1.
<mgrwt>
<rscale>  0 0.87540537E+02</rscale>
<asrwt>0</asrwt>
<pdfrwt beam="1">  1        2 0.60828512E-02 0.87540537E+02</pdfrwt>
<pdfrwt beam="2">  1       -2 0.74546028E-02 0.87540537E+02</pdfrwt>
<totfact> 0.10694708E+05</totfact>
</mgrwt>
</event>
<event>
 5    1  0.3862918E+001  0.9144726E+02  0.7546771E-02  0.1299384E+00
          1   -1    0    0  501    0  0.00000000000E+00  0.00000000000E+00  0.12958430718E+02  0.12958430718E+02  0.00000000000E+00 0. -1.
         -1   -1    0    0    0  501 -0.00000000000E+00 -0.00000000000E+00 -0.16133514427E+03  0.16133514427E+03  0.00000000000E+00 0.  1.
         23    2    1    2    0    0  0.00000000000E+00  0.00000000000E+00 -0.14837671356E+03  0.17429357499E+03  0.91447258885E+02 0.  0.
          2    1    3    3  502    0 -0.37473271629E+02  0.23928856440E+02 -0.53855022945E+02  0.69836951204E+02  0.00000000000E+00 0. -1.
         -2    1    3    3    0  502  0.37473271629E+02 -0.23928856440E+02 -0.94521690612E+02  0.10445662379E+03  0.00000000000E+00 0.  1.
<mgrwt>
<rscale>  0 0.91447259E+02</rscale>
<asrwt>0</asrwt>
<pdfrwt beam="1">  1        1 0.19936048E-02 0.91447259E+02</pdfrwt>
<pdfrwt beam="2">  1       -1 0.24820791E-01 0.91447259E+02</pdfrwt>
<totfact> 0.72929590E+04</totfact>
</mgrwt>
</event>
<event>
 5    1  0.3862918E+001  0.9134225E+02  0.7546771E-02  0.1299633E+00
          1   -1    0    0  501    0  0.00000000000E+00  0.00000000000E+00  0.19780139265E+03  0.19780139265E+03  0.00000000000E+00 0. -1.
         -1   -1    0    0    0  501 -0.00000000000E+00 -0.00000000000E+00 -0.10545182736E+02  0.10545182736E+02  0.00000000000E+00 0.  1.
         23    2    1    2    0    0  0.00000000000E+00  0.00000000000E+00  0.18725620992E+03  0.20834657539E+03  0.91342253770E+02 0.  0.
          2    1    3    3  502    0  0.52963151173E+01  0.36502045594E+02  0.15506141009E+03  0.15938786399E+03  0.00000000000E+00 0. -1.
         -2    1    3    3    0  502 -0.52963151173E+01 -0.36502045594E+02  0.32194799822E+02  0.48958711400E+02  0.00000000000E+00 0.  1.
<mgrwt>
<rscale>  0 0.91342254E+02</rscale>
<asrwt>0</asrwt>
<pdfrwt beam="1">  1        1 0.30430981E-01 0.91342254E+02</pdfrwt>
<pdfrwt beam="2">  1       -1 0.16223360E-02 0.91342254E+02</pdfrwt>
<totfact> 0.11757902E+05</totfact>
</mgrwt>
</event>
<event>
 5    1  0.3862918E+001  0.8882005E+02  0.7546771E-02  0.1305735E+00
         -1   -1    0    0    0  501 -0.00000000000E+00  0.00000000000E+00  0.20876669242E+01  0.20876669242E+01  0.00000000000E+00 0.  1.
          1   -1    0    0  501    0  0.00000000000E+00 -0.00000000000E+00 -0.94471507618E+03  0.94471507618E+03  0.00000000000E+00 0. -1.
         23    2    1    2    0    0  0.00000000000E+00  0.00000000000E+00 -0.94262740926E+03  0.94680274311E+03  0.88820052181E+02 0.  0.
          2    1    3    3  502    0 -0.17287926805E+02  0.25187131432E+02 -0.81491391253E+03  0.81548632658E+03  0.00000000000E+00 0. -1.
         -2    1    3    3    0  502  0.17287926805E+02 -0.25187131432E+02 -0.12771349673E+03  0.13131641653E+03  0.00000000000E+00 0.  1.
<mgrwt>
<rscale>  0 0.88820052E+02</rscale>
<asrwt>0</asrwt>
<pdfrwt beam="2">  1        1 0.14534075E+00 0.88820052E+02</pdfrwt>
<pdfrwt beam="1">  1       -1 0.32117961E-03 0.88820052E+02</pdfrwt>
<totfact> 0.14774992E+05</totfact>
</mgrwt>
</event>
<event>
 5    1  0.3862918E+001  0.9310848E+02  0.7546771E-02  0.1295494E+00
         -1   -1    0    0    0  501 -0.00000000000E+00  0.00000000000E+00  0.81643975182E+00  0.81643975182E+00  0.00000000000E+00 0.  1.
          1   -1    0    0  501    0  0.00000000000E+00 -0.00000000000E+00 -0.26545707558E+04  0.26545707558E+04  0.00000000000E+00 0. -1.
         23    2    1    2    0    0  0.00000000000E+00  0.00000000000E+00 -0.26537543160E+04  0.26553871955E+04  0.93108476285E+02 0.  0.
          2    1    3    3  502    0  0.14812715411E+02 -0.37538615348E+02 -0.19888274682E+04  0.19892368543E+04  0.00000000000E+00 0. -1.
         -2    1    3    3    0  502 -0.14812715411E+02  0.37538615348E+02 -0.66492684784E+03  0.66615034126E+03  0.00000000000E+00 0.  1.
<mgrwt>
<rscale>  0 0.93108476E+02</rscale>
<asrwt>0</asrwt>
<pdfrwt beam="2">  1        1 0.40839041E+00 0.93108476E+02</pdfrwt>
<pdfrwt beam="1">  1       -1 0.12560768E-03 0.93108476E+02</pdfrwt>
<totfact> 0.42652223E+04</totfact>
</mgrwt>
</event>
<event>
 5    1  0.3862918E+001  0.9022980E+02  0.7546771E-02  0.1302296E+00
         -1   -1    0    0    0  501 -0.00000000000E+00  0.00000000000E+00  0.34503022107E+02  0.34503022107E+02  0.00000000000E+00 0.  1.
          1   -1    0    0  501    0  0.00000000000E+00 -0.00000000000E+00 -0.58990610897E+02  0.58990610897E+02  0.00000000000E+00 0. -1.
         23    2    1    2    0    0  0.00000000000E+00  0.00000000000E+00 -0.24487588790E+02  0.93493633004E+02  0.90229803322E+02 0.  0.
          2    1    3    3  502    0  0.68442244034E+01  0.44336389658E+02 -0.17190961176E+02  0.48042564479E+02  0.00000000000E+00 0. -1.
         -2    1    3    3    0  502 -0.68442244034E+01 -0.44336389658E+02 -0.72966276140E+01  0.45451068525E+02  0.00000000000E+00 0.  1.
<mgrwt>
<rscale>  0 0.90229803E+02</rscale>
<asrwt>0</asrwt>
<pdfrwt beam="2">  1        1 0.90754784E-02 0.90229803E+02</pdfrwt>
<pdfrwt beam="1">  1       -1 0.53081573E-02 0.90229803E+02</pdfrwt>
<totfact> 0.98946559E+04</totfact>
</mgrwt>
</event>
<event>
 5    1  0.3862918E+001  0.9106957E+02  0.7546771E-02  0.1300282E+00
          1   -1    0    0  501    0  0.00000000000E+00  0.00000000000E+00  0.15661781111E+03  0.15661781111E+03  0.00000000000E+00 0. -1.
         -1   -1    0    0    0  501 -0.00000000000E+00 -0.00000000000E+00 -0.13238701988E+02  0.13238701988E+02  0.00000000000E+00 0.  1.
         23    2    1    2    0    0  0.00000000000E+00  0.00000000000E+00  0.14337910912E+03  0.16985651310E+03  0.91069567416E+02 0.  0.
          2    1    3    3  502    0 -0.43065738529E+02 -0.13008706663E+02  0.58562934072E+02  0.73847826855E+02  0.00000000000E+00 0. -1.
         -2    1    3    3    0  502  0.43065738529E+02  0.13008706663E+02  0.84816175051E+02  0.96008686244E+02  0.00000000000E+00 0.  1.
<mgrwt>
<rscale>  0 0.91069567E+02</rscale>
<asrwt>0</asrwt>
<pdfrwt beam="1">  1        1 0.24095047E-01 0.91069567E+02</pdfrwt>
<pdfrwt beam="2">  1       -1 0.20367235E-02 0.91069567E+02</pdfrwt>
<totfact> 0.11338986E+05</totfact>
</mgrwt>
</event>
<event>
 5    1  0.3862918E+001  0.9296667E+02  0.7546771E-02  0.1295822E+00
         -2   -1    0    0    0  501 -0.00000000000E+00  0.00000000000E+00  0.15135184092E+02  0.15135184092E+02  0.00000000000E+00 0.  1.
          2   -1    0    0  501    0  0.00000000000E+00 -0.00000000000E+00 -0.14276011361E+03  0.14276011361E+03  0.00000000000E+00 0. -1.
         23    2    1    2    0    0  0.00000000000E+00  0.00000000000E+00 -0.12762492952E+03  0.15789529770E+03  0.92966673607E+02 0.  0.
          2    1    3    3  502    0 -0.57473284207E+01 -0.31244209560E+02 -0.12144502010E+03  0.12553137187E+03  0.00000000000E+00 0. -1.
         -2    1    3    3    0  502  0.57473284207E+01  0.31244209560E+02 -0.61799094151E+01  0.32363925834E+02  0.00000000000E+00 0.  1.
<mgrwt>
<rscale>  0 0.92966674E+02</rscale>
<asrwt>0</asrwt>
<pdfrwt beam="2">  1        2 0.21963094E-01 0.92966674E+02</pdfrwt>
<pdfrwt beam="1">  1       -2 0.23284899E-02 0.92966674E+02</pdfrwt>
<totfact> 0.13039894E+05</totfact>
</mgrwt>
</event>
<event>
 5    1  0.3862918E+001  0.8608474E+02  0.7546771E-02  0.1312620E+00
          1   -1    0    0  501    0  0.00000000000E+00  0.00000000000E+00  0.15433595631E+04  0.15433595631E+04  0.00000000000E+00 0. -1.
         -1   -1    0    0    0  501 -0.00000000000E+00 -0.00000000000E+00 -0.12003979026E+01  0.12003979026E+01  0.00000000000E+00 0.  1.
         23    2    1    2    0    0  0.00000000000E+00  0.00000000000E+00  0.15421591652E+04  0.15445599610E+04  0.86084739237E+02 0.  0.
          2    1    3    3  502    0  0.35496520250E+02 -0.96444876158E+01  0.11721321797E+04  0.11727091991E+04  0.00000000000E+00 0. -1.
         -2    1    3    3    0  502 -0.35496520250E+02  0.96444876158E+01  0.37002698547E+03  0.37185076182E+03  0.00000000000E+00 0.  1.
<mgrwt>
<rscale>  0 0.86084739E+02</rscale>
<asrwt>0</asrwt>
<pdfrwt beam="1">  1        1 0.23743835E+00 0.86084739E+02</pdfrwt>
<pdfrwt beam="2">  1       -1 0.18467783E-03 0.86084739E+02</pdfrwt>
<totfact> 0.12557235E+05</totfact>
</mgrwt>
</event>
<event>
 5    1  0.3862918E+001  0.9052016E+02  0.7546771E-02  0.1301597E+00
         -1   -1    0    0    0  501 -0.00000000000E+00  0.00000000000E+00  0.63765767662E+01  0.63765767662E+01  0.00000000000E+00 0.  1.
          1   -1    0    0  501    0  0.00000000000E+00 -0.00000000000E+00 -0.32124993628E+03  0.32124993628E+03  0.00000000000E+00 0. -1.
         23    2    1    2    0    0  0.00000000000E+00  0.00000000000E+00 -0.31487335952E+03  0.32762651305E+03  0.90520160845E+02 0.  0.
          2    1    3    3  502    0 -0.42796936804E+02  0.12582187776E+02 -0.18513983770E+03  0.19043804440E+03  0.00000000000E+00 0. -1.
         -2    1    3    3    0  502  0.42796936804E+02 -0.12582187776E+02 -0.12973352182E+03  0.13718846865E+03  0.00000000000E+00 0.  1.
<mgrwt>
<rscale>  0 0.90520161E+02</rscale>
<asrwt>0</asrwt>
<pdfrwt beam="2">  1        1 0.49423058E-01 0.90520161E+02</pdfrwt>
<pdfrwt beam="1">  1       -1 0.98101199E-03 0.90520161E+02</pdfrwt>
<totfact> 0.13230543E+05</totfact>
</mgrwt>
</event>
<event>
 5    1  0.3862918E+001  0.9199853E+02  0.7546771E-02  0.1298083E+00
         -1   -1    0    0    0  501 -0.00000000000E+00  0.00000000000E+00  0.36045385874E+03  0.36045385874E+03  0.00000000000E+00 0.  1.
          1   -1    0    0  501    0  0.00000000000E+00 -0.00000000000E+00 -0.58701898985E+01  0.58701898985E+01  0.00000000000E+00 0. -1.
         23    2    1    2    0    0  0.00000000000E+00  0.00000000000E+00  0.35458366884E+03  0.36632404864E+03  0.91998534781E+02 0.  0.
          2    1    3    3  502    0 -0.41278785585E+02  0.33675637525E+01  0.97589829188E+02  0.10601440179E+03  0.00000000000E+00 0. -1.
         -2    1    3    3    0  502  0.41278785585E+02 -0.33675637525E+01  0.25699383965E+03  0.26030964685E+03  0.00000000000E+00 0.  1.
<mgrwt>
<rscale>  0 0.91998535E+02</rscale>
<asrwt>0</asrwt>
<pdfrwt beam="2">  1        1 0.90310642E-03 0.91998535E+02</pdfrwt>
<pdfrwt beam="1">  1       -1 0.55454423E-01 0.91998535E+02</pdfrwt>
<totfact> 0.54731549E+04</totfact>
</mgrwt>
</event>
<event>
 5    1  0.3862918E+001  0.8964796E+02  0.7546771E-02  0.1303706E+00
          1   -1    0    0  501    0  0.00000000000E+00  0.00000000000E+00  0.76025021016E+01  0.76025021016E+01  0.00000000000E+00 0. -1.
         -1   -1    0    0    0  501 -0.00000000000E+00 -0.00000000000E+00 -0.26428000025E+03  0.26428000025E+03  0.00000000000E+00 0.  1.
         23    2    1    2    0    0  0.00000000000E+00  0.00000000000E+00 -0.25667749815E+03  0.27188250236E+03  0.89647961658E+02 0.  0.
          2    1    3    3  502    0 -0.22088521983E+02 -0.43635118160E+01 -0.10791789909E+02  0.24968095005E+02  0.00000000000E+00 0. -1.
         -2    1    3    3    0  502  0.22088521983E+02  0.43635118160E+01 -0.24588570824E+03  0.24691440735E+03  0.00000000000E+00 0.  1.
<mgrwt>
<rscale>  0 0.89647962E+02</rscale>
<asrwt>0</asrwt>
<pdfrwt beam="1">  1        1 0.11696157E-02 0.89647962E+02</pdfrwt>
<pdfrwt beam="2">  1       -1 0.40658462E-01 0.89647962E+02</pdfrwt>
<totfact> 0.66394721E+04</totfact>
</mgrwt>
</event>
<event>
 5    1  0.3862918E+001  0.9076958E+02  0.7546771E-02  0.1300999E+00
         -2   -1    0    0    0  501 -0.00000000000E+00  0.00000000000E+00  0.26889654717E+03  0.26889654717E+03  0.00000000000E+00 0.  1.
          2   -1    0    0  501    0  0.00000000000E+00 -0.00000000000E+00 -0.76601175573E+01  0.76601175573E+01  0.00000000000E+00 0. -1.
         23    2    1    2    0    0  0.00000000000E+00  0.00000000000E+00  0.26123642961E+03  0.27655666473E+03  0.90769579972E+02 0.  0.
          2    1    3    3  502    0  0.64600676344E+01  0.31031610537E+02  0.31651831464E+02  0.44794327335E+02  0.00000000000E+00 0. -1.
         -2    1    3    3    0  502 -0.64600676344E+01 -0.31031610537E+02  0.22958459815E+03  0.23176233739E+03  0.00000000000E+00 0.  1.
<mgrwt>
<rscale>  0 0.90769580E+02</rscale>
<asrwt>0</asrwt>
<pdfrwt beam="2">  1        2 0.11784798E-02 0.90769580E+02</pdfrwt>
<pdfrwt beam="1">  1       -2 0.41368692E-01 0.90769580E+02</pdfrwt>
<totfact> 0.54748861E+04</totfact>
</mgrwt>
</event>
<event>
 5    1  0.3862918E+001  0.9195385E+02  0.7546771E-02  0.1298188E+00
         -1   -1    0    0    0  501 -0.00000000000E+00  0.00000000000E+00  0.10693439250E+01  0.10693439250E+01  0.00000000000E+00 0.  1.
          1   -1    0    0  501    0  0.00000000000E+00 -0.00000000000E+00 -0.19767987482E+04  0.19767987482E+04  0.00000000000E+00 0. -1.
         23    2    1    2    0    0  0.00000000000E+00  0.00000000000E+00 -0.19757294043E+04  0.19778680921E+04  0.91953852173E+02 0.  0.
          2    1    3    3  502    0  0.23951295150E+02 -0.17149487557E+02 -0.17471505159E+04  0.17473988367E+04  0.00000000000E+00 0. -1.
         -2    1    3    3    0  502 -0.23951295150E+02  0.17149487557E+02 -0.22857888839E+03  0.23046925539E+03  0.00000000000E+00 0.  1.
<mgrwt>
<rscale>  0 0.91953852E+02</rscale>
<asrwt>0</asrwt>
<pdfrwt beam="2">  1        1 0.30412012E+00 0.91953852E+02</pdfrwt>
<pdfrwt beam="1">  1       -1 0.16451595E-03 0.91953852E+02</pdfrwt>
<totfact> 0.79325943E+04</totfact>
</mgrwt>
</event>
<event>
 5    1  0.3862918E+001  0.6864053E+02  0.7546771E-02  0.1364778E+00
          2   -1    0    0  501    0  0.00000000000E+00  0.00000000000E+00  0.10740994501E+04  0.10740994501E+04  0.00000000000E+00 0. -1.
         -2   -1    0    0    0  501 -0.00000000000E+00 -0.00000000000E+00 -0.10966213773E+01  0.10966213773E+01  0.00000000000E+00 0.  1.
         23    2    1    2    0    0  0.00000000000E+00  0.00000000000E+00  0.10730028287E+04  0.10751960715E+04  0.68640525006E+02 0.  0.
          2    1    3    3  502    0  0.16921235948E+02 -0.25435564278E+02  0.78147616634E+03  0.78207307505E+03  0.00000000000E+00 0. -1.
         -2    1    3    3    0  502 -0.16921235948E+02  0.25435564278E+02  0.29152666238E+03  0.29312299643E+03  0.00000000000E+00 0.  1.
<mgrwt>
<rscale>  0 0.68640525E+02</rscale>
<asrwt>0</asrwt>
<pdfrwt beam="1">  1        2 0.16524523E+00 0.68640525E+02</pdfrwt>
<pdfrwt beam="2">  1       -2 0.16871184E-03 0.68640525E+02</pdfrwt>
<totfact> 0.52294526E+05</totfact>
</mgrwt>
</event>
<event>
 5    1  0.3862918E+001  0.9248301E+02  0.7546771E-02  0.1296948E+00
         -1   -1    0    0    0  501 -0.00000000000E+00  0.00000000000E+00  0.12208993086E+02  0.12208993086E+02  0.00000000000E+00 0.  1.
          1   -1    0    0  501    0  0.00000000000E+00 -0.00000000000E+00 -0.17513947864E+03  0.17513947864E+03  0.00000000000E+00 0. -1.
         23    2    1    2    0    0  0.00000000000E+00  0.00000000000E+00 -0.16293048556E+03  0.18734847173E+03  0.92483007821E+02 0.  0.
          2    1    3    3  502    0 -0.37244811752E+02 -0.25972794935E+02 -0.99185106537E+02  0.10908458845E+03  0.00000000000E+00 0. -1.
         -2    1    3    3    0  502  0.37244811752E+02  0.25972794935E+02 -0.63745379021E+02  0.78263883278E+02  0.00000000000E+00 0.  1.
<mgrwt>
<rscale>  0 0.92483008E+02</rscale>
<asrwt>0</asrwt>
<pdfrwt beam="2">  1        1 0.26944535E-01 0.92483008E+02</pdfrwt>
<pdfrwt beam="1">  1       -1 0.18783066E-02 0.92483008E+02</pdfrwt>
<totfact> 0.11108515E+05</totfact>
</mgrwt>
</event>
<event>
 5    1  0.3862918E+001  0.9113062E+02  0.7546771E-02  0.1300137E+00
          1   -1    0    0  501    0  0.00000000000E+00  0.00000000000E+00  0.43813013809E+02  0.43813013809E+02  0.00000000000E+00 0. -1.
         -1   -1    0    0    0  501 -0.00000000000E+00 -0.00000000000E+00 -0.47387688564E+02  0.47387688564E+02  0.00000000000E+00 0.  1.
         23    2    1    2    0    0  0.00000000000E+00  0.00000000000E+00 -0.35746747554E+01  0.91200702374E+02  0.91130619518E+02 0.  0.
          2    1    3    3  502    0 -0.25765381198E+02  0.24503165454E+02 -0.30303767180E+02  0.46718072422E+02  0.00000000000E+00 0.  1.
         -2    1    3    3    0  502  0.25765381198E+02 -0.24503165454E+02  0.26729092424E+02  0.44482629951E+02  0.00000000000E+00 0. -1.
<mgrwt>
<rscale>  0 0.91130620E+02</rscale>
<asrwt>0</asrwt>
<pdfrwt beam="1">  1        1 0.67404637E-02 0.91130620E+02</pdfrwt>
<pdfrwt beam="2">  1       -1 0.72904136E-02 0.91130620E+02</pdfrwt>
<totfact> 0.92052354E+04</totfact>
</mgrwt>
</event>
<event>
 5    1  0.3862918E+001  0.9328632E+02  0.7546771E-02  0.1295083E+00
          1   -1    0    0  501    0  0.00000000000E+00  0.00000000000E+00  0.10478057315E+04  0.10478057315E+04  0.00000000000E+00 0. -1.
         -1   -1    0    0    0  501 -0.00000000000E+00 -0.00000000000E+00 -0.20763243653E+01  0.20763243653E+01  0.00000000000E+00 0.  1.
         23    2    1    2    0    0  0.00000000000E+00  0.00000000000E+00  0.10457294072E+04  0.10498820559E+04  0.93286324195E+02 0.  0.
          2    1    3    3  502    0  0.18201533054E+02 -0.36254468226E+02  0.26379272972E+03  0.26689377386E+03  0.00000000000E+00 0. -1.
         -2    1    3    3    0  502 -0.18201533054E+02  0.36254468226E+02  0.78193667744E+03  0.78298828203E+03  0.00000000000E+00 0.  1.
<mgrwt>
<rscale>  0 0.93286324E+02</rscale>
<asrwt>0</asrwt>
<pdfrwt beam="1">  1        1 0.16120046E+00 0.93286324E+02</pdfrwt>
<pdfrwt beam="2">  1       -1 0.31943535E-03 0.93286324E+02</pdfrwt>
<totfact> 0.12631081E+05</totfact>
</mgrwt>
</event>
<event>
 5    1  0.3862918E+001  0.8810712E+02  0.7546771E-02  0.1307501E+00
         -1   -1    0    0    0  501 -0.00000000000E+00  0.00000000000E+00  0.77285076454E+03  0.77285076454E+03  0.00000000000E+00 0.  1.
          1   -1    0    0  501    0  0.00000000000E+00 -0.00000000000E+00 -0.25111139783E+01  0.25111139783E+01  0.00000000000E+00 0. -1.
         23    2    1    2    0    0  0.00000000000E+00  0.00000000000E+00  0.77033965056E+03  0.77536187852E+03  0.88107124751E+02 0.  0.
          2    1    3    3  502    0 -0.17051046898E+02  0.17345801955E+02  0.61936821503E+02  0.66541602804E+02  0.00000000000E+00 0. -1.
         -2    1    3    3    0  502  0.17051046898E+02 -0.17345801955E+02  0.70840282906E+03  0.70882027572E+03  0.00000000000E+00 0.  1.
<mgrwt>
<rscale>  0 0.88107125E+02</rscale>
<asrwt>0</asrwt>
<pdfrwt beam="2">  1        1 0.38632585E-03 0.88107125E+02</pdfrwt>
<pdfrwt beam="1">  1       -1 0.11889993E+00 0.88107125E+02</pdfrwt>
<totfact> 0.36917087E+04</totfact>
</mgrwt>
</event>
<event>
 5    1  0.3862918E+001  0.9135539E+02  0.7546771E-02  0.1299602E+00
         -4   -1    0    0    0  501 -0.00000000000E+00  0.00000000000E+00  0.25929567177E+03  0.25929567177E+03  0.00000000000E+00 0. -1.
          4   -1    0    0  501    0  0.00000000000E+00 -0.00000000000E+00 -0.80466119753E+01  0.80466119753E+01  0.00000000000E+00 0.  1.
         23    2    1    2    0    0  0.00000000000E+00  0.00000000000E+00  0.25124905980E+03  0.26734228375E+03  0.91355386434E+02 0.  0.
          2    1    3    3  502    0 -0.37912587283E+02  0.39720711538E+01  0.19926926071E+03  0.20288267518E+03  0.00000000000E+00 0. -1.
         -2    1    3    3    0  502  0.37912587283E+02 -0.39720711538E+01  0.51979799085E+02  0.64459608568E+02  0.00000000000E+00 0.  1.
<mgrwt>
<rscale>  0 0.91355386E+02</rscale>
<asrwt>0</asrwt>
<pdfrwt beam="2">  1        4 0.12379405E-02 0.91355386E+02</pdfrwt>
<pdfrwt beam="1">  1       -4 0.39891635E-01 0.91355386E+02</pdfrwt>
<totfact> 0.18767307E+04</totfact>
</mgrwt>
</event>
<event>
 5    1  0.3862918E+001  0.9069789E+02  0.7546771E-02  0.1301170E+00
         -1   -1    0    0    0  501 -0.00000000000E+00  0.00000000000E+00  0.25128058100E+01  0.25128058100E+01  0.00000000000E+00 0.  1.
          1   -1    0    0  501    0  0.00000000000E+00 -0.00000000000E+00 -0.81841850396E+03  0.81841850396E+03  0.00000000000E+00 0. -1.
         23    2    1    2    0    0  0.00000000000E+00  0.00000000000E+00 -0.81590569815E+03  0.82093130977E+03  0.90697889098E+02 0.  0.
          2    1    3    3  502    0  0.44309885413E+02  0.78215606387E+01 -0.35676390931E+03  0.35959008571E+03  0.00000000000E+00 0.  1.
         -2    1    3    3    0  502 -0.44309885413E+02 -0.78215606387E+01 -0.45914178884E+03  0.46134122406E+03  0.00000000000E+00 0. -1.
<mgrwt>
<rscale>  0 0.90697889E+02</rscale>
<asrwt>0</asrwt>
<pdfrwt beam="2">  1        1 0.12591050E+00 0.90697889E+02</pdfrwt>
<pdfrwt beam="1">  1       -1 0.38658562E-03 0.90697889E+02</pdfrwt>
<totfact> 0.14297047E+05</totfact>
</mgrwt>
</event>
<event>
 5    1  0.3862918E+001  0.9445259E+02  0.7546771E-02  0.1292414E+00
          2   -1    0    0  501    0  0.00000000000E+00  0.00000000000E+00  0.10452240927E+02  0.10452240927E+02  0.00000000000E+00 0. -1.
         -2   -1    0    0    0  501 -0.00000000000E+00 -0.00000000000E+00 -0.21338226425E+03  0.21338226425E+03  0.00000000000E+00 0.  1.
         23    2    1    2    0    0  0.00000000000E+00  0.00000000000E+00 -0.20293002333E+03  0.22383450518E+03  0.94452587800E+02 0.  0.
          2    1    3    3  502    0  0.25032780078E+02 -0.34439219384E+02 -0.53036029631E+02  0.68011178120E+02  0.00000000000E+00 0. -1.
         -2    1    3    3    0  502 -0.25032780078E+02  0.34439219384E+02 -0.14989399370E+03  0.15582332706E+03  0.00000000000E+00 0.  1.
<mgrwt>
<rscale>  0 0.94452588E+02</rscale>
<asrwt>0</asrwt>
<pdfrwt beam="1">  1        2 0.16080370E-02 0.94452588E+02</pdfrwt>
<pdfrwt beam="2">  1       -2 0.32828041E-01 0.94452588E+02</pdfrwt>
<totfact> 0.55326464E+04</totfact>
</mgrwt>
</event>
<event>
 5    1  0.3862918E+001  0.8671125E+02  0.7546771E-02  0.1311017E+00
          3   -1    0    0  501    0  0.00000000000E+00  0.00000000000E+00  0.16228470207E+02  0.16228470207E+02  0.00000000000E+00 0. -1.
         -3   -1    0    0    0  501 -0.00000000000E+00 -0.00000000000E+00 -0.11582793059E+03  0.11582793059E+03  0.00000000000E+00 0.  1.
         23    2    1    2    0    0  0.00000000000E+00  0.00000000000E+00 -0.99599460386E+02  0.13205640080E+03  0.86711247732E+02 0.  0.
          2    1    3    3  502    0  0.16578044955E+00  0.21235061249E+02  0.77658483572E+01  0.22611141283E+02  0.00000000000E+00 0. -1.
         -2    1    3    3    0  502 -0.16578044955E+00 -0.21235061249E+02 -0.10736530874E+03  0.10944525952E+03  0.00000000000E+00 0.  1.
<mgrwt>
<rscale>  0 0.86711248E+02</rscale>
<asrwt>0</asrwt>
<pdfrwt beam="1">  1        3 0.24966878E-02 0.86711248E+02</pdfrwt>
<pdfrwt beam="2">  1       -3 0.17819681E-01 0.86711248E+02</pdfrwt>
<totfact> 0.37154535E+04</totfact>
</mgrwt>
</event>
<event>
 5    1  0.3862918E+001  0.9007742E+02  0.7546771E-02  0.1302664E+00
         -2   -1    0    0    0  501 -0.00000000000E+00  0.00000000000E+00  0.11354243211E+03  0.11354243211E+03  0.00000000000E+00 0.  1.
          2   -1    0    0  501    0  0.00000000000E+00 -0.00000000000E+00 -0.17865437916E+02  0.17865437916E+02  0.00000000000E+00 0. -1.
         23    2    1    2    0    0  0.00000000000E+00  0.00000000000E+00  0.95676994193E+02  0.13140787003E+03  0.90077417186E+02 0.  0.
          2    1    3    3  502    0  0.11280570443E+02  0.29680738537E+02  0.12405493915E+01  0.31776350835E+02  0.00000000000E+00 0. -1.
         -2    1    3    3    0  502 -0.11280570443E+02 -0.29680738537E+02  0.94436444802E+02  0.99631519191E+02  0.00000000000E+00 0.  1.
<mgrwt>
<rscale>  0 0.90077417E+02</rscale>
<asrwt>0</asrwt>
<pdfrwt beam="2">  1        2 0.27485290E-02 0.90077417E+02</pdfrwt>
<pdfrwt beam="1">  1       -2 0.17468066E-01 0.90077417E+02</pdfrwt>
<totfact> 0.79125162E+04</totfact>
</mgrwt>
</event>
<event>
 5    1  0.3862918E+001  0.9105599E+02  0.7546771E-02  0.1300314E+00
         -2   -1    0    0    0  501 -0.00000000000E+00  0.00000000000E+00  0.29792860151E+03  0.29792860151E+03  0.00000000000E+00 0.  1.
          2   -1    0    0  501    0  0.00000000000E+00 -0.00000000000E+00 -0.69573660070E+01  0.69573660070E+01  0.00000000000E+00 0. -1.
         23    2    1    2    0    0  0.00000000000E+00  0.00000000000E+00  0.29097123551E+03  0.30488596752E+03  0.91055989911E+02 0.  0.
          2    1    3    3  502    0  0.36761773045E+02  0.23091505729E+02  0.99556915033E+02  0.10861042733E+03  0.00000000000E+00 0. -1.
         -2    1    3    3    0  502 -0.36761773045E+02 -0.23091505729E+02  0.19141432047E+03  0.19627554019E+03  0.00000000000E+00 0.  1.
<mgrwt>
<rscale>  0 0.91055990E+02</rscale>
<asrwt>0</asrwt>
<pdfrwt beam="2">  1        2 0.10703642E-02 0.91055990E+02</pdfrwt>
<pdfrwt beam="1">  1       -2 0.45835159E-01 0.91055990E+02</pdfrwt>
<totfact> 0.51375239E+04</totfact>
</mgrwt>
</event>
<event>
 5    1  0.3862918E+001  0.6777283E+02  0.7546771E-02  0.1367835E+00
          2   -1    0    0  501    0  0.00000000000E+00  0.00000000000E+00  0.30035649994E+02  0.30035649994E+02  0.00000000000E+00 0. -1.
         -2   -1    0    0    0  501 -0.00000000000E+00 -0.00000000000E+00 -0.38230875790E+02  0.38230875790E+02  0.00000000000E+00 0.  1.
         23    2    1    2    0    0  0.00000000000E+00  0.00000000000E+00 -0.81952257956E+01  0.68266525784E+02  0.67772832439E+02 0.  0.
          2    1    3    3  502    0  0.23937472693E+02 -0.20274094390E+02  0.88116610084E+01  0.32583536825E+02  0.00000000000E+00 0. -1.
         -2    1    3    3    0  502 -0.23937472693E+02  0.20274094390E+02 -0.17006886804E+02  0.35682988959E+02  0.00000000000E+00 0.  1.
<mgrwt>
<rscale>  0 0.67772832E+02</rscale>
<asrwt>0</asrwt>
<pdfrwt beam="1">  1        2 0.46208692E-02 0.67772832E+02</pdfrwt>
<pdfrwt beam="2">  1       -2 0.58816732E-02 0.67772832E+02</pdfrwt>
<totfact> 0.20701425E+05</totfact>
</mgrwt>
</event>
<event>
 5    1  0.3862918E+001  0.9251026E+02  0.7546771E-02  0.1296884E+00
          1   -1    0    0  501    0  0.00000000000E+00  0.00000000000E+00  0.18004145705E+02  0.18004145705E+02  0.00000000000E+00 0. -1.
         -1   -1    0    0    0  501 -0.00000000000E+00 -0.00000000000E+00 -0.11883578741E+03  0.11883578741E+03  0.00000000000E+00 0.  1.
         23    2    1    2    0    0  0.00000000000E+00  0.00000000000E+00 -0.10083164171E+03  0.13683993312E+03  0.92510255249E+02 0.  0.
          2    1    3    3  502    0  0.27206757664E+02  0.30566699738E+02 -0.82312999385E+02  0.91923667590E+02  0.00000000000E+00 0.  1.
         -2    1    3    3    0  502 -0.27206757664E+02 -0.30566699738E+02 -0.18518642322E+02  0.44916265528E+02  0.00000000000E+00 0. -1.
<mgrwt>
<rscale>  0 0.92510255E+02</rscale>
<asrwt>0</asrwt>
<pdfrwt beam="1">  1        1 0.27698686E-02 0.92510255E+02</pdfrwt>
<pdfrwt beam="2">  1       -1 0.18282429E-01 0.92510255E+02</pdfrwt>
<totfact> 0.75785379E+04</totfact>
</mgrwt>
</event>
<event>
 5    1  0.3862918E+001  0.9074955E+02  0.7546771E-02  0.1301047E+00
         -1   -1    0    0    0  501 -0.00000000000E+00  0.00000000000E+00  0.25421941435E+01  0.25421941435E+01  0.00000000000E+00 0.  1.
          1   -1    0    0  501    0  0.00000000000E+00 -0.00000000000E+00 -0.80987913932E+03  0.80987913932E+03  0.00000000000E+00 0. -1.
         23    2    1    2    0    0  0.00000000000E+00  0.00000000000E+00 -0.80733694518E+03  0.81242133346E+03  0.90749545562E+02 0.  0.
          2    1    3    3  502    0  0.42672041709E+02 -0.40356157815E+01 -0.53695945517E+03  0.53866747241E+03  0.00000000000E+00 0. -1.
         -2    1    3    3    0  502 -0.42672041709E+02  0.40356157815E+01 -0.27037749001E+03  0.27375386106E+03  0.00000000000E+00 0.  1.
<mgrwt>
<rscale>  0 0.90749546E+02</rscale>
<asrwt>0</asrwt>
<pdfrwt beam="2">  1        1 0.12459690E+00 0.90749546E+02</pdfrwt>
<pdfrwt beam="1">  1       -1 0.39110644E-03 0.90749546E+02</pdfrwt>
<totfact> 0.14290368E+05</totfact>
</mgrwt>
</event>
<event>
 5    1  0.3862918E+001  0.9713408E+02  0.7546771E-02  0.1286441E+00
          2   -1    0    0  501    0  0.00000000000E+00  0.00000000000E+00  0.27411971647E+01  0.27411971647E+01  0.00000000000E+00 0. -1.
         -2   -1    0    0    0  501 -0.00000000000E+00 -0.00000000000E+00 -0.86048442363E+03  0.86048442363E+03  0.00000000000E+00 0.  1.
         23    2    1    2    0    0  0.00000000000E+00  0.00000000000E+00 -0.85774322647E+03  0.86322562079E+03  0.97134081812E+02 0.  0.
          2    1    3    3  502    0  0.21416958483E+01 -0.22885763740E+02 -0.48658440226E+02  0.53814392575E+02  0.00000000000E+00 0. -1.
         -2    1    3    3    0  502 -0.21416958483E+01  0.22885763740E+02 -0.80908478624E+03  0.80941122822E+03  0.00000000000E+00 0.  1.
<mgrwt>
<rscale>  0 0.97134082E+02</rscale>
<asrwt>0</asrwt>
<pdfrwt beam="1">  1        2 0.42172261E-03 0.97134082E+02</pdfrwt>
<pdfrwt beam="2">  1       -2 0.13238223E+00 0.97134082E+02</pdfrwt>
<totfact> 0.18739621E+04</totfact>
</mgrwt>
</event>
<event>
 5    1  0.3862918E+001  0.9046426E+02  0.7546771E-02  0.1301731E+00
          1   -1    0    0  501    0  0.00000000000E+00  0.00000000000E+00  0.39602996435E+03  0.39602996435E+03  0.00000000000E+00 0.  1.
         -1   -1    0    0    0  501 -0.00000000000E+00 -0.00000000000E+00 -0.51661381816E+01  0.51661381816E+01  0.00000000000E+00 0. -1.
         23    2    1    2    0    0  0.00000000000E+00  0.00000000000E+00  0.39086382616E+03  0.40119610253E+03  0.90464258575E+02 0.  0.
          2    1    3    3  502    0  0.10786197038E+01 -0.40517881682E+02  0.10639356088E+03  0.11385276436E+03  0.00000000000E+00 0. -1.
         -2    1    3    3    0  502 -0.10786197038E+01  0.40517881682E+02  0.28447026528E+03  0.28734333816E+03  0.00000000000E+00 0.  1.
<mgrwt>
<rscale>  0 0.90464259E+02</rscale>
<asrwt>0</asrwt>
<pdfrwt beam="1">  1        1 0.60927663E-01 0.90464259E+02</pdfrwt>
<pdfrwt beam="2">  1       -1 0.79479080E-03 0.90464259E+02</pdfrwt>
<totfact> 0.13750379E+05</totfact>
</mgrwt>
</event>
<event>
 5    1  0.3862918E+001  0.1188667E+03  0.7546771E-02  0.1244978E+00
         -1   -1    0    0    0  501 -0.00000000000E+00  0.00000000000E+00  0.19754342018E+02  0.19754342018E+02  0.00000000000E+00 0.  1.
          1   -1    0    0  501    0  0.00000000000E+00 -0.00000000000E+00 -0.17881261886E+03  0.17881261886E+03  0.00000000000E+00 0. -1.
         23    2    1    2    0    0  0.00000000000E+00  0.00000000000E+00 -0.15905827684E+03  0.19856696088E+03  0.11886674270E+03 0.  0.
          2    1    3    3  502    0 -0.15665051145E+01 -0.22084901313E+02 -0.17166642698E+03  0.17308829815E+03  0.00000000000E+00 0. -1.
         -2    1    3    3    0  502  0.15665051145E+01  0.22084901313E+02  0.12608150142E+02  0.25478662725E+02  0.00000000000E+00 0.  1.
<mgrwt>
<rscale>  0 0.11886674E+03</rscale>
<asrwt>0</asrwt>
<pdfrwt beam="2">  1        1 0.27509633E-01 0.11886674E+03</pdfrwt>
<pdfrwt beam="1">  1       -1 0.30391296E-02 0.11886674E+03</pdfrwt>
<totfact> 0.56168276E+04</totfact>
</mgrwt>
</event>
<event>
 5    1  0.3862918E+001  0.8982001E+02  0.7546771E-02  0.1303288E+00
         -1   -1    0    0    0  501 -0.00000000000E+00  0.00000000000E+00  0.60549447440E+01  0.60549447440E+01  0.00000000000E+00 0.  1.
          1   -1    0    0  501    0  0.00000000000E+00 -0.00000000000E+00 -0.33310105135E+03  0.33310105135E+03  0.00000000000E+00 0. -1.
         23    2    1    2    0    0  0.00000000000E+00  0.00000000000E+00 -0.32704610660E+03  0.33915599609E+03  0.89820008018E+02 0.  0.
          2    1    3    3  502    0 -0.36686465663E+02  0.20235891541E+02 -0.22458620110E+03  0.22846082770E+03  0.00000000000E+00 0.  1.
         -2    1    3    3    0  502  0.36686465663E+02 -0.20235891541E+02 -0.10245990551E+03  0.11069516839E+03  0.00000000000E+00 0. -1.
<mgrwt>
<rscale>  0 0.89820008E+02</rscale>
<asrwt>0</asrwt>
<pdfrwt beam="2">  1        1 0.51246331E-01 0.89820008E+02</pdfrwt>
<pdfrwt beam="1">  1       -1 0.93152968E-03 0.89820008E+02</pdfrwt>
<totfact> 0.13596835E+05</totfact>
</mgrwt>
</event>
<event>
 5    1  0.3862918E+001  0.9097701E+02  0.7546771E-02  0.1300503E+00
          2   -1    0    0  501    0  0.00000000000E+00  0.00000000000E+00  0.66979787576E+02  0.66979787576E+02  0.00000000000E+00 0. -1.
         -2   -1    0    0    0  501 -0.00000000000E+00 -0.00000000000E+00 -0.30892961529E+02  0.30892961529E+02  0.00000000000E+00 0.  1.
         23    2    1    2    0    0  0.00000000000E+00  0.00000000000E+00  0.36086826047E+02  0.97872749105E+02  0.90977008102E+02 0.  0.
          2    1    3    3  502    0  0.12688325053E+02 -0.31666192765E+02  0.50415105469E+02  0.60872195757E+02  0.00000000000E+00 0. -1.
         -2    1    3    3    0  502 -0.12688325053E+02  0.31666192765E+02 -0.14328279421E+02  0.37000553348E+02  0.00000000000E+00 0.  1.
<mgrwt>
<rscale>  0 0.90977008E+02</rscale>
<asrwt>0</asrwt>
<pdfrwt beam="1">  1        2 0.10304583E-01 0.90977008E+02</pdfrwt>
<pdfrwt beam="2">  1       -2 0.47527633E-02 0.90977008E+02</pdfrwt>
<totfact> 0.10995734E+05</totfact>
</mgrwt>
</event>
<event>
 5    1  0.3862918E+001  0.8789244E+02  0.7546771E-02  0.1308037E+00
          2   -1    0    0  501    0  0.00000000000E+00  0.00000000000E+00  0.12440536803E+04  0.12440536803E+04  0.00000000000E+00 0. -1.
         -2   -1    0    0    0  501 -0.00000000000E+00 -0.00000000000E+00 -0.15524008951E+01  0.15524008951E+01  0.00000000000E+00 0.  1.
         23    2    1    2    0    0  0.00000000000E+00  0.00000000000E+00  0.12425012794E+04  0.12456060812E+04  0.87892435325E+02 0.  0.
          2    1    3    3  502    0  0.38577091269E+02 -0.20783280249E+02  0.66853765701E+03  0.66997219013E+03  0.00000000000E+00 0. -1.
         -2    1    3    3    0  502 -0.38577091269E+02  0.20783280249E+02  0.57396362239E+03  0.57563389106E+03  0.00000000000E+00 0.  1.
<mgrwt>
<rscale>  0 0.87892435E+02</rscale>
<asrwt>0</asrwt>
<pdfrwt beam="1">  1        2 0.19139208E+00 0.87892435E+02</pdfrwt>
<pdfrwt beam="2">  1       -2 0.23883190E-03 0.87892435E+02</pdfrwt>
<totfact> 0.27259977E+05</totfact>
</mgrwt>
</event>
<event>
 5    1  0.3862918E+001  0.9019153E+02  0.7546771E-02  0.1302389E+00
         -2   -1    0    0    0  501 -0.00000000000E+00  0.00000000000E+00  0.18848312921E+01  0.18848312921E+01  0.00000000000E+00 0.  1.
          2   -1    0    0  501    0  0.00000000000E+00 -0.00000000000E+00 -0.10789442039E+04  0.10789442039E+04  0.00000000000E+00 0. -1.
         23    2    1    2    0    0  0.00000000000E+00  0.00000000000E+00 -0.10770593726E+04  0.10808290352E+04  0.90191525057E+02 0.  0.
          2    1    3    3  502    0 -0.95693550606E+01 -0.40921627521E+02 -0.73451945141E+03  0.73572071920E+03  0.00000000000E+00 0. -1.
         -2    1    3    3    0  502  0.95693550606E+01  0.40921627521E+02 -0.34253992122E+03  0.34510831602E+03  0.00000000000E+00 0.  1.
<mgrwt>
<rscale>  0 0.90191525E+02</rscale>
<asrwt>0</asrwt>
<pdfrwt beam="2">  1        2 0.16599154E+00 0.90191525E+02</pdfrwt>
<pdfrwt beam="1">  1       -2 0.28997383E-03 0.90191525E+02</pdfrwt>
<totfact> 0.25755912E+05</totfact>
</mgrwt>
</event>
<event>
 5    1  0.3862918E+001  0.9199726E+02  0.7546771E-02  0.1298086E+00
          4   -1    0    0  501    0  0.00000000000E+00  0.00000000000E+00  0.22568299594E+02  0.22568299594E+02  0.00000000000E+00 0. -1.
         -4   -1    0    0    0  501 -0.00000000000E+00 -0.00000000000E+00 -0.93754239975E+02  0.93754239975E+02  0.00000000000E+00 0.  1.
         23    2    1    2    0    0  0.00000000000E+00  0.00000000000E+00 -0.71185940381E+02  0.11632253957E+03  0.91997255959E+02 0.  0.
          2    1    3    3  502    0  0.27474896339E+02  0.85895666563E+01  0.97715090163E+01  0.30399555467E+02  0.00000000000E+00 0. -1.
         -2    1    3    3    0  502 -0.27474896339E+02 -0.85895666563E+01 -0.80957449397E+02  0.85922984102E+02  0.00000000000E+00 0.  1.
<mgrwt>
<rscale>  0 0.91997256E+02</rscale>
<asrwt>0</asrwt>
<pdfrwt beam="1">  1        4 0.34720461E-02 0.91997256E+02</pdfrwt>
<pdfrwt beam="2">  1       -4 0.14423729E-01 0.91997256E+02</pdfrwt>
<totfact> 0.24871782E+04</totfact>
</mgrwt>
</event>
<event>
 5    1  0.3862918E+001  0.9047657E+02  0.7546771E-02  0.1301702E+00
         -2   -1    0    0    0  501 -0.00000000000E+00  0.00000000000E+00  0.22911240073E+01  0.22911240073E+01  0.00000000000E+00 0.  1.
          2   -1    0    0  501    0  0.00000000000E+00 -0.00000000000E+00 -0.89323083246E+03  0.89323083246E+03  0.00000000000E+00 0. -1.
         23    2    1    2    0    0  0.00000000000E+00  0.00000000000E+00 -0.89093970845E+03  0.89552195646E+03  0.90476573858E+02 0.  0.
          2    1    3    3  502    0 -0.12971135012E+02  0.42547709120E+02 -0.52705628136E+03  0.52892994018E+03  0.00000000000E+00 0. -1.
         -2    1    3    3    0  502  0.12971135012E+02 -0.42547709120E+02 -0.36388342709E+03  0.36659201629E+03  0.00000000000E+00 0.  1.
<mgrwt>
<rscale>  0 0.90476574E+02</rscale>
<asrwt>0</asrwt>
<pdfrwt beam="2">  1        2 0.13742053E+00 0.90476574E+02</pdfrwt>
<pdfrwt beam="1">  1       -2 0.35247959E-03 0.90476574E+02</pdfrwt>
<totfact> 0.25280704E+05</totfact>
</mgrwt>
</event>
<event>
 5    1  0.3862918E+001  0.9195566E+02  0.7546771E-02  0.1298184E+00
         -3   -1    0    0    0  501 -0.00000000000E+00  0.00000000000E+00  0.17154403754E+03  0.17154403754E+03  0.00000000000E+00 0.  1.
          3   -1    0    0  501    0  0.00000000000E+00 -0.00000000000E+00 -0.12323138632E+02  0.12323138632E+02  0.00000000000E+00 0. -1.
         23    2    1    2    0    0  0.00000000000E+00  0.00000000000E+00  0.15922089891E+03  0.18386717617E+03  0.91955662275E+02 0.  0.
          2    1    3    3  502    0 -0.27142986440E+02  0.18642862761E+02  0.14377176566E+03  0.14749446988E+03  0.00000000000E+00 0.  1.
         -2    1    3    3    0  502  0.27142986440E+02 -0.18642862761E+02  0.15449133250E+02  0.36372706292E+02  0.00000000000E+00 0. -1.
<mgrwt>
<rscale>  0 0.91955662E+02</rscale>
<asrwt>0</asrwt>
<pdfrwt beam="2">  1        3 0.18958676E-02 0.91955662E+02</pdfrwt>
<pdfrwt beam="1">  1       -3 0.26391389E-01 0.91955662E+02</pdfrwt>
<totfact> 0.28686040E+04</totfact>
</mgrwt>
</event>
<event>
 5    1  0.3862918E+001  0.8818208E+02  0.7546771E-02  0.1307315E+00
          2   -1    0    0  501    0  0.00000000000E+00  0.00000000000E+00  0.78103167191E+03  0.78103167191E+03  0.00000000000E+00 0. -1.
         -2   -1    0    0    0  501 -0.00000000000E+00 -0.00000000000E+00 -0.24890408083E+01  0.24890408083E+01  0.00000000000E+00 0.  1.
         23    2    1    2    0    0  0.00000000000E+00  0.00000000000E+00  0.77854263111E+03  0.78352071272E+03  0.88182077635E+02 0.  0.
          2    1    3    3  502    0  0.14707067942E+02 -0.27730012811E+02  0.66439436454E+03  0.66513541710E+03  0.00000000000E+00 0. -1.
         -2    1    3    3    0  502 -0.14707067942E+02  0.27730012811E+02  0.11414826657E+03  0.11838529562E+03  0.00000000000E+00 0.  1.
<mgrwt>
<rscale>  0 0.88182078E+02</rscale>
<asrwt>0</asrwt>
<pdfrwt beam="1">  1        2 0.12015852E+00 0.88182078E+02</pdfrwt>
<pdfrwt beam="2">  1       -2 0.38292998E-03 0.88182078E+02</pdfrwt>
<totfact> 0.26496861E+05</totfact>
</mgrwt>
</event>
<event>
 5    1  0.3862918E+001  0.8961667E+02  0.7546771E-02  0.1303783E+00
          1   -1    0    0  501    0  0.00000000000E+00  0.00000000000E+00  0.11446752027E+04  0.11446752027E+04  0.00000000000E+00 0. -1.
         -1   -1    0    0    0  501 -0.00000000000E+00 -0.00000000000E+00 -0.17540232156E+01  0.17540232156E+01  0.00000000000E+00 0.  1.
         23    2    1    2    0    0  0.00000000000E+00  0.00000000000E+00  0.11429211795E+04  0.11464292259E+04  0.89616669874E+02 0.  0.
          2    1    3    3  502    0  0.43022015421E+01  0.33395505838E+02  0.94965810258E+03  0.95025485031E+03  0.00000000000E+00 0. -1.
         -2    1    3    3    0  502 -0.43022015421E+01 -0.33395505838E+02  0.19326307690E+03  0.19617437560E+03  0.00000000000E+00 0.  1.
<mgrwt>
<rscale>  0 0.89616670E+02</rscale>
<asrwt>0</asrwt>
<pdfrwt beam="1">  1        1 0.17610328E+00 0.89616670E+02</pdfrwt>
<pdfrwt beam="2">  1       -1 0.26985064E-03 0.89616670E+02</pdfrwt>
<totfact> 0.13604244E+05</totfact>
</mgrwt>
</event>
<event>
 5    1  0.3862918E+001  0.9143448E+02  0.7546771E-02  0.1299415E+00
          1   -1    0    0  501    0  0.00000000000E+00  0.00000000000E+00  0.12921861535E+04  0.12921861535E+04  0.00000000000E+00 0. -1.
         -1   -1    0    0    0  501 -0.00000000000E+00 -0.00000000000E+00 -0.16174649837E+01  0.16174649837E+01  0.00000000000E+00 0.  1.
         23    2    1    2    0    0  0.00000000000E+00  0.00000000000E+00  0.12905686885E+04  0.12938036185E+04  0.91434476117E+02 0.  0.
          2    1    3    3  502    0  0.48711830753E+01 -0.45447039060E+02  0.65873860560E+03  0.66032243055E+03  0.00000000000E+00 0. -1.
         -2    1    3    3    0  502 -0.48711830753E+01  0.45447039060E+02  0.63183008291E+03  0.63348118793E+03  0.00000000000E+00 0.  1.
<mgrwt>
<rscale>  0 0.91434476E+02</rscale>
<asrwt>0</asrwt>
<pdfrwt beam="1">  1        1 0.19879704E+00 0.91434476E+02</pdfrwt>
<pdfrwt beam="2">  1       -1 0.24884180E-03 0.91434476E+02</pdfrwt>
<totfact> 0.12158273E+05</totfact>
</mgrwt>
</event>
<event>
 5    1  0.3862918E+001  0.8818539E+02  0.7546771E-02  0.1307306E+00
          2   -1    0    0  501    0  0.00000000000E+00  0.00000000000E+00  0.53819247152E+03  0.53819247152E+03  0.00000000000E+00 0.  1.
         -2   -1    0    0    0  501 -0.00000000000E+00 -0.00000000000E+00 -0.36123986757E+01  0.36123986757E+01  0.00000000000E+00 0. -1.
         23    2    1    2    0    0  0.00000000000E+00  0.00000000000E+00  0.53458007285E+03  0.54180487020E+03  0.88185390432E+02 0.  0.
          2    1    3    3  502    0  0.13870134707E+02  0.41316362585E+02  0.22619301445E+03  0.23035342897E+03  0.00000000000E+00 0. -1.
         -2    1    3    3    0  502 -0.13870134707E+02 -0.41316362585E+02  0.30838705840E+03  0.31145144123E+03  0.00000000000E+00 0.  1.
<mgrwt>
<rscale>  0 0.88185390E+02</rscale>
<asrwt>0</asrwt>
<pdfrwt beam="1">  1        2 0.82798778E-01 0.88185390E+02</pdfrwt>
<pdfrwt beam="2">  1       -2 0.55575407E-03 0.88185390E+02</pdfrwt>
<totfact> 0.24089393E+05</totfact>
</mgrwt>
</event>
<event>
 5    1  0.3862918E+001  0.9286267E+02  0.7546771E-02  0.1296064E+00
         -2   -1    0    0    0  501 -0.00000000000E+00  0.00000000000E+00  0.14060517896E+01  0.14060517896E+01  0.00000000000E+00 0.  1.
          2   -1    0    0  501    0  0.00000000000E+00 -0.00000000000E+00 -0.15332783893E+04  0.15332783893E+04  0.00000000000E+00 0. -1.
         23    2    1    2    0    0  0.00000000000E+00  0.00000000000E+00 -0.15318723375E+04  0.15346844411E+04  0.92862668994E+02 0.  0.
          2    1    3    3  502    0  0.70173547644E+01 -0.29169179745E+02 -0.13515825837E+04  0.13519155169E+04  0.00000000000E+00 0. -1.
         -2    1    3    3    0  502 -0.70173547644E+01  0.29169179745E+02 -0.18028975381E+03  0.18276892418E+03  0.00000000000E+00 0.  1.
<mgrwt>
<rscale>  0 0.92862669E+02</rscale>
<asrwt>0</asrwt>
<pdfrwt beam="2">  1        2 0.23588875E+00 0.92862669E+02</pdfrwt>
<pdfrwt beam="1">  1       -2 0.21631587E-03 0.92862669E+02</pdfrwt>
<totfact> 0.22289908E+05</totfact>
</mgrwt>
</event>
<event>
 5    1  0.3862918E+001  0.9816698E+02  0.7546771E-02  0.1284198E+00
          2   -1    0    0  501    0  0.00000000000E+00  0.00000000000E+00  0.93351691494E+03  0.93351691494E+03  0.00000000000E+00 0. -1.
         -2   -1    0    0    0  501 -0.00000000000E+00 -0.00000000000E+00 -0.25807661831E+01  0.25807661831E+01  0.00000000000E+00 0.  1.
         23    2    1    2    0    0  0.00000000000E+00  0.00000000000E+00  0.93093614876E+03  0.93609768113E+03  0.98166977858E+02 0.  0.
          2    1    3    3  502    0  0.85935724481E+01 -0.34209009312E+02  0.13998066335E+03  0.14435612878E+03  0.00000000000E+00 0.  1.
         -2    1    3    3    0  502 -0.85935724481E+01  0.34209009312E+02  0.79095548541E+03  0.79174155234E+03  0.00000000000E+00 0. -1.
<mgrwt>
<rscale>  0 0.98166978E+02</rscale>
<asrwt>0</asrwt>
<pdfrwt beam="1">  1        2 0.14361772E+00 0.98166978E+02</pdfrwt>
<pdfrwt beam="2">  1       -2 0.39704170E-03 0.98166978E+02</pdfrwt>
<totfact> 0.20471880E+05</totfact>
</mgrwt>
</event>
<event>
 5    1  0.3862918E+001  0.9350813E+02  0.7546771E-02  0.1294572E+00
         -2   -1    0    0    0  501 -0.00000000000E+00  0.00000000000E+00  0.90932614855E+02  0.90932614855E+02  0.00000000000E+00 0.  1.
          2   -1    0    0  501    0  0.00000000000E+00 -0.00000000000E+00 -0.24039149194E+02  0.24039149194E+02  0.00000000000E+00 0. -1.
         23    2    1    2    0    0  0.00000000000E+00  0.00000000000E+00  0.66893465660E+02  0.11497176405E+03  0.93508132163E+02 0.  0.
          2    1    3    3  502    0  0.86082632159E+01  0.18339978144E+02 -0.18361693691E+02  0.27342435683E+02  0.00000000000E+00 0. -1.
         -2    1    3    3    0  502 -0.86082632159E+01 -0.18339978144E+02  0.85255159351E+02  0.87629328366E+02  0.00000000000E+00 0.  1.
<mgrwt>
<rscale>  0 0.93508132E+02</rscale>
<asrwt>0</asrwt>
<pdfrwt beam="2">  1        2 0.36983307E-02 0.93508132E+02</pdfrwt>
<pdfrwt beam="1">  1       -2 0.13989633E-01 0.93508132E+02</pdfrwt>
<totfact> 0.77085875E+04</totfact>
</mgrwt>
</event>
<event>
 5    1  0.3862918E+001  0.9158921E+02  0.7546771E-02  0.1299048E+00
         -2   -1    0    0    0  501 -0.00000000000E+00  0.00000000000E+00  0.82588265793E+02  0.82588265793E+02  0.00000000000E+00 0. -1.
          2   -1    0    0  501    0  0.00000000000E+00 -0.00000000000E+00 -0.25392783904E+02  0.25392783904E+02  0.00000000000E+00 0.  1.
         23    2    1    2    0    0  0.00000000000E+00  0.00000000000E+00  0.57195481889E+02  0.10798104970E+03  0.91589213040E+02 0.  0.
          2    1    3    3  502    0  0.78902209084E+01  0.23278830932E+02 -0.16956744747E+02  0.29861191335E+02  0.00000000000E+00 0.  1.
         -2    1    3    3    0  502 -0.78902209084E+01 -0.23278830932E+02  0.74152226635E+02  0.78119858362E+02  0.00000000000E+00 0. -1.
<mgrwt>
<rscale>  0 0.91589213E+02</rscale>
<asrwt>0</asrwt>
<pdfrwt beam="2">  1        2 0.39065822E-02 0.91589213E+02</pdfrwt>
<pdfrwt beam="1">  1       -2 0.12705887E-01 0.91589213E+02</pdfrwt>
<totfact> 0.83397900E+04</totfact>
</mgrwt>
</event>
<event>
 5    1  0.3862918E+001  0.8646551E+02  0.7546771E-02  0.1311644E+00
         -2   -1    0    0    0  501 -0.00000000000E+00  0.00000000000E+00  0.61231121964E+00  0.61231121964E+00  0.00000000000E+00 0.  1.
          2   -1    0    0  501    0  0.00000000000E+00 -0.00000000000E+00 -0.30524858136E+04  0.30524858136E+04  0.00000000000E+00 0. -1.
         23    2    1    2    0    0  0.00000000000E+00  0.00000000000E+00 -0.30518735024E+04  0.30530981248E+04  0.86465514778E+02 0.  0.
          2    1    3    3  502    0 -0.34874086577E+02  0.24366887468E+02 -0.17974433819E+04  0.17979467896E+04  0.00000000000E+00 0. -1.
         -2    1    3    3    0  502  0.34874086577E+02 -0.24366887468E+02 -0.12544301205E+04  0.12551513352E+04  0.00000000000E+00 0.  1.
<mgrwt>
<rscale>  0 0.86465515E+02</rscale>
<asrwt>0</asrwt>
<pdfrwt beam="2">  1        2 0.46962512E+00 0.86465515E+02</pdfrwt>
<pdfrwt beam="1">  1       -2 0.94199336E-04 0.86465515E+02</pdfrwt>
<totfact> 0.11220521E+05</totfact>
</mgrwt>
</event>
<event>
 5    1  0.3862918E+001  0.8542388E+02  0.7546771E-02  0.1314328E+00
          2   -1    0    0  501    0  0.00000000000E+00  0.00000000000E+00  0.51920271880E+03  0.51920271880E+03  0.00000000000E+00 0.  1.
         -2   -1    0    0    0  501 -0.00000000000E+00 -0.00000000000E+00 -0.35136756481E+01  0.35136756481E+01  0.00000000000E+00 0. -1.
         23    2    1    2    0    0  0.00000000000E+00  0.00000000000E+00  0.51568904316E+03  0.52271639445E+03  0.85423883066E+02 0.  0.
          2    1    3    3  502    0 -0.28669012063E+02 -0.29489912865E+00  0.64118480888E+02  0.70236591671E+02  0.00000000000E+00 0. -1.
         -2    1    3    3    0  502  0.28669012063E+02  0.29489912865E+00  0.45157056227E+03  0.45247980278E+03  0.00000000000E+00 0.  1.
<mgrwt>
<rscale>  0 0.85423883E+02</rscale>
<asrwt>0</asrwt>
<pdfrwt beam="1">  1        2 0.79877280E-01 0.85423883E+02</pdfrwt>
<pdfrwt beam="2">  1       -2 0.54056590E-03 0.85423883E+02</pdfrwt>
<totfact> 0.25900189E+05</totfact>
</mgrwt>
</event>
<event>
 5    1  0.3862918E+001  0.8839709E+02  0.7546771E-02  0.1306780E+00
          1   -1    0    0  501    0  0.00000000000E+00  0.00000000000E+00  0.12856268555E+04  0.12856268555E+04  0.00000000000E+00 0. -1.
         -1   -1    0    0    0  501 -0.00000000000E+00 -0.00000000000E+00 -0.15195010424E+01  0.15195010424E+01  0.00000000000E+00 0.  1.
         23    2    1    2    0    0  0.00000000000E+00  0.00000000000E+00  0.12841073545E+04  0.12871463566E+04  0.88397089253E+02 0.  0.
          2    1    3    3  502    0  0.20367311787E+02  0.10308117216E+02  0.11931482921E+04  0.11933666376E+04  0.00000000000E+00 0. -1.
         -2    1    3    3    0  502 -0.20367311787E+02 -0.10308117216E+02  0.90959062385E+02  0.93779719022E+02  0.00000000000E+00 0.  1.
<mgrwt>
<rscale>  0 0.88397089E+02</rscale>
<asrwt>0</asrwt>
<pdfrwt beam="1">  1        1 0.19778788E+00 0.88397089E+02</pdfrwt>
<pdfrwt beam="2">  1       -1 0.23377042E-03 0.88397089E+02</pdfrwt>
<totfact> 0.13332191E+05</totfact>
</mgrwt>
</event>
<event>
 5    1  0.3862918E+001  0.9149741E+02  0.7546771E-02  0.1299265E+00
          2   -1    0    0  501    0  0.00000000000E+00  0.00000000000E+00  0.45123592868E+03  0.45123592868E+03  0.00000000000E+00 0. -1.
         -2   -1    0    0    0  501 -0.00000000000E+00 -0.00000000000E+00 -0.46382476079E+01  0.46382476079E+01  0.00000000000E+00 0.  1.
         23    2    1    2    0    0  0.00000000000E+00  0.00000000000E+00  0.44659768107E+03  0.45587417628E+03  0.91497409074E+02 0.  0.
          2    1    3    3  502    0  0.40631455847E+02  0.16371807850E+02  0.15757821751E+03  0.16355380133E+03  0.00000000000E+00 0.  1.
         -2    1    3    3    0  502 -0.40631455847E+02 -0.16371807850E+02  0.28901946356E+03  0.29232037495E+03  0.00000000000E+00 0. -1.
<mgrwt>
<rscale>  0 0.91497409E+02</rscale>
<asrwt>0</asrwt>
<pdfrwt beam="1">  1        2 0.69420878E-01 0.91497409E+02</pdfrwt>
<pdfrwt beam="2">  1       -2 0.71357691E-03 0.91497409E+02</pdfrwt>
<totfact> 0.20630634E+05</totfact>
</mgrwt>
</event>
<event>
 5    1  0.3862918E+001  0.9465445E+02  0.7546771E-02  0.1291956E+00
         -3   -1    0    0    0  501 -0.00000000000E+00  0.00000000000E+00  0.95129402698E+02  0.95129402698E+02  0.00000000000E+00 0.  1.
          3   -1    0    0  501    0  0.00000000000E+00 -0.00000000000E+00 -0.23545467748E+02  0.23545467748E+02  0.00000000000E+00 0. -1.
         23    2    1    2    0    0  0.00000000000E+00  0.00000000000E+00  0.71583934950E+02  0.11867487045E+03  0.94654451203E+02 0.  0.
          2    1    3    3  502    0  0.29243789302E+02 -0.34612959316E+02  0.52919126020E+02  0.69668429464E+02  0.00000000000E+00 0.  1.
         -2    1    3    3    0  502 -0.29243789302E+02  0.34612959316E+02  0.18664808930E+02  0.49006440982E+02  0.00000000000E+00 0. -1.
<mgrwt>
<rscale>  0 0.94654451E+02</rscale>
<asrwt>0</asrwt>
<pdfrwt beam="2">  1        3 0.36223797E-02 0.94654451E+02</pdfrwt>
<pdfrwt beam="1">  1       -3 0.14635293E-01 0.94654451E+02</pdfrwt>
<totfact> 0.30104548E+04</totfact>
</mgrwt>
</event>
<event>
 5    1  0.3862918E+001  0.9072768E+02  0.7546771E-02  0.1301099E+00
         -4   -1    0    0    0  501 -0.00000000000E+00  0.00000000000E+00  0.33285174904E+03  0.33285174904E+03  0.00000000000E+00 0.  1.
          4   -1    0    0  501    0  0.00000000000E+00 -0.00000000000E+00 -0.61825661906E+01  0.61825661906E+01  0.00000000000E+00 0. -1.
         23    2    1    2    0    0  0.00000000000E+00  0.00000000000E+00  0.32666918285E+03  0.33903431523E+03  0.90727679792E+02 0.  0.
          2    1    3    3  502    0 -0.34754359391E+02  0.49561759978E+01  0.27069617807E+03  0.27296309274E+03  0.00000000000E+00 0.  1.
         -2    1    3    3    0  502  0.34754359391E+02 -0.49561759978E+01  0.55973004778E+02  0.66071222488E+02  0.00000000000E+00 0. -1.
<mgrwt>
<rscale>  0 0.90727680E+02</rscale>
<asrwt>0</asrwt>
<pdfrwt beam="2">  1        4 0.95116429E-03 0.90727680E+02</pdfrwt>
<pdfrwt beam="1">  1       -4 0.51207948E-01 0.90727680E+02</pdfrwt>
<totfact> 0.16912230E+04</totfact>
</mgrwt>
</event>
<event>
 5    1  0.3862918E+001  0.9223635E+02  0.7546771E-02  0.1297525E+00
         -3   -1    0    0    0  501 -0.00000000000E+00  0.00000000000E+00  0.42179030776E+02  0.42179030776E+02  0.00000000000E+00 0.  1.
          3   -1    0    0  501    0  0.00000000000E+00 -0.00000000000E+00 -0.50425196585E+02  0.50425196585E+02  0.00000000000E+00 0. -1.
         23    2    1    2    0    0  0.00000000000E+00  0.00000000000E+00 -0.82461658085E+01  0.92604227361E+02  0.92236346820E+02 0.  0.
          2    1    3    3  502    0 -0.41058960466E+02 -0.16317852885E+02 -0.17396074619E+02  0.47484039102E+02  0.00000000000E+00 0. -1.
         -2    1    3    3    0  502  0.41058960466E+02  0.16317852885E+02  0.91499088100E+01  0.45120188259E+02  0.00000000000E+00 0.  1.
<mgrwt>
<rscale>  0 0.92236347E+02</rscale>
<asrwt>0</asrwt>
<pdfrwt beam="2">  1        3 0.77577225E-02 0.92236347E+02</pdfrwt>
<pdfrwt beam="1">  1       -3 0.64890817E-02 0.92236347E+02</pdfrwt>
<totfact> 0.34135081E+04</totfact>
</mgrwt>
</event>
<event>
 5    1  0.3862918E+001  0.9248331E+02  0.7546771E-02  0.1296947E+00
          1   -1    0    0  501    0  0.00000000000E+00  0.00000000000E+00  0.18084341717E+04  0.18084341717E+04  0.00000000000E+00 0. -1.
         -1   -1    0    0    0  501 -0.00000000000E+00 -0.00000000000E+00 -0.11823990639E+01  0.11823990639E+01  0.00000000000E+00 0.  1.
         23    2    1    2    0    0  0.00000000000E+00  0.00000000000E+00  0.18072517727E+04  0.18096165708E+04  0.92483314643E+02 0.  0.
          2    1    3    3  502    0  0.19988897854E+02  0.21720039897E+02  0.16001034800E+04  0.16003757256E+04  0.00000000000E+00 0. -1.
         -2    1    3    3    0  502 -0.19988897854E+02 -0.21720039897E+02  0.20714829265E+03  0.20924084524E+03  0.00000000000E+00 0.  1.
<mgrwt>
<rscale>  0 0.92483315E+02</rscale>
<asrwt>0</asrwt>
<pdfrwt beam="1">  1        1 0.27821843E+00 0.92483315E+02</pdfrwt>
<pdfrwt beam="2">  1       -1 0.18190899E-03 0.92483315E+02</pdfrwt>
<totfact> 0.88067827E+04</totfact>
</mgrwt>
</event>
<event>
 5    1  0.3862918E+001  0.9080914E+02  0.7546771E-02  0.1300904E+00
         -4   -1    0    0    0  501 -0.00000000000E+00  0.00000000000E+00  0.14782452103E+02  0.14782452103E+02  0.00000000000E+00 0.  1.
          4   -1    0    0  501    0  0.00000000000E+00 -0.00000000000E+00 -0.13946094600E+03  0.13946094600E+03  0.00000000000E+00 0. -1.
         23    2    1    2    0    0  0.00000000000E+00  0.00000000000E+00 -0.12467849390E+03  0.15424339810E+03  0.90809135101E+02 0.  0.
          2    1    3    3  502    0  0.12566392554E+02 -0.42739749689E+02 -0.77241433694E+02  0.89167480084E+02  0.00000000000E+00 0. -1.
         -2    1    3    3    0  502 -0.12566392554E+02  0.42739749689E+02 -0.47437060204E+02  0.65075918020E+02  0.00000000000E+00 0.  1.
<mgrwt>
<rscale>  0 0.90809135E+02</rscale>
<asrwt>0</asrwt>
<pdfrwt beam="2">  1        4 0.21455530E-01 0.90809135E+02</pdfrwt>
<pdfrwt beam="1">  1       -4 0.22742234E-02 0.90809135E+02</pdfrwt>
<totfact> 0.23718124E+04</totfact>
</mgrwt>
</event>
<event>
 5    1  0.3862918E+001  0.9232030E+02  0.7546771E-02  0.1297328E+00
          1   -1    0    0  501    0  0.00000000000E+00  0.00000000000E+00  0.10114151582E+03  0.10114151582E+03  0.00000000000E+00 0. -1.
         -1   -1    0    0    0  501 -0.00000000000E+00 -0.00000000000E+00 -0.21067111955E+02  0.21067111955E+02  0.00000000000E+00 0.  1.
         23    2    1    2    0    0  0.00000000000E+00  0.00000000000E+00  0.80074403869E+02  0.12220862778E+03  0.92320304098E+02 0.  0.
          2    1    3    3  502    0  0.25615181232E+02  0.14617180348E+02  0.87043421519E+02  0.91904062482E+02  0.00000000000E+00 0. -1.
         -2    1    3    3    0  502 -0.25615181232E+02 -0.14617180348E+02 -0.69690176507E+01  0.30304565298E+02  0.00000000000E+00 0.  1.
<mgrwt>
<rscale>  0 0.92320304E+02</rscale>
<asrwt>0</asrwt>
<pdfrwt beam="1">  1        1 0.15560233E-01 0.92320304E+02</pdfrwt>
<pdfrwt beam="2">  1       -1 0.32410942E-02 0.92320304E+02</pdfrwt>
<totfact> 0.10114869E+05</totfact>
</mgrwt>
</event>
<event>
 5    1  0.3862918E+001  0.9198899E+02  0.7546771E-02  0.1298105E+00
          1   -1    0    0  501    0  0.00000000000E+00  0.00000000000E+00  0.11561757864E+03  0.11561757864E+03  0.00000000000E+00 0. -1.
         -1   -1    0    0    0  501 -0.00000000000E+00 -0.00000000000E+00 -0.18297336853E+02  0.18297336853E+02  0.00000000000E+00 0.  1.
         23    2    1    2    0    0  0.00000000000E+00  0.00000000000E+00  0.97320241783E+02  0.13391491549E+03  0.91988994613E+02 0.  0.
          2    1    3    3  502    0 -0.13572146513E+02 -0.24336574102E+02  0.10193063649E+03  0.10567084108E+03  0.00000000000E+00 0. -1.
         -2    1    3    3    0  502  0.13572146513E+02  0.24336574102E+02 -0.46103947029E+01  0.28244074411E+02  0.00000000000E+00 0.  1.
<mgrwt>
<rscale>  0 0.91988995E+02</rscale>
<asrwt>0</asrwt>
<pdfrwt beam="1">  1        1 0.17787319E-01 0.91988995E+02</pdfrwt>
<pdfrwt beam="2">  1       -1 0.28149750E-02 0.91988995E+02</pdfrwt>
<totfact> 0.10449782E+05</totfact>
</mgrwt>
</event>
<event>
 5    1  0.3862918E+001  0.9154702E+02  0.7546771E-02  0.1299148E+00
          1   -1    0    0  501    0  0.00000000000E+00  0.00000000000E+00  0.77413387489E+03  0.77413387489E+03  0.00000000000E+00 0. -1.
         -1   -1    0    0    0  501 -0.00000000000E+00 -0.00000000000E+00 -0.27065271367E+01  0.27065271367E+01  0.00000000000E+00 0.  1.
         23    2    1    2    0    0  0.00000000000E+00  0.00000000000E+00  0.77142734775E+03  0.77684040202E+03  0.91547022668E+02 0.  0.
          2    1    3    3  502    0 -0.33173315085E+02 -0.31368293666E+02  0.41356907977E+03  0.41608150935E+03  0.00000000000E+00 0. -1.
         -2    1    3    3    0  502  0.33173315085E+02  0.31368293666E+02  0.35785826798E+03  0.36075889267E+03  0.00000000000E+00 0.  1.
<mgrwt>
<rscale>  0 0.91547023E+02</rscale>
<asrwt>0</asrwt>
<pdfrwt beam="1">  1        1 0.11909734E+00 0.91547023E+02</pdfrwt>
<pdfrwt beam="2">  1       -1 0.41638941E-03 0.91547023E+02</pdfrwt>
<totfact> 0.14014574E+05</totfact>
</mgrwt>
</event>
<event>
 5    1  0.3862918E+001  0.9242466E+02  0.7546771E-02  0.1297084E+00
         -2   -1    0    0    0  501 -0.00000000000E+00  0.00000000000E+00  0.28246528672E+02  0.28246528672E+02  0.00000000000E+00 0.  1.
          2   -1    0    0  501    0  0.00000000000E+00 -0.00000000000E+00 -0.75605016408E+02  0.75605016408E+02  0.00000000000E+00 0. -1.
         23    2    1    2    0    0  0.00000000000E+00  0.00000000000E+00 -0.47358487735E+02  0.10385154508E+03  0.92424656099E+02 0.  0.
          2    1    3    3  502    0  0.24759104828E+02  0.21350046235E+02 -0.60378285072E+02  0.68661306821E+02  0.00000000000E+00 0. -1.
         -2    1    3    3    0  502 -0.24759104828E+02 -0.21350046235E+02  0.13019797337E+02  0.35190238260E+02  0.00000000000E+00 0.  1.
<mgrwt>
<rscale>  0 0.92424656E+02</rscale>
<asrwt>0</asrwt>
<pdfrwt beam="2">  1        2 0.11631541E-01 0.92424656E+02</pdfrwt>
<pdfrwt beam="1">  1       -2 0.43456198E-02 0.92424656E+02</pdfrwt>
<totfact> 0.10881713E+05</totfact>
</mgrwt>
</event>
<event>
 5    1  0.3862918E+001  0.9182181E+02  0.7546771E-02  0.1298499E+00
         -4   -1    0    0    0  501 -0.00000000000E+00  0.00000000000E+00  0.24388104141E+02  0.24388104141E+02  0.00000000000E+00 0. -1.
          4   -1    0    0  501    0  0.00000000000E+00 -0.00000000000E+00 -0.86427838380E+02  0.86427838380E+02  0.00000000000E+00 0.  1.
         23    2    1    2    0    0  0.00000000000E+00  0.00000000000E+00 -0.62039734238E+02  0.11081594252E+03  0.91821808371E+02 0.  0.
          2    1    3    3  502    0  0.41695106895E+02 -0.17535547420E+02 -0.40509933142E+02  0.60720935809E+02  0.00000000000E+00 0.  1.
         -2    1    3    3    0  502 -0.41695106895E+02  0.17535547420E+02 -0.21529801096E+02  0.50095006712E+02  0.00000000000E+00 0. -1.
<mgrwt>
<rscale>  0 0.91821808E+02</rscale>
<asrwt>0</asrwt>
<pdfrwt beam="2">  1        4 0.13296591E-01 0.91821808E+02</pdfrwt>
<pdfrwt beam="1">  1       -4 0.37520160E-02 0.91821808E+02</pdfrwt>
<totfact> 0.25315861E+04</totfact>
</mgrwt>
</event>
<event>
 5    1  0.3862918E+001  0.1006278E+03  0.7546771E-02  0.1278981E+00
          1   -1    0    0  501    0  0.00000000000E+00  0.00000000000E+00  0.19282918053E+02  0.19282918053E+02  0.00000000000E+00 0. -1.
         -1   -1    0    0    0  501 -0.00000000000E+00 -0.00000000000E+00 -0.13128139693E+03  0.13128139693E+03  0.00000000000E+00 0.  1.
         23    2    1    2    0    0  0.00000000000E+00  0.00000000000E+00 -0.11199847888E+03  0.15056431499E+03  0.10062779773E+03 0.  0.
          2    1    3    3  502    0 -0.24459312347E+02 -0.25180665032E+02 -0.10992995320E+03  0.11539895347E+03  0.00000000000E+00 0.  1.
         -2    1    3    3    0  502  0.24459312347E+02  0.25180665032E+02 -0.20685256815E+01  0.35165361514E+02  0.00000000000E+00 0. -1.
<mgrwt>
<rscale>  0 0.10062780E+03</rscale>
<asrwt>0</asrwt>
<pdfrwt beam="1">  1        1 0.29666028E-02 0.10062780E+03</pdfrwt>
<pdfrwt beam="2">  1       -1 0.20197138E-01 0.10062780E+03</pdfrwt>
<totfact> 0.59652191E+04</totfact>
</mgrwt>
</event>
<event>
 5    1  0.3862918E+001  0.9094458E+02  0.7546771E-02  0.1300580E+00
          2   -1    0    0  501    0  0.00000000000E+00  0.00000000000E+00  0.67055023059E+03  0.67055023059E+03  0.00000000000E+00 0. -1.
         -2   -1    0    0    0  501 -0.00000000000E+00 -0.00000000000E+00 -0.30836305450E+01  0.30836305450E+01  0.00000000000E+00 0.  1.
         23    2    1    2    0    0  0.00000000000E+00  0.00000000000E+00  0.66746660005E+03  0.67363386114E+03  0.90944580333E+02 0.  0.
          2    1    3    3  502    0 -0.38044241795E+02  0.13260113266E+02  0.48990404893E+03  0.49155790309E+03  0.00000000000E+00 0. -1.
         -2    1    3    3    0  502  0.38044241795E+02 -0.13260113266E+02  0.17756255112E+03  0.18207595804E+03  0.00000000000E+00 0.  1.
<mgrwt>
<rscale>  0 0.90944580E+02</rscale>
<asrwt>0</asrwt>
<pdfrwt beam="1">  1        2 0.10316146E+00 0.90944580E+02</pdfrwt>
<pdfrwt beam="2">  1       -2 0.47440523E-03 0.90944580E+02</pdfrwt>
<totfact> 0.23628627E+05</totfact>
</mgrwt>
</event>
<event>
 5    1  0.3862918E+001  0.8915331E+02  0.7546771E-02  0.1304915E+00
         -2   -1    0    0    0  501 -0.00000000000E+00  0.00000000000E+00  0.10631429807E+01  0.10631429807E+01  0.00000000000E+00 0.  1.
          2   -1    0    0  501    0  0.00000000000E+00 -0.00000000000E+00 -0.18690599341E+04  0.18690599341E+04  0.00000000000E+00 0. -1.
         23    2    1    2    0    0  0.00000000000E+00  0.00000000000E+00 -0.18679967911E+04  0.18701230771E+04  0.89153305028E+02 0.  0.
          2    1    3    3  502    0  0.42694501241E+02 -0.12798222975E+02 -0.94827168541E+03  0.94931859999E+03  0.00000000000E+00 0. -1.
         -2    1    3    3    0  502 -0.42694501241E+02  0.12798222975E+02 -0.91972510569E+03  0.92080447706E+03  0.00000000000E+00 0.  1.
<mgrwt>
<rscale>  0 0.89153305E+02</rscale>
<asrwt>0</asrwt>
<pdfrwt beam="2">  1        2 0.28754897E+00 0.89153305E+02</pdfrwt>
<pdfrwt beam="1">  1       -2 0.16355972E-03 0.89153305E+02</pdfrwt>
<totfact> 0.22121349E+05</totfact>
</mgrwt>
</event>
<event>
 5    1  0.3862918E+001  0.9749457E+02  0.7546771E-02  0.1285655E+00
          3   -1    0    0  501    0  0.00000000000E+00  0.00000000000E+00  0.14271495683E+02  0.14271495683E+02  0.00000000000E+00 0. -1.
         -3   -1    0    0    0  501 -0.00000000000E+00 -0.00000000000E+00 -0.16650656100E+03  0.16650656100E+03  0.00000000000E+00 0.  1.
         23    2    1    2    0    0  0.00000000000E+00  0.00000000000E+00 -0.15223506532E+03  0.18077805669E+03  0.97494567368E+02 0.  0.
          2    1    3    3  502    0 -0.37323914086E+02 -0.12283644437E+02 -0.22622380946E+02  0.45340209561E+02  0.00000000000E+00 0. -1.
         -2    1    3    3    0  502  0.37323914086E+02  0.12283644437E+02 -0.12961268438E+03  0.13543784713E+03  0.00000000000E+00 0.  1.
<mgrwt>
<rscale>  0 0.97494567E+02</rscale>
<asrwt>0</asrwt>
<pdfrwt beam="1">  1        3 0.21956146E-02 0.97494567E+02</pdfrwt>
<pdfrwt beam="2">  1       -3 0.25616395E-01 0.97494567E+02</pdfrwt>
<totfact> 0.24612071E+04</totfact>
</mgrwt>
</event>
<event>
 5    1  0.3862918E+001  0.9243671E+02  0.7546771E-02  0.1297056E+00
         -1   -1    0    0    0  501 -0.00000000000E+00  0.00000000000E+00  0.76076679436E+02  0.76076679436E+02  0.00000000000E+00 0.  1.
          1   -1    0    0  501    0  0.00000000000E+00 -0.00000000000E+00 -0.28078724816E+02  0.28078724816E+02  0.00000000000E+00 0. -1.
         23    2    1    2    0    0  0.00000000000E+00  0.00000000000E+00  0.47997954619E+02  0.10415540425E+03  0.92436705843E+02 0.  0.
          2    1    3    3  502    0 -0.36059107262E+02 -0.15584721355E+02  0.51437597937E+02  0.64722246854E+02  0.00000000000E+00 0. -1.
         -2    1    3    3    0  502  0.36059107262E+02  0.15584721355E+02 -0.34396433178E+01  0.39433157398E+02  0.00000000000E+00 0.  1.
<mgrwt>
<rscale>  0 0.92436706E+02</rscale>
<asrwt>0</asrwt>
<pdfrwt beam="2">  1        1 0.43198038E-02 0.92436706E+02</pdfrwt>
<pdfrwt beam="1">  1       -1 0.11704104E-01 0.92436706E+02</pdfrwt>
<totfact> 0.82421045E+04</totfact>
</mgrwt>
</event>
<event>
 5    1  0.3862918E+001  0.9115674E+02  0.7546771E-02  0.1300074E+00
         -2   -1    0    0    0  501 -0.00000000000E+00  0.00000000000E+00  0.10335616534E+01  0.10335616534E+01  0.00000000000E+00 0.  1.
          2   -1    0    0  501    0  0.00000000000E+00 -0.00000000000E+00 -0.20099311497E+04  0.20099311497E+04  0.00000000000E+00 0. -1.
         23    2    1    2    0    0  0.00000000000E+00  0.00000000000E+00 -0.20088975881E+04  0.20109647114E+04  0.91156738914E+02 0.  0.
          2    1    3    3  502    0 -0.25752514622E+02  0.10739989811E+02 -0.17994996265E+04  0.17997159346E+04  0.00000000000E+00 0. -1.
         -2    1    3    3    0  502  0.25752514622E+02 -0.10739989811E+02 -0.20939796157E+03  0.21124877681E+03  0.00000000000E+00 0.  1.
<mgrwt>
<rscale>  0 0.91156739E+02</rscale>
<asrwt>0</asrwt>
<pdfrwt beam="2">  1        2 0.30921964E+00 0.91156739E+02</pdfrwt>
<pdfrwt beam="1">  1       -2 0.15900976E-03 0.91156739E+02</pdfrwt>
<totfact> 0.19600702E+05</totfact>
</mgrwt>
</event>
<event>
 5    1  0.3862918E+001  0.9193401E+02  0.7546771E-02  0.1298235E+00
          3   -1    0    0  501    0  0.00000000000E+00  0.00000000000E+00  0.59002039536E+01  0.59002039536E+01  0.00000000000E+00 0. -1.
         -3   -1    0    0    0  501 -0.00000000000E+00 -0.00000000000E+00 -0.35811734891E+03  0.35811734891E+03  0.00000000000E+00 0.  1.
         23    2    1    2    0    0  0.00000000000E+00  0.00000000000E+00 -0.35221714496E+03  0.36401755287E+03  0.91934006721E+02 0.  0.
          2    1    3    3  502    0 -0.70452762228E+01  0.23938584517E+02 -0.23253748530E+02  0.34109068683E+02  0.00000000000E+00 0. -1.
         -2    1    3    3    0  502  0.70452762228E+01 -0.23938584517E+02 -0.32896339643E+03  0.32990848418E+03  0.00000000000E+00 0.  1.
<mgrwt>
<rscale>  0 0.91934007E+02</rscale>
<asrwt>0</asrwt>
<pdfrwt beam="1">  1        3 0.90772368E-03 0.91934007E+02</pdfrwt>
<pdfrwt beam="2">  1       -3 0.55094977E-01 0.91934007E+02</pdfrwt>
<totfact> 0.21259374E+04</totfact>
</mgrwt>
</event>
<event>
 5    1  0.3862918E+001  0.9732575E+02  0.7546771E-02  0.1286022E+00
          1   -1    0    0  501    0  0.00000000000E+00  0.00000000000E+00  0.16358093855E+04  0.16358093855E+04  0.00000000000E+00 0. -1.
         -1   -1    0    0    0  501 -0.00000000000E+00 -0.00000000000E+00 -0.14476473845E+01  0.14476473845E+01  0.00000000000E+00 0.  1.
         23    2    1    2    0    0  0.00000000000E+00  0.00000000000E+00  0.16343617381E+04  0.16372570328E+04  0.97325745378E+02 0.  0.
          2    1    3    3  502    0  0.24592051227E+02  0.22702719778E+02  0.14114425812E+04  0.14118393472E+04  0.00000000000E+00 0. -1.
         -2    1    3    3    0  502 -0.24592051227E+02 -0.22702719778E+02  0.22291915692E+03  0.22541768562E+03  0.00000000000E+00 0.  1.
<mgrwt>
<rscale>  0 0.97325745E+02</rscale>
<asrwt>0</asrwt>
<pdfrwt beam="1">  1        1 0.25166150E+00 0.97325745E+02</pdfrwt>
<pdfrwt beam="2">  1       -1 0.22271629E-03 0.97325745E+02</pdfrwt>
<totfact> 0.85919525E+04</totfact>
</mgrwt>
</event>
<event>
 5    1  0.3862918E+001  0.9180142E+02  0.7546771E-02  0.1298547E+00
         -4   -1    0    0    0  501 -0.00000000000E+00  0.00000000000E+00  0.35867690462E+02  0.35867690462E+02  0.00000000000E+00 0.  1.
          4   -1    0    0  501    0  0.00000000000E+00 -0.00000000000E+00 -0.58740191759E+02  0.58740191759E+02  0.00000000000E+00 0. -1.
         23    2    1    2    0    0  0.00000000000E+00  0.00000000000E+00 -0.22872501297E+02  0.94607882220E+02  0.91801416452E+02 0.  0.
          2    1    3    3  502    0 -0.39032634160E+02  0.19853747425E+02 -0.25610151040E+02  0.50730638204E+02  0.00000000000E+00 0. -1.
         -2    1    3    3    0  502  0.39032634160E+02 -0.19853747425E+02  0.27376497430E+01  0.43877244016E+02  0.00000000000E+00 0.  1.
<mgrwt>
<rscale>  0 0.91801416E+02</rscale>
<asrwt>0</asrwt>
<pdfrwt beam="2">  1        4 0.90369525E-02 0.91801416E+02</pdfrwt>
<pdfrwt beam="1">  1       -4 0.55181063E-02 0.91801416E+02</pdfrwt>
<totfact> 0.26304039E+04</totfact>
</mgrwt>
</event>
<event>
 5    1  0.3862918E+001  0.9268512E+02  0.7546771E-02  0.1296477E+00
         -2   -1    0    0    0  501 -0.00000000000E+00  0.00000000000E+00  0.16055004311E+03  0.16055004311E+03  0.00000000000E+00 0.  1.
          2   -1    0    0  501    0  0.00000000000E+00 -0.00000000000E+00 -0.13376719439E+02  0.13376719439E+02  0.00000000000E+00 0. -1.
         23    2    1    2    0    0  0.00000000000E+00  0.00000000000E+00  0.14717332367E+03  0.17392676254E+03  0.92685120328E+02 0.  0.
          2    1    3    3  502    0 -0.42304120636E+02  0.17656973082E+02  0.60828224296E+02  0.76167448377E+02  0.00000000000E+00 0. -1.
         -2    1    3    3    0  502  0.42304120636E+02 -0.17656973082E+02  0.86345099371E+02  0.97759314168E+02  0.00000000000E+00 0.  1.
<mgrwt>
<rscale>  0 0.92685120E+02</rscale>
<asrwt>0</asrwt>
<pdfrwt beam="2">  1        2 0.20579570E-02 0.92685120E+02</pdfrwt>
<pdfrwt beam="1">  1       -2 0.24700005E-01 0.92685120E+02</pdfrwt>
<totfact> 0.65336117E+04</totfact>
</mgrwt>
</event>
<event>
 5    1  0.3862918E+001  0.9317127E+02  0.7546771E-02  0.1295349E+00
          3   -1    0    0  501    0  0.00000000000E+00  0.00000000000E+00  0.66658609850E+01  0.66658609850E+01  0.00000000000E+00 0. -1.
         -3   -1    0    0    0  501 -0.00000000000E+00 -0.00000000000E+00 -0.32557256677E+03  0.32557256677E+03  0.00000000000E+00 0.  1.
         23    2    1    2    0    0  0.00000000000E+00  0.00000000000E+00 -0.31890670579E+03  0.33223842776E+03  0.93171271767E+02 0.  0.
          2    1    3    3  502    0 -0.12297772091E+01  0.30602837279E+02 -0.34282238564E+02  0.45970837305E+02  0.00000000000E+00 0. -1.
         -2    1    3    3    0  502  0.12297772091E+01 -0.30602837279E+02 -0.28462446722E+03  0.28626759045E+03  0.00000000000E+00 0.  1.
<mgrwt>
<rscale>  0 0.93171272E+02</rscale>
<asrwt>0</asrwt>
<pdfrwt beam="1">  1        3 0.10255173E-02 0.93171272E+02</pdfrwt>
<pdfrwt beam="2">  1       -3 0.50088074E-01 0.93171272E+02</pdfrwt>
<totfact> 0.21535844E+04</totfact>
</mgrwt>
</event>
<event>
 5    1  0.3862918E+001  0.9152989E+02  0.7546771E-02  0.1299189E+00
          2   -1    0    0  501    0  0.00000000000E+00  0.00000000000E+00  0.45135339136E+02  0.45135339136E+02  0.00000000000E+00 0.  1.
         -2   -1    0    0    0  501 -0.00000000000E+00 -0.00000000000E+00 -0.46403334532E+02  0.46403334532E+02  0.00000000000E+00 0. -1.
         23    2    1    2    0    0  0.00000000000E+00  0.00000000000E+00 -0.12679953966E+01  0.91538673668E+02  0.91529891099E+02 0.  0.
          2    1    3    3  502    0 -0.48880627935E+01  0.39167686730E+02 -0.23797165626E+02  0.46090193463E+02  0.00000000000E+00 0. -1.
         -2    1    3    3    0  502  0.48880627935E+01 -0.39167686730E+02  0.22529170230E+02  0.45448480204E+02  0.00000000000E+00 0.  1.
<mgrwt>
<rscale>  0 0.91529891E+02</rscale>
<asrwt>0</asrwt>
<pdfrwt beam="1">  1        2 0.69438983E-02 0.91529891E+02</pdfrwt>
<pdfrwt beam="2">  1       -2 0.71389745E-02 0.91529891E+02</pdfrwt>
<totfact> 0.97331454E+04</totfact>
</mgrwt>
</event>
<event>
 5    1  0.3862918E+001  0.9088986E+02  0.7546771E-02  0.1300711E+00
          2   -1    0    0  501    0  0.00000000000E+00  0.00000000000E+00  0.15552190924E+02  0.15552190924E+02  0.00000000000E+00 0. -1.
         -2   -1    0    0    0  501 -0.00000000000E+00 -0.00000000000E+00 -0.13279425335E+03  0.13279425335E+03  0.00000000000E+00 0.  1.
         23    2    1    2    0    0  0.00000000000E+00  0.00000000000E+00 -0.11724206243E+03  0.14834644428E+03  0.90889858217E+02 0.  0.
          2    1    3    3  502    0  0.15630281906E+01  0.31861055541E+02 -0.11145026528E+03  0.11592554312E+03  0.00000000000E+00 0.  1.
         -2    1    3    3    0  502 -0.15630281906E+01 -0.31861055541E+02 -0.57917971475E+01  0.32420901152E+02  0.00000000000E+00 0. -1.
<mgrwt>
<rscale>  0 0.90889858E+02</rscale>
<asrwt>0</asrwt>
<pdfrwt beam="1">  1        2 0.23926447E-02 0.90889858E+02</pdfrwt>
<pdfrwt beam="2">  1       -2 0.20429885E-01 0.90889858E+02</pdfrwt>
<totfact> 0.73501673E+04</totfact>
</mgrwt>
</event>
<event>
 5    1  0.3862918E+001  0.8635042E+02  0.7546771E-02  0.1311938E+00
          1   -1    0    0  501    0  0.00000000000E+00  0.00000000000E+00  0.39546935367E+03  0.39546935367E+03  0.00000000000E+00 0. -1.
         -1   -1    0    0    0  501 -0.00000000000E+00 -0.00000000000E+00 -0.47136359301E+01  0.47136359301E+01  0.00000000000E+00 0.  1.
         23    2    1    2    0    0  0.00000000000E+00  0.00000000000E+00  0.39075571774E+03  0.40018298960E+03  0.86350415280E+02 0.  0.
          2    1    3    3  502    0 -0.38790806763E+02  0.70791469247E+01  0.27687724645E+03  0.27967096848E+03  0.00000000000E+00 0. -1.
         -2    1    3    3    0  502  0.38790806763E+02 -0.70791469247E+01  0.11387847129E+03  0.12051202112E+03  0.00000000000E+00 0.  1.
<mgrwt>
<rscale>  0 0.86350415E+02</rscale>
<asrwt>0</asrwt>
<pdfrwt beam="1">  1        1 0.60841413E-01 0.86350415E+02</pdfrwt>
<pdfrwt beam="2">  1       -1 0.72517507E-03 0.86350415E+02</pdfrwt>
<totfact> 0.15548955E+05</totfact>
</mgrwt>
</event>
<event>
 5    1  0.3862918E+001  0.9235976E+02  0.7546771E-02  0.1297236E+00
          1   -1    0    0  501    0  0.00000000000E+00  0.00000000000E+00  0.38843570028E+03  0.38843570028E+03  0.00000000000E+00 0. -1.
         -1   -1    0    0    0  501 -0.00000000000E+00 -0.00000000000E+00 -0.54901788857E+01  0.54901788857E+01  0.00000000000E+00 0.  1.
         23    2    1    2    0    0  0.00000000000E+00  0.00000000000E+00  0.38294552139E+03  0.39392587916E+03  0.92359763536E+02 0.  0.
          2    1    3    3  502    0 -0.41433611645E-01 -0.26108789361E+02  0.29010658136E+02  0.39029333637E+02  0.00000000000E+00 0.  1.
         -2    1    3    3    0  502  0.41433611645E-01  0.26108789361E+02  0.35393486325E+03  0.35489654553E+03  0.00000000000E+00 0. -1.
<mgrwt>
<rscale>  0 0.92359764E+02</rscale>
<asrwt>0</asrwt>
<pdfrwt beam="1">  1        1 0.59759317E-01 0.92359764E+02</pdfrwt>
<pdfrwt beam="2">  1       -1 0.84464321E-03 0.92359764E+02</pdfrwt>
<totfact> 0.12971324E+05</totfact>
</mgrwt>
</event>
<event>
 5    1  0.3862918E+001  0.8689718E+02  0.7546771E-02  0.1310544E+00
          1   -1    0    0  501    0  0.00000000000E+00  0.00000000000E+00  0.13029277479E+03  0.13029277479E+03  0.00000000000E+00 0. -1.
         -1   -1    0    0    0  501 -0.00000000000E+00 -0.00000000000E+00 -0.14488753504E+02  0.14488753504E+02  0.00000000000E+00 0.  1.
         23    2    1    2    0    0  0.00000000000E+00  0.00000000000E+00  0.11580402128E+03  0.14478152829E+03  0.86897178258E+02 0.  0.
          2    1    3    3  502    0 -0.24982231008E+02 -0.23677702738E+02  0.10207896565E+03  0.10772585902E+03  0.00000000000E+00 0. -1.
         -2    1    3    3    0  502  0.24982231008E+02  0.23677702738E+02  0.13725055631E+02  0.37055669271E+02  0.00000000000E+00 0.  1.
<mgrwt>
<rscale>  0 0.86897178E+02</rscale>
<asrwt>0</asrwt>
<pdfrwt beam="1">  1        1 0.20045041E-01 0.86897178E+02</pdfrwt>
<pdfrwt beam="2">  1       -1 0.22290391E-02 0.86897178E+02</pdfrwt>
<totfact> 0.12444255E+05</totfact>
</mgrwt>
</event>
<event>
 5    1  0.3862918E+001  0.8426508E+02  0.7546771E-02  0.1317366E+00
         -1   -1    0    0    0  501 -0.00000000000E+00  0.00000000000E+00  0.23707134678E+02  0.23707134678E+02  0.00000000000E+00 0.  1.
          1   -1    0    0  501    0  0.00000000000E+00 -0.00000000000E+00 -0.74878342498E+02  0.74878342498E+02  0.00000000000E+00 0. -1.
         23    2    1    2    0    0  0.00000000000E+00  0.00000000000E+00 -0.51171207820E+02  0.98585477175E+02  0.84265080550E+02 0.  0.
          2    1    3    3  502    0  0.27988819694E+00  0.26385574561E+02 -0.64013860313E+02  0.69239087187E+02  0.00000000000E+00 0. -1.
         -2    1    3    3    0  502 -0.27988819694E+00 -0.26385574561E+02  0.12842652493E+02  0.29346389989E+02  0.00000000000E+00 0.  1.
<mgrwt>
<rscale>  0 0.84265081E+02</rscale>
<asrwt>0</asrwt>
<pdfrwt beam="2">  1        1 0.11519745E-01 0.84265081E+02</pdfrwt>
<pdfrwt beam="1">  1       -1 0.36472515E-02 0.84265081E+02</pdfrwt>
<totfact> 0.12368344E+05</totfact>
</mgrwt>
</event>
<event>
 5    1  0.3862918E+001  0.9143286E+02  0.7546771E-02  0.1299418E+00
          1   -1    0    0  501    0  0.00000000000E+00  0.00000000000E+00  0.48782564559E+03  0.48782564559E+03  0.00000000000E+00 0. -1.
         -1   -1    0    0    0  501 -0.00000000000E+00 -0.00000000000E+00 -0.42843015668E+01  0.42843015668E+01  0.00000000000E+00 0.  1.
         23    2    1    2    0    0  0.00000000000E+00  0.00000000000E+00  0.48354134402E+03  0.49210994716E+03  0.91432864501E+02 0.  0.
          2    1    3    3  502    0  0.10727276067E+02  0.19890783789E+02  0.45565975659E+03  0.45621982805E+03  0.00000000000E+00 0. -1.
         -2    1    3    3    0  502 -0.10727276067E+02 -0.19890783789E+02  0.27881587430E+02  0.35890119102E+02  0.00000000000E+00 0.  1.
<mgrwt>
<rscale>  0 0.91432865E+02</rscale>
<asrwt>0</asrwt>
<pdfrwt beam="1">  1        1 0.75050055E-01 0.91432865E+02</pdfrwt>
<pdfrwt beam="2">  1       -1 0.65912370E-03 0.91432865E+02</pdfrwt>
<totfact> 0.13782095E+05</totfact>
</mgrwt>
</event>
<event>
 5    1  0.3862918E+001  0.9058998E+02  0.7546771E-02  0.1301429E+00
          1   -1    0    0  501    0  0.00000000000E+00  0.00000000000E+00  0.20980372662E+02  0.20980372662E+02  0.00000000000E+00 0. -1.
         -1   -1    0    0    0  501 -0.00000000000E+00 -0.00000000000E+00 -0.97788344992E+02  0.97788344992E+02  0.00000000000E+00 0.  1.
         23    2    1    2    0    0  0.00000000000E+00  0.00000000000E+00 -0.76807972329E+02  0.11876871765E+03  0.90589975604E+02 0.  0.
          2    1    3    3  502    0 -0.14988858921E+02 -0.14185612770E+02  0.14458460400E+02  0.25198106646E+02  0.00000000000E+00 0. -1.
         -2    1    3    3    0  502  0.14988858921E+02  0.14185612770E+02 -0.91266432729E+02  0.93570611008E+02  0.00000000000E+00 0.  1.
<mgrwt>
<rscale>  0 0.90589976E+02</rscale>
<asrwt>0</asrwt>
<pdfrwt beam="1">  1        1 0.32277496E-02 0.90589976E+02</pdfrwt>
<pdfrwt beam="2">  1       -1 0.15044361E-01 0.90589976E+02</pdfrwt>
<totfact> 0.83076364E+04</totfact>
</mgrwt>
</event>
<event>
 5    1  0.3862918E+001  0.9039825E+02  0.7546771E-02  0.1301890E+00
         -2   -1    0    0    0  501 -0.00000000000E+00  0.00000000000E+00  0.12376654717E+02  0.12376654717E+02  0.00000000000E+00 0.  1.
          2   -1    0    0  501    0  0.00000000000E+00 -0.00000000000E+00 -0.16506568050E+03  0.16506568050E+03  0.00000000000E+00 0. -1.
         23    2    1    2    0    0  0.00000000000E+00  0.00000000000E+00 -0.15268902578E+03  0.17744233521E+03  0.90398250716E+02 0.  0.
          2    1    3    3  502    0 -0.48254848833E+01  0.40535655432E+02 -0.11443360530E+03  0.12149680937E+03  0.00000000000E+00 0. -1.
         -2    1    3    3    0  502  0.48254848833E+01 -0.40535655432E+02 -0.38255420483E+02  0.55945525845E+02  0.00000000000E+00 0.  1.
<mgrwt>
<rscale>  0 0.90398251E+02</rscale>
<asrwt>0</asrwt>
<pdfrwt beam="2">  1        2 0.25394721E-01 0.90398251E+02</pdfrwt>
<pdfrwt beam="1">  1       -2 0.19041007E-02 0.90398251E+02</pdfrwt>
<totfact> 0.14787629E+05</totfact>
</mgrwt>
</event>
<event>
 5    1  0.3862918E+001  0.9007273E+02  0.7546771E-02  0.1302676E+00
         -1   -1    0    0    0  501 -0.00000000000E+00  0.00000000000E+00  0.32897483808E+01  0.32897483808E+01  0.00000000000E+00 0.  1.
          1   -1    0    0  501    0  0.00000000000E+00 -0.00000000000E+00 -0.61654392277E+03  0.61654392277E+03  0.00000000000E+00 0. -1.
         23    2    1    2    0    0  0.00000000000E+00  0.00000000000E+00 -0.61325417439E+03  0.61983367115E+03  0.90072734423E+02 0.  0.
          2    1    3    3  502    0 -0.12997226893E+02  0.34872872384E+02 -0.48115492384E+03  0.48259206983E+03  0.00000000000E+00 0. -1.
         -2    1    3    3    0  502  0.12997226893E+02 -0.34872872384E+02 -0.13209925055E+03  0.13724160132E+03  0.00000000000E+00 0.  1.
<mgrwt>
<rscale>  0 0.90072734E+02</rscale>
<asrwt>0</asrwt>
<pdfrwt beam="2">  1        1 0.94852955E-01 0.90072734E+02</pdfrwt>
<pdfrwt beam="1">  1       -1 0.50611490E-03 0.90072734E+02</pdfrwt>
<totfact> 0.14643971E+05</totfact>
</mgrwt>
</event>
<event>
 5    1  0.3862918E+001  0.9114164E+02  0.7546771E-02  0.1300110E+00
          1   -1    0    0  501    0  0.00000000000E+00  0.00000000000E+00  0.28785089590E+03  0.28785089590E+03  0.00000000000E+00 0. -1.
         -1   -1    0    0    0  501 -0.00000000000E+00 -0.00000000000E+00 -0.72144976455E+01  0.72144976455E+01  0.00000000000E+00 0.  1.
         23    2    1    2    0    0  0.00000000000E+00  0.00000000000E+00  0.28063639825E+03  0.29506539354E+03  0.91141639456E+02 0.  0.
          2    1    3    3  502    0  0.15912119023E+02 -0.27125376633E+02  0.24709074602E+03  0.24908395846E+03  0.00000000000E+00 0. -1.
         -2    1    3    3    0  502 -0.15912119023E+02  0.27125376633E+02  0.33545652227E+02  0.45981435086E+02  0.00000000000E+00 0.  1.
<mgrwt>
<rscale>  0 0.91141639E+02</rscale>
<asrwt>0</asrwt>
<pdfrwt beam="1">  1        1 0.44284744E-01 0.91141639E+02</pdfrwt>
<pdfrwt beam="2">  1       -1 0.11099229E-02 0.91141639E+02</pdfrwt>
<totfact> 0.12724159E+05</totfact>
</mgrwt>
</event>
<event>
 5    1  0.3862918E+001  0.9385882E+02  0.7546771E-02  0.1293767E+00
          4   -1    0    0  501    0  0.00000000000E+00  0.00000000000E+00  0.17873763063E+04  0.17873763063E+04  0.00000000000E+00 0.  1.
         -4   -1    0    0    0  501 -0.00000000000E+00 -0.00000000000E+00 -0.12321801109E+01  0.12321801109E+01  0.00000000000E+00 0. -1.
         23    2    1    2    0    0  0.00000000000E+00  0.00000000000E+00  0.17861441262E+04  0.17886084865E+04  0.93858820265E+02 0.  0.
          2    1    3    3  502    0 -0.25223394733E+02 -0.13982309582E+02  0.18756287348E+03  0.18976711024E+03  0.00000000000E+00 0. -1.
         -2    1    3    3    0  502  0.25223394733E+02  0.13982309582E+02  0.15985812528E+04  0.15988413762E+04  0.00000000000E+00 0.  1.
<mgrwt>
<rscale>  0 0.93858820E+02</rscale>
<asrwt>0</asrwt>
<pdfrwt beam="1">  1        4 0.27497890E+00 0.93858820E+02</pdfrwt>
<pdfrwt beam="2">  1       -4 0.18956760E-03 0.93858820E+02</pdfrwt>
<totfact> 0.27899565E+03</totfact>
</mgrwt>
</event>
<event>
 5    1  0.3862918E+001  0.9441542E+02  0.7546771E-02  0.1292498E+00
          1   -1    0    0  501    0  0.00000000000E+00  0.00000000000E+00  0.21006051049E+03  0.21006051049E+03  0.00000000000E+00 0. -1.
         -1   -1    0    0    0  501 -0.00000000000E+00 -0.00000000000E+00 -0.10609170451E+02  0.10609170451E+02  0.00000000000E+00 0.  1.
         23    2    1    2    0    0  0.00000000000E+00  0.00000000000E+00  0.19945134004E+03  0.22066968094E+03  0.94415417400E+02 0.  0.
          2    1    3    3  502    0  0.42485933695E+02 -0.88572259642E+01  0.14314156792E+03  0.14957611267E+03  0.00000000000E+00 0. -1.
         -2    1    3    3    0  502 -0.42485933695E+02  0.88572259642E+01  0.56309772116E+02  0.71093568271E+02  0.00000000000E+00 0.  1.
<mgrwt>
<rscale>  0 0.94415417E+02</rscale>
<asrwt>0</asrwt>
<pdfrwt beam="1">  1        1 0.32316999E-01 0.94415417E+02</pdfrwt>
<pdfrwt beam="2">  1       -1 0.16321802E-02 0.94415417E+02</pdfrwt>
<totfact> 0.10884128E+05</totfact>
</mgrwt>
</event>
<event>
 5    1  0.3862918E+001  0.9091270E+02  0.7546771E-02  0.1300656E+00
         -2   -1    0    0    0  501 -0.00000000000E+00  0.00000000000E+00  0.30863794356E+02  0.30863794356E+02  0.00000000000E+00 0.  1.
          2   -1    0    0  501    0  0.00000000000E+00 -0.00000000000E+00 -0.66948335681E+02  0.66948335681E+02  0.00000000000E+00 0. -1.
         23    2    1    2    0    0  0.00000000000E+00  0.00000000000E+00 -0.36084541325E+02  0.97812130038E+02  0.90912698012E+02 0.  0.
          2    1    3    3  502    0  0.42013066991E+02  0.36961732382E+01 -0.36285525660E+02  0.55636308892E+02  0.00000000000E+00 0. -1.
         -2    1    3    3    0  502 -0.42013066991E+02 -0.36961732382E+01  0.20098433590E+00  0.42175821146E+02  0.00000000000E+00 0.  1.
<mgrwt>
<rscale>  0 0.90912698E+02</rscale>
<asrwt>0</asrwt>
<pdfrwt beam="2">  1        2 0.10299744E-01 0.90912698E+02</pdfrwt>
<pdfrwt beam="1">  1       -2 0.47482761E-02 0.90912698E+02</pdfrwt>
<totfact> 0.11016109E+05</totfact>
</mgrwt>
</event>
<event>
 5    1  0.3862918E+001  0.9346346E+02  0.7546771E-02  0.1294675E+00
          2   -1    0    0  501    0  0.00000000000E+00  0.00000000000E+00  0.16530192975E+04  0.16530192975E+04  0.00000000000E+00 0. -1.
         -2   -1    0    0    0  501 -0.00000000000E+00 -0.00000000000E+00 -0.13211308189E+01  0.13211308189E+01  0.00000000000E+00 0.  1.
         23    2    1    2    0    0  0.00000000000E+00  0.00000000000E+00  0.16516981667E+04  0.16543404283E+04  0.93463463196E+02 0.  0.
          2    1    3    3  502    0 -0.14292201713E+02 -0.15515081826E+02  0.15639513927E+04  0.15640936493E+04  0.00000000000E+00 0. -1.
         -2    1    3    3    0  502  0.14292201713E+02  0.15515081826E+02  0.87746773933E+02  0.90246779054E+02  0.00000000000E+00 0.  1.
<mgrwt>
<rscale>  0 0.93463463E+02</rscale>
<asrwt>0</asrwt>
<pdfrwt beam="1">  1        2 0.25430901E+00 0.93463463E+02</pdfrwt>
<pdfrwt beam="2">  1       -2 0.20325222E-03 0.93463463E+02</pdfrwt>
<totfact> 0.21150718E+05</totfact>
</mgrwt>
</event>
