<event>
 5    1  0.6085374E+000  0.8890010E+02  0.7546771E-02  0.1305537E+00
          2   -1    0    0  501    0  0.00000000000E+00  0.00000000000E+00  0.29937425355E+03  0.29937425355E+03  0.00000000000E+00 0. -1.
         -2   -1    0    0    0  501 -0.00000000000E+00 -0.00000000000E+00 -0.65997884012E+01  0.65997884012E+01  0.00000000000E+00 0.  1.
         23    2    1    2    0    0  0.00000000000E+00  0.00000000000E+00  0.29277446515E+03  0.30597404195E+03  0.88900095078E+02 0.  0.
        -13    1    3    3    0    0  0.42403395579E+02  0.68290985838E+01  0.18579850369E+03  0.19069810832E+03  0.00000000000E+00 0. -1.
         13    1    3    3    0    0 -0.42403395579E+02 -0.68290985838E+01  0.10697596146E+03  0.11527593363E+03  0.00000000000E+00 0.  1.
<mgrwt>
<rscale>  0 0.88900095E+02</rscale>
<asrwt>0</asrwt>
<pdfrwt beam="1">  1        2 0.46057567E-01 0.88900095E+02</pdfrwt>
<pdfrwt beam="2">  1       -2 0.10153523E-02 0.88900095E+02</pdfrwt>
<totfact> 0.19202641E+05</totfact>
</mgrwt>
</event>
<event>
 5    1  0.6085374E+000  0.9490533E+02  0.7546771E-02  0.1291389E+00
         -1   -1    0    0    0  501 -0.00000000000E+00  0.00000000000E+00  0.15327085238E+03  0.15327085238E+03  0.00000000000E+00 0.  1.
          1   -1    0    0  501    0  0.00000000000E+00 -0.00000000000E+00 -0.14691347277E+02  0.14691347277E+02  0.00000000000E+00 0. -1.
         23    2    1    2    0    0  0.00000000000E+00  0.00000000000E+00  0.13857950510E+03  0.16796219966E+03  0.94905327980E+02 0.  0.
        -13    1    3    3    0    0 -0.72656636013E+01 -0.24858964758E+02 -0.10800814476E+01  0.25921507910E+02  0.00000000000E+00 0. -1.
         13    1    3    3    0    0  0.72656636013E+01  0.24858964758E+02  0.13965958655E+03  0.14204069175E+03  0.00000000000E+00 0.  1.
<mgrwt>
<rscale>  0 0.94905328E+02</rscale>
<asrwt>0</asrwt>
<pdfrwt beam="2">  1        1 0.22602074E-02 0.94905328E+02</pdfrwt>
<pdfrwt beam="1">  1       -1 0.23580130E-01 0.94905328E+02</pdfrwt>
<totfact> 0.67042835E+04</totfact>
</mgrwt>
</event>
<event>
 5    1  0.6085374E+000  0.9178230E+02  0.7546771E-02  0.1298592E+00
          2   -1    0    0  501    0  0.00000000000E+00  0.00000000000E+00  0.90246142675E+02  0.90246142675E+02  0.00000000000E+00 0. -1.
         -2   -1    0    0    0  501 -0.00000000000E+00 -0.00000000000E+00 -0.23336152547E+02  0.23336152547E+02  0.00000000000E+00 0.  1.
         23    2    1    2    0    0  0.00000000000E+00  0.00000000000E+00  0.66909990128E+02  0.11358229522E+03  0.91782302265E+02 0.  0.
        -13    1    3    3    0    0 -0.36464209476E+01  0.32493672244E+02  0.73303525002E+02  0.80265446485E+02  0.00000000000E+00 0. -1.
         13    1    3    3    0    0  0.36464209476E+01 -0.32493672244E+02 -0.63935348744E+01  0.33316848738E+02  0.00000000000E+00 0.  1.
<mgrwt>
<rscale>  0 0.91782302E+02</rscale>
<asrwt>0</asrwt>
<pdfrwt beam="1">  1        2 0.13884022E-01 0.91782302E+02</pdfrwt>
<pdfrwt beam="2">  1       -2 0.35901774E-02 0.91782302E+02</pdfrwt>
<totfact> 0.11679457E+05</totfact>
</mgrwt>
</event>
<event>
 5    1  0.6085374E+000  0.9091236E+02  0.7546771E-02  0.1300657E+00
          1   -1    0    0  501    0  0.00000000000E+00  0.00000000000E+00  0.65378063767E+02  0.65378063767E+02  0.00000000000E+00 0. -1.
         -1   -1    0    0    0  501 -0.00000000000E+00 -0.00000000000E+00 -0.31604856019E+02  0.31604856019E+02  0.00000000000E+00 0.  1.
         23    2    1    2    0    0  0.00000000000E+00  0.00000000000E+00  0.33773207748E+02  0.96982919786E+02  0.90912359823E+02 0.  0.
        -13    1    3    3    0    0  0.40344213623E+02 -0.78032840635E+01 -0.38460961528E+01  0.41271530995E+02  0.00000000000E+00 0.  1.
         13    1    3    3    0    0 -0.40344213623E+02  0.78032840635E+01  0.37619303901E+02  0.55711388791E+02  0.00000000000E+00 0. -1.
<mgrwt>
<rscale>  0 0.90912360E+02</rscale>
<asrwt>0</asrwt>
<pdfrwt beam="1">  1        1 0.10058164E-01 0.90912360E+02</pdfrwt>
<pdfrwt beam="2">  1       -1 0.48622856E-02 0.90912360E+02</pdfrwt>
<totfact> 0.98424611E+04</totfact>
</mgrwt>
</event>
<event>
 5    1  0.6085374E+000  0.9206803E+02  0.7546771E-02  0.1297920E+00
         -2   -1    0    0    0  501 -0.00000000000E+00  0.00000000000E+00  0.17298895807E+03  0.17298895807E+03  0.00000000000E+00 0. -1.
          2   -1    0    0  501    0  0.00000000000E+00 -0.00000000000E+00 -0.12250092489E+02  0.12250092489E+02  0.00000000000E+00 0.  1.
         23    2    1    2    0    0  0.00000000000E+00  0.00000000000E+00  0.16073886558E+03  0.18523905056E+03  0.92068034321E+02 0.  0.
        -13    1    3    3    0    0 -0.17364466556E+02 -0.35314328301E+02  0.12842604138E+03  0.13432004537E+03  0.00000000000E+00 0. -1.
         13    1    3    3    0    0  0.17364466556E+02  0.35314328301E+02  0.32312824197E+02  0.50919005191E+02  0.00000000000E+00 0.  1.
<mgrwt>
<rscale>  0 0.92068034E+02</rscale>
<asrwt>0</asrwt>
<pdfrwt beam="2">  1        2 0.18846297E-02 0.92068034E+02</pdfrwt>
<pdfrwt beam="1">  1       -2 0.26613684E-01 0.92068034E+02</pdfrwt>
<totfact> 0.64559799E+04</totfact>
</mgrwt>
</event>
<event>
 5    1  0.6085374E+000  0.9136319E+02  0.7546771E-02  0.1299584E+00
         -2   -1    0    0    0  501 -0.00000000000E+00  0.00000000000E+00  0.75011391518E+02  0.75011391518E+02  0.00000000000E+00 0. -1.
          2   -1    0    0  501    0  0.00000000000E+00 -0.00000000000E+00 -0.27819884606E+02  0.27819884606E+02  0.00000000000E+00 0.  1.
         23    2    1    2    0    0  0.00000000000E+00  0.00000000000E+00  0.47191506912E+02  0.10283127612E+03  0.91363192942E+02 0.  0.
        -13    1    3    3    0    0  0.36012486169E+02  0.90004778089E+01 -0.63714762254E+01  0.37663025239E+02  0.00000000000E+00 0.  1.
         13    1    3    3    0    0 -0.36012486169E+02 -0.90004778089E+01  0.53562983137E+02  0.65168250885E+02  0.00000000000E+00 0. -1.
<mgrwt>
<rscale>  0 0.91363193E+02</rscale>
<asrwt>0</asrwt>
<pdfrwt beam="2">  1        2 0.42799823E-02 0.91363193E+02</pdfrwt>
<pdfrwt beam="1">  1       -2 0.11540214E-01 0.91363193E+02</pdfrwt>
<totfact> 0.86160202E+04</totfact>
</mgrwt>
</event>
<event>
 5    1  0.6085374E+000  0.9810373E+02  0.7546771E-02  0.1284335E+00
         -4   -1    0    0    0  501 -0.00000000000E+00  0.00000000000E+00  0.27232107295E+02  0.27232107295E+02  0.00000000000E+00 0.  1.
          4   -1    0    0  501    0  0.00000000000E+00 -0.00000000000E+00 -0.88354723713E+02  0.88354723713E+02  0.00000000000E+00 0. -1.
         23    2    1    2    0    0  0.00000000000E+00  0.00000000000E+00 -0.61122616418E+02  0.11558683101E+03  0.98103727069E+02 0.  0.
        -13    1    3    3    0    0  0.31284831013E+02 -0.84286067503E+00  0.13940655290E+02  0.34260661634E+02  0.00000000000E+00 0.  1.
         13    1    3    3    0    0 -0.31284831013E+02  0.84286067503E+00 -0.75063271708E+02  0.81326169375E+02  0.00000000000E+00 0. -1.
<mgrwt>
<rscale>  0 0.98103727E+02</rscale>
<asrwt>0</asrwt>
<pdfrwt beam="2">  1        4 0.13593035E-01 0.98103727E+02</pdfrwt>
<pdfrwt beam="1">  1       -4 0.41895549E-02 0.98103727E+02</pdfrwt>
<totfact> 0.20914533E+04</totfact>
</mgrwt>
</event>
<event>
 5    1  0.6085374E+000  0.9463270E+02  0.7546771E-02  0.1292005E+00
         -1   -1    0    0    0  501 -0.00000000000E+00  0.00000000000E+00  0.69238612192E+02  0.69238612192E+02  0.00000000000E+00 0.  1.
          1   -1    0    0  501    0  0.00000000000E+00 -0.00000000000E+00 -0.32335095877E+02  0.32335095877E+02  0.00000000000E+00 0. -1.
         23    2    1    2    0    0  0.00000000000E+00  0.00000000000E+00  0.36903516314E+02  0.10157370807E+03  0.94632703938E+02 0.  0.
        -13    1    3    3    0    0  0.61343666516E+01 -0.42626616418E+02  0.39489855632E+02  0.58430365216E+02  0.00000000000E+00 0.  1.
         13    1    3    3    0    0 -0.61343666516E+01  0.42626616418E+02 -0.25863393172E+01  0.43143342853E+02  0.00000000000E+00 0. -1.
<mgrwt>
<rscale>  0 0.94632704E+02</rscale>
<asrwt>0</asrwt>
<pdfrwt beam="2">  1        1 0.49746301E-02 0.94632704E+02</pdfrwt>
<pdfrwt beam="1">  1       -1 0.10652094E-01 0.94632704E+02</pdfrwt>
<totfact> 0.78842216E+04</totfact>
</mgrwt>
</event>
<event>
 5    1  0.6085374E+000  0.8102881E+02  0.7546771E-02  0.1326157E+00
          3   -1    0    0  501    0  0.00000000000E+00  0.00000000000E+00  0.12738306424E+03  0.12738306424E+03  0.00000000000E+00 0. -1.
         -3   -1    0    0    0  501 -0.00000000000E+00 -0.00000000000E+00 -0.12885677856E+02  0.12885677856E+02  0.00000000000E+00 0.  1.
         23    2    1    2    0    0  0.00000000000E+00  0.00000000000E+00  0.11449738638E+03  0.14026874209E+03  0.81028812902E+02 0.  0.
        -13    1    3    3    0    0  0.27127768221E+02  0.48174361581E+00  0.10933341021E+03  0.11264964480E+03  0.00000000000E+00 0. -1.
         13    1    3    3    0    0 -0.27127768221E+02 -0.48174361581E+00  0.51639761751E+01  0.27619097297E+02  0.00000000000E+00 0.  1.
<mgrwt>
<rscale>  0 0.81028813E+02</rscale>
<asrwt>0</asrwt>
<pdfrwt beam="1">  1        3 0.19597394E-01 0.81028813E+02</pdfrwt>
<pdfrwt beam="2">  1       -3 0.19824121E-02 0.81028813E+02</pdfrwt>
<totfact> 0.43826543E+04</totfact>
</mgrwt>
</event>
<event>
 5    1  0.6085374E+000  0.9768789E+02  0.7546771E-02  0.1285235E+00
          2   -1    0    0  501    0  0.00000000000E+00  0.00000000000E+00  0.10601615093E+03  0.10601615093E+03  0.00000000000E+00 0.  1.
         -2   -1    0    0    0  501 -0.00000000000E+00 -0.00000000000E+00 -0.22503465614E+02  0.22503465614E+02  0.00000000000E+00 0. -1.
         23    2    1    2    0    0  0.00000000000E+00  0.00000000000E+00  0.83512685314E+02  0.12851961654E+03  0.97687886802E+02 0.  0.
        -13    1    3    3    0    0  0.36097119169E+02  0.29878081991E+02  0.59892223779E+02  0.76044593923E+02  0.00000000000E+00 0.  1.
         13    1    3    3    0    0 -0.36097119169E+02 -0.29878081991E+02  0.23620461535E+02  0.52475022619E+02  0.00000000000E+00 0. -1.
<mgrwt>
<rscale>  0 0.97687887E+02</rscale>
<asrwt>0</asrwt>
<pdfrwt beam="1">  1        2 0.16310177E-01 0.97687887E+02</pdfrwt>
<pdfrwt beam="2">  1       -2 0.34620717E-02 0.97687887E+02</pdfrwt>
<totfact> 0.10322668E+05</totfact>
</mgrwt>
</event>
<event>
 5    1  0.6085374E+000  0.9096663E+02  0.7546771E-02  0.1300528E+00
         -1   -1    0    0    0  501 -0.00000000000E+00  0.00000000000E+00  0.13773869941E+02  0.13773869941E+02  0.00000000000E+00 0.  1.
          1   -1    0    0  501    0  0.00000000000E+00 -0.00000000000E+00 -0.15019250142E+03  0.15019250142E+03  0.00000000000E+00 0. -1.
         23    2    1    2    0    0  0.00000000000E+00  0.00000000000E+00 -0.13641863147E+03  0.16396637136E+03  0.90966630820E+02 0.  0.
        -13    1    3    3    0    0 -0.33553943241E+02 -0.50680611378E+01 -0.13620977200E+02  0.36566150612E+02  0.00000000000E+00 0.  1.
         13    1    3    3    0    0  0.33553943241E+02  0.50680611378E+01 -0.12279765427E+03  0.12740022075E+03  0.00000000000E+00 0. -1.
<mgrwt>
<rscale>  0 0.90966631E+02</rscale>
<asrwt>0</asrwt>
<pdfrwt beam="2">  1        1 0.23106538E-01 0.90966631E+02</pdfrwt>
<pdfrwt beam="1">  1       -1 0.21190570E-02 0.90966631E+02</pdfrwt>
<totfact> 0.11285986E+05</totfact>
</mgrwt>
</event>
<event>
 5    1  0.6085374E+000  0.9082839E+02  0.7546771E-02  0.1300858E+00
         -2   -1    0    0    0  501 -0.00000000000E+00  0.00000000000E+00  0.15246597611E+02  0.15246597611E+02  0.00000000000E+00 0. -1.
          2   -1    0    0  501    0  0.00000000000E+00 -0.00000000000E+00 -0.13527274528E+03  0.13527274528E+03  0.00000000000E+00 0.  1.
         23    2    1    2    0    0  0.00000000000E+00  0.00000000000E+00 -0.12002614767E+03  0.15051934290E+03  0.90828390168E+02 0.  0.
        -13    1    3    3    0    0  0.36539481768E+02  0.20360326525E+02 -0.89320992079E+02  0.98630199483E+02  0.00000000000E+00 0.  1.
         13    1    3    3    0    0 -0.36539481768E+02 -0.20360326525E+02 -0.30705155594E+02  0.51889143413E+02  0.00000000000E+00 0. -1.
<mgrwt>
<rscale>  0 0.90828390E+02</rscale>
<asrwt>0</asrwt>
<pdfrwt beam="2">  1        2 0.20811192E-01 0.90828390E+02</pdfrwt>
<pdfrwt beam="1">  1       -2 0.23456304E-02 0.90828390E+02</pdfrwt>
<totfact> 0.13645465E+05</totfact>
</mgrwt>
</event>
<event>
 5    1  0.6085374E+000  0.8885077E+02  0.7546771E-02  0.1305659E+00
         -2   -1    0    0    0  501 -0.00000000000E+00  0.00000000000E+00  0.20355622352E+02  0.20355622352E+02  0.00000000000E+00 0. -1.
          2   -1    0    0  501    0  0.00000000000E+00 -0.00000000000E+00 -0.96956741877E+02  0.96956741877E+02  0.00000000000E+00 0.  1.
         23    2    1    2    0    0  0.00000000000E+00  0.00000000000E+00 -0.76601119524E+02  0.11731236423E+03  0.88850769769E+02 0.  0.
        -13    1    3    3    0    0  0.35526558652E+02  0.25767048089E+02 -0.47403917470E+02  0.64600375605E+02  0.00000000000E+00 0. -1.
         13    1    3    3    0    0 -0.35526558652E+02 -0.25767048089E+02 -0.29197202054E+02  0.52711988624E+02  0.00000000000E+00 0.  1.
<mgrwt>
<rscale>  0 0.88850770E+02</rscale>
<asrwt>0</asrwt>
<pdfrwt beam="2">  1        2 0.14916421E-01 0.88850770E+02</pdfrwt>
<pdfrwt beam="1">  1       -2 0.31316343E-02 0.88850770E+02</pdfrwt>
<totfact> 0.13047973E+05</totfact>
</mgrwt>
</event>
<event>
 5    1  0.6085374E+000  0.9058448E+02  0.7546771E-02  0.1301442E+00
         -2   -1    0    0    0  501 -0.00000000000E+00  0.00000000000E+00  0.89856006645E+01  0.89856006645E+01  0.00000000000E+00 0.  1.
          2   -1    0    0  501    0  0.00000000000E+00 -0.00000000000E+00 -0.22829716015E+03  0.22829716015E+03  0.00000000000E+00 0. -1.
         23    2    1    2    0    0  0.00000000000E+00  0.00000000000E+00 -0.21931155948E+03  0.23728276081E+03  0.90584482422E+02 0.  0.
        -13    1    3    3    0    0  0.30143639074E+02 -0.15602887165E+02 -0.18820903831E+03  0.19124521214E+03  0.00000000000E+00 0. -1.
         13    1    3    3    0    0 -0.30143639074E+02  0.15602887165E+02 -0.31102521173E+02  0.46037548673E+02  0.00000000000E+00 0.  1.
<mgrwt>
<rscale>  0 0.90584482E+02</rscale>
<asrwt>0</asrwt>
<pdfrwt beam="2">  1        2 0.35122645E-01 0.90584482E+02</pdfrwt>
<pdfrwt beam="1">  1       -2 0.13823999E-02 0.90584482E+02</pdfrwt>
<totfact> 0.16519266E+05</totfact>
</mgrwt>
</event>
<event>
 5    1  0.6085374E+000  0.9232536E+02  0.7546771E-02  0.1297316E+00
         -4   -1    0    0    0  501 -0.00000000000E+00  0.00000000000E+00  0.99493692887E+01  0.99493692887E+01  0.00000000000E+00 0.  1.
          4   -1    0    0  501    0  0.00000000000E+00 -0.00000000000E+00 -0.21418371474E+03  0.21418371474E+03  0.00000000000E+00 0. -1.
         23    2    1    2    0    0  0.00000000000E+00  0.00000000000E+00 -0.20423434545E+03  0.22413308403E+03  0.92325356725E+02 0.  0.
        -13    1    3    3    0    0 -0.39910655148E+02 -0.19259201653E+02 -0.70724853032E+02  0.83461260948E+02  0.00000000000E+00 0.  1.
         13    1    3    3    0    0  0.39910655148E+02  0.19259201653E+02 -0.13350949242E+03  0.14067182308E+03  0.00000000000E+00 0. -1.
<mgrwt>
<rscale>  0 0.92325357E+02</rscale>
<asrwt>0</asrwt>
<pdfrwt beam="2">  1        4 0.32951337E-01 0.92325357E+02</pdfrwt>
<pdfrwt beam="1">  1       -4 0.15306724E-02 0.92325357E+02</pdfrwt>
<totfact> 0.19745346E+04</totfact>
</mgrwt>
</event>
<event>
 5    1  0.6085374E+000  0.9315042E+02  0.7546771E-02  0.1295397E+00
         -2   -1    0    0    0  501 -0.00000000000E+00  0.00000000000E+00  0.32214923542E+02  0.32214923542E+02  0.00000000000E+00 0.  1.
          2   -1    0    0  501    0  0.00000000000E+00 -0.00000000000E+00 -0.67336806537E+02  0.67336806537E+02  0.00000000000E+00 0. -1.
         23    2    1    2    0    0  0.00000000000E+00  0.00000000000E+00 -0.35121882995E+02  0.99551730079E+02  0.93150417586E+02 0.  0.
        -13    1    3    3    0    0 -0.17363494816E+02 -0.14470969149E+02  0.25960385220E+02  0.34421526711E+02  0.00000000000E+00 0.  1.
         13    1    3    3    0    0  0.17363494816E+02  0.14470969149E+02 -0.61082268216E+02  0.65130203368E+02  0.00000000000E+00 0. -1.
<mgrwt>
<rscale>  0 0.93150418E+02</rscale>
<asrwt>0</asrwt>
<pdfrwt beam="2">  1        2 0.10359509E-01 0.93150418E+02</pdfrwt>
<pdfrwt beam="1">  1       -2 0.49561422E-02 0.93150418E+02</pdfrwt>
<totfact> 0.10304872E+05</totfact>
</mgrwt>
</event>
<event>
 5    1  0.6085374E+000  0.9087413E+02  0.7546771E-02  0.1300749E+00
          1   -1    0    0  501    0  0.00000000000E+00  0.00000000000E+00  0.47062189927E+02  0.47062189927E+02  0.00000000000E+00 0. -1.
         -1   -1    0    0    0  501 -0.00000000000E+00 -0.00000000000E+00 -0.43868059474E+02  0.43868059474E+02  0.00000000000E+00 0.  1.
         23    2    1    2    0    0  0.00000000000E+00  0.00000000000E+00  0.31941304524E+01  0.90930249401E+02  0.90874131560E+02 0.  0.
        -13    1    3    3    0    0  0.42873576965E+01  0.35527385839E+02  0.29613469289E+02  0.46449264192E+02  0.00000000000E+00 0. -1.
         13    1    3    3    0    0 -0.42873576965E+01 -0.35527385839E+02 -0.26419338837E+02  0.44480985209E+02  0.00000000000E+00 0.  1.
<mgrwt>
<rscale>  0 0.90874132E+02</rscale>
<asrwt>0</asrwt>
<pdfrwt beam="1">  1        1 0.72403369E-02 0.90874132E+02</pdfrwt>
<pdfrwt beam="2">  1       -1 0.67489322E-02 0.90874132E+02</pdfrwt>
<totfact> 0.93785280E+04</totfact>
</mgrwt>
</event>
<event>
 5    1  0.6085374E+000  0.8578235E+02  0.7546771E-02  0.1313399E+00
         -2   -1    0    0    0  501 -0.00000000000E+00  0.00000000000E+00  0.88558387627E+01  0.88558387627E+01  0.00000000000E+00 0.  1.
          2   -1    0    0  501    0  0.00000000000E+00 -0.00000000000E+00 -0.20773331496E+03  0.20773331496E+03  0.00000000000E+00 0. -1.
         23    2    1    2    0    0  0.00000000000E+00  0.00000000000E+00 -0.19887747620E+03  0.21658915373E+03  0.85782346504E+02 0.  0.
        -13    1    3    3    0    0 -0.39634748195E+02 -0.15934100114E+02 -0.10916650737E+03  0.11722685333E+03  0.00000000000E+00 0.  1.
         13    1    3    3    0    0  0.39634748195E+02  0.15934100114E+02 -0.89710968830E+02  0.99362300393E+02  0.00000000000E+00 0. -1.
<mgrwt>
<rscale>  0 0.85782347E+02</rscale>
<asrwt>0</asrwt>
<pdfrwt beam="2">  1        2 0.31958969E-01 0.85782347E+02</pdfrwt>
<pdfrwt beam="1">  1       -2 0.13624368E-02 0.85782347E+02</pdfrwt>
<totfact> 0.18465078E+05</totfact>
</mgrwt>
</event>
<event>
 5    1  0.6085374E+000  0.9232077E+02  0.7546771E-02  0.1297327E+00
          1   -1    0    0  501    0  0.00000000000E+00  0.00000000000E+00  0.10030134325E+02  0.10030134325E+02  0.00000000000E+00 0. -1.
         -1   -1    0    0    0  501 -0.00000000000E+00 -0.00000000000E+00 -0.21243792589E+03  0.21243792589E+03  0.00000000000E+00 0.  1.
         23    2    1    2    0    0  0.00000000000E+00  0.00000000000E+00 -0.20240779156E+03  0.22246806021E+03  0.92320765430E+02 0.  0.
        -13    1    3    3    0    0  0.17939540113E+02  0.41631759765E+02 -0.80230885458E+02  0.92152186637E+02  0.00000000000E+00 0.  1.
         13    1    3    3    0    0 -0.17939540113E+02 -0.41631759765E+02 -0.12217690610E+03  0.13031587357E+03  0.00000000000E+00 0. -1.
<mgrwt>
<rscale>  0 0.92320765E+02</rscale>
<asrwt>0</asrwt>
<pdfrwt beam="1">  1        1 0.15430975E-02 0.92320765E+02</pdfrwt>
<pdfrwt beam="2">  1       -1 0.32682759E-01 0.92320765E+02</pdfrwt>
<totfact> 0.66026025E+04</totfact>
</mgrwt>
</event>
<event>
 5    1  0.6085374E+000  0.9617849E+02  0.7546771E-02  0.1288544E+00
         -4   -1    0    0    0  501 -0.00000000000E+00  0.00000000000E+00  0.45059190228E+02  0.45059190228E+02  0.00000000000E+00 0.  1.
          4   -1    0    0  501    0  0.00000000000E+00 -0.00000000000E+00 -0.51323059107E+02  0.51323059107E+02  0.00000000000E+00 0. -1.
         23    2    1    2    0    0  0.00000000000E+00  0.00000000000E+00 -0.62638688795E+01  0.96382249335E+02  0.96178489973E+02 0.  0.
        -13    1    3    3    0    0  0.22924442590E+01  0.44969071509E+02  0.13788824452E+02  0.47091446918E+02  0.00000000000E+00 0.  1.
         13    1    3    3    0    0 -0.22924442590E+01 -0.44969071509E+02 -0.20052693332E+02  0.49290802417E+02  0.00000000000E+00 0. -1.
<mgrwt>
<rscale>  0 0.96178490E+02</rscale>
<asrwt>0</asrwt>
<pdfrwt beam="2">  1        4 0.78958553E-02 0.96178490E+02</pdfrwt>
<pdfrwt beam="1">  1       -4 0.69321831E-02 0.96178490E+02</pdfrwt>
<totfact> 0.23068434E+04</totfact>
</mgrwt>
</event>
<event>
 5    1  0.6085374E+000  0.8935050E+02  0.7546771E-02  0.1304432E+00
          1   -1    0    0  501    0  0.00000000000E+00  0.00000000000E+00  0.77664782421E+01  0.77664782421E+01  0.00000000000E+00 0. -1.
         -1   -1    0    0    0  501 -0.00000000000E+00 -0.00000000000E+00 -0.25698620399E+03  0.25698620399E+03  0.00000000000E+00 0.  1.
         23    2    1    2    0    0  0.00000000000E+00  0.00000000000E+00 -0.24921972575E+03  0.26475268223E+03  0.89350495507E+02 0.  0.
        -13    1    3    3    0    0 -0.39466238622E+02  0.28286203823E+01 -0.18607450838E+03  0.19023487523E+03  0.00000000000E+00 0.  1.
         13    1    3    3    0    0  0.39466238622E+02 -0.28286203823E+01 -0.63145217367E+02  0.74517807003E+02  0.00000000000E+00 0. -1.
<mgrwt>
<rscale>  0 0.89350496E+02</rscale>
<asrwt>0</asrwt>
<pdfrwt beam="1">  1        1 0.11948429E-02 0.89350496E+02</pdfrwt>
<pdfrwt beam="2">  1       -1 0.39536337E-01 0.89350496E+02</pdfrwt>
<totfact> 0.67633433E+04</totfact>
</mgrwt>
</event>
<event>
 5    1  0.6085374E+000  0.9140912E+02  0.7546771E-02  0.1299475E+00
         -3   -1    0    0    0  501 -0.00000000000E+00  0.00000000000E+00  0.20805087614E+03  0.20805087614E+03  0.00000000000E+00 0.  1.
          3   -1    0    0  501    0  0.00000000000E+00 -0.00000000000E+00 -0.10040366132E+02  0.10040366132E+02  0.00000000000E+00 0. -1.
         23    2    1    2    0    0  0.00000000000E+00  0.00000000000E+00  0.19801051001E+03  0.21809124228E+03  0.91409123628E+02 0.  0.
        -13    1    3    3    0    0  0.38658245278E+02 -0.74538606274E+01  0.43619569376E+02  0.58759567721E+02  0.00000000000E+00 0. -1.
         13    1    3    3    0    0 -0.38658245278E+02  0.74538606274E+01  0.15439094063E+03  0.15933167455E+03  0.00000000000E+00 0.  1.
<mgrwt>
<rscale>  0 0.91409124E+02</rscale>
<asrwt>0</asrwt>
<pdfrwt beam="2">  1        3 0.15446719E-02 0.91409124E+02</pdfrwt>
<pdfrwt beam="1">  1       -3 0.32007824E-01 0.91409124E+02</pdfrwt>
<totfact> 0.27398407E+04</totfact>
</mgrwt>
</event>
<event>
 5    1  0.6085374E+000  0.9105905E+02  0.7546771E-02  0.1300307E+00
          2   -1    0    0  501    0  0.00000000000E+00  0.00000000000E+00  0.47151227640E+03  0.47151227640E+03  0.00000000000E+00 0. -1.
         -2   -1    0    0    0  501 -0.00000000000E+00 -0.00000000000E+00 -0.43963598922E+01  0.43963598922E+01  0.00000000000E+00 0.  1.
         23    2    1    2    0    0  0.00000000000E+00  0.00000000000E+00  0.46711591651E+03  0.47590863629E+03  0.91059050306E+02 0.  0.
        -13    1    3    3    0    0  0.44903585103E+02  0.24624601062E+01  0.27071376223E+03  0.27442364461E+03  0.00000000000E+00 0.  1.
         13    1    3    3    0    0 -0.44903585103E+02 -0.24624601062E+01  0.19640215428E+03  0.20148499168E+03  0.00000000000E+00 0. -1.
<mgrwt>
<rscale>  0 0.91059050E+02</rscale>
<asrwt>0</asrwt>
<pdfrwt beam="1">  1        2 0.72540310E-01 0.91059050E+02</pdfrwt>
<pdfrwt beam="2">  1       -2 0.67636343E-03 0.91059050E+02</pdfrwt>
<totfact> 0.21208660E+05</totfact>
</mgrwt>
</event>
<event>
 5    1  0.6085374E+000  0.9153934E+02  0.7546771E-02  0.1299166E+00
          2   -1    0    0  501    0  0.00000000000E+00  0.00000000000E+00  0.22171019394E+02  0.22171019394E+02  0.00000000000E+00 0.  1.
         -2   -1    0    0    0  501 -0.00000000000E+00 -0.00000000000E+00 -0.94486537132E+02  0.94486537132E+02  0.00000000000E+00 0. -1.
         23    2    1    2    0    0  0.00000000000E+00  0.00000000000E+00 -0.72315517738E+02  0.11665755653E+03  0.91539343393E+02 0.  0.
        -13    1    3    3    0    0 -0.38171315613E+02  0.20925025595E+02 -0.18136995317E+02  0.47157784415E+02  0.00000000000E+00 0.  1.
         13    1    3    3    0    0  0.38171315613E+02 -0.20925025595E+02 -0.54178522421E+02  0.69499772111E+02  0.00000000000E+00 0. -1.
<mgrwt>
<rscale>  0 0.91539343E+02</rscale>
<asrwt>0</asrwt>
<pdfrwt beam="1">  1        2 0.34109261E-02 0.91539343E+02</pdfrwt>
<pdfrwt beam="2">  1       -2 0.14536390E-01 0.91539343E+02</pdfrwt>
<totfact> 0.80357616E+04</totfact>
</mgrwt>
</event>
<event>
 5    1  0.6085374E+000  0.9041747E+02  0.7546771E-02  0.1301844E+00
          1   -1    0    0  501    0  0.00000000000E+00  0.00000000000E+00  0.24807839824E+02  0.24807839824E+02  0.00000000000E+00 0. -1.
         -1   -1    0    0    0  501 -0.00000000000E+00 -0.00000000000E+00 -0.82386451104E+02  0.82386451104E+02  0.00000000000E+00 0.  1.
         23    2    1    2    0    0  0.00000000000E+00  0.00000000000E+00 -0.57578611279E+02  0.10719429093E+03  0.90417473592E+02 0.  0.
        -13    1    3    3    0    0 -0.23593417041E+02 -0.36556341838E+02 -0.43348613563E+02  0.61417568773E+02  0.00000000000E+00 0.  1.
         13    1    3    3    0    0  0.23593417041E+02  0.36556341838E+02 -0.14229997717E+02  0.45776722155E+02  0.00000000000E+00 0. -1.
<mgrwt>
<rscale>  0 0.90417474E+02</rscale>
<asrwt>0</asrwt>
<pdfrwt beam="1">  1        1 0.38165908E-02 0.90417474E+02</pdfrwt>
<pdfrwt beam="2">  1       -1 0.12674839E-01 0.90417474E+02</pdfrwt>
<totfact> 0.86051487E+04</totfact>
</mgrwt>
</event>
<event>
 5    1  0.6085374E+000  0.9040255E+02  0.7546771E-02  0.1301880E+00
          2   -1    0    0  501    0  0.00000000000E+00  0.00000000000E+00  0.10457934303E+02  0.10457934303E+02  0.00000000000E+00 0. -1.
         -2   -1    0    0    0  501 -0.00000000000E+00 -0.00000000000E+00 -0.19536890701E+03  0.19536890701E+03  0.00000000000E+00 0.  1.
         23    2    1    2    0    0  0.00000000000E+00  0.00000000000E+00 -0.18491097271E+03  0.20582684132E+03  0.90402548513E+02 0.  0.
        -13    1    3    3    0    0 -0.23665641770E+02 -0.16710851599E+02 -0.17145160006E+03  0.17388204716E+03  0.00000000000E+00 0.  1.
         13    1    3    3    0    0  0.23665641770E+02  0.16710851599E+02 -0.13459372650E+02  0.31944794156E+02  0.00000000000E+00 0. -1.
<mgrwt>
<rscale>  0 0.90402549E+02</rscale>
<asrwt>0</asrwt>
<pdfrwt beam="1">  1        2 0.16089131E-02 0.90402549E+02</pdfrwt>
<pdfrwt beam="2">  1       -2 0.30056753E-01 0.90402549E+02</pdfrwt>
<totfact> 0.64334127E+04</totfact>
</mgrwt>
</event>
<event>
 5    1  0.6085374E+000  0.9100619E+02  0.7546771E-02  0.1300433E+00
         -3   -1    0    0    0  501 -0.00000000000E+00  0.00000000000E+00  0.27971169152E+03  0.27971169152E+03  0.00000000000E+00 0.  1.
          3   -1    0    0  501    0  0.00000000000E+00 -0.00000000000E+00 -0.74023780921E+01  0.74023780921E+01  0.00000000000E+00 0. -1.
         23    2    1    2    0    0  0.00000000000E+00  0.00000000000E+00  0.27230931343E+03  0.28711406961E+03  0.91006190941E+02 0.  0.
        -13    1    3    3    0    0  0.36798080901E+02 -0.78640403209E+01  0.55437072115E+02  0.67001573510E+02  0.00000000000E+00 0.  1.
         13    1    3    3    0    0 -0.36798080901E+02  0.78640403209E+01  0.21687224131E+03  0.22011249610E+03  0.00000000000E+00 0. -1.
<mgrwt>
<rscale>  0 0.91006191E+02</rscale>
<asrwt>0</asrwt>
<pdfrwt beam="2">  1        3 0.11388276E-02 0.91006191E+02</pdfrwt>
<pdfrwt beam="1">  1       -3 0.43032560E-01 0.91006191E+02</pdfrwt>
<totfact> 0.24655475E+04</totfact>
</mgrwt>
</event>
<event>
 5    1  0.6085374E+000  0.9190651E+02  0.7546771E-02  0.1298299E+00
          1   -1    0    0  501    0  0.00000000000E+00  0.00000000000E+00  0.11026562043E+03  0.11026562043E+03  0.00000000000E+00 0. -1.
         -1   -1    0    0    0  501 -0.00000000000E+00 -0.00000000000E+00 -0.19151044605E+02  0.19151044605E+02  0.00000000000E+00 0.  1.
         23    2    1    2    0    0  0.00000000000E+00  0.00000000000E+00  0.91114575824E+02  0.12941666503E+03  0.91906513703E+02 0.  0.
        -13    1    3    3    0    0  0.56518154190E+01  0.36230732121E+02  0.84557581707E+02  0.92166119543E+02  0.00000000000E+00 0. -1.
         13    1    3    3    0    0 -0.56518154190E+01 -0.36230732121E+02  0.65569941175E+01  0.37250545491E+02  0.00000000000E+00 0.  1.
<mgrwt>
<rscale>  0 0.91906514E+02</rscale>
<asrwt>0</asrwt>
<pdfrwt beam="1">  1        1 0.16963941E-01 0.91906514E+02</pdfrwt>
<pdfrwt beam="2">  1       -1 0.29463146E-02 0.91906514E+02</pdfrwt>
<totfact> 0.10390397E+05</totfact>
</mgrwt>
</event>
<event>
 5    1  0.6085374E+000  0.9246130E+02  0.7546771E-02  0.1296998E+00
          1   -1    0    0  501    0  0.00000000000E+00  0.00000000000E+00  0.90857994829E+02  0.90857994829E+02  0.00000000000E+00 0.  1.
         -1   -1    0    0    0  501 -0.00000000000E+00 -0.00000000000E+00 -0.23523225989E+02  0.23523225989E+02  0.00000000000E+00 0. -1.
         23    2    1    2    0    0  0.00000000000E+00  0.00000000000E+00  0.67334768840E+02  0.11438122082E+03  0.92461303154E+02 0.  0.
        -13    1    3    3    0    0 -0.84281192245E+01 -0.34158516383E+02  0.70767885956E+02  0.79031203444E+02  0.00000000000E+00 0.  1.
         13    1    3    3    0    0  0.84281192245E+01  0.34158516383E+02 -0.34331171157E+01  0.35350017374E+02  0.00000000000E+00 0. -1.
<mgrwt>
<rscale>  0 0.92461303E+02</rscale>
<asrwt>0</asrwt>
<pdfrwt beam="1">  1        1 0.13978153E-01 0.92461303E+02</pdfrwt>
<pdfrwt beam="2">  1       -1 0.36189579E-02 0.92461303E+02</pdfrwt>
<totfact> 0.98953657E+04</totfact>
</mgrwt>
</event>
<event>
 4    1  0.6085374E+000  0.1479007E+03  0.7546771E-02  0.1203077E+00
         -3   -1    0    0    0  501 -0.00000000000E+00  0.00000000000E+00  0.79618883260E+01  0.79618883260E+01  0.00000000000E+00 0.  1.
          3   -1    0    0  501    0  0.00000000000E+00 -0.00000000000E+00 -0.68685438440E+03  0.68685438440E+03  0.00000000000E+00 0. -1.
        -13    1    1    2    0    0 -0.64363752894E+02  0.32281700504E+02 -0.41859597754E+03  0.42474391495E+03  0.00000000000E+00 0. -1.
         13    1    1    2    0    0  0.64363752894E+02 -0.32281700504E+02 -0.26029651853E+03  0.27007235777E+03  0.00000000000E+00 0.  1.
<mgrwt>
<rscale>  0 0.14790075E+03</rscale>
<asrwt>0</asrwt>
<pdfrwt beam="2">  1        3 0.10566990E+00 0.14790075E+03</pdfrwt>
<pdfrwt beam="1">  1       -3 0.12249060E-02 0.14790075E+03</pdfrwt>
<totfact> 0.37314405E+03</totfact>
</mgrwt>
</event>
<event>
 5    1  0.6085374E+000  0.9121016E+02  0.7546771E-02  0.1299947E+00
         -2   -1    0    0    0  501 -0.00000000000E+00  0.00000000000E+00  0.18730308108E+02  0.18730308108E+02  0.00000000000E+00 0.  1.
          2   -1    0    0  501    0  0.00000000000E+00 -0.00000000000E+00 -0.11104053618E+03  0.11104053618E+03  0.00000000000E+00 0. -1.
         23    2    1    2    0    0  0.00000000000E+00  0.00000000000E+00 -0.92310228076E+02  0.12977084429E+03  0.91210162925E+02 0.  0.
        -13    1    3    3    0    0 -0.26381012692E+02  0.24376885014E+02 -0.86135462180E+02  0.93324745907E+02  0.00000000000E+00 0. -1.
         13    1    3    3    0    0  0.26381012692E+02 -0.24376885014E+02 -0.61747658968E+01  0.36446098386E+02  0.00000000000E+00 0.  1.
<mgrwt>
<rscale>  0 0.91210163E+02</rscale>
<asrwt>0</asrwt>
<pdfrwt beam="2">  1        2 0.17083160E-01 0.91210163E+02</pdfrwt>
<pdfrwt beam="1">  1       -2 0.28815858E-02 0.91210163E+02</pdfrwt>
<totfact> 0.12658381E+05</totfact>
</mgrwt>
</event>
<event>
 5    1  0.6085374E+000  0.9381032E+02  0.7546771E-02  0.1293878E+00
         -3   -1    0    0    0  501 -0.00000000000E+00  0.00000000000E+00  0.53634051731E+02  0.53634051731E+02  0.00000000000E+00 0.  1.
          3   -1    0    0  501    0  0.00000000000E+00 -0.00000000000E+00 -0.41020474058E+02  0.41020474058E+02  0.00000000000E+00 0. -1.
         23    2    1    2    0    0  0.00000000000E+00  0.00000000000E+00  0.12613577673E+02  0.94654525789E+02  0.93810324115E+02 0.  0.
        -13    1    3    3    0    0 -0.57935183632E+01 -0.10403014076E+02 -0.39470048906E+02  0.41227082331E+02  0.00000000000E+00 0. -1.
         13    1    3    3    0    0  0.57935183632E+01  0.10403014076E+02  0.52083626579E+02  0.53427443458E+02  0.00000000000E+00 0.  1.
<mgrwt>
<rscale>  0 0.93810324E+02</rscale>
<asrwt>0</asrwt>
<pdfrwt beam="2">  1        3 0.63108421E-02 0.93810324E+02</pdfrwt>
<pdfrwt beam="1">  1       -3 0.82513927E-02 0.93810324E+02</pdfrwt>
<totfact> 0.32448324E+04</totfact>
</mgrwt>
</event>
<event>
 5    1  0.6085374E+000  0.9953043E+02  0.7546771E-02  0.1281286E+00
         -2   -1    0    0    0  501 -0.00000000000E+00  0.00000000000E+00  0.12819500027E+02  0.12819500027E+02  0.00000000000E+00 0.  1.
          2   -1    0    0  501    0  0.00000000000E+00 -0.00000000000E+00 -0.19318824747E+03  0.19318824747E+03  0.00000000000E+00 0. -1.
         23    2    1    2    0    0  0.00000000000E+00  0.00000000000E+00 -0.18036874745E+03  0.20600774750E+03  0.99530432405E+02 0.  0.
        -13    1    3    3    0    0 -0.86509859109E+01  0.48726776602E+02 -0.10102632071E+03  0.11249647013E+03  0.00000000000E+00 0. -1.
         13    1    3    3    0    0  0.86509859109E+01 -0.48726776602E+02 -0.79342426740E+02  0.93511277374E+02  0.00000000000E+00 0.  1.
<mgrwt>
<rscale>  0 0.99530432E+02</rscale>
<asrwt>0</asrwt>
<pdfrwt beam="2">  1        2 0.29721265E-01 0.99530432E+02</pdfrwt>
<pdfrwt beam="1">  1       -2 0.19722311E-02 0.99530432E+02</pdfrwt>
<totfact> 0.12044966E+05</totfact>
</mgrwt>
</event>
<event>
 5    1  0.6085374E+000  0.9150056E+02  0.7546771E-02  0.1299258E+00
          1   -1    0    0  501    0  0.00000000000E+00  0.00000000000E+00  0.55389171711E+02  0.55389171711E+02  0.00000000000E+00 0. -1.
         -1   -1    0    0    0  501 -0.00000000000E+00 -0.00000000000E+00 -0.37788760634E+02  0.37788760634E+02  0.00000000000E+00 0.  1.
         23    2    1    2    0    0  0.00000000000E+00  0.00000000000E+00  0.17600411077E+02  0.93177932345E+02  0.91500560687E+02 0.  0.
        -13    1    3    3    0    0 -0.17640023093E+02  0.34789261640E+02  0.33147175798E+02  0.51187873599E+02  0.00000000000E+00 0. -1.
         13    1    3    3    0    0  0.17640023093E+02 -0.34789261640E+02 -0.15546764722E+02  0.41990058746E+02  0.00000000000E+00 0.  1.
<mgrwt>
<rscale>  0 0.91500561E+02</rscale>
<asrwt>0</asrwt>
<pdfrwt beam="1">  1        1 0.85214111E-02 0.91500561E+02</pdfrwt>
<pdfrwt beam="2">  1       -1 0.58136555E-02 0.91500561E+02</pdfrwt>
<totfact> 0.94280422E+04</totfact>
</mgrwt>
</event>
<event>
 5    1  0.6085374E+000  0.9602447E+02  0.7546771E-02  0.1288885E+00
          2   -1    0    0  501    0  0.00000000000E+00  0.00000000000E+00  0.55043109029E+02  0.55043109029E+02  0.00000000000E+00 0. -1.
         -2   -1    0    0    0  501 -0.00000000000E+00 -0.00000000000E+00 -0.41879443552E+02  0.41879443552E+02  0.00000000000E+00 0.  1.
         23    2    1    2    0    0  0.00000000000E+00  0.00000000000E+00  0.13163665477E+02  0.96922552581E+02  0.96024471413E+02 0.  0.
        -13    1    3    3    0    0  0.98103148165E+01  0.63462919717E+01 -0.40422550687E+02  0.42077313396E+02  0.00000000000E+00 0.  1.
         13    1    3    3    0    0 -0.98103148165E+01 -0.63462919717E+01  0.53586216164E+02  0.54845239186E+02  0.00000000000E+00 0. -1.
<mgrwt>
<rscale>  0 0.96024471E+02</rscale>
<asrwt>0</asrwt>
<pdfrwt beam="1">  1        2 0.84681707E-02 0.96024471E+02</pdfrwt>
<pdfrwt beam="2">  1       -2 0.64429913E-02 0.96024471E+02</pdfrwt>
<totfact> 0.89427612E+04</totfact>
</mgrwt>
</event>
<event>
 5    1  0.6085374E+000  0.7981754E+02  0.7546771E-02  0.1329570E+00
          1   -1    0    0  501    0  0.00000000000E+00  0.00000000000E+00  0.17680880041E+03  0.17680880041E+03  0.00000000000E+00 0. -1.
         -1   -1    0    0    0  501 -0.00000000000E+00 -0.00000000000E+00 -0.90080929240E+01  0.90080929240E+01  0.00000000000E+00 0.  1.
         23    2    1    2    0    0  0.00000000000E+00  0.00000000000E+00  0.16780070748E+03  0.18581689333E+03  0.79817544534E+02 0.  0.
        -13    1    3    3    0    0  0.27651733048E+02 -0.19586579304E+02  0.34820638263E+02  0.48587336605E+02  0.00000000000E+00 0.  1.
         13    1    3    3    0    0 -0.27651733048E+02  0.19586579304E+02  0.13298006922E+03  0.13722955673E+03  0.00000000000E+00 0. -1.
<mgrwt>
<rscale>  0 0.79817545E+02</rscale>
<asrwt>0</asrwt>
<pdfrwt beam="1">  1        1 0.27201351E-01 0.79817545E+02</pdfrwt>
<pdfrwt beam="2">  1       -1 0.13858606E-02 0.79817545E+02</pdfrwt>
<totfact> 0.16488616E+05</totfact>
</mgrwt>
</event>
<event>
 5    1  0.6085374E+000  0.8919103E+02  0.7546771E-02  0.1304823E+00
         -4   -1    0    0    0  501 -0.00000000000E+00  0.00000000000E+00  0.12954413994E+02  0.12954413994E+02  0.00000000000E+00 0.  1.
          4   -1    0    0  501    0  0.00000000000E+00 -0.00000000000E+00 -0.15351988755E+03  0.15351988755E+03  0.00000000000E+00 0. -1.
         23    2    1    2    0    0  0.00000000000E+00  0.00000000000E+00 -0.14056547356E+03  0.16647430154E+03  0.89191034966E+02 0.  0.
        -13    1    3    3    0    0  0.20286751096E+02  0.39494698972E+02 -0.78063266787E+02  0.89806776684E+02  0.00000000000E+00 0. -1.
         13    1    3    3    0    0 -0.20286751096E+02 -0.39494698972E+02 -0.62502206768E+02  0.76667524858E+02  0.00000000000E+00 0.  1.
<mgrwt>
<rscale>  0 0.89191035E+02</rscale>
<asrwt>0</asrwt>
<pdfrwt beam="2">  1        4 0.23618444E-01 0.89191035E+02</pdfrwt>
<pdfrwt beam="1">  1       -4 0.19929867E-02 0.89191035E+02</pdfrwt>
<totfact> 0.24261467E+04</totfact>
</mgrwt>
</event>
<event>
 5    1  0.6085374E+000  0.9217984E+02  0.7546771E-02  0.1297657E+00
          2   -1    0    0  501    0  0.00000000000E+00  0.00000000000E+00  0.22265547154E+03  0.22265547154E+03  0.00000000000E+00 0. -1.
         -2   -1    0    0    0  501 -0.00000000000E+00 -0.00000000000E+00 -0.95406626802E+01  0.95406626802E+01  0.00000000000E+00 0.  1.
         23    2    1    2    0    0  0.00000000000E+00  0.00000000000E+00  0.21311480886E+03  0.23219613422E+03  0.92179840482E+02 0.  0.
        -13    1    3    3    0    0 -0.21616316000E+02 -0.39008880207E+02  0.13585990435E+03  0.14299255737E+03  0.00000000000E+00 0. -1.
         13    1    3    3    0    0  0.21616316000E+02  0.39008880207E+02  0.77254904505E+02  0.89203576848E+02  0.00000000000E+00 0.  1.
<mgrwt>
<rscale>  0 0.92179840E+02</rscale>
<asrwt>0</asrwt>
<pdfrwt beam="1">  1        2 0.34254684E-01 0.92179840E+02</pdfrwt>
<pdfrwt beam="2">  1       -2 0.14677944E-02 0.92179840E+02</pdfrwt>
<totfact> 0.15618269E+05</totfact>
</mgrwt>
</event>
<event>
 5    1  0.6085374E+000  0.9076813E+02  0.7546771E-02  0.1301002E+00
         -1   -1    0    0    0  501 -0.00000000000E+00  0.00000000000E+00  0.12914683432E+02  0.12914683432E+02  0.00000000000E+00 0.  1.
          1   -1    0    0  501    0  0.00000000000E+00 -0.00000000000E+00 -0.15948615818E+03  0.15948615818E+03  0.00000000000E+00 0. -1.
         23    2    1    2    0    0  0.00000000000E+00  0.00000000000E+00 -0.14657147475E+03  0.17240084161E+03  0.90768127548E+02 0.  0.
        -13    1    3    3    0    0 -0.15603828597E+01 -0.38259650316E+02 -0.11955666155E+03  0.12553896191E+03  0.00000000000E+00 0.  1.
         13    1    3    3    0    0  0.15603828597E+01  0.38259650316E+02 -0.27014813199E+02  0.46861879701E+02  0.00000000000E+00 0. -1.
<mgrwt>
<rscale>  0 0.90768128E+02</rscale>
<asrwt>0</asrwt>
<pdfrwt beam="2">  1        1 0.24536331E-01 0.90768128E+02</pdfrwt>
<pdfrwt beam="1">  1       -1 0.19868744E-02 0.90768128E+02</pdfrwt>
<totfact> 0.11479242E+05</totfact>
</mgrwt>
</event>
<event>
 5    1  0.6085374E+000  0.7826019E+02  0.7546771E-02  0.1334063E+00
          2   -1    0    0  501    0  0.00000000000E+00  0.00000000000E+00  0.52812145121E+02  0.52812145121E+02  0.00000000000E+00 0. -1.
         -2   -1    0    0    0  501 -0.00000000000E+00 -0.00000000000E+00 -0.28992658079E+02  0.28992658079E+02  0.00000000000E+00 0.  1.
         23    2    1    2    0    0  0.00000000000E+00  0.00000000000E+00  0.23819487042E+02  0.81804803200E+02  0.78260193353E+02 0.  0.
        -13    1    3    3    0    0  0.36672763353E+02  0.11418756988E+02  0.19723953192E+02  0.43177701567E+02  0.00000000000E+00 0. -1.
         13    1    3    3    0    0 -0.36672763353E+02 -0.11418756988E+02  0.40955338502E+01  0.38627101633E+02  0.00000000000E+00 0.  1.
<mgrwt>
<rscale>  0 0.78260193E+02</rscale>
<asrwt>0</asrwt>
<pdfrwt beam="1">  1        2 0.81249454E-02 0.78260193E+02</pdfrwt>
<pdfrwt beam="2">  1       -2 0.44604089E-02 0.78260193E+02</pdfrwt>
<totfact> 0.15728985E+05</totfact>
</mgrwt>
</event>
<event>
 5    1  0.6085374E+000  0.9121770E+02  0.7546771E-02  0.1299929E+00
         -1   -1    0    0    0  501 -0.00000000000E+00  0.00000000000E+00  0.81247727800E+01  0.81247727800E+01  0.00000000000E+00 0.  1.
          1   -1    0    0  501    0  0.00000000000E+00 -0.00000000000E+00 -0.25602772535E+03  0.25602772535E+03  0.00000000000E+00 0. -1.
         23    2    1    2    0    0  0.00000000000E+00  0.00000000000E+00 -0.24790295257E+03  0.26415249813E+03  0.91217697709E+02 0.  0.
        -13    1    3    3    0    0 -0.36728343148E+02 -0.24766418133E+02 -0.92518469311E+02  0.10257686787E+03  0.00000000000E+00 0. -1.
         13    1    3    3    0    0  0.36728343148E+02  0.24766418133E+02 -0.15538448326E+03  0.16157563026E+03  0.00000000000E+00 0.  1.
<mgrwt>
<rscale>  0 0.91217698E+02</rscale>
<asrwt>0</asrwt>
<pdfrwt beam="2">  1        1 0.39388882E-01 0.91217698E+02</pdfrwt>
<pdfrwt beam="1">  1       -1 0.12499650E-02 0.91217698E+02</pdfrwt>
<totfact> 0.12409592E+05</totfact>
</mgrwt>
</event>
<event>
 5    1  0.6085374E+000  0.9037632E+02  0.7546771E-02  0.1301943E+00
          1   -1    0    0  501    0  0.00000000000E+00  0.00000000000E+00  0.24830203829E+02  0.24830203829E+02  0.00000000000E+00 0. -1.
         -1   -1    0    0    0  501 -0.00000000000E+00 -0.00000000000E+00 -0.82237334700E+02  0.82237334700E+02  0.00000000000E+00 0.  1.
         23    2    1    2    0    0  0.00000000000E+00  0.00000000000E+00 -0.57407130871E+02  0.10706753853E+03  0.90376319531E+02 0.  0.
        -13    1    3    3    0    0  0.33817694903E+02  0.49323236955E+01 -0.63727121899E+02  0.72312587916E+02  0.00000000000E+00 0.  1.
         13    1    3    3    0    0 -0.33817694903E+02 -0.49323236955E+01  0.63199910277E+01  0.34754950614E+02  0.00000000000E+00 0. -1.
<mgrwt>
<rscale>  0 0.90376320E+02</rscale>
<asrwt>0</asrwt>
<pdfrwt beam="1">  1        1 0.38200314E-02 0.90376320E+02</pdfrwt>
<pdfrwt beam="2">  1       -1 0.12651898E-01 0.90376320E+02</pdfrwt>
<totfact> 0.86178360E+04</totfact>
</mgrwt>
</event>
<event>
 5    1  0.6085374E+000  0.7893485E+02  0.7546771E-02  0.1332102E+00
         -2   -1    0    0    0  501 -0.00000000000E+00  0.00000000000E+00  0.53085008493E+02  0.53085008493E+02  0.00000000000E+00 0.  1.
          2   -1    0    0  501    0  0.00000000000E+00 -0.00000000000E+00 -0.29343080876E+02  0.29343080876E+02  0.00000000000E+00 0. -1.
         23    2    1    2    0    0  0.00000000000E+00  0.00000000000E+00  0.23741927617E+02  0.82428089370E+02  0.78934851556E+02 0.  0.
        -13    1    3    3    0    0  0.77175270664E+01 -0.91944302753E+01 -0.27390512079E+02  0.29905483177E+02  0.00000000000E+00 0. -1.
         13    1    3    3    0    0 -0.77175270664E+01  0.91944302753E+01  0.51132439696E+02  0.52522606193E+02  0.00000000000E+00 0.  1.
<mgrwt>
<rscale>  0 0.78934852E+02</rscale>
<asrwt>0</asrwt>
<pdfrwt beam="2">  1        2 0.45143202E-02 0.78934852E+02</pdfrwt>
<pdfrwt beam="1">  1       -2 0.81669244E-02 0.78934852E+02</pdfrwt>
<totfact> 0.13398940E+05</totfact>
</mgrwt>
</event>
<event>
 5    1  0.6085374E+000  0.9172622E+02  0.7546771E-02  0.1298724E+00
         -2   -1    0    0    0  501 -0.00000000000E+00  0.00000000000E+00  0.11799404676E+03  0.11799404676E+03  0.00000000000E+00 0.  1.
          2   -1    0    0  501    0  0.00000000000E+00 -0.00000000000E+00 -0.17826532024E+02  0.17826532024E+02  0.00000000000E+00 0. -1.
         23    2    1    2    0    0  0.00000000000E+00  0.00000000000E+00  0.10016751473E+03  0.13582057878E+03  0.91726215514E+02 0.  0.
        -13    1    3    3    0    0  0.21047834017E+02  0.28308953097E+02  0.93482071287E+02  0.99916494105E+02  0.00000000000E+00 0.  1.
         13    1    3    3    0    0 -0.21047834017E+02 -0.28308953097E+02  0.66854434447E+01  0.35904084674E+02  0.00000000000E+00 0. -1.
<mgrwt>
<rscale>  0 0.91726216E+02</rscale>
<asrwt>0</asrwt>
<pdfrwt beam="2">  1        2 0.27425435E-02 0.91726216E+02</pdfrwt>
<pdfrwt beam="1">  1       -2 0.18152930E-01 0.91726216E+02</pdfrwt>
<totfact> 0.74692410E+04</totfact>
</mgrwt>
</event>
<event>
 5    1  0.6085374E+000  0.9039373E+02  0.7546771E-02  0.1301901E+00
         -2   -1    0    0    0  501 -0.00000000000E+00  0.00000000000E+00  0.86172749826E+02  0.86172749826E+02  0.00000000000E+00 0.  1.
          2   -1    0    0  501    0  0.00000000000E+00 -0.00000000000E+00 -0.23705364409E+02  0.23705364409E+02  0.00000000000E+00 0. -1.
         23    2    1    2    0    0  0.00000000000E+00  0.00000000000E+00  0.62467385417E+02  0.10987811424E+03  0.90393726259E+02 0.  0.
        -13    1    3    3    0    0  0.12940267362E+02  0.43208725812E+02  0.27729210386E+02  0.52946705415E+02  0.00000000000E+00 0.  1.
         13    1    3    3    0    0 -0.12940267362E+02 -0.43208725812E+02  0.34738175031E+02  0.56931408820E+02  0.00000000000E+00 0. -1.
<mgrwt>
<rscale>  0 0.90393726E+02</rscale>
<asrwt>0</asrwt>
<pdfrwt beam="2">  1        2 0.36469792E-02 0.90393726E+02</pdfrwt>
<pdfrwt beam="1">  1       -2 0.13257346E-01 0.90393726E+02</pdfrwt>
<totfact> 0.85122074E+04</totfact>
</mgrwt>
</event>
<event>
 5    1  0.6085374E+000  0.8887181E+02  0.7546771E-02  0.1305607E+00
         -3   -1    0    0    0  501 -0.00000000000E+00  0.00000000000E+00  0.36124896510E+02  0.36124896510E+02  0.00000000000E+00 0.  1.
          3   -1    0    0  501    0  0.00000000000E+00 -0.00000000000E+00 -0.54658972113E+02  0.54658972113E+02  0.00000000000E+00 0. -1.
         23    2    1    2    0    0  0.00000000000E+00  0.00000000000E+00 -0.18534075604E+02  0.90783868623E+02  0.88871811300E+02 0.  0.
        -13    1    3    3    0    0 -0.21748559558E+02 -0.32891591161E+02  0.11660135368E+02  0.41119525396E+02  0.00000000000E+00 0.  1.
         13    1    3    3    0    0  0.21748559558E+02  0.32891591161E+02 -0.30194210972E+02  0.49664343227E+02  0.00000000000E+00 0. -1.
<mgrwt>
<rscale>  0 0.88871811E+02</rscale>
<asrwt>0</asrwt>
<pdfrwt beam="2">  1        3 0.84090727E-02 0.88871811E+02</pdfrwt>
<pdfrwt beam="1">  1       -3 0.55576764E-02 0.88871811E+02</pdfrwt>
<totfact> 0.37916688E+04</totfact>
</mgrwt>
</event>
<event>
 5    1  0.6085374E+000  0.9375680E+02  0.7546771E-02  0.1294001E+00
         -2   -1    0    0    0  501 -0.00000000000E+00  0.00000000000E+00  0.22109781610E+03  0.22109781610E+03  0.00000000000E+00 0.  1.
          2   -1    0    0  501    0  0.00000000000E+00 -0.00000000000E+00 -0.99394206452E+01  0.99394206452E+01  0.00000000000E+00 0. -1.
         23    2    1    2    0    0  0.00000000000E+00  0.00000000000E+00  0.21115839546E+03  0.23103723675E+03  0.93756795977E+02 0.  0.
        -13    1    3    3    0    0  0.34677480547E+02 -0.10679898507E+01  0.18326721752E+03  0.18652222730E+03  0.00000000000E+00 0.  1.
         13    1    3    3    0    0 -0.34677480547E+02  0.10679898507E+01  0.27891177938E+02  0.44515009448E+02  0.00000000000E+00 0. -1.
<mgrwt>
<rscale>  0 0.93756796E+02</rscale>
<asrwt>0</asrwt>
<pdfrwt beam="2">  1        2 0.15291418E-02 0.93756796E+02</pdfrwt>
<pdfrwt beam="1">  1       -2 0.34015045E-01 0.93756796E+02</pdfrwt>
<totfact> 0.55475145E+04</totfact>
</mgrwt>
</event>
<event>
 5    1  0.6085374E+000  0.9080187E+02  0.7546771E-02  0.1300921E+00
         -2   -1    0    0    0  501 -0.00000000000E+00  0.00000000000E+00  0.18705417678E+02  0.18705417678E+02  0.00000000000E+00 0.  1.
          2   -1    0    0  501    0  0.00000000000E+00 -0.00000000000E+00 -0.11019507933E+03  0.11019507933E+03  0.00000000000E+00 0. -1.
         23    2    1    2    0    0  0.00000000000E+00  0.00000000000E+00 -0.91489661656E+02  0.12890049701E+03  0.90801871896E+02 0.  0.
        -13    1    3    3    0    0 -0.33282090121E+02 -0.26956938368E+02 -0.24362786696E+02  0.49273922358E+02  0.00000000000E+00 0.  1.
         13    1    3    3    0    0  0.33282090121E+02  0.26956938368E+02 -0.67126874960E+02  0.79626574653E+02  0.00000000000E+00 0. -1.
<mgrwt>
<rscale>  0 0.90801872E+02</rscale>
<asrwt>0</asrwt>
<pdfrwt beam="2">  1        2 0.16953090E-01 0.90801872E+02</pdfrwt>
<pdfrwt beam="1">  1       -2 0.28777565E-02 0.90801872E+02</pdfrwt>
<totfact> 0.12784396E+05</totfact>
</mgrwt>
</event>
<event>
 5    1  0.6085374E+000  0.9115760E+02  0.7546771E-02  0.1300072E+00
          2   -1    0    0  501    0  0.00000000000E+00  0.00000000000E+00  0.46727017826E+02  0.46727017826E+02  0.00000000000E+00 0. -1.
         -2   -1    0    0    0  501 -0.00000000000E+00 -0.00000000000E+00 -0.44458793501E+02  0.44458793501E+02  0.00000000000E+00 0.  1.
         23    2    1    2    0    0  0.00000000000E+00  0.00000000000E+00  0.22682243248E+01  0.91185811328E+02  0.91157596205E+02 0.  0.
        -13    1    3    3    0    0  0.35655260100E+02  0.25773384038E+02 -0.10780155367E+02  0.45296541229E+02  0.00000000000E+00 0.  1.
         13    1    3    3    0    0 -0.35655260100E+02 -0.25773384038E+02  0.13048379692E+02  0.45889270098E+02  0.00000000000E+00 0. -1.
<mgrwt>
<rscale>  0 0.91157596E+02</rscale>
<asrwt>0</asrwt>
<pdfrwt beam="1">  1        2 0.71887720E-02 0.91157596E+02</pdfrwt>
<pdfrwt beam="2">  1       -2 0.68398144E-02 0.91157596E+02</pdfrwt>
<totfact> 0.99369081E+04</totfact>
</mgrwt>
</event>
<event>
 5    1  0.6085374E+000  0.9227493E+02  0.7546771E-02  0.1297434E+00
         -2   -1    0    0    0  501 -0.00000000000E+00  0.00000000000E+00  0.24009443770E+03  0.24009443770E+03  0.00000000000E+00 0.  1.
          2   -1    0    0  501    0  0.00000000000E+00 -0.00000000000E+00 -0.88659523220E+01  0.88659523220E+01  0.00000000000E+00 0. -1.
         23    2    1    2    0    0  0.00000000000E+00  0.00000000000E+00  0.23122848537E+03  0.24896039002E+03  0.92274933484E+02 0.  0.
        -13    1    3    3    0    0  0.39925858346E+02  0.85253387172E+01  0.17360053295E+03  0.17833648142E+03  0.00000000000E+00 0.  1.
         13    1    3    3    0    0 -0.39925858346E+02 -0.85253387172E+01  0.57627952421E+02  0.70623908594E+02  0.00000000000E+00 0. -1.
<mgrwt>
<rscale>  0 0.92274933E+02</rscale>
<asrwt>0</asrwt>
<pdfrwt beam="2">  1        2 0.13639928E-02 0.92274933E+02</pdfrwt>
<pdfrwt beam="1">  1       -2 0.36937601E-01 0.92274933E+02</pdfrwt>
<totfact> 0.55572654E+04</totfact>
</mgrwt>
</event>
<event>
 5    1  0.6085374E+000  0.9170992E+02  0.7546771E-02  0.1298763E+00
          2   -1    0    0  501    0  0.00000000000E+00  0.00000000000E+00  0.27746442476E+02  0.27746442476E+02  0.00000000000E+00 0. -1.
         -2   -1    0    0    0  501 -0.00000000000E+00 -0.00000000000E+00 -0.75781874704E+02  0.75781874704E+02  0.00000000000E+00 0.  1.
         23    2    1    2    0    0  0.00000000000E+00  0.00000000000E+00 -0.48035432229E+02  0.10352831718E+03  0.91709921539E+02 0.  0.
        -13    1    3    3    0    0  0.88456559486E+01  0.86818052291E+01 -0.73855098139E+02  0.74887882146E+02  0.00000000000E+00 0.  1.
         13    1    3    3    0    0 -0.88456559486E+01 -0.86818052291E+01  0.25819665911E+02  0.28640435034E+02  0.00000000000E+00 0. -1.
<mgrwt>
<rscale>  0 0.91709922E+02</rscale>
<asrwt>0</asrwt>
<pdfrwt beam="1">  1        2 0.42686836E-02 0.91709922E+02</pdfrwt>
<pdfrwt beam="2">  1       -2 0.11658750E-01 0.91709922E+02</pdfrwt>
<totfact> 0.85126896E+04</totfact>
</mgrwt>
</event>
<event>
 5    1  0.6085374E+000  0.9057404E+02  0.7546771E-02  0.1301467E+00
         -2   -1    0    0    0  501 -0.00000000000E+00  0.00000000000E+00  0.20465950192E+02  0.20465950192E+02  0.00000000000E+00 0.  1.
          2   -1    0    0  501    0  0.00000000000E+00 -0.00000000000E+00 -0.10021105115E+03  0.10021105115E+03  0.00000000000E+00 0. -1.
         23    2    1    2    0    0  0.00000000000E+00  0.00000000000E+00 -0.79745100961E+02  0.12067700135E+03  0.90574044442E+02 0.  0.
        -13    1    3    3    0    0 -0.36809130687E+02 -0.25738810889E+01 -0.48901767699E+01  0.37221644169E+02  0.00000000000E+00 0.  1.
         13    1    3    3    0    0  0.36809130687E+02  0.25738810889E+01 -0.74854924191E+02  0.83455357177E+02  0.00000000000E+00 0. -1.
<mgrwt>
<rscale>  0 0.90574044E+02</rscale>
<asrwt>0</asrwt>
<pdfrwt beam="2">  1        2 0.15417085E-01 0.90574044E+02</pdfrwt>
<pdfrwt beam="1">  1       -2 0.31486078E-02 0.90574044E+02</pdfrwt>
<totfact> 0.12501480E+05</totfact>
</mgrwt>
</event>
<event>
 5    1  0.6085374E+000  0.9303609E+02  0.7546771E-02  0.1295662E+00
          1   -1    0    0  501    0  0.00000000000E+00  0.00000000000E+00  0.37802629199E+03  0.37802629199E+03  0.00000000000E+00 0. -1.
         -1   -1    0    0    0  501 -0.00000000000E+00 -0.00000000000E+00 -0.57242809378E+01  0.57242809378E+01  0.00000000000E+00 0.  1.
         23    2    1    2    0    0  0.00000000000E+00  0.00000000000E+00  0.37230201105E+03  0.38375057293E+03  0.93036094011E+02 0.  0.
        -13    1    3    3    0    0 -0.44273125514E+02  0.14172746052E+02  0.19323828502E+03  0.19875112873E+03  0.00000000000E+00 0.  1.
         13    1    3    3    0    0  0.44273125514E+02 -0.14172746052E+02  0.17906372603E+03  0.18499944420E+03  0.00000000000E+00 0. -1.
<mgrwt>
<rscale>  0 0.93036094E+02</rscale>
<asrwt>0</asrwt>
<pdfrwt beam="1">  1        1 0.58157871E-01 0.93036094E+02</pdfrwt>
<pdfrwt beam="2">  1       -1 0.88065890E-03 0.93036094E+02</pdfrwt>
<totfact> 0.12663097E+05</totfact>
</mgrwt>
</event>
<event>
 5    1  0.6085374E+000  0.8713118E+02  0.7546771E-02  0.1309952E+00
         -2   -1    0    0    0  501 -0.00000000000E+00  0.00000000000E+00  0.70783069798E+01  0.70783069798E+01  0.00000000000E+00 0.  1.
          2   -1    0    0  501    0  0.00000000000E+00 -0.00000000000E+00 -0.26813766691E+03  0.26813766691E+03  0.00000000000E+00 0. -1.
         23    2    1    2    0    0  0.00000000000E+00  0.00000000000E+00 -0.26105935993E+03  0.27521597389E+03  0.87131182002E+02 0.  0.
        -13    1    3    3    0    0  0.60038606713E+01  0.41700356995E+02 -0.16555991562E+03  0.17083633037E+03  0.00000000000E+00 0. -1.
         13    1    3    3    0    0 -0.60038606713E+01 -0.41700356995E+02 -0.95499444315E+02  0.10437964352E+03  0.00000000000E+00 0.  1.
<mgrwt>
<rscale>  0 0.87131182E+02</rscale>
<asrwt>0</asrwt>
<pdfrwt beam="2">  1        2 0.41251942E-01 0.87131182E+02</pdfrwt>
<pdfrwt beam="1">  1       -2 0.10889705E-02 0.87131182E+02</pdfrwt>
<totfact> 0.19444973E+05</totfact>
</mgrwt>
</event>
<event>
 5    1  0.6085374E+000  0.8879478E+02  0.7546771E-02  0.1305797E+00
         -1   -1    0    0    0  501 -0.00000000000E+00  0.00000000000E+00  0.13048641513E+03  0.13048641513E+03  0.00000000000E+00 0.  1.
          1   -1    0    0  501    0  0.00000000000E+00 -0.00000000000E+00 -0.15106003264E+02  0.15106003264E+02  0.00000000000E+00 0. -1.
         23    2    1    2    0    0  0.00000000000E+00  0.00000000000E+00  0.11538041186E+03  0.14559241839E+03  0.88794779415E+02 0.  0.
        -13    1    3    3    0    0  0.29565422823E+02 -0.12680906702E+02  0.10785945938E+03  0.11255479820E+03  0.00000000000E+00 0.  1.
         13    1    3    3    0    0 -0.29565422823E+02  0.12680906702E+02  0.75209524885E+01  0.33037620190E+02  0.00000000000E+00 0. -1.
<mgrwt>
<rscale>  0 0.88794779E+02</rscale>
<asrwt>0</asrwt>
<pdfrwt beam="2">  1        1 0.23240006E-02 0.88794779E+02</pdfrwt>
<pdfrwt beam="1">  1       -1 0.20074832E-01 0.88794779E+02</pdfrwt>
<totfact> 0.82629754E+04</totfact>
</mgrwt>
</event>
<event>
 5    1  0.6085374E+000  0.9604569E+02  0.7546771E-02  0.1288838E+00
         -4   -1    0    0    0  501 -0.00000000000E+00  0.00000000000E+00  0.13148149641E+03  0.13148149641E+03  0.00000000000E+00 0.  1.
          4   -1    0    0  501    0  0.00000000000E+00 -0.00000000000E+00 -0.17540063786E+02  0.17540063786E+02  0.00000000000E+00 0. -1.
         23    2    1    2    0    0  0.00000000000E+00  0.00000000000E+00  0.11394143263E+03  0.14902156020E+03  0.96045693995E+02 0.  0.
        -13    1    3    3    0    0  0.24379377241E+02  0.11464003804E+02  0.11865250698E+03  0.12167249003E+03  0.00000000000E+00 0.  1.
         13    1    3    3    0    0 -0.24379377241E+02 -0.11464003804E+02 -0.47110743461E+01  0.27349070174E+02  0.00000000000E+00 0. -1.
<mgrwt>
<rscale>  0 0.96045694E+02</rscale>
<asrwt>0</asrwt>
<pdfrwt beam="2">  1        4 0.26984714E-02 0.96045694E+02</pdfrwt>
<pdfrwt beam="1">  1       -4 0.20227922E-01 0.96045694E+02</pdfrwt>
<totfact> 0.20608320E+04</totfact>
</mgrwt>
</event>
<event>
 5    1  0.6085374E+000  0.9358392E+02  0.7546771E-02  0.1294398E+00
          1   -1    0    0  501    0  0.00000000000E+00  0.00000000000E+00  0.16379581245E+03  0.16379581245E+03  0.00000000000E+00 0. -1.
         -1   -1    0    0    0  501 -0.00000000000E+00 -0.00000000000E+00 -0.13367175504E+02  0.13367175504E+02  0.00000000000E+00 0.  1.
         23    2    1    2    0    0  0.00000000000E+00  0.00000000000E+00  0.15042863694E+03  0.17716298795E+03  0.93583916818E+02 0.  0.
        -13    1    3    3    0    0  0.27518995329E+02 -0.71797263631E+01  0.14555597657E+03  0.14830841477E+03  0.00000000000E+00 0. -1.
         13    1    3    3    0    0 -0.27518995329E+02  0.71797263631E+01  0.48726603709E+01  0.28854573184E+02  0.00000000000E+00 0.  1.
<mgrwt>
<rscale>  0 0.93583917E+02</rscale>
<asrwt>0</asrwt>
<pdfrwt beam="1">  1        1 0.25199354E-01 0.93583917E+02</pdfrwt>
<pdfrwt beam="2">  1       -1 0.20564887E-02 0.93583917E+02</pdfrwt>
<totfact> 0.10623806E+05</totfact>
</mgrwt>
</event>
<event>
 5    1  0.6085374E+000  0.8959369E+02  0.7546771E-02  0.1303839E+00
         -2   -1    0    0    0  501 -0.00000000000E+00  0.00000000000E+00  0.32092143779E+02  0.32092143779E+02  0.00000000000E+00 0. -1.
          2   -1    0    0  501    0  0.00000000000E+00 -0.00000000000E+00 -0.62531112271E+02  0.62531112271E+02  0.00000000000E+00 0.  1.
         23    2    1    2    0    0  0.00000000000E+00  0.00000000000E+00 -0.30438968493E+02  0.94623256050E+02  0.89593692761E+02 0.  0.
        -13    1    3    3    0    0 -0.28726117054E+01 -0.36662796404E+02 -0.42235656369E+02  0.56002350014E+02  0.00000000000E+00 0.  1.
         13    1    3    3    0    0  0.28726117054E+01  0.36662796404E+02  0.11796687876E+02  0.38620906036E+02  0.00000000000E+00 0. -1.
<mgrwt>
<rscale>  0 0.89593693E+02</rscale>
<asrwt>0</asrwt>
<pdfrwt beam="2">  1        2 0.96201712E-02 0.89593693E+02</pdfrwt>
<pdfrwt beam="1">  1       -2 0.49372529E-02 0.89593693E+02</pdfrwt>
<totfact> 0.11266305E+05</totfact>
</mgrwt>
</event>
<event>
 5    1  0.6085374E+000  0.9024215E+02  0.7546771E-02  0.1302266E+00
         -4   -1    0    0    0  501 -0.00000000000E+00  0.00000000000E+00  0.86604668234E+02  0.86604668234E+02  0.00000000000E+00 0.  1.
          4   -1    0    0  501    0  0.00000000000E+00 -0.00000000000E+00 -0.23508103809E+02  0.23508103809E+02  0.00000000000E+00 0. -1.
         23    2    1    2    0    0  0.00000000000E+00  0.00000000000E+00  0.63096564425E+02  0.11011277204E+03  0.90242152705E+02 0.  0.
        -13    1    3    3    0    0  0.33286926175E+02  0.18228809068E+02  0.61327037481E+02  0.72120139076E+02  0.00000000000E+00 0.  1.
         13    1    3    3    0    0 -0.33286926175E+02 -0.18228809068E+02  0.17695269444E+01  0.37992632967E+02  0.00000000000E+00 0. -1.
<mgrwt>
<rscale>  0 0.90242153E+02</rscale>
<asrwt>0</asrwt>
<pdfrwt beam="2">  1        4 0.36166314E-02 0.90242153E+02</pdfrwt>
<pdfrwt beam="1">  1       -4 0.13323795E-01 0.90242153E+02</pdfrwt>
<totfact> 0.26575058E+04</totfact>
</mgrwt>
</event>
<event>
 5    1  0.6085374E+000  0.9062933E+02  0.7546771E-02  0.1301335E+00
          1   -1    0    0  501    0  0.00000000000E+00  0.00000000000E+00  0.14958925359E+03  0.14958925359E+03  0.00000000000E+00 0. -1.
         -1   -1    0    0    0  501 -0.00000000000E+00 -0.00000000000E+00 -0.13727048957E+02  0.13727048957E+02  0.00000000000E+00 0.  1.
         23    2    1    2    0    0  0.00000000000E+00  0.00000000000E+00  0.13586220463E+03  0.16331630255E+03  0.90629333167E+02 0.  0.
        -13    1    3    3    0    0 -0.24002224739E+02  0.32048555549E+02  0.10616641185E+03  0.11346595837E+03  0.00000000000E+00 0. -1.
         13    1    3    3    0    0  0.24002224739E+02 -0.32048555549E+02  0.29695792788E+02  0.49850344176E+02  0.00000000000E+00 0.  1.
<mgrwt>
<rscale>  0 0.90629333E+02</rscale>
<asrwt>0</asrwt>
<pdfrwt beam="1">  1        1 0.23013730E-01 0.90629333E+02</pdfrwt>
<pdfrwt beam="2">  1       -1 0.21118538E-02 0.90629333E+02</pdfrwt>
<totfact> 0.11391086E+05</totfact>
</mgrwt>
</event>
<event>
 5    1  0.6085374E+000  0.9164279E+02  0.7546771E-02  0.1298922E+00
          1   -1    0    0  501    0  0.00000000000E+00  0.00000000000E+00  0.21163171068E+03  0.21163171068E+03  0.00000000000E+00 0. -1.
         -1   -1    0    0    0  501 -0.00000000000E+00 -0.00000000000E+00 -0.99210089682E+01  0.99210089682E+01  0.00000000000E+00 0.  1.
         23    2    1    2    0    0  0.00000000000E+00  0.00000000000E+00  0.20171070171E+03  0.22155271965E+03  0.91642786941E+02 0.  0.
        -13    1    3    3    0    0  0.44480660051E+02  0.10922112390E+02  0.97631324041E+02  0.10784107331E+03  0.00000000000E+00 0. -1.
         13    1    3    3    0    0 -0.44480660051E+02 -0.10922112390E+02  0.10407937767E+03  0.11371164634E+03  0.00000000000E+00 0.  1.
<mgrwt>
<rscale>  0 0.91642787E+02</rscale>
<asrwt>0</asrwt>
<pdfrwt beam="1">  1        1 0.32558721E-01 0.91642787E+02</pdfrwt>
<pdfrwt beam="2">  1       -1 0.15263092E-02 0.91642787E+02</pdfrwt>
<totfact> 0.11808902E+05</totfact>
</mgrwt>
</event>
<event>
 5    1  0.6085374E+000  0.8086446E+02  0.7546771E-02  0.1326616E+00
         -1   -1    0    0    0  501 -0.00000000000E+00  0.00000000000E+00  0.14062338149E+03  0.14062338149E+03  0.00000000000E+00 0.  1.
          1   -1    0    0  501    0  0.00000000000E+00 -0.00000000000E+00 -0.11625130570E+02  0.11625130570E+02  0.00000000000E+00 0. -1.
         23    2    1    2    0    0  0.00000000000E+00  0.00000000000E+00  0.12899825092E+03  0.15224851206E+03  0.80864458718E+02 0.  0.
        -13    1    3    3    0    0  0.37432959918E+02 -0.15271452176E+02  0.65566555374E+02  0.77028675981E+02  0.00000000000E+00 0. -1.
         13    1    3    3    0    0 -0.37432959918E+02  0.15271452176E+02  0.63431695542E+02  0.75219836075E+02  0.00000000000E+00 0.  1.
<mgrwt>
<rscale>  0 0.80864459E+02</rscale>
<asrwt>0</asrwt>
<pdfrwt beam="2">  1        1 0.17884817E-02 0.80864459E+02</pdfrwt>
<pdfrwt beam="1">  1       -1 0.21634365E-01 0.80864459E+02</pdfrwt>
<totfact> 0.10349714E+05</totfact>
</mgrwt>
</event>
<event>
 5    1  0.6085374E+000  0.8850855E+02  0.7546771E-02  0.1306504E+00
         -2   -1    0    0    0  501 -0.00000000000E+00  0.00000000000E+00  0.12320306845E+03  0.12320306845E+03  0.00000000000E+00 0.  1.
          2   -1    0    0  501    0  0.00000000000E+00 -0.00000000000E+00 -0.15896039996E+02  0.15896039996E+02  0.00000000000E+00 0. -1.
         23    2    1    2    0    0  0.00000000000E+00  0.00000000000E+00  0.10730702845E+03  0.13909910844E+03  0.88508551083E+02 0.  0.
        -13    1    3    3    0    0  0.24988085410E+02 -0.33048834890E+02  0.78092160473E+02  0.88402575909E+02  0.00000000000E+00 0.  1.
         13    1    3    3    0    0 -0.24988085410E+02  0.33048834890E+02  0.29214867979E+02  0.50696532535E+02  0.00000000000E+00 0. -1.
<mgrwt>
<rscale>  0 0.88508551E+02</rscale>
<asrwt>0</asrwt>
<pdfrwt beam="2">  1        2 0.24455447E-02 0.88508551E+02</pdfrwt>
<pdfrwt beam="1">  1       -2 0.18954318E-01 0.88508551E+02</pdfrwt>
<totfact> 0.80560436E+04</totfact>
</mgrwt>
</event>
<event>
 5    1  0.6085374E+000  0.9181270E+02  0.7546771E-02  0.1298520E+00
          1   -1    0    0  501    0  0.00000000000E+00  0.00000000000E+00  0.20622326980E+02  0.20622326980E+02  0.00000000000E+00 0. -1.
         -1   -1    0    0    0  501 -0.00000000000E+00 -0.00000000000E+00 -0.10218987449E+03  0.10218987449E+03  0.00000000000E+00 0.  1.
         23    2    1    2    0    0  0.00000000000E+00  0.00000000000E+00 -0.81567547506E+02  0.12281220146E+03  0.91812700769E+02 0.  0.
        -13    1    3    3    0    0  0.30962512487E+02 -0.31943679000E+02 -0.55936165412E+02  0.71469786684E+02  0.00000000000E+00 0. -1.
         13    1    3    3    0    0 -0.30962512487E+02  0.31943679000E+02 -0.25631382093E+02  0.51342414781E+02  0.00000000000E+00 0.  1.
<mgrwt>
<rscale>  0 0.91812701E+02</rscale>
<asrwt>0</asrwt>
<pdfrwt beam="1">  1        1 0.31726656E-02 0.91812701E+02</pdfrwt>
<pdfrwt beam="2">  1       -1 0.15721520E-01 0.91812701E+02</pdfrwt>
<totfact> 0.79601905E+04</totfact>
</mgrwt>
</event>
<event>
 4    1  0.6085374E+000  0.1564466E+03  0.7546771E-02  0.1192768E+00
         -2   -1    0    0    0  501 -0.00000000000E+00  0.00000000000E+00  0.49217569328E+02  0.49217569328E+02  0.00000000000E+00 0.  1.
          2   -1    0    0  501    0  0.00000000000E+00 -0.00000000000E+00 -0.12432317080E+03  0.12432317080E+03  0.00000000000E+00 0. -1.
        -13    1    1    2    0    0  0.37725218011E+02 -0.51373174305E+02  0.12750738576E+02  0.64999818818E+02  0.00000000000E+00 0.  1.
         13    1    1    2    0    0 -0.37725218011E+02  0.51373174305E+02 -0.87856340044E+02  0.10854092131E+03  0.00000000000E+00 0. -1.
<mgrwt>
<rscale>  0 0.15644660E+03</rscale>
<asrwt>0</asrwt>
<pdfrwt beam="2">  1        2 0.19126641E-01 0.15644660E+03</pdfrwt>
<pdfrwt beam="1">  1       -2 0.75719339E-02 0.15644660E+03</pdfrwt>
<totfact> 0.28207874E+04</totfact>
</mgrwt>
</event>
<event>
 5    1  0.6085374E+000  0.9197897E+02  0.7546771E-02  0.1298129E+00
         -2   -1    0    0    0  501 -0.00000000000E+00  0.00000000000E+00  0.68053856116E+01  0.68053856116E+01  0.00000000000E+00 0.  1.
          2   -1    0    0  501    0  0.00000000000E+00 -0.00000000000E+00 -0.31078805169E+03  0.31078805169E+03  0.00000000000E+00 0. -1.
         23    2    1    2    0    0  0.00000000000E+00  0.00000000000E+00 -0.30398266608E+03  0.31759343730E+03  0.91978965752E+02 0.  0.
        -13    1    3    3    0    0 -0.44224530344E+02 -0.69151604216E+01 -0.11554671487E+03  0.12391396953E+03  0.00000000000E+00 0.  1.
         13    1    3    3    0    0  0.44224530344E+02  0.69151604216E+01 -0.18843595121E+03  0.19367946777E+03  0.00000000000E+00 0. -1.
<mgrwt>
<rscale>  0 0.91978966E+02</rscale>
<asrwt>0</asrwt>
<pdfrwt beam="2">  1        2 0.47813552E-01 0.91978966E+02</pdfrwt>
<pdfrwt beam="1">  1       -2 0.10469823E-02 0.91978966E+02</pdfrwt>
<totfact> 0.17782972E+05</totfact>
</mgrwt>
</event>
<event>
 5    1  0.6085374E+000  0.9099420E+02  0.7546771E-02  0.1300462E+00
          1   -1    0    0  501    0  0.00000000000E+00  0.00000000000E+00  0.29994147004E+03  0.29994147004E+03  0.00000000000E+00 0. -1.
         -1   -1    0    0    0  501 -0.00000000000E+00 -0.00000000000E+00 -0.69013006880E+01  0.69013006880E+01  0.00000000000E+00 0.  1.
         23    2    1    2    0    0  0.00000000000E+00  0.00000000000E+00  0.29304016935E+03  0.30684277073E+03  0.90994203629E+02 0.  0.
        -13    1    3    3    0    0 -0.44678289395E+02  0.11051266692E+01  0.11778472683E+03  0.12597862010E+03  0.00000000000E+00 0.  1.
         13    1    3    3    0    0  0.44678289395E+02 -0.11051266692E+01  0.17525544252E+03  0.18086415062E+03  0.00000000000E+00 0. -1.
<mgrwt>
<rscale>  0 0.90994204E+02</rscale>
<asrwt>0</asrwt>
<pdfrwt beam="1">  1        1 0.46144831E-01 0.90994204E+02</pdfrwt>
<pdfrwt beam="2">  1       -1 0.10617388E-02 0.90994204E+02</pdfrwt>
<totfact> 0.12880365E+05</totfact>
</mgrwt>
</event>
<event>
 5    1  0.6085374E+000  0.7079735E+02  0.7546771E-02  0.1357402E+00
          1   -1    0    0  501    0  0.00000000000E+00  0.00000000000E+00  0.13128729487E+02  0.13128729487E+02  0.00000000000E+00 0. -1.
         -1   -1    0    0    0  501 -0.00000000000E+00 -0.00000000000E+00 -0.95444583425E+02  0.95444583425E+02  0.00000000000E+00 0.  1.
         23    2    1    2    0    0  0.00000000000E+00  0.00000000000E+00 -0.82315853939E+02  0.10857331291E+03  0.70797347882E+02 0.  0.
        -13    1    3    3    0    0  0.70874554007E+01  0.31667922915E+02 -0.62844745966E+02  0.70728717374E+02  0.00000000000E+00 0.  1.
         13    1    3    3    0    0 -0.70874554007E+01 -0.31667922915E+02 -0.19471107973E+02  0.37844595539E+02  0.00000000000E+00 0. -1.
<mgrwt>
<rscale>  0 0.70797348E+02</rscale>
<asrwt>0</asrwt>
<pdfrwt beam="1">  1        1 0.20198046E-02 0.70797348E+02</pdfrwt>
<pdfrwt beam="2">  1       -1 0.14683782E-01 0.70797348E+02</pdfrwt>
<totfact> 0.15673759E+05</totfact>
</mgrwt>
</event>
<event>
 5    1  0.6085374E+000  0.8957339E+02  0.7546771E-02  0.1303888E+00
          2   -1    0    0  501    0  0.00000000000E+00  0.00000000000E+00  0.10360027648E+03  0.10360027648E+03  0.00000000000E+00 0. -1.
         -2   -1    0    0    0  501 -0.00000000000E+00 -0.00000000000E+00 -0.19361413903E+02  0.19361413903E+02  0.00000000000E+00 0.  1.
         23    2    1    2    0    0  0.00000000000E+00  0.00000000000E+00  0.84238862575E+02  0.12296169038E+03  0.89573385185E+02 0.  0.
        -13    1    3    3    0    0 -0.12756165111E+02  0.38626356472E+02  0.16396144645E+02  0.43858279969E+02  0.00000000000E+00 0.  1.
         13    1    3    3    0    0  0.12756165111E+02 -0.38626356472E+02  0.67842717930E+02  0.79103410412E+02  0.00000000000E+00 0. -1.
<mgrwt>
<rscale>  0 0.89573385E+02</rscale>
<asrwt>0</asrwt>
<pdfrwt beam="1">  1        2 0.15938504E-01 0.89573385E+02</pdfrwt>
<pdfrwt beam="2">  1       -2 0.29786791E-02 0.89573385E+02</pdfrwt>
<totfact> 0.13019724E+05</totfact>
</mgrwt>
</event>
<event>
 5    1  0.6085374E+000  0.9168677E+02  0.7546771E-02  0.1298818E+00
          2   -1    0    0  501    0  0.00000000000E+00  0.00000000000E+00  0.26969424425E+03  0.26969424425E+03  0.00000000000E+00 0. -1.
         -2   -1    0    0    0  501 -0.00000000000E+00 -0.00000000000E+00 -0.77925871912E+01  0.77925871912E+01  0.00000000000E+00 0.  1.
         23    2    1    2    0    0  0.00000000000E+00  0.00000000000E+00  0.26190165706E+03  0.27748683144E+03  0.91686769238E+02 0.  0.
        -13    1    3    3    0    0  0.32828067580E+02  0.31990489764E+02  0.13317987095E+03  0.14084726296E+03  0.00000000000E+00 0.  1.
         13    1    3    3    0    0 -0.32828067580E+02 -0.31990489764E+02  0.12872178611E+03  0.13663956849E+03  0.00000000000E+00 0. -1.
<mgrwt>
<rscale>  0 0.91686769E+02</rscale>
<asrwt>0</asrwt>
<pdfrwt beam="1">  1        2 0.41491415E-01 0.91686769E+02</pdfrwt>
<pdfrwt beam="2">  1       -2 0.11988598E-02 0.91686769E+02</pdfrwt>
<totfact> 0.17010526E+05</totfact>
</mgrwt>
</event>
<event>
 5    1  0.6085374E+000  0.9046406E+02  0.7546771E-02  0.1301732E+00
          2   -1    0    0  501    0  0.00000000000E+00  0.00000000000E+00  0.22185981751E+02  0.22185981751E+02  0.00000000000E+00 0. -1.
         -2   -1    0    0    0  501 -0.00000000000E+00 -0.00000000000E+00 -0.92217535852E+02  0.92217535852E+02  0.00000000000E+00 0.  1.
         23    2    1    2    0    0  0.00000000000E+00  0.00000000000E+00 -0.70031554101E+02  0.11440351760E+03  0.90464060655E+02 0.  0.
        -13    1    3    3    0    0  0.14569968528E+02  0.37087449800E+02 -0.62085159960E+02  0.73772149236E+02  0.00000000000E+00 0.  1.
         13    1    3    3    0    0 -0.14569968528E+02 -0.37087449800E+02 -0.79463941414E+01  0.40631368368E+02  0.00000000000E+00 0. -1.
<mgrwt>
<rscale>  0 0.90464061E+02</rscale>
<asrwt>0</asrwt>
<pdfrwt beam="1">  1        2 0.34132279E-02 0.90464061E+02</pdfrwt>
<pdfrwt beam="2">  1       -2 0.14187313E-01 0.90464061E+02</pdfrwt>
<totfact> 0.83332794E+04</totfact>
</mgrwt>
</event>
<event>
 5    1  0.6085374E+000  0.8427675E+02  0.7546771E-02  0.1317335E+00
          4   -1    0    0  501    0  0.00000000000E+00  0.00000000000E+00  0.14327478863E+02  0.14327478863E+02  0.00000000000E+00 0. -1.
         -4   -1    0    0    0  501 -0.00000000000E+00 -0.00000000000E+00 -0.12393266384E+03  0.12393266384E+03  0.00000000000E+00 0.  1.
         23    2    1    2    0    0  0.00000000000E+00  0.00000000000E+00 -0.10960518497E+03  0.13826014270E+03  0.84276749382E+02 0.  0.
        -13    1    3    3    0    0 -0.36885093773E+01 -0.30879183016E+02 -0.10145057687E+03  0.10611007772E+03  0.00000000000E+00 0.  1.
         13    1    3    3    0    0  0.36885093773E+01  0.30879183016E+02 -0.81546081009E+01  0.32150064984E+02  0.00000000000E+00 0. -1.
<mgrwt>
<rscale>  0 0.84276749E+02</rscale>
<asrwt>0</asrwt>
<pdfrwt beam="1">  1        4 0.22042275E-02 0.84276749E+02</pdfrwt>
<pdfrwt beam="2">  1       -4 0.19066564E-01 0.84276749E+02</pdfrwt>
<totfact> 0.29966713E+04</totfact>
</mgrwt>
</event>
<event>
 5    1  0.6085374E+000  0.9284165E+02  0.7546771E-02  0.1296113E+00
         -1   -1    0    0    0  501 -0.00000000000E+00  0.00000000000E+00  0.85041696553E+02  0.85041696553E+02  0.00000000000E+00 0.  1.
          1   -1    0    0  501    0  0.00000000000E+00 -0.00000000000E+00 -0.25339253922E+02  0.25339253922E+02  0.00000000000E+00 0. -1.
         23    2    1    2    0    0  0.00000000000E+00  0.00000000000E+00  0.59702442631E+02  0.11038095047E+03  0.92841653214E+02 0.  0.
        -13    1    3    3    0    0 -0.19406832908E+02 -0.41363745810E+02  0.39605300090E+02  0.60466225500E+02  0.00000000000E+00 0. -1.
         13    1    3    3    0    0  0.19406832908E+02  0.41363745810E+02  0.20097142541E+02  0.49914724975E+02  0.00000000000E+00 0.  1.
<mgrwt>
<rscale>  0 0.92841653E+02</rscale>
<asrwt>0</asrwt>
<pdfrwt beam="2">  1        1 0.38983468E-02 0.92841653E+02</pdfrwt>
<pdfrwt beam="1">  1       -1 0.13083338E-01 0.92841653E+02</pdfrwt>
<totfact> 0.79967461E+04</totfact>
</mgrwt>
</event>
<event>
 5    1  0.6085374E+000  0.5766606E+02  0.7546771E-02  0.1407896E+00
          3   -1    0    0  501    0  0.00000000000E+00  0.00000000000E+00  0.41469398195E+02  0.41469398195E+02  0.00000000000E+00 0. -1.
         -3   -1    0    0    0  501 -0.00000000000E+00 -0.00000000000E+00 -0.20047158083E+02  0.20047158083E+02  0.00000000000E+00 0.  1.
         23    2    1    2    0    0  0.00000000000E+00  0.00000000000E+00  0.21422240111E+02  0.61516556278E+02  0.57666058691E+02 0.  0.
        -13    1    3    3    0    0 -0.23547332759E+02 -0.23172303520E+01  0.28288509663E+02  0.36879346734E+02  0.00000000000E+00 0. -1.
         13    1    3    3    0    0  0.23547332759E+02  0.23172303520E+01 -0.68662695520E+01  0.24637209544E+02  0.00000000000E+00 0.  1.
<mgrwt>
<rscale>  0 0.57666059E+02</rscale>
<asrwt>0</asrwt>
<pdfrwt beam="1">  1        3 0.63799074E-02 0.57666059E+02</pdfrwt>
<pdfrwt beam="2">  1       -3 0.30841782E-02 0.57666059E+02</pdfrwt>
<totfact> 0.12749899E+05</totfact>
</mgrwt>
</event>
<event>
 5    1  0.6085374E+000  0.8414632E+02  0.7546771E-02  0.1317680E+00
          1   -1    0    0  501    0  0.00000000000E+00  0.00000000000E+00  0.16563185672E+03  0.16563185672E+03  0.00000000000E+00 0. -1.
         -1   -1    0    0    0  501 -0.00000000000E+00 -0.00000000000E+00 -0.10687259578E+02  0.10687259578E+02  0.00000000000E+00 0.  1.
         23    2    1    2    0    0  0.00000000000E+00  0.00000000000E+00  0.15494459715E+03  0.17631911630E+03  0.84146316548E+02 0.  0.
        -13    1    3    3    0    0 -0.23460516215E+02  0.32110547373E+02  0.10625376534E+03  0.11345195336E+03  0.00000000000E+00 0.  1.
         13    1    3    3    0    0  0.23460516215E+02 -0.32110547373E+02  0.48690831807E+02  0.62867162937E+02  0.00000000000E+00 0. -1.
<mgrwt>
<rscale>  0 0.84146317E+02</rscale>
<asrwt>0</asrwt>
<pdfrwt beam="1">  1        1 0.25481822E-01 0.84146317E+02</pdfrwt>
<pdfrwt beam="2">  1       -1 0.16441939E-02 0.84146317E+02</pdfrwt>
<totfact> 0.14159367E+05</totfact>
</mgrwt>
</event>
<event>
 5    1  0.6085374E+000  0.9128267E+02  0.7546771E-02  0.1299775E+00
          2   -1    0    0  501    0  0.00000000000E+00  0.00000000000E+00  0.36233598285E+02  0.36233598285E+02  0.00000000000E+00 0. -1.
         -2   -1    0    0    0  501 -0.00000000000E+00 -0.00000000000E+00 -0.57491712314E+02  0.57491712314E+02  0.00000000000E+00 0.  1.
         23    2    1    2    0    0  0.00000000000E+00  0.00000000000E+00 -0.21258114029E+02  0.93725310598E+02  0.91282673245E+02 0.  0.
        -13    1    3    3    0    0  0.42984875211E+02 -0.22817094660E+01 -0.26208274526E+02  0.50396223555E+02  0.00000000000E+00 0.  1.
         13    1    3    3    0    0 -0.42984875211E+02  0.22817094660E+01  0.49501604970E+01  0.43329087043E+02  0.00000000000E+00 0. -1.
<mgrwt>
<rscale>  0 0.91282673E+02</rscale>
<asrwt>0</asrwt>
<pdfrwt beam="1">  1        2 0.55743997E-02 0.91282673E+02</pdfrwt>
<pdfrwt beam="2">  1       -2 0.88448789E-02 0.91282673E+02</pdfrwt>
<totfact> 0.92658867E+04</totfact>
</mgrwt>
</event>
<event>
 5    1  0.6085374E+000  0.9429104E+02  0.7546771E-02  0.1292781E+00
          1   -1    0    0  501    0  0.00000000000E+00  0.00000000000E+00  0.54371040920E+02  0.54371040920E+02  0.00000000000E+00 0. -1.
         -1   -1    0    0    0  501 -0.00000000000E+00 -0.00000000000E+00 -0.40880214983E+02  0.40880214983E+02  0.00000000000E+00 0.  1.
         23    2    1    2    0    0  0.00000000000E+00  0.00000000000E+00  0.13490825937E+02  0.95251255903E+02  0.94291035452E+02 0.  0.
        -13    1    3    3    0    0  0.28248385028E+02  0.28362900735E+02 -0.18413521895E+02  0.44062264846E+02  0.00000000000E+00 0.  1.
         13    1    3    3    0    0 -0.28248385028E+02 -0.28362900735E+02  0.31904347832E+02  0.51188991057E+02  0.00000000000E+00 0. -1.
<mgrwt>
<rscale>  0 0.94291035E+02</rscale>
<asrwt>0</asrwt>
<pdfrwt beam="1">  1        1 0.83647755E-02 0.94291035E+02</pdfrwt>
<pdfrwt beam="2">  1       -1 0.62892639E-02 0.94291035E+02</pdfrwt>
<totfact> 0.86444041E+04</totfact>
</mgrwt>
</event>
<event>
 5    1  0.6085374E+000  0.9116103E+02  0.7546771E-02  0.1300064E+00
         -1   -1    0    0    0  501 -0.00000000000E+00  0.00000000000E+00  0.82051941114E+02  0.82051941114E+02  0.00000000000E+00 0.  1.
          1   -1    0    0  501    0  0.00000000000E+00 -0.00000000000E+00 -0.25320341403E+02  0.25320341403E+02  0.00000000000E+00 0. -1.
         23    2    1    2    0    0  0.00000000000E+00  0.00000000000E+00  0.56731599711E+02  0.10737228252E+03  0.91161025922E+02 0.  0.
        -13    1    3    3    0    0 -0.22256942106E+02 -0.32467823923E+02  0.55431631011E+02  0.67986739727E+02  0.00000000000E+00 0.  1.
         13    1    3    3    0    0  0.22256942106E+02  0.32467823923E+02  0.12999686995E+01  0.39385542790E+02  0.00000000000E+00 0. -1.
<mgrwt>
<rscale>  0 0.91161026E+02</rscale>
<asrwt>0</asrwt>
<pdfrwt beam="2">  1        1 0.38954372E-02 0.91161026E+02</pdfrwt>
<pdfrwt beam="1">  1       -1 0.12623375E-01 0.91161026E+02</pdfrwt>
<totfact> 0.84324718E+04</totfact>
</mgrwt>
</event>
<event>
 5    1  0.6085374E+000  0.9048379E+02  0.7546771E-02  0.1301684E+00
         -1   -1    0    0    0  501 -0.00000000000E+00  0.00000000000E+00  0.52655153225E+02  0.52655153225E+02  0.00000000000E+00 0.  1.
          1   -1    0    0  501    0  0.00000000000E+00 -0.00000000000E+00 -0.38872338494E+02  0.38872338494E+02  0.00000000000E+00 0. -1.
         23    2    1    2    0    0  0.00000000000E+00  0.00000000000E+00  0.13782814730E+02  0.91527491719E+02  0.90483787269E+02 0.  0.
        -13    1    3    3    0    0 -0.26919054984E+02 -0.35250062097E+02 -0.21348916142E+01  0.44404506092E+02  0.00000000000E+00 0.  1.
         13    1    3    3    0    0  0.26919054984E+02  0.35250062097E+02  0.15917706345E+02  0.47122985627E+02  0.00000000000E+00 0. -1.
<mgrwt>
<rscale>  0 0.90483787E+02</rscale>
<asrwt>0</asrwt>
<pdfrwt beam="2">  1        1 0.59803597E-02 0.90483787E+02</pdfrwt>
<pdfrwt beam="1">  1       -1 0.81007929E-02 0.90483787E+02</pdfrwt>
<totfact> 0.92236921E+04</totfact>
</mgrwt>
</event>
<event>
 5    1  0.6085374E+000  0.9670208E+02  0.7546771E-02  0.1287388E+00
         -2   -1    0    0    0  501 -0.00000000000E+00  0.00000000000E+00  0.10886832741E+02  0.10886832741E+02  0.00000000000E+00 0.  1.
          2   -1    0    0  501    0  0.00000000000E+00 -0.00000000000E+00 -0.21473858119E+03  0.21473858119E+03  0.00000000000E+00 0. -1.
         23    2    1    2    0    0  0.00000000000E+00  0.00000000000E+00 -0.20385174845E+03  0.22562541393E+03  0.96702078914E+02 0.  0.
        -13    1    3    3    0    0  0.42089571841E+02 -0.17164233842E+02 -0.63468372528E+02  0.78066492764E+02  0.00000000000E+00 0.  1.
         13    1    3    3    0    0 -0.42089571841E+02  0.17164233842E+02 -0.14038337592E+03  0.14755892117E+03  0.00000000000E+00 0. -1.
<mgrwt>
<rscale>  0 0.96702079E+02</rscale>
<asrwt>0</asrwt>
<pdfrwt beam="2">  1        2 0.33036704E-01 0.96702079E+02</pdfrwt>
<pdfrwt beam="1">  1       -2 0.16748974E-02 0.96702079E+02</pdfrwt>
<totfact> 0.13542531E+05</totfact>
</mgrwt>
</event>
<event>
 5    1  0.6085374E+000  0.9130869E+02  0.7546771E-02  0.1299713E+00
         -2   -1    0    0    0  501 -0.00000000000E+00  0.00000000000E+00  0.87834308194E+02  0.87834308194E+02  0.00000000000E+00 0.  1.
          2   -1    0    0  501    0  0.00000000000E+00 -0.00000000000E+00 -0.23730127193E+02  0.23730127193E+02  0.00000000000E+00 0. -1.
         23    2    1    2    0    0  0.00000000000E+00  0.00000000000E+00  0.64104181001E+02  0.11156443539E+03  0.91308691926E+02 0.  0.
        -13    1    3    3    0    0  0.21553565422E+02 -0.21778599564E+02 -0.93005079306E+01  0.32021290248E+02  0.00000000000E+00 0.  1.
         13    1    3    3    0    0 -0.21553565422E+02  0.21778599564E+02  0.73404688932E+02  0.79543145138E+02  0.00000000000E+00 0. -1.
<mgrwt>
<rscale>  0 0.91308692E+02</rscale>
<asrwt>0</asrwt>
<pdfrwt beam="2">  1        2 0.36507889E-02 0.91308692E+02</pdfrwt>
<pdfrwt beam="1">  1       -2 0.13512970E-01 0.91308692E+02</pdfrwt>
<totfact> 0.82583858E+04</totfact>
</mgrwt>
</event>
<event>
 5    1  0.6085374E+000  0.9422796E+02  0.7546771E-02  0.1292924E+00
         -2   -1    0    0    0  501 -0.00000000000E+00  0.00000000000E+00  0.60898714996E+01  0.60898714996E+01  0.00000000000E+00 0.  1.
          2   -1    0    0  501    0  0.00000000000E+00 -0.00000000000E+00 -0.36449486597E+03  0.36449486597E+03  0.00000000000E+00 0. -1.
         23    2    1    2    0    0  0.00000000000E+00  0.00000000000E+00 -0.35840499447E+03  0.37058473747E+03  0.94227955427E+02 0.  0.
        -13    1    3    3    0    0  0.19074198079E+02 -0.42468534472E+02 -0.15075367971E+03  0.15777855811E+03  0.00000000000E+00 0.  1.
         13    1    3    3    0    0 -0.19074198079E+02  0.42468534472E+02 -0.20765131476E+03  0.21280617936E+03  0.00000000000E+00 0. -1.
<mgrwt>
<rscale>  0 0.94227955E+02</rscale>
<asrwt>0</asrwt>
<pdfrwt beam="2">  1        2 0.56076149E-01 0.94227955E+02</pdfrwt>
<pdfrwt beam="1">  1       -2 0.93690304E-03 0.94227955E+02</pdfrwt>
<totfact> 0.17682191E+05</totfact>
</mgrwt>
</event>
<event>
 5    1  0.6085374E+000  0.1080887E+03  0.7546771E-02  0.1264151E+00
          1   -1    0    0  501    0  0.00000000000E+00  0.00000000000E+00  0.13674933981E+02  0.13674933981E+02  0.00000000000E+00 0. -1.
         -1   -1    0    0    0  501 -0.00000000000E+00 -0.00000000000E+00 -0.21358738795E+03  0.21358738795E+03  0.00000000000E+00 0.  1.
         23    2    1    2    0    0  0.00000000000E+00  0.00000000000E+00 -0.19991245397E+03  0.22726232193E+03  0.10808873076E+03 0.  0.
        -13    1    3    3    0    0  0.42257633820E+02 -0.19357943800E+02 -0.15793318987E+03  0.16463089037E+03  0.00000000000E+00 0.  1.
         13    1    3    3    0    0 -0.42257633820E+02  0.19357943800E+02 -0.41979264105E+02  0.62631431558E+02  0.00000000000E+00 0. -1.
<mgrwt>
<rscale>  0 0.10808873E+03</rscale>
<asrwt>0</asrwt>
<pdfrwt beam="1">  1        1 0.21038361E-02 0.10808873E+03</pdfrwt>
<pdfrwt beam="2">  1       -1 0.32859596E-01 0.10808873E+03</pdfrwt>
<totfact> 0.43601718E+04</totfact>
</mgrwt>
</event>
<event>
 5    1  0.6085374E+000  0.9254104E+02  0.7546771E-02  0.1296812E+00
         -2   -1    0    0    0  501 -0.00000000000E+00  0.00000000000E+00  0.60839763208E+01  0.60839763208E+01  0.00000000000E+00 0.  1.
          2   -1    0    0  501    0  0.00000000000E+00 -0.00000000000E+00 -0.35190163836E+03  0.35190163836E+03  0.00000000000E+00 0. -1.
         23    2    1    2    0    0  0.00000000000E+00  0.00000000000E+00 -0.34581766204E+03  0.35798561468E+03  0.92541044624E+02 0.  0.
        -13    1    3    3    0    0  0.43257132119E+02  0.89263182082E+01 -0.22624541595E+03  0.23051647854E+03  0.00000000000E+00 0.  1.
         13    1    3    3    0    0 -0.43257132119E+02 -0.89263182082E+01 -0.11957224608E+03  0.12746913614E+03  0.00000000000E+00 0. -1.
<mgrwt>
<rscale>  0 0.92541045E+02</rscale>
<asrwt>0</asrwt>
<pdfrwt beam="2">  1        2 0.54138722E-01 0.92541045E+02</pdfrwt>
<pdfrwt beam="1">  1       -2 0.93599621E-03 0.92541045E+02</pdfrwt>
<totfact> 0.18318169E+05</totfact>
</mgrwt>
</event>
<event>
 5    1  0.6085374E+000  0.9216834E+02  0.7546771E-02  0.1297684E+00
         -3   -1    0    0    0  501 -0.00000000000E+00  0.00000000000E+00  0.11437379639E+03  0.11437379639E+03  0.00000000000E+00 0.  1.
          3   -1    0    0  501    0  0.00000000000E+00 -0.00000000000E+00 -0.18568506572E+02  0.18568506572E+02  0.00000000000E+00 0. -1.
         23    2    1    2    0    0  0.00000000000E+00  0.00000000000E+00  0.95805289820E+02  0.13294230296E+03  0.92168337078E+02 0.  0.
        -13    1    3    3    0    0 -0.14971473481E+02 -0.43026950974E+02  0.37879665570E+02  0.59248059816E+02  0.00000000000E+00 0. -1.
         13    1    3    3    0    0  0.14971473481E+02  0.43026950974E+02  0.57925624250E+02  0.73694243147E+02  0.00000000000E+00 0.  1.
<mgrwt>
<rscale>  0 0.92168337E+02</rscale>
<asrwt>0</asrwt>
<pdfrwt beam="2">  1        3 0.28566934E-02 0.92168337E+02</pdfrwt>
<pdfrwt beam="1">  1       -3 0.17595968E-01 0.92168337E+02</pdfrwt>
<totfact> 0.31446693E+04</totfact>
</mgrwt>
</event>
<event>
 5    1  0.6085374E+000  0.9147230E+02  0.7546771E-02  0.1299325E+00
         -2   -1    0    0    0  501 -0.00000000000E+00  0.00000000000E+00  0.94869478730E+02  0.94869478730E+02  0.00000000000E+00 0.  1.
          2   -1    0    0  501    0  0.00000000000E+00 -0.00000000000E+00 -0.22049193849E+02  0.22049193849E+02  0.00000000000E+00 0. -1.
         23    2    1    2    0    0  0.00000000000E+00  0.00000000000E+00  0.72820284880E+02  0.11691867258E+03  0.91472302406E+02 0.  0.
        -13    1    3    3    0    0 -0.20755458134E+02 -0.29614532476E+02  0.72199046988E+02  0.80749687071E+02  0.00000000000E+00 0.  1.
         13    1    3    3    0    0  0.20755458134E+02  0.29614532476E+02  0.62123789270E+00  0.36168985508E+02  0.00000000000E+00 0. -1.
<mgrwt>
<rscale>  0 0.91472302E+02</rscale>
<asrwt>0</asrwt>
<pdfrwt beam="2">  1        2 0.33921837E-02 0.91472302E+02</pdfrwt>
<pdfrwt beam="1">  1       -2 0.14595304E-01 0.91472302E+02</pdfrwt>
<totfact> 0.80408705E+04</totfact>
</mgrwt>
</event>
<event>
 5    1  0.6085374E+000  0.9053524E+02  0.7546771E-02  0.1301561E+00
         -3   -1    0    0    0  501 -0.00000000000E+00  0.00000000000E+00  0.83017304138E+02  0.83017304138E+02  0.00000000000E+00 0.  1.
          3   -1    0    0  501    0  0.00000000000E+00 -0.00000000000E+00 -0.24683500046E+02  0.24683500046E+02  0.00000000000E+00 0. -1.
         23    2    1    2    0    0  0.00000000000E+00  0.00000000000E+00  0.58333804092E+02  0.10770080418E+03  0.90535244641E+02 0.  0.
        -13    1    3    3    0    0 -0.12865651601E+02  0.12432439525E+02  0.78632947093E+02  0.80642612260E+02  0.00000000000E+00 0.  1.
         13    1    3    3    0    0  0.12865651601E+02 -0.12432439525E+02 -0.20299143001E+02  0.27058191925E+02  0.00000000000E+00 0. -1.
<mgrwt>
<rscale>  0 0.90535245E+02</rscale>
<asrwt>0</asrwt>
<pdfrwt beam="2">  1        3 0.37974616E-02 0.90535245E+02</pdfrwt>
<pdfrwt beam="1">  1       -3 0.12771893E-01 0.90535245E+02</pdfrwt>
<totfact> 0.34771365E+04</totfact>
</mgrwt>
</event>
<event>
 5    1  0.6085374E+000  0.9864547E+02  0.7546771E-02  0.1283170E+00
          2   -1    0    0  501    0  0.00000000000E+00  0.00000000000E+00  0.71171887018E+02  0.71171887018E+02  0.00000000000E+00 0.  1.
         -2   -1    0    0    0  501 -0.00000000000E+00 -0.00000000000E+00 -0.34181082538E+02  0.34181082538E+02  0.00000000000E+00 0. -1.
         23    2    1    2    0    0  0.00000000000E+00  0.00000000000E+00  0.36990804479E+02  0.10535296956E+03  0.98645469121E+02 0.  0.
        -13    1    3    3    0    0 -0.36904767300E+02  0.23772092686E+02  0.42511256490E+02  0.61108765071E+02  0.00000000000E+00 0.  1.
         13    1    3    3    0    0  0.36904767300E+02 -0.23772092686E+02 -0.55204520108E+01  0.44244204485E+02  0.00000000000E+00 0. -1.
<mgrwt>
<rscale>  0 0.98645469E+02</rscale>
<asrwt>0</asrwt>
<pdfrwt beam="1">  1        2 0.10949521E-01 0.98645469E+02</pdfrwt>
<pdfrwt beam="2">  1       -2 0.52586281E-02 0.98645469E+02</pdfrwt>
<totfact> 0.89030540E+04</totfact>
</mgrwt>
</event>
<event>
 5    1  0.6085374E+000  0.9073946E+02  0.7546771E-02  0.1301071E+00
         -1   -1    0    0    0  501 -0.00000000000E+00  0.00000000000E+00  0.28590108432E+02  0.28590108432E+02  0.00000000000E+00 0.  1.
          1   -1    0    0  501    0  0.00000000000E+00 -0.00000000000E+00 -0.71997369110E+02  0.71997369110E+02  0.00000000000E+00 0. -1.
         23    2    1    2    0    0  0.00000000000E+00  0.00000000000E+00 -0.43407260678E+02  0.10058747754E+03  0.90739464174E+02 0.  0.
        -13    1    3    3    0    0 -0.37458392780E+02  0.14351875973E+02  0.17936912025E+01  0.40153765224E+02  0.00000000000E+00 0.  1.
         13    1    3    3    0    0  0.37458392780E+02 -0.14351875973E+02 -0.45200951880E+02  0.60433712317E+02  0.00000000000E+00 0. -1.
<mgrwt>
<rscale>  0 0.90739464E+02</rscale>
<asrwt>0</asrwt>
<pdfrwt beam="2">  1        1 0.11076518E-01 0.90739464E+02</pdfrwt>
<pdfrwt beam="1">  1       -1 0.43984782E-02 0.90739464E+02</pdfrwt>
<totfact> 0.10041799E+05</totfact>
</mgrwt>
</event>
<event>
 5    1  0.6085374E+000  0.9220854E+02  0.7546771E-02  0.1297590E+00
         -1   -1    0    0    0  501 -0.00000000000E+00  0.00000000000E+00  0.59042532076E+01  0.59042532076E+01  0.00000000000E+00 0. -1.
          1   -1    0    0  501    0  0.00000000000E+00 -0.00000000000E+00 -0.36001229393E+03  0.36001229393E+03  0.00000000000E+00 0.  1.
         23    2    1    2    0    0  0.00000000000E+00  0.00000000000E+00 -0.35410804073E+03  0.36591654714E+03  0.92208540629E+02 0.  0.
        -13    1    3    3    0    0  0.36682416637E+02 -0.27747786564E+02 -0.16446463098E+03  0.17077515684E+03  0.00000000000E+00 0. -1.
         13    1    3    3    0    0 -0.36682416637E+02  0.27747786564E+02 -0.18964340975E+03  0.19514139030E+03  0.00000000000E+00 0.  1.
<mgrwt>
<rscale>  0 0.92208541E+02</rscale>
<asrwt>0</asrwt>
<pdfrwt beam="2">  1        1 0.55386529E-01 0.92208541E+02</pdfrwt>
<pdfrwt beam="1">  1       -1 0.90834628E-03 0.92208541E+02</pdfrwt>
<totfact> 0.12858413E+05</totfact>
</mgrwt>
</event>
<event>
 5    1  0.6085374E+000  0.8996959E+02  0.7546771E-02  0.1302925E+00
         -1   -1    0    0    0  501 -0.00000000000E+00  0.00000000000E+00  0.75507916801E+01  0.75507916801E+01  0.00000000000E+00 0.  1.
          1   -1    0    0  501    0  0.00000000000E+00 -0.00000000000E+00 -0.26800258894E+03  0.26800258894E+03  0.00000000000E+00 0. -1.
         23    2    1    2    0    0  0.00000000000E+00  0.00000000000E+00 -0.26045179725E+03  0.27555338062E+03  0.89969588613E+02 0.  0.
        -13    1    3    3    0    0  0.35536753465E+02 -0.23059707701E+02 -0.17657565201E+03  0.18158626559E+03  0.00000000000E+00 0. -1.
         13    1    3    3    0    0 -0.35536753465E+02  0.23059707701E+02 -0.83876145244E+02  0.93967115030E+02  0.00000000000E+00 0.  1.
<mgrwt>
<rscale>  0 0.89969589E+02</rscale>
<asrwt>0</asrwt>
<pdfrwt beam="2">  1        1 0.41231166E-01 0.89969589E+02</pdfrwt>
<pdfrwt beam="1">  1       -1 0.11616603E-02 0.89969589E+02</pdfrwt>
<totfact> 0.12989455E+05</totfact>
</mgrwt>
</event>
<event>
 5    1  0.6085374E+000  0.9026337E+02  0.7546771E-02  0.1302215E+00
         -2   -1    0    0    0  501 -0.00000000000E+00  0.00000000000E+00  0.10104810764E+02  0.10104810764E+02  0.00000000000E+00 0.  1.
          2   -1    0    0  501    0  0.00000000000E+00 -0.00000000000E+00 -0.20157418574E+03  0.20157418574E+03  0.00000000000E+00 0. -1.
         23    2    1    2    0    0  0.00000000000E+00  0.00000000000E+00 -0.19146937497E+03  0.21167899650E+03  0.90263370242E+02 0.  0.
        -13    1    3    3    0    0  0.34459361852E+02 -0.16304869124E+00 -0.27387441239E+02  0.44017566286E+02  0.00000000000E+00 0.  1.
         13    1    3    3    0    0 -0.34459361852E+02  0.16304869124E+00 -0.16408193373E+03  0.16766143021E+03  0.00000000000E+00 0. -1.
<mgrwt>
<rscale>  0 0.90263370E+02</rscale>
<asrwt>0</asrwt>
<pdfrwt beam="2">  1        2 0.31011411E-01 0.90263370E+02</pdfrwt>
<pdfrwt beam="1">  1       -2 0.15545864E-02 0.90263370E+02</pdfrwt>
<totfact> 0.15937602E+05</totfact>
</mgrwt>
</event>
<event>
 5    1  0.6085374E+000  0.8880239E+02  0.7546771E-02  0.1305778E+00
         -1   -1    0    0    0  501 -0.00000000000E+00  0.00000000000E+00  0.19564098546E+02  0.19564098546E+02  0.00000000000E+00 0.  1.
          1   -1    0    0  501    0  0.00000000000E+00 -0.00000000000E+00 -0.10076959691E+03  0.10076959691E+03  0.00000000000E+00 0. -1.
         23    2    1    2    0    0  0.00000000000E+00  0.00000000000E+00 -0.81205498360E+02  0.12033369545E+03  0.88802394659E+02 0.  0.
        -13    1    3    3    0    0 -0.25154778615E+02  0.85296607542E+01 -0.88816460818E+02  0.92703191488E+02  0.00000000000E+00 0. -1.
         13    1    3    3    0    0  0.25154778615E+02 -0.85296607542E+01  0.76109624585E+01  0.27630503964E+02  0.00000000000E+00 0.  1.
<mgrwt>
<rscale>  0 0.88802395E+02</rscale>
<asrwt>0</asrwt>
<pdfrwt beam="2">  1        1 0.15503015E-01 0.88802395E+02</pdfrwt>
<pdfrwt beam="1">  1       -1 0.30098613E-02 0.88802395E+02</pdfrwt>
<totfact> 0.11236343E+05</totfact>
</mgrwt>
</event>
<event>
 5    1  0.6085374E+000  0.9102244E+02  0.7546771E-02  0.1300394E+00
         -4   -1    0    0    0  501 -0.00000000000E+00  0.00000000000E+00  0.51555371068E+02  0.51555371068E+02  0.00000000000E+00 0.  1.
          4   -1    0    0  501    0  0.00000000000E+00 -0.00000000000E+00 -0.40175657985E+02  0.40175657985E+02  0.00000000000E+00 0. -1.
         23    2    1    2    0    0  0.00000000000E+00  0.00000000000E+00  0.11379713083E+02  0.91731029052E+02  0.91022435812E+02 0.  0.
        -13    1    3    3    0    0 -0.20543593547E+02 -0.25854559547E+02  0.37250959141E+02  0.49780834085E+02  0.00000000000E+00 0.  1.
         13    1    3    3    0    0  0.20543593547E+02  0.25854559547E+02 -0.25871246058E+02  0.41950194968E+02  0.00000000000E+00 0. -1.
<mgrwt>
<rscale>  0 0.91022436E+02</rscale>
<asrwt>0</asrwt>
<pdfrwt beam="2">  1        4 0.61808704E-02 0.91022436E+02</pdfrwt>
<pdfrwt beam="1">  1       -4 0.79315956E-02 0.91022436E+02</pdfrwt>
<totfact> 0.27105528E+04</totfact>
</mgrwt>
</event>
<event>
 5    1  0.6085374E+000  0.9115286E+02  0.7546771E-02  0.1300084E+00
          4   -1    0    0  501    0  0.00000000000E+00  0.00000000000E+00  0.33347240186E+02  0.33347240186E+02  0.00000000000E+00 0.  1.
         -4   -1    0    0    0  501 -0.00000000000E+00 -0.00000000000E+00 -0.62290344460E+02  0.62290344460E+02  0.00000000000E+00 0. -1.
         23    2    1    2    0    0  0.00000000000E+00  0.00000000000E+00 -0.28943104274E+02  0.95637584645E+02  0.91152862334E+02 0.  0.
        -13    1    3    3    0    0  0.16601011348E+02  0.41143763442E+02 -0.35272225963E+01  0.44506675310E+02  0.00000000000E+00 0.  1.
         13    1    3    3    0    0 -0.16601011348E+02 -0.41143763442E+02 -0.25415881678E+02  0.51130909335E+02  0.00000000000E+00 0. -1.
<mgrwt>
<rscale>  0 0.91152862E+02</rscale>
<asrwt>0</asrwt>
<pdfrwt beam="1">  1        4 0.51303446E-02 0.91152862E+02</pdfrwt>
<pdfrwt beam="2">  1       -4 0.95831299E-02 0.91152862E+02</pdfrwt>
<totfact> 0.26750426E+04</totfact>
</mgrwt>
</event>
<event>
 5    1  0.6085374E+000  0.9243958E+02  0.7546771E-02  0.1297049E+00
         -1   -1    0    0    0  501 -0.00000000000E+00  0.00000000000E+00  0.70589217187E+02  0.70589217187E+02  0.00000000000E+00 0.  1.
          1   -1    0    0  501    0  0.00000000000E+00 -0.00000000000E+00 -0.30263388886E+02  0.30263388886E+02  0.00000000000E+00 0. -1.
         23    2    1    2    0    0  0.00000000000E+00  0.00000000000E+00  0.40325828302E+02  0.10085260607E+03  0.92439578772E+02 0.  0.
        -13    1    3    3    0    0 -0.87988331728E+00 -0.30989778087E+02 -0.17237105170E+02  0.35471937291E+02  0.00000000000E+00 0. -1.
         13    1    3    3    0    0  0.87988331728E+00  0.30989778087E+02  0.57562933472E+02  0.65380668782E+02  0.00000000000E+00 0.  1.
<mgrwt>
<rscale>  0 0.92439579E+02</rscale>
<asrwt>0</asrwt>
<pdfrwt beam="2">  1        1 0.46559060E-02 0.92439579E+02</pdfrwt>
<pdfrwt beam="1">  1       -1 0.10859880E-01 0.92439579E+02</pdfrwt>
<totfact> 0.83439905E+04</totfact>
</mgrwt>
</event>
<event>
 5    1  0.6085374E+000  0.8789690E+02  0.7546771E-02  0.1308026E+00
          2   -1    0    0  501    0  0.00000000000E+00  0.00000000000E+00  0.23247757151E+02  0.23247757151E+02  0.00000000000E+00 0. -1.
         -2   -1    0    0    0  501 -0.00000000000E+00 -0.00000000000E+00 -0.83081834466E+02  0.83081834466E+02  0.00000000000E+00 0.  1.
         23    2    1    2    0    0  0.00000000000E+00  0.00000000000E+00 -0.59834077315E+02  0.10632959162E+03  0.87896901227E+02 0.  0.
        -13    1    3    3    0    0  0.29732141445E+02 -0.10155664514E+02 -0.67091282426E+02  0.74083587482E+02  0.00000000000E+00 0.  1.
         13    1    3    3    0    0 -0.29732141445E+02  0.10155664514E+02  0.72572051114E+01  0.32246004135E+02  0.00000000000E+00 0. -1.
<mgrwt>
<rscale>  0 0.87896901E+02</rscale>
<asrwt>0</asrwt>
<pdfrwt beam="1">  1        2 0.35765780E-02 0.87896901E+02</pdfrwt>
<pdfrwt beam="2">  1       -2 0.12781821E-01 0.87896901E+02</pdfrwt>
<totfact> 0.92137141E+04</totfact>
</mgrwt>
</event>
<event>
 5    1  0.6085374E+000  0.9360930E+02  0.7546771E-02  0.1294339E+00
          1   -1    0    0  501    0  0.00000000000E+00  0.00000000000E+00  0.87209817373E+02  0.87209817373E+02  0.00000000000E+00 0. -1.
         -1   -1    0    0    0  501 -0.00000000000E+00 -0.00000000000E+00 -0.25119592103E+02  0.25119592103E+02  0.00000000000E+00 0.  1.
         23    2    1    2    0    0  0.00000000000E+00  0.00000000000E+00  0.62090225270E+02  0.11232940948E+03  0.93609295260E+02 0.  0.
        -13    1    3    3    0    0 -0.14332975615E+02 -0.38595795609E+02  0.43308913044E+01  0.41398384608E+02  0.00000000000E+00 0.  1.
         13    1    3    3    0    0  0.14332975615E+02  0.38595795609E+02  0.57759333966E+02  0.70931024868E+02  0.00000000000E+00 0. -1.
<mgrwt>
<rscale>  0 0.93609295E+02</rscale>
<asrwt>0</asrwt>
<pdfrwt beam="1">  1        1 0.13416895E-01 0.93609295E+02</pdfrwt>
<pdfrwt beam="2">  1       -1 0.38645527E-02 0.93609295E+02</pdfrwt>
<totfact> 0.95019030E+04</totfact>
</mgrwt>
</event>
<event>
 5    1  0.6085374E+000  0.8825812E+02  0.7546771E-02  0.1307126E+00
          3   -1    0    0  501    0  0.00000000000E+00  0.00000000000E+00  0.12786244024E+02  0.12786244024E+02  0.00000000000E+00 0. -1.
         -3   -1    0    0    0  501 -0.00000000000E+00 -0.00000000000E+00 -0.15230225025E+03  0.15230225025E+03  0.00000000000E+00 0.  1.
         23    2    1    2    0    0  0.00000000000E+00  0.00000000000E+00 -0.13951600622E+03  0.16508849427E+03  0.88258115480E+02 0.  0.
        -13    1    3    3    0    0  0.25873160479E+02  0.23234840991E+02 -0.12057610338E+03  0.12549053739E+03  0.00000000000E+00 0.  1.
         13    1    3    3    0    0 -0.25873160479E+02 -0.23234840991E+02 -0.18939902843E+02  0.39597956876E+02  0.00000000000E+00 0. -1.
<mgrwt>
<rscale>  0 0.88258115E+02</rscale>
<asrwt>0</asrwt>
<pdfrwt beam="1">  1        3 0.19671144E-02 0.88258115E+02</pdfrwt>
<pdfrwt beam="2">  1       -3 0.23431116E-01 0.88258115E+02</pdfrwt>
<totfact> 0.33196887E+04</totfact>
</mgrwt>
</event>
<event>
 5    1  0.6085374E+000  0.9106421E+02  0.7546771E-02  0.1300295E+00
         -2   -1    0    0    0  501 -0.00000000000E+00  0.00000000000E+00  0.20935480436E+03  0.20935480436E+03  0.00000000000E+00 0.  1.
          2   -1    0    0  501    0  0.00000000000E+00 -0.00000000000E+00 -0.99026742401E+01  0.99026742401E+01  0.00000000000E+00 0. -1.
         23    2    1    2    0    0  0.00000000000E+00  0.00000000000E+00  0.19945213012E+03  0.21925747860E+03  0.91064206539E+02 0.  0.
        -13    1    3    3    0    0 -0.27493714932E+02  0.25714359274E+02  0.16139575993E+03  0.16572786114E+03  0.00000000000E+00 0.  1.
         13    1    3    3    0    0  0.27493714932E+02 -0.25714359274E+02  0.38056370186E+02  0.53529617459E+02  0.00000000000E+00 0. -1.
<mgrwt>
<rscale>  0 0.91064207E+02</rscale>
<asrwt>0</asrwt>
<pdfrwt beam="2">  1        2 0.15234885E-02 0.91064207E+02</pdfrwt>
<pdfrwt beam="1">  1       -2 0.32208428E-01 0.91064207E+02</pdfrwt>
<totfact> 0.61273966E+04</totfact>
</mgrwt>
</event>
<event>
 5    1  0.6085374E+000  0.9118664E+02  0.7546771E-02  0.1300003E+00
         -1   -1    0    0    0  501 -0.00000000000E+00  0.00000000000E+00  0.82668278607E+01  0.82668278607E+01  0.00000000000E+00 0.  1.
          1   -1    0    0  501    0  0.00000000000E+00 -0.00000000000E+00 -0.25145689647E+03  0.25145689647E+03  0.00000000000E+00 0. -1.
         23    2    1    2    0    0  0.00000000000E+00  0.00000000000E+00 -0.24319006861E+03  0.25972372433E+03  0.91186641072E+02 0.  0.
        -13    1    3    3    0    0 -0.36121516838E+02 -0.35894192632E+01 -0.20017324065E+03  0.20343788777E+03  0.00000000000E+00 0. -1.
         13    1    3    3    0    0  0.36121516838E+02  0.35894192632E+01 -0.43016827960E+02  0.56285836558E+02  0.00000000000E+00 0.  1.
<mgrwt>
<rscale>  0 0.91186641E+02</rscale>
<asrwt>0</asrwt>
<pdfrwt beam="2">  1        1 0.38685671E-01 0.91186641E+02</pdfrwt>
<pdfrwt beam="1">  1       -1 0.12718198E-02 0.91186641E+02</pdfrwt>
<totfact> 0.12377440E+05</totfact>
</mgrwt>
</event>
<event>
 5    1  0.6085374E+000  0.8985960E+02  0.7546771E-02  0.1303192E+00
         -1   -1    0    0    0  501 -0.00000000000E+00  0.00000000000E+00  0.52270888992E+02  0.52270888992E+02  0.00000000000E+00 0.  1.
          1   -1    0    0  501    0  0.00000000000E+00 -0.00000000000E+00 -0.38619716484E+02  0.38619716484E+02  0.00000000000E+00 0. -1.
         23    2    1    2    0    0  0.00000000000E+00  0.00000000000E+00  0.13651172508E+02  0.90890605475E+02  0.89859599670E+02 0.  0.
        -13    1    3    3    0    0  0.17747123459E+02  0.16165369433E+01 -0.34892189086E+02  0.39179566638E+02  0.00000000000E+00 0. -1.
         13    1    3    3    0    0 -0.17747123459E+02 -0.16165369433E+01  0.48543361594E+02  0.51711038837E+02  0.00000000000E+00 0.  1.
<mgrwt>
<rscale>  0 0.89859600E+02</rscale>
<asrwt>0</asrwt>
<pdfrwt beam="2">  1        1 0.59414948E-02 0.89859600E+02</pdfrwt>
<pdfrwt beam="1">  1       -1 0.80416752E-02 0.89859600E+02</pdfrwt>
<totfact> 0.93963302E+04</totfact>
</mgrwt>
</event>
<event>
 5    1  0.6085374E+000  0.9512594E+02  0.7546771E-02  0.1290893E+00
          3   -1    0    0  501    0  0.00000000000E+00  0.00000000000E+00  0.33118436744E+02  0.33118436744E+02  0.00000000000E+00 0. -1.
         -3   -1    0    0    0  501 -0.00000000000E+00 -0.00000000000E+00 -0.68307455730E+02  0.68307455730E+02  0.00000000000E+00 0.  1.
         23    2    1    2    0    0  0.00000000000E+00  0.00000000000E+00 -0.35189018986E+02  0.10142589247E+03  0.95125940767E+02 0.  0.
        -13    1    3    3    0    0  0.28214358996E+02 -0.87299820700E+01  0.22156955162E+02  0.36921447731E+02  0.00000000000E+00 0. -1.
         13    1    3    3    0    0 -0.28214358996E+02  0.87299820700E+01 -0.57345974148E+02  0.64504444742E+02  0.00000000000E+00 0.  1.
<mgrwt>
<rscale>  0 0.95125941E+02</rscale>
<asrwt>0</asrwt>
<pdfrwt beam="1">  1        3 0.50951442E-02 0.95125941E+02</pdfrwt>
<pdfrwt beam="2">  1       -3 0.10508839E-01 0.95125941E+02</pdfrwt>
<totfact> 0.30785411E+04</totfact>
</mgrwt>
</event>
<event>
 5    1  0.6085374E+000  0.9248402E+02  0.7546771E-02  0.1296945E+00
          2   -1    0    0  501    0  0.00000000000E+00  0.00000000000E+00  0.37610678080E+02  0.37610678080E+02  0.00000000000E+00 0.  1.
         -2   -1    0    0    0  501 -0.00000000000E+00 -0.00000000000E+00 -0.56854156423E+02  0.56854156423E+02  0.00000000000E+00 0. -1.
         23    2    1    2    0    0  0.00000000000E+00  0.00000000000E+00 -0.19243478343E+02  0.94464834504E+02  0.92484017533E+02 0.  0.
        -13    1    3    3    0    0  0.11292840867E+02 -0.45644579531E-01  0.36180548169E+02  0.37902010555E+02  0.00000000000E+00 0.  1.
         13    1    3    3    0    0 -0.11292840867E+02  0.45644579531E-01 -0.55424026512E+02  0.56562823949E+02  0.00000000000E+00 0. -1.
<mgrwt>
<rscale>  0 0.92484018E+02</rscale>
<asrwt>0</asrwt>
<pdfrwt beam="1">  1        2 0.57862582E-02 0.92484018E+02</pdfrwt>
<pdfrwt beam="2">  1       -2 0.87467933E-02 0.92484018E+02</pdfrwt>
<totfact> 0.90059189E+04</totfact>
</mgrwt>
</event>
<event>
 5    1  0.6085374E+000  0.9129799E+02  0.7546771E-02  0.1299739E+00
         -2   -1    0    0    0  501 -0.00000000000E+00  0.00000000000E+00  0.38663405797E+03  0.38663405797E+03  0.00000000000E+00 0.  1.
          2   -1    0    0  501    0  0.00000000000E+00 -0.00000000000E+00 -0.53896718761E+01  0.53896718761E+01  0.00000000000E+00 0. -1.
         23    2    1    2    0    0  0.00000000000E+00  0.00000000000E+00  0.38124438609E+03  0.39202372984E+03  0.91297989212E+02 0.  0.
        -13    1    3    3    0    0  0.20090376423E+02 -0.38663930527E+02  0.13217035380E+03  0.13916725610E+03  0.00000000000E+00 0.  1.
         13    1    3    3    0    0 -0.20090376423E+02  0.38663930527E+02  0.24907403229E+03  0.25285647374E+03  0.00000000000E+00 0. -1.
<mgrwt>
<rscale>  0 0.91297989E+02</rscale>
<asrwt>0</asrwt>
<pdfrwt beam="2">  1        2 0.82918059E-03 0.91297989E+02</pdfrwt>
<pdfrwt beam="1">  1       -2 0.59482141E-01 0.91297989E+02</pdfrwt>
<totfact> 0.43524766E+04</totfact>
</mgrwt>
</event>
<event>
 5    1  0.6085374E+000  0.9114649E+02  0.7546771E-02  0.1300099E+00
         -2   -1    0    0    0  501 -0.00000000000E+00  0.00000000000E+00  0.12395238427E+02  0.12395238427E+02  0.00000000000E+00 0.  1.
          2   -1    0    0  501    0  0.00000000000E+00 -0.00000000000E+00 -0.16755794082E+03  0.16755794082E+03  0.00000000000E+00 0. -1.
         23    2    1    2    0    0  0.00000000000E+00  0.00000000000E+00 -0.15516270239E+03  0.17995317925E+03  0.91146489274E+02 0.  0.
        -13    1    3    3    0    0 -0.13906985822E+02 -0.27652650854E+02 -0.14362103454E+03  0.14691859962E+03  0.00000000000E+00 0. -1.
         13    1    3    3    0    0  0.13906985822E+02  0.27652650854E+02 -0.11541667855E+02  0.33034579622E+02  0.00000000000E+00 0.  1.
<mgrwt>
<rscale>  0 0.91146489E+02</rscale>
<asrwt>0</asrwt>
<pdfrwt beam="2">  1        2 0.25778145E-01 0.91146489E+02</pdfrwt>
<pdfrwt beam="1">  1       -2 0.19069598E-02 0.91146489E+02</pdfrwt>
<totfact> 0.14537392E+05</totfact>
</mgrwt>
</event>
<event>
 5    1  0.6085374E+000  0.9231739E+02  0.7546771E-02  0.1297335E+00
          2   -1    0    0  501    0  0.00000000000E+00  0.00000000000E+00  0.35788610383E+02  0.35788610383E+02  0.00000000000E+00 0. -1.
         -2   -1    0    0    0  501 -0.00000000000E+00 -0.00000000000E+00 -0.59533614896E+02  0.59533614896E+02  0.00000000000E+00 0.  1.
         23    2    1    2    0    0  0.00000000000E+00  0.00000000000E+00 -0.23745004514E+02  0.95322225279E+02  0.92317394855E+02 0.  0.
        -13    1    3    3    0    0 -0.12925030871E+02 -0.12399869888E+02 -0.55799081267E+02  0.58603333237E+02  0.00000000000E+00 0.  1.
         13    1    3    3    0    0  0.12925030871E+02  0.12399869888E+02  0.32054076754E+02  0.36718892042E+02  0.00000000000E+00 0. -1.
<mgrwt>
<rscale>  0 0.92317395E+02</rscale>
<asrwt>0</asrwt>
<pdfrwt beam="1">  1        2 0.55059401E-02 0.92317395E+02</pdfrwt>
<pdfrwt beam="2">  1       -2 0.91590176E-02 0.92317395E+02</pdfrwt>
<totfact> 0.89360350E+04</totfact>
</mgrwt>
</event>
<event>
 5    1  0.6085374E+000  0.9233552E+02  0.7546771E-02  0.1297292E+00
          2   -1    0    0  501    0  0.00000000000E+00  0.00000000000E+00  0.18137175356E+03  0.18137175356E+03  0.00000000000E+00 0. -1.
         -2   -1    0    0    0  501 -0.00000000000E+00 -0.00000000000E+00 -0.11751895585E+02  0.11751895585E+02  0.00000000000E+00 0.  1.
         23    2    1    2    0    0  0.00000000000E+00  0.00000000000E+00  0.16961985797E+03  0.19312364914E+03  0.92335516673E+02 0.  0.
        -13    1    3    3    0    0 -0.31783151605E+02  0.13691679867E+02  0.14872464136E+03  0.15269790362E+03  0.00000000000E+00 0.  1.
         13    1    3    3    0    0  0.31783151605E+02 -0.13691679867E+02  0.20895216616E+02  0.40425745521E+02  0.00000000000E+00 0. -1.
<mgrwt>
<rscale>  0 0.92335517E+02</rscale>
<asrwt>0</asrwt>
<pdfrwt beam="1">  1        2 0.27903345E-01 0.92335517E+02</pdfrwt>
<pdfrwt beam="2">  1       -2 0.18079841E-02 0.92335517E+02</pdfrwt>
<totfact> 0.14433637E+05</totfact>
</mgrwt>
</event>
<event>
 5    1  0.6085374E+000  0.9032175E+02  0.7546771E-02  0.1302074E+00
         -3   -1    0    0    0  501 -0.00000000000E+00  0.00000000000E+00  0.45077012490E+02  0.45077012490E+02  0.00000000000E+00 0.  1.
          3   -1    0    0  501    0  0.00000000000E+00 -0.00000000000E+00 -0.45244898034E+02  0.45244898034E+02  0.00000000000E+00 0. -1.
         23    2    1    2    0    0  0.00000000000E+00  0.00000000000E+00 -0.16788554456E+00  0.90321910524E+02  0.90321754496E+02 0.  0.
        -13    1    3    3    0    0 -0.30725963919E+02  0.33096961355E+02  0.21528329810E-01  0.45160759218E+02  0.00000000000E+00 0.  1.
         13    1    3    3    0    0  0.30725963919E+02 -0.33096961355E+02 -0.18941387437E+00  0.45161151306E+02  0.00000000000E+00 0. -1.
<mgrwt>
<rscale>  0 0.90321754E+02</rscale>
<asrwt>0</asrwt>
<pdfrwt beam="2">  1        3 0.69607536E-02 0.90321754E+02</pdfrwt>
<pdfrwt beam="1">  1       -3 0.69349249E-02 0.90321754E+02</pdfrwt>
<totfact> 0.36323729E+04</totfact>
</mgrwt>
</event>
<event>
 5    1  0.6085374E+000  0.9487497E+02  0.7546771E-02  0.1291458E+00
         -1   -1    0    0    0  501 -0.00000000000E+00  0.00000000000E+00  0.25802110150E+03  0.25802110150E+03  0.00000000000E+00 0.  1.
          1   -1    0    0  501    0  0.00000000000E+00 -0.00000000000E+00 -0.87214383311E+01  0.87214383311E+01  0.00000000000E+00 0. -1.
         23    2    1    2    0    0  0.00000000000E+00  0.00000000000E+00  0.24929966317E+03  0.26674253983E+03  0.94874972988E+02 0.  0.
        -13    1    3    3    0    0 -0.22066298982E+02 -0.33561150300E+02  0.53687984631E+02  0.67049772960E+02  0.00000000000E+00 0.  1.
         13    1    3    3    0    0  0.22066298982E+02  0.33561150300E+02  0.19561167854E+03  0.19969276687E+03  0.00000000000E+00 0. -1.
<mgrwt>
<rscale>  0 0.94874973E+02</rscale>
<asrwt>0</asrwt>
<pdfrwt beam="2">  1        1 0.13417599E-02 0.94874973E+02</pdfrwt>
<pdfrwt beam="1">  1       -1 0.39695548E-01 0.94874973E+02</pdfrwt>
<totfact> 0.57735642E+04</totfact>
</mgrwt>
</event>
<event>
 5    1  0.6085374E+000  0.9241933E+02  0.7546771E-02  0.1297096E+00
          2   -1    0    0  501    0  0.00000000000E+00  0.00000000000E+00  0.52702686304E+02  0.52702686304E+02  0.00000000000E+00 0.  1.
         -2   -1    0    0    0  501 -0.00000000000E+00 -0.00000000000E+00 -0.40516593653E+02  0.40516593653E+02  0.00000000000E+00 0. -1.
         23    2    1    2    0    0  0.00000000000E+00  0.00000000000E+00  0.12186092652E+02  0.93219279957E+02  0.92419334025E+02 0.  0.
        -13    1    3    3    0    0  0.11186840106E+02  0.21569593706E+02 -0.33552900767E+02  0.41426922575E+02  0.00000000000E+00 0. -1.
         13    1    3    3    0    0 -0.11186840106E+02 -0.21569593706E+02  0.45738993419E+02  0.51792357382E+02  0.00000000000E+00 0.  1.
<mgrwt>
<rscale>  0 0.92419334E+02</rscale>
<asrwt>0</asrwt>
<pdfrwt beam="1">  1        2 0.81081056E-02 0.92419334E+02</pdfrwt>
<pdfrwt beam="2">  1       -2 0.62333221E-02 0.92419334E+02</pdfrwt>
<totfact> 0.98605216E+04</totfact>
</mgrwt>
</event>
<event>
 5    1  0.6085374E+000  0.9274500E+02  0.7546771E-02  0.1296337E+00
         -1   -1    0    0    0  501 -0.00000000000E+00  0.00000000000E+00  0.33022720513E+02  0.33022720513E+02  0.00000000000E+00 0.  1.
          1   -1    0    0  501    0  0.00000000000E+00 -0.00000000000E+00 -0.65119074105E+02  0.65119074105E+02  0.00000000000E+00 0. -1.
         23    2    1    2    0    0  0.00000000000E+00  0.00000000000E+00 -0.32096353592E+02  0.98141794618E+02  0.92745004916E+02 0.  0.
        -13    1    3    3    0    0 -0.30035575183E+02  0.33194125154E+01 -0.53269604229E+02  0.61243816102E+02  0.00000000000E+00 0. -1.
         13    1    3    3    0    0  0.30035575183E+02 -0.33194125154E+01  0.21173250637E+02  0.36897978516E+02  0.00000000000E+00 0.  1.
<mgrwt>
<rscale>  0 0.92745005E+02</rscale>
<asrwt>0</asrwt>
<pdfrwt beam="2">  1        1 0.10018319E-01 0.92745005E+02</pdfrwt>
<pdfrwt beam="1">  1       -1 0.50804186E-02 0.92745005E+02</pdfrwt>
<totfact> 0.93074094E+04</totfact>
</mgrwt>
</event>
<event>
 5    1  0.6085374E+000  0.9410521E+02  0.7546771E-02  0.1293204E+00
         -1   -1    0    0    0  501 -0.00000000000E+00  0.00000000000E+00  0.13788633600E+02  0.13788633600E+02  0.00000000000E+00 0.  1.
          1   -1    0    0  501    0  0.00000000000E+00 -0.00000000000E+00 -0.16056322033E+03  0.16056322033E+03  0.00000000000E+00 0. -1.
         23    2    1    2    0    0  0.00000000000E+00  0.00000000000E+00 -0.14677458673E+03  0.17435185393E+03  0.94105205268E+02 0.  0.
        -13    1    3    3    0    0  0.37826120937E+02  0.17957746948E+02 -0.33622467904E+02  0.53700711807E+02  0.00000000000E+00 0.  1.
         13    1    3    3    0    0 -0.37826120937E+02 -0.17957746948E+02 -0.11315211882E+03  0.12065114212E+03  0.00000000000E+00 0. -1.
<mgrwt>
<rscale>  0 0.94105205E+02</rscale>
<asrwt>0</asrwt>
<pdfrwt beam="2">  1        1 0.24702032E-01 0.94105205E+02</pdfrwt>
<pdfrwt beam="1">  1       -1 0.21213284E-02 0.94105205E+02</pdfrwt>
<totfact> 0.10426172E+05</totfact>
</mgrwt>
</event>
<event>
 5    1  0.6085374E+000  0.9000763E+02  0.7546771E-02  0.1302833E+00
          3   -1    0    0  501    0  0.00000000000E+00  0.00000000000E+00  0.10868342630E+03  0.10868342630E+03  0.00000000000E+00 0. -1.
         -3   -1    0    0    0  501 -0.00000000000E+00 -0.00000000000E+00 -0.18635253362E+02  0.18635253362E+02  0.00000000000E+00 0.  1.
         23    2    1    2    0    0  0.00000000000E+00  0.00000000000E+00  0.90048172941E+02  0.12731867967E+03  0.90007626020E+02 0.  0.
        -13    1    3    3    0    0 -0.34310942355E+02  0.25210371032E+02  0.24401992511E+02  0.49074033983E+02  0.00000000000E+00 0.  1.
         13    1    3    3    0    0  0.34310942355E+02 -0.25210371032E+02  0.65646180430E+02  0.78244645682E+02  0.00000000000E+00 0. -1.
<mgrwt>
<rscale>  0 0.90007626E+02</rscale>
<asrwt>0</asrwt>
<pdfrwt beam="1">  1        3 0.16720527E-01 0.90007626E+02</pdfrwt>
<pdfrwt beam="2">  1       -3 0.28669621E-02 0.90007626E+02</pdfrwt>
<totfact> 0.33918110E+04</totfact>
</mgrwt>
</event>
<event>
 5    1  0.6085374E+000  0.8331790E+02  0.7546771E-02  0.1319891E+00
         -2   -1    0    0    0  501 -0.00000000000E+00  0.00000000000E+00  0.15630919457E+02  0.15630919457E+02  0.00000000000E+00 0.  1.
          2   -1    0    0  501    0  0.00000000000E+00 -0.00000000000E+00 -0.11102788513E+03  0.11102788513E+03  0.00000000000E+00 0. -1.
         23    2    1    2    0    0  0.00000000000E+00  0.00000000000E+00 -0.95396965673E+02  0.12665880459E+03  0.83317895555E+02 0.  0.
        -13    1    3    3    0    0  0.24975601670E+02 -0.92359924110E+01 -0.96401062458E+02  0.10001124476E+03  0.00000000000E+00 0. -1.
         13    1    3    3    0    0 -0.24975601670E+02  0.92359924110E+01  0.10040967846E+01  0.26647559831E+02  0.00000000000E+00 0.  1.
<mgrwt>
<rscale>  0 0.83317896E+02</rscale>
<asrwt>0</asrwt>
<pdfrwt beam="2">  1        2 0.17081213E-01 0.83317896E+02</pdfrwt>
<pdfrwt beam="1">  1       -2 0.24047569E-02 0.83317896E+02</pdfrwt>
<totfact> 0.16194837E+05</totfact>
</mgrwt>
</event>
<event>
 5    1  0.6085374E+000  0.9265198E+02  0.7546771E-02  0.1296554E+00
          1   -1    0    0  501    0  0.00000000000E+00  0.00000000000E+00  0.28459992339E+02  0.28459992339E+02  0.00000000000E+00 0. -1.
         -1   -1    0    0    0  501 -0.00000000000E+00 -0.00000000000E+00 -0.75407512188E+02  0.75407512188E+02  0.00000000000E+00 0.  1.
         23    2    1    2    0    0  0.00000000000E+00  0.00000000000E+00 -0.46947519849E+02  0.10386750453E+03  0.92651977187E+02 0.  0.
        -13    1    3    3    0    0 -0.63301361120E+00 -0.15717617857E+02  0.25374354711E+02  0.29854682954E+02  0.00000000000E+00 0. -1.
         13    1    3    3    0    0  0.63301361120E+00  0.15717617857E+02 -0.72321874560E+02  0.74012821573E+02  0.00000000000E+00 0.  1.
<mgrwt>
<rscale>  0 0.92651977E+02</rscale>
<asrwt>0</asrwt>
<pdfrwt beam="1">  1        1 0.43784604E-02 0.92651977E+02</pdfrwt>
<pdfrwt beam="2">  1       -1 0.11601156E-01 0.92651977E+02</pdfrwt>
<totfact> 0.82052844E+04</totfact>
</mgrwt>
</event>
<event>
 5    1  0.6085374E+000  0.8500699E+02  0.7546771E-02  0.1315414E+00
          3   -1    0    0  501    0  0.00000000000E+00  0.00000000000E+00  0.14948734595E+02  0.14948734595E+02  0.00000000000E+00 0. -1.
         -3   -1    0    0    0  501 -0.00000000000E+00 -0.00000000000E+00 -0.12084949921E+03  0.12084949921E+03  0.00000000000E+00 0.  1.
         23    2    1    2    0    0  0.00000000000E+00  0.00000000000E+00 -0.10590076462E+03  0.13579823381E+03  0.85006990056E+02 0.  0.
        -13    1    3    3    0    0 -0.37840261495E+02 -0.15785986184E+02 -0.35056703581E+02  0.53944927618E+02  0.00000000000E+00 0.  1.
         13    1    3    3    0    0  0.37840261495E+02  0.15785986184E+02 -0.70844061036E+02  0.81853306187E+02  0.00000000000E+00 0. -1.
<mgrwt>
<rscale>  0 0.85006990E+02</rscale>
<asrwt>0</asrwt>
<pdfrwt beam="1">  1        3 0.22998053E-02 0.85006990E+02</pdfrwt>
<pdfrwt beam="2">  1       -3 0.18592231E-01 0.85006990E+02</pdfrwt>
<totfact> 0.38897117E+04</totfact>
</mgrwt>
</event>
<event>
 5    1  0.6085374E+000  0.9370848E+02  0.7546771E-02  0.1294112E+00
         -2   -1    0    0    0  501 -0.00000000000E+00  0.00000000000E+00  0.48625459235E+02  0.48625459235E+02  0.00000000000E+00 0.  1.
          2   -1    0    0  501    0  0.00000000000E+00 -0.00000000000E+00 -0.45147537264E+02  0.45147537264E+02  0.00000000000E+00 0. -1.
         23    2    1    2    0    0  0.00000000000E+00  0.00000000000E+00  0.34779219716E+01  0.93772996499E+02  0.93708478438E+02 0.  0.
        -13    1    3    3    0    0  0.36713909129E+02 -0.27095036134E+02 -0.89110929494E+01  0.46491501204E+02  0.00000000000E+00 0. -1.
         13    1    3    3    0    0 -0.36713909129E+02  0.27095036134E+02  0.12389014921E+02  0.47281495295E+02  0.00000000000E+00 0.  1.
<mgrwt>
<rscale>  0 0.93708478E+02</rscale>
<asrwt>0</asrwt>
<pdfrwt beam="2">  1        2 0.69457750E-02 0.93708478E+02</pdfrwt>
<pdfrwt beam="1">  1       -2 0.74808399E-02 0.93708478E+02</pdfrwt>
<totfact> 0.90954924E+04</totfact>
</mgrwt>
</event>
<event>
 5    1  0.6085374E+000  0.9262737E+02  0.7546771E-02  0.1296611E+00
          1   -1    0    0  501    0  0.00000000000E+00  0.00000000000E+00  0.48189020308E+02  0.48189020308E+02  0.00000000000E+00 0. -1.
         -1   -1    0    0    0  501 -0.00000000000E+00 -0.00000000000E+00 -0.44511326665E+02  0.44511326665E+02  0.00000000000E+00 0.  1.
         23    2    1    2    0    0  0.00000000000E+00  0.00000000000E+00  0.36776936431E+01  0.92700346974E+02  0.92627365819E+02 0.  0.
        -13    1    3    3    0    0 -0.28727233580E+02  0.30044118403E+02  0.22276842768E+02  0.47161008508E+02  0.00000000000E+00 0. -1.
         13    1    3    3    0    0  0.28727233580E+02 -0.30044118403E+02 -0.18599149125E+02  0.45539338466E+02  0.00000000000E+00 0.  1.
<mgrwt>
<rscale>  0 0.92627366E+02</rscale>
<asrwt>0</asrwt>
<pdfrwt beam="1">  1        1 0.74136954E-02 0.92627366E+02</pdfrwt>
<pdfrwt beam="2">  1       -1 0.68478964E-02 0.92627366E+02</pdfrwt>
<totfact> 0.89206347E+04</totfact>
</mgrwt>
</event>
<event>
 5    1  0.6085374E+000  0.8799091E+02  0.7546771E-02  0.1307791E+00
         -2   -1    0    0    0  501 -0.00000000000E+00  0.00000000000E+00  0.49648763587E+02  0.49648763587E+02  0.00000000000E+00 0.  1.
          2   -1    0    0  501    0  0.00000000000E+00 -0.00000000000E+00 -0.38985866065E+02  0.38985866065E+02  0.00000000000E+00 0. -1.
         23    2    1    2    0    0  0.00000000000E+00  0.00000000000E+00  0.10662897521E+02  0.88634629652E+02  0.87990909701E+02 0.  0.
        -13    1    3    3    0    0  0.34265962987E+02 -0.15614573247E+02  0.28249352833E+02  0.47074377878E+02  0.00000000000E+00 0.  1.
         13    1    3    3    0    0 -0.34265962987E+02  0.15614573247E+02 -0.17586455312E+02  0.41560251774E+02  0.00000000000E+00 0. -1.
<mgrwt>
<rscale>  0 0.87990910E+02</rscale>
<asrwt>0</asrwt>
<pdfrwt beam="2">  1        2 0.59978256E-02 0.87990910E+02</pdfrwt>
<pdfrwt beam="1">  1       -2 0.76382713E-02 0.87990910E+02</pdfrwt>
<totfact> 0.10500960E+05</totfact>
</mgrwt>
</event>
<event>
 5    1  0.6085374E+000  0.9211979E+02  0.7546771E-02  0.1297798E+00
         -2   -1    0    0    0  501 -0.00000000000E+00  0.00000000000E+00  0.16222619620E+02  0.16222619620E+02  0.00000000000E+00 0.  1.
          2   -1    0    0  501    0  0.00000000000E+00 -0.00000000000E+00 -0.13077504786E+03  0.13077504786E+03  0.00000000000E+00 0. -1.
         23    2    1    2    0    0  0.00000000000E+00  0.00000000000E+00 -0.11455242824E+03  0.14699766748E+03  0.92119788478E+02 0.  0.
        -13    1    3    3    0    0  0.11587287123E+02 -0.26231968232E+02 -0.11479162563E+03  0.11831947724E+03  0.00000000000E+00 0. -1.
         13    1    3    3    0    0 -0.11587287123E+02  0.26231968232E+02  0.23919738540E+00  0.28678190242E+02  0.00000000000E+00 0.  1.
<mgrwt>
<rscale>  0 0.92119788E+02</rscale>
<asrwt>0</asrwt>
<pdfrwt beam="2">  1        2 0.20119238E-01 0.92119788E+02</pdfrwt>
<pdfrwt beam="1">  1       -2 0.24957877E-02 0.92119788E+02</pdfrwt>
<totfact> 0.12984188E+05</totfact>
</mgrwt>
</event>
<event>
 5    1  0.6085374E+000  0.9388827E+02  0.7546771E-02  0.1293700E+00
          1   -1    0    0  501    0  0.00000000000E+00  0.00000000000E+00  0.24107359542E+02  0.24107359542E+02  0.00000000000E+00 0. -1.
         -1   -1    0    0    0  501 -0.00000000000E+00 -0.00000000000E+00 -0.91414063157E+02  0.91414063157E+02  0.00000000000E+00 0.  1.
         23    2    1    2    0    0  0.00000000000E+00  0.00000000000E+00 -0.67306703614E+02  0.11552142270E+03  0.93888267377E+02 0.  0.
        -13    1    3    3    0    0  0.38832774665E+02 -0.24465994525E+02 -0.21523792011E+02  0.50693617930E+02  0.00000000000E+00 0. -1.
         13    1    3    3    0    0 -0.38832774665E+02  0.24465994525E+02 -0.45782911604E+02  0.64827804769E+02  0.00000000000E+00 0.  1.
<mgrwt>
<rscale>  0 0.93888267E+02</rscale>
<asrwt>0</asrwt>
<pdfrwt beam="1">  1        1 0.37088245E-02 0.93888267E+02</pdfrwt>
<pdfrwt beam="2">  1       -1 0.14063702E-01 0.93888267E+02</pdfrwt>
<totfact> 0.76705489E+04</totfact>
</mgrwt>
</event>
<event>
 5    1  0.6085374E+000  0.8909081E+02  0.7546771E-02  0.1305068E+00
         -1   -1    0    0    0  501 -0.00000000000E+00  0.00000000000E+00  0.36594651889E+02  0.36594651889E+02  0.00000000000E+00 0.  1.
          1   -1    0    0  501    0  0.00000000000E+00 -0.00000000000E+00 -0.54223579290E+02  0.54223579290E+02  0.00000000000E+00 0. -1.
         23    2    1    2    0    0  0.00000000000E+00  0.00000000000E+00 -0.17628927401E+02  0.90818231179E+02  0.89090807792E+02 0.  0.
        -13    1    3    3    0    0 -0.44242694330E+02  0.88055023554E+00 -0.36064271504E+01  0.44398172114E+02  0.00000000000E+00 0. -1.
         13    1    3    3    0    0  0.44242694330E+02 -0.88055023554E+00 -0.14022500250E+02  0.46420059065E+02  0.00000000000E+00 0.  1.
<mgrwt>
<rscale>  0 0.89090808E+02</rscale>
<asrwt>0</asrwt>
<pdfrwt beam="2">  1        1 0.83420891E-02 0.89090808E+02</pdfrwt>
<pdfrwt beam="1">  1       -1 0.56299465E-02 0.89090808E+02</pdfrwt>
<totfact> 0.10121473E+05</totfact>
</mgrwt>
</event>
<event>
 5    1  0.6085374E+000  0.9169184E+02  0.7546771E-02  0.1298806E+00
         -2   -1    0    0    0  501 -0.00000000000E+00  0.00000000000E+00  0.16071281127E+02  0.16071281127E+02  0.00000000000E+00 0.  1.
          2   -1    0    0  501    0  0.00000000000E+00 -0.00000000000E+00 -0.13078288993E+03  0.13078288993E+03  0.00000000000E+00 0. -1.
         23    2    1    2    0    0  0.00000000000E+00  0.00000000000E+00 -0.11471160881E+03  0.14685417106E+03  0.91691844582E+02 0.  0.
        -13    1    3    3    0    0  0.45391560709E+02  0.39352948274E+01 -0.49194172255E+02  0.67051822591E+02  0.00000000000E+00 0.  1.
         13    1    3    3    0    0 -0.45391560709E+02 -0.39352948274E+01 -0.65517436550E+02  0.79802348468E+02  0.00000000000E+00 0. -1.
<mgrwt>
<rscale>  0 0.91691845E+02</rscale>
<asrwt>0</asrwt>
<pdfrwt beam="2">  1        2 0.20120444E-01 0.91691845E+02</pdfrwt>
<pdfrwt beam="1">  1       -2 0.24725048E-02 0.91691845E+02</pdfrwt>
<totfact> 0.13150630E+05</totfact>
</mgrwt>
</event>
<event>
 5    1  0.6085374E+000  0.9232748E+02  0.7546771E-02  0.1297311E+00
         -2   -1    0    0    0  501 -0.00000000000E+00  0.00000000000E+00  0.23143562171E+02  0.23143562171E+02  0.00000000000E+00 0.  1.
          2   -1    0    0  501    0  0.00000000000E+00 -0.00000000000E+00 -0.92081376407E+02  0.92081376407E+02  0.00000000000E+00 0. -1.
         23    2    1    2    0    0  0.00000000000E+00  0.00000000000E+00 -0.68937814237E+02  0.11522493858E+03  0.92327483658E+02 0.  0.
        -13    1    3    3    0    0 -0.25915749102E+02 -0.14161848027E+02 -0.78749387334E+02  0.84104993886E+02  0.00000000000E+00 0. -1.
         13    1    3    3    0    0  0.25915749102E+02  0.14161848027E+02  0.98115730972E+01  0.31119944693E+02  0.00000000000E+00 0.  1.
<mgrwt>
<rscale>  0 0.92327484E+02</rscale>
<asrwt>0</asrwt>
<pdfrwt beam="2">  1        2 0.14166366E-01 0.92327484E+02</pdfrwt>
<pdfrwt beam="1">  1       -2 0.35605480E-02 0.92327484E+02</pdfrwt>
<totfact> 0.11558531E+05</totfact>
</mgrwt>
</event>
<event>
 5    1  0.6085374E+000  0.8899616E+02  0.7546771E-02  0.1305301E+00
          1   -1    0    0  501    0  0.00000000000E+00  0.00000000000E+00  0.36064744073E+02  0.36064744073E+02  0.00000000000E+00 0. -1.
         -1   -1    0    0    0  501 -0.00000000000E+00 -0.00000000000E+00 -0.54903456809E+02  0.54903456809E+02  0.00000000000E+00 0.  1.
         23    2    1    2    0    0  0.00000000000E+00  0.00000000000E+00 -0.18838712735E+02  0.90968200882E+02  0.88996159884E+02 0.  0.
        -13    1    3    3    0    0  0.31791732822E+02 -0.12373460484E+02 -0.38622742590E+02  0.51531864370E+02  0.00000000000E+00 0.  1.
         13    1    3    3    0    0 -0.31791732822E+02  0.12373460484E+02  0.19784029855E+02  0.39436336512E+02  0.00000000000E+00 0. -1.
<mgrwt>
<rscale>  0 0.88996160E+02</rscale>
<asrwt>0</asrwt>
<pdfrwt beam="1">  1        1 0.55484222E-02 0.88996160E+02</pdfrwt>
<pdfrwt beam="2">  1       -1 0.84466856E-02 0.88996160E+02</pdfrwt>
<totfact> 0.95568933E+04</totfact>
</mgrwt>
</event>
<event>
 5    1  0.6085374E+000  0.9236017E+02  0.7546771E-02  0.1297235E+00
         -2   -1    0    0    0  501 -0.00000000000E+00  0.00000000000E+00  0.35980164836E+03  0.35980164836E+03  0.00000000000E+00 0.  1.
          2   -1    0    0  501    0  0.00000000000E+00 -0.00000000000E+00 -0.59271553214E+01  0.59271553214E+01  0.00000000000E+00 0. -1.
         23    2    1    2    0    0  0.00000000000E+00  0.00000000000E+00  0.35387449304E+03  0.36572880368E+03  0.92360170090E+02 0.  0.
        -13    1    3    3    0    0 -0.40210814261E+02 -0.19675876153E+02  0.13204085438E+03  0.13942322945E+03  0.00000000000E+00 0.  1.
         13    1    3    3    0    0  0.40210814261E+02  0.19675876153E+02  0.22183363866E+03  0.22630557423E+03  0.00000000000E+00 0. -1.
<mgrwt>
<rscale>  0 0.92360170E+02</rscale>
<asrwt>0</asrwt>
<pdfrwt beam="2">  1        2 0.91187033E-03 0.92360170E+02</pdfrwt>
<pdfrwt beam="1">  1       -2 0.55354083E-01 0.92360170E+02</pdfrwt>
<totfact> 0.44256485E+04</totfact>
</mgrwt>
</event>
<event>
 5    1  0.6085374E+000  0.8100498E+02  0.7546771E-02  0.1326223E+00
         -1   -1    0    0    0  501 -0.00000000000E+00  0.00000000000E+00  0.92593117079E+02  0.92593117079E+02  0.00000000000E+00 0.  1.
          1   -1    0    0  501    0  0.00000000000E+00 -0.00000000000E+00 -0.17716777206E+02  0.17716777206E+02  0.00000000000E+00 0. -1.
         23    2    1    2    0    0  0.00000000000E+00  0.00000000000E+00  0.74876339874E+02  0.11030989428E+03  0.81004978268E+02 0.  0.
        -13    1    3    3    0    0 -0.93510264109E+01 -0.38923673429E+02  0.45827977602E+02  0.60849795227E+02  0.00000000000E+00 0. -1.
         13    1    3    3    0    0  0.93510264109E+01  0.38923673429E+02  0.29048362272E+02  0.49460099058E+02  0.00000000000E+00 0.  1.
<mgrwt>
<rscale>  0 0.81004978E+02</rscale>
<asrwt>0</asrwt>
<pdfrwt beam="2">  1        1 0.27256581E-02 0.81004978E+02</pdfrwt>
<pdfrwt beam="1">  1       -1 0.14245095E-01 0.81004978E+02</pdfrwt>
<totfact> 0.11175539E+05</totfact>
</mgrwt>
</event>
<event>
 5    1  0.6085374E+000  0.9234939E+02  0.7546771E-02  0.1297260E+00
          2   -1    0    0  501    0  0.00000000000E+00  0.00000000000E+00  0.16696370590E+02  0.16696370590E+02  0.00000000000E+00 0. -1.
         -2   -1    0    0    0  501 -0.00000000000E+00 -0.00000000000E+00 -0.12769855259E+03  0.12769855259E+03  0.00000000000E+00 0.  1.
         23    2    1    2    0    0  0.00000000000E+00  0.00000000000E+00 -0.11100218200E+03  0.14439492318E+03  0.92349387822E+02 0.  0.
        -13    1    3    3    0    0  0.44989732816E+02 -0.18138941566E+00 -0.39252470187E+02  0.59706493590E+02  0.00000000000E+00 0. -1.
         13    1    3    3    0    0 -0.44989732816E+02  0.18138941566E+00 -0.71749711812E+02  0.84688429589E+02  0.00000000000E+00 0.  1.
<mgrwt>
<rscale>  0 0.92349388E+02</rscale>
<asrwt>0</asrwt>
<pdfrwt beam="1">  1        2 0.25686724E-02 0.92349388E+02</pdfrwt>
<pdfrwt beam="2">  1       -2 0.19645931E-01 0.92349388E+02</pdfrwt>
<totfact> 0.71549587E+04</totfact>
</mgrwt>
</event>
<event>
 5    1  0.6085374E+000  0.9218672E+02  0.7546771E-02  0.1297641E+00
          1   -1    0    0  501    0  0.00000000000E+00  0.00000000000E+00  0.25862811075E+02  0.25862811075E+02  0.00000000000E+00 0. -1.
         -1   -1    0    0    0  501 -0.00000000000E+00 -0.00000000000E+00 -0.82148762729E+02  0.82148762729E+02  0.00000000000E+00 0.  1.
         23    2    1    2    0    0  0.00000000000E+00  0.00000000000E+00 -0.56285951654E+02  0.10801157380E+03  0.92186722048E+02 0.  0.
        -13    1    3    3    0    0 -0.45112914747E+02  0.39232706904E+01 -0.38224080972E+02  0.59259155377E+02  0.00000000000E+00 0.  1.
         13    1    3    3    0    0  0.45112914747E+02 -0.39232706904E+01 -0.18061870682E+02  0.48752418426E+02  0.00000000000E+00 0. -1.
<mgrwt>
<rscale>  0 0.92186722E+02</rscale>
<asrwt>0</asrwt>
<pdfrwt beam="1">  1        1 0.39788941E-02 0.92186722E+02</pdfrwt>
<pdfrwt beam="2">  1       -1 0.12638271E-01 0.92186722E+02</pdfrwt>
<totfact> 0.81922794E+04</totfact>
</mgrwt>
</event>
<event>
 5    1  0.6085374E+000  0.7769278E+02  0.7546771E-02  0.1335729E+00
          1   -1    0    0  501    0  0.00000000000E+00  0.00000000000E+00  0.21098783141E+02  0.21098783141E+02  0.00000000000E+00 0. -1.
         -1   -1    0    0    0  501 -0.00000000000E+00 -0.00000000000E+00 -0.71522706305E+02  0.71522706305E+02  0.00000000000E+00 0.  1.
         23    2    1    2    0    0  0.00000000000E+00  0.00000000000E+00 -0.50423923164E+02  0.92621489446E+02  0.77692781389E+02 0.  0.
        -13    1    3    3    0    0 -0.13267257555E+02  0.38974314095E+01  0.18065433447E+02  0.22750164400E+02  0.00000000000E+00 0.  1.
         13    1    3    3    0    0  0.13267257555E+02 -0.38974314095E+01 -0.68489356611E+02  0.69871325045E+02  0.00000000000E+00 0. -1.
<mgrwt>
<rscale>  0 0.77692781E+02</rscale>
<asrwt>0</asrwt>
<pdfrwt beam="1">  1        1 0.32459667E-02 0.77692781E+02</pdfrwt>
<pdfrwt beam="2">  1       -1 0.11003493E-01 0.77692781E+02</pdfrwt>
<totfact> 0.12959992E+05</totfact>
</mgrwt>
</event>
<event>
 5    1  0.6085374E+000  0.9239148E+02  0.7546771E-02  0.1297162E+00
          4   -1    0    0  501    0  0.00000000000E+00  0.00000000000E+00  0.10438204954E+02  0.10438204954E+02  0.00000000000E+00 0.  1.
         -4   -1    0    0    0  501 -0.00000000000E+00 -0.00000000000E+00 -0.20444572368E+03  0.20444572368E+03  0.00000000000E+00 0. -1.
         23    2    1    2    0    0  0.00000000000E+00  0.00000000000E+00 -0.19400751873E+03  0.21488392863E+03  0.92391479385E+02 0.  0.
        -13    1    3    3    0    0 -0.11912580210E+02 -0.34294099828E+02 -0.30563579099E+02  0.47456582448E+02  0.00000000000E+00 0.  1.
         13    1    3    3    0    0  0.11912580210E+02  0.34294099828E+02 -0.16344393963E+03  0.16742734619E+03  0.00000000000E+00 0. -1.
<mgrwt>
<rscale>  0 0.92391479E+02</rscale>
<asrwt>0</asrwt>
<pdfrwt beam="1">  1        4 0.16058779E-02 0.92391479E+02</pdfrwt>
<pdfrwt beam="2">  1       -4 0.31453185E-01 0.92391479E+02</pdfrwt>
<totfact> 0.20055853E+04</totfact>
</mgrwt>
</event>
<event>
 5    1  0.6085374E+000  0.9726645E+02  0.7546771E-02  0.1286152E+00
          1   -1    0    0  501    0  0.00000000000E+00  0.00000000000E+00  0.32869994477E+02  0.32869994477E+02  0.00000000000E+00 0. -1.
         -1   -1    0    0    0  501 -0.00000000000E+00 -0.00000000000E+00 -0.71955914743E+02  0.71955914743E+02  0.00000000000E+00 0.  1.
         23    2    1    2    0    0  0.00000000000E+00  0.00000000000E+00 -0.39085920266E+02  0.10482590922E+03  0.97266448896E+02 0.  0.
        -13    1    3    3    0    0  0.28258512159E+02 -0.17928094567E+02  0.18487400268E+02  0.38232761513E+02  0.00000000000E+00 0. -1.
         13    1    3    3    0    0 -0.28258512159E+02  0.17928094567E+02 -0.57573320534E+02  0.66593147707E+02  0.00000000000E+00 0.  1.
<mgrwt>
<rscale>  0 0.97266449E+02</rscale>
<asrwt>0</asrwt>
<pdfrwt beam="1">  1        1 0.50569222E-02 0.97266449E+02</pdfrwt>
<pdfrwt beam="2">  1       -1 0.11070141E-01 0.97266449E+02</pdfrwt>
<totfact> 0.73035709E+04</totfact>
</mgrwt>
</event>
<event>
 5    1  0.6085374E+000  0.8913661E+02  0.7546771E-02  0.1304956E+00
         -1   -1    0    0    0  501 -0.00000000000E+00  0.00000000000E+00  0.17176512430E+03  0.17176512430E+03  0.00000000000E+00 0.  1.
          1   -1    0    0  501    0  0.00000000000E+00 -0.00000000000E+00 -0.11564245117E+02  0.11564245117E+02  0.00000000000E+00 0. -1.
         23    2    1    2    0    0  0.00000000000E+00  0.00000000000E+00  0.16020087918E+03  0.18332936941E+03  0.89136614250E+02 0.  0.
        -13    1    3    3    0    0 -0.16878354577E+02 -0.41248698613E+02  0.80094114472E+02  0.91659157555E+02  0.00000000000E+00 0.  1.
         13    1    3    3    0    0  0.16878354577E+02  0.41248698613E+02  0.80106764707E+02  0.91670211859E+02  0.00000000000E+00 0. -1.
<mgrwt>
<rscale>  0 0.89136614E+02</rscale>
<asrwt>0</asrwt>
<pdfrwt beam="2">  1        1 0.17791148E-02 0.89136614E+02</pdfrwt>
<pdfrwt beam="1">  1       -1 0.26425402E-01 0.89136614E+02</pdfrwt>
<totfact> 0.76726414E+04</totfact>
</mgrwt>
</event>
<event>
 5    1  0.6085374E+000  0.8984838E+02  0.7546771E-02  0.1303219E+00
         -3   -1    0    0    0  501 -0.00000000000E+00  0.00000000000E+00  0.66432840141E+02  0.66432840141E+02  0.00000000000E+00 0.  1.
          3   -1    0    0  501    0  0.00000000000E+00 -0.00000000000E+00 -0.30379295710E+02  0.30379295710E+02  0.00000000000E+00 0. -1.
         23    2    1    2    0    0  0.00000000000E+00  0.00000000000E+00  0.36053544431E+02  0.96812135852E+02  0.89848381077E+02 0.  0.
        -13    1    3    3    0    0  0.61530933819E+01  0.36121102386E+02  0.46033386173E+02  0.58835934923E+02  0.00000000000E+00 0.  1.
         13    1    3    3    0    0 -0.61530933819E+01 -0.36121102386E+02 -0.99798417418E+01  0.37976200929E+02  0.00000000000E+00 0. -1.
<mgrwt>
<rscale>  0 0.89848381E+02</rscale>
<asrwt>0</asrwt>
<pdfrwt beam="2">  1        3 0.46737378E-02 0.89848381E+02</pdfrwt>
<pdfrwt beam="1">  1       -3 0.10220437E-01 0.89848381E+02</pdfrwt>
<totfact> 0.36330436E+04</totfact>
</mgrwt>
</event>
<event>
 5    1  0.6085374E+000  0.9036895E+02  0.7546771E-02  0.1301961E+00
         -3   -1    0    0    0  501 -0.00000000000E+00  0.00000000000E+00  0.37478750118E+02  0.37478750118E+02  0.00000000000E+00 0.  1.
          3   -1    0    0  501    0  0.00000000000E+00 -0.00000000000E+00 -0.54474521139E+02  0.54474521139E+02  0.00000000000E+00 0. -1.
         23    2    1    2    0    0  0.00000000000E+00  0.00000000000E+00 -0.16995771022E+02  0.91953271257E+02  0.90368954084E+02 0.  0.
        -13    1    3    3    0    0  0.25955439039E+02  0.70916490446E+01 -0.45433873358E+02  0.52803533501E+02  0.00000000000E+00 0. -1.
         13    1    3    3    0    0 -0.25955439039E+02 -0.70916490446E+01  0.28438102336E+02  0.39149737756E+02  0.00000000000E+00 0.  1.
<mgrwt>
<rscale>  0 0.90368954E+02</rscale>
<asrwt>0</asrwt>
<pdfrwt beam="2">  1        3 0.83806956E-02 0.90368954E+02</pdfrwt>
<pdfrwt beam="1">  1       -3 0.57659616E-02 0.90368954E+02</pdfrwt>
<totfact> 0.36143481E+04</totfact>
</mgrwt>
</event>
<event>
 5    1  0.6085374E+000  0.8872393E+02  0.7546771E-02  0.1305972E+00
          1   -1    0    0  501    0  0.00000000000E+00  0.00000000000E+00  0.31567193646E+02  0.31567193646E+02  0.00000000000E+00 0. -1.
         -1   -1    0    0    0  501 -0.00000000000E+00 -0.00000000000E+00 -0.62342691288E+02  0.62342691288E+02  0.00000000000E+00 0.  1.
         23    2    1    2    0    0  0.00000000000E+00  0.00000000000E+00 -0.30775497642E+02  0.93909884934E+02  0.88723927062E+02 0.  0.
        -13    1    3    3    0    0  0.38534213777E+02  0.21707597799E+02 -0.11739797263E+02  0.45759461026E+02  0.00000000000E+00 0.  1.
         13    1    3    3    0    0 -0.38534213777E+02 -0.21707597799E+02 -0.19035700380E+02  0.48150423908E+02  0.00000000000E+00 0. -1.
<mgrwt>
<rscale>  0 0.88723927E+02</rscale>
<asrwt>0</asrwt>
<pdfrwt beam="1">  1        1 0.48564913E-02 0.88723927E+02</pdfrwt>
<pdfrwt beam="2">  1       -1 0.95911832E-02 0.88723927E+02</pdfrwt>
<totfact> 0.94464210E+04</totfact>
</mgrwt>
</event>
<event>
 5    1  0.6085374E+000  0.9062147E+02  0.7546771E-02  0.1301354E+00
         -1   -1    0    0    0  501 -0.00000000000E+00  0.00000000000E+00  0.14288563560E+03  0.14288563560E+03  0.00000000000E+00 0.  1.
          1   -1    0    0  501    0  0.00000000000E+00 -0.00000000000E+00 -0.14368571912E+02  0.14368571912E+02  0.00000000000E+00 0. -1.
         23    2    1    2    0    0  0.00000000000E+00  0.00000000000E+00  0.12851706369E+03  0.15725420751E+03  0.90621466118E+02 0.  0.
        -13    1    3    3    0    0  0.16566656628E+02  0.30436790513E+02  0.11491612533E+03  0.12002736434E+03  0.00000000000E+00 0.  1.
         13    1    3    3    0    0 -0.16566656628E+02 -0.30436790513E+02  0.13600938354E+02  0.37226843173E+02  0.00000000000E+00 0. -1.
<mgrwt>
<rscale>  0 0.90621466E+02</rscale>
<asrwt>0</asrwt>
<pdfrwt beam="2">  1        1 0.22105496E-02 0.90621466E+02</pdfrwt>
<pdfrwt beam="1">  1       -1 0.21982404E-01 0.90621466E+02</pdfrwt>
<totfact> 0.76838327E+04</totfact>
</mgrwt>
</event>
<event>
 5    1  0.6085374E+000  0.9280250E+02  0.7546771E-02  0.1296204E+00
         -1   -1    0    0    0  501 -0.00000000000E+00  0.00000000000E+00  0.19556781707E+02  0.19556781707E+02  0.00000000000E+00 0.  1.
          1   -1    0    0  501    0  0.00000000000E+00 -0.00000000000E+00 -0.11009357646E+03  0.11009357646E+03  0.00000000000E+00 0. -1.
         23    2    1    2    0    0  0.00000000000E+00  0.00000000000E+00 -0.90536794754E+02  0.12965035817E+03  0.92802500877E+02 0.  0.
        -13    1    3    3    0    0 -0.37457899012E+02  0.10029375935E+02 -0.96669219310E+01  0.39964133416E+02  0.00000000000E+00 0.  1.
         13    1    3    3    0    0  0.37457899012E+02 -0.10029375935E+02 -0.80869872823E+02  0.89686224753E+02  0.00000000000E+00 0. -1.
<mgrwt>
<rscale>  0 0.92802501E+02</rscale>
<asrwt>0</asrwt>
<pdfrwt beam="2">  1        1 0.16937474E-01 0.92802501E+02</pdfrwt>
<pdfrwt beam="1">  1       -1 0.30087356E-02 0.92802501E+02</pdfrwt>
<totfact> 0.10116553E+05</totfact>
</mgrwt>
</event>
<event>
 5    1  0.6085374E+000  0.9503730E+02  0.7546771E-02  0.1291092E+00
          1   -1    0    0  501    0  0.00000000000E+00  0.00000000000E+00  0.32730555982E+02  0.32730555982E+02  0.00000000000E+00 0. -1.
         -1   -1    0    0    0  501 -0.00000000000E+00 -0.00000000000E+00 -0.68988193532E+02  0.68988193532E+02  0.00000000000E+00 0.  1.
         23    2    1    2    0    0  0.00000000000E+00  0.00000000000E+00 -0.36257637550E+02  0.10171874951E+03  0.95037296478E+02 0.  0.
        -13    1    3    3    0    0 -0.61136532634E+01 -0.47121529562E+02 -0.18615337275E+02  0.51032794225E+02  0.00000000000E+00 0.  1.
         13    1    3    3    0    0  0.61136532634E+01  0.47121529562E+02 -0.17642300274E+02  0.50685955288E+02  0.00000000000E+00 0. -1.
<mgrwt>
<rscale>  0 0.95037296E+02</rscale>
<asrwt>0</asrwt>
<pdfrwt beam="1">  1        1 0.50354702E-02 0.95037296E+02</pdfrwt>
<pdfrwt beam="2">  1       -1 0.10613568E-01 0.95037296E+02</pdfrwt>
<totfact> 0.78035277E+04</totfact>
</mgrwt>
</event>
<event>
 5    1  0.6085374E+000  0.9089715E+02  0.7546771E-02  0.1300694E+00
         -2   -1    0    0    0  501 -0.00000000000E+00  0.00000000000E+00  0.22320356681E+02  0.22320356681E+02  0.00000000000E+00 0.  1.
          2   -1    0    0  501    0  0.00000000000E+00 -0.00000000000E+00 -0.92542110614E+02  0.92542110614E+02  0.00000000000E+00 0. -1.
         23    2    1    2    0    0  0.00000000000E+00  0.00000000000E+00 -0.70221753933E+02  0.11486246729E+03  0.90897148842E+02 0.  0.
        -13    1    3    3    0    0  0.74877422586E+01  0.42678792408E+02 -0.52438474333E+02  0.68024548480E+02  0.00000000000E+00 0. -1.
         13    1    3    3    0    0 -0.74877422586E+01 -0.42678792408E+02 -0.17783279599E+02  0.46837918814E+02  0.00000000000E+00 0.  1.
<mgrwt>
<rscale>  0 0.90897149E+02</rscale>
<asrwt>0</asrwt>
<pdfrwt beam="2">  1        2 0.14237248E-01 0.90897149E+02</pdfrwt>
<pdfrwt beam="1">  1       -2 0.34339011E-02 0.90897149E+02</pdfrwt>
<totfact> 0.12086615E+05</totfact>
</mgrwt>
</event>
<event>
 5    1  0.6085374E+000  0.9205655E+02  0.7546771E-02  0.1297947E+00
          1   -1    0    0  501    0  0.00000000000E+00  0.00000000000E+00  0.11731979236E+03  0.11731979236E+03  0.00000000000E+00 0. -1.
         -1   -1    0    0    0  501 -0.00000000000E+00 -0.00000000000E+00 -0.18058351847E+02  0.18058351847E+02  0.00000000000E+00 0.  1.
         23    2    1    2    0    0  0.00000000000E+00  0.00000000000E+00  0.99261440517E+02  0.13537814421E+03  0.92056549776E+02 0.  0.
        -13    1    3    3    0    0 -0.20088139080E+02  0.33887213760E+02  0.84639763344E+02  0.93358267588E+02  0.00000000000E+00 0. -1.
         13    1    3    3    0    0  0.20088139080E+02 -0.33887213760E+02  0.14621677173E+02  0.42019876623E+02  0.00000000000E+00 0.  1.
<mgrwt>
<rscale>  0 0.92056550E+02</rscale>
<asrwt>0</asrwt>
<pdfrwt beam="1">  1        1 0.18049198E-01 0.92056550E+02</pdfrwt>
<pdfrwt beam="2">  1       -1 0.27782081E-02 0.92056550E+02</pdfrwt>
<totfact> 0.10455356E+05</totfact>
</mgrwt>
</event>
<event>
 5    1  0.6085374E+000  0.9580900E+02  0.7546771E-02  0.1289364E+00
         -1   -1    0    0    0  501 -0.00000000000E+00  0.00000000000E+00  0.13471858800E+02  0.13471858800E+02  0.00000000000E+00 0.  1.
          1   -1    0    0  501    0  0.00000000000E+00 -0.00000000000E+00 -0.17034331954E+03  0.17034331954E+03  0.00000000000E+00 0. -1.
         23    2    1    2    0    0  0.00000000000E+00  0.00000000000E+00 -0.15687146074E+03  0.18381517834E+03  0.95809000589E+02 0.  0.
        -13    1    3    3    0    0  0.41381493936E+02  0.45668677417E+01 -0.32971283078E+02  0.53107342516E+02  0.00000000000E+00 0.  1.
         13    1    3    3    0    0 -0.41381493936E+02 -0.45668677417E+01 -0.12390017767E+03  0.13070783583E+03  0.00000000000E+00 0. -1.
<mgrwt>
<rscale>  0 0.95809001E+02</rscale>
<asrwt>0</asrwt>
<pdfrwt beam="2">  1        1 0.26206665E-01 0.95809001E+02</pdfrwt>
<pdfrwt beam="1">  1       -1 0.20725936E-02 0.95809001E+02</pdfrwt>
<totfact> 0.10044088E+05</totfact>
</mgrwt>
</event>
<event>
 5    1  0.6085374E+000  0.7539839E+02  0.7546771E-02  0.1342642E+00
          1   -1    0    0  501    0  0.00000000000E+00  0.00000000000E+00  0.96021985628E+02  0.96021985628E+02  0.00000000000E+00 0. -1.
         -1   -1    0    0    0  501 -0.00000000000E+00 -0.00000000000E+00 -0.14801082940E+02  0.14801082940E+02  0.00000000000E+00 0.  1.
         23    2    1    2    0    0  0.00000000000E+00  0.00000000000E+00  0.81220902689E+02  0.11082306857E+03  0.75398391848E+02 0.  0.
        -13    1    3    3    0    0 -0.26105521659E+02  0.46761842288E+01  0.12292191688E+01  0.26549499803E+02  0.00000000000E+00 0.  1.
         13    1    3    3    0    0  0.26105521659E+02 -0.46761842288E+01  0.79991683520E+02  0.84273568765E+02  0.00000000000E+00 0. -1.
<mgrwt>
<rscale>  0 0.75398392E+02</rscale>
<asrwt>0</asrwt>
<pdfrwt beam="1">  1        1 0.14772613E-01 0.75398392E+02</pdfrwt>
<pdfrwt beam="2">  1       -1 0.22770897E-02 0.75398392E+02</pdfrwt>
<totfact> 0.17313583E+05</totfact>
</mgrwt>
</event>
<event>
 5    1  0.6085374E+000  0.9307911E+02  0.7546771E-02  0.1295562E+00
          2   -1    0    0  501    0  0.00000000000E+00  0.00000000000E+00  0.28836978396E+03  0.28836978396E+03  0.00000000000E+00 0. -1.
         -2   -1    0    0    0  501 -0.00000000000E+00 -0.00000000000E+00 -0.75109464079E+01  0.75109464079E+01  0.00000000000E+00 0.  1.
         23    2    1    2    0    0  0.00000000000E+00  0.00000000000E+00  0.28085883755E+03  0.29588073036E+03  0.93079105990E+02 0.  0.
        -13    1    3    3    0    0 -0.31073030968E+02 -0.24796102355E+02  0.63508141156E+02  0.74924388143E+02  0.00000000000E+00 0.  1.
         13    1    3    3    0    0  0.31073030968E+02  0.24796102355E+02  0.21735069639E+03  0.22095634222E+03  0.00000000000E+00 0. -1.
<mgrwt>
<rscale>  0 0.93079106E+02</rscale>
<asrwt>0</asrwt>
<pdfrwt beam="1">  1        2 0.44364574E-01 0.93079106E+02</pdfrwt>
<pdfrwt beam="2">  1       -2 0.11555304E-02 0.93079106E+02</pdfrwt>
<totfact> 0.16751869E+05</totfact>
</mgrwt>
</event>
<event>
 5    1  0.6085374E+000  0.9102581E+02  0.7546771E-02  0.1300386E+00
          3   -1    0    0  501    0  0.00000000000E+00  0.00000000000E+00  0.11754446756E+02  0.11754446756E+02  0.00000000000E+00 0. -1.
         -3   -1    0    0    0  501 -0.00000000000E+00 -0.00000000000E+00 -0.17622475569E+03  0.17622475569E+03  0.00000000000E+00 0.  1.
         23    2    1    2    0    0  0.00000000000E+00  0.00000000000E+00 -0.16447030893E+03  0.18797920244E+03  0.91025809696E+02 0.  0.
        -13    1    3    3    0    0  0.43730336167E+01 -0.37348222130E+02 -0.29285410621E+02  0.47661812749E+02  0.00000000000E+00 0. -1.
         13    1    3    3    0    0 -0.43730336167E+01  0.37348222130E+02 -0.13518489831E+03  0.14031738969E+03  0.00000000000E+00 0.  1.
<mgrwt>
<rscale>  0 0.91025810E+02</rscale>
<asrwt>0</asrwt>
<pdfrwt beam="1">  1        3 0.18083764E-02 0.91025810E+02</pdfrwt>
<pdfrwt beam="2">  1       -3 0.27111501E-01 0.91025810E+02</pdfrwt>
<totfact> 0.29262499E+04</totfact>
</mgrwt>
</event>
<event>
 5    1  0.6085374E+000  0.8914723E+02  0.7546771E-02  0.1304930E+00
          3   -1    0    0  501    0  0.00000000000E+00  0.00000000000E+00  0.37723177907E+02  0.37723177907E+02  0.00000000000E+00 0. -1.
         -3   -1    0    0    0  501 -0.00000000000E+00 -0.00000000000E+00 -0.52668073946E+02  0.52668073946E+02  0.00000000000E+00 0.  1.
         23    2    1    2    0    0  0.00000000000E+00  0.00000000000E+00 -0.14944896039E+02  0.90391251853E+02  0.89147229312E+02 0.  0.
        -13    1    3    3    0    0 -0.39448943341E+02 -0.36055095191E+00 -0.28509454506E+02  0.48673792989E+02  0.00000000000E+00 0.  1.
         13    1    3    3    0    0  0.39448943341E+02  0.36055095191E+00  0.13564558467E+02  0.41717458864E+02  0.00000000000E+00 0. -1.
<mgrwt>
<rscale>  0 0.89147229E+02</rscale>
<asrwt>0</asrwt>
<pdfrwt beam="1">  1        3 0.58035658E-02 0.89147229E+02</pdfrwt>
<pdfrwt beam="2">  1       -3 0.81027806E-02 0.89147229E+02</pdfrwt>
<totfact> 0.37632805E+04</totfact>
</mgrwt>
</event>
<event>
 5    1  0.6085374E+000  0.9288765E+02  0.7546771E-02  0.1296006E+00
         -3   -1    0    0    0  501 -0.00000000000E+00  0.00000000000E+00  0.18219497160E+02  0.18219497160E+02  0.00000000000E+00 0.  1.
          3   -1    0    0  501    0  0.00000000000E+00 -0.00000000000E+00 -0.11839123952E+03  0.11839123952E+03  0.00000000000E+00 0. -1.
         23    2    1    2    0    0  0.00000000000E+00  0.00000000000E+00 -0.10017174236E+03  0.13661073668E+03  0.92887649387E+02 0.  0.
        -13    1    3    3    0    0  0.23119189081E+02 -0.13210591572E+02 -0.10605041574E+03  0.10934215706E+03  0.00000000000E+00 0. -1.
         13    1    3    3    0    0 -0.23119189081E+02  0.13210591572E+02  0.58786733795E+01  0.27268579614E+02  0.00000000000E+00 0.  1.
<mgrwt>
<rscale>  0 0.92887649E+02</rscale>
<asrwt>0</asrwt>
<pdfrwt beam="2">  1        3 0.18214037E-01 0.92887649E+02</pdfrwt>
<pdfrwt beam="1">  1       -3 0.28029995E-02 0.92887649E+02</pdfrwt>
<totfact> 0.30562298E+04</totfact>
</mgrwt>
</event>
<event>
 5    1  0.6085374E+000  0.9338587E+02  0.7546771E-02  0.1294853E+00
         -1   -1    0    0    0  501 -0.00000000000E+00  0.00000000000E+00  0.95100775786E+01  0.95100775786E+01  0.00000000000E+00 0.  1.
          1   -1    0    0  501    0  0.00000000000E+00 -0.00000000000E+00 -0.22925473504E+03  0.22925473504E+03  0.00000000000E+00 0. -1.
         23    2    1    2    0    0  0.00000000000E+00  0.00000000000E+00 -0.21974465746E+03  0.23876481262E+03  0.93385872926E+02 0.  0.
        -13    1    3    3    0    0  0.32854330502E+02  0.70133089467E+01 -0.19278521333E+03  0.19569039837E+03  0.00000000000E+00 0. -1.
         13    1    3    3    0    0 -0.32854330502E+02 -0.70133089467E+01 -0.26959444131E+02  0.43074414250E+02  0.00000000000E+00 0.  1.
<mgrwt>
<rscale>  0 0.93385873E+02</rscale>
<asrwt>0</asrwt>
<pdfrwt beam="2">  1        1 0.35269960E-01 0.93385873E+02</pdfrwt>
<pdfrwt beam="1">  1       -1 0.14630888E-02 0.93385873E+02</pdfrwt>
<totfact> 0.11403925E+05</totfact>
</mgrwt>
</event>
<event>
 5    1  0.6085374E+000  0.9071105E+02  0.7546771E-02  0.1301139E+00
          3   -1    0    0  501    0  0.00000000000E+00  0.00000000000E+00  0.29526114739E+03  0.29526114739E+03  0.00000000000E+00 0. -1.
         -3   -1    0    0    0  501 -0.00000000000E+00 -0.00000000000E+00 -0.69671324490E+01  0.69671324490E+01  0.00000000000E+00 0.  1.
         23    2    1    2    0    0  0.00000000000E+00  0.00000000000E+00  0.28829401495E+03  0.30222827984E+03  0.90711047198E+02 0.  0.
        -13    1    3    3    0    0  0.39051324926E+02  0.20462711985E+01  0.67593830299E+02  0.78090454594E+02  0.00000000000E+00 0.  1.
         13    1    3    3    0    0 -0.39051324926E+02 -0.20462711985E+01  0.22070018465E+03  0.22413782525E+03  0.00000000000E+00 0. -1.
<mgrwt>
<rscale>  0 0.90711047E+02</rscale>
<asrwt>0</asrwt>
<pdfrwt beam="1">  1        3 0.45424782E-01 0.90711047E+02</pdfrwt>
<pdfrwt beam="2">  1       -3 0.10718668E-02 0.90711047E+02</pdfrwt>
<totfact> 0.24276393E+04</totfact>
</mgrwt>
</event>
<event>
 5    1  0.6085374E+000  0.8672598E+02  0.7546771E-02  0.1310980E+00
          1   -1    0    0  501    0  0.00000000000E+00  0.00000000000E+00  0.39922035861E+02  0.39922035861E+02  0.00000000000E+00 0. -1.
         -1   -1    0    0    0  501 -0.00000000000E+00 -0.00000000000E+00 -0.47100524902E+02  0.47100524902E+02  0.00000000000E+00 0.  1.
         23    2    1    2    0    0  0.00000000000E+00  0.00000000000E+00 -0.71784890416E+01  0.87022560763E+02  0.86725978673E+02 0.  0.
        -13    1    3    3    0    0 -0.28021454692E+02 -0.48477213262E+01 -0.36437206420E+02  0.46220908005E+02  0.00000000000E+00 0.  1.
         13    1    3    3    0    0  0.28021454692E+02  0.48477213262E+01  0.29258717378E+02  0.40801652758E+02  0.00000000000E+00 0. -1.
<mgrwt>
<rscale>  0 0.86725979E+02</rscale>
<asrwt>0</asrwt>
<pdfrwt beam="1">  1        1 0.61418516E-02 0.86725979E+02</pdfrwt>
<pdfrwt beam="2">  1       -1 0.72462346E-02 0.86725979E+02</pdfrwt>
<totfact> 0.10432675E+05</totfact>
</mgrwt>
</event>
<event>
 5    1  0.6085374E+000  0.9455245E+02  0.7546771E-02  0.1292187E+00
         -2   -1    0    0    0  501 -0.00000000000E+00  0.00000000000E+00  0.11801330347E+02  0.11801330347E+02  0.00000000000E+00 0.  1.
          2   -1    0    0  501    0  0.00000000000E+00 -0.00000000000E+00 -0.18938892535E+03  0.18938892535E+03  0.00000000000E+00 0. -1.
         23    2    1    2    0    0  0.00000000000E+00  0.00000000000E+00 -0.17758759500E+03  0.20119025570E+03  0.94552446231E+02 0.  0.
        -13    1    3    3    0    0  0.81442652170E+01 -0.37507045698E+02 -0.14752822986E+03  0.15243912273E+03  0.00000000000E+00 0.  1.
         13    1    3    3    0    0 -0.81442652170E+01  0.37507045698E+02 -0.30059365146E+02  0.48751132970E+02  0.00000000000E+00 0. -1.
<mgrwt>
<rscale>  0 0.94552446E+02</rscale>
<asrwt>0</asrwt>
<pdfrwt beam="2">  1        2 0.29136756E-01 0.94552446E+02</pdfrwt>
<pdfrwt beam="1">  1       -2 0.18155894E-02 0.94552446E+02</pdfrwt>
<totfact> 0.13747290E+05</totfact>
</mgrwt>
</event>
<event>
 5    1  0.6085374E+000  0.9132170E+02  0.7546771E-02  0.1299682E+00
          1   -1    0    0  501    0  0.00000000000E+00  0.00000000000E+00  0.13974267617E+03  0.13974267617E+03  0.00000000000E+00 0. -1.
         -1   -1    0    0    0  501 -0.00000000000E+00 -0.00000000000E+00 -0.14919659741E+02  0.14919659741E+02  0.00000000000E+00 0.  1.
         23    2    1    2    0    0  0.00000000000E+00  0.00000000000E+00  0.12482301643E+03  0.15466233591E+03  0.91321699059E+02 0.  0.
        -13    1    3    3    0    0  0.32011633637E+02 -0.28636372699E+02  0.36167463838E+02  0.56150440514E+02  0.00000000000E+00 0.  1.
         13    1    3    3    0    0 -0.32011633637E+02  0.28636372699E+02  0.88655552592E+02  0.98511895398E+02  0.00000000000E+00 0. -1.
<mgrwt>
<rscale>  0 0.91321699E+02</rscale>
<asrwt>0</asrwt>
<pdfrwt beam="1">  1        1 0.21498872E-01 0.91321699E+02</pdfrwt>
<pdfrwt beam="2">  1       -1 0.22953324E-02 0.91321699E+02</pdfrwt>
<totfact> 0.11021887E+05</totfact>
</mgrwt>
</event>
<event>
 5    1  0.6085374E+000  0.9250260E+02  0.7546771E-02  0.1296902E+00
         -2   -1    0    0    0  501 -0.00000000000E+00  0.00000000000E+00  0.53470976185E+02  0.53470976185E+02  0.00000000000E+00 0.  1.
          2   -1    0    0  501    0  0.00000000000E+00 -0.00000000000E+00 -0.40006428268E+02  0.40006428268E+02  0.00000000000E+00 0. -1.
         23    2    1    2    0    0  0.00000000000E+00  0.00000000000E+00  0.13464547918E+02  0.93477404453E+02  0.92502600464E+02 0.  0.
        -13    1    3    3    0    0 -0.35067574960E+02  0.73422133627E+01  0.36290123076E+02  0.50996234601E+02  0.00000000000E+00 0.  1.
         13    1    3    3    0    0  0.35067574960E+02 -0.73422133627E+01 -0.22825575158E+02  0.42481169852E+02  0.00000000000E+00 0. -1.
<mgrwt>
<rscale>  0 0.92502600E+02</rscale>
<asrwt>0</asrwt>
<pdfrwt beam="2">  1        2 0.61548351E-02 0.92502600E+02</pdfrwt>
<pdfrwt beam="1">  1       -2 0.82263041E-02 0.92502600E+02</pdfrwt>
<totfact> 0.91476171E+04</totfact>
</mgrwt>
</event>
<event>
 5    1  0.6085374E+000  0.9162893E+02  0.7546771E-02  0.1298954E+00
         -4   -1    0    0    0  501 -0.00000000000E+00  0.00000000000E+00  0.32877482957E+03  0.32877482957E+03  0.00000000000E+00 0. -1.
          4   -1    0    0  501    0  0.00000000000E+00 -0.00000000000E+00 -0.63842030669E+01  0.63842030669E+01  0.00000000000E+00 0.  1.
         23    2    1    2    0    0  0.00000000000E+00  0.00000000000E+00  0.32239062650E+03  0.33515903264E+03  0.91628931572E+02 0.  0.
        -13    1    3    3    0    0 -0.24994184469E+02  0.35694729796E+02  0.21294261747E+03  0.21735542627E+03  0.00000000000E+00 0. -1.
         13    1    3    3    0    0  0.24994184469E+02 -0.35694729796E+02  0.10944800903E+03  0.11780360637E+03  0.00000000000E+00 0.  1.
<mgrwt>
<rscale>  0 0.91628932E+02</rscale>
<asrwt>0</asrwt>
<pdfrwt beam="2">  1        4 0.98218534E-03 0.91628932E+02</pdfrwt>
<pdfrwt beam="1">  1       -4 0.50580730E-01 0.91628932E+02</pdfrwt>
<totfact> 0.16579503E+04</totfact>
</mgrwt>
</event>
<event>
 5    1  0.6085374E+000  0.9359481E+02  0.7546771E-02  0.1294373E+00
          4   -1    0    0  501    0  0.00000000000E+00  0.00000000000E+00  0.15466557555E+02  0.15466557555E+02  0.00000000000E+00 0. -1.
         -4   -1    0    0    0  501 -0.00000000000E+00 -0.00000000000E+00 -0.14159564028E+03  0.14159564028E+03  0.00000000000E+00 0.  1.
         23    2    1    2    0    0  0.00000000000E+00  0.00000000000E+00 -0.12612908272E+03  0.15706219783E+03  0.93594810110E+02 0.  0.
        -13    1    3    3    0    0 -0.35520910537E+02 -0.67497650512E+01 -0.11292165494E+03  0.11856894437E+03  0.00000000000E+00 0.  1.
         13    1    3    3    0    0  0.35520910537E+02  0.67497650512E+01 -0.13207427778E+02  0.38493253463E+02  0.00000000000E+00 0. -1.
<mgrwt>
<rscale>  0 0.93594810E+02</rscale>
<asrwt>0</asrwt>
<pdfrwt beam="1">  1        4 0.23794703E-02 0.93594810E+02</pdfrwt>
<pdfrwt beam="2">  1       -4 0.21783945E-01 0.93594810E+02</pdfrwt>
<totfact> 0.21733163E+04</totfact>
</mgrwt>
</event>
<event>
 5    1  0.6085374E+000  0.8535071E+02  0.7546771E-02  0.1314518E+00
         -1   -1    0    0    0  501 -0.00000000000E+00  0.00000000000E+00  0.99676690051E+01  0.99676690051E+01  0.00000000000E+00 0.  1.
          1   -1    0    0  501    0  0.00000000000E+00 -0.00000000000E+00 -0.18270929539E+03  0.18270929539E+03  0.00000000000E+00 0. -1.
         23    2    1    2    0    0  0.00000000000E+00  0.00000000000E+00 -0.17274162639E+03  0.19267696440E+03  0.85350706632E+02 0.  0.
        -13    1    3    3    0    0  0.34512880439E+02 -0.19271102357E+02 -0.12267836343E+03  0.12888946876E+03  0.00000000000E+00 0. -1.
         13    1    3    3    0    0 -0.34512880439E+02  0.19271102357E+02 -0.50063262955E+02  0.63787495640E+02  0.00000000000E+00 0.  1.
<mgrwt>
<rscale>  0 0.85350707E+02</rscale>
<asrwt>0</asrwt>
<pdfrwt beam="2">  1        1 0.28109123E-01 0.85350707E+02</pdfrwt>
<pdfrwt beam="1">  1       -1 0.15334875E-02 0.85350707E+02</pdfrwt>
<totfact> 0.13883714E+05</totfact>
</mgrwt>
</event>
<event>
 5    1  0.6085374E+000  0.9092243E+02  0.7546771E-02  0.1300633E+00
          1   -1    0    0  501    0  0.00000000000E+00  0.00000000000E+00  0.94483453709E+02  0.94483453709E+02  0.00000000000E+00 0. -1.
         -1   -1    0    0    0  501 -0.00000000000E+00 -0.00000000000E+00 -0.21873906029E+02  0.21873906029E+02  0.00000000000E+00 0.  1.
         23    2    1    2    0    0  0.00000000000E+00  0.00000000000E+00  0.72609547681E+02  0.11635735974E+03  0.90922432605E+02 0.  0.
        -13    1    3    3    0    0  0.78140625916E+01 -0.35524502767E+02  0.71203824965E+02  0.79956454153E+02  0.00000000000E+00 0. -1.
         13    1    3    3    0    0 -0.78140625916E+01  0.35524502767E+02  0.14057227155E+01  0.36400905585E+02  0.00000000000E+00 0.  1.
<mgrwt>
<rscale>  0 0.90922433E+02</rscale>
<asrwt>0</asrwt>
<pdfrwt beam="1">  1        1 0.14535916E-01 0.90922433E+02</pdfrwt>
<pdfrwt beam="2">  1       -1 0.33652164E-02 0.90922433E+02</pdfrwt>
<totfact> 0.10427004E+05</totfact>
</mgrwt>
</event>
<event>
 5    1  0.6085374E+000  0.9155785E+02  0.7546771E-02  0.1299122E+00
         -2   -1    0    0    0  501 -0.00000000000E+00  0.00000000000E+00  0.17798825011E+02  0.17798825011E+02  0.00000000000E+00 0.  1.
          2   -1    0    0  501    0  0.00000000000E+00 -0.00000000000E+00 -0.11774430023E+03  0.11774430023E+03  0.00000000000E+00 0. -1.
         23    2    1    2    0    0  0.00000000000E+00  0.00000000000E+00 -0.99945475222E+02  0.13554312524E+03  0.91557854843E+02 0.  0.
        -13    1    3    3    0    0  0.12408300015E+02  0.27892364043E+02  0.52985315482E+00  0.30532452007E+02  0.00000000000E+00 0.  1.
         13    1    3    3    0    0 -0.12408300015E+02 -0.27892364043E+02 -0.10047532838E+03  0.10501067324E+03  0.00000000000E+00 0. -1.
<mgrwt>
<rscale>  0 0.91557855E+02</rscale>
<asrwt>0</asrwt>
<pdfrwt beam="2">  1        2 0.18114508E-01 0.91557855E+02</pdfrwt>
<pdfrwt beam="1">  1       -2 0.27382807E-02 0.91557855E+02</pdfrwt>
<totfact> 0.12761345E+05</totfact>
</mgrwt>
</event>
<event>
 5    1  0.6085374E+000  0.8988874E+02  0.7546771E-02  0.1303121E+00
         -1   -1    0    0    0  501 -0.00000000000E+00  0.00000000000E+00  0.28775428776E+02  0.28775428776E+02  0.00000000000E+00 0.  1.
          1   -1    0    0  501    0  0.00000000000E+00 -0.00000000000E+00 -0.70198657928E+02  0.70198657928E+02  0.00000000000E+00 0. -1.
         23    2    1    2    0    0  0.00000000000E+00  0.00000000000E+00 -0.41423229152E+02  0.98974086704E+02  0.89888741928E+02 0.  0.
        -13    1    3    3    0    0  0.13849183162E+02  0.15361216182E+02 -0.64647466668E+02  0.67875340024E+02  0.00000000000E+00 0. -1.
         13    1    3    3    0    0 -0.13849183162E+02 -0.15361216182E+02  0.23224237516E+02  0.31098746679E+02  0.00000000000E+00 0.  1.
<mgrwt>
<rscale>  0 0.89888742E+02</rscale>
<asrwt>0</asrwt>
<pdfrwt beam="2">  1        1 0.10799793E-01 0.89888742E+02</pdfrwt>
<pdfrwt beam="1">  1       -1 0.44269891E-02 0.89888742E+02</pdfrwt>
<totfact> 0.10265288E+05</totfact>
</mgrwt>
</event>
<event>
 5    1  0.6085374E+000  0.9357302E+02  0.7546771E-02  0.1294423E+00
         -2   -1    0    0    0  501 -0.00000000000E+00  0.00000000000E+00  0.21717893910E+02  0.21717893910E+02  0.00000000000E+00 0.  1.
          2   -1    0    0  501    0  0.00000000000E+00 -0.00000000000E+00 -0.10079141753E+03  0.10079141753E+03  0.00000000000E+00 0. -1.
         23    2    1    2    0    0  0.00000000000E+00  0.00000000000E+00 -0.79073523616E+02  0.12250931144E+03  0.93573015615E+02 0.  0.
        -13    1    3    3    0    0  0.22045771249E+02  0.28224586409E+02 -0.12166383899E+00  0.35814216590E+02  0.00000000000E+00 0.  1.
         13    1    3    3    0    0 -0.22045771249E+02 -0.28224586409E+02 -0.78951859777E+02  0.86695094845E+02  0.00000000000E+00 0. -1.
<mgrwt>
<rscale>  0 0.93573016E+02</rscale>
<asrwt>0</asrwt>
<pdfrwt beam="2">  1        2 0.15506372E-01 0.93573016E+02</pdfrwt>
<pdfrwt beam="1">  1       -2 0.33412145E-02 0.93573016E+02</pdfrwt>
<totfact> 0.11447532E+05</totfact>
</mgrwt>
</event>
<event>
 5    1  0.6085374E+000  0.9034248E+02  0.7546771E-02  0.1302024E+00
         -1   -1    0    0    0  501 -0.00000000000E+00  0.00000000000E+00  0.18631220487E+02  0.18631220487E+02  0.00000000000E+00 0.  1.
          1   -1    0    0  501    0  0.00000000000E+00 -0.00000000000E+00 -0.10951729373E+03  0.10951729373E+03  0.00000000000E+00 0. -1.
         23    2    1    2    0    0  0.00000000000E+00  0.00000000000E+00 -0.90886073245E+02  0.12814851422E+03  0.90342478306E+02 0.  0.
        -13    1    3    3    0    0 -0.35641684543E+01  0.25809411750E+02 -0.97784785652E+02  0.10119631089E+03  0.00000000000E+00 0. -1.
         13    1    3    3    0    0  0.35641684543E+01 -0.25809411750E+02  0.68987124072E+01  0.26952203334E+02  0.00000000000E+00 0.  1.
<mgrwt>
<rscale>  0 0.90342478E+02</rscale>
<asrwt>0</asrwt>
<pdfrwt beam="2">  1        1 0.16848815E-01 0.90342478E+02</pdfrwt>
<pdfrwt beam="1">  1       -1 0.28663416E-02 0.90342478E+02</pdfrwt>
<totfact> 0.10874142E+05</totfact>
</mgrwt>
</event>
<event>
 5    1  0.6085374E+000  0.1117750E+03  0.7546771E-02  0.1257318E+00
         -2   -1    0    0    0  501 -0.00000000000E+00  0.00000000000E+00  0.40382684753E+02  0.40382684753E+02  0.00000000000E+00 0. -1.
          2   -1    0    0  501    0  0.00000000000E+00 -0.00000000000E+00 -0.77345329581E+02  0.77345329581E+02  0.00000000000E+00 0.  1.
         23    2    1    2    0    0  0.00000000000E+00  0.00000000000E+00 -0.36962644828E+02  0.11772801433E+03  0.11177498936E+03 0.  0.
        -13    1    3    3    0    0 -0.38834184032E+02  0.24670949032E+02 -0.51899066137E+02  0.69356056992E+02  0.00000000000E+00 0.  1.
         13    1    3    3    0    0  0.38834184032E+02 -0.24670949032E+02  0.14936421308E+02  0.48371957342E+02  0.00000000000E+00 0. -1.
<mgrwt>
<rscale>  0 0.11177499E+03</rscale>
<asrwt>0</asrwt>
<pdfrwt beam="2">  1        2 0.11899281E-01 0.11177499E+03</pdfrwt>
<pdfrwt beam="1">  1       -2 0.62127208E-02 0.11177499E+03</pdfrwt>
<totfact> 0.63866687E+04</totfact>
</mgrwt>
</event>
<event>
 5    1  0.6085374E+000  0.9146537E+02  0.7546771E-02  0.1299341E+00
         -1   -1    0    0    0  501 -0.00000000000E+00  0.00000000000E+00  0.23220876708E+02  0.23220876708E+02  0.00000000000E+00 0.  1.
          1   -1    0    0  501    0  0.00000000000E+00 -0.00000000000E+00 -0.90068886373E+02  0.90068886373E+02  0.00000000000E+00 0. -1.
         23    2    1    2    0    0  0.00000000000E+00  0.00000000000E+00 -0.66848009665E+02  0.11328976308E+03  0.91465370621E+02 0.  0.
        -13    1    3    3    0    0 -0.26939046040E+02  0.16156639938E+02 -0.74592207273E+02  0.80936682669E+02  0.00000000000E+00 0. -1.
         13    1    3    3    0    0  0.26939046040E+02 -0.16156639938E+02  0.77441976075E+01  0.32353080413E+02  0.00000000000E+00 0.  1.
<mgrwt>
<rscale>  0 0.91465371E+02</rscale>
<asrwt>0</asrwt>
<pdfrwt beam="2">  1        1 0.13856752E-01 0.91465371E+02</pdfrwt>
<pdfrwt beam="1">  1       -1 0.35724426E-02 0.91465371E+02</pdfrwt>
<totfact> 0.10178883E+05</totfact>
</mgrwt>
</event>
<event>
 5    1  0.6085374E+000  0.9099717E+02  0.7546771E-02  0.1300455E+00
         -3   -1    0    0    0  501 -0.00000000000E+00  0.00000000000E+00  0.27327478462E+02  0.27327478462E+02  0.00000000000E+00 0.  1.
          3   -1    0    0  501    0  0.00000000000E+00 -0.00000000000E+00 -0.75752370479E+02  0.75752370479E+02  0.00000000000E+00 0. -1.
         23    2    1    2    0    0  0.00000000000E+00  0.00000000000E+00 -0.48424892017E+02  0.10307984894E+03  0.90997170785E+02 0.  0.
        -13    1    3    3    0    0 -0.14349539442E+02  0.32969364792E+02  0.73682351313E+01  0.36703939652E+02  0.00000000000E+00 0.  1.
         13    1    3    3    0    0  0.14349539442E+02 -0.32969364792E+02 -0.55793127148E+02  0.66375909290E+02  0.00000000000E+00 0. -1.
<mgrwt>
<rscale>  0 0.90997171E+02</rscale>
<asrwt>0</asrwt>
<pdfrwt beam="2">  1        3 0.11654211E-01 0.90997171E+02</pdfrwt>
<pdfrwt beam="1">  1       -3 0.42042275E-02 0.90997171E+02</pdfrwt>
<totfact> 0.34629915E+04</totfact>
</mgrwt>
</event>
<event>
 5    1  0.6085374E+000  0.9430029E+02  0.7546771E-02  0.1292760E+00
         -2   -1    0    0    0  501 -0.00000000000E+00  0.00000000000E+00  0.55574709626E+02  0.55574709626E+02  0.00000000000E+00 0.  1.
          2   -1    0    0  501    0  0.00000000000E+00 -0.00000000000E+00 -0.40002657331E+02  0.40002657331E+02  0.00000000000E+00 0. -1.
         23    2    1    2    0    0  0.00000000000E+00  0.00000000000E+00  0.15572052295E+02  0.95577366957E+02  0.94300287708E+02 0.  0.
        -13    1    3    3    0    0  0.11212672330E+02 -0.35657188550E+02  0.36915055160E+02  0.52534563989E+02  0.00000000000E+00 0.  1.
         13    1    3    3    0    0 -0.11212672330E+02  0.35657188550E+02 -0.21343002865E+02  0.43042802968E+02  0.00000000000E+00 0. -1.
<mgrwt>
<rscale>  0 0.94300288E+02</rscale>
<asrwt>0</asrwt>
<pdfrwt beam="2">  1        2 0.61542550E-02 0.94300288E+02</pdfrwt>
<pdfrwt beam="1">  1       -2 0.85499554E-02 0.94300288E+02</pdfrwt>
<totfact> 0.86484006E+04</totfact>
</mgrwt>
</event>
<event>
 5    1  0.6085374E+000  0.9212267E+02  0.7546771E-02  0.1297791E+00
          2   -1    0    0  501    0  0.00000000000E+00  0.00000000000E+00  0.59839521113E+02  0.59839521113E+02  0.00000000000E+00 0.  1.
         -2   -1    0    0    0  501 -0.00000000000E+00 -0.00000000000E+00 -0.35455605846E+02  0.35455605846E+02  0.00000000000E+00 0. -1.
         23    2    1    2    0    0  0.00000000000E+00  0.00000000000E+00  0.24383915267E+02  0.95295126959E+02  0.92122667669E+02 0.  0.
        -13    1    3    3    0    0 -0.86872909982E+01  0.25652853321E+02 -0.26348414564E+02  0.37785934664E+02  0.00000000000E+00 0. -1.
         13    1    3    3    0    0  0.86872909982E+01 -0.25652853321E+02  0.50732329831E+02  0.57509192295E+02  0.00000000000E+00 0.  1.
<mgrwt>
<rscale>  0 0.92122668E+02</rscale>
<asrwt>0</asrwt>
<pdfrwt beam="1">  1        2 0.92060801E-02 0.92122668E+02</pdfrwt>
<pdfrwt beam="2">  1       -2 0.54547086E-02 0.92122668E+02</pdfrwt>
<totfact> 0.10294609E+05</totfact>
</mgrwt>
</event>
<event>
 5    1  0.6085374E+000  0.9047111E+02  0.7546771E-02  0.1301715E+00
          1   -1    0    0  501    0  0.00000000000E+00  0.00000000000E+00  0.85737686347E+02  0.85737686347E+02  0.00000000000E+00 0. -1.
         -1   -1    0    0    0  501 -0.00000000000E+00 -0.00000000000E+00 -0.23866462061E+02  0.23866462061E+02  0.00000000000E+00 0.  1.
         23    2    1    2    0    0  0.00000000000E+00  0.00000000000E+00  0.61871224286E+02  0.10960414841E+03  0.90471105628E+02 0.  0.
        -13    1    3    3    0    0  0.33837416973E+02 -0.27159956305E+02  0.46432229641E+02  0.63549869893E+02  0.00000000000E+00 0. -1.
         13    1    3    3    0    0 -0.33837416973E+02  0.27159956305E+02  0.15438994645E+02  0.46054278515E+02  0.00000000000E+00 0.  1.
<mgrwt>
<rscale>  0 0.90471106E+02</rscale>
<asrwt>0</asrwt>
<pdfrwt beam="1">  1        1 0.13190413E-01 0.90471106E+02</pdfrwt>
<pdfrwt beam="2">  1       -1 0.36717634E-02 0.90471106E+02</pdfrwt>
<totfact> 0.10404863E+05</totfact>
</mgrwt>
</event>
<event>
 5    1  0.6085374E+000  0.9160598E+02  0.7546771E-02  0.1299009E+00
          1   -1    0    0  501    0  0.00000000000E+00  0.00000000000E+00  0.14516167056E+03  0.14516167056E+03  0.00000000000E+00 0. -1.
         -1   -1    0    0    0  501 -0.00000000000E+00 -0.00000000000E+00 -0.14452258405E+02  0.14452258405E+02  0.00000000000E+00 0.  1.
         23    2    1    2    0    0  0.00000000000E+00  0.00000000000E+00  0.13070941215E+03  0.15961392896E+03  0.91605981757E+02 0.  0.
        -13    1    3    3    0    0  0.33449068796E+02 -0.30554118515E+02  0.53599067383E+02  0.70180156639E+02  0.00000000000E+00 0. -1.
         13    1    3    3    0    0 -0.33449068796E+02  0.30554118515E+02  0.77110344770E+02  0.89433772324E+02  0.00000000000E+00 0.  1.
<mgrwt>
<rscale>  0 0.91605982E+02</rscale>
<asrwt>0</asrwt>
<pdfrwt beam="1">  1        1 0.22332564E-01 0.91605982E+02</pdfrwt>
<pdfrwt beam="2">  1       -1 0.22234245E-02 0.91605982E+02</pdfrwt>
<totfact> 0.11005551E+05</totfact>
</mgrwt>
</event>
<event>
 5    1  0.6085374E+000  0.9031456E+02  0.7546771E-02  0.1302092E+00
          3   -1    0    0  501    0  0.00000000000E+00  0.00000000000E+00  0.25034228124E+02  0.25034228124E+02  0.00000000000E+00 0. -1.
         -3   -1    0    0    0  501 -0.00000000000E+00 -0.00000000000E+00 -0.81455680350E+02  0.81455680350E+02  0.00000000000E+00 0.  1.
         23    2    1    2    0    0  0.00000000000E+00  0.00000000000E+00 -0.56421452227E+02  0.10648990847E+03  0.90314563252E+02 0.  0.
        -13    1    3    3    0    0  0.17174691485E+02 -0.29362570112E+02  0.68077428773E+01  0.34691150374E+02  0.00000000000E+00 0. -1.
         13    1    3    3    0    0 -0.17174691485E+02  0.29362570112E+02 -0.63229195104E+02  0.71798758100E+02  0.00000000000E+00 0.  1.
<mgrwt>
<rscale>  0 0.90314563E+02</rscale>
<asrwt>0</asrwt>
<pdfrwt beam="1">  1        3 0.38514196E-02 0.90314563E+02</pdfrwt>
<pdfrwt beam="2">  1       -3 0.12531643E-01 0.90314563E+02</pdfrwt>
<totfact> 0.35091748E+04</totfact>
</mgrwt>
</event>
<event>
 5    1  0.6085374E+000  0.8724732E+02  0.7546771E-02  0.1309658E+00
          3   -1    0    0  501    0  0.00000000000E+00  0.00000000000E+00  0.12248930864E+03  0.12248930864E+03  0.00000000000E+00 0. -1.
         -3   -1    0    0    0  501 -0.00000000000E+00 -0.00000000000E+00 -0.15536242899E+02  0.15536242899E+02  0.00000000000E+00 0.  1.
         23    2    1    2    0    0  0.00000000000E+00  0.00000000000E+00  0.10695306574E+03  0.13802555153E+03  0.87247318619E+02 0.  0.
        -13    1    3    3    0    0 -0.43558580271E+02 -0.20823759483E+01  0.55306088609E+02  0.70430459618E+02  0.00000000000E+00 0.  1.
         13    1    3    3    0    0  0.43558580271E+02  0.20823759483E+01  0.51646977127E+02  0.67595091917E+02  0.00000000000E+00 0. -1.
<mgrwt>
<rscale>  0 0.87247319E+02</rscale>
<asrwt>0</asrwt>
<pdfrwt beam="1">  1        3 0.18844508E-01 0.87247319E+02</pdfrwt>
<pdfrwt beam="2">  1       -3 0.23901913E-02 0.87247319E+02</pdfrwt>
<totfact> 0.36104673E+04</totfact>
</mgrwt>
</event>
<event>
 5    1  0.6085374E+000  0.9172987E+02  0.7546771E-02  0.1298716E+00
          2   -1    0    0  501    0  0.00000000000E+00  0.00000000000E+00  0.85529125955E+02  0.85529125955E+02  0.00000000000E+00 0. -1.
         -2   -1    0    0    0  501 -0.00000000000E+00 -0.00000000000E+00 -0.24595041215E+02  0.24595041215E+02  0.00000000000E+00 0.  1.
         23    2    1    2    0    0  0.00000000000E+00  0.00000000000E+00  0.60934084740E+02  0.11012416717E+03  0.91729872517E+02 0.  0.
        -13    1    3    3    0    0  0.43863430780E+02 -0.73261282843E+01  0.43938625105E+02  0.62516201832E+02  0.00000000000E+00 0.  1.
         13    1    3    3    0    0 -0.43863430780E+02  0.73261282843E+01  0.16995459635E+02  0.47607965338E+02  0.00000000000E+00 0. -1.
<mgrwt>
<rscale>  0 0.91729873E+02</rscale>
<asrwt>0</asrwt>
<pdfrwt beam="1">  1        2 0.13158327E-01 0.91729873E+02</pdfrwt>
<pdfrwt beam="2">  1       -2 0.37838526E-02 0.91729873E+02</pdfrwt>
<totfact> 0.11514482E+05</totfact>
</mgrwt>
</event>
<event>
 5    1  0.6085374E+000  0.9273151E+02  0.7546771E-02  0.1296369E+00
         -1   -1    0    0    0  501 -0.00000000000E+00  0.00000000000E+00  0.12574451219E+03  0.12574451219E+03  0.00000000000E+00 0.  1.
          1   -1    0    0  501    0  0.00000000000E+00 -0.00000000000E+00 -0.17096438616E+02  0.17096438616E+02  0.00000000000E+00 0. -1.
         23    2    1    2    0    0  0.00000000000E+00  0.00000000000E+00  0.10864807357E+03  0.14284095081E+03  0.92731512098E+02 0.  0.
        -13    1    3    3    0    0  0.32524367136E+02  0.17090453480E+02  0.97888644997E+02  0.10455670651E+03  0.00000000000E+00 0.  1.
         13    1    3    3    0    0 -0.32524367136E+02 -0.17090453480E+02  0.10759428577E+02  0.38284244293E+02  0.00000000000E+00 0. -1.
<mgrwt>
<rscale>  0 0.92731512E+02</rscale>
<asrwt>0</asrwt>
<pdfrwt beam="2">  1        1 0.26302214E-02 0.92731512E+02</pdfrwt>
<pdfrwt beam="1">  1       -1 0.19345309E-01 0.92731512E+02</pdfrwt>
<totfact> 0.74439296E+04</totfact>
</mgrwt>
</event>
<event>
 5    1  0.6085374E+000  0.9155412E+02  0.7546771E-02  0.1299131E+00
         -4   -1    0    0    0  501 -0.00000000000E+00  0.00000000000E+00  0.56847855597E+01  0.56847855597E+01  0.00000000000E+00 0.  1.
          4   -1    0    0  501    0  0.00000000000E+00 -0.00000000000E+00 -0.36862235971E+03  0.36862235971E+03  0.00000000000E+00 0. -1.
         23    2    1    2    0    0  0.00000000000E+00  0.00000000000E+00 -0.36293757415E+03  0.37430714527E+03  0.91554116619E+02 0.  0.
        -13    1    3    3    0    0  0.40790420991E+02  0.20663800087E+02 -0.19032083026E+03  0.19573673521E+03  0.00000000000E+00 0.  1.
         13    1    3    3    0    0 -0.40790420991E+02 -0.20663800087E+02 -0.17261674389E+03  0.17857041006E+03  0.00000000000E+00 0. -1.
<mgrwt>
<rscale>  0 0.91554117E+02</rscale>
<asrwt>0</asrwt>
<pdfrwt beam="2">  1        4 0.56711140E-01 0.91554117E+02</pdfrwt>
<pdfrwt beam="1">  1       -4 0.87458227E-03 0.91554117E+02</pdfrwt>
<totfact> 0.15598710E+04</totfact>
</mgrwt>
</event>
<event>
 5    1  0.6085374E+000  0.9126371E+02  0.7546771E-02  0.1299820E+00
         -2   -1    0    0    0  501 -0.00000000000E+00  0.00000000000E+00  0.10061135842E+02  0.10061135842E+02  0.00000000000E+00 0.  1.
          2   -1    0    0  501    0  0.00000000000E+00 -0.00000000000E+00 -0.20696135709E+03  0.20696135709E+03  0.00000000000E+00 0. -1.
         23    2    1    2    0    0  0.00000000000E+00  0.00000000000E+00 -0.19690022125E+03  0.21702249294E+03  0.91263713003E+02 0.  0.
        -13    1    3    3    0    0 -0.44107621917E+02  0.68787933066E+00 -0.12621345685E+03  0.13370038212E+03  0.00000000000E+00 0. -1.
         13    1    3    3    0    0  0.44107621917E+02 -0.68787933066E+00 -0.70686764399E+02  0.83322110813E+02  0.00000000000E+00 0.  1.
<mgrwt>
<rscale>  0 0.91263713E+02</rscale>
<asrwt>0</asrwt>
<pdfrwt beam="2">  1        2 0.31840207E-01 0.91263713E+02</pdfrwt>
<pdfrwt beam="1">  1       -2 0.15478671E-02 0.91263713E+02</pdfrwt>
<totfact> 0.15620913E+05</totfact>
</mgrwt>
</event>
<event>
 5    1  0.6085374E+000  0.9164719E+02  0.7546771E-02  0.1298911E+00
         -2   -1    0    0    0  501 -0.00000000000E+00  0.00000000000E+00  0.41631623371E+02  0.41631623371E+02  0.00000000000E+00 0.  1.
          2   -1    0    0  501    0  0.00000000000E+00 -0.00000000000E+00 -0.50437665273E+02  0.50437665273E+02  0.00000000000E+00 0. -1.
         23    2    1    2    0    0  0.00000000000E+00  0.00000000000E+00 -0.88060419024E+01  0.92069288644E+02  0.91647190560E+02 0.  0.
        -13    1    3    3    0    0  0.42563567936E+02 -0.98338923479E+00  0.12621341138E+02  0.44406335381E+02  0.00000000000E+00 0.  1.
         13    1    3    3    0    0 -0.42563567936E+02  0.98338923479E+00 -0.21427383040E+02  0.47662953263E+02  0.00000000000E+00 0. -1.
<mgrwt>
<rscale>  0 0.91647191E+02</rscale>
<asrwt>0</asrwt>
<pdfrwt beam="2">  1        2 0.77596408E-02 0.91647191E+02</pdfrwt>
<pdfrwt beam="1">  1       -2 0.64048651E-02 0.91647191E+02</pdfrwt>
<totfact> 0.99830540E+04</totfact>
</mgrwt>
</event>
<event>
 5    1  0.6085374E+000  0.9102106E+02  0.7546771E-02  0.1300398E+00
         -3   -1    0    0    0  501 -0.00000000000E+00  0.00000000000E+00  0.72547257186E+02  0.72547257186E+02  0.00000000000E+00 0.  1.
          3   -1    0    0  501    0  0.00000000000E+00 -0.00000000000E+00 -0.28549780401E+02  0.28549780401E+02  0.00000000000E+00 0. -1.
         23    2    1    2    0    0  0.00000000000E+00  0.00000000000E+00  0.43997476785E+02  0.10109703759E+03  0.91021058252E+02 0.  0.
        -13    1    3    3    0    0 -0.11711036531E+02 -0.38938409801E+02  0.44703242204E+02  0.60429529189E+02  0.00000000000E+00 0.  1.
         13    1    3    3    0    0  0.11711036531E+02  0.38938409801E+02 -0.70576541924E+00  0.40667508397E+02  0.00000000000E+00 0. -1.
<mgrwt>
<rscale>  0 0.91021058E+02</rscale>
<asrwt>0</asrwt>
<pdfrwt beam="2">  1        3 0.43922739E-02 0.91021058E+02</pdfrwt>
<pdfrwt beam="1">  1       -3 0.11161116E-01 0.91021058E+02</pdfrwt>
<totfact> 0.34752946E+04</totfact>
</mgrwt>
</event>
<event>
 5    1  0.6085374E+000  0.9031442E+02  0.7546771E-02  0.1302092E+00
          1   -1    0    0  501    0  0.00000000000E+00  0.00000000000E+00  0.26061488787E+03  0.26061488787E+03  0.00000000000E+00 0. -1.
         -1   -1    0    0    0  501 -0.00000000000E+00 -0.00000000000E+00 -0.78244705654E+01  0.78244705654E+01  0.00000000000E+00 0.  1.
         23    2    1    2    0    0  0.00000000000E+00  0.00000000000E+00  0.25279041730E+03  0.26843935844E+03  0.90314417876E+02 0.  0.
        -13    1    3    3    0    0 -0.39627350525E+02 -0.20869745644E+02  0.14354715260E+03  0.15037173343E+03  0.00000000000E+00 0.  1.
         13    1    3    3    0    0  0.39627350525E+02  0.20869745644E+02  0.10924326470E+03  0.11806762501E+03  0.00000000000E+00 0. -1.
<mgrwt>
<rscale>  0 0.90314418E+02</rscale>
<asrwt>0</asrwt>
<pdfrwt beam="1">  1        1 0.40094591E-01 0.90314418E+02</pdfrwt>
<pdfrwt beam="2">  1       -1 0.12037649E-02 0.90314418E+02</pdfrwt>
<totfact> 0.12787822E+05</totfact>
</mgrwt>
</event>
<event>
 5    1  0.6085374E+000  0.9192135E+02  0.7546771E-02  0.1298264E+00
          1   -1    0    0  501    0  0.00000000000E+00  0.00000000000E+00  0.29270346498E+03  0.29270346498E+03  0.00000000000E+00 0. -1.
         -1   -1    0    0    0  501 -0.00000000000E+00 -0.00000000000E+00 -0.72168044943E+01  0.72168044943E+01  0.00000000000E+00 0.  1.
         23    2    1    2    0    0  0.00000000000E+00  0.00000000000E+00  0.28548666048E+03  0.29992026947E+03  0.91921350763E+02 0.  0.
        -13    1    3    3    0    0 -0.23498988195E+02 -0.34760171801E+02  0.81535600976E+02  0.91698016425E+02  0.00000000000E+00 0.  1.
         13    1    3    3    0    0  0.23498988195E+02  0.34760171801E+02  0.20395105951E+03  0.20822225305E+03  0.00000000000E+00 0. -1.
<mgrwt>
<rscale>  0 0.91921351E+02</rscale>
<asrwt>0</asrwt>
<pdfrwt beam="1">  1        1 0.45031293E-01 0.91921351E+02</pdfrwt>
<pdfrwt beam="2">  1       -1 0.11102778E-02 0.91921351E+02</pdfrwt>
<totfact> 0.12478258E+05</totfact>
</mgrwt>
</event>
<event>
 5    1  0.6085374E+000  0.9116821E+02  0.7546771E-02  0.1300047E+00
         -1   -1    0    0    0  501 -0.00000000000E+00  0.00000000000E+00  0.62812020963E+02  0.62812020963E+02  0.00000000000E+00 0.  1.
          1   -1    0    0  501    0  0.00000000000E+00 -0.00000000000E+00 -0.33081416103E+02  0.33081416103E+02  0.00000000000E+00 0. -1.
         23    2    1    2    0    0  0.00000000000E+00  0.00000000000E+00  0.29730604860E+02  0.95893437066E+02  0.91168209409E+02 0.  0.
        -13    1    3    3    0    0 -0.31522411677E+02 -0.20359987596E+02 -0.12354927689E+02  0.39507414127E+02  0.00000000000E+00 0. -1.
         13    1    3    3    0    0  0.31522411677E+02  0.20359987596E+02  0.42085532549E+02  0.56386022938E+02  0.00000000000E+00 0.  1.
<mgrwt>
<rscale>  0 0.91168209E+02</rscale>
<asrwt>0</asrwt>
<pdfrwt beam="2">  1        1 0.50894487E-02 0.91168209E+02</pdfrwt>
<pdfrwt beam="1">  1       -1 0.96633878E-02 0.91168209E+02</pdfrwt>
<totfact> 0.88068326E+04</totfact>
</mgrwt>
</event>
<event>
 5    1  0.6085374E+000  0.8992138E+02  0.7546771E-02  0.1303042E+00
          3   -1    0    0  501    0  0.00000000000E+00  0.00000000000E+00  0.60676097813E+02  0.60676097813E+02  0.00000000000E+00 0. -1.
         -3   -1    0    0    0  501 -0.00000000000E+00 -0.00000000000E+00 -0.33315653704E+02  0.33315653704E+02  0.00000000000E+00 0.  1.
         23    2    1    2    0    0  0.00000000000E+00  0.00000000000E+00  0.27360444109E+02  0.93991751517E+02  0.89921384839E+02 0.  0.
        -13    1    3    3    0    0  0.25813513447E+02 -0.26548320963E+02 -0.12975348777E+02  0.39236596416E+02  0.00000000000E+00 0.  1.
         13    1    3    3    0    0 -0.25813513447E+02  0.26548320963E+02  0.40335792886E+02  0.54755155101E+02  0.00000000000E+00 0. -1.
<mgrwt>
<rscale>  0 0.89921385E+02</rscale>
<asrwt>0</asrwt>
<pdfrwt beam="1">  1        3 0.93347842E-02 0.89921385E+02</pdfrwt>
<pdfrwt beam="2">  1       -3 0.51254852E-02 0.89921385E+02</pdfrwt>
<totfact> 0.36471603E+04</totfact>
</mgrwt>
</event>
<event>
 5    1  0.6085374E+000  0.9177854E+02  0.7546771E-02  0.1298601E+00
         -1   -1    0    0    0  501 -0.00000000000E+00  0.00000000000E+00  0.21081966827E+02  0.21081966827E+02  0.00000000000E+00 0.  1.
          1   -1    0    0  501    0  0.00000000000E+00 -0.00000000000E+00 -0.99887509321E+02  0.99887509321E+02  0.00000000000E+00 0. -1.
         23    2    1    2    0    0  0.00000000000E+00  0.00000000000E+00 -0.78805542494E+02  0.12096947615E+03  0.91778541238E+02 0.  0.
        -13    1    3    3    0    0  0.24466054669E+02 -0.29641481937E+02 -0.72449517330E+02  0.82013034597E+02  0.00000000000E+00 0. -1.
         13    1    3    3    0    0 -0.24466054669E+02  0.29641481937E+02 -0.63560251644E+01  0.38956441551E+02  0.00000000000E+00 0.  1.
<mgrwt>
<rscale>  0 0.91778541E+02</rscale>
<asrwt>0</asrwt>
<pdfrwt beam="2">  1        1 0.15367309E-01 0.91778541E+02</pdfrwt>
<pdfrwt beam="1">  1       -1 0.32433795E-02 0.91778541E+02</pdfrwt>
<totfact> 0.10257372E+05</totfact>
</mgrwt>
</event>
<event>
 5    1  0.6085374E+000  0.8902242E+02  0.7546771E-02  0.1305236E+00
          3   -1    0    0  501    0  0.00000000000E+00  0.00000000000E+00  0.86119648611E+01  0.86119648611E+01  0.00000000000E+00 0. -1.
         -3   -1    0    0    0  501 -0.00000000000E+00 -0.00000000000E+00 -0.23005758166E+03  0.23005758166E+03  0.00000000000E+00 0.  1.
         23    2    1    2    0    0  0.00000000000E+00  0.00000000000E+00 -0.22144561680E+03  0.23866954652E+03  0.89022419857E+02 0.  0.
        -13    1    3    3    0    0 -0.41372174239E+02 -0.52048632753E+01 -0.15247255539E+03  0.15807158995E+03  0.00000000000E+00 0.  1.
         13    1    3    3    0    0  0.41372174239E+02  0.52048632753E+01 -0.68973061415E+02  0.80597956574E+02  0.00000000000E+00 0. -1.
<mgrwt>
<rscale>  0 0.89022420E+02</rscale>
<asrwt>0</asrwt>
<pdfrwt beam="1">  1        3 0.13249179E-02 0.89022420E+02</pdfrwt>
<pdfrwt beam="2">  1       -3 0.35393468E-01 0.89022420E+02</pdfrwt>
<totfact> 0.28376074E+04</totfact>
</mgrwt>
</event>
<event>
 5    1  0.6085374E+000  0.9047275E+02  0.7546771E-02  0.1301711E+00
          1   -1    0    0  501    0  0.00000000000E+00  0.00000000000E+00  0.26128569938E+03  0.26128569938E+03  0.00000000000E+00 0. -1.
         -1   -1    0    0    0  501 -0.00000000000E+00 -0.00000000000E+00 -0.78317705542E+01  0.78317705542E+01  0.00000000000E+00 0.  1.
         23    2    1    2    0    0  0.00000000000E+00  0.00000000000E+00  0.25345392883E+03  0.26911746993E+03  0.90472750519E+02 0.  0.
        -13    1    3    3    0    0  0.14967427357E+01 -0.45126435666E+02  0.13497795649E+03  0.14232949158E+03  0.00000000000E+00 0.  1.
         13    1    3    3    0    0 -0.14967427357E+01  0.45126435666E+02  0.11847597234E+03  0.12678797836E+03  0.00000000000E+00 0. -1.
<mgrwt>
<rscale>  0 0.90472751E+02</rscale>
<asrwt>0</asrwt>
<pdfrwt beam="1">  1        1 0.40197793E-01 0.90472751E+02</pdfrwt>
<pdfrwt beam="2">  1       -1 0.12048880E-02 0.90472751E+02</pdfrwt>
<totfact> 0.12734653E+05</totfact>
</mgrwt>
</event>
<event>
 5    1  0.6085374E+000  0.8937227E+02  0.7546771E-02  0.1304379E+00
         -2   -1    0    0    0  501 -0.00000000000E+00  0.00000000000E+00  0.15385098358E+02  0.15385098358E+02  0.00000000000E+00 0.  1.
          2   -1    0    0  501    0  0.00000000000E+00 -0.00000000000E+00 -0.12979121677E+03  0.12979121677E+03  0.00000000000E+00 0. -1.
         23    2    1    2    0    0  0.00000000000E+00  0.00000000000E+00 -0.11440611841E+03  0.14517631512E+03  0.89372269432E+02 0.  0.
        -13    1    3    3    0    0 -0.24491804719E+02  0.94604857564E+01 -0.11594036948E+03  0.11887606388E+03  0.00000000000E+00 0. -1.
         13    1    3    3    0    0  0.24491804719E+02 -0.94604857564E+01  0.15342510679E+01  0.26300251244E+02  0.00000000000E+00 0.  1.
<mgrwt>
<rscale>  0 0.89372269E+02</rscale>
<asrwt>0</asrwt>
<pdfrwt beam="2">  1        2 0.19967878E-01 0.89372269E+02</pdfrwt>
<pdfrwt beam="1">  1       -2 0.23669384E-02 0.89372269E+02</pdfrwt>
<totfact> 0.14065692E+05</totfact>
</mgrwt>
</event>
<event>
 5    1  0.6085374E+000  0.1023644E+03  0.7546771E-02  0.1275401E+00
         -2   -1    0    0    0  501 -0.00000000000E+00  0.00000000000E+00  0.40792126452E+02  0.40792126452E+02  0.00000000000E+00 0.  1.
          2   -1    0    0  501    0  0.00000000000E+00 -0.00000000000E+00 -0.64218744228E+02  0.64218744228E+02  0.00000000000E+00 0. -1.
         23    2    1    2    0    0  0.00000000000E+00  0.00000000000E+00 -0.23426617777E+02  0.10501087068E+03  0.10236443006E+03 0.  0.
        -13    1    3    3    0    0 -0.35977400361E+02  0.21303028239E+02  0.18569812634E+02  0.45749647978E+02  0.00000000000E+00 0.  1.
         13    1    3    3    0    0  0.35977400361E+02 -0.21303028239E+02 -0.41996430411E+02  0.59261222702E+02  0.00000000000E+00 0. -1.
<mgrwt>
<rscale>  0 0.10236443E+03</rscale>
<asrwt>0</asrwt>
<pdfrwt beam="2">  1        2 0.98798069E-02 0.10236443E+03</pdfrwt>
<pdfrwt beam="1">  1       -2 0.62757117E-02 0.10236443E+03</pdfrwt>
<totfact> 0.77756591E+04</totfact>
</mgrwt>
</event>
<event>
 5    1  0.6085374E+000  0.8949792E+02  0.7546771E-02  0.1304072E+00
         -1   -1    0    0    0  501 -0.00000000000E+00  0.00000000000E+00  0.22622558678E+02  0.22622558678E+02  0.00000000000E+00 0.  1.
          1   -1    0    0  501    0  0.00000000000E+00 -0.00000000000E+00 -0.88516495664E+02  0.88516495664E+02  0.00000000000E+00 0. -1.
         23    2    1    2    0    0  0.00000000000E+00  0.00000000000E+00 -0.65893936987E+02  0.11113905434E+03  0.89497924381E+02 0.  0.
        -13    1    3    3    0    0 -0.34920153465E+02  0.19219075710E+02 -0.76897337363E+01  0.40594605481E+02  0.00000000000E+00 0.  1.
         13    1    3    3    0    0  0.34920153465E+02 -0.19219075710E+02 -0.58204203250E+02  0.70544448862E+02  0.00000000000E+00 0. -1.
<mgrwt>
<rscale>  0 0.89497924E+02</rscale>
<asrwt>0</asrwt>
<pdfrwt beam="2">  1        1 0.13617923E-01 0.89497924E+02</pdfrwt>
<pdfrwt beam="1">  1       -1 0.34803935E-02 0.89497924E+02</pdfrwt>
<totfact> 0.10771426E+05</totfact>
</mgrwt>
</event>
<event>
 5    1  0.6085374E+000  0.9131280E+02  0.7546771E-02  0.1299703E+00
          3   -1    0    0  501    0  0.00000000000E+00  0.00000000000E+00  0.29347100781E+02  0.29347100781E+02  0.00000000000E+00 0. -1.
         -3   -1    0    0    0  501 -0.00000000000E+00 -0.00000000000E+00 -0.71029401289E+02  0.71029401289E+02  0.00000000000E+00 0.  1.
         23    2    1    2    0    0  0.00000000000E+00  0.00000000000E+00 -0.41682300508E+02  0.10037650207E+03  0.91312803002E+02 0.  0.
        -13    1    3    3    0    0 -0.37101662425E+02 -0.20882519351E+02 -0.38967076892E+02  0.57715215071E+02  0.00000000000E+00 0.  1.
         13    1    3    3    0    0  0.37101662425E+02  0.20882519351E+02 -0.27152236154E+01  0.42661286999E+02  0.00000000000E+00 0. -1.
<mgrwt>
<rscale>  0 0.91312803E+02</rscale>
<asrwt>0</asrwt>
<pdfrwt beam="1">  1        3 0.45149386E-02 0.91312803E+02</pdfrwt>
<pdfrwt beam="2">  1       -3 0.10927600E-01 0.91312803E+02</pdfrwt>
<totfact> 0.34504011E+04</totfact>
</mgrwt>
</event>
<event>
 5    1  0.6085374E+000  0.8974983E+02  0.7546771E-02  0.1303459E+00
         -2   -1    0    0    0  501 -0.00000000000E+00  0.00000000000E+00  0.21895340996E+02  0.21895340996E+02  0.00000000000E+00 0.  1.
          2   -1    0    0  501    0  0.00000000000E+00 -0.00000000000E+00 -0.91971980046E+02  0.91971980046E+02  0.00000000000E+00 0. -1.
         23    2    1    2    0    0  0.00000000000E+00  0.00000000000E+00 -0.70076639050E+02  0.11386732104E+03  0.89749827079E+02 0.  0.
        -13    1    3    3    0    0  0.55848438112E+00 -0.39086549258E+02 -0.62998759612E+02  0.74141175809E+02  0.00000000000E+00 0. -1.
         13    1    3    3    0    0 -0.55848438112E+00  0.39086549258E+02 -0.70778794383E+01  0.39726145233E+02  0.00000000000E+00 0.  1.
<mgrwt>
<rscale>  0 0.89749827E+02</rscale>
<asrwt>0</asrwt>
<pdfrwt beam="2">  1        2 0.14149535E-01 0.89749827E+02</pdfrwt>
<pdfrwt beam="1">  1       -2 0.33685140E-02 0.89749827E+02</pdfrwt>
<totfact> 0.12494228E+05</totfact>
</mgrwt>
</event>
<event>
 5    1  0.6085374E+000  0.9099141E+02  0.7546771E-02  0.1300468E+00
          1   -1    0    0  501    0  0.00000000000E+00  0.00000000000E+00  0.78854615990E+02  0.78854615990E+02  0.00000000000E+00 0. -1.
         -1   -1    0    0    0  501 -0.00000000000E+00 -0.00000000000E+00 -0.26249053914E+02  0.26249053914E+02  0.00000000000E+00 0.  1.
         23    2    1    2    0    0  0.00000000000E+00  0.00000000000E+00  0.52605562075E+02  0.10510366990E+03  0.90991407650E+02 0.  0.
        -13    1    3    3    0    0  0.79563520849E+01 -0.15120387800E+02  0.75007916182E+02  0.76929299721E+02  0.00000000000E+00 0. -1.
         13    1    3    3    0    0 -0.79563520849E+01  0.15120387800E+02 -0.22402354106E+02  0.28174370183E+02  0.00000000000E+00 0.  1.
<mgrwt>
<rscale>  0 0.90991408E+02</rscale>
<asrwt>0</asrwt>
<pdfrwt beam="1">  1        1 0.12131479E-01 0.90991408E+02</pdfrwt>
<pdfrwt beam="2">  1       -1 0.40383160E-02 0.90991408E+02</pdfrwt>
<totfact> 0.10107921E+05</totfact>
</mgrwt>
</event>
<event>
 5    1  0.6085374E+000  0.9109415E+02  0.7546771E-02  0.1300223E+00
         -1   -1    0    0    0  501 -0.00000000000E+00  0.00000000000E+00  0.48452279784E+02  0.48452279784E+02  0.00000000000E+00 0.  1.
          1   -1    0    0  501    0  0.00000000000E+00 -0.00000000000E+00 -0.42816065212E+02  0.42816065212E+02  0.00000000000E+00 0. -1.
         23    2    1    2    0    0  0.00000000000E+00  0.00000000000E+00  0.56362145717E+01  0.91268344995E+02  0.91094148459E+02 0.  0.
        -13    1    3    3    0    0  0.85276362967E+01 -0.44679752418E+02  0.51752885403E+01  0.45779738623E+02  0.00000000000E+00 0.  1.
         13    1    3    3    0    0 -0.85276362967E+01  0.44679752418E+02  0.46092603144E+00  0.45488606372E+02  0.00000000000E+00 0. -1.
<mgrwt>
<rscale>  0 0.91094148E+02</rscale>
<asrwt>0</asrwt>
<pdfrwt beam="2">  1        1 0.65870870E-02 0.91094148E+02</pdfrwt>
<pdfrwt beam="1">  1       -1 0.74541969E-02 0.91094148E+02</pdfrwt>
<totfact> 0.91837038E+04</totfact>
</mgrwt>
</event>
<event>
 5    1  0.6085374E+000  0.9081584E+02  0.7546771E-02  0.1300888E+00
         -2   -1    0    0    0  501 -0.00000000000E+00  0.00000000000E+00  0.44980243848E+02  0.44980243848E+02  0.00000000000E+00 0.  1.
          2   -1    0    0  501    0  0.00000000000E+00 -0.00000000000E+00 -0.45839661861E+02  0.45839661861E+02  0.00000000000E+00 0. -1.
         23    2    1    2    0    0  0.00000000000E+00  0.00000000000E+00 -0.85941801331E+00  0.90819905710E+02  0.90815839333E+02 0.  0.
        -13    1    3    3    0    0 -0.22943353669E+02  0.33122037302E+02  0.20509526832E+02  0.45211807346E+02  0.00000000000E+00 0.  1.
         13    1    3    3    0    0  0.22943353669E+02 -0.33122037302E+02 -0.21368944845E+02  0.45608098364E+02  0.00000000000E+00 0. -1.
<mgrwt>
<rscale>  0 0.90815839E+02</rscale>
<asrwt>0</asrwt>
<pdfrwt beam="2">  1        2 0.70522557E-02 0.90815839E+02</pdfrwt>
<pdfrwt beam="1">  1       -2 0.69200375E-02 0.90815839E+02</pdfrwt>
<totfact> 0.99945823E+04</totfact>
</mgrwt>
</event>
<event>
 5    1  0.6085374E+000  0.6641911E+02  0.7546771E-02  0.1372712E+00
         -1   -1    0    0    0  501 -0.00000000000E+00  0.00000000000E+00  0.15690867845E+02  0.15690867845E+02  0.00000000000E+00 0.  1.
          1   -1    0    0  501    0  0.00000000000E+00 -0.00000000000E+00 -0.70287673478E+02  0.70287673478E+02  0.00000000000E+00 0. -1.
         23    2    1    2    0    0  0.00000000000E+00  0.00000000000E+00 -0.54596805633E+02  0.85978541322E+02  0.66419111576E+02 0.  0.
        -13    1    3    3    0    0  0.25511061591E+02 -0.21084814367E+02 -0.30841352888E+02  0.45239061754E+02  0.00000000000E+00 0.  1.
         13    1    3    3    0    0 -0.25511061591E+02  0.21084814367E+02 -0.23755452745E+02  0.40739479568E+02  0.00000000000E+00 0. -1.
<mgrwt>
<rscale>  0 0.66419112E+02</rscale>
<asrwt>0</asrwt>
<pdfrwt beam="2">  1        1 0.10813488E-01 0.66419112E+02</pdfrwt>
<pdfrwt beam="1">  1       -1 0.24139797E-02 0.66419112E+02</pdfrwt>
<totfact> 0.23189315E+05</totfact>
</mgrwt>
</event>
<event>
 5    1  0.6085374E+000  0.1062013E+03  0.7546771E-02  0.1267771E+00
          1   -1    0    0  501    0  0.00000000000E+00  0.00000000000E+00  0.13707149183E+03  0.13707149183E+03  0.00000000000E+00 0. -1.
         -1   -1    0    0    0  501 -0.00000000000E+00 -0.00000000000E+00 -0.20570858532E+02  0.20570858532E+02  0.00000000000E+00 0.  1.
         23    2    1    2    0    0  0.00000000000E+00  0.00000000000E+00  0.11650063330E+03  0.15764235037E+03  0.10620128563E+03 0.  0.
        -13    1    3    3    0    0 -0.40298819164E+02 -0.55222663923E+01  0.10891917647E+03  0.11626640639E+03  0.00000000000E+00 0. -1.
         13    1    3    3    0    0  0.40298819164E+02  0.55222663923E+01  0.75814568314E+01  0.41375943974E+02  0.00000000000E+00 0.  1.
<mgrwt>
<rscale>  0 0.10620129E+03</rscale>
<asrwt>0</asrwt>
<pdfrwt beam="1">  1        1 0.21087921E-01 0.10620129E+03</pdfrwt>
<pdfrwt beam="2">  1       -1 0.31647476E-02 0.10620129E+03</pdfrwt>
<totfact> 0.72740044E+04</totfact>
</mgrwt>
</event>
<event>
 5    1  0.6085374E+000  0.9102360E+02  0.7546771E-02  0.1300392E+00
         -1   -1    0    0    0  501 -0.00000000000E+00  0.00000000000E+00  0.11093332080E+02  0.11093332080E+02  0.00000000000E+00 0.  1.
          1   -1    0    0  501    0  0.00000000000E+00 -0.00000000000E+00 -0.18671794110E+03  0.18671794110E+03  0.00000000000E+00 0. -1.
         23    2    1    2    0    0  0.00000000000E+00  0.00000000000E+00 -0.17562460902E+03  0.19781127318E+03  0.91023604102E+02 0.  0.
        -13    1    3    3    0    0 -0.22574248192E+02 -0.28385639123E+02 -0.28060227369E+02  0.45855398263E+02  0.00000000000E+00 0.  1.
         13    1    3    3    0    0  0.22574248192E+02  0.28385639123E+02 -0.14756438165E+03  0.15195587492E+03  0.00000000000E+00 0. -1.
<mgrwt>
<rscale>  0 0.91023604E+02</rscale>
<asrwt>0</asrwt>
<pdfrwt beam="2">  1        1 0.28725838E-01 0.91023604E+02</pdfrwt>
<pdfrwt beam="1">  1       -1 0.17066664E-02 0.91023604E+02</pdfrwt>
<totfact> 0.11737385E+05</totfact>
</mgrwt>
</event>
<event>
 5    1  0.6085374E+000  0.9468689E+02  0.7546771E-02  0.1291883E+00
         -4   -1    0    0    0  501 -0.00000000000E+00  0.00000000000E+00  0.22421672571E+02  0.22421672571E+02  0.00000000000E+00 0.  1.
          4   -1    0    0  501    0  0.00000000000E+00 -0.00000000000E+00 -0.99965859397E+02  0.99965859397E+02  0.00000000000E+00 0. -1.
         23    2    1    2    0    0  0.00000000000E+00  0.00000000000E+00 -0.77544186825E+02  0.12238753197E+03  0.94686889646E+02 0.  0.
        -13    1    3    3    0    0 -0.27293164933E+02 -0.10844575267E+02  0.92245181861E+01  0.30783329913E+02  0.00000000000E+00 0.  1.
         13    1    3    3    0    0  0.27293164933E+02  0.10844575267E+02 -0.86768705012E+02  0.91604202055E+02  0.00000000000E+00 0. -1.
<mgrwt>
<rscale>  0 0.94686890E+02</rscale>
<asrwt>0</asrwt>
<pdfrwt beam="2">  1        4 0.15379363E-01 0.94686890E+02</pdfrwt>
<pdfrwt beam="1">  1       -4 0.34494881E-02 0.94686890E+02</pdfrwt>
<totfact> 0.22689833E+04</totfact>
</mgrwt>
</event>
<event>
 5    1  0.6085374E+000  0.8932634E+02  0.7546771E-02  0.1304491E+00
         -2   -1    0    0    0  501 -0.00000000000E+00  0.00000000000E+00  0.21431941751E+02  0.21431941751E+02  0.00000000000E+00 0.  1.
          2   -1    0    0  501    0  0.00000000000E+00 -0.00000000000E+00 -0.93075974392E+02  0.93075974392E+02  0.00000000000E+00 0. -1.
         23    2    1    2    0    0  0.00000000000E+00  0.00000000000E+00 -0.71644032641E+02  0.11450791614E+03  0.89326342398E+02 0.  0.
        -13    1    3    3    0    0 -0.14531950855E+02  0.35663619191E+02 -0.68235284869E+01  0.39110508440E+02  0.00000000000E+00 0.  1.
         13    1    3    3    0    0  0.14531950855E+02 -0.35663619191E+02 -0.64820504154E+02  0.75397407703E+02  0.00000000000E+00 0. -1.
<mgrwt>
<rscale>  0 0.89326342E+02</rscale>
<asrwt>0</asrwt>
<pdfrwt beam="2">  1        2 0.14319381E-01 0.89326342E+02</pdfrwt>
<pdfrwt beam="1">  1       -2 0.32972218E-02 0.89326342E+02</pdfrwt>
<totfact> 0.12702673E+05</totfact>
</mgrwt>
</event>
<event>
 5    1  0.6085374E+000  0.9080587E+02  0.7546771E-02  0.1300912E+00
         -2   -1    0    0    0  501 -0.00000000000E+00  0.00000000000E+00  0.82841725768E+01  0.82841725768E+01  0.00000000000E+00 0.  1.
          2   -1    0    0  501    0  0.00000000000E+00 -0.00000000000E+00 -0.24883913824E+03  0.24883913824E+03  0.00000000000E+00 0. -1.
         23    2    1    2    0    0  0.00000000000E+00  0.00000000000E+00 -0.24055496567E+03  0.25712331082E+03  0.90805866882E+02 0.  0.
        -13    1    3    3    0    0  0.37876684668E+02  0.11246196332E+02 -0.18361273174E+03  0.18781574862E+03  0.00000000000E+00 0. -1.
         13    1    3    3    0    0 -0.37876684668E+02 -0.11246196332E+02 -0.56942233930E+02  0.69307562201E+02  0.00000000000E+00 0.  1.
<mgrwt>
<rscale>  0 0.90805867E+02</rscale>
<asrwt>0</asrwt>
<pdfrwt beam="2">  1        2 0.38282942E-01 0.90805867E+02</pdfrwt>
<pdfrwt beam="1">  1       -2 0.12744882E-02 0.90805867E+02</pdfrwt>
<totfact> 0.16941068E+05</totfact>
</mgrwt>
</event>
<event>
 5    1  0.6085374E+000  0.8978193E+02  0.7546771E-02  0.1303381E+00
          2   -1    0    0  501    0  0.00000000000E+00  0.00000000000E+00  0.20181381344E+02  0.20181381344E+02  0.00000000000E+00 0. -1.
         -2   -1    0    0    0  501 -0.00000000000E+00 -0.00000000000E+00 -0.99854340608E+02  0.99854340608E+02  0.00000000000E+00 0.  1.
         23    2    1    2    0    0  0.00000000000E+00  0.00000000000E+00 -0.79672959264E+02  0.12003572195E+03  0.89781925277E+02 0.  0.
        -13    1    3    3    0    0  0.25211151775E+02  0.35379334490E+02 -0.24716359437E+02  0.49981975817E+02  0.00000000000E+00 0. -1.
         13    1    3    3    0    0 -0.25211151775E+02 -0.35379334490E+02 -0.54956599828E+02  0.70053746134E+02  0.00000000000E+00 0.  1.
<mgrwt>
<rscale>  0 0.89781925E+02</rscale>
<asrwt>0</asrwt>
<pdfrwt beam="1">  1        2 0.31048280E-02 0.89781925E+02</pdfrwt>
<pdfrwt beam="2">  1       -2 0.15362206E-01 0.89781925E+02</pdfrwt>
<totfact> 0.82960976E+04</totfact>
</mgrwt>
</event>
<event>
 5    1  0.6085374E+000  0.9214023E+02  0.7546771E-02  0.1297750E+00
          1   -1    0    0  501    0  0.00000000000E+00  0.00000000000E+00  0.49641043911E+02  0.49641043911E+02  0.00000000000E+00 0. -1.
         -1   -1    0    0    0  501 -0.00000000000E+00 -0.00000000000E+00 -0.42756060168E+02  0.42756060168E+02  0.00000000000E+00 0.  1.
         23    2    1    2    0    0  0.00000000000E+00  0.00000000000E+00  0.68849837429E+01  0.92397104079E+02  0.92140229222E+02 0.  0.
        -13    1    3    3    0    0  0.81841454358E+01 -0.41344477964E+02 -0.15213388450E+02  0.44808406385E+02  0.00000000000E+00 0. -1.
         13    1    3    3    0    0 -0.81841454358E+01  0.41344477964E+02  0.22098372193E+02  0.47588697694E+02  0.00000000000E+00 0.  1.
<mgrwt>
<rscale>  0 0.92140229E+02</rscale>
<asrwt>0</asrwt>
<pdfrwt beam="1">  1        1 0.76370837E-02 0.92140229E+02</pdfrwt>
<pdfrwt beam="2">  1       -1 0.65778554E-02 0.92140229E+02</pdfrwt>
<totfact> 0.90945068E+04</totfact>
</mgrwt>
</event>
<event>
 5    1  0.6085374E+000  0.9132311E+02  0.7546771E-02  0.1299679E+00
          1   -1    0    0  501    0  0.00000000000E+00  0.00000000000E+00  0.93382908389E+02  0.93382908389E+02  0.00000000000E+00 0.  1.
         -1   -1    0    0    0  501 -0.00000000000E+00 -0.00000000000E+00 -0.22327186703E+02  0.22327186703E+02  0.00000000000E+00 0. -1.
         23    2    1    2    0    0  0.00000000000E+00  0.00000000000E+00  0.71055721686E+02  0.11571009509E+03  0.91323110558E+02 0.  0.
        -13    1    3    3    0    0  0.27574299892E+02  0.35947097496E+02  0.42744633264E+02  0.62286752250E+02  0.00000000000E+00 0.  1.
         13    1    3    3    0    0 -0.27574299892E+02 -0.35947097496E+02  0.28311088421E+02  0.53423342843E+02  0.00000000000E+00 0. -1.
<mgrwt>
<rscale>  0 0.91323111E+02</rscale>
<asrwt>0</asrwt>
<pdfrwt beam="1">  1        1 0.14366601E-01 0.91323111E+02</pdfrwt>
<pdfrwt beam="2">  1       -1 0.34349518E-02 0.91323111E+02</pdfrwt>
<totfact> 0.10282745E+05</totfact>
</mgrwt>
</event>
<event>
 5    1  0.6085374E+000  0.8970617E+02  0.7546771E-02  0.1303565E+00
         -1   -1    0    0    0  501 -0.00000000000E+00  0.00000000000E+00  0.97891016401E+01  0.97891016401E+01  0.00000000000E+00 0.  1.
          1   -1    0    0  501    0  0.00000000000E+00 -0.00000000000E+00 -0.20551417981E+03  0.20551417981E+03  0.00000000000E+00 0. -1.
         23    2    1    2    0    0  0.00000000000E+00  0.00000000000E+00 -0.19572507817E+03  0.21530328145E+03  0.89706169122E+02 0.  0.
        -13    1    3    3    0    0 -0.28547394896E+01 -0.37617010733E+02 -0.39633152424E+02  0.54717234991E+02  0.00000000000E+00 0.  1.
         13    1    3    3    0    0  0.28547394896E+01  0.37617010733E+02 -0.15609192575E+03  0.16058604646E+03  0.00000000000E+00 0. -1.
<mgrwt>
<rscale>  0 0.89706169E+02</rscale>
<asrwt>0</asrwt>
<pdfrwt beam="2">  1        1 0.31617564E-01 0.89706169E+02</pdfrwt>
<pdfrwt beam="1">  1       -1 0.15060158E-02 0.89706169E+02</pdfrwt>
<totfact> 0.12432815E+05</totfact>
</mgrwt>
</event>
<event>
 5    1  0.6085374E+000  0.9237419E+02  0.7546771E-02  0.1297202E+00
          2   -1    0    0  501    0  0.00000000000E+00  0.00000000000E+00  0.32149163448E+02  0.32149163448E+02  0.00000000000E+00 0. -1.
         -2   -1    0    0    0  501 -0.00000000000E+00 -0.00000000000E+00 -0.66354689666E+02  0.66354689666E+02  0.00000000000E+00 0.  1.
         23    2    1    2    0    0  0.00000000000E+00  0.00000000000E+00 -0.34205526218E+02  0.98503853113E+02  0.92374190412E+02 0.  0.
        -13    1    3    3    0    0  0.38754712939E+02 -0.16286645620E+02 -0.37505187360E+02  0.56336681473E+02  0.00000000000E+00 0.  1.
         13    1    3    3    0    0 -0.38754712939E+02  0.16286645620E+02  0.32996611421E+01  0.42167171640E+02  0.00000000000E+00 0. -1.
<mgrwt>
<rscale>  0 0.92374190E+02</rscale>
<asrwt>0</asrwt>
<pdfrwt beam="1">  1        2 0.49460251E-02 0.92374190E+02</pdfrwt>
<pdfrwt beam="2">  1       -2 0.10208414E-01 0.92374190E+02</pdfrwt>
<totfact> 0.86695817E+04</totfact>
</mgrwt>
</event>
<event>
 5    1  0.6085374E+000  0.9358181E+02  0.7546771E-02  0.1294403E+00
         -2   -1    0    0    0  501 -0.00000000000E+00  0.00000000000E+00  0.60152254294E+02  0.60152254294E+02  0.00000000000E+00 0.  1.
          2   -1    0    0  501    0  0.00000000000E+00 -0.00000000000E+00 -0.36397451019E+02  0.36397451019E+02  0.00000000000E+00 0. -1.
         23    2    1    2    0    0  0.00000000000E+00  0.00000000000E+00  0.23754803275E+02  0.96549705314E+02  0.93581808689E+02 0.  0.
        -13    1    3    3    0    0  0.21502907189E+02  0.37163971543E+02  0.31064320902E+02  0.52995545393E+02  0.00000000000E+00 0.  1.
         13    1    3    3    0    0 -0.21502907189E+02 -0.37163971543E+02 -0.73095176269E+01  0.43554159920E+02  0.00000000000E+00 0. -1.
<mgrwt>
<rscale>  0 0.93581809E+02</rscale>
<asrwt>0</asrwt>
<pdfrwt beam="2">  1        2 0.55996078E-02 0.93581809E+02</pdfrwt>
<pdfrwt beam="1">  1       -2 0.92541930E-02 0.93581809E+02</pdfrwt>
<totfact> 0.86246217E+04</totfact>
</mgrwt>
</event>
<event>
 5    1  0.6085374E+000  0.9156924E+02  0.7546771E-02  0.1299095E+00
          1   -1    0    0  501    0  0.00000000000E+00  0.00000000000E+00  0.14240348943E+03  0.14240348943E+03  0.00000000000E+00 0. -1.
         -1   -1    0    0    0  501 -0.00000000000E+00 -0.00000000000E+00 -0.14720364729E+02  0.14720364729E+02  0.00000000000E+00 0.  1.
         23    2    1    2    0    0  0.00000000000E+00  0.00000000000E+00  0.12768312470E+03  0.15712385416E+03  0.91569237261E+02 0.  0.
        -13    1    3    3    0    0  0.23778627225E+02  0.41628947457E+01 -0.29129541242E+01  0.24315388278E+02  0.00000000000E+00 0.  1.
         13    1    3    3    0    0 -0.23778627225E+02 -0.41628947457E+01  0.13059607882E+03  0.13280846588E+03  0.00000000000E+00 0. -1.
<mgrwt>
<rscale>  0 0.91569237E+02</rscale>
<asrwt>0</asrwt>
<pdfrwt beam="1">  1        1 0.21908228E-01 0.91569237E+02</pdfrwt>
<pdfrwt beam="2">  1       -1 0.22646716E-02 0.91569237E+02</pdfrwt>
<totfact> 0.10979009E+05</totfact>
</mgrwt>
</event>
<event>
 5    1  0.6085374E+000  0.9428550E+02  0.7546771E-02  0.1292793E+00
          1   -1    0    0  501    0  0.00000000000E+00  0.00000000000E+00  0.59630037344E+02  0.59630037344E+02  0.00000000000E+00 0. -1.
         -1   -1    0    0    0  501 -0.00000000000E+00 -0.00000000000E+00 -0.37270459371E+02  0.37270459371E+02  0.00000000000E+00 0.  1.
         23    2    1    2    0    0  0.00000000000E+00  0.00000000000E+00  0.22359577974E+02  0.96900496715E+02  0.94285500139E+02 0.  0.
        -13    1    3    3    0    0 -0.21228597233E+02 -0.41046880784E+02  0.15970707669E+01  0.46239057058E+02  0.00000000000E+00 0.  1.
         13    1    3    3    0    0  0.21228597233E+02  0.41046880784E+02  0.20762507207E+02  0.50661439657E+02  0.00000000000E+00 0. -1.
<mgrwt>
<rscale>  0 0.94285500E+02</rscale>
<asrwt>0</asrwt>
<pdfrwt beam="1">  1        1 0.91738519E-02 0.94285500E+02</pdfrwt>
<pdfrwt beam="2">  1       -1 0.57339168E-02 0.94285500E+02</pdfrwt>
<totfact> 0.87701143E+04</totfact>
</mgrwt>
</event>
<event>
 5    1  0.6085374E+000  0.8234910E+02  0.7546771E-02  0.1322514E+00
          1   -1    0    0  501    0  0.00000000000E+00  0.00000000000E+00  0.82463646247E+02  0.82463646247E+02  0.00000000000E+00 0. -1.
         -1   -1    0    0    0  501 -0.00000000000E+00 -0.00000000000E+00 -0.20558677116E+02  0.20558677116E+02  0.00000000000E+00 0.  1.
         23    2    1    2    0    0  0.00000000000E+00  0.00000000000E+00  0.61904969131E+02  0.10302232336E+03  0.82349097796E+02 0.  0.
        -13    1    3    3    0    0 -0.34342987120E+02 -0.22692051691E+02  0.32186842401E+02  0.52252873586E+02  0.00000000000E+00 0.  1.
         13    1    3    3    0    0  0.34342987120E+02  0.22692051691E+02  0.29718126730E+02  0.50769449776E+02  0.00000000000E+00 0. -1.
<mgrwt>
<rscale>  0 0.82349098E+02</rscale>
<asrwt>0</asrwt>
<pdfrwt beam="1">  1        1 0.12686715E-01 0.82349098E+02</pdfrwt>
<pdfrwt beam="2">  1       -1 0.31628734E-02 0.82349098E+02</pdfrwt>
<totfact> 0.13355696E+05</totfact>
</mgrwt>
</event>
<event>
 5    1  0.6085374E+000  0.8800232E+02  0.7546771E-02  0.1307763E+00
          4   -1    0    0  501    0  0.00000000000E+00  0.00000000000E+00  0.90276447900E+01  0.90276447900E+01  0.00000000000E+00 0. -1.
         -4   -1    0    0    0  501 -0.00000000000E+00 -0.00000000000E+00 -0.21446371987E+03  0.21446371987E+03  0.00000000000E+00 0.  1.
         23    2    1    2    0    0  0.00000000000E+00  0.00000000000E+00 -0.20543607508E+03  0.22349136466E+03  0.88002324590E+02 0.  0.
        -13    1    3    3    0    0  0.17125393814E+02 -0.35576767151E+02 -0.53400140637E+02  0.66412050821E+02  0.00000000000E+00 0. -1.
         13    1    3    3    0    0 -0.17125393814E+02  0.35576767151E+02 -0.15203593444E+03  0.15707931384E+03  0.00000000000E+00 0.  1.
<mgrwt>
<rscale>  0 0.88002325E+02</rscale>
<asrwt>0</asrwt>
<pdfrwt beam="1">  1        4 0.13888684E-02 0.88002325E+02</pdfrwt>
<pdfrwt beam="2">  1       -4 0.32994419E-01 0.88002325E+02</pdfrwt>
<totfact> 0.22465050E+04</totfact>
</mgrwt>
</event>
<event>
 5    1  0.6085374E+000  0.9205459E+02  0.7546771E-02  0.1297951E+00
         -2   -1    0    0    0  501 -0.00000000000E+00  0.00000000000E+00  0.53567933060E+01  0.53567933060E+01  0.00000000000E+00 0. -1.
          2   -1    0    0  501    0  0.00000000000E+00 -0.00000000000E+00 -0.39548136893E+03  0.39548136893E+03  0.00000000000E+00 0.  1.
         23    2    1    2    0    0  0.00000000000E+00  0.00000000000E+00 -0.39012457562E+03  0.40083816223E+03  0.92054591406E+02 0.  0.
        -13    1    3    3    0    0  0.41718609632E+02 -0.18923829455E+02 -0.21451520402E+03  0.21935206054E+03  0.00000000000E+00 0. -1.
         13    1    3    3    0    0 -0.41718609632E+02  0.18923829455E+02 -0.17560937160E+03  0.18148610169E+03  0.00000000000E+00 0.  1.
<mgrwt>
<rscale>  0 0.92054591E+02</rscale>
<asrwt>0</asrwt>
<pdfrwt beam="2">  1        2 0.60843296E-01 0.92054591E+02</pdfrwt>
<pdfrwt beam="1">  1       -2 0.82412193E-03 0.92054591E+02</pdfrwt>
<totfact> 0.19381524E+05</totfact>
</mgrwt>
</event>
<event>
 5    1  0.6085374E+000  0.9459280E+02  0.7546771E-02  0.1292096E+00
          3   -1    0    0  501    0  0.00000000000E+00  0.00000000000E+00  0.96819698071E+01  0.96819698071E+01  0.00000000000E+00 0. -1.
         -3   -1    0    0    0  501 -0.00000000000E+00 -0.00000000000E+00 -0.23104282814E+03  0.23104282814E+03  0.00000000000E+00 0.  1.
         23    2    1    2    0    0  0.00000000000E+00  0.00000000000E+00 -0.22136085833E+03  0.24072479795E+03  0.94592804931E+02 0.  0.
        -13    1    3    3    0    0  0.40589108889E+02 -0.24278955306E+02 -0.11047915910E+03  0.12017731910E+03  0.00000000000E+00 0.  1.
         13    1    3    3    0    0 -0.40589108889E+02  0.24278955306E+02 -0.11088169923E+03  0.12054747884E+03  0.00000000000E+00 0. -1.
<mgrwt>
<rscale>  0 0.94592805E+02</rscale>
<asrwt>0</asrwt>
<pdfrwt beam="1">  1        3 0.14895338E-02 0.94592805E+02</pdfrwt>
<pdfrwt beam="2">  1       -3 0.35545050E-01 0.94592805E+02</pdfrwt>
<totfact> 0.24009966E+04</totfact>
</mgrwt>
</event>
<event>
 5    1  0.6085374E+000  0.8991721E+02  0.7546771E-02  0.1303052E+00
          4   -1    0    0  501    0  0.00000000000E+00  0.00000000000E+00  0.44318017139E+02  0.44318017139E+02  0.00000000000E+00 0. -1.
         -4   -1    0    0    0  501 -0.00000000000E+00 -0.00000000000E+00 -0.45608455542E+02  0.45608455542E+02  0.00000000000E+00 0.  1.
         23    2    1    2    0    0  0.00000000000E+00  0.00000000000E+00 -0.12904384032E+01  0.89926472681E+02  0.89917213356E+02 0.  0.
        -13    1    3    3    0    0  0.23962919995E+02 -0.82335703369E+00 -0.38680397166E+02  0.45509038404E+02  0.00000000000E+00 0.  1.
         13    1    3    3    0    0 -0.23962919995E+02  0.82335703369E+00  0.37389958763E+02  0.44417434278E+02  0.00000000000E+00 0. -1.
<mgrwt>
<rscale>  0 0.89917213E+02</rscale>
<asrwt>0</asrwt>
<pdfrwt beam="1">  1        4 0.68181565E-02 0.89917213E+02</pdfrwt>
<pdfrwt beam="2">  1       -4 0.70166854E-02 0.89917213E+02</pdfrwt>
<totfact> 0.28137489E+04</totfact>
</mgrwt>
</event>
<event>
 5    1  0.6085374E+000  0.9074123E+02  0.7546771E-02  0.1301067E+00
          1   -1    0    0  501    0  0.00000000000E+00  0.00000000000E+00  0.53998417590E+02  0.53998417590E+02  0.00000000000E+00 0. -1.
         -1   -1    0    0    0  501 -0.00000000000E+00 -0.00000000000E+00 -0.38121355681E+02  0.38121355681E+02  0.00000000000E+00 0.  1.
         23    2    1    2    0    0  0.00000000000E+00  0.00000000000E+00  0.15877061910E+02  0.92119773271E+02  0.90741233916E+02 0.  0.
        -13    1    3    3    0    0 -0.13782176401E+02  0.42981678070E+02  0.32730806857E+01  0.45255785191E+02  0.00000000000E+00 0. -1.
         13    1    3    3    0    0  0.13782176401E+02 -0.42981678070E+02  0.12603981224E+02  0.46863988080E+02  0.00000000000E+00 0.  1.
<mgrwt>
<rscale>  0 0.90741234E+02</rscale>
<asrwt>0</asrwt>
<pdfrwt beam="1">  1        1 0.83074488E-02 0.90741234E+02</pdfrwt>
<pdfrwt beam="2">  1       -1 0.58648240E-02 0.90741234E+02</pdfrwt>
<totfact> 0.96125842E+04</totfact>
</mgrwt>
</event>
<event>
 5    1  0.6085374E+000  0.9459050E+02  0.7546771E-02  0.1292101E+00
          2   -1    0    0  501    0  0.00000000000E+00  0.00000000000E+00  0.16459233164E+02  0.16459233164E+02  0.00000000000E+00 0. -1.
         -2   -1    0    0    0  501 -0.00000000000E+00 -0.00000000000E+00 -0.13590187118E+03  0.13590187118E+03  0.00000000000E+00 0.  1.
         23    2    1    2    0    0  0.00000000000E+00  0.00000000000E+00 -0.11944263801E+03  0.15236110434E+03  0.94590498150E+02 0.  0.
        -13    1    3    3    0    0  0.36214617689E+02 -0.22775605549E+02 -0.27241194979E+02  0.50717940084E+02  0.00000000000E+00 0. -1.
         13    1    3    3    0    0 -0.36214617689E+02  0.22775605549E+02 -0.92201443034E+02  0.10164316426E+03  0.00000000000E+00 0.  1.
<mgrwt>
<rscale>  0 0.94590498E+02</rscale>
<asrwt>0</asrwt>
<pdfrwt beam="1">  1        2 0.25321898E-02 0.94590498E+02</pdfrwt>
<pdfrwt beam="2">  1       -2 0.20907979E-01 0.94590498E+02</pdfrwt>
<totfact> 0.65932300E+04</totfact>
</mgrwt>
</event>
<event>
 5    1  0.6085374E+000  0.9192717E+02  0.7546771E-02  0.1298251E+00
         -1   -1    0    0    0  501 -0.00000000000E+00  0.00000000000E+00  0.43337022498E+02  0.43337022498E+02  0.00000000000E+00 0.  1.
          1   -1    0    0  501    0  0.00000000000E+00 -0.00000000000E+00 -0.48749336743E+02  0.48749336743E+02  0.00000000000E+00 0. -1.
         23    2    1    2    0    0  0.00000000000E+00  0.00000000000E+00 -0.54123142446E+01  0.92086359241E+02  0.91927169067E+02 0.  0.
        -13    1    3    3    0    0  0.39202027377E+01  0.25703677275E+02  0.35262039143E+02  0.43811624250E+02  0.00000000000E+00 0.  1.
         13    1    3    3    0    0 -0.39202027377E+01 -0.25703677275E+02 -0.40674353387E+02  0.48274734991E+02  0.00000000000E+00 0. -1.
<mgrwt>
<rscale>  0 0.91927169E+02</rscale>
<asrwt>0</asrwt>
<pdfrwt beam="2">  1        1 0.74998980E-02 0.91927169E+02</pdfrwt>
<pdfrwt beam="1">  1       -1 0.66672342E-02 0.91927169E+02</pdfrwt>
<totfact> 0.91286736E+04</totfact>
</mgrwt>
</event>
<event>
 5    1  0.6085374E+000  0.9100826E+02  0.7546771E-02  0.1300428E+00
         -2   -1    0    0    0  501 -0.00000000000E+00  0.00000000000E+00  0.77513099930E+02  0.77513099930E+02  0.00000000000E+00 0.  1.
          2   -1    0    0  501    0  0.00000000000E+00 -0.00000000000E+00 -0.26713238752E+02  0.26713238752E+02  0.00000000000E+00 0. -1.
         23    2    1    2    0    0  0.00000000000E+00  0.00000000000E+00  0.50799861178E+02  0.10422633868E+03  0.91008262149E+02 0.  0.
        -13    1    3    3    0    0  0.36413143239E+02 -0.21970413038E+02  0.68622451981E+01  0.43077911495E+02  0.00000000000E+00 0.  1.
         13    1    3    3    0    0 -0.36413143239E+02  0.21970413038E+02  0.43937615979E+02  0.61148427188E+02  0.00000000000E+00 0. -1.
<mgrwt>
<rscale>  0 0.91008262E+02</rscale>
<asrwt>0</asrwt>
<pdfrwt beam="2">  1        2 0.41097291E-02 0.91008262E+02</pdfrwt>
<pdfrwt beam="1">  1       -2 0.11925092E-01 0.91008262E+02</pdfrwt>
<totfact> 0.86211515E+04</totfact>
</mgrwt>
</event>
<event>
 5    1  0.6085374E+000  0.9216061E+02  0.7546771E-02  0.1297702E+00
         -2   -1    0    0    0  501 -0.00000000000E+00  0.00000000000E+00  0.14509090286E+03  0.14509090286E+03  0.00000000000E+00 0.  1.
          2   -1    0    0  501    0  0.00000000000E+00 -0.00000000000E+00 -0.14634924828E+02  0.14634924828E+02  0.00000000000E+00 0. -1.
         23    2    1    2    0    0  0.00000000000E+00  0.00000000000E+00  0.13045597804E+03  0.15972582769E+03  0.92160608866E+02 0.  0.
        -13    1    3    3    0    0 -0.44324498940E+02 -0.97905822487E+01  0.78970886510E+02  0.91087417480E+02  0.00000000000E+00 0.  1.
         13    1    3    3    0    0  0.44324498940E+02  0.97905822487E+01  0.51485091525E+02  0.68638410212E+02  0.00000000000E+00 0. -1.
<mgrwt>
<rscale>  0 0.92160609E+02</rscale>
<asrwt>0</asrwt>
<pdfrwt beam="2">  1        2 0.22515270E-02 0.92160609E+02</pdfrwt>
<pdfrwt beam="1">  1       -2 0.22321676E-01 0.92160609E+02</pdfrwt>
<totfact> 0.68805444E+04</totfact>
</mgrwt>
</event>
<event>
 5    1  0.6085374E+000  0.9286414E+02  0.7546771E-02  0.1296060E+00
         -1   -1    0    0    0  501 -0.00000000000E+00  0.00000000000E+00  0.90403082963E+02  0.90403082963E+02  0.00000000000E+00 0.  1.
          1   -1    0    0  501    0  0.00000000000E+00 -0.00000000000E+00 -0.23848047604E+02  0.23848047604E+02  0.00000000000E+00 0. -1.
         23    2    1    2    0    0  0.00000000000E+00  0.00000000000E+00  0.66555035359E+02  0.11425113057E+03  0.92864137879E+02 0.  0.
        -13    1    3    3    0    0  0.20437147325E+01  0.43341811663E+02  0.12940340732E+02  0.45278491874E+02  0.00000000000E+00 0.  1.
         13    1    3    3    0    0 -0.20437147325E+01 -0.43341811663E+02  0.53614694627E+02  0.68972638692E+02  0.00000000000E+00 0. -1.
<mgrwt>
<rscale>  0 0.92864138E+02</rscale>
<asrwt>0</asrwt>
<pdfrwt beam="2">  1        1 0.36689305E-02 0.92864138E+02</pdfrwt>
<pdfrwt beam="1">  1       -1 0.13908166E-01 0.92864138E+02</pdfrwt>
<totfact> 0.79058738E+04</totfact>
</mgrwt>
</event>
<event>
 5    1  0.6085374E+000  0.9205449E+02  0.7546771E-02  0.1297951E+00
          1   -1    0    0  501    0  0.00000000000E+00  0.00000000000E+00  0.39594089236E+03  0.39594089236E+03  0.00000000000E+00 0. -1.
         -1   -1    0    0    0  501 -0.00000000000E+00 -0.00000000000E+00 -0.53505641619E+01  0.53505641619E+01  0.00000000000E+00 0.  1.
         23    2    1    2    0    0  0.00000000000E+00  0.00000000000E+00  0.39059032820E+03  0.40129145652E+03  0.92054487102E+02 0.  0.
        -13    1    3    3    0    0 -0.11001245112E+02 -0.44532988256E+02  0.21177573570E+03  0.21668681702E+03  0.00000000000E+00 0. -1.
         13    1    3    3    0    0  0.11001245112E+02  0.44532988256E+02  0.17881459249E+03  0.18460463950E+03  0.00000000000E+00 0.  1.
<mgrwt>
<rscale>  0 0.92054487E+02</rscale>
<asrwt>0</asrwt>
<pdfrwt beam="1">  1        1 0.60913960E-01 0.92054487E+02</pdfrwt>
<pdfrwt beam="2">  1       -1 0.82316403E-03 0.92054487E+02</pdfrwt>
<totfact> 0.13127945E+05</totfact>
</mgrwt>
</event>
<event>
 5    1  0.6085374E+000  0.9213710E+02  0.7546771E-02  0.1297757E+00
          2   -1    0    0  501    0  0.00000000000E+00  0.00000000000E+00  0.84577748492E+02  0.84577748492E+02  0.00000000000E+00 0. -1.
         -2   -1    0    0    0  501 -0.00000000000E+00 -0.00000000000E+00 -0.25093020575E+02  0.25093020575E+02  0.00000000000E+00 0.  1.
         23    2    1    2    0    0  0.00000000000E+00  0.00000000000E+00  0.59484727916E+02  0.10967076907E+03  0.92137097482E+02 0.  0.
        -13    1    3    3    0    0  0.36853344597E+01 -0.45080352946E+02  0.40152641344E+02  0.60481852805E+02  0.00000000000E+00 0.  1.
         13    1    3    3    0    0 -0.36853344597E+01  0.45080352946E+02  0.19332086572E+02  0.49188916262E+02  0.00000000000E+00 0. -1.
<mgrwt>
<rscale>  0 0.92137097E+02</rscale>
<asrwt>0</asrwt>
<pdfrwt beam="1">  1        2 0.13011961E-01 0.92137097E+02</pdfrwt>
<pdfrwt beam="2">  1       -2 0.38604647E-02 0.92137097E+02</pdfrwt>
<totfact> 0.11336563E+05</totfact>
</mgrwt>
</event>
<event>
 5    1  0.6085374E+000  0.9603953E+02  0.7546771E-02  0.1288852E+00
         -1   -1    0    0    0  501 -0.00000000000E+00  0.00000000000E+00  0.11928905692E+02  0.11928905692E+02  0.00000000000E+00 0.  1.
          1   -1    0    0  501    0  0.00000000000E+00 -0.00000000000E+00 -0.19330339757E+03  0.19330339757E+03  0.00000000000E+00 0. -1.
         23    2    1    2    0    0  0.00000000000E+00  0.00000000000E+00 -0.18137449188E+03  0.20523230326E+03  0.96039533517E+02 0.  0.
        -13    1    3    3    0    0 -0.23707749401E+02 -0.41335148631E+02 -0.78000470701E+02  0.91404186576E+02  0.00000000000E+00 0. -1.
         13    1    3    3    0    0  0.23707749401E+02  0.41335148631E+02 -0.10337402118E+03  0.11382811669E+03  0.00000000000E+00 0.  1.
<mgrwt>
<rscale>  0 0.96039534E+02</rscale>
<asrwt>0</asrwt>
<pdfrwt beam="2">  1        1 0.29738983E-01 0.96039534E+02</pdfrwt>
<pdfrwt beam="1">  1       -1 0.18352163E-02 0.96039534E+02</pdfrwt>
<totfact> 0.10226799E+05</totfact>
</mgrwt>
</event>
<event>
 5    1  0.6085374E+000  0.9309558E+02  0.7546771E-02  0.1295524E+00
         -1   -1    0    0    0  501 -0.00000000000E+00  0.00000000000E+00  0.25306538031E+03  0.25306538031E+03  0.00000000000E+00 0.  1.
          1   -1    0    0  501    0  0.00000000000E+00 -0.00000000000E+00 -0.85618057264E+01  0.85618057264E+01  0.00000000000E+00 0. -1.
         23    2    1    2    0    0  0.00000000000E+00  0.00000000000E+00  0.24450357458E+03  0.26162718603E+03  0.93095577173E+02 0.  0.
        -13    1    3    3    0    0 -0.12635541700E+02 -0.39937534729E+02  0.17929708306E+03  0.18412524973E+03  0.00000000000E+00 0.  1.
         13    1    3    3    0    0  0.12635541700E+02  0.39937534729E+02  0.65206491517E+02  0.77501936300E+02  0.00000000000E+00 0. -1.
<mgrwt>
<rscale>  0 0.93095577E+02</rscale>
<asrwt>0</asrwt>
<pdfrwt beam="2">  1        1 0.13172011E-02 0.93095577E+02</pdfrwt>
<pdfrwt beam="1">  1       -1 0.38933130E-01 0.93095577E+02</pdfrwt>
<totfact> 0.61078165E+04</totfact>
</mgrwt>
</event>
<event>
 5    1  0.6085374E+000  0.8693990E+02  0.7546771E-02  0.1310436E+00
          4   -1    0    0  501    0  0.00000000000E+00  0.00000000000E+00  0.14888401629E+03  0.14888401629E+03  0.00000000000E+00 0. -1.
         -4   -1    0    0    0  501 -0.00000000000E+00 -0.00000000000E+00 -0.12692004259E+02  0.12692004259E+02  0.00000000000E+00 0.  1.
         23    2    1    2    0    0  0.00000000000E+00  0.00000000000E+00  0.13619201203E+03  0.16157602055E+03  0.86939900364E+02 0.  0.
        -13    1    3    3    0    0 -0.82845363876E+01 -0.37395401978E+02  0.10630061889E+03  0.11299058018E+03  0.00000000000E+00 0. -1.
         13    1    3    3    0    0  0.82845363876E+01  0.37395401978E+02  0.29891393141E+02  0.48585440372E+02  0.00000000000E+00 0.  1.
<mgrwt>
<rscale>  0 0.86939900E+02</rscale>
<asrwt>0</asrwt>
<pdfrwt beam="1">  1        4 0.22905232E-01 0.86939900E+02</pdfrwt>
<pdfrwt beam="2">  1       -4 0.19526161E-02 0.86939900E+02</pdfrwt>
<totfact> 0.26240331E+04</totfact>
</mgrwt>
</event>
<event>
 5    1  0.6085374E+000  0.9181992E+02  0.7546771E-02  0.1298503E+00
          1   -1    0    0  501    0  0.00000000000E+00  0.00000000000E+00  0.15937084128E+02  0.15937084128E+02  0.00000000000E+00 0. -1.
         -1   -1    0    0    0  501 -0.00000000000E+00 -0.00000000000E+00 -0.13225282500E+03  0.13225282500E+03  0.00000000000E+00 0.  1.
         23    2    1    2    0    0  0.00000000000E+00  0.00000000000E+00 -0.11631574087E+03  0.14818990913E+03  0.91819919368E+02 0.  0.
        -13    1    3    3    0    0  0.64137754474E+00 -0.37457060929E+02 -0.15327197112E+02  0.40476730968E+02  0.00000000000E+00 0. -1.
         13    1    3    3    0    0 -0.64137754474E+00  0.37457060929E+02 -0.10098854376E+03  0.10771317816E+03  0.00000000000E+00 0.  1.
<mgrwt>
<rscale>  0 0.91819919E+02</rscale>
<asrwt>0</asrwt>
<pdfrwt beam="1">  1        1 0.24518592E-02 0.91819919E+02</pdfrwt>
<pdfrwt beam="2">  1       -1 0.20346588E-01 0.91819919E+02</pdfrwt>
<totfact> 0.75549927E+04</totfact>
</mgrwt>
</event>
<event>
 5    1  0.6085374E+000  0.9066551E+02  0.7546771E-02  0.1301248E+00
          2   -1    0    0  501    0  0.00000000000E+00  0.00000000000E+00  0.43907320070E+01  0.43907320070E+01  0.00000000000E+00 0. -1.
         -2   -1    0    0    0  501 -0.00000000000E+00 -0.00000000000E+00 -0.46804470197E+03  0.46804470197E+03  0.00000000000E+00 0.  1.
         23    2    1    2    0    0  0.00000000000E+00  0.00000000000E+00 -0.46365396996E+03  0.47243543397E+03  0.90665513921E+02 0.  0.
        -13    1    3    3    0    0  0.99100791820E+01  0.43921511161E+02 -0.20437762927E+03  0.20927858027E+03  0.00000000000E+00 0. -1.
         13    1    3    3    0    0 -0.99100791820E+01 -0.43921511161E+02 -0.25927634069E+03  0.26315685370E+03  0.00000000000E+00 0.  1.
<mgrwt>
<rscale>  0 0.90665514E+02</rscale>
<asrwt>0</asrwt>
<pdfrwt beam="1">  1        2 0.67549722E-03 0.90665514E+02</pdfrwt>
<pdfrwt beam="2">  1       -2 0.72006879E-01 0.90665514E+02</pdfrwt>
<totfact> 0.38738852E+04</totfact>
</mgrwt>
</event>
<event>
 5    1  0.6085374E+000  0.9129768E+02  0.7546771E-02  0.1299739E+00
         -2   -1    0    0    0  501 -0.00000000000E+00  0.00000000000E+00  0.60081069147E+01  0.60081069147E+01  0.00000000000E+00 0.  1.
          2   -1    0    0  501    0  0.00000000000E+00 -0.00000000000E+00 -0.34683413471E+03  0.34683413471E+03  0.00000000000E+00 0. -1.
         23    2    1    2    0    0  0.00000000000E+00  0.00000000000E+00 -0.34082602779E+03  0.35284224162E+03  0.91297679336E+02 0.  0.
        -13    1    3    3    0    0  0.12213519813E+02  0.43983247411E+02 -0.17175427503E+03  0.17771670465E+03  0.00000000000E+00 0.  1.
         13    1    3    3    0    0 -0.12213519813E+02 -0.43983247411E+02 -0.16907175276E+03  0.17512553697E+03  0.00000000000E+00 0. -1.
<mgrwt>
<rscale>  0 0.91297679E+02</rscale>
<asrwt>0</asrwt>
<pdfrwt beam="2">  1        2 0.53359094E-01 0.91297679E+02</pdfrwt>
<pdfrwt beam="1">  1       -2 0.92432420E-03 0.91297679E+02</pdfrwt>
<totfact> 0.18889756E+05</totfact>
</mgrwt>
</event>
<event>
 5    1  0.6085374E+000  0.9351522E+02  0.7546771E-02  0.1294556E+00
         -2   -1    0    0    0  501 -0.00000000000E+00  0.00000000000E+00  0.33510922391E+02  0.33510922391E+02  0.00000000000E+00 0. -1.
          2   -1    0    0  501    0  0.00000000000E+00 -0.00000000000E+00 -0.65240648690E+02  0.65240648690E+02  0.00000000000E+00 0.  1.
         23    2    1    2    0    0  0.00000000000E+00  0.00000000000E+00 -0.31729726299E+02  0.98751571081E+02  0.93515224749E+02 0.  0.
        -13    1    3    3    0    0  0.31021039248E+02 -0.13250462375E+02 -0.50056831059E+02  0.60361957927E+02  0.00000000000E+00 0.  1.
         13    1    3    3    0    0 -0.31021039248E+02  0.13250462375E+02  0.18327104760E+02  0.38389613153E+02  0.00000000000E+00 0. -1.
<mgrwt>
<rscale>  0 0.93515225E+02</rscale>
<asrwt>0</asrwt>
<pdfrwt beam="2">  1        2 0.10037023E-01 0.93515225E+02</pdfrwt>
<pdfrwt beam="1">  1       -2 0.51555266E-02 0.93515225E+02</pdfrwt>
<totfact> 0.10102989E+05</totfact>
</mgrwt>
</event>
<event>
 5    1  0.6085374E+000  0.9097155E+02  0.7546771E-02  0.1300516E+00
          3   -1    0    0  501    0  0.00000000000E+00  0.00000000000E+00  0.58860448279E+02  0.58860448279E+02  0.00000000000E+00 0. -1.
         -3   -1    0    0    0  501 -0.00000000000E+00 -0.00000000000E+00 -0.35150187386E+02  0.35150187386E+02  0.00000000000E+00 0.  1.
         23    2    1    2    0    0  0.00000000000E+00  0.00000000000E+00  0.23710260893E+02  0.94010635664E+02  0.90971551302E+02 0.  0.
        -13    1    3    3    0    0 -0.19270217095E+01 -0.18624649101E+02 -0.30982858553E+02  0.36201222230E+02  0.00000000000E+00 0.  1.
         13    1    3    3    0    0  0.19270217095E+01  0.18624649101E+02  0.54693119446E+02  0.57809413434E+02  0.00000000000E+00 0. -1.
<mgrwt>
<rscale>  0 0.90971551E+02</rscale>
<asrwt>0</asrwt>
<pdfrwt beam="1">  1        3 0.90554536E-02 0.90971551E+02</pdfrwt>
<pdfrwt beam="2">  1       -3 0.54077212E-02 0.90971551E+02</pdfrwt>
<totfact> 0.35338236E+04</totfact>
</mgrwt>
</event>
<event>
 5    1  0.6085374E+000  0.9013763E+02  0.7546771E-02  0.1302519E+00
         -1   -1    0    0    0  501 -0.00000000000E+00  0.00000000000E+00  0.33083577583E+02  0.33083577583E+02  0.00000000000E+00 0.  1.
          1   -1    0    0  501    0  0.00000000000E+00 -0.00000000000E+00 -0.61395958611E+02  0.61395958611E+02  0.00000000000E+00 0. -1.
         23    2    1    2    0    0  0.00000000000E+00  0.00000000000E+00 -0.28312381028E+02  0.94479536194E+02  0.90137627215E+02 0.  0.
        -13    1    3    3    0    0 -0.28834600475E+02  0.25966725783E+02 -0.38184049184E+02  0.54440119807E+02  0.00000000000E+00 0. -1.
         13    1    3    3    0    0  0.28834600475E+02 -0.25966725783E+02  0.98716681562E+01  0.40039416387E+02  0.00000000000E+00 0.  1.
<mgrwt>
<rscale>  0 0.90137627E+02</rscale>
<asrwt>0</asrwt>
<pdfrwt beam="2">  1        1 0.94455321E-02 0.90137627E+02</pdfrwt>
<pdfrwt beam="1">  1       -1 0.50897812E-02 0.90137627E+02</pdfrwt>
<totfact> 0.99824225E+04</totfact>
</mgrwt>
</event>
<event>
 5    1  0.6085374E+000  0.9033281E+02  0.7546771E-02  0.1302048E+00
          1   -1    0    0  501    0  0.00000000000E+00  0.00000000000E+00  0.20487245427E+03  0.20487245427E+03  0.00000000000E+00 0. -1.
         -1   -1    0    0    0  501 -0.00000000000E+00 -0.00000000000E+00 -0.99574349620E+01  0.99574349620E+01  0.00000000000E+00 0.  1.
         23    2    1    2    0    0  0.00000000000E+00  0.00000000000E+00  0.19491501931E+03  0.21482988923E+03  0.90332809961E+02 0.  0.
        -13    1    3    3    0    0 -0.27668399967E+02 -0.35639086943E+02  0.10240009366E+03  0.11189934788E+03  0.00000000000E+00 0. -1.
         13    1    3    3    0    0  0.27668399967E+02  0.35639086943E+02  0.92514925644E+02  0.10293054135E+03  0.00000000000E+00 0.  1.
<mgrwt>
<rscale>  0 0.90332810E+02</rscale>
<asrwt>0</asrwt>
<pdfrwt beam="1">  1        1 0.31518836E-01 0.90332810E+02</pdfrwt>
<pdfrwt beam="2">  1       -1 0.15319132E-02 0.90332810E+02</pdfrwt>
<totfact> 0.12196062E+05</totfact>
</mgrwt>
</event>
<event>
 5    1  0.6085374E+000  0.1227262E+03  0.7546771E-02  0.1238666E+00
         -2   -1    0    0    0  501 -0.00000000000E+00  0.00000000000E+00  0.41142373427E+03  0.41142373427E+03  0.00000000000E+00 0.  1.
          2   -1    0    0  501    0  0.00000000000E+00 -0.00000000000E+00 -0.91521954829E+01  0.91521954829E+01  0.00000000000E+00 0. -1.
         23    2    1    2    0    0  0.00000000000E+00  0.00000000000E+00  0.40227153878E+03  0.42057592975E+03  0.12272620653E+03 0.  0.
        -13    1    3    3    0    0  0.50799319743E+02 -0.34366208896E+02  0.20783651301E+03  0.21669707737E+03  0.00000000000E+00 0. -1.
         13    1    3    3    0    0 -0.50799319743E+02  0.34366208896E+02  0.19443502578E+03  0.20387885238E+03  0.00000000000E+00 0.  1.
<mgrwt>
<rscale>  0 0.12272621E+03</rscale>
<asrwt>0</asrwt>
<pdfrwt beam="2">  1        2 0.14080304E-02 0.12272621E+03</pdfrwt>
<pdfrwt beam="1">  1       -2 0.63295945E-01 0.12272621E+03</pdfrwt>
<totfact> 0.19308230E+04</totfact>
</mgrwt>
</event>
<event>
 5    1  0.6085374E+000  0.9163706E+02  0.7546771E-02  0.1298935E+00
         -2   -1    0    0    0  501 -0.00000000000E+00  0.00000000000E+00  0.12447941484E+02  0.12447941484E+02  0.00000000000E+00 0.  1.
          2   -1    0    0  501    0  0.00000000000E+00 -0.00000000000E+00 -0.16864938840E+03  0.16864938840E+03  0.00000000000E+00 0. -1.
         23    2    1    2    0    0  0.00000000000E+00  0.00000000000E+00 -0.15620144692E+03  0.18109732988E+03  0.91637060583E+02 0.  0.
        -13    1    3    3    0    0  0.12611422662E+01 -0.29060201312E+02 -0.14806238087E+03  0.15089252602E+03  0.00000000000E+00 0. -1.
         13    1    3    3    0    0 -0.12611422662E+01  0.29060201312E+02 -0.81390660428E+01  0.30204803859E+02  0.00000000000E+00 0.  1.
<mgrwt>
<rscale>  0 0.91637061E+02</rscale>
<asrwt>0</asrwt>
<pdfrwt beam="2">  1        2 0.25946060E-01 0.91637061E+02</pdfrwt>
<pdfrwt beam="1">  1       -2 0.19150679E-02 0.91637061E+02</pdfrwt>
<totfact> 0.14360119E+05</totfact>
</mgrwt>
</event>
<event>
 5    1  0.6085374E+000  0.9139385E+02  0.7546771E-02  0.1299511E+00
          2   -1    0    0  501    0  0.00000000000E+00  0.00000000000E+00  0.27671184261E+02  0.27671184261E+02  0.00000000000E+00 0. -1.
         -2   -1    0    0    0  501 -0.00000000000E+00 -0.00000000000E+00 -0.75465102664E+02  0.75465102664E+02  0.00000000000E+00 0.  1.
         23    2    1    2    0    0  0.00000000000E+00  0.00000000000E+00 -0.47793918402E+02  0.10313628692E+03  0.91393845769E+02 0.  0.
        -13    1    3    3    0    0  0.63882036350E+00 -0.31146329364E+02  0.13830581242E+02  0.34084995259E+02  0.00000000000E+00 0. -1.
         13    1    3    3    0    0 -0.63882036350E+00  0.31146329364E+02 -0.61624499645E+02  0.69051291666E+02  0.00000000000E+00 0.  1.
<mgrwt>
<rscale>  0 0.91393846E+02</rscale>
<asrwt>0</asrwt>
<pdfrwt beam="1">  1        2 0.42571054E-02 0.91393846E+02</pdfrwt>
<pdfrwt beam="2">  1       -2 0.11610016E-01 0.91393846E+02</pdfrwt>
<totfact> 0.85948277E+04</totfact>
</mgrwt>
</event>
<event>
 5    1  0.6085374E+000  0.9022459E+02  0.7546771E-02  0.1302309E+00
          2   -1    0    0  501    0  0.00000000000E+00  0.00000000000E+00  0.10014831241E+02  0.10014831241E+02  0.00000000000E+00 0.  1.
         -2   -1    0    0    0  501 -0.00000000000E+00 -0.00000000000E+00 -0.20321052098E+03  0.20321052098E+03  0.00000000000E+00 0. -1.
         23    2    1    2    0    0  0.00000000000E+00  0.00000000000E+00 -0.19319568974E+03  0.21322535222E+03  0.90224588093E+02 0.  0.
        -13    1    3    3    0    0  0.78613603433E+00 -0.35593886855E+02 -0.16207272410E+03  0.16593706846E+03  0.00000000000E+00 0. -1.
         13    1    3    3    0    0 -0.78613603433E+00  0.35593886855E+02 -0.31122965644E+02  0.47288283768E+02  0.00000000000E+00 0.  1.
<mgrwt>
<rscale>  0 0.90224588E+02</rscale>
<asrwt>0</asrwt>
<pdfrwt beam="1">  1        2 0.15407432E-02 0.90224588E+02</pdfrwt>
<pdfrwt beam="2">  1       -2 0.31263159E-01 0.90224588E+02</pdfrwt>
<totfact> 0.63569926E+04</totfact>
</mgrwt>
</event>
<event>
 5    1  0.6085374E+000  0.9219820E+02  0.7546771E-02  0.1297614E+00
          1   -1    0    0  501    0  0.00000000000E+00  0.00000000000E+00  0.13484823132E+02  0.13484823132E+02  0.00000000000E+00 0. -1.
         -1   -1    0    0    0  501 -0.00000000000E+00 -0.00000000000E+00 -0.15759398890E+03  0.15759398890E+03  0.00000000000E+00 0.  1.
         23    2    1    2    0    0  0.00000000000E+00  0.00000000000E+00 -0.14410916577E+03  0.17107881204E+03  0.92198201001E+02 0.  0.
        -13    1    3    3    0    0  0.35561865598E+02  0.55304274610E+01 -0.12550922093E+03  0.13056721048E+03  0.00000000000E+00 0.  1.
         13    1    3    3    0    0 -0.35561865598E+02 -0.55304274610E+01 -0.18599944839E+02  0.40511601557E+02  0.00000000000E+00 0. -1.
<mgrwt>
<rscale>  0 0.92198201E+02</rscale>
<asrwt>0</asrwt>
<pdfrwt beam="1">  1        1 0.20745880E-02 0.92198201E+02</pdfrwt>
<pdfrwt beam="2">  1       -1 0.24245231E-01 0.92198201E+02</pdfrwt>
<totfact> 0.71804339E+04</totfact>
</mgrwt>
</event>
<event>
 5    1  0.6085374E+000  0.8920723E+02  0.7546771E-02  0.1304783E+00
         -1   -1    0    0    0  501 -0.00000000000E+00  0.00000000000E+00  0.57112533577E+01  0.57112533577E+01  0.00000000000E+00 0.  1.
          1   -1    0    0  501    0  0.00000000000E+00 -0.00000000000E+00 -0.34834425444E+03  0.34834425444E+03  0.00000000000E+00 0. -1.
         23    2    1    2    0    0  0.00000000000E+00  0.00000000000E+00 -0.34263300108E+03  0.35405550779E+03  0.89207226003E+02 0.  0.
        -13    1    3    3    0    0 -0.24086489229E+02 -0.35713701764E+02 -0.21723507033E+03  0.22146490295E+03  0.00000000000E+00 0.  1.
         13    1    3    3    0    0  0.24086489229E+02  0.35713701764E+02 -0.12539793075E+03  0.13259060485E+03  0.00000000000E+00 0. -1.
<mgrwt>
<rscale>  0 0.89207226E+02</rscale>
<asrwt>0</asrwt>
<pdfrwt beam="2">  1        1 0.53591437E-01 0.89207226E+02</pdfrwt>
<pdfrwt beam="1">  1       -1 0.87865414E-03 0.89207226E+02</pdfrwt>
<totfact> 0.13958434E+05</totfact>
</mgrwt>
</event>
<event>
 5    1  0.6085374E+000  0.8894235E+02  0.7546771E-02  0.1305433E+00
         -2   -1    0    0    0  501 -0.00000000000E+00  0.00000000000E+00  0.11084484757E+02  0.11084484757E+02  0.00000000000E+00 0. -1.
          2   -1    0    0  501    0  0.00000000000E+00 -0.00000000000E+00 -0.17841923606E+03  0.17841923606E+03  0.00000000000E+00 0.  1.
         23    2    1    2    0    0  0.00000000000E+00  0.00000000000E+00 -0.16733475130E+03  0.18950372082E+03  0.88942347677E+02 0.  0.
        -13    1    3    3    0    0  0.19964380112E+02 -0.22381192393E+02 -0.15362853785E+03  0.15652866156E+03  0.00000000000E+00 0.  1.
         13    1    3    3    0    0 -0.19964380112E+02  0.22381192393E+02 -0.13706213454E+02  0.32975059264E+02  0.00000000000E+00 0. -1.
<mgrwt>
<rscale>  0 0.88942348E+02</rscale>
<asrwt>0</asrwt>
<pdfrwt beam="2">  1        2 0.27449113E-01 0.88942348E+02</pdfrwt>
<pdfrwt beam="1">  1       -2 0.17053054E-02 0.88942348E+02</pdfrwt>
<totfact> 0.15874718E+05</totfact>
</mgrwt>
</event>
<event>
 5    1  0.6085374E+000  0.9127930E+02  0.7546771E-02  0.1299783E+00
          1   -1    0    0  501    0  0.00000000000E+00  0.00000000000E+00  0.29993447424E+02  0.29993447424E+02  0.00000000000E+00 0. -1.
         -1   -1    0    0    0  501 -0.00000000000E+00 -0.00000000000E+00 -0.69447759137E+02  0.69447759137E+02  0.00000000000E+00 0.  1.
         23    2    1    2    0    0  0.00000000000E+00  0.00000000000E+00 -0.39454311713E+02  0.99441206561E+02  0.91279301320E+02 0.  0.
        -13    1    3    3    0    0  0.70018997446E+01 -0.37839157863E+02  0.70057488851E+01  0.39114050995E+02  0.00000000000E+00 0. -1.
         13    1    3    3    0    0 -0.70018997446E+01  0.37839157863E+02 -0.46460060598E+02  0.60327155565E+02  0.00000000000E+00 0.  1.
<mgrwt>
<rscale>  0 0.91279301E+02</rscale>
<asrwt>0</asrwt>
<pdfrwt beam="1">  1        1 0.46143765E-02 0.91279301E+02</pdfrwt>
<pdfrwt beam="2">  1       -1 0.10684271E-01 0.91279301E+02</pdfrwt>
<totfact> 0.86402150E+04</totfact>
</mgrwt>
</event>
<event>
 5    1  0.6085374E+000  0.9186328E+02  0.7546771E-02  0.1298401E+00
          2   -1    0    0  501    0  0.00000000000E+00  0.00000000000E+00  0.46667891919E+02  0.46667891919E+02  0.00000000000E+00 0. -1.
         -2   -1    0    0    0  501 -0.00000000000E+00 -0.00000000000E+00 -0.45207003264E+02  0.45207003264E+02  0.00000000000E+00 0.  1.
         23    2    1    2    0    0  0.00000000000E+00  0.00000000000E+00  0.14608886546E+01  0.91874895183E+02  0.91863279765E+02 0.  0.
        -13    1    3    3    0    0 -0.42162736035E+02 -0.17975919727E+02  0.37116839137E+01  0.45984851826E+02  0.00000000000E+00 0. -1.
         13    1    3    3    0    0  0.42162736035E+02  0.17975919727E+02 -0.22507952591E+01  0.45890043357E+02  0.00000000000E+00 0.  1.
<mgrwt>
<rscale>  0 0.91863280E+02</rscale>
<asrwt>0</asrwt>
<pdfrwt beam="1">  1        2 0.71796757E-02 0.91863280E+02</pdfrwt>
<pdfrwt beam="2">  1       -2 0.69549235E-02 0.91863280E+02</pdfrwt>
<totfact> 0.97161929E+04</totfact>
</mgrwt>
</event>
<event>
 5    1  0.6085374E+000  0.8849554E+02  0.7546771E-02  0.1306536E+00
         -2   -1    0    0    0  501 -0.00000000000E+00  0.00000000000E+00  0.36473687861E+02  0.36473687861E+02  0.00000000000E+00 0.  1.
          2   -1    0    0  501    0  0.00000000000E+00 -0.00000000000E+00 -0.53678835588E+02  0.53678835588E+02  0.00000000000E+00 0. -1.
         23    2    1    2    0    0  0.00000000000E+00  0.00000000000E+00 -0.17205147728E+02  0.90152523449E+02  0.88495538735E+02 0.  0.
        -13    1    3    3    0    0  0.87129050328E+01  0.31088713215E+02 -0.39425367303E+02  0.50958634111E+02  0.00000000000E+00 0. -1.
         13    1    3    3    0    0 -0.87129050328E+01 -0.31088713215E+02  0.22220219575E+02  0.39193889338E+02  0.00000000000E+00 0.  1.
<mgrwt>
<rscale>  0 0.88495539E+02</rscale>
<asrwt>0</asrwt>
<pdfrwt beam="2">  1        2 0.82582823E-02 0.88495539E+02</pdfrwt>
<pdfrwt beam="1">  1       -2 0.56113366E-02 0.88495539E+02</pdfrwt>
<totfact> 0.11205029E+05</totfact>
</mgrwt>
</event>
<event>
 5    1  0.6085374E+000  0.8798462E+02  0.7546771E-02  0.1307807E+00
          2   -1    0    0  501    0  0.00000000000E+00  0.00000000000E+00  0.50443806086E+02  0.50443806086E+02  0.00000000000E+00 0. -1.
         -2   -1    0    0    0  501 -0.00000000000E+00 -0.00000000000E+00 -0.38365922088E+02  0.38365922088E+02  0.00000000000E+00 0.  1.
         23    2    1    2    0    0  0.00000000000E+00  0.00000000000E+00  0.12077883999E+02  0.88809728174E+02  0.87984615340E+02 0.  0.
        -13    1    3    3    0    0 -0.29191482368E+02  0.29301453335E+02 -0.90884417487E+01  0.42347580613E+02  0.00000000000E+00 0. -1.
         13    1    3    3    0    0  0.29191482368E+02 -0.29301453335E+02  0.21166325747E+02  0.46462147561E+02  0.00000000000E+00 0.  1.
<mgrwt>
<rscale>  0 0.87984615E+02</rscale>
<asrwt>0</asrwt>
<pdfrwt beam="1">  1        2 0.77605856E-02 0.87984615E+02</pdfrwt>
<pdfrwt beam="2">  1       -2 0.59024495E-02 0.87984615E+02</pdfrwt>
<totfact> 0.11209478E+05</totfact>
</mgrwt>
</event>
<event>
 5    1  0.6085374E+000  0.9102496E+02  0.7546771E-02  0.1300388E+00
          1   -1    0    0  501    0  0.00000000000E+00  0.00000000000E+00  0.13301058413E+03  0.13301058413E+03  0.00000000000E+00 0. -1.
         -1   -1    0    0    0  501 -0.00000000000E+00 -0.00000000000E+00 -0.15573088869E+02  0.15573088869E+02  0.00000000000E+00 0.  1.
         23    2    1    2    0    0  0.00000000000E+00  0.00000000000E+00  0.11743749526E+03  0.14858367300E+03  0.91024955856E+02 0.  0.
        -13    1    3    3    0    0  0.29902571472E+02  0.33482017703E+02  0.46484214567E+02  0.64621911873E+02  0.00000000000E+00 0. -1.
         13    1    3    3    0    0 -0.29902571472E+02 -0.33482017703E+02  0.70953280694E+02  0.83961761126E+02  0.00000000000E+00 0.  1.
<mgrwt>
<rscale>  0 0.91024956E+02</rscale>
<asrwt>0</asrwt>
<pdfrwt beam="1">  1        1 0.20463166E-01 0.91024956E+02</pdfrwt>
<pdfrwt beam="2">  1       -1 0.23958599E-02 0.91024956E+02</pdfrwt>
<totfact> 0.11021056E+05</totfact>
</mgrwt>
</event>
<event>
 5    1  0.6085374E+000  0.9227681E+02  0.7546771E-02  0.1297430E+00
          1   -1    0    0  501    0  0.00000000000E+00  0.00000000000E+00  0.10388543875E+03  0.10388543875E+03  0.00000000000E+00 0. -1.
         -1   -1    0    0    0  501 -0.00000000000E+00 -0.00000000000E+00 -0.20491347700E+02  0.20491347700E+02  0.00000000000E+00 0.  1.
         23    2    1    2    0    0  0.00000000000E+00  0.00000000000E+00  0.83394091054E+02  0.12437678646E+03  0.92276814998E+02 0.  0.
        -13    1    3    3    0    0  0.12114738785E+02 -0.44480384971E+02  0.39182235388E+02  0.60502224034E+02  0.00000000000E+00 0.  1.
         13    1    3    3    0    0 -0.12114738785E+02  0.44480384971E+02  0.44211855666E+02  0.63874562421E+02  0.00000000000E+00 0. -1.
<mgrwt>
<rscale>  0 0.92276815E+02</rscale>
<asrwt>0</asrwt>
<pdfrwt beam="1">  1        1 0.15982375E-01 0.92276815E+02</pdfrwt>
<pdfrwt beam="2">  1       -1 0.31525151E-02 0.92276815E+02</pdfrwt>
<totfact> 0.10173600E+05</totfact>
</mgrwt>
</event>
<event>
 5    1  0.6085374E+000  0.9068138E+02  0.7546771E-02  0.1301210E+00
         -2   -1    0    0    0  501 -0.00000000000E+00  0.00000000000E+00  0.17675982961E+02  0.17675982961E+02  0.00000000000E+00 0.  1.
          2   -1    0    0  501    0  0.00000000000E+00 -0.00000000000E+00 -0.11630346727E+03  0.11630346727E+03  0.00000000000E+00 0. -1.
         23    2    1    2    0    0  0.00000000000E+00  0.00000000000E+00 -0.98627484311E+02  0.13397945023E+03  0.90681378590E+02 0.  0.
        -13    1    3    3    0    0  0.43895260437E+02 -0.84298685914E+01 -0.60558240874E+02  0.75267237966E+02  0.00000000000E+00 0. -1.
         13    1    3    3    0    0 -0.43895260437E+02  0.84298685914E+01 -0.38069243437E+02  0.58712212266E+02  0.00000000000E+00 0.  1.
<mgrwt>
<rscale>  0 0.90681379E+02</rscale>
<asrwt>0</asrwt>
<pdfrwt beam="2">  1        2 0.17892841E-01 0.90681379E+02</pdfrwt>
<pdfrwt beam="1">  1       -2 0.27193820E-02 0.90681379E+02</pdfrwt>
<totfact> 0.13050544E+05</totfact>
</mgrwt>
</event>
<event>
 5    1  0.6085374E+000  0.8367265E+02  0.7546771E-02  0.1318941E+00
         -2   -1    0    0    0  501 -0.00000000000E+00  0.00000000000E+00  0.13951028668E+02  0.13951028668E+02  0.00000000000E+00 0.  1.
          2   -1    0    0  501    0  0.00000000000E+00 -0.00000000000E+00 -0.12545869977E+03  0.12545869977E+03  0.00000000000E+00 0. -1.
         23    2    1    2    0    0  0.00000000000E+00  0.00000000000E+00 -0.11150767111E+03  0.13940972844E+03  0.83672645881E+02 0.  0.
        -13    1    3    3    0    0 -0.16393751895E+02 -0.29490833496E+02 -0.14542268713E+02  0.36741556048E+02  0.00000000000E+00 0.  1.
         13    1    3    3    0    0  0.16393751895E+02  0.29490833496E+02 -0.96965402394E+02  0.10266817239E+03  0.00000000000E+00 0. -1.
<mgrwt>
<rscale>  0 0.83672646E+02</rscale>
<asrwt>0</asrwt>
<pdfrwt beam="2">  1        2 0.19301339E-01 0.83672646E+02</pdfrwt>
<pdfrwt beam="1">  1       -2 0.21463120E-02 0.83672646E+02</pdfrwt>
<totfact> 0.16630099E+05</totfact>
</mgrwt>
</event>
<event>
 5    1  0.6085374E+000  0.9448389E+02  0.7546771E-02  0.1292343E+00
          2   -1    0    0  501    0  0.00000000000E+00  0.00000000000E+00  0.58549452922E+02  0.58549452922E+02  0.00000000000E+00 0. -1.
         -2   -1    0    0    0  501 -0.00000000000E+00 -0.00000000000E+00 -0.38118231527E+02  0.38118231527E+02  0.00000000000E+00 0.  1.
         23    2    1    2    0    0  0.00000000000E+00  0.00000000000E+00  0.20431221395E+02  0.96667684449E+02  0.94483894972E+02 0.  0.
        -13    1    3    3    0    0 -0.41225425831E+02  0.12587852901E+02 -0.95654714405E+01  0.44153006913E+02  0.00000000000E+00 0.  1.
         13    1    3    3    0    0  0.41225425831E+02 -0.12587852901E+02  0.29996692836E+02  0.52514677536E+02  0.00000000000E+00 0. -1.
<mgrwt>
<rscale>  0 0.94483895E+02</rscale>
<asrwt>0</asrwt>
<pdfrwt beam="1">  1        2 0.90076081E-02 0.94483895E+02</pdfrwt>
<pdfrwt beam="2">  1       -2 0.58643433E-02 0.94483895E+02</pdfrwt>
<totfact> 0.95248414E+04</totfact>
</mgrwt>
</event>
<event>
 5    1  0.6085374E+000  0.9245296E+02  0.7546771E-02  0.1297018E+00
          1   -1    0    0  501    0  0.00000000000E+00  0.00000000000E+00  0.40752489123E+02  0.40752489123E+02  0.00000000000E+00 0. -1.
         -1   -1    0    0    0  501 -0.00000000000E+00 -0.00000000000E+00 -0.52435753175E+02  0.52435753175E+02  0.00000000000E+00 0.  1.
         23    2    1    2    0    0  0.00000000000E+00  0.00000000000E+00 -0.11683264052E+02  0.93188242297E+02  0.92452960167E+02 0.  0.
        -13    1    3    3    0    0 -0.23756205149E+02 -0.30826959556E+02 -0.30984530020E+02  0.49746354833E+02  0.00000000000E+00 0.  1.
         13    1    3    3    0    0  0.23756205149E+02  0.30826959556E+02  0.19301265968E+02  0.43441887465E+02  0.00000000000E+00 0. -1.
<mgrwt>
<rscale>  0 0.92452960E+02</rscale>
<asrwt>0</asrwt>
<pdfrwt beam="1">  1        1 0.62696137E-02 0.92452960E+02</pdfrwt>
<pdfrwt beam="2">  1       -1 0.80670389E-02 0.92452960E+02</pdfrwt>
<totfact> 0.87415884E+04</totfact>
</mgrwt>
</event>
<event>
 5    1  0.6085374E+000  0.8958624E+02  0.7546771E-02  0.1303857E+00
         -1   -1    0    0    0  501 -0.00000000000E+00  0.00000000000E+00  0.13140228257E+02  0.13140228257E+02  0.00000000000E+00 0.  1.
          1   -1    0    0  501    0  0.00000000000E+00 -0.00000000000E+00 -0.15269320589E+03  0.15269320589E+03  0.00000000000E+00 0. -1.
         23    2    1    2    0    0  0.00000000000E+00  0.00000000000E+00 -0.13955297763E+03  0.16583343414E+03  0.89586239538E+02 0.  0.
        -13    1    3    3    0    0  0.19316450428E+02  0.17354684998E+02 -0.22146660330E+01  0.26061755393E+02  0.00000000000E+00 0.  1.
         13    1    3    3    0    0 -0.19316450428E+02 -0.17354684998E+02 -0.13733831160E+03  0.13977167875E+03  0.00000000000E+00 0. -1.
<mgrwt>
<rscale>  0 0.89586240E+02</rscale>
<asrwt>0</asrwt>
<pdfrwt beam="2">  1        1 0.23491263E-01 0.89586240E+02</pdfrwt>
<pdfrwt beam="1">  1       -1 0.20215735E-02 0.89586240E+02</pdfrwt>
<totfact> 0.11795925E+05</totfact>
</mgrwt>
</event>
<event>
 5    1  0.6085374E+000  0.8882403E+02  0.7546771E-02  0.1305725E+00
         -2   -1    0    0    0  501 -0.00000000000E+00  0.00000000000E+00  0.21106008237E+03  0.21106008237E+03  0.00000000000E+00 0. -1.
          2   -1    0    0  501    0  0.00000000000E+00 -0.00000000000E+00 -0.93453348354E+01  0.93453348354E+01  0.00000000000E+00 0.  1.
         23    2    1    2    0    0  0.00000000000E+00  0.00000000000E+00  0.20171474753E+03  0.22040541720E+03  0.88824031435E+02 0.  0.
        -13    1    3    3    0    0  0.42335571945E+02 -0.34165401353E+01  0.68651720338E+02  0.80728137002E+02  0.00000000000E+00 0.  1.
         13    1    3    3    0    0 -0.42335571945E+02  0.34165401353E+01  0.13306302719E+03  0.13967728020E+03  0.00000000000E+00 0. -1.
<mgrwt>
<rscale>  0 0.88824031E+02</rscale>
<asrwt>0</asrwt>
<pdfrwt beam="2">  1        2 0.14377440E-02 0.88824031E+02</pdfrwt>
<pdfrwt beam="1">  1       -2 0.32470778E-01 0.88824031E+02</pdfrwt>
<totfact> 0.65062201E+04</totfact>
</mgrwt>
</event>
<event>
 5    1  0.6085374E+000  0.9115655E+02  0.7546771E-02  0.1300075E+00
          2   -1    0    0  501    0  0.00000000000E+00  0.00000000000E+00  0.13421376942E+02  0.13421376942E+02  0.00000000000E+00 0. -1.
         -2   -1    0    0    0  501 -0.00000000000E+00 -0.00000000000E+00 -0.15478136519E+03  0.15478136519E+03  0.00000000000E+00 0.  1.
         23    2    1    2    0    0  0.00000000000E+00  0.00000000000E+00 -0.14135998825E+03  0.16820274213E+03  0.91156547669E+02 0.  0.
        -13    1    3    3    0    0 -0.31079070031E+02 -0.30973211708E+02 -0.47920976955E+02  0.64974367791E+02  0.00000000000E+00 0. -1.
         13    1    3    3    0    0  0.31079070031E+02  0.30973211708E+02 -0.93439011293E+02  0.10322837434E+03  0.00000000000E+00 0.  1.
<mgrwt>
<rscale>  0 0.91156548E+02</rscale>
<asrwt>0</asrwt>
<pdfrwt beam="1">  1        2 0.20648270E-02 0.91156548E+02</pdfrwt>
<pdfrwt beam="2">  1       -2 0.23812520E-01 0.91156548E+02</pdfrwt>
<totfact> 0.69095178E+04</totfact>
</mgrwt>
</event>
<event>
 5    1  0.6085374E+000  0.9051017E+02  0.7546771E-02  0.1301621E+00
          1   -1    0    0  501    0  0.00000000000E+00  0.00000000000E+00  0.18678744099E+02  0.18678744099E+02  0.00000000000E+00 0. -1.
         -1   -1    0    0    0  501 -0.00000000000E+00 -0.00000000000E+00 -0.10964455544E+03  0.10964455544E+03  0.00000000000E+00 0.  1.
         23    2    1    2    0    0  0.00000000000E+00  0.00000000000E+00 -0.90965811344E+02  0.12832329954E+03  0.90510167230E+02 0.  0.
        -13    1    3    3    0    0 -0.17679095170E+02 -0.30055273504E+02 -0.86381621287E+02  0.93153928353E+02  0.00000000000E+00 0.  1.
         13    1    3    3    0    0  0.17679095170E+02  0.30055273504E+02 -0.45841900568E+01  0.35169371190E+02  0.00000000000E+00 0. -1.
<mgrwt>
<rscale>  0 0.90510167E+02</rscale>
<asrwt>0</asrwt>
<pdfrwt beam="1">  1        1 0.28736530E-02 0.90510167E+02</pdfrwt>
<pdfrwt beam="2">  1       -1 0.16868393E-01 0.90510167E+02</pdfrwt>
<totfact> 0.81485207E+04</totfact>
</mgrwt>
</event>
<event>
 5    1  0.6085374E+000  0.9827094E+02  0.7546771E-02  0.1283975E+00
         -1   -1    0    0    0  501 -0.00000000000E+00  0.00000000000E+00  0.14958098281E+03  0.14958098281E+03  0.00000000000E+00 0.  1.
          1   -1    0    0  501    0  0.00000000000E+00 -0.00000000000E+00 -0.16140382006E+02  0.16140382006E+02  0.00000000000E+00 0. -1.
         23    2    1    2    0    0  0.00000000000E+00  0.00000000000E+00  0.13344060081E+03  0.16572136482E+03  0.98270935751E+02 0.  0.
        -13    1    3    3    0    0 -0.20153438544E+02  0.25875986189E+02  0.12841862610E+03  0.13254082871E+03  0.00000000000E+00 0.  1.
         13    1    3    3    0    0  0.20153438544E+02 -0.25875986189E+02  0.50219747089E+01  0.33180536107E+02  0.00000000000E+00 0. -1.
<mgrwt>
<rscale>  0 0.98270936E+02</rscale>
<asrwt>0</asrwt>
<pdfrwt beam="2">  1        1 0.24831358E-02 0.98270936E+02</pdfrwt>
<pdfrwt beam="1">  1       -1 0.23012458E-01 0.98270936E+02</pdfrwt>
<totfact> 0.61582549E+04</totfact>
</mgrwt>
</event>
<event>
 5    1  0.6085374E+000  0.9256819E+02  0.7546771E-02  0.1296749E+00
          2   -1    0    0  501    0  0.00000000000E+00  0.00000000000E+00  0.81860046310E+01  0.81860046310E+01  0.00000000000E+00 0.  1.
         -2   -1    0    0    0  501 -0.00000000000E+00 -0.00000000000E+00 -0.26169270161E+03  0.26169270161E+03  0.00000000000E+00 0. -1.
         23    2    1    2    0    0  0.00000000000E+00  0.00000000000E+00 -0.25350669698E+03  0.26987870624E+03  0.92568194695E+02 0.  0.
        -13    1    3    3    0    0 -0.26439375798E+02  0.26687161768E+02 -0.47929554203E+02  0.60897351025E+02  0.00000000000E+00 0. -1.
         13    1    3    3    0    0  0.26439375798E+02 -0.26687161768E+02 -0.20557714277E+03  0.20898135521E+03  0.00000000000E+00 0.  1.
<mgrwt>
<rscale>  0 0.92568195E+02</rscale>
<asrwt>0</asrwt>
<pdfrwt beam="1">  1        2 0.12593853E-02 0.92568195E+02</pdfrwt>
<pdfrwt beam="2">  1       -2 0.40260418E-01 0.92568195E+02</pdfrwt>
<totfact> 0.52794170E+04</totfact>
</mgrwt>
</event>
<event>
 5    1  0.6085374E+000  0.9176944E+02  0.7546771E-02  0.1298622E+00
          1   -1    0    0  501    0  0.00000000000E+00  0.00000000000E+00  0.65019199426E+02  0.65019199426E+02  0.00000000000E+00 0. -1.
         -1   -1    0    0    0  501 -0.00000000000E+00 -0.00000000000E+00 -0.32381320216E+02  0.32381320216E+02  0.00000000000E+00 0.  1.
         23    2    1    2    0    0  0.00000000000E+00  0.00000000000E+00  0.32637879210E+02  0.97400519642E+02  0.91769439723E+02 0.  0.
        -13    1    3    3    0    0  0.44211906233E+02  0.30110507438E+01  0.28950851494E+02  0.52933079275E+02  0.00000000000E+00 0. -1.
         13    1    3    3    0    0 -0.44211906233E+02 -0.30110507438E+01  0.36870277164E+01  0.44467440366E+02  0.00000000000E+00 0.  1.
<mgrwt>
<rscale>  0 0.91769440E+02</rscale>
<asrwt>0</asrwt>
<pdfrwt beam="1">  1        1 0.10002954E-01 0.91769440E+02</pdfrwt>
<pdfrwt beam="2">  1       -1 0.49817416E-02 0.91769440E+02</pdfrwt>
<totfact> 0.95820653E+04</totfact>
</mgrwt>
</event>
<event>
 5    1  0.6085374E+000  0.9184973E+02  0.7546771E-02  0.1298433E+00
          1   -1    0    0  501    0  0.00000000000E+00  0.00000000000E+00  0.67127167292E+02  0.67127167292E+02  0.00000000000E+00 0. -1.
         -1   -1    0    0    0  501 -0.00000000000E+00 -0.00000000000E+00 -0.31419367324E+02  0.31419367324E+02  0.00000000000E+00 0.  1.
         23    2    1    2    0    0  0.00000000000E+00  0.00000000000E+00  0.35707799968E+02  0.98546534616E+02  0.91849727851E+02 0.  0.
        -13    1    3    3    0    0 -0.15455522391E+02 -0.10191165729E+02 -0.27238474544E+02  0.32934291047E+02  0.00000000000E+00 0.  1.
         13    1    3    3    0    0  0.15455522391E+02  0.10191165729E+02  0.62946274512E+02  0.65612243569E+02  0.00000000000E+00 0. -1.
<mgrwt>
<rscale>  0 0.91849728E+02</rscale>
<asrwt>0</asrwt>
<pdfrwt beam="1">  1        1 0.10327257E-01 0.91849728E+02</pdfrwt>
<pdfrwt beam="2">  1       -1 0.48337488E-02 0.91849728E+02</pdfrwt>
<totfact> 0.96058990E+04</totfact>
</mgrwt>
</event>
<event>
 5    1  0.6085374E+000  0.9214980E+02  0.7546771E-02  0.1297728E+00
         -1   -1    0    0    0  501 -0.00000000000E+00  0.00000000000E+00  0.73672981386E+01  0.73672981386E+01  0.00000000000E+00 0.  1.
          1   -1    0    0  501    0  0.00000000000E+00 -0.00000000000E+00 -0.28815129130E+03  0.28815129130E+03  0.00000000000E+00 0. -1.
         23    2    1    2    0    0  0.00000000000E+00  0.00000000000E+00 -0.28078399316E+03  0.29551858944E+03  0.92149801346E+02 0.  0.
        -13    1    3    3    0    0  0.19311261296E+02  0.35482781655E+02 -0.69335086114E+02  0.80245291284E+02  0.00000000000E+00 0.  1.
         13    1    3    3    0    0 -0.19311261296E+02 -0.35482781655E+02 -0.21144890705E+03  0.21527329815E+03  0.00000000000E+00 0. -1.
<mgrwt>
<rscale>  0 0.92149801E+02</rscale>
<asrwt>0</asrwt>
<pdfrwt beam="2">  1        1 0.44330968E-01 0.92149801E+02</pdfrwt>
<pdfrwt beam="1">  1       -1 0.11334305E-02 0.92149801E+02</pdfrwt>
<totfact> 0.12358464E+05</totfact>
</mgrwt>
</event>
<event>
 5    1  0.6085374E+000  0.7812559E+02  0.7546771E-02  0.1334456E+00
         -1   -1    0    0    0  501 -0.00000000000E+00  0.00000000000E+00  0.72856316678E+02  0.72856316678E+02  0.00000000000E+00 0.  1.
          1   -1    0    0  501    0  0.00000000000E+00 -0.00000000000E+00 -0.20943991393E+02  0.20943991393E+02  0.00000000000E+00 0. -1.
         23    2    1    2    0    0  0.00000000000E+00  0.00000000000E+00  0.51912325285E+02  0.93800308071E+02  0.78125592975E+02 0.  0.
        -13    1    3    3    0    0 -0.31948066313E+02 -0.11457401594E+02  0.49173816505E+02  0.59749604367E+02  0.00000000000E+00 0.  1.
         13    1    3    3    0    0  0.31948066313E+02  0.11457401594E+02  0.27385087798E+01  0.34050703704E+02  0.00000000000E+00 0. -1.
<mgrwt>
<rscale>  0 0.78125593E+02</rscale>
<asrwt>0</asrwt>
<pdfrwt beam="2">  1        1 0.32221526E-02 0.78125593E+02</pdfrwt>
<pdfrwt beam="1">  1       -1 0.11208664E-01 0.78125593E+02</pdfrwt>
<totfact> 0.12742434E+05</totfact>
</mgrwt>
</event>
<event>
 4    1  0.6085374E+000  0.4055244E+02  0.7546771E-02  0.1504185E+00
          4   -1    0    0  501    0  0.00000000000E+00  0.00000000000E+00  0.25755971986E+02  0.25755971986E+02  0.00000000000E+00 0. -1.
         -4   -1    0    0    0  501 -0.00000000000E+00 -0.00000000000E+00 -0.15962319721E+02  0.15962319721E+02  0.00000000000E+00 0.  1.
        -13    1    1    2    0    0 -0.17965316890E+02 -0.83150728601E+01  0.38531632235E+00  0.19800038290E+02  0.00000000000E+00 0.  1.
         13    1    1    2    0    0  0.17965316890E+02  0.83150728601E+01  0.94083359431E+01  0.21918253417E+02  0.00000000000E+00 0. -1.
<mgrwt>
<rscale>  0 0.40552438E+02</rscale>
<asrwt>0</asrwt>
<pdfrwt beam="1">  1        4 0.39624572E-02 0.40552438E+02</pdfrwt>
<pdfrwt beam="2">  1       -4 0.24557415E-02 0.40552438E+02</pdfrwt>
<totfact> 0.24700354E+05</totfact>
</mgrwt>
</event>
<event>
 5    1  0.6085374E+000  0.9227948E+02  0.7546771E-02  0.1297424E+00
         -1   -1    0    0    0  501 -0.00000000000E+00  0.00000000000E+00  0.14840038435E+02  0.14840038435E+02  0.00000000000E+00 0.  1.
          1   -1    0    0  501    0  0.00000000000E+00 -0.00000000000E+00 -0.14345485566E+03  0.14345485566E+03  0.00000000000E+00 0. -1.
         23    2    1    2    0    0  0.00000000000E+00  0.00000000000E+00 -0.12861481722E+03  0.15829489410E+03  0.92279479230E+02 0.  0.
        -13    1    3    3    0    0  0.71063201540E+00 -0.23405226660E+02  0.38900327431E+01  0.23736932986E+02  0.00000000000E+00 0.  1.
         13    1    3    3    0    0 -0.71063201540E+00  0.23405226660E+02 -0.13250484997E+03  0.13455796111E+03  0.00000000000E+00 0. -1.
<mgrwt>
<rscale>  0 0.92279479E+02</rscale>
<asrwt>0</asrwt>
<pdfrwt beam="2">  1        1 0.22069978E-01 0.92279479E+02</pdfrwt>
<pdfrwt beam="1">  1       -1 0.22830828E-02 0.92279479E+02</pdfrwt>
<totfact> 0.10766315E+05</totfact>
</mgrwt>
</event>
<event>
 5    1  0.6085374E+000  0.9074011E+02  0.7546771E-02  0.1301069E+00
          2   -1    0    0  501    0  0.00000000000E+00  0.00000000000E+00  0.45410636342E+02  0.45410636342E+02  0.00000000000E+00 0. -1.
         -2   -1    0    0    0  501 -0.00000000000E+00 -0.00000000000E+00 -0.45329508578E+02  0.45329508578E+02  0.00000000000E+00 0.  1.
         23    2    1    2    0    0  0.00000000000E+00  0.00000000000E+00  0.81127763910E-01  0.90740144920E+02  0.90740108653E+02 0.  0.
        -13    1    3    3    0    0 -0.14939817850E+02 -0.44424499535E+01 -0.42568235231E+02  0.45331977341E+02  0.00000000000E+00 0.  1.
         13    1    3    3    0    0  0.14939817850E+02  0.44424499535E+01  0.42649362995E+02  0.45408167579E+02  0.00000000000E+00 0. -1.
<mgrwt>
<rscale>  0 0.90740109E+02</rscale>
<asrwt>0</asrwt>
<pdfrwt beam="1">  1        2 0.69862518E-02 0.90740109E+02</pdfrwt>
<pdfrwt beam="2">  1       -2 0.69737705E-02 0.90740109E+02</pdfrwt>
<totfact> 0.99941477E+04</totfact>
</mgrwt>
</event>
<event>
 5    1  0.6085374E+000  0.9552566E+02  0.7546771E-02  0.1289997E+00
         -4   -1    0    0    0  501 -0.00000000000E+00  0.00000000000E+00  0.21237251877E+02  0.21237251877E+02  0.00000000000E+00 0.  1.
          4   -1    0    0  501    0  0.00000000000E+00 -0.00000000000E+00 -0.10741916198E+03  0.10741916198E+03  0.00000000000E+00 0. -1.
         23    2    1    2    0    0  0.00000000000E+00  0.00000000000E+00 -0.86181910100E+02  0.12865641385E+03  0.95525657272E+02 0.  0.
        -13    1    3    3    0    0  0.47388818301E+02 -0.89546163314E+00 -0.35147440355E+02  0.59007156473E+02  0.00000000000E+00 0. -1.
         13    1    3    3    0    0 -0.47388818301E+02  0.89546163314E+00 -0.51034469745E+02  0.69649257381E+02  0.00000000000E+00 0.  1.
<mgrwt>
<rscale>  0 0.95525657E+02</rscale>
<asrwt>0</asrwt>
<pdfrwt beam="2">  1        4 0.16526025E-01 0.95525657E+02</pdfrwt>
<pdfrwt beam="1">  1       -4 0.32672696E-02 0.95525657E+02</pdfrwt>
<totfact> 0.21848501E+04</totfact>
</mgrwt>
</event>
<event>
 5    1  0.6085374E+000  0.9094658E+02  0.7546771E-02  0.1300575E+00
         -2   -1    0    0    0  501 -0.00000000000E+00  0.00000000000E+00  0.86970630725E+01  0.86970630725E+01  0.00000000000E+00 0. -1.
          2   -1    0    0  501    0  0.00000000000E+00 -0.00000000000E+00 -0.23776072326E+03  0.23776072326E+03  0.00000000000E+00 0.  1.
         23    2    1    2    0    0  0.00000000000E+00  0.00000000000E+00 -0.22906366019E+03  0.24645778634E+03  0.90946577866E+02 0.  0.
        -13    1    3    3    0    0 -0.11774210022E+01 -0.33735207329E+02 -0.31962909563E+02  0.46487397448E+02  0.00000000000E+00 0. -1.
         13    1    3    3    0    0  0.11774210022E+01  0.33735207329E+02 -0.19710075063E+03  0.19997038889E+03  0.00000000000E+00 0.  1.
<mgrwt>
<rscale>  0 0.90946578E+02</rscale>
<asrwt>0</asrwt>
<pdfrwt beam="2">  1        2 0.36578570E-01 0.90946578E+02</pdfrwt>
<pdfrwt beam="1">  1       -2 0.13380098E-02 0.90946578E+02</pdfrwt>
<totfact> 0.16589701E+05</totfact>
</mgrwt>
</event>
<event>
 5    1  0.6085374E+000  0.9012401E+02  0.7546771E-02  0.1302552E+00
         -2   -1    0    0    0  501 -0.00000000000E+00  0.00000000000E+00  0.89030090727E+01  0.89030090727E+01  0.00000000000E+00 0. -1.
          2   -1    0    0  501    0  0.00000000000E+00 -0.00000000000E+00 -0.22807841200E+03  0.22807841200E+03  0.00000000000E+00 0.  1.
         23    2    1    2    0    0  0.00000000000E+00  0.00000000000E+00 -0.21917540293E+03  0.23698142107E+03  0.90124007264E+02 0.  0.
        -13    1    3    3    0    0 -0.10878965400E+02 -0.42157104969E+02 -0.14014099516E+03  0.14674832848E+03  0.00000000000E+00 0.  1.
         13    1    3    3    0    0  0.10878965400E+02  0.42157104969E+02 -0.79034407772E+02  0.90233092596E+02  0.00000000000E+00 0. -1.
<mgrwt>
<rscale>  0 0.90124007E+02</rscale>
<asrwt>0</asrwt>
<pdfrwt beam="2">  1        2 0.35088989E-01 0.90124007E+02</pdfrwt>
<pdfrwt beam="1">  1       -2 0.13696936E-02 0.90124007E+02</pdfrwt>
<totfact> 0.16740436E+05</totfact>
</mgrwt>
</event>
<event>
 5    1  0.6085374E+000  0.6521089E+02  0.7546771E-02  0.1377180E+00
         -2   -1    0    0    0  501 -0.00000000000E+00  0.00000000000E+00  0.13721234596E+03  0.13721234596E+03  0.00000000000E+00 0.  1.
          2   -1    0    0  501    0  0.00000000000E+00 -0.00000000000E+00 -0.77479545447E+01  0.77479545447E+01  0.00000000000E+00 0. -1.
         23    2    1    2    0    0  0.00000000000E+00  0.00000000000E+00  0.12946439141E+03  0.14496030050E+03  0.65210889257E+02 0.  0.
        -13    1    3    3    0    0  0.15277285802E+02  0.27712277070E+02  0.82200261866E+02  0.88080921956E+02  0.00000000000E+00 0.  1.
         13    1    3    3    0    0 -0.15277285802E+02 -0.27712277070E+02  0.47264129545E+02  0.56879378544E+02  0.00000000000E+00 0. -1.
<mgrwt>
<rscale>  0 0.65210889E+02</rscale>
<asrwt>0</asrwt>
<pdfrwt beam="2">  1        2 0.11919931E-02 0.65210889E+02</pdfrwt>
<pdfrwt beam="1">  1       -2 0.21109590E-01 0.65210889E+02</pdfrwt>
<totfact> 0.16737087E+05</totfact>
</mgrwt>
</event>
<event>
 5    1  0.6085374E+000  0.8970455E+02  0.7546771E-02  0.1303569E+00
         -1   -1    0    0    0  501 -0.00000000000E+00  0.00000000000E+00  0.19686409591E+02  0.19686409591E+02  0.00000000000E+00 0.  1.
          1   -1    0    0  501    0  0.00000000000E+00 -0.00000000000E+00 -0.10218859426E+03  0.10218859426E+03  0.00000000000E+00 0. -1.
         23    2    1    2    0    0  0.00000000000E+00  0.00000000000E+00 -0.82502184667E+02  0.12187500385E+03  0.89704548871E+02 0.  0.
        -13    1    3    3    0    0  0.13533036685E+01  0.26301411363E+02  0.80753097205E+01  0.27546438927E+02  0.00000000000E+00 0.  1.
         13    1    3    3    0    0 -0.13533036685E+01 -0.26301411363E+02 -0.90577494388E+02  0.94328564921E+02  0.00000000000E+00 0. -1.
<mgrwt>
<rscale>  0 0.89704549E+02</rscale>
<asrwt>0</asrwt>
<pdfrwt beam="2">  1        1 0.15721322E-01 0.89704549E+02</pdfrwt>
<pdfrwt beam="1">  1       -1 0.30286785E-02 0.89704549E+02</pdfrwt>
<totfact> 0.10957457E+05</totfact>
</mgrwt>
</event>
<event>
 5    1  0.6085374E+000  0.9223415E+02  0.7546771E-02  0.1297530E+00
         -1   -1    0    0    0  501 -0.00000000000E+00  0.00000000000E+00  0.63270898542E+01  0.63270898542E+01  0.00000000000E+00 0.  1.
          1   -1    0    0  501    0  0.00000000000E+00 -0.00000000000E+00 -0.33613946389E+03  0.33613946389E+03  0.00000000000E+00 0. -1.
         23    2    1    2    0    0  0.00000000000E+00  0.00000000000E+00 -0.32981237404E+03  0.34246655375E+03  0.92234149676E+02 0.  0.
        -13    1    3    3    0    0  0.22989412259E+02  0.39632210229E+02 -0.14541395759E+03  0.15246128763E+03  0.00000000000E+00 0.  1.
         13    1    3    3    0    0 -0.22989412259E+02 -0.39632210229E+02 -0.18439841645E+03  0.19000526612E+03  0.00000000000E+00 0. -1.
<mgrwt>
<rscale>  0 0.92234150E+02</rscale>
<asrwt>0</asrwt>
<pdfrwt beam="2">  1        1 0.51713775E-01 0.92234150E+02</pdfrwt>
<pdfrwt beam="1">  1       -1 0.97339823E-03 0.92234150E+02</pdfrwt>
<totfact> 0.12691612E+05</totfact>
</mgrwt>
</event>
<event>
 5    1  0.6085374E+000  0.9495054E+02  0.7546771E-02  0.1291288E+00
         -2   -1    0    0    0  501 -0.00000000000E+00  0.00000000000E+00  0.82056944880E+01  0.82056944880E+01  0.00000000000E+00 0.  1.
          2   -1    0    0  501    0  0.00000000000E+00 -0.00000000000E+00 -0.27467523473E+03  0.27467523473E+03  0.00000000000E+00 0. -1.
         23    2    1    2    0    0  0.00000000000E+00  0.00000000000E+00 -0.26646954024E+03  0.28288092922E+03  0.94950535746E+02 0.  0.
        -13    1    3    3    0    0  0.38954389547E+02  0.48718142935E+01 -0.53698295232E+02  0.66518312894E+02  0.00000000000E+00 0.  1.
         13    1    3    3    0    0 -0.38954389547E+02 -0.48718142935E+01 -0.21277124501E+03  0.21636261632E+03  0.00000000000E+00 0. -1.
<mgrwt>
<rscale>  0 0.94950536E+02</rscale>
<asrwt>0</asrwt>
<pdfrwt beam="2">  1        2 0.42257732E-01 0.94950536E+02</pdfrwt>
<pdfrwt beam="1">  1       -2 0.12624144E-02 0.94950536E+02</pdfrwt>
<totfact> 0.15593920E+05</totfact>
</mgrwt>
</event>
<event>
 5    1  0.6085374E+000  0.9792861E+02  0.7546771E-02  0.1284713E+00
         -2   -1    0    0    0  501 -0.00000000000E+00  0.00000000000E+00  0.68586294052E+01  0.68586294052E+01  0.00000000000E+00 0.  1.
          2   -1    0    0  501    0  0.00000000000E+00 -0.00000000000E+00 -0.34956007446E+03  0.34956007446E+03  0.00000000000E+00 0. -1.
         23    2    1    2    0    0  0.00000000000E+00  0.00000000000E+00 -0.34270144505E+03  0.35641870386E+03  0.97928606761E+02 0.  0.
        -13    1    3    3    0    0  0.53737532579E-01 -0.45410819274E+02 -0.10469997968E+03  0.11412375362E+03  0.00000000000E+00 0.  1.
         13    1    3    3    0    0 -0.53737532579E-01  0.45410819274E+02 -0.23800146537E+03  0.24229495024E+03  0.00000000000E+00 0. -1.
<mgrwt>
<rscale>  0 0.97928607E+02</rscale>
<asrwt>0</asrwt>
<pdfrwt beam="2">  1        2 0.53778472E-01 0.97928607E+02</pdfrwt>
<pdfrwt beam="1">  1       -2 0.10551738E-02 0.97928607E+02</pdfrwt>
<totfact> 0.15707098E+05</totfact>
</mgrwt>
</event>
<event>
 5    1  0.6085374E+000  0.9764052E+02  0.7546771E-02  0.1285337E+00
         -1   -1    0    0    0  501 -0.00000000000E+00  0.00000000000E+00  0.32386675498E+02  0.32386675498E+02  0.00000000000E+00 0.  1.
          1   -1    0    0  501    0  0.00000000000E+00 -0.00000000000E+00 -0.73592542441E+02  0.73592542441E+02  0.00000000000E+00 0. -1.
         23    2    1    2    0    0  0.00000000000E+00  0.00000000000E+00 -0.41205866943E+02  0.10597921794E+03  0.97640520095E+02 0.  0.
        -13    1    3    3    0    0  0.17767154623E+02 -0.44829806327E+02 -0.28871565140E+02  0.56204542453E+02  0.00000000000E+00 0. -1.
         13    1    3    3    0    0 -0.17767154623E+02  0.44829806327E+02 -0.12334301803E+02  0.49774675486E+02  0.00000000000E+00 0.  1.
<mgrwt>
<rscale>  0 0.97640520E+02</rscale>
<asrwt>0</asrwt>
<pdfrwt beam="2">  1        1 0.11321930E-01 0.97640520E+02</pdfrwt>
<pdfrwt beam="1">  1       -1 0.49825655E-02 0.97640520E+02</pdfrwt>
<totfact> 0.82259585E+04</totfact>
</mgrwt>
</event>
<event>
 5    1  0.6085374E+000  0.8640674E+02  0.7546771E-02  0.1311794E+00
         -2   -1    0    0    0  501 -0.00000000000E+00  0.00000000000E+00  0.31495478506E+02  0.31495478506E+02  0.00000000000E+00 0.  1.
          2   -1    0    0  501    0  0.00000000000E+00 -0.00000000000E+00 -0.59263457985E+02  0.59263457985E+02  0.00000000000E+00 0. -1.
         23    2    1    2    0    0  0.00000000000E+00  0.00000000000E+00 -0.27767979479E+02  0.90758936492E+02  0.86406735089E+02 0.  0.
        -13    1    3    3    0    0  0.42169153408E+01  0.16385472721E+02  0.27870842811E+02  0.32604447094E+02  0.00000000000E+00 0.  1.
         13    1    3    3    0    0 -0.42169153408E+01 -0.16385472721E+02 -0.55638822290E+02  0.58154489398E+02  0.00000000000E+00 0. -1.
<mgrwt>
<rscale>  0 0.86406735E+02</rscale>
<asrwt>0</asrwt>
<pdfrwt beam="2">  1        2 0.91174549E-02 0.86406735E+02</pdfrwt>
<pdfrwt beam="1">  1       -2 0.48454583E-02 0.86406735E+02</pdfrwt>
<totfact> 0.12292925E+05</totfact>
</mgrwt>
</event>
<event>
 5    1  0.6085374E+000  0.9087448E+02  0.7546771E-02  0.1300748E+00
          3   -1    0    0  501    0  0.00000000000E+00  0.00000000000E+00  0.25045960212E+02  0.25045960212E+02  0.00000000000E+00 0. -1.
         -3   -1    0    0    0  501 -0.00000000000E+00 -0.00000000000E+00 -0.82430161855E+02  0.82430161855E+02  0.00000000000E+00 0.  1.
         23    2    1    2    0    0  0.00000000000E+00  0.00000000000E+00 -0.57384201643E+02  0.10747612207E+03  0.90874475054E+02 0.  0.
        -13    1    3    3    0    0 -0.23749757411E+02 -0.78588132587E+01 -0.73552157483E+02  0.77689972283E+02  0.00000000000E+00 0.  1.
         13    1    3    3    0    0  0.23749757411E+02  0.78588132587E+01  0.16167955840E+02  0.29786149784E+02  0.00000000000E+00 0. -1.
<mgrwt>
<rscale>  0 0.90874475E+02</rscale>
<asrwt>0</asrwt>
<pdfrwt beam="1">  1        3 0.38532246E-02 0.90874475E+02</pdfrwt>
<pdfrwt beam="2">  1       -3 0.12681564E-01 0.90874475E+02</pdfrwt>
<totfact> 0.34436645E+04</totfact>
</mgrwt>
</event>
<event>
 5    1  0.6085374E+000  0.9227367E+02  0.7546771E-02  0.1297437E+00
         -1   -1    0    0    0  501 -0.00000000000E+00  0.00000000000E+00  0.18418620997E+02  0.18418620997E+02  0.00000000000E+00 0.  1.
          1   -1    0    0  501    0  0.00000000000E+00 -0.00000000000E+00 -0.11556822488E+03  0.11556822488E+03  0.00000000000E+00 0. -1.
         23    2    1    2    0    0  0.00000000000E+00  0.00000000000E+00 -0.97149603879E+02  0.13398684587E+03  0.92273665437E+02 0.  0.
        -13    1    3    3    0    0 -0.29135339500E+02  0.24575191162E+02 -0.10826861476E+02  0.39623590926E+02  0.00000000000E+00 0.  1.
         13    1    3    3    0    0  0.29135339500E+02 -0.24575191162E+02 -0.86322742402E+02  0.94363254947E+02  0.00000000000E+00 0. -1.
<mgrwt>
<rscale>  0 0.92273665E+02</rscale>
<asrwt>0</asrwt>
<pdfrwt beam="2">  1        1 0.17779727E-01 0.92273665E+02</pdfrwt>
<pdfrwt beam="1">  1       -1 0.28336340E-02 0.92273665E+02</pdfrwt>
<totfact> 0.10361541E+05</totfact>
</mgrwt>
</event>
<event>
 5    1  0.6085374E+000  0.9186801E+02  0.7546771E-02  0.1298390E+00
          2   -1    0    0  501    0  0.00000000000E+00  0.00000000000E+00  0.14210736408E+03  0.14210736408E+03  0.00000000000E+00 0. -1.
         -2   -1    0    0    0  501 -0.00000000000E+00 -0.00000000000E+00 -0.14847455014E+02  0.14847455014E+02  0.00000000000E+00 0.  1.
         23    2    1    2    0    0  0.00000000000E+00  0.00000000000E+00  0.12725990907E+03  0.15695481909E+03  0.91868007386E+02 0.  0.
        -13    1    3    3    0    0 -0.30812233411E+02  0.33742522299E+02  0.71640011896E+02  0.84972012118E+02  0.00000000000E+00 0.  1.
         13    1    3    3    0    0  0.30812233411E+02 -0.33742522299E+02  0.55619897170E+02  0.71982806975E+02  0.00000000000E+00 0. -1.
<mgrwt>
<rscale>  0 0.91868007E+02</rscale>
<asrwt>0</asrwt>
<pdfrwt beam="1">  1        2 0.21862671E-01 0.91868007E+02</pdfrwt>
<pdfrwt beam="2">  1       -2 0.22842239E-02 0.91868007E+02</pdfrwt>
<totfact> 0.13448540E+05</totfact>
</mgrwt>
</event>
<event>
 4    1  0.6085374E+000  0.1672162E+03  0.7546771E-02  0.1180782E+00
         -1   -1    0    0    0  501 -0.00000000000E+00  0.00000000000E+00  0.13208574856E+03  0.13208574856E+03  0.00000000000E+00 0.  1.
          1   -1    0    0  501    0  0.00000000000E+00 -0.00000000000E+00 -0.52922544020E+02  0.52922544020E+02  0.00000000000E+00 0. -1.
        -13    1    1    2    0    0 -0.64340422494E+02  0.50575948404E+01 -0.19224922786E+02  0.67341420303E+02  0.00000000000E+00 0. -1.
         13    1    1    2    0    0  0.64340422494E+02 -0.50575948404E+01  0.98388127323E+02  0.11766687227E+03  0.00000000000E+00 0.  1.
<mgrwt>
<rscale>  0 0.16721619E+03</rscale>
<asrwt>0</asrwt>
<pdfrwt beam="2">  1        1 0.81419299E-02 0.16721619E+03</pdfrwt>
<pdfrwt beam="1">  1       -1 0.20320884E-01 0.16721619E+03</pdfrwt>
<totfact> 0.15817736E+04</totfact>
</mgrwt>
</event>
<event>
 5    1  0.6085374E+000  0.9224670E+02  0.7546771E-02  0.1297500E+00
         -2   -1    0    0    0  501 -0.00000000000E+00  0.00000000000E+00  0.49487380578E+02  0.49487380578E+02  0.00000000000E+00 0.  1.
          2   -1    0    0  501    0  0.00000000000E+00 -0.00000000000E+00 -0.42987996944E+02  0.42987996944E+02  0.00000000000E+00 0. -1.
         23    2    1    2    0    0  0.00000000000E+00  0.00000000000E+00  0.64993836347E+01  0.92475377522E+02  0.92246698912E+02 0.  0.
        -13    1    3    3    0    0 -0.18608696801E+02  0.27891374850E+02  0.35000766506E+02  0.48469227801E+02  0.00000000000E+00 0.  1.
         13    1    3    3    0    0  0.18608696801E+02 -0.27891374850E+02 -0.28501382871E+02  0.44006149720E+02  0.00000000000E+00 0. -1.
<mgrwt>
<rscale>  0 0.92246699E+02</rscale>
<asrwt>0</asrwt>
<pdfrwt beam="2">  1        2 0.66135380E-02 0.92246699E+02</pdfrwt>
<pdfrwt beam="1">  1       -2 0.76134432E-02 0.92246699E+02</pdfrwt>
<totfact> 0.93964376E+04</totfact>
</mgrwt>
</event>
<event>
 5    1  0.6085374E+000  0.9120564E+02  0.7546771E-02  0.1299958E+00
          2   -1    0    0  501    0  0.00000000000E+00  0.00000000000E+00  0.10567545243E+03  0.10567545243E+03  0.00000000000E+00 0. -1.
         -2   -1    0    0    0  501 -0.00000000000E+00 -0.00000000000E+00 -0.19679283859E+02  0.19679283859E+02  0.00000000000E+00 0.  1.
         23    2    1    2    0    0  0.00000000000E+00  0.00000000000E+00  0.85996168566E+02  0.12535473628E+03  0.91205640730E+02 0.  0.
        -13    1    3    3    0    0 -0.42180077261E+02  0.16724054720E+02  0.49261016459E+02  0.66973880481E+02  0.00000000000E+00 0.  1.
         13    1    3    3    0    0  0.42180077261E+02 -0.16724054720E+02  0.36735152107E+02  0.58380855804E+02  0.00000000000E+00 0. -1.
<mgrwt>
<rscale>  0 0.91205641E+02</rscale>
<asrwt>0</asrwt>
<pdfrwt beam="1">  1        2 0.16257762E-01 0.91205641E+02</pdfrwt>
<pdfrwt beam="2">  1       -2 0.30275822E-02 0.91205641E+02</pdfrwt>
<totfact> 0.12466372E+05</totfact>
</mgrwt>
</event>
<event>
 5    1  0.6085374E+000  0.9206175E+02  0.7546771E-02  0.1297934E+00
         -3   -1    0    0    0  501 -0.00000000000E+00  0.00000000000E+00  0.94238670150E+01  0.94238670150E+01  0.00000000000E+00 0.  1.
          3   -1    0    0  501    0  0.00000000000E+00 -0.00000000000E+00 -0.22483777168E+03  0.22483777168E+03  0.00000000000E+00 0. -1.
         23    2    1    2    0    0  0.00000000000E+00  0.00000000000E+00 -0.21541390467E+03  0.23426163870E+03  0.92061745807E+02 0.  0.
        -13    1    3    3    0    0 -0.12901999274E+02 -0.32411689401E+02 -0.31289592259E+02  0.46861687750E+02  0.00000000000E+00 0.  1.
         13    1    3    3    0    0  0.12901999274E+02  0.32411689401E+02 -0.18412431241E+03  0.18739995095E+03  0.00000000000E+00 0. -1.
<mgrwt>
<rscale>  0 0.92061746E+02</rscale>
<asrwt>0</asrwt>
<pdfrwt beam="2">  1        3 0.34590427E-01 0.92061746E+02</pdfrwt>
<pdfrwt beam="1">  1       -3 0.14498257E-02 0.92061746E+02</pdfrwt>
<totfact> 0.26129206E+04</totfact>
</mgrwt>
</event>
<event>
 5    1  0.6085374E+000  0.9350087E+02  0.7546771E-02  0.1294589E+00
         -1   -1    0    0    0  501 -0.00000000000E+00  0.00000000000E+00  0.74626263954E+01  0.74626263954E+01  0.00000000000E+00 0.  1.
          1   -1    0    0  501    0  0.00000000000E+00 -0.00000000000E+00 -0.29287318352E+03  0.29287318352E+03  0.00000000000E+00 0. -1.
         23    2    1    2    0    0  0.00000000000E+00  0.00000000000E+00 -0.28541055713E+03  0.30033580992E+03  0.93500869511E+02 0.  0.
        -13    1    3    3    0    0 -0.85806282736E+01  0.44305121572E+02 -0.10349215106E+03  0.11290348228E+03  0.00000000000E+00 0.  1.
         13    1    3    3    0    0  0.85806282736E+01 -0.44305121572E+02 -0.18191840607E+03  0.18743232764E+03  0.00000000000E+00 0. -1.
<mgrwt>
<rscale>  0 0.93500870E+02</rscale>
<asrwt>0</asrwt>
<pdfrwt beam="2">  1        1 0.45057410E-01 0.93500870E+02</pdfrwt>
<pdfrwt beam="1">  1       -1 0.11480964E-02 0.93500870E+02</pdfrwt>
<totfact> 0.11924355E+05</totfact>
</mgrwt>
</event>
<event>
 5    1  0.6085374E+000  0.9129175E+02  0.7546771E-02  0.1299753E+00
          1   -1    0    0  501    0  0.00000000000E+00  0.00000000000E+00  0.20566010848E+03  0.20566010848E+03  0.00000000000E+00 0. -1.
         -1   -1    0    0    0  501 -0.00000000000E+00 -0.00000000000E+00 -0.10131015578E+02  0.10131015578E+02  0.00000000000E+00 0.  1.
         23    2    1    2    0    0  0.00000000000E+00  0.00000000000E+00  0.19552909290E+03  0.21579112406E+03  0.91291746894E+02 0.  0.
        -13    1    3    3    0    0 -0.35592007239E+02  0.24018627761E+02  0.61156104181E+02  0.74724524337E+02  0.00000000000E+00 0. -1.
         13    1    3    3    0    0  0.35592007239E+02 -0.24018627761E+02  0.13437298872E+03  0.14106659972E+03  0.00000000000E+00 0.  1.
<mgrwt>
<rscale>  0 0.91291747E+02</rscale>
<asrwt>0</asrwt>
<pdfrwt beam="1">  1        1 0.31640013E-01 0.91291747E+02</pdfrwt>
<pdfrwt beam="2">  1       -1 0.15586179E-02 0.91291747E+02</pdfrwt>
<totfact> 0.11864786E+05</totfact>
</mgrwt>
</event>
<event>
 5    1  0.6085374E+000  0.9203924E+02  0.7546771E-02  0.1297987E+00
          2   -1    0    0  501    0  0.00000000000E+00  0.00000000000E+00  0.12555989156E+02  0.12555989156E+02  0.00000000000E+00 0. -1.
         -2   -1    0    0    0  501 -0.00000000000E+00 -0.00000000000E+00 -0.16866892868E+03  0.16866892868E+03  0.00000000000E+00 0.  1.
         23    2    1    2    0    0  0.00000000000E+00  0.00000000000E+00 -0.15611293952E+03  0.18122491783E+03  0.92039235967E+02 0.  0.
        -13    1    3    3    0    0 -0.12788980352E+02 -0.26488140291E+02 -0.83688620459E+01  0.30581325126E+02  0.00000000000E+00 0. -1.
         13    1    3    3    0    0  0.12788980352E+02  0.26488140291E+02 -0.14774407747E+03  0.15064359271E+03  0.00000000000E+00 0.  1.
<mgrwt>
<rscale>  0 0.92039236E+02</rscale>
<asrwt>0</asrwt>
<pdfrwt beam="1">  1        2 0.19316906E-02 0.92039236E+02</pdfrwt>
<pdfrwt beam="2">  1       -2 0.25949066E-01 0.92039236E+02</pdfrwt>
<totfact> 0.65256880E+04</totfact>
</mgrwt>
</event>
<event>
 5    1  0.6085374E+000  0.9063769E+02  0.7546771E-02  0.1301315E+00
          3   -1    0    0  501    0  0.00000000000E+00  0.00000000000E+00  0.10502156057E+03  0.10502156057E+03  0.00000000000E+00 0. -1.
         -3   -1    0    0    0  501 -0.00000000000E+00 -0.00000000000E+00 -0.19555960878E+02  0.19555960878E+02  0.00000000000E+00 0.  1.
         23    2    1    2    0    0  0.00000000000E+00  0.00000000000E+00  0.85465599689E+02  0.12457752144E+03  0.90637685976E+02 0.  0.
        -13    1    3    3    0    0  0.29091862971E+01  0.40412147978E+02  0.70637727361E+02  0.81432755055E+02  0.00000000000E+00 0.  1.
         13    1    3    3    0    0 -0.29091862971E+01 -0.40412147978E+02  0.14827872329E+02  0.43144766390E+02  0.00000000000E+00 0. -1.
<mgrwt>
<rscale>  0 0.90637686E+02</rscale>
<asrwt>0</asrwt>
<pdfrwt beam="1">  1        3 0.16157163E-01 0.90637686E+02</pdfrwt>
<pdfrwt beam="2">  1       -3 0.30086094E-02 0.90637686E+02</pdfrwt>
<totfact> 0.33470053E+04</totfact>
</mgrwt>
</event>
<event>
 5    1  0.6085374E+000  0.9309356E+02  0.7546771E-02  0.1295529E+00
          1   -1    0    0  501    0  0.00000000000E+00  0.00000000000E+00  0.15871225203E+03  0.15871225203E+03  0.00000000000E+00 0. -1.
         -1   -1    0    0    0  501 -0.00000000000E+00 -0.00000000000E+00 -0.13651137819E+02  0.13651137819E+02  0.00000000000E+00 0.  1.
         23    2    1    2    0    0  0.00000000000E+00  0.00000000000E+00  0.14506111421E+03  0.17236338985E+03  0.93093562099E+02 0.  0.
        -13    1    3    3    0    0 -0.21815503715E+02 -0.41109264524E+02  0.70964972315E+02  0.84864097990E+02  0.00000000000E+00 0.  1.
         13    1    3    3    0    0  0.21815503715E+02  0.41109264524E+02  0.74096141897E+02  0.87499291860E+02  0.00000000000E+00 0. -1.
<mgrwt>
<rscale>  0 0.93093562E+02</rscale>
<asrwt>0</asrwt>
<pdfrwt beam="1">  1        1 0.24417268E-01 0.93093562E+02</pdfrwt>
<pdfrwt beam="2">  1       -1 0.21001752E-02 0.93093562E+02</pdfrwt>
<totfact> 0.10712061E+05</totfact>
</mgrwt>
</event>
<event>
 5    1  0.6085374E+000  0.9380042E+02  0.7546771E-02  0.1293901E+00
          3   -1    0    0  501    0  0.00000000000E+00  0.00000000000E+00  0.23049098917E+02  0.23049098917E+02  0.00000000000E+00 0. -1.
         -3   -1    0    0    0  501 -0.00000000000E+00 -0.00000000000E+00 -0.95432357120E+02  0.95432357120E+02  0.00000000000E+00 0.  1.
         23    2    1    2    0    0  0.00000000000E+00  0.00000000000E+00 -0.72383258203E+02  0.11848145604E+03  0.93800423008E+02 0.  0.
        -13    1    3    3    0    0  0.38487096712E+02 -0.26655349992E+02 -0.39734129682E+02  0.61404929428E+02  0.00000000000E+00 0.  1.
         13    1    3    3    0    0 -0.38487096712E+02  0.26655349992E+02 -0.32649128521E+02  0.57076526608E+02  0.00000000000E+00 0. -1.
<mgrwt>
<rscale>  0 0.93800423E+02</rscale>
<asrwt>0</asrwt>
<pdfrwt beam="1">  1        3 0.35460153E-02 0.93800423E+02</pdfrwt>
<pdfrwt beam="2">  1       -3 0.14681901E-01 0.93800423E+02</pdfrwt>
<totfact> 0.30871089E+04</totfact>
</mgrwt>
</event>
<event>
 5    1  0.6085374E+000  0.9185136E+02  0.7546771E-02  0.1298429E+00
         -2   -1    0    0    0  501 -0.00000000000E+00  0.00000000000E+00  0.22623860280E+03  0.22623860280E+03  0.00000000000E+00 0.  1.
          2   -1    0    0  501    0  0.00000000000E+00 -0.00000000000E+00 -0.93227589086E+01  0.93227589086E+01  0.00000000000E+00 0. -1.
         23    2    1    2    0    0  0.00000000000E+00  0.00000000000E+00  0.21691584389E+03  0.23556136171E+03  0.91851357088E+02 0.  0.
        -13    1    3    3    0    0 -0.42935139733E+02  0.32536794421E+01  0.67492184966E+02  0.80057527350E+02  0.00000000000E+00 0. -1.
         13    1    3    3    0    0  0.42935139733E+02 -0.32536794421E+01  0.14942365893E+03  0.15550383436E+03  0.00000000000E+00 0.  1.
<mgrwt>
<rscale>  0 0.91851357E+02</rscale>
<asrwt>0</asrwt>
<pdfrwt beam="2">  1        2 0.14342708E-02 0.91851357E+02</pdfrwt>
<pdfrwt beam="1">  1       -2 0.34805935E-01 0.91851357E+02</pdfrwt>
<totfact> 0.57851582E+04</totfact>
</mgrwt>
</event>
<event>
 5    1  0.6085374E+000  0.9271386E+02  0.7546771E-02  0.1296410E+00
          2   -1    0    0  501    0  0.00000000000E+00  0.00000000000E+00  0.21151625801E+03  0.21151625801E+03  0.00000000000E+00 0. -1.
         -2   -1    0    0    0  501 -0.00000000000E+00 -0.00000000000E+00 -0.10159809275E+02  0.10159809275E+02  0.00000000000E+00 0.  1.
         23    2    1    2    0    0  0.00000000000E+00  0.00000000000E+00  0.20135644874E+03  0.22167606729E+03  0.92713857432E+02 0.  0.
        -13    1    3    3    0    0 -0.33147653447E+02  0.13861951701E+02  0.30640989890E+02  0.47220661743E+02  0.00000000000E+00 0.  1.
         13    1    3    3    0    0  0.33147653447E+02 -0.13861951701E+02  0.17071545885E+03  0.17445540555E+03  0.00000000000E+00 0. -1.
<mgrwt>
<rscale>  0 0.92713857E+02</rscale>
<asrwt>0</asrwt>
<pdfrwt beam="1">  1        2 0.32540959E-01 0.92713857E+02</pdfrwt>
<pdfrwt beam="2">  1       -2 0.15630477E-02 0.92713857E+02</pdfrwt>
<totfact> 0.15090618E+05</totfact>
</mgrwt>
</event>
<event>
 5    1  0.6085374E+000  0.9180989E+02  0.7546771E-02  0.1298527E+00
          2   -1    0    0  501    0  0.00000000000E+00  0.00000000000E+00  0.67720055088E+01  0.67720055088E+01  0.00000000000E+00 0. -1.
         -2   -1    0    0    0  501 -0.00000000000E+00 -0.00000000000E+00 -0.31117281130E+03  0.31117281130E+03  0.00000000000E+00 0.  1.
         23    2    1    2    0    0  0.00000000000E+00  0.00000000000E+00 -0.30440080580E+03  0.31794481681E+03  0.91809890368E+02 0.  0.
        -13    1    3    3    0    0  0.31532539289E+02 -0.33253130431E+02 -0.14291297577E+03  0.15008061288E+03  0.00000000000E+00 0.  1.
         13    1    3    3    0    0 -0.31532539289E+02  0.33253130431E+02 -0.16148783002E+03  0.16786420394E+03  0.00000000000E+00 0. -1.
<mgrwt>
<rscale>  0 0.91809890E+02</rscale>
<asrwt>0</asrwt>
<pdfrwt beam="1">  1        2 0.10418473E-02 0.91809890E+02</pdfrwt>
<pdfrwt beam="2">  1       -2 0.47872727E-01 0.91809890E+02</pdfrwt>
<totfact> 0.49067545E+04</totfact>
</mgrwt>
</event>
<event>
 5    1  0.6085374E+000  0.8926143E+02  0.7546771E-02  0.1304650E+00
          2   -1    0    0  501    0  0.00000000000E+00  0.00000000000E+00  0.89436780794E+02  0.89436780794E+02  0.00000000000E+00 0. -1.
         -2   -1    0    0    0  501 -0.00000000000E+00 -0.00000000000E+00 -0.22271607908E+02  0.22271607908E+02  0.00000000000E+00 0.  1.
         23    2    1    2    0    0  0.00000000000E+00  0.00000000000E+00  0.67165172886E+02  0.11170838870E+03  0.89261434324E+02 0.  0.
        -13    1    3    3    0    0 -0.17375819364E+01  0.44364694347E+02  0.39270343435E+02  0.59273983913E+02  0.00000000000E+00 0. -1.
         13    1    3    3    0    0  0.17375819364E+01 -0.44364694347E+02  0.27894829451E+02  0.52434404789E+02  0.00000000000E+00 0.  1.
<mgrwt>
<rscale>  0 0.89261434E+02</rscale>
<asrwt>0</asrwt>
<pdfrwt beam="1">  1        2 0.13759505E-01 0.89261434E+02</pdfrwt>
<pdfrwt beam="2">  1       -2 0.34264013E-02 0.89261434E+02</pdfrwt>
<totfact> 0.12579507E+05</totfact>
</mgrwt>
</event>
<event>
 5    1  0.6085374E+000  0.9667433E+02  0.7546771E-02  0.1287449E+00
          1   -1    0    0  501    0  0.00000000000E+00  0.00000000000E+00  0.98636377426E+02  0.98636377426E+02  0.00000000000E+00 0. -1.
         -1   -1    0    0    0  501 -0.00000000000E+00 -0.00000000000E+00 -0.23687827542E+02  0.23687827542E+02  0.00000000000E+00 0.  1.
         23    2    1    2    0    0  0.00000000000E+00  0.00000000000E+00  0.74948549884E+02  0.12232420497E+03  0.96674329536E+02 0.  0.
        -13    1    3    3    0    0  0.20246986493E+02  0.43891246387E+02  0.37075093595E+02  0.60917522410E+02  0.00000000000E+00 0.  1.
         13    1    3    3    0    0 -0.20246986493E+02 -0.43891246387E+02  0.37873456289E+02  0.61406682558E+02  0.00000000000E+00 0. -1.
<mgrwt>
<rscale>  0 0.96674330E+02</rscale>
<asrwt>0</asrwt>
<pdfrwt beam="1">  1        1 0.15174827E-01 0.96674330E+02</pdfrwt>
<pdfrwt beam="2">  1       -1 0.36442812E-02 0.96674330E+02</pdfrwt>
<totfact> 0.88769561E+04</totfact>
</mgrwt>
</event>
<event>
 5    1  0.6085374E+000  0.9249740E+02  0.7546771E-02  0.1296914E+00
          3   -1    0    0  501    0  0.00000000000E+00  0.00000000000E+00  0.35202078295E+02  0.35202078295E+02  0.00000000000E+00 0. -1.
         -3   -1    0    0    0  501 -0.00000000000E+00 -0.00000000000E+00 -0.60761812131E+02  0.60761812131E+02  0.00000000000E+00 0.  1.
         23    2    1    2    0    0  0.00000000000E+00  0.00000000000E+00 -0.25559733836E+02  0.95963890426E+02  0.92497396028E+02 0.  0.
        -13    1    3    3    0    0 -0.34662299185E+02  0.28217820498E+01  0.18850491853E+02  0.39557281022E+02  0.00000000000E+00 0. -1.
         13    1    3    3    0    0  0.34662299185E+02 -0.28217820498E+01 -0.44410225689E+02  0.56406609404E+02  0.00000000000E+00 0.  1.
<mgrwt>
<rscale>  0 0.92497396E+02</rscale>
<asrwt>0</asrwt>
<pdfrwt beam="1">  1        3 0.54157045E-02 0.92497396E+02</pdfrwt>
<pdfrwt beam="2">  1       -3 0.93479709E-02 0.92497396E+02</pdfrwt>
<totfact> 0.33628192E+04</totfact>
</mgrwt>
</event>
<event>
 5    1  0.6085374E+000  0.9099887E+02  0.7546771E-02  0.1300451E+00
         -1   -1    0    0    0  501 -0.00000000000E+00  0.00000000000E+00  0.14496517087E+03  0.14496517087E+03  0.00000000000E+00 0.  1.
          1   -1    0    0  501    0  0.00000000000E+00 -0.00000000000E+00 -0.14280661330E+02  0.14280661330E+02  0.00000000000E+00 0. -1.
         23    2    1    2    0    0  0.00000000000E+00  0.00000000000E+00  0.13068450954E+03  0.15924583220E+03  0.90998868340E+02 0.  0.
        -13    1    3    3    0    0  0.20389118129E+02  0.40500776137E+02  0.58754924972E+02  0.74217048003E+02  0.00000000000E+00 0. -1.
         13    1    3    3    0    0 -0.20389118129E+02 -0.40500776137E+02  0.71929584571E+02  0.85028784199E+02  0.00000000000E+00 0.  1.
<mgrwt>
<rscale>  0 0.90998868E+02</rscale>
<asrwt>0</asrwt>
<pdfrwt beam="2">  1        1 0.21970249E-02 0.90998868E+02</pdfrwt>
<pdfrwt beam="1">  1       -1 0.22302333E-01 0.90998868E+02</pdfrwt>
<totfact> 0.75765527E+04</totfact>
</mgrwt>
</event>
<event>
 5    1  0.6085374E+000  0.9304778E+02  0.7546771E-02  0.1295634E+00
         -1   -1    0    0    0  501 -0.00000000000E+00  0.00000000000E+00  0.12076916798E+02  0.12076916798E+02  0.00000000000E+00 0.  1.
          1   -1    0    0  501    0  0.00000000000E+00 -0.00000000000E+00 -0.17922392545E+03  0.17922392545E+03  0.00000000000E+00 0. -1.
         23    2    1    2    0    0  0.00000000000E+00  0.00000000000E+00 -0.16714700865E+03  0.19130084225E+03  0.93047782044E+02 0.  0.
        -13    1    3    3    0    0 -0.25536602110E+01  0.37771354817E+02 -0.27976483555E+02  0.47073135197E+02  0.00000000000E+00 0.  1.
         13    1    3    3    0    0  0.25536602110E+01 -0.37771354817E+02 -0.13917052510E+03  0.14422770705E+03  0.00000000000E+00 0. -1.
<mgrwt>
<rscale>  0 0.93047782E+02</rscale>
<asrwt>0</asrwt>
<pdfrwt beam="2">  1        1 0.27572911E-01 0.93047782E+02</pdfrwt>
<pdfrwt beam="1">  1       -1 0.18579872E-02 0.93047782E+02</pdfrwt>
<totfact> 0.10976015E+05</totfact>
</mgrwt>
</event>
<event>
 5    1  0.6085374E+000  0.9120040E+02  0.7546771E-02  0.1299971E+00
         -3   -1    0    0    0  501 -0.00000000000E+00  0.00000000000E+00  0.24821905776E+02  0.24821905776E+02  0.00000000000E+00 0.  1.
          3   -1    0    0  501    0  0.00000000000E+00 -0.00000000000E+00 -0.83771907431E+02  0.83771907431E+02  0.00000000000E+00 0. -1.
         23    2    1    2    0    0  0.00000000000E+00  0.00000000000E+00 -0.58950001656E+02  0.10859381321E+03  0.91200403353E+02 0.  0.
        -13    1    3    3    0    0 -0.25663606028E+02 -0.24622517868E+02 -0.63457164290E+02  0.72744077148E+02  0.00000000000E+00 0. -1.
         13    1    3    3    0    0  0.25663606028E+02  0.24622517868E+02  0.45071626341E+01  0.35849736059E+02  0.00000000000E+00 0.  1.
<mgrwt>
<rscale>  0 0.91200403E+02</rscale>
<asrwt>0</asrwt>
<pdfrwt beam="2">  1        3 0.12887986E-01 0.91200403E+02</pdfrwt>
<pdfrwt beam="1">  1       -3 0.38187547E-02 0.91200403E+02</pdfrwt>
<totfact> 0.34021386E+04</totfact>
</mgrwt>
</event>
<event>
 5    1  0.6085374E+000  0.9240348E+02  0.7546771E-02  0.1297134E+00
          2   -1    0    0  501    0  0.00000000000E+00  0.00000000000E+00  0.67700303030E+02  0.67700303030E+02  0.00000000000E+00 0. -1.
         -2   -1    0    0    0  501 -0.00000000000E+00 -0.00000000000E+00 -0.31530148687E+02  0.31530148687E+02  0.00000000000E+00 0.  1.
         23    2    1    2    0    0  0.00000000000E+00  0.00000000000E+00  0.36170154343E+02  0.99230451717E+02  0.92403476572E+02 0.  0.
        -13    1    3    3    0    0  0.33786395817E-01  0.45155134663E+02  0.75844365744E+01  0.45787673081E+02  0.00000000000E+00 0.  1.
         13    1    3    3    0    0 -0.33786395817E-01 -0.45155134663E+02  0.28585717768E+02  0.53442778636E+02  0.00000000000E+00 0. -1.
<mgrwt>
<rscale>  0 0.92403477E+02</rscale>
<asrwt>0</asrwt>
<pdfrwt beam="1">  1        2 0.10415431E-01 0.92403477E+02</pdfrwt>
<pdfrwt beam="2">  1       -2 0.48507921E-02 0.92403477E+02</pdfrwt>
<totfact> 0.10556722E+05</totfact>
</mgrwt>
</event>
<event>
 5    1  0.6085374E+000  0.9124844E+02  0.7546771E-02  0.1299856E+00
         -1   -1    0    0    0  501 -0.00000000000E+00  0.00000000000E+00  0.16739118474E+03  0.16739118474E+03  0.00000000000E+00 0.  1.
          1   -1    0    0  501    0  0.00000000000E+00 -0.00000000000E+00 -0.12435360139E+02  0.12435360139E+02  0.00000000000E+00 0. -1.
         23    2    1    2    0    0  0.00000000000E+00  0.00000000000E+00  0.15495582460E+03  0.17982654488E+03  0.91248444727E+02 0.  0.
        -13    1    3    3    0    0 -0.39616883391E+02  0.17055374403E+02  0.10678735491E+03  0.11516910356E+03  0.00000000000E+00 0. -1.
         13    1    3    3    0    0  0.39616883391E+02 -0.17055374403E+02  0.48168469691E+02  0.64657441320E+02  0.00000000000E+00 0.  1.
<mgrwt>
<rscale>  0 0.91248445E+02</rscale>
<asrwt>0</asrwt>
<pdfrwt beam="2">  1        1 0.19131324E-02 0.91248445E+02</pdfrwt>
<pdfrwt beam="1">  1       -1 0.25752488E-01 0.91248445E+02</pdfrwt>
<totfact> 0.72674308E+04</totfact>
</mgrwt>
</event>
<event>
 5    1  0.6085374E+000  0.8836440E+02  0.7546771E-02  0.1306862E+00
         -2   -1    0    0    0  501 -0.00000000000E+00  0.00000000000E+00  0.83002735453E+02  0.83002735453E+02  0.00000000000E+00 0.  1.
          2   -1    0    0  501    0  0.00000000000E+00 -0.00000000000E+00 -0.23518101916E+02  0.23518101916E+02  0.00000000000E+00 0. -1.
         23    2    1    2    0    0  0.00000000000E+00  0.00000000000E+00  0.59484633537E+02  0.10652083737E+03  0.88364399883E+02 0.  0.
        -13    1    3    3    0    0 -0.79796997762E+01  0.32582789438E+02  0.64403639599E+02  0.72616407028E+02  0.00000000000E+00 0. -1.
         13    1    3    3    0    0  0.79796997762E+01 -0.32582789438E+02 -0.49190060619E+01  0.33904430340E+02  0.00000000000E+00 0.  1.
<mgrwt>
<rscale>  0 0.88364400E+02</rscale>
<asrwt>0</asrwt>
<pdfrwt beam="2">  1        2 0.36181696E-02 0.88364400E+02</pdfrwt>
<pdfrwt beam="1">  1       -2 0.12769651E-01 0.88364400E+02</pdfrwt>
<totfact> 0.90964782E+04</totfact>
</mgrwt>
</event>
<event>
 5    1  0.6085374E+000  0.9150261E+02  0.7546771E-02  0.1299253E+00
          3   -1    0    0  501    0  0.00000000000E+00  0.00000000000E+00  0.48691588807E+02  0.48691588807E+02  0.00000000000E+00 0. -1.
         -3   -1    0    0    0  501 -0.00000000000E+00 -0.00000000000E+00 -0.42988569976E+02  0.42988569976E+02  0.00000000000E+00 0.  1.
         23    2    1    2    0    0  0.00000000000E+00  0.00000000000E+00  0.57030188308E+01  0.91680158782E+02  0.91502607015E+02 0.  0.
        -13    1    3    3    0    0  0.28399164717E+02 -0.23444344086E+02  0.30052520367E+02  0.47532134463E+02  0.00000000000E+00 0. -1.
         13    1    3    3    0    0 -0.28399164717E+02  0.23444344086E+02 -0.24349501536E+02  0.44148024319E+02  0.00000000000E+00 0.  1.
<mgrwt>
<rscale>  0 0.91502607E+02</rscale>
<asrwt>0</asrwt>
<pdfrwt beam="1">  1        3 0.74910136E-02 0.91502607E+02</pdfrwt>
<pdfrwt beam="2">  1       -3 0.66136262E-02 0.91502607E+02</pdfrwt>
<totfact> 0.34957879E+04</totfact>
</mgrwt>
</event>
<event>
 5    1  0.6085374E+000  0.9242133E+02  0.7546771E-02  0.1297092E+00
         -1   -1    0    0    0  501 -0.00000000000E+00  0.00000000000E+00  0.34546807644E+03  0.34546807644E+03  0.00000000000E+00 0.  1.
          1   -1    0    0  501    0  0.00000000000E+00 -0.00000000000E+00 -0.61812535148E+01  0.61812535148E+01  0.00000000000E+00 0. -1.
         23    2    1    2    0    0  0.00000000000E+00  0.00000000000E+00  0.33928682292E+03  0.35164932995E+03  0.92421334372E+02 0.  0.
        -13    1    3    3    0    0  0.38187213152E+02 -0.21128901742E+02  0.22743857515E+03  0.23158799452E+03  0.00000000000E+00 0.  1.
         13    1    3    3    0    0 -0.38187213152E+02  0.21128901742E+02  0.11184824777E+03  0.12006133543E+03  0.00000000000E+00 0. -1.
<mgrwt>
<rscale>  0 0.92421334E+02</rscale>
<asrwt>0</asrwt>
<pdfrwt beam="2">  1        1 0.95096235E-03 0.92421334E+02</pdfrwt>
<pdfrwt beam="1">  1       -1 0.53148920E-01 0.92421334E+02</pdfrwt>
<totfact> 0.55124319E+04</totfact>
</mgrwt>
</event>
<event>
 5    1  0.6085374E+000  0.9270248E+02  0.7546771E-02  0.1296436E+00
         -2   -1    0    0    0  501 -0.00000000000E+00  0.00000000000E+00  0.80980425135E+02  0.80980425135E+02  0.00000000000E+00 0.  1.
          2   -1    0    0  501    0  0.00000000000E+00 -0.00000000000E+00 -0.26530330279E+02  0.26530330279E+02  0.00000000000E+00 0. -1.
         23    2    1    2    0    0  0.00000000000E+00  0.00000000000E+00  0.54450094856E+02  0.10751075541E+03  0.92702479469E+02 0.  0.
        -13    1    3    3    0    0  0.25680692718E+02  0.21772624015E+02 -0.97212174794E+01  0.35043504452E+02  0.00000000000E+00 0. -1.
         13    1    3    3    0    0 -0.25680692718E+02 -0.21772624015E+02  0.64171312335E+02  0.72467250961E+02  0.00000000000E+00 0.  1.
<mgrwt>
<rscale>  0 0.92702479E+02</rscale>
<asrwt>0</asrwt>
<pdfrwt beam="2">  1        2 0.40815893E-02 0.92702479E+02</pdfrwt>
<pdfrwt beam="1">  1       -2 0.12458527E-01 0.92702479E+02</pdfrwt>
<totfact> 0.81400181E+04</totfact>
</mgrwt>
</event>
<event>
 5    1  0.6085374E+000  0.9121357E+02  0.7546771E-02  0.1299939E+00
         -2   -1    0    0    0  501 -0.00000000000E+00  0.00000000000E+00  0.74100213168E+01  0.74100213168E+01  0.00000000000E+00 0.  1.
          2   -1    0    0  501    0  0.00000000000E+00 -0.00000000000E+00 -0.28069807107E+03  0.28069807107E+03  0.00000000000E+00 0. -1.
         23    2    1    2    0    0  0.00000000000E+00  0.00000000000E+00 -0.27328804975E+03  0.28810809239E+03  0.91213566759E+02 0.  0.
        -13    1    3    3    0    0  0.35339011582E+02 -0.28775751750E+02 -0.13109253794E+03  0.13878812316E+03  0.00000000000E+00 0.  1.
         13    1    3    3    0    0 -0.35339011582E+02  0.28775751750E+02 -0.14219551182E+03  0.14931996922E+03  0.00000000000E+00 0. -1.
<mgrwt>
<rscale>  0 0.91213567E+02</rscale>
<asrwt>0</asrwt>
<pdfrwt beam="2">  1        2 0.43184323E-01 0.91213567E+02</pdfrwt>
<pdfrwt beam="1">  1       -2 0.11400032E-02 0.91213567E+02</pdfrwt>
<totfact> 0.17507124E+05</totfact>
</mgrwt>
</event>
<event>
 5    1  0.6085374E+000  0.8972439E+02  0.7546771E-02  0.1303520E+00
          1   -1    0    0  501    0  0.00000000000E+00  0.00000000000E+00  0.74932005309E+02  0.74932005309E+02  0.00000000000E+00 0. -1.
         -1   -1    0    0    0  501 -0.00000000000E+00 -0.00000000000E+00 -0.26859240205E+02  0.26859240205E+02  0.00000000000E+00 0.  1.
         23    2    1    2    0    0  0.00000000000E+00  0.00000000000E+00  0.48072765104E+02  0.10179124551E+03  0.89724394222E+02 0.  0.
        -13    1    3    3    0    0 -0.19564623421E+02 -0.39439886208E+02  0.14254910737E+02  0.46276144976E+02  0.00000000000E+00 0. -1.
         13    1    3    3    0    0  0.19564623421E+02  0.39439886208E+02  0.33817854367E+02  0.55515100538E+02  0.00000000000E+00 0.  1.
<mgrwt>
<rscale>  0 0.89724394E+02</rscale>
<asrwt>0</asrwt>
<pdfrwt beam="1">  1        1 0.11528001E-01 0.89724394E+02</pdfrwt>
<pdfrwt beam="2">  1       -1 0.41321908E-02 0.89724394E+02</pdfrwt>
<totfact> 0.10421006E+05</totfact>
</mgrwt>
</event>
<event>
 5    1  0.6085374E+000  0.7789396E+02  0.7546771E-02  0.1335137E+00
         -1   -1    0    0    0  501 -0.00000000000E+00  0.00000000000E+00  0.97728201927E+02  0.97728201927E+02  0.00000000000E+00 0.  1.
          1   -1    0    0  501    0  0.00000000000E+00 -0.00000000000E+00 -0.15521284939E+02  0.15521284939E+02  0.00000000000E+00 0. -1.
         23    2    1    2    0    0  0.00000000000E+00  0.00000000000E+00  0.82206916988E+02  0.11324948687E+03  0.77893960450E+02 0.  0.
        -13    1    3    3    0    0  0.17335486326E+02 -0.34691574379E+02  0.35893153380E+02  0.52842623691E+02  0.00000000000E+00 0.  1.
         13    1    3    3    0    0 -0.17335486326E+02  0.34691574379E+02  0.46313763609E+02  0.60406863175E+02  0.00000000000E+00 0. -1.
<mgrwt>
<rscale>  0 0.77893960E+02</rscale>
<asrwt>0</asrwt>
<pdfrwt beam="2">  1        1 0.23878901E-02 0.77893960E+02</pdfrwt>
<pdfrwt beam="1">  1       -1 0.15035108E-01 0.77893960E+02</pdfrwt>
<totfact> 0.12237649E+05</totfact>
</mgrwt>
</event>
<event>
 5    1  0.6085374E+000  0.9629492E+02  0.7546771E-02  0.1288286E+00
          1   -1    0    0  501    0  0.00000000000E+00  0.00000000000E+00  0.77676697091E+02  0.77676697091E+02  0.00000000000E+00 0. -1.
         -1   -1    0    0    0  501 -0.00000000000E+00 -0.00000000000E+00 -0.29843928749E+02  0.29843928749E+02  0.00000000000E+00 0.  1.
         23    2    1    2    0    0  0.00000000000E+00  0.00000000000E+00  0.47832768342E+02  0.10752062584E+03  0.96294918109E+02 0.  0.
        -13    1    3    3    0    0  0.22491474810E+02  0.14262711843E+02  0.68703295107E+02  0.73684694115E+02  0.00000000000E+00 0. -1.
         13    1    3    3    0    0 -0.22491474810E+02 -0.14262711843E+02 -0.20870526765E+02  0.33835931725E+02  0.00000000000E+00 0.  1.
<mgrwt>
<rscale>  0 0.96294918E+02</rscale>
<asrwt>0</asrwt>
<pdfrwt beam="1">  1        1 0.11950261E-01 0.96294918E+02</pdfrwt>
<pdfrwt beam="2">  1       -1 0.45913737E-02 0.96294918E+02</pdfrwt>
<totfact> 0.86243742E+04</totfact>
</mgrwt>
</event>
<event>
 5    1  0.6085374E+000  0.9065311E+02  0.7546771E-02  0.1301278E+00
         -2   -1    0    0    0  501 -0.00000000000E+00  0.00000000000E+00  0.67903559821E+02  0.67903559821E+02  0.00000000000E+00 0.  1.
          2   -1    0    0  501    0  0.00000000000E+00 -0.00000000000E+00 -0.30256094282E+02  0.30256094282E+02  0.00000000000E+00 0. -1.
         23    2    1    2    0    0  0.00000000000E+00  0.00000000000E+00  0.37647465539E+02  0.98159654103E+02  0.90653108232E+02 0.  0.
        -13    1    3    3    0    0  0.19910723108E+02 -0.39815566239E+02  0.95861735442E+01  0.45536918351E+02  0.00000000000E+00 0. -1.
         13    1    3    3    0    0 -0.19910723108E+02  0.39815566239E+02  0.28061291994E+02  0.52622735752E+02  0.00000000000E+00 0.  1.
<mgrwt>
<rscale>  0 0.90653108E+02</rscale>
<asrwt>0</asrwt>
<pdfrwt beam="2">  1        2 0.46547838E-02 0.90653108E+02</pdfrwt>
<pdfrwt beam="1">  1       -2 0.10446701E-01 0.90653108E+02</pdfrwt>
<totfact> 0.90192826E+04</totfact>
</mgrwt>
</event>
<event>
 5    1  0.6085374E+000  0.9114442E+02  0.7546771E-02  0.1300104E+00
          1   -1    0    0  501    0  0.00000000000E+00  0.00000000000E+00  0.18541735498E+02  0.18541735498E+02  0.00000000000E+00 0. -1.
         -1   -1    0    0    0  501 -0.00000000000E+00 -0.00000000000E+00 -0.11200818709E+03  0.11200818709E+03  0.00000000000E+00 0.  1.
         23    2    1    2    0    0  0.00000000000E+00  0.00000000000E+00 -0.93466451590E+02  0.13054992259E+03  0.91144416804E+02 0.  0.
        -13    1    3    3    0    0 -0.24094193720E+02  0.58256522002E+01 -0.10150708849E+03  0.10448998712E+03  0.00000000000E+00 0.  1.
         13    1    3    3    0    0  0.24094193720E+02 -0.58256522002E+01  0.80406369033E+01  0.26059935464E+02  0.00000000000E+00 0. -1.
<mgrwt>
<rscale>  0 0.91144417E+02</rscale>
<asrwt>0</asrwt>
<pdfrwt beam="1">  1        1 0.28525747E-02 0.91144417E+02</pdfrwt>
<pdfrwt beam="2">  1       -1 0.17232028E-01 0.91144417E+02</pdfrwt>
<totfact> 0.79697650E+04</totfact>
</mgrwt>
</event>
<event>
 5    1  0.6085374E+000  0.9146548E+02  0.7546771E-02  0.1299341E+00
          3   -1    0    0  501    0  0.00000000000E+00  0.00000000000E+00  0.19164633832E+02  0.19164633832E+02  0.00000000000E+00 0. -1.
         -3   -1    0    0    0  501 -0.00000000000E+00 -0.00000000000E+00 -0.10913245034E+03  0.10913245034E+03  0.00000000000E+00 0.  1.
         23    2    1    2    0    0  0.00000000000E+00  0.00000000000E+00 -0.89967816511E+02  0.12829708418E+03  0.91465478735E+02 0.  0.
        -13    1    3    3    0    0 -0.45436560948E+02  0.47319341278E+01 -0.41971834870E+02  0.62036337688E+02  0.00000000000E+00 0. -1.
         13    1    3    3    0    0  0.45436560948E+02 -0.47319341278E+01 -0.47995981641E+02  0.66260746487E+02  0.00000000000E+00 0.  1.
<mgrwt>
<rscale>  0 0.91465479E+02</rscale>
<asrwt>0</asrwt>
<pdfrwt beam="1">  1        3 0.29484053E-02 0.91465479E+02</pdfrwt>
<pdfrwt beam="2">  1       -3 0.16789607E-01 0.91465479E+02</pdfrwt>
<totfact> 0.32410188E+04</totfact>
</mgrwt>
</event>
<event>
 5    1  0.6085374E+000  0.9528055E+02  0.7546771E-02  0.1290545E+00
          1   -1    0    0  501    0  0.00000000000E+00  0.00000000000E+00  0.13351031032E+02  0.13351031032E+02  0.00000000000E+00 0. -1.
         -1   -1    0    0    0  501 -0.00000000000E+00 -0.00000000000E+00 -0.16999405527E+03  0.16999405527E+03  0.00000000000E+00 0.  1.
         23    2    1    2    0    0  0.00000000000E+00  0.00000000000E+00 -0.15664302423E+03  0.18334508630E+03  0.95280552206E+02 0.  0.
        -13    1    3    3    0    0 -0.23807319363E+02  0.25540783128E+02 -0.15954053739E+02  0.38388173814E+02  0.00000000000E+00 0. -1.
         13    1    3    3    0    0  0.23807319363E+02 -0.25540783128E+02 -0.14068897050E+03  0.14495691249E+03  0.00000000000E+00 0.  1.
<mgrwt>
<rscale>  0 0.95280552E+02</rscale>
<asrwt>0</asrwt>
<pdfrwt beam="1">  1        1 0.20540048E-02 0.95280552E+02</pdfrwt>
<pdfrwt beam="2">  1       -1 0.26152931E-01 0.95280552E+02</pdfrwt>
<totfact> 0.64678986E+04</totfact>
</mgrwt>
</event>
<event>
 5    1  0.6085374E+000  0.9214658E+02  0.7546771E-02  0.1297735E+00
         -3   -1    0    0    0  501 -0.00000000000E+00  0.00000000000E+00  0.37317528838E+03  0.37317528838E+03  0.00000000000E+00 0.  1.
          3   -1    0    0  501    0  0.00000000000E+00 -0.00000000000E+00 -0.56883407636E+01  0.56883407636E+01  0.00000000000E+00 0. -1.
         23    2    1    2    0    0  0.00000000000E+00  0.00000000000E+00  0.36748694762E+03  0.37886362915E+03  0.92146583331E+02 0.  0.
        -13    1    3    3    0    0  0.14094372390E+02 -0.42442354154E+02  0.13819195799E+03  0.14524813945E+03  0.00000000000E+00 0.  1.
         13    1    3    3    0    0 -0.14094372390E+02  0.42442354154E+02  0.22929498963E+03  0.23361548970E+03  0.00000000000E+00 0. -1.
<mgrwt>
<rscale>  0 0.92146583E+02</rscale>
<asrwt>0</asrwt>
<pdfrwt beam="2">  1        3 0.87512964E-03 0.92146583E+02</pdfrwt>
<pdfrwt beam="1">  1       -3 0.57411564E-01 0.92146583E+02</pdfrwt>
<totfact> 0.20661240E+04</totfact>
</mgrwt>
</event>
<event>
 5    1  0.6085374E+000  0.9179909E+02  0.7546771E-02  0.1298553E+00
          3   -1    0    0  501    0  0.00000000000E+00  0.00000000000E+00  0.13007324018E+02  0.13007324018E+02  0.00000000000E+00 0. -1.
         -3   -1    0    0    0  501 -0.00000000000E+00 -0.00000000000E+00 -0.16196784930E+03  0.16196784930E+03  0.00000000000E+00 0.  1.
         23    2    1    2    0    0  0.00000000000E+00  0.00000000000E+00 -0.14896052528E+03  0.17497517332E+03  0.91799091420E+02 0.  0.
        -13    1    3    3    0    0 -0.35702963960E+02 -0.14758889231E+02 -0.12172003007E+03  0.12770392385E+03  0.00000000000E+00 0.  1.
         13    1    3    3    0    0  0.35702963960E+02  0.14758889231E+02 -0.27240495216E+02  0.47271249470E+02  0.00000000000E+00 0. -1.
<mgrwt>
<rscale>  0 0.91799091E+02</rscale>
<asrwt>0</asrwt>
<pdfrwt beam="1">  1        3 0.20011267E-02 0.91799091E+02</pdfrwt>
<pdfrwt beam="2">  1       -3 0.24918131E-01 0.91799091E+02</pdfrwt>
<totfact> 0.29300824E+04</totfact>
</mgrwt>
</event>
<event>
 5    1  0.6085374E+000  0.9081437E+02  0.7546771E-02  0.1300891E+00
          4   -1    0    0  501    0  0.00000000000E+00  0.00000000000E+00  0.37981035844E+02  0.37981035844E+02  0.00000000000E+00 0. -1.
         -4   -1    0    0    0  501 -0.00000000000E+00 -0.00000000000E+00 -0.54285308920E+02  0.54285308920E+02  0.00000000000E+00 0.  1.
         23    2    1    2    0    0  0.00000000000E+00  0.00000000000E+00 -0.16304273076E+02  0.92266344764E+02  0.90814365909E+02 0.  0.
        -13    1    3    3    0    0 -0.16630789082E+02  0.94809662104E+01 -0.49984963717E+02  0.53525400172E+02  0.00000000000E+00 0.  1.
         13    1    3    3    0    0  0.16630789082E+02 -0.94809662104E+01  0.33680690641E+02  0.38740944591E+02  0.00000000000E+00 0. -1.
<mgrwt>
<rscale>  0 0.90814366E+02</rscale>
<asrwt>0</asrwt>
<pdfrwt beam="1">  1        4 0.58432363E-02 0.90814366E+02</pdfrwt>
<pdfrwt beam="2">  1       -4 0.83515860E-02 0.90814366E+02</pdfrwt>
<totfact> 0.27239115E+04</totfact>
</mgrwt>
</event>
<event>
 5    1  0.6085374E+000  0.8744004E+02  0.7546771E-02  0.1309172E+00
         -1   -1    0    0    0  501 -0.00000000000E+00  0.00000000000E+00  0.29061634352E+02  0.29061634352E+02  0.00000000000E+00 0.  1.
          1   -1    0    0  501    0  0.00000000000E+00 -0.00000000000E+00 -0.65771945505E+02  0.65771945505E+02  0.00000000000E+00 0. -1.
         23    2    1    2    0    0  0.00000000000E+00  0.00000000000E+00 -0.36710311154E+02  0.94833579857E+02  0.87440041877E+02 0.  0.
        -13    1    3    3    0    0 -0.43135128643E+02  0.67938078863E+01 -0.16017672406E+02  0.46511944465E+02  0.00000000000E+00 0.  1.
         13    1    3    3    0    0  0.43135128643E+02 -0.67938078863E+01 -0.20692638748E+02  0.48321635392E+02  0.00000000000E+00 0. -1.
<mgrwt>
<rscale>  0 0.87440042E+02</rscale>
<asrwt>0</asrwt>
<pdfrwt beam="2">  1        1 0.10118761E-01 0.87440042E+02</pdfrwt>
<pdfrwt beam="1">  1       -1 0.44710207E-02 0.87440042E+02</pdfrwt>
<totfact> 0.10966209E+05</totfact>
</mgrwt>
</event>
<event>
 5    1  0.6085374E+000  0.9099256E+02  0.7546771E-02  0.1300466E+00
         -3   -1    0    0    0  501 -0.00000000000E+00  0.00000000000E+00  0.97255214989E+02  0.97255214989E+02  0.00000000000E+00 0.  1.
          3   -1    0    0  501    0  0.00000000000E+00 -0.00000000000E+00 -0.21283294656E+02  0.21283294656E+02  0.00000000000E+00 0. -1.
         23    2    1    2    0    0  0.00000000000E+00  0.00000000000E+00  0.75971920333E+02  0.11853850964E+03  0.90992557881E+02 0.  0.
        -13    1    3    3    0    0  0.43908781949E+02 -0.94182131510E+01  0.47490295051E+02  0.65360630316E+02  0.00000000000E+00 0.  1.
         13    1    3    3    0    0 -0.43908781949E+02  0.94182131510E+01  0.28481625282E+02  0.53177879329E+02  0.00000000000E+00 0. -1.
<mgrwt>
<rscale>  0 0.90992558E+02</rscale>
<asrwt>0</asrwt>
<pdfrwt beam="2">  1        3 0.32743531E-02 0.90992558E+02</pdfrwt>
<pdfrwt beam="1">  1       -3 0.14962341E-01 0.90992558E+02</pdfrwt>
<totfact> 0.33532193E+04</totfact>
</mgrwt>
</event>
<event>
 5    1  0.6085374E+000  0.9662362E+02  0.7546771E-02  0.1287561E+00
          1   -1    0    0  501    0  0.00000000000E+00  0.00000000000E+00  0.34103327540E+03  0.34103327540E+03  0.00000000000E+00 0. -1.
         -1   -1    0    0    0  501 -0.00000000000E+00 -0.00000000000E+00 -0.68439978716E+01  0.68439978716E+01  0.00000000000E+00 0.  1.
         23    2    1    2    0    0  0.00000000000E+00  0.00000000000E+00  0.33418927753E+03  0.34787727327E+03  0.96623620528E+02 0.  0.
        -13    1    3    3    0    0 -0.95785560726E+01 -0.46544921757E+02  0.13573812330E+03  0.14381591217E+03  0.00000000000E+00 0. -1.
         13    1    3    3    0    0  0.95785560726E+01  0.46544921757E+02  0.19845115423E+03  0.20406136110E+03  0.00000000000E+00 0.  1.
<mgrwt>
<rscale>  0 0.96623621E+02</rscale>
<asrwt>0</asrwt>
<pdfrwt beam="1">  1        1 0.52466644E-01 0.96623621E+02</pdfrwt>
<pdfrwt beam="2">  1       -1 0.10529230E-02 0.96623621E+02</pdfrwt>
<totfact> 0.11239131E+05</totfact>
</mgrwt>
</event>
<event>
 5    1  0.6085374E+000  0.8761011E+02  0.7546771E-02  0.1308745E+00
          1   -1    0    0  501    0  0.00000000000E+00  0.00000000000E+00  0.21807862630E+03  0.21807862630E+03  0.00000000000E+00 0. -1.
         -1   -1    0    0    0  501 -0.00000000000E+00 -0.00000000000E+00 -0.87990413410E+01  0.87990413410E+01  0.00000000000E+00 0.  1.
         23    2    1    2    0    0  0.00000000000E+00  0.00000000000E+00  0.20927958496E+03  0.22687766764E+03  0.87610110111E+02 0.  0.
        -13    1    3    3    0    0 -0.23368945817E+02  0.33563407499E+02  0.14527905630E+03  0.15092585647E+03  0.00000000000E+00 0. -1.
         13    1    3    3    0    0  0.23368945817E+02 -0.33563407499E+02  0.64000528656E+02  0.75951811168E+02  0.00000000000E+00 0.  1.
<mgrwt>
<rscale>  0 0.87610110E+02</rscale>
<asrwt>0</asrwt>
<pdfrwt beam="1">  1        1 0.33550554E-01 0.87610110E+02</pdfrwt>
<pdfrwt beam="2">  1       -1 0.13536988E-02 0.87610110E+02</pdfrwt>
<totfact> 0.13395636E+05</totfact>
</mgrwt>
</event>
<event>
 5    1  0.6085374E+000  0.9076321E+02  0.7546771E-02  0.1301014E+00
         -2   -1    0    0    0  501 -0.00000000000E+00  0.00000000000E+00  0.72551549430E+01  0.72551549430E+01  0.00000000000E+00 0.  1.
          2   -1    0    0  501    0  0.00000000000E+00 -0.00000000000E+00 -0.28386574063E+03  0.28386574063E+03  0.00000000000E+00 0. -1.
         23    2    1    2    0    0  0.00000000000E+00  0.00000000000E+00 -0.27661058569E+03  0.29112089557E+03  0.90763206891E+02 0.  0.
        -13    1    3    3    0    0 -0.28563090008E+02  0.32458262396E+02 -0.18252906390E+03  0.18757997781E+03  0.00000000000E+00 0. -1.
         13    1    3    3    0    0  0.28563090008E+02 -0.32458262396E+02 -0.94081521787E+02  0.10354091776E+03  0.00000000000E+00 0.  1.
<mgrwt>
<rscale>  0 0.90763207E+02</rscale>
<asrwt>0</asrwt>
<pdfrwt beam="2">  1        2 0.43671659E-01 0.90763207E+02</pdfrwt>
<pdfrwt beam="1">  1       -2 0.11161775E-02 0.90763207E+02</pdfrwt>
<totfact> 0.17814480E+05</totfact>
</mgrwt>
</event>
<event>
 5    1  0.6085374E+000  0.9035474E+02  0.7546771E-02  0.1301995E+00
          4   -1    0    0  501    0  0.00000000000E+00  0.00000000000E+00  0.26812563562E+02  0.26812563562E+02  0.00000000000E+00 0. -1.
         -4   -1    0    0    0  501 -0.00000000000E+00 -0.00000000000E+00 -0.76120840846E+02  0.76120840846E+02  0.00000000000E+00 0.  1.
         23    2    1    2    0    0  0.00000000000E+00  0.00000000000E+00 -0.49308277284E+02  0.10293340441E+03  0.90354742732E+02 0.  0.
        -13    1    3    3    0    0  0.15346177020E+02  0.42118076008E+02 -0.18254491277E+02  0.48401073620E+02  0.00000000000E+00 0.  1.
         13    1    3    3    0    0 -0.15346177020E+02 -0.42118076008E+02 -0.31053786007E+02  0.54532330788E+02  0.00000000000E+00 0. -1.
<mgrwt>
<rscale>  0 0.90354743E+02</rscale>
<asrwt>0</asrwt>
<pdfrwt beam="1">  1        4 0.41250099E-02 0.90354743E+02</pdfrwt>
<pdfrwt beam="2">  1       -4 0.11710898E-01 0.90354743E+02</pdfrwt>
<totfact> 0.26929289E+04</totfact>
</mgrwt>
</event>
<event>
 5    1  0.6085374E+000  0.9208075E+02  0.7546771E-02  0.1297890E+00
          1   -1    0    0  501    0  0.00000000000E+00  0.00000000000E+00  0.21787525605E+03  0.21787525605E+03  0.00000000000E+00 0. -1.
         -1   -1    0    0    0  501 -0.00000000000E+00 -0.00000000000E+00 -0.97290363914E+01  0.97290363914E+01  0.00000000000E+00 0.  1.
         23    2    1    2    0    0  0.00000000000E+00  0.00000000000E+00  0.20814621966E+03  0.22760429244E+03  0.92080753579E+02 0.  0.
        -13    1    3    3    0    0  0.31246549317E+02  0.53755468989E+01  0.18659066432E+03  0.18926520906E+03  0.00000000000E+00 0. -1.
         13    1    3    3    0    0 -0.31246549317E+02 -0.53755468989E+01  0.21555555338E+02  0.38339083382E+02  0.00000000000E+00 0.  1.
<mgrwt>
<rscale>  0 0.92080754E+02</rscale>
<asrwt>0</asrwt>
<pdfrwt beam="1">  1        1 0.33519266E-01 0.92080754E+02</pdfrwt>
<pdfrwt beam="2">  1       -1 0.14967750E-02 0.92080754E+02</pdfrwt>
<totfact> 0.11725229E+05</totfact>
</mgrwt>
</event>
<event>
 5    1  0.6085374E+000  0.9077795E+02  0.7546771E-02  0.1300979E+00
          1   -1    0    0  501    0  0.00000000000E+00  0.00000000000E+00  0.16164677113E+02  0.16164677113E+02  0.00000000000E+00 0. -1.
         -1   -1    0    0    0  501 -0.00000000000E+00 -0.00000000000E+00 -0.12744819580E+03  0.12744819580E+03  0.00000000000E+00 0.  1.
         23    2    1    2    0    0  0.00000000000E+00  0.00000000000E+00 -0.11128351868E+03  0.14361287291E+03  0.90777947402E+02 0.  0.
        -13    1    3    3    0    0  0.39945685504E+02  0.20235973787E+02 -0.67375055964E+02  0.80898396718E+02  0.00000000000E+00 0.  1.
         13    1    3    3    0    0 -0.39945685504E+02 -0.20235973787E+02 -0.43908462719E+02  0.62714476190E+02  0.00000000000E+00 0. -1.
<mgrwt>
<rscale>  0 0.90777947E+02</rscale>
<asrwt>0</asrwt>
<pdfrwt beam="1">  1        1 0.24868734E-02 0.90777947E+02</pdfrwt>
<pdfrwt beam="2">  1       -1 0.19607415E-01 0.90777947E+02</pdfrwt>
<totfact> 0.78436646E+04</totfact>
</mgrwt>
</event>
<event>
 5    1  0.6085374E+000  0.1021328E+03  0.7546771E-02  0.1275874E+00
         -1   -1    0    0    0  501 -0.00000000000E+00  0.00000000000E+00  0.95467830798E+01  0.95467830798E+01  0.00000000000E+00 0.  1.
          1   -1    0    0  501    0  0.00000000000E+00 -0.00000000000E+00 -0.27315788339E+03  0.27315788339E+03  0.00000000000E+00 0. -1.
         23    2    1    2    0    0  0.00000000000E+00  0.00000000000E+00 -0.26361110031E+03  0.28270466647E+03  0.10213283623E+03 0.  0.
        -13    1    3    3    0    0 -0.85372226852E+01 -0.38793862667E+02 -0.22063800679E+03  0.22418514222E+03  0.00000000000E+00 0. -1.
         13    1    3    3    0    0  0.85372226852E+01  0.38793862667E+02 -0.42973093520E+02  0.58519524250E+02  0.00000000000E+00 0.  1.
<mgrwt>
<rscale>  0 0.10213284E+03</rscale>
<asrwt>0</asrwt>
<pdfrwt beam="2">  1        1 0.42024290E-01 0.10213284E+03</pdfrwt>
<pdfrwt beam="1">  1       -1 0.14687358E-02 0.10213284E+03</pdfrwt>
<totfact> 0.92779271E+04</totfact>
</mgrwt>
</event>
<event>
 4    1  0.6085374E+000  0.5273812E+02  0.7546771E-02  0.1431109E+00
         -1   -1    0    0    0  501 -0.00000000000E+00  0.00000000000E+00  0.41434794759E+01  0.41434794759E+01  0.00000000000E+00 0.  1.
          1   -1    0    0  501    0  0.00000000000E+00 -0.00000000000E+00 -0.16781243093E+03  0.16781243093E+03  0.00000000000E+00 0. -1.
        -13    1    1    2    0    0 -0.12941507546E+02  0.19634003720E+02 -0.42932454224E+02  0.48950713430E+02  0.00000000000E+00 0.  1.
         13    1    1    2    0    0  0.12941507546E+02 -0.19634003720E+02 -0.12073649723E+03  0.12300519697E+03  0.00000000000E+00 0. -1.
<mgrwt>
<rscale>  0 0.52738121E+02</rscale>
<asrwt>0</asrwt>
<pdfrwt beam="2">  1        1 0.25817294E-01 0.52738121E+02</pdfrwt>
<pdfrwt beam="1">  1       -1 0.63745845E-03 0.52738121E+02</pdfrwt>
<totfact> 0.47713114E+05</totfact>
</mgrwt>
</event>
<event>
 5    1  0.6085374E+000  0.9155077E+02  0.7546771E-02  0.1299139E+00
          2   -1    0    0  501    0  0.00000000000E+00  0.00000000000E+00  0.11900042956E+02  0.11900042956E+02  0.00000000000E+00 0.  1.
         -2   -1    0    0    0  501 -0.00000000000E+00 -0.00000000000E+00 -0.17608220123E+03  0.17608220123E+03  0.00000000000E+00 0. -1.
         23    2    1    2    0    0  0.00000000000E+00  0.00000000000E+00 -0.16418215827E+03  0.18798224418E+03  0.91550767519E+02 0.  0.
        -13    1    3    3    0    0 -0.18585808257E+02 -0.33945091091E+02 -0.13228958114E+03  0.13783408416E+03  0.00000000000E+00 0. -1.
         13    1    3    3    0    0  0.18585808257E+02  0.33945091091E+02 -0.31892577133E+02  0.50148160026E+02  0.00000000000E+00 0.  1.
<mgrwt>
<rscale>  0 0.91550768E+02</rscale>
<asrwt>0</asrwt>
<pdfrwt beam="1">  1        2 0.18307759E-02 0.91550768E+02</pdfrwt>
<pdfrwt beam="2">  1       -2 0.27089569E-01 0.91550768E+02</pdfrwt>
<totfact> 0.65032376E+04</totfact>
</mgrwt>
</event>
<event>
 5    1  0.6085374E+000  0.9268651E+02  0.7546771E-02  0.1296473E+00
          1   -1    0    0  501    0  0.00000000000E+00  0.00000000000E+00  0.19594164261E+03  0.19594164261E+03  0.00000000000E+00 0. -1.
         -1   -1    0    0    0  501 -0.00000000000E+00 -0.00000000000E+00 -0.10960902600E+02  0.10960902600E+02  0.00000000000E+00 0.  1.
         23    2    1    2    0    0  0.00000000000E+00  0.00000000000E+00  0.18498074001E+03  0.20690254521E+03  0.92686509481E+02 0.  0.
        -13    1    3    3    0    0 -0.29110089817E+02 -0.55906149817E+01  0.12968275655E+02  0.32354728843E+02  0.00000000000E+00 0.  1.
         13    1    3    3    0    0  0.29110089817E+02  0.55906149817E+01  0.17201246436E+03  0.17454781637E+03  0.00000000000E+00 0. -1.
<mgrwt>
<rscale>  0 0.92686509E+02</rscale>
<asrwt>0</asrwt>
<pdfrwt beam="1">  1        1 0.30144866E-01 0.92686509E+02</pdfrwt>
<pdfrwt beam="2">  1       -1 0.16862929E-02 0.92686509E+02</pdfrwt>
<totfact> 0.11284513E+05</totfact>
</mgrwt>
</event>
<event>
 5    1  0.6085374E+000  0.9076124E+02  0.7546771E-02  0.1301019E+00
          1   -1    0    0  501    0  0.00000000000E+00  0.00000000000E+00  0.20657428399E+02  0.20657428399E+02  0.00000000000E+00 0. -1.
         -1   -1    0    0    0  501 -0.00000000000E+00 -0.00000000000E+00 -0.99692989225E+02  0.99692989225E+02  0.00000000000E+00 0.  1.
         23    2    1    2    0    0  0.00000000000E+00  0.00000000000E+00 -0.79035560826E+02  0.12035041762E+03  0.90761242539E+02 0.  0.
        -13    1    3    3    0    0 -0.18972598149E+02 -0.10614472315E+02  0.13302991731E+02  0.25487175051E+02  0.00000000000E+00 0. -1.
         13    1    3    3    0    0  0.18972598149E+02  0.10614472315E+02 -0.92338552557E+02  0.94863242573E+02  0.00000000000E+00 0.  1.
<mgrwt>
<rscale>  0 0.90761243E+02</rscale>
<asrwt>0</asrwt>
<pdfrwt beam="1">  1        1 0.31780660E-02 0.90761243E+02</pdfrwt>
<pdfrwt beam="2">  1       -1 0.15337383E-01 0.90761243E+02</pdfrwt>
<totfact> 0.82380151E+04</totfact>
</mgrwt>
</event>
<event>
 5    1  0.6085374E+000  0.9452941E+02  0.7546771E-02  0.1292240E+00
         -1   -1    0    0    0  501 -0.00000000000E+00  0.00000000000E+00  0.29164301980E+02  0.29164301980E+02  0.00000000000E+00 0.  1.
          1   -1    0    0  501    0  0.00000000000E+00 -0.00000000000E+00 -0.76598862912E+02  0.76598862912E+02  0.00000000000E+00 0. -1.
         23    2    1    2    0    0  0.00000000000E+00  0.00000000000E+00 -0.47434560932E+02  0.10576316489E+03  0.94529410646E+02 0.  0.
        -13    1    3    3    0    0  0.45875632868E+02  0.67599000895E+01 -0.33952204578E+02  0.57471924763E+02  0.00000000000E+00 0. -1.
         13    1    3    3    0    0 -0.45875632868E+02 -0.67599000895E+01 -0.13482356354E+02  0.48291240128E+02  0.00000000000E+00 0.  1.
<mgrwt>
<rscale>  0 0.94529411E+02</rscale>
<asrwt>0</asrwt>
<pdfrwt beam="2">  1        1 0.11784441E-01 0.94529411E+02</pdfrwt>
<pdfrwt beam="1">  1       -1 0.44868156E-02 0.94529411E+02</pdfrwt>
<totfact> 0.90572016E+04</totfact>
</mgrwt>
</event>
<event>
 5    1  0.6085374E+000  0.8875739E+02  0.7546771E-02  0.1305889E+00
          1   -1    0    0  501    0  0.00000000000E+00  0.00000000000E+00  0.62585277516E+02  0.62585277516E+02  0.00000000000E+00 0. -1.
         -1   -1    0    0    0  501 -0.00000000000E+00 -0.00000000000E+00 -0.31468561023E+02  0.31468561023E+02  0.00000000000E+00 0.  1.
         23    2    1    2    0    0  0.00000000000E+00  0.00000000000E+00  0.31116716493E+02  0.94053838538E+02  0.88757391233E+02 0.  0.
        -13    1    3    3    0    0  0.20833821414E+02  0.20370160556E+02  0.51029362328E+02  0.58762125348E+02  0.00000000000E+00 0. -1.
         13    1    3    3    0    0 -0.20833821414E+02 -0.20370160556E+02 -0.19912645836E+02  0.35291713191E+02  0.00000000000E+00 0.  1.
<mgrwt>
<rscale>  0 0.88757391E+02</rscale>
<asrwt>0</asrwt>
<pdfrwt beam="1">  1        1 0.96285042E-02 0.88757391E+02</pdfrwt>
<pdfrwt beam="2">  1       -1 0.48413171E-02 0.88757391E+02</pdfrwt>
<totfact> 0.10446726E+05</totfact>
</mgrwt>
</event>
<event>
 5    1  0.6085374E+000  0.9158922E+02  0.7546771E-02  0.1299048E+00
          1   -1    0    0  501    0  0.00000000000E+00  0.00000000000E+00  0.38338593522E+02  0.38338593522E+02  0.00000000000E+00 0. -1.
         -1   -1    0    0    0  501 -0.00000000000E+00 -0.00000000000E+00 -0.54700654111E+02  0.54700654111E+02  0.00000000000E+00 0.  1.
         23    2    1    2    0    0  0.00000000000E+00  0.00000000000E+00 -0.16362060588E+02  0.93039247633E+02  0.91589216469E+02 0.  0.
        -13    1    3    3    0    0 -0.32072494117E+01 -0.14388503616E+02 -0.52224468077E+02  0.54265187284E+02  0.00000000000E+00 0.  1.
         13    1    3    3    0    0  0.32072494117E+01  0.14388503616E+02  0.35862407488E+02  0.38774060349E+02  0.00000000000E+00 0. -1.
<mgrwt>
<rscale>  0 0.91589216E+02</rscale>
<asrwt>0</asrwt>
<pdfrwt beam="1">  1        1 0.58982452E-02 0.91589216E+02</pdfrwt>
<pdfrwt beam="2">  1       -1 0.84154852E-02 0.91589216E+02</pdfrwt>
<totfact> 0.88934346E+04</totfact>
</mgrwt>
</event>
<event>
 5    1  0.6085374E+000  0.8975393E+02  0.7546771E-02  0.1303449E+00
         -3   -1    0    0    0  501 -0.00000000000E+00  0.00000000000E+00  0.28170490828E+03  0.28170490828E+03  0.00000000000E+00 0.  1.
          3   -1    0    0  501    0  0.00000000000E+00 -0.00000000000E+00 -0.71491198001E+01  0.71491198001E+01  0.00000000000E+00 0. -1.
         23    2    1    2    0    0  0.00000000000E+00  0.00000000000E+00  0.27455578848E+03  0.28885402808E+03  0.89753933342E+02 0.  0.
        -13    1    3    3    0    0  0.53573445597E+01 -0.44248988931E+02  0.12047239629E+03  0.12845338621E+03  0.00000000000E+00 0.  1.
         13    1    3    3    0    0 -0.53573445597E+01  0.44248988931E+02  0.15408339219E+03  0.16040064187E+03  0.00000000000E+00 0. -1.
<mgrwt>
<rscale>  0 0.89753933E+02</rscale>
<asrwt>0</asrwt>
<pdfrwt beam="2">  1        3 0.10998648E-02 0.89753933E+02</pdfrwt>
<pdfrwt beam="1">  1       -3 0.43339208E-01 0.89753933E+02</pdfrwt>
<totfact> 0.25515053E+04</totfact>
</mgrwt>
</event>
<event>
 5    1  0.6085374E+000  0.9252277E+02  0.7546771E-02  0.1296855E+00
          1   -1    0    0  501    0  0.00000000000E+00  0.00000000000E+00  0.55410065644E+02  0.55410065644E+02  0.00000000000E+00 0. -1.
         -1   -1    0    0    0  501 -0.00000000000E+00 -0.00000000000E+00 -0.38623230132E+02  0.38623230132E+02  0.00000000000E+00 0.  1.
         23    2    1    2    0    0  0.00000000000E+00  0.00000000000E+00  0.16786835513E+02  0.94033295776E+02  0.92522769457E+02 0.  0.
        -13    1    3    3    0    0 -0.46108958505E+02 -0.28276041248E+01  0.10900329052E+02  0.47464182000E+02  0.00000000000E+00 0.  1.
         13    1    3    3    0    0  0.46108958505E+02  0.28276041248E+01  0.58865064607E+01  0.46569113775E+02  0.00000000000E+00 0. -1.
<mgrwt>
<rscale>  0 0.92522769E+02</rscale>
<asrwt>0</asrwt>
<pdfrwt beam="1">  1        1 0.85246255E-02 0.92522769E+02</pdfrwt>
<pdfrwt beam="2">  1       -1 0.59420354E-02 0.92522769E+02</pdfrwt>
<totfact> 0.91408929E+04</totfact>
</mgrwt>
</event>
<event>
 5    1  0.6085374E+000  0.9461683E+02  0.7546771E-02  0.1292041E+00
          4   -1    0    0  501    0  0.00000000000E+00  0.00000000000E+00  0.58484178213E+02  0.58484178213E+02  0.00000000000E+00 0. -1.
         -4   -1    0    0    0  501 -0.00000000000E+00 -0.00000000000E+00 -0.38268229301E+02  0.38268229301E+02  0.00000000000E+00 0.  1.
         23    2    1    2    0    0  0.00000000000E+00  0.00000000000E+00  0.20215948912E+02  0.96752407514E+02  0.94616826038E+02 0.  0.
        -13    1    3    3    0    0  0.35851733370E+02 -0.18909355634E+01  0.41611845720E+02  0.54958785714E+02  0.00000000000E+00 0. -1.
         13    1    3    3    0    0 -0.35851733370E+02  0.18909355634E+01 -0.21395896808E+02  0.41793621800E+02  0.00000000000E+00 0.  1.
<mgrwt>
<rscale>  0 0.94616826E+02</rscale>
<asrwt>0</asrwt>
<pdfrwt beam="1">  1        4 0.89975659E-02 0.94616826E+02</pdfrwt>
<pdfrwt beam="2">  1       -4 0.58874199E-02 0.94616826E+02</pdfrwt>
<totfact> 0.24103599E+04</totfact>
</mgrwt>
</event>
<event>
 5    1  0.6085374E+000  0.8263683E+02  0.7546771E-02  0.1321731E+00
         -2   -1    0    0    0  501 -0.00000000000E+00  0.00000000000E+00  0.80043402868E+01  0.80043402868E+01  0.00000000000E+00 0.  1.
          2   -1    0    0  501    0  0.00000000000E+00 -0.00000000000E+00 -0.21328572921E+03  0.21328572921E+03  0.00000000000E+00 0. -1.
         23    2    1    2    0    0  0.00000000000E+00  0.00000000000E+00 -0.20528138892E+03  0.22129006950E+03  0.82636833311E+02 0.  0.
        -13    1    3    3    0    0  0.10706784645E+02  0.39839700141E+02 -0.10884883790E+03  0.11640406547E+03  0.00000000000E+00 0.  1.
         13    1    3    3    0    0 -0.10706784645E+02 -0.39839700141E+02 -0.96432551023E+02  0.10488600403E+03  0.00000000000E+00 0. -1.
<mgrwt>
<rscale>  0 0.82636833E+02</rscale>
<asrwt>0</asrwt>
<pdfrwt beam="2">  1        2 0.32813186E-01 0.82636833E+02</pdfrwt>
<pdfrwt beam="1">  1       -2 0.12314371E-02 0.82636833E+02</pdfrwt>
<totfact> 0.20590390E+05</totfact>
</mgrwt>
</event>
<event>
 5    1  0.6085374E+000  0.9292642E+02  0.7546771E-02  0.1295916E+00
          2   -1    0    0  501    0  0.00000000000E+00  0.00000000000E+00  0.38273129400E+02  0.38273129400E+02  0.00000000000E+00 0. -1.
         -2   -1    0    0    0  501 -0.00000000000E+00 -0.00000000000E+00 -0.56405890373E+02  0.56405890373E+02  0.00000000000E+00 0.  1.
         23    2    1    2    0    0  0.00000000000E+00  0.00000000000E+00 -0.18132760973E+02  0.94679019774E+02  0.92926421242E+02 0.  0.
        -13    1    3    3    0    0 -0.70447774220E+01 -0.13098641809E+02  0.35782291616E+02  0.38750170315E+02  0.00000000000E+00 0. -1.
         13    1    3    3    0    0  0.70447774220E+01  0.13098641809E+02 -0.53915052588E+02  0.55928849459E+02  0.00000000000E+00 0.  1.
<mgrwt>
<rscale>  0 0.92926421E+02</rscale>
<asrwt>0</asrwt>
<pdfrwt beam="1">  1        2 0.58881738E-02 0.92926421E+02</pdfrwt>
<pdfrwt beam="2">  1       -2 0.86778292E-02 0.92926421E+02</pdfrwt>
<totfact> 0.89221092E+04</totfact>
</mgrwt>
</event>
<event>
 5    1  0.6085374E+000  0.9043515E+02  0.7546771E-02  0.1301801E+00
         -1   -1    0    0    0  501 -0.00000000000E+00  0.00000000000E+00  0.61951286388E+01  0.61951286388E+01  0.00000000000E+00 0.  1.
          1   -1    0    0  501    0  0.00000000000E+00 -0.00000000000E+00 -0.33003817484E+03  0.33003817484E+03  0.00000000000E+00 0. -1.
         23    2    1    2    0    0  0.00000000000E+00  0.00000000000E+00 -0.32384304621E+03  0.33623330348E+03  0.90435146903E+02 0.  0.
        -13    1    3    3    0    0  0.43208082985E+02 -0.11084482892E+02 -0.13439243539E+03  0.14160201583E+03  0.00000000000E+00 0.  1.
         13    1    3    3    0    0 -0.43208082985E+02  0.11084482892E+02 -0.18945061081E+03  0.19463128765E+03  0.00000000000E+00 0. -1.
<mgrwt>
<rscale>  0 0.90435147E+02</rscale>
<asrwt>0</asrwt>
<pdfrwt beam="2">  1        1 0.50775118E-01 0.90435147E+02</pdfrwt>
<pdfrwt beam="1">  1       -1 0.95309645E-03 0.90435147E+02</pdfrwt>
<totfact> 0.13329979E+05</totfact>
</mgrwt>
</event>
<event>
 5    1  0.6085374E+000  0.9781718E+02  0.7546771E-02  0.1284954E+00
         -4   -1    0    0    0  501 -0.00000000000E+00  0.00000000000E+00  0.57651504155E+02  0.57651504155E+02  0.00000000000E+00 0.  1.
          4   -1    0    0  501    0  0.00000000000E+00 -0.00000000000E+00 -0.41491546124E+02  0.41491546124E+02  0.00000000000E+00 0. -1.
         23    2    1    2    0    0  0.00000000000E+00  0.00000000000E+00  0.16159958031E+02  0.99143050279E+02  0.97817177300E+02 0.  0.
        -13    1    3    3    0    0  0.12086367520E+01 -0.24436245547E+02  0.51003258297E+02  0.56567864164E+02  0.00000000000E+00 0.  1.
         13    1    3    3    0    0 -0.12086367520E+01  0.24436245547E+02 -0.34843300266E+02  0.42575186114E+02  0.00000000000E+00 0. -1.
<mgrwt>
<rscale>  0 0.97817177E+02</rscale>
<asrwt>0</asrwt>
<pdfrwt beam="2">  1        4 0.63833148E-02 0.97817177E+02</pdfrwt>
<pdfrwt beam="1">  1       -4 0.88694622E-02 0.97817177E+02</pdfrwt>
<totfact> 0.21885503E+04</totfact>
</mgrwt>
</event>
<event>
 5    1  0.6085374E+000  0.9107531E+02  0.7546771E-02  0.1300268E+00
         -2   -1    0    0    0  501 -0.00000000000E+00  0.00000000000E+00  0.32190906412E+02  0.32190906412E+02  0.00000000000E+00 0.  1.
          2   -1    0    0  501    0  0.00000000000E+00 -0.00000000000E+00 -0.64418134388E+02  0.64418134388E+02  0.00000000000E+00 0. -1.
         23    2    1    2    0    0  0.00000000000E+00  0.00000000000E+00 -0.32227227975E+02  0.96609040800E+02  0.91075312469E+02 0.  0.
        -13    1    3    3    0    0  0.20957881368E+02 -0.24777479698E+02 -0.50000234000E+02  0.59608553847E+02  0.00000000000E+00 0. -1.
         13    1    3    3    0    0 -0.20957881368E+02  0.24777479698E+02  0.17773006025E+02  0.37000486953E+02  0.00000000000E+00 0.  1.
<mgrwt>
<rscale>  0 0.91075312E+02</rscale>
<asrwt>0</asrwt>
<pdfrwt beam="2">  1        2 0.99104821E-02 0.91075312E+02</pdfrwt>
<pdfrwt beam="1">  1       -2 0.49524472E-02 0.91075312E+02</pdfrwt>
<totfact> 0.10846412E+05</totfact>
</mgrwt>
</event>
<event>
 5    1  0.6085374E+000  0.9109552E+02  0.7546771E-02  0.1300220E+00
         -2   -1    0    0    0  501 -0.00000000000E+00  0.00000000000E+00  0.73225547398E+01  0.73225547398E+01  0.00000000000E+00 0. -1.
          2   -1    0    0  501    0  0.00000000000E+00 -0.00000000000E+00 -0.28331617770E+03  0.28331617770E+03  0.00000000000E+00 0.  1.
         23    2    1    2    0    0  0.00000000000E+00  0.00000000000E+00 -0.27599362296E+03  0.29063873244E+03  0.91095515145E+02 0.  0.
        -13    1    3    3    0    0  0.17201090524E+01 -0.39902756566E+02 -0.20785378974E+03  0.21165629371E+03  0.00000000000E+00 0.  1.
         13    1    3    3    0    0 -0.17201090524E+01  0.39902756566E+02 -0.68139833217E+02  0.78982438729E+02  0.00000000000E+00 0. -1.
<mgrwt>
<rscale>  0 0.91095515E+02</rscale>
<asrwt>0</asrwt>
<pdfrwt beam="2">  1        2 0.43587109E-01 0.91095515E+02</pdfrwt>
<pdfrwt beam="1">  1       -2 0.11265468E-02 0.91095515E+02</pdfrwt>
<totfact> 0.17628805E+05</totfact>
</mgrwt>
</event>
<event>
 5    1  0.6085374E+000  0.9072420E+02  0.7546771E-02  0.1301107E+00
          2   -1    0    0  501    0  0.00000000000E+00  0.00000000000E+00  0.27047618110E+02  0.27047618110E+02  0.00000000000E+00 0. -1.
         -2   -1    0    0    0  501 -0.00000000000E+00 -0.00000000000E+00 -0.76077680617E+02  0.76077680617E+02  0.00000000000E+00 0.  1.
         23    2    1    2    0    0  0.00000000000E+00  0.00000000000E+00 -0.49030062508E+02  0.10312529873E+03  0.90724198580E+02 0.  0.
        -13    1    3    3    0    0 -0.16410431106E+02 -0.32970730340E+02 -0.54617983579E+02  0.65874846781E+02  0.00000000000E+00 0.  1.
         13    1    3    3    0    0  0.16410431106E+02  0.32970730340E+02  0.55879210712E+01  0.37250451946E+02  0.00000000000E+00 0. -1.
<mgrwt>
<rscale>  0 0.90724199E+02</rscale>
<asrwt>0</asrwt>
<pdfrwt beam="1">  1        2 0.41611720E-02 0.90724199E+02</pdfrwt>
<pdfrwt beam="2">  1       -2 0.11704259E-01 0.90724199E+02</pdfrwt>
<totfact> 0.87317772E+04</totfact>
</mgrwt>
</event>
<event>
 5    1  0.6085374E+000  0.9053091E+02  0.7546771E-02  0.1301571E+00
          3   -1    0    0  501    0  0.00000000000E+00  0.00000000000E+00  0.12297391004E+03  0.12297391004E+03  0.00000000000E+00 0. -1.
         -3   -1    0    0    0  501 -0.00000000000E+00 -0.00000000000E+00 -0.16661758401E+02  0.16661758401E+02  0.00000000000E+00 0.  1.
         23    2    1    2    0    0  0.00000000000E+00  0.00000000000E+00  0.10631215164E+03  0.13963566844E+03  0.90530913587E+02 0.  0.
        -13    1    3    3    0    0  0.57223583962E+01  0.27305138374E+02 -0.18248040586E+01  0.27957930486E+02  0.00000000000E+00 0.  1.
         13    1    3    3    0    0 -0.57223583962E+01 -0.27305138374E+02  0.10813695570E+03  0.11167773796E+03  0.00000000000E+00 0. -1.
<mgrwt>
<rscale>  0 0.90530914E+02</rscale>
<asrwt>0</asrwt>
<pdfrwt beam="1">  1        3 0.18919063E-01 0.90530914E+02</pdfrwt>
<pdfrwt beam="2">  1       -3 0.25633475E-02 0.90530914E+02</pdfrwt>
<totfact> 0.32574137E+04</totfact>
</mgrwt>
</event>
<event>
 5    1  0.6085374E+000  0.9032874E+02  0.7546771E-02  0.1302058E+00
          1   -1    0    0  501    0  0.00000000000E+00  0.00000000000E+00  0.68553172626E+02  0.68553172626E+02  0.00000000000E+00 0. -1.
         -1   -1    0    0    0  501 -0.00000000000E+00 -0.00000000000E+00 -0.29755298936E+02  0.29755298936E+02  0.00000000000E+00 0.  1.
         23    2    1    2    0    0  0.00000000000E+00  0.00000000000E+00  0.38797873689E+02  0.98308471562E+02  0.90328736170E+02 0.  0.
        -13    1    3    3    0    0  0.41396873370E+02 -0.22967610920E+01  0.38893428239E+02  0.56847823147E+02  0.00000000000E+00 0. -1.
         13    1    3    3    0    0 -0.41396873370E+02  0.22967610920E+01 -0.95554549251E-01  0.41460648416E+02  0.00000000000E+00 0.  1.
<mgrwt>
<rscale>  0 0.90328736E+02</rscale>
<asrwt>0</asrwt>
<pdfrwt beam="1">  1        1 0.10546642E-01 0.90328736E+02</pdfrwt>
<pdfrwt beam="2">  1       -1 0.45777383E-02 0.90328736E+02</pdfrwt>
<totfact> 0.10091612E+05</totfact>
</mgrwt>
</event>
<event>
 5    1  0.6085374E+000  0.9218489E+02  0.7546771E-02  0.1297645E+00
         -2   -1    0    0    0  501 -0.00000000000E+00  0.00000000000E+00  0.18230509306E+03  0.18230509306E+03  0.00000000000E+00 0.  1.
          2   -1    0    0  501    0  0.00000000000E+00 -0.00000000000E+00 -0.11653615152E+02  0.11653615152E+02  0.00000000000E+00 0. -1.
         23    2    1    2    0    0  0.00000000000E+00  0.00000000000E+00  0.17065147791E+03  0.19395870821E+03  0.92184888020E+02 0.  0.
        -13    1    3    3    0    0 -0.30004180287E+02 -0.24492943168E+02  0.13789919091E+03  0.14323526784E+03  0.00000000000E+00 0.  1.
         13    1    3    3    0    0  0.30004180287E+02  0.24492943168E+02  0.32752287001E+02  0.50723440375E+02  0.00000000000E+00 0. -1.
<mgrwt>
<rscale>  0 0.92184888E+02</rscale>
<asrwt>0</asrwt>
<pdfrwt beam="2">  1        2 0.17928640E-02 0.92184888E+02</pdfrwt>
<pdfrwt beam="1">  1       -2 0.28046935E-01 0.92184888E+02</pdfrwt>
<totfact> 0.63005411E+04</totfact>
</mgrwt>
</event>
<event>
 5    1  0.6085374E+000  0.9096752E+02  0.7546771E-02  0.1300525E+00
          1   -1    0    0  501    0  0.00000000000E+00  0.00000000000E+00  0.38731876697E+02  0.38731876697E+02  0.00000000000E+00 0. -1.
         -1   -1    0    0    0  501 -0.00000000000E+00 -0.00000000000E+00 -0.53412657956E+02  0.53412657956E+02  0.00000000000E+00 0.  1.
         23    2    1    2    0    0  0.00000000000E+00  0.00000000000E+00 -0.14680781259E+02  0.92144534653E+02  0.90967521281E+02 0.  0.
        -13    1    3    3    0    0  0.20288111277E+02  0.40542900017E+02 -0.11053648233E+02  0.46663876181E+02  0.00000000000E+00 0. -1.
         13    1    3    3    0    0 -0.20288111277E+02 -0.40542900017E+02 -0.36271330262E+01  0.45480658471E+02  0.00000000000E+00 0.  1.
<mgrwt>
<rscale>  0 0.90967521E+02</rscale>
<asrwt>0</asrwt>
<pdfrwt beam="1">  1        1 0.59587503E-02 0.90967521E+02</pdfrwt>
<pdfrwt beam="2">  1       -1 0.82173320E-02 0.90967521E+02</pdfrwt>
<totfact> 0.90808650E+04</totfact>
</mgrwt>
</event>
<event>
 5    1  0.6085374E+000  0.9331447E+02  0.7546771E-02  0.1295018E+00
         -1   -1    0    0    0  501 -0.00000000000E+00  0.00000000000E+00  0.14137580643E+02  0.14137580643E+02  0.00000000000E+00 0.  1.
          1   -1    0    0  501    0  0.00000000000E+00 -0.00000000000E+00 -0.15397948895E+03  0.15397948895E+03  0.00000000000E+00 0. -1.
         23    2    1    2    0    0  0.00000000000E+00  0.00000000000E+00 -0.13984190831E+03  0.16811706960E+03  0.93314467097E+02 0.  0.
        -13    1    3    3    0    0 -0.90022653007E+01 -0.22246553833E+02 -0.14200702874E+03  0.14402064487E+03  0.00000000000E+00 0. -1.
         13    1    3    3    0    0  0.90022653007E+01  0.22246553833E+02  0.21651204292E+01  0.24096424724E+02  0.00000000000E+00 0.  1.
<mgrwt>
<rscale>  0 0.93314467E+02</rscale>
<asrwt>0</asrwt>
<pdfrwt beam="2">  1        1 0.23689153E-01 0.93314467E+02</pdfrwt>
<pdfrwt beam="1">  1       -1 0.21750123E-02 0.93314467E+02</pdfrwt>
<totfact> 0.10583615E+05</totfact>
</mgrwt>
</event>
<event>
 5    1  0.6085374E+000  0.9197420E+02  0.7546771E-02  0.1298140E+00
          3   -1    0    0  501    0  0.00000000000E+00  0.00000000000E+00  0.17649557970E+03  0.17649557970E+03  0.00000000000E+00 0. -1.
         -3   -1    0    0    0  501 -0.00000000000E+00 -0.00000000000E+00 -0.11982245289E+02  0.11982245289E+02  0.00000000000E+00 0.  1.
         23    2    1    2    0    0  0.00000000000E+00  0.00000000000E+00  0.16451333441E+03  0.18847782499E+03  0.91974199171E+02 0.  0.
        -13    1    3    3    0    0 -0.15822421058E+02  0.22447146083E+02  0.66677931707E+01  0.28260977357E+02  0.00000000000E+00 0.  1.
         13    1    3    3    0    0  0.15822421058E+02 -0.22447146083E+02  0.15784554124E+03  0.16021684763E+03  0.00000000000E+00 0. -1.
<mgrwt>
<rscale>  0 0.91974199E+02</rscale>
<asrwt>0</asrwt>
<pdfrwt beam="1">  1        3 0.27153164E-01 0.91974199E+02</pdfrwt>
<pdfrwt beam="2">  1       -3 0.18434225E-02 0.91974199E+02</pdfrwt>
<totfact> 0.28427877E+04</totfact>
</mgrwt>
</event>
<event>
 5    1  0.6085374E+000  0.8706426E+02  0.7546771E-02  0.1310121E+00
         -2   -1    0    0    0  501 -0.00000000000E+00  0.00000000000E+00  0.37770420562E+02  0.37770420562E+02  0.00000000000E+00 0. -1.
          2   -1    0    0  501    0  0.00000000000E+00 -0.00000000000E+00 -0.50172760241E+02  0.50172760241E+02  0.00000000000E+00 0.  1.
         23    2    1    2    0    0  0.00000000000E+00  0.00000000000E+00 -0.12402339679E+02  0.87943180803E+02  0.87064257995E+02 0.  0.
        -13    1    3    3    0    0 -0.20059440987E+02 -0.34007388724E+02 -0.24720998307E+02  0.46583381348E+02  0.00000000000E+00 0.  1.
         13    1    3    3    0    0  0.20059440987E+02  0.34007388724E+02  0.12318658629E+02  0.41359799455E+02  0.00000000000E+00 0. -1.
<mgrwt>
<rscale>  0 0.87064258E+02</rscale>
<asrwt>0</asrwt>
<pdfrwt beam="2">  1        2 0.77188862E-02 0.87064258E+02</pdfrwt>
<pdfrwt beam="1">  1       -2 0.58108339E-02 0.87064258E+02</pdfrwt>
<totfact> 0.11531784E+05</totfact>
</mgrwt>
</event>
<event>
 5    1  0.6085374E+000  0.9050963E+02  0.7546771E-02  0.1301622E+00
         -1   -1    0    0    0  501 -0.00000000000E+00  0.00000000000E+00  0.87280277809E+02  0.87280277809E+02  0.00000000000E+00 0.  1.
          1   -1    0    0  501    0  0.00000000000E+00 -0.00000000000E+00 -0.23464616299E+02  0.23464616299E+02  0.00000000000E+00 0. -1.
         23    2    1    2    0    0  0.00000000000E+00  0.00000000000E+00  0.63815661510E+02  0.11074489411E+03  0.90509628863E+02 0.  0.
        -13    1    3    3    0    0  0.21096669862E+02  0.28595793635E+02  0.66194212444E+02  0.75129638985E+02  0.00000000000E+00 0.  1.
         13    1    3    3    0    0 -0.21096669862E+02 -0.28595793635E+02 -0.23785509342E+01  0.35615255122E+02  0.00000000000E+00 0. -1.
<mgrwt>
<rscale>  0 0.90509629E+02</rscale>
<asrwt>0</asrwt>
<pdfrwt beam="2">  1        1 0.36099410E-02 0.90509629E+02</pdfrwt>
<pdfrwt beam="1">  1       -1 0.13427735E-01 0.90509629E+02</pdfrwt>
<totfact> 0.84977356E+04</totfact>
</mgrwt>
</event>
<event>
 5    1  0.6085374E+000  0.9218869E+02  0.7546771E-02  0.1297636E+00
          1   -1    0    0  501    0  0.00000000000E+00  0.00000000000E+00  0.49133960688E+03  0.49133960688E+03  0.00000000000E+00 0.  1.
         -1   -1    0    0    0  501 -0.00000000000E+00 -0.00000000000E+00 -0.43242772839E+01  0.43242772839E+01  0.00000000000E+00 0. -1.
         23    2    1    2    0    0  0.00000000000E+00  0.00000000000E+00  0.48701532959E+03  0.49566388416E+03  0.92188691296E+02 0.  0.
        -13    1    3    3    0    0  0.33161019608E+02 -0.31483883178E+02  0.21224890828E+03  0.21711860166E+03  0.00000000000E+00 0.  1.
         13    1    3    3    0    0 -0.33161019608E+02  0.31483883178E+02  0.27476642132E+03  0.27854528250E+03  0.00000000000E+00 0. -1.
<mgrwt>
<rscale>  0 0.92188691E+02</rscale>
<asrwt>0</asrwt>
<pdfrwt beam="1">  1        1 0.75590664E-01 0.92188691E+02</pdfrwt>
<pdfrwt beam="2">  1       -1 0.66527382E-03 0.92188691E+02</pdfrwt>
<totfact> 0.13496286E+05</totfact>
</mgrwt>
</event>
<event>
 5    1  0.6085374E+000  0.9061742E+02  0.7546771E-02  0.1301363E+00
         -2   -1    0    0    0  501 -0.00000000000E+00  0.00000000000E+00  0.15490133710E+03  0.15490133710E+03  0.00000000000E+00 0.  1.
          2   -1    0    0  501    0  0.00000000000E+00 -0.00000000000E+00 -0.13252817423E+02  0.13252817423E+02  0.00000000000E+00 0. -1.
         23    2    1    2    0    0  0.00000000000E+00  0.00000000000E+00  0.14164851968E+03  0.16815415452E+03  0.90617418617E+02 0.  0.
        -13    1    3    3    0    0  0.23361775213E+02  0.39341606224E+01  0.14249243084E+03  0.14444840950E+03  0.00000000000E+00 0.  1.
         13    1    3    3    0    0 -0.23361775213E+02 -0.39341606224E+01 -0.84391116497E+00  0.23705745020E+02  0.00000000000E+00 0. -1.
<mgrwt>
<rscale>  0 0.90617419E+02</rscale>
<asrwt>0</asrwt>
<pdfrwt beam="2">  1        2 0.20388951E-02 0.90617419E+02</pdfrwt>
<pdfrwt beam="1">  1       -2 0.23830974E-01 0.90617419E+02</pdfrwt>
<totfact> 0.70121064E+04</totfact>
</mgrwt>
</event>
<event>
 5    1  0.6085374E+000  0.9113351E+02  0.7546771E-02  0.1300130E+00
          1   -1    0    0  501    0  0.00000000000E+00  0.00000000000E+00  0.45203477003E+02  0.45203477003E+02  0.00000000000E+00 0. -1.
         -1   -1    0    0    0  501 -0.00000000000E+00 -0.00000000000E+00 -0.45932955430E+02  0.45932955430E+02  0.00000000000E+00 0.  1.
         23    2    1    2    0    0  0.00000000000E+00  0.00000000000E+00 -0.72947842706E+00  0.91136432434E+02  0.91133512924E+02 0.  0.
        -13    1    3    3    0    0  0.71943222207E+01  0.80203378693E+01  0.43911335586E+02  0.45213819621E+02  0.00000000000E+00 0. -1.
         13    1    3    3    0    0 -0.71943222207E+01 -0.80203378693E+01 -0.44640814013E+02  0.45922612813E+02  0.00000000000E+00 0.  1.
<mgrwt>
<rscale>  0 0.91133513E+02</rscale>
<asrwt>0</asrwt>
<pdfrwt beam="1">  1        1 0.69543811E-02 0.91133513E+02</pdfrwt>
<pdfrwt beam="2">  1       -1 0.70666085E-02 0.91133513E+02</pdfrwt>
<totfact> 0.92477904E+04</totfact>
</mgrwt>
</event>
<event>
 5    1  0.6085374E+000  0.9232061E+02  0.7546771E-02  0.1297327E+00
         -2   -1    0    0    0  501 -0.00000000000E+00  0.00000000000E+00  0.21445397700E+02  0.21445397700E+02  0.00000000000E+00 0.  1.
          2   -1    0    0  501    0  0.00000000000E+00 -0.00000000000E+00 -0.99358092581E+02  0.99358092581E+02  0.00000000000E+00 0. -1.
         23    2    1    2    0    0  0.00000000000E+00  0.00000000000E+00 -0.77912694881E+02  0.12080349028E+03  0.92320611135E+02 0.  0.
        -13    1    3    3    0    0  0.31556762506E+02  0.52193443648E+01  0.45940854630E+01  0.32313719017E+02  0.00000000000E+00 0.  1.
         13    1    3    3    0    0 -0.31556762506E+02 -0.52193443648E+01 -0.82506780344E+02  0.88489771263E+02  0.00000000000E+00 0. -1.
<mgrwt>
<rscale>  0 0.92320611E+02</rscale>
<asrwt>0</asrwt>
<pdfrwt beam="2">  1        2 0.15285860E-01 0.92320611E+02</pdfrwt>
<pdfrwt beam="1">  1       -2 0.32992920E-02 0.92320611E+02</pdfrwt>
<totfact> 0.11829686E+05</totfact>
</mgrwt>
</event>
<event>
 5    1  0.6085374E+000  0.9145162E+02  0.7546771E-02  0.1299374E+00
          2   -1    0    0  501    0  0.00000000000E+00  0.00000000000E+00  0.74089862787E+02  0.74089862787E+02  0.00000000000E+00 0. -1.
         -2   -1    0    0    0  501 -0.00000000000E+00 -0.00000000000E+00 -0.28220455309E+02  0.28220455309E+02  0.00000000000E+00 0.  1.
         23    2    1    2    0    0  0.00000000000E+00  0.00000000000E+00  0.45869407479E+02  0.10231031810E+03  0.91451619157E+02 0.  0.
        -13    1    3    3    0    0  0.42942188708E+02 -0.15570670431E+02  0.20595415943E+02  0.50106371915E+02  0.00000000000E+00 0. -1.
         13    1    3    3    0    0 -0.42942188708E+02  0.15570670431E+02  0.25273991536E+02  0.52203946181E+02  0.00000000000E+00 0.  1.
<mgrwt>
<rscale>  0 0.91451619E+02</rscale>
<asrwt>0</asrwt>
<pdfrwt beam="1">  1        2 0.11398440E-01 0.91451619E+02</pdfrwt>
<pdfrwt beam="2">  1       -2 0.43416085E-02 0.91451619E+02</pdfrwt>
<totfact> 0.11144458E+05</totfact>
</mgrwt>
</event>
<event>
 5    1  0.6085374E+000  0.9272158E+02  0.7546771E-02  0.1296392E+00
         -2   -1    0    0    0  501 -0.00000000000E+00  0.00000000000E+00  0.85881075016E+01  0.85881075016E+01  0.00000000000E+00 0.  1.
          2   -1    0    0  501    0  0.00000000000E+00 -0.00000000000E+00 -0.25026735846E+03  0.25026735846E+03  0.00000000000E+00 0. -1.
         23    2    1    2    0    0  0.00000000000E+00  0.00000000000E+00 -0.24167925096E+03  0.25885546596E+03  0.92721582787E+02 0.  0.
        -13    1    3    3    0    0  0.10943791422E+02  0.39953262099E+02 -0.62727405313E+02  0.75171517879E+02  0.00000000000E+00 0.  1.
         13    1    3    3    0    0 -0.10943791422E+02 -0.39953262099E+02 -0.17895184565E+03  0.18368394809E+03  0.00000000000E+00 0. -1.
<mgrwt>
<rscale>  0 0.92721583E+02</rscale>
<asrwt>0</asrwt>
<pdfrwt beam="2">  1        2 0.38502671E-01 0.92721583E+02</pdfrwt>
<pdfrwt beam="1">  1       -2 0.13212473E-02 0.92721583E+02</pdfrwt>
<totfact> 0.16052712E+05</totfact>
</mgrwt>
</event>
<event>
 5    1  0.6085374E+000  0.9142017E+02  0.7546771E-02  0.1299449E+00
          1   -1    0    0  501    0  0.00000000000E+00  0.00000000000E+00  0.74247290480E+02  0.74247290480E+02  0.00000000000E+00 0. -1.
         -1   -1    0    0    0  501 -0.00000000000E+00 -0.00000000000E+00 -0.28141256810E+02  0.28141256810E+02  0.00000000000E+00 0.  1.
         23    2    1    2    0    0  0.00000000000E+00  0.00000000000E+00  0.46106033669E+02  0.10238854729E+03  0.91420174335E+02 0.  0.
        -13    1    3    3    0    0 -0.21079692458E+02 -0.92518272063E+01 -0.21174930118E+02  0.31278225754E+02  0.00000000000E+00 0.  1.
         13    1    3    3    0    0  0.21079692458E+02  0.92518272063E+01  0.67280963788E+02  0.71110321536E+02  0.00000000000E+00 0. -1.
<mgrwt>
<rscale>  0 0.91420174E+02</rscale>
<asrwt>0</asrwt>
<pdfrwt beam="1">  1        1 0.11422660E-01 0.91420174E+02</pdfrwt>
<pdfrwt beam="2">  1       -1 0.43294241E-02 0.91420174E+02</pdfrwt>
<totfact> 0.98843903E+04</totfact>
</mgrwt>
</event>
<event>
 5    1  0.6085374E+000  0.9047070E+02  0.7546771E-02  0.1301716E+00
          2   -1    0    0  501    0  0.00000000000E+00  0.00000000000E+00  0.24379552474E+03  0.24379552474E+03  0.00000000000E+00 0. -1.
         -2   -1    0    0    0  501 -0.00000000000E+00 -0.00000000000E+00 -0.83932500620E+01  0.83932500620E+01  0.00000000000E+00 0.  1.
         23    2    1    2    0    0  0.00000000000E+00  0.00000000000E+00  0.23540227468E+03  0.25218877480E+03  0.90470698088E+02 0.  0.
        -13    1    3    3    0    0 -0.35731871132E+02  0.58882376921E+00  0.40394667151E+02  0.53933685784E+02  0.00000000000E+00 0.  1.
         13    1    3    3    0    0  0.35731871132E+02 -0.58882376921E+00  0.19500760753E+03  0.19825508902E+03  0.00000000000E+00 0. -1.
<mgrwt>
<rscale>  0 0.90470698E+02</rscale>
<asrwt>0</asrwt>
<pdfrwt beam="1">  1        2 0.37506999E-01 0.90470698E+02</pdfrwt>
<pdfrwt beam="2">  1       -2 0.12912694E-02 0.90470698E+02</pdfrwt>
<totfact> 0.16980560E+05</totfact>
</mgrwt>
</event>
<event>
 5    1  0.6085374E+000  0.9499008E+02  0.7546771E-02  0.1291198E+00
         -2   -1    0    0    0  501 -0.00000000000E+00  0.00000000000E+00  0.70116458766E+02  0.70116458766E+02  0.00000000000E+00 0.  1.
          2   -1    0    0  501    0  0.00000000000E+00 -0.00000000000E+00 -0.32171886121E+02  0.32171886121E+02  0.00000000000E+00 0. -1.
         23    2    1    2    0    0  0.00000000000E+00  0.00000000000E+00  0.37944572645E+02  0.10228834489E+03  0.94990077938E+02 0.  0.
        -13    1    3    3    0    0 -0.29238458609E+02  0.10459589795E+02  0.57670697647E+02  0.65499617156E+02  0.00000000000E+00 0.  1.
         13    1    3    3    0    0  0.29238458609E+02 -0.10459589795E+02 -0.19726125002E+02  0.36788727731E+02  0.00000000000E+00 0. -1.
<mgrwt>
<rscale>  0 0.94990078E+02</rscale>
<asrwt>0</asrwt>
<pdfrwt beam="2">  1        2 0.49495210E-02 0.94990078E+02</pdfrwt>
<pdfrwt beam="1">  1       -2 0.10787147E-01 0.94990078E+02</pdfrwt>
<totfact> 0.79808252E+04</totfact>
</mgrwt>
</event>
<event>
 5    1  0.6085374E+000  0.9183264E+02  0.7546771E-02  0.1298473E+00
         -1   -1    0    0    0  501 -0.00000000000E+00  0.00000000000E+00  0.29937266588E+02  0.29937266588E+02  0.00000000000E+00 0.  1.
          1   -1    0    0  501    0  0.00000000000E+00 -0.00000000000E+00 -0.70424219773E+02  0.70424219773E+02  0.00000000000E+00 0. -1.
         23    2    1    2    0    0  0.00000000000E+00  0.00000000000E+00 -0.40486953185E+02  0.10036148636E+03  0.91832644339E+02 0.  0.
        -13    1    3    3    0    0 -0.32220478416E+02  0.32037860522E+02 -0.27470083530E+02  0.53096037755E+02  0.00000000000E+00 0. -1.
         13    1    3    3    0    0  0.32220478416E+02 -0.32037860522E+02 -0.13016869656E+02  0.47265448605E+02  0.00000000000E+00 0.  1.
<mgrwt>
<rscale>  0 0.91832644E+02</rscale>
<asrwt>0</asrwt>
<pdfrwt beam="2">  1        1 0.10834495E-01 0.91832644E+02</pdfrwt>
<pdfrwt beam="1">  1       -1 0.46057334E-02 0.91832644E+02</pdfrwt>
<totfact> 0.96823752E+04</totfact>
</mgrwt>
</event>
<event>
 5    1  0.6085374E+000  0.8687554E+02  0.7546771E-02  0.1310599E+00
          3   -1    0    0  501    0  0.00000000000E+00  0.00000000000E+00  0.17469072682E+02  0.17469072682E+02  0.00000000000E+00 0. -1.
         -3   -1    0    0    0  501 -0.00000000000E+00 -0.00000000000E+00 -0.10801030651E+03  0.10801030651E+03  0.00000000000E+00 0.  1.
         23    2    1    2    0    0  0.00000000000E+00  0.00000000000E+00 -0.90541233823E+02  0.12547937919E+03  0.86875540742E+02 0.  0.
        -13    1    3    3    0    0  0.16259667382E+01  0.17961488343E+02 -0.10234708717E+03  0.10392393893E+03  0.00000000000E+00 0.  1.
         13    1    3    3    0    0 -0.16259667382E+01 -0.17961488343E+02  0.11805853346E+02  0.21555440255E+02  0.00000000000E+00 0. -1.
<mgrwt>
<rscale>  0 0.86875541E+02</rscale>
<asrwt>0</asrwt>
<pdfrwt beam="1">  1        3 0.26875496E-02 0.86875541E+02</pdfrwt>
<pdfrwt beam="2">  1       -3 0.16616970E-01 0.86875541E+02</pdfrwt>
<totfact> 0.37464074E+04</totfact>
</mgrwt>
</event>
<event>
 5    1  0.6085374E+000  0.7226876E+02  0.7546771E-02  0.1352544E+00
         -2   -1    0    0    0  501 -0.00000000000E+00  0.00000000000E+00  0.13621213264E+02  0.13621213264E+02  0.00000000000E+00 0.  1.
          2   -1    0    0  501    0  0.00000000000E+00 -0.00000000000E+00 -0.95857351652E+02  0.95857351652E+02  0.00000000000E+00 0. -1.
         23    2    1    2    0    0  0.00000000000E+00  0.00000000000E+00 -0.82236138388E+02  0.10947856492E+03  0.72268760326E+02 0.  0.
        -13    1    3    3    0    0 -0.27998936349E+02  0.19162529041E+02 -0.59950815725E+02  0.68885726113E+02  0.00000000000E+00 0. -1.
         13    1    3    3    0    0  0.27998936349E+02 -0.19162529041E+02 -0.22285322663E+02  0.40592838804E+02  0.00000000000E+00 0.  1.
<mgrwt>
<rscale>  0 0.72268760E+02</rscale>
<asrwt>0</asrwt>
<pdfrwt beam="2">  1        2 0.14747285E-01 0.72268760E+02</pdfrwt>
<pdfrwt beam="1">  1       -2 0.20955713E-02 0.72268760E+02</pdfrwt>
<totfact> 0.22736865E+05</totfact>
</mgrwt>
</event>
<event>
 5    1  0.6085374E+000  0.9113230E+02  0.7546771E-02  0.1300133E+00
         -1   -1    0    0    0  501 -0.00000000000E+00  0.00000000000E+00  0.79281252080E+02  0.79281252080E+02  0.00000000000E+00 0.  1.
          1   -1    0    0  501    0  0.00000000000E+00 -0.00000000000E+00 -0.26188711016E+02  0.26188711016E+02  0.00000000000E+00 0. -1.
         23    2    1    2    0    0  0.00000000000E+00  0.00000000000E+00  0.53092541064E+02  0.10546996310E+03  0.91132295037E+02 0.  0.
        -13    1    3    3    0    0 -0.18465458325E+02  0.28977856561E+02 -0.80882967034E+01  0.35300281381E+02  0.00000000000E+00 0. -1.
         13    1    3    3    0    0  0.18465458325E+02 -0.28977856561E+02  0.61180837768E+02  0.70169681715E+02  0.00000000000E+00 0.  1.
<mgrwt>
<rscale>  0 0.91132295E+02</rscale>
<asrwt>0</asrwt>
<pdfrwt beam="2">  1        1 0.40290325E-02 0.91132295E+02</pdfrwt>
<pdfrwt beam="1">  1       -1 0.12197116E-01 0.91132295E+02</pdfrwt>
<totfact> 0.84885890E+04</totfact>
</mgrwt>
</event>
<event>
 5    1  0.6085374E+000  0.8509033E+02  0.7546771E-02  0.1315196E+00
          3   -1    0    0  501    0  0.00000000000E+00  0.00000000000E+00  0.56238761401E+01  0.56238761401E+01  0.00000000000E+00 0. -1.
         -3   -1    0    0    0  501 -0.00000000000E+00 -0.00000000000E+00 -0.32185825428E+03  0.32185825428E+03  0.00000000000E+00 0.  1.
         23    2    1    2    0    0  0.00000000000E+00  0.00000000000E+00 -0.31623437814E+03  0.32748213042E+03  0.85090327458E+02 0.  0.
        -13    1    3    3    0    0 -0.30310738223E+02 -0.29662417628E+02 -0.14507087166E+03  0.15114283865E+03  0.00000000000E+00 0. -1.
         13    1    3    3    0    0  0.30310738223E+02  0.29662417628E+02 -0.17116350647E+03  0.17633929176E+03  0.00000000000E+00 0.  1.
<mgrwt>
<rscale>  0 0.85090327E+02</rscale>
<asrwt>0</asrwt>
<pdfrwt beam="1">  1        3 0.86521169E-03 0.85090327E+02</pdfrwt>
<pdfrwt beam="2">  1       -3 0.49516656E-01 0.85090327E+02</pdfrwt>
<totfact> 0.27649247E+04</totfact>
</mgrwt>
</event>
<event>
 5    1  0.6085374E+000  0.1009125E+03  0.7546771E-02  0.1278389E+00
         -3   -1    0    0    0  501 -0.00000000000E+00  0.00000000000E+00  0.12510248185E+03  0.12510248185E+03  0.00000000000E+00 0.  1.
          3   -1    0    0  501    0  0.00000000000E+00 -0.00000000000E+00 -0.20349978772E+02  0.20349978772E+02  0.00000000000E+00 0. -1.
         23    2    1    2    0    0  0.00000000000E+00  0.00000000000E+00  0.10475250308E+03  0.14545246063E+03  0.10091249378E+03 0.  0.
        -13    1    3    3    0    0 -0.19741748068E+02  0.98451140034E+01  0.11778295053E+03  0.11983107411E+03  0.00000000000E+00 0.  1.
         13    1    3    3    0    0  0.19741748068E+02 -0.98451140034E+01 -0.13030447445E+02  0.25621386519E+02  0.00000000000E+00 0. -1.
<mgrwt>
<rscale>  0 0.10091249E+03</rscale>
<asrwt>0</asrwt>
<pdfrwt beam="2">  1        3 0.31307660E-02 0.10091249E+03</pdfrwt>
<pdfrwt beam="1">  1       -3 0.19246535E-01 0.10091249E+03</pdfrwt>
<totfact> 0.23950860E+04</totfact>
</mgrwt>
</event>
<event>
 5    1  0.6085374E+000  0.9262077E+02  0.7546771E-02  0.1296626E+00
          3   -1    0    0  501    0  0.00000000000E+00  0.00000000000E+00  0.15963286792E+02  0.15963286792E+02  0.00000000000E+00 0. -1.
         -3   -1    0    0    0  501 -0.00000000000E+00 -0.00000000000E+00 -0.13434900959E+03  0.13434900959E+03  0.00000000000E+00 0.  1.
         23    2    1    2    0    0  0.00000000000E+00  0.00000000000E+00 -0.11838572280E+03  0.15031229638E+03  0.92620770249E+02 0.  0.
        -13    1    3    3    0    0  0.82250875668E+01  0.43307013257E+02 -0.82229872603E+02  0.93300061152E+02  0.00000000000E+00 0.  1.
         13    1    3    3    0    0 -0.82250875668E+01 -0.43307013257E+02 -0.36155850197E+02  0.57012235233E+02  0.00000000000E+00 0. -1.
<mgrwt>
<rscale>  0 0.92620770E+02</rscale>
<asrwt>0</asrwt>
<pdfrwt beam="1">  1        3 0.24558903E-02 0.92620770E+02</pdfrwt>
<pdfrwt beam="2">  1       -3 0.20669078E-01 0.92620770E+02</pdfrwt>
<totfact> 0.29982437E+04</totfact>
</mgrwt>
</event>
<event>
 5    1  0.6085374E+000  0.9089121E+02  0.7546771E-02  0.1300708E+00
         -2   -1    0    0    0  501 -0.00000000000E+00  0.00000000000E+00  0.12058054939E+03  0.12058054939E+03  0.00000000000E+00 0.  1.
          2   -1    0    0  501    0  0.00000000000E+00 -0.00000000000E+00 -0.17127996283E+02  0.17127996283E+02  0.00000000000E+00 0. -1.
         23    2    1    2    0    0  0.00000000000E+00  0.00000000000E+00  0.10345255310E+03  0.13770854567E+03  0.90891214135E+02 0.  0.
        -13    1    3    3    0    0 -0.36050094392E+00 -0.21033426699E+02  0.11275962983E+03  0.11470513990E+03  0.00000000000E+00 0.  1.
         13    1    3    3    0    0  0.36050094392E+00  0.21033426699E+02 -0.93070767310E+01  0.23003405767E+02  0.00000000000E+00 0. -1.
<mgrwt>
<rscale>  0 0.90891214E+02</rscale>
<asrwt>0</asrwt>
<pdfrwt beam="2">  1        2 0.26350764E-02 0.90891214E+02</pdfrwt>
<pdfrwt beam="1">  1       -2 0.18550853E-01 0.90891214E+02</pdfrwt>
<totfact> 0.75894376E+04</totfact>
</mgrwt>
</event>
<event>
 5    1  0.6085374E+000  0.7271242E+02  0.7546771E-02  0.1351105E+00
          1   -1    0    0  501    0  0.00000000000E+00  0.00000000000E+00  0.87185474086E+02  0.87185474086E+02  0.00000000000E+00 0. -1.
         -1   -1    0    0    0  501 -0.00000000000E+00 -0.00000000000E+00 -0.15160485051E+02  0.15160485051E+02  0.00000000000E+00 0.  1.
         23    2    1    2    0    0  0.00000000000E+00  0.00000000000E+00  0.72024989035E+02  0.10234595914E+03  0.72712421953E+02 0.  0.
        -13    1    3    3    0    0  0.14993283439E+02 -0.29456589088E+01 -0.10421508933E+02  0.18495494130E+02  0.00000000000E+00 0.  1.
         13    1    3    3    0    0 -0.14993283439E+02  0.29456589088E+01  0.82446497968E+02  0.83850465007E+02  0.00000000000E+00 0. -1.
<mgrwt>
<rscale>  0 0.72712422E+02</rscale>
<asrwt>0</asrwt>
<pdfrwt beam="1">  1        1 0.13413150E-01 0.72712422E+02</pdfrwt>
<pdfrwt beam="2">  1       -1 0.23323824E-02 0.72712422E+02</pdfrwt>
<totfact> 0.18794795E+05</totfact>
</mgrwt>
</event>
<event>
 5    1  0.6085374E+000  0.8996886E+02  0.7546771E-02  0.1302927E+00
         -1   -1    0    0    0  501 -0.00000000000E+00  0.00000000000E+00  0.73738354000E+02  0.73738354000E+02  0.00000000000E+00 0.  1.
          1   -1    0    0  501    0  0.00000000000E+00 -0.00000000000E+00 -0.27442966038E+02  0.27442966038E+02  0.00000000000E+00 0. -1.
         23    2    1    2    0    0  0.00000000000E+00  0.00000000000E+00  0.46295387962E+02  0.10118132004E+03  0.89968864492E+02 0.  0.
        -13    1    3    3    0    0 -0.20698670144E+02  0.32151418257E+02  0.49795646101E+02  0.62783397585E+02  0.00000000000E+00 0.  1.
         13    1    3    3    0    0  0.20698670144E+02 -0.32151418257E+02 -0.35002581392E+01  0.38397922453E+02  0.00000000000E+00 0. -1.
<mgrwt>
<rscale>  0 0.89968864E+02</rscale>
<asrwt>0</asrwt>
<pdfrwt beam="2">  1        1 0.42219948E-02 0.89968864E+02</pdfrwt>
<pdfrwt beam="1">  1       -1 0.11344362E-01 0.89968864E+02</pdfrwt>
<totfact> 0.88778385E+04</totfact>
</mgrwt>
</event>
<event>
 5    1  0.6085374E+000  0.9116508E+02  0.7546771E-02  0.1300055E+00
         -1   -1    0    0    0  501 -0.00000000000E+00  0.00000000000E+00  0.10076001131E+03  0.10076001131E+03  0.00000000000E+00 0. -1.
          1   -1    0    0  501    0  0.00000000000E+00 -0.00000000000E+00 -0.20620957067E+02  0.20620957067E+02  0.00000000000E+00 0.  1.
         23    2    1    2    0    0  0.00000000000E+00  0.00000000000E+00  0.80139054240E+02  0.12138096837E+03  0.91165078122E+02 0.  0.
        -13    1    3    3    0    0  0.65691431311E+01 -0.42179402586E+02  0.18786767988E+02  0.46639021167E+02  0.00000000000E+00 0.  1.
         13    1    3    3    0    0 -0.65691431311E+01  0.42179402586E+02  0.61352286252E+02  0.74741947207E+02  0.00000000000E+00 0. -1.
<mgrwt>
<rscale>  0 0.91165078E+02</rscale>
<asrwt>0</asrwt>
<pdfrwt beam="2">  1        1 0.31724550E-02 0.91165078E+02</pdfrwt>
<pdfrwt beam="1">  1       -1 0.15501540E-01 0.91165078E+02</pdfrwt>
<totfact> 0.81282918E+04</totfact>
</mgrwt>
</event>
<event>
 5    1  0.6085374E+000  0.9152397E+02  0.7546771E-02  0.1299203E+00
          1   -1    0    0  501    0  0.00000000000E+00  0.00000000000E+00  0.27829604842E+03  0.27829604842E+03  0.00000000000E+00 0. -1.
         -1   -1    0    0    0  501 -0.00000000000E+00 -0.00000000000E+00 -0.75249330141E+01  0.75249330141E+01  0.00000000000E+00 0.  1.
         23    2    1    2    0    0  0.00000000000E+00  0.00000000000E+00  0.27077111540E+03  0.28582098143E+03  0.91523966750E+02 0.  0.
        -13    1    3    3    0    0  0.29071300195E+02  0.35322372413E+02  0.13901221402E+03  0.14634618592E+03  0.00000000000E+00 0. -1.
         13    1    3    3    0    0 -0.29071300195E+02 -0.35322372413E+02  0.13175890138E+03  0.13947479551E+03  0.00000000000E+00 0.  1.
<mgrwt>
<rscale>  0 0.91523967E+02</rscale>
<asrwt>0</asrwt>
<pdfrwt beam="1">  1        1 0.42814769E-01 0.91523967E+02</pdfrwt>
<pdfrwt beam="2">  1       -1 0.11576822E-02 0.91523967E+02</pdfrwt>
<totfact> 0.12500894E+05</totfact>
</mgrwt>
</event>
<event>
 5    1  0.6085374E+000  0.9647100E+02  0.7546771E-02  0.1287897E+00
          2   -1    0    0  501    0  0.00000000000E+00  0.00000000000E+00  0.21652719738E+02  0.21652719738E+02  0.00000000000E+00 0. -1.
         -2   -1    0    0    0  501 -0.00000000000E+00 -0.00000000000E+00 -0.10745362919E+03  0.10745362919E+03  0.00000000000E+00 0.  1.
         23    2    1    2    0    0  0.00000000000E+00  0.00000000000E+00 -0.85800909450E+02  0.12910634893E+03  0.96470997044E+02 0.  0.
        -13    1    3    3    0    0  0.34306002824E+02  0.26943882661E+02 -0.15350207145E+02  0.46243956384E+02  0.00000000000E+00 0. -1.
         13    1    3    3    0    0 -0.34306002824E+02 -0.26943882661E+02 -0.70450702305E+02  0.82862392543E+02  0.00000000000E+00 0.  1.
<mgrwt>
<rscale>  0 0.96470997E+02</rscale>
<asrwt>0</asrwt>
<pdfrwt beam="1">  1        2 0.33311877E-02 0.96470997E+02</pdfrwt>
<pdfrwt beam="2">  1       -2 0.16531328E-01 0.96470997E+02</pdfrwt>
<totfact> 0.67819039E+04</totfact>
</mgrwt>
</event>
<event>
 5    1  0.6085374E+000  0.9211947E+02  0.7546771E-02  0.1297799E+00
          1   -1    0    0  501    0  0.00000000000E+00  0.00000000000E+00  0.71005185519E+02  0.71005185519E+02  0.00000000000E+00 0. -1.
         -1   -1    0    0    0  501 -0.00000000000E+00 -0.00000000000E+00 -0.29878089537E+02  0.29878089537E+02  0.00000000000E+00 0.  1.
         23    2    1    2    0    0  0.00000000000E+00  0.00000000000E+00  0.41127095982E+02  0.10088327506E+03  0.92119472220E+02 0.  0.
        -13    1    3    3    0    0  0.30342704347E+02  0.33508959896E+02  0.30233609646E+02  0.54383832640E+02  0.00000000000E+00 0. -1.
         13    1    3    3    0    0 -0.30342704347E+02 -0.33508959896E+02  0.10893486337E+02  0.46499442416E+02  0.00000000000E+00 0.  1.
<mgrwt>
<rscale>  0 0.92119472E+02</rscale>
<asrwt>0</asrwt>
<pdfrwt beam="1">  1        1 0.10923875E-01 0.92119472E+02</pdfrwt>
<pdfrwt beam="2">  1       -1 0.45966292E-02 0.92119472E+02</pdfrwt>
<totfact> 0.96115756E+04</totfact>
</mgrwt>
</event>
<event>
 5    1  0.6085374E+000  0.8920883E+02  0.7546771E-02  0.1304779E+00
         -1   -1    0    0    0  501 -0.00000000000E+00  0.00000000000E+00  0.13403290196E+02  0.13403290196E+02  0.00000000000E+00 0.  1.
          1   -1    0    0  501    0  0.00000000000E+00 -0.00000000000E+00 -0.14843770636E+03  0.14843770636E+03  0.00000000000E+00 0. -1.
         23    2    1    2    0    0  0.00000000000E+00  0.00000000000E+00 -0.13503441617E+03  0.16184099656E+03  0.89208825896E+02 0.  0.
        -13    1    3    3    0    0 -0.32689070078E+02 -0.15409368400E+02 -0.11494789571E+03  0.12049499021E+03  0.00000000000E+00 0. -1.
         13    1    3    3    0    0  0.32689070078E+02  0.15409368400E+02 -0.20086520454E+02  0.41346006349E+02  0.00000000000E+00 0.  1.
<mgrwt>
<rscale>  0 0.89208826E+02</rscale>
<asrwt>0</asrwt>
<pdfrwt beam="2">  1        1 0.22836573E-01 0.89208826E+02</pdfrwt>
<pdfrwt beam="1">  1       -1 0.20620444E-02 0.89208826E+02</pdfrwt>
<totfact> 0.11869112E+05</totfact>
</mgrwt>
</event>
<event>
 5    1  0.6085374E+000  0.9170573E+02  0.7546771E-02  0.1298773E+00
          2   -1    0    0  501    0  0.00000000000E+00  0.00000000000E+00  0.20149277301E+03  0.20149277301E+03  0.00000000000E+00 0. -1.
         -2   -1    0    0    0  501 -0.00000000000E+00 -0.00000000000E+00 -0.10434543173E+02  0.10434543173E+02  0.00000000000E+00 0.  1.
         23    2    1    2    0    0  0.00000000000E+00  0.00000000000E+00  0.19105822984E+03  0.21192731618E+03  0.91705725865E+02 0.  0.
        -13    1    3    3    0    0  0.31665550942E+02 -0.26310753616E+02  0.48877562103E+02  0.63906016536E+02  0.00000000000E+00 0.  1.
         13    1    3    3    0    0 -0.31665550942E+02  0.26310753616E+02  0.14218066773E+03  0.14802129965E+03  0.00000000000E+00 0. -1.
<mgrwt>
<rscale>  0 0.91705726E+02</rscale>
<asrwt>0</asrwt>
<pdfrwt beam="1">  1        2 0.30998885E-01 0.91705726E+02</pdfrwt>
<pdfrwt beam="2">  1       -2 0.16053145E-02 0.91705726E+02</pdfrwt>
<totfact> 0.15269760E+05</totfact>
</mgrwt>
</event>
<event>
 5    1  0.6085374E+000  0.9106419E+02  0.7546771E-02  0.1300295E+00
         -1   -1    0    0    0  501 -0.00000000000E+00  0.00000000000E+00  0.55559285645E+02  0.55559285645E+02  0.00000000000E+00 0.  1.
          1   -1    0    0  501    0  0.00000000000E+00 -0.00000000000E+00 -0.37314584681E+02  0.37314584681E+02  0.00000000000E+00 0. -1.
         23    2    1    2    0    0  0.00000000000E+00  0.00000000000E+00  0.18244700964E+02  0.92873870326E+02  0.91064189867E+02 0.  0.
        -13    1    3    3    0    0 -0.66988625734E+01 -0.43620340553E+02  0.20550513073E+02  0.48681952069E+02  0.00000000000E+00 0.  1.
         13    1    3    3    0    0  0.66988625734E+01  0.43620340553E+02 -0.23058121087E+01  0.44191918257E+02  0.00000000000E+00 0. -1.
<mgrwt>
<rscale>  0 0.91064190E+02</rscale>
<asrwt>0</asrwt>
<pdfrwt beam="2">  1        1 0.57407054E-02 0.91064190E+02</pdfrwt>
<pdfrwt beam="1">  1       -1 0.85475824E-02 0.91064190E+02</pdfrwt>
<totfact> 0.90021834E+04</totfact>
</mgrwt>
</event>
<event>
 5    1  0.6085374E+000  0.9526968E+02  0.7546771E-02  0.1290570E+00
         -1   -1    0    0    0  501 -0.00000000000E+00  0.00000000000E+00  0.53215393768E+02  0.53215393768E+02  0.00000000000E+00 0.  1.
          1   -1    0    0  501    0  0.00000000000E+00 -0.00000000000E+00 -0.42639503762E+02  0.42639503762E+02  0.00000000000E+00 0. -1.
         23    2    1    2    0    0  0.00000000000E+00  0.00000000000E+00  0.10575890005E+02  0.95854897530E+02  0.95269680020E+02 0.  0.
        -13    1    3    3    0    0  0.26737113215E+02 -0.22263862014E+02 -0.27446893534E+02  0.44315739185E+02  0.00000000000E+00 0. -1.
         13    1    3    3    0    0 -0.26737113215E+02  0.22263862014E+02  0.38022783540E+02  0.51539158345E+02  0.00000000000E+00 0.  1.
<mgrwt>
<rscale>  0 0.95269680E+02</rscale>
<asrwt>0</asrwt>
<pdfrwt beam="2">  1        1 0.65599237E-02 0.95269680E+02</pdfrwt>
<pdfrwt beam="1">  1       -1 0.81869836E-02 0.95269680E+02</pdfrwt>
<totfact> 0.80852116E+04</totfact>
</mgrwt>
</event>
<event>
 5    1  0.6085374E+000  0.9385486E+02  0.7546771E-02  0.1293776E+00
          1   -1    0    0  501    0  0.00000000000E+00  0.00000000000E+00  0.38526549508E+03  0.38526549508E+03  0.00000000000E+00 0. -1.
         -1   -1    0    0    0  501 -0.00000000000E+00 -0.00000000000E+00 -0.57160154794E+01  0.57160154794E+01  0.00000000000E+00 0.  1.
         23    2    1    2    0    0  0.00000000000E+00  0.00000000000E+00  0.37954947960E+03  0.39098151056E+03  0.93854856743E+02 0.  0.
        -13    1    3    3    0    0 -0.28409093080E+02 -0.36038074359E+02  0.23066851828E+03  0.23518882775E+03  0.00000000000E+00 0.  1.
         13    1    3    3    0    0  0.28409093080E+02  0.36038074359E+02  0.14888096133E+03  0.15579268281E+03  0.00000000000E+00 0. -1.
<mgrwt>
<rscale>  0 0.93854857E+02</rscale>
<asrwt>0</asrwt>
<pdfrwt beam="1">  1        1 0.59271594E-01 0.93854857E+02</pdfrwt>
<pdfrwt beam="2">  1       -1 0.87938730E-03 0.93854857E+02</pdfrwt>
<totfact> 0.12411113E+05</totfact>
</mgrwt>
</event>
<event>
 5    1  0.6085374E+000  0.9301629E+02  0.7546771E-02  0.1295707E+00
         -1   -1    0    0    0  501 -0.00000000000E+00  0.00000000000E+00  0.25398717234E+03  0.25398717234E+03  0.00000000000E+00 0.  1.
          1   -1    0    0  501    0  0.00000000000E+00 -0.00000000000E+00 -0.85162071466E+01  0.85162071466E+01  0.00000000000E+00 0. -1.
         23    2    1    2    0    0  0.00000000000E+00  0.00000000000E+00  0.24547096520E+03  0.26250337949E+03  0.93016286150E+02 0.  0.
        -13    1    3    3    0    0 -0.93443721281E+01 -0.33612233482E+02  0.35939361625E+02  0.50087296235E+02  0.00000000000E+00 0. -1.
         13    1    3    3    0    0  0.93443721281E+01  0.33612233482E+02  0.20953160357E+03  0.21241608326E+03  0.00000000000E+00 0.  1.
<mgrwt>
<rscale>  0 0.93016286E+02</rscale>
<asrwt>0</asrwt>
<pdfrwt beam="2">  1        1 0.13101859E-02 0.93016286E+02</pdfrwt>
<pdfrwt beam="1">  1       -1 0.39074944E-01 0.93016286E+02</pdfrwt>
<totfact> 0.61138184E+04</totfact>
</mgrwt>
</event>
<event>
 5    1  0.6085374E+000  0.8176410E+02  0.7546771E-02  0.1324118E+00
         -4   -1    0    0    0  501 -0.00000000000E+00  0.00000000000E+00  0.19435138162E+02  0.19435138162E+02  0.00000000000E+00 0.  1.
          4   -1    0    0  501    0  0.00000000000E+00 -0.00000000000E+00 -0.85995882703E+02  0.85995882703E+02  0.00000000000E+00 0. -1.
         23    2    1    2    0    0  0.00000000000E+00  0.00000000000E+00 -0.66560744541E+02  0.10543102086E+03  0.81764096318E+02 0.  0.
        -13    1    3    3    0    0 -0.39419748039E+02 -0.10469963579E+01 -0.19372842414E+02  0.43935404403E+02  0.00000000000E+00 0.  1.
         13    1    3    3    0    0  0.39419748039E+02  0.10469963579E+01 -0.47187902127E+02  0.61495616462E+02  0.00000000000E+00 0. -1.
<mgrwt>
<rscale>  0 0.81764096E+02</rscale>
<asrwt>0</asrwt>
<pdfrwt beam="2">  1        4 0.13230136E-01 0.81764096E+02</pdfrwt>
<pdfrwt beam="1">  1       -4 0.29900213E-02 0.81764096E+02</pdfrwt>
<totfact> 0.34999432E+04</totfact>
</mgrwt>
</event>
<event>
 5    1  0.6085374E+000  0.8885072E+02  0.7546771E-02  0.1305659E+00
          2   -1    0    0  501    0  0.00000000000E+00  0.00000000000E+00  0.20966770153E+03  0.20966770153E+03  0.00000000000E+00 0. -1.
         -2   -1    0    0    0  501 -0.00000000000E+00 -0.00000000000E+00 -0.94130492472E+01  0.94130492472E+01  0.00000000000E+00 0.  1.
         23    2    1    2    0    0  0.00000000000E+00  0.00000000000E+00  0.20025465229E+03  0.21908075078E+03  0.88850715249E+02 0.  0.
        -13    1    3    3    0    0 -0.19567894246E+02 -0.39724043305E+02  0.10891797970E+03  0.11757562845E+03  0.00000000000E+00 0.  1.
         13    1    3    3    0    0  0.19567894246E+02  0.39724043305E+02  0.91336672584E+02  0.10150512234E+03  0.00000000000E+00 0. -1.
<mgrwt>
<rscale>  0 0.88850715E+02</rscale>
<asrwt>0</asrwt>
<pdfrwt beam="1">  1        2 0.32256566E-01 0.88850715E+02</pdfrwt>
<pdfrwt beam="2">  1       -2 0.14481616E-02 0.88850715E+02</pdfrwt>
<totfact> 0.16865112E+05</totfact>
</mgrwt>
</event>
<event>
 5    1  0.6085374E+000  0.9087496E+02  0.7546771E-02  0.1300747E+00
         -1   -1    0    0    0  501 -0.00000000000E+00  0.00000000000E+00  0.95143105491E+02  0.95143105491E+02  0.00000000000E+00 0.  1.
          1   -1    0    0  501    0  0.00000000000E+00 -0.00000000000E+00 -0.21699569684E+02  0.21699569684E+02  0.00000000000E+00 0. -1.
         23    2    1    2    0    0  0.00000000000E+00  0.00000000000E+00  0.73443535807E+02  0.11684267517E+03  0.90874956892E+02 0.  0.
        -13    1    3    3    0    0 -0.28242504906E+02 -0.10783312802E+02  0.80335982001E+02  0.85835825401E+02  0.00000000000E+00 0.  1.
         13    1    3    3    0    0  0.28242504906E+02  0.10783312802E+02 -0.68924461936E+01  0.31006849773E+02  0.00000000000E+00 0. -1.
<mgrwt>
<rscale>  0 0.90874957E+02</rscale>
<asrwt>0</asrwt>
<pdfrwt beam="2">  1        1 0.33383954E-02 0.90874957E+02</pdfrwt>
<pdfrwt beam="1">  1       -1 0.14637401E-01 0.90874957E+02</pdfrwt>
<totfact> 0.82822141E+04</totfact>
</mgrwt>
</event>
<event>
 5    1  0.6085374E+000  0.9159261E+02  0.7546771E-02  0.1299040E+00
          2   -1    0    0  501    0  0.00000000000E+00  0.00000000000E+00  0.17169231040E+02  0.17169231040E+02  0.00000000000E+00 0. -1.
         -2   -1    0    0    0  501 -0.00000000000E+00 -0.00000000000E+00 -0.12215465155E+03  0.12215465155E+03  0.00000000000E+00 0.  1.
         23    2    1    2    0    0  0.00000000000E+00  0.00000000000E+00 -0.10498542051E+03  0.13932388259E+03  0.91592607454E+02 0.  0.
        -13    1    3    3    0    0  0.19908258086E+02  0.23546238702E+02 -0.98654141212E+00  0.30850240858E+02  0.00000000000E+00 0. -1.
         13    1    3    3    0    0 -0.19908258086E+02 -0.23546238702E+02 -0.10399887910E+03  0.10847364173E+03  0.00000000000E+00 0.  1.
<mgrwt>
<rscale>  0 0.91592607E+02</rscale>
<asrwt>0</asrwt>
<pdfrwt beam="1">  1        2 0.26414201E-02 0.91592607E+02</pdfrwt>
<pdfrwt beam="2">  1       -2 0.18793024E-01 0.91592607E+02</pdfrwt>
<totfact> 0.74129217E+04</totfact>
</mgrwt>
</event>
<event>
 5    1  0.6085374E+000  0.8967853E+02  0.7546771E-02  0.1303632E+00
          1   -1    0    0  501    0  0.00000000000E+00  0.00000000000E+00  0.95968783673E+02  0.95968783673E+02  0.00000000000E+00 0. -1.
         -1   -1    0    0    0  501 -0.00000000000E+00 -0.00000000000E+00 -0.20950144375E+02  0.20950144375E+02  0.00000000000E+00 0.  1.
         23    2    1    2    0    0  0.00000000000E+00  0.00000000000E+00  0.75018639298E+02  0.11691892805E+03  0.89678534186E+02 0.  0.
        -13    1    3    3    0    0  0.12277781043E+02  0.41217198151E+02  0.54049998879E+02  0.69072452610E+02  0.00000000000E+00 0. -1.
         13    1    3    3    0    0 -0.12277781043E+02 -0.41217198151E+02  0.20968640419E+02  0.47846475437E+02  0.00000000000E+00 0.  1.
<mgrwt>
<rscale>  0 0.89678534E+02</rscale>
<asrwt>0</asrwt>
<pdfrwt beam="1">  1        1 0.14764428E-01 0.89678534E+02</pdfrwt>
<pdfrwt beam="2">  1       -1 0.32230992E-02 0.89678534E+02</pdfrwt>
<totfact> 0.10853335E+05</totfact>
</mgrwt>
</event>
<event>
 5    1  0.6085374E+000  0.9004855E+02  0.7546771E-02  0.1302734E+00
          3   -1    0    0  501    0  0.00000000000E+00  0.00000000000E+00  0.47704849956E+02  0.47704849956E+02  0.00000000000E+00 0.  1.
         -3   -1    0    0    0  501 -0.00000000000E+00 -0.00000000000E+00 -0.42494327093E+02  0.42494327093E+02  0.00000000000E+00 0. -1.
         23    2    1    2    0    0  0.00000000000E+00  0.00000000000E+00  0.52105228631E+01  0.90199177049E+02  0.90048553524E+02 0.  0.
        -13    1    3    3    0    0  0.11201043956E+00 -0.18692263585E+02  0.43634394025E+02  0.47469712515E+02  0.00000000000E+00 0.  1.
         13    1    3    3    0    0 -0.11201043956E+00  0.18692263585E+02 -0.38423871162E+02  0.42729464534E+02  0.00000000000E+00 0. -1.
<mgrwt>
<rscale>  0 0.90048554E+02</rscale>
<asrwt>0</asrwt>
<pdfrwt beam="1">  1        3 0.73392076E-02 0.90048554E+02</pdfrwt>
<pdfrwt beam="2">  1       -3 0.65375888E-02 0.90048554E+02</pdfrwt>
<totfact> 0.36633783E+04</totfact>
</mgrwt>
</event>
<event>
 5    1  0.6085374E+000  0.9250717E+02  0.7546771E-02  0.1296891E+00
          4   -1    0    0  501    0  0.00000000000E+00  0.00000000000E+00  0.31736880228E+02  0.31736880228E+02  0.00000000000E+00 0. -1.
         -4   -1    0    0    0  501 -0.00000000000E+00 -0.00000000000E+00 -0.67410354608E+02  0.67410354608E+02  0.00000000000E+00 0.  1.
         23    2    1    2    0    0  0.00000000000E+00  0.00000000000E+00 -0.35673474380E+02  0.99147234836E+02  0.92507174864E+02 0.  0.
        -13    1    3    3    0    0  0.58650539141E+01 -0.28128969098E+02 -0.56684198456E+02  0.63551051246E+02  0.00000000000E+00 0.  1.
         13    1    3    3    0    0 -0.58650539141E+01  0.28128969098E+02  0.21010724076E+02  0.35596183589E+02  0.00000000000E+00 0. -1.
<mgrwt>
<rscale>  0 0.92507175E+02</rscale>
<asrwt>0</asrwt>
<pdfrwt beam="1">  1        4 0.48825970E-02 0.92507175E+02</pdfrwt>
<pdfrwt beam="2">  1       -4 0.10370824E-01 0.92507175E+02</pdfrwt>
<totfact> 0.25487339E+04</totfact>
</mgrwt>
</event>
<event>
 5    1  0.6085374E+000  0.9042089E+02  0.7546771E-02  0.1301836E+00
         -1   -1    0    0    0  501 -0.00000000000E+00  0.00000000000E+00  0.14919366059E+02  0.14919366059E+02  0.00000000000E+00 0.  1.
          1   -1    0    0  501    0  0.00000000000E+00 -0.00000000000E+00 -0.13700208183E+03  0.13700208183E+03  0.00000000000E+00 0. -1.
         23    2    1    2    0    0  0.00000000000E+00  0.00000000000E+00 -0.12208271577E+03  0.15192144789E+03  0.90420887183E+02 0.  0.
        -13    1    3    3    0    0  0.43998651667E+02 -0.96275628398E+01 -0.67637536951E+02  0.81261354404E+02  0.00000000000E+00 0. -1.
         13    1    3    3    0    0 -0.43998651667E+02  0.96275628398E+01 -0.54445178821E+02  0.70660093487E+02  0.00000000000E+00 0.  1.
<mgrwt>
<rscale>  0 0.90420887E+02</rscale>
<asrwt>0</asrwt>
<pdfrwt beam="2">  1        1 0.21077244E-01 0.90420887E+02</pdfrwt>
<pdfrwt beam="1">  1       -1 0.22952870E-02 0.90420887E+02</pdfrwt>
<totfact> 0.11280601E+05</totfact>
</mgrwt>
</event>
<event>
 5    1  0.6085374E+000  0.9124972E+02  0.7546771E-02  0.1299853E+00
         -1   -1    0    0    0  501 -0.00000000000E+00  0.00000000000E+00  0.62037263597E+01  0.62037263597E+01  0.00000000000E+00 0.  1.
          1   -1    0    0  501    0  0.00000000000E+00 -0.00000000000E+00 -0.33554474677E+03  0.33554474677E+03  0.00000000000E+00 0. -1.
         23    2    1    2    0    0  0.00000000000E+00  0.00000000000E+00 -0.32934102041E+03  0.34174847313E+03  0.91249718693E+02 0.  0.
        -13    1    3    3    0    0 -0.40352898069E+02 -0.21271258770E+02 -0.16131033666E+03  0.16763605682E+03  0.00000000000E+00 0. -1.
         13    1    3    3    0    0  0.40352898069E+02  0.21271258770E+02 -0.16803068375E+03  0.17411241631E+03  0.00000000000E+00 0.  1.
<mgrwt>
<rscale>  0 0.91249719E+02</rscale>
<asrwt>0</asrwt>
<pdfrwt beam="2">  1        1 0.51622284E-01 0.91249719E+02</pdfrwt>
<pdfrwt beam="1">  1       -1 0.95441915E-03 0.91249719E+02</pdfrwt>
<totfact> 0.13055411E+05</totfact>
</mgrwt>
</event>
<event>
 5    1  0.6085374E+000  0.8887940E+02  0.7546771E-02  0.1305588E+00
          2   -1    0    0  501    0  0.00000000000E+00  0.00000000000E+00  0.27747110710E+03  0.27747110710E+03  0.00000000000E+00 0. -1.
         -2   -1    0    0    0  501 -0.00000000000E+00 -0.00000000000E+00 -0.71174508811E+01  0.71174508811E+01  0.00000000000E+00 0.  1.
         23    2    1    2    0    0  0.00000000000E+00  0.00000000000E+00  0.27035365622E+03  0.28458855798E+03  0.88879400892E+02 0.  0.
        -13    1    3    3    0    0  0.16204194932E+02 -0.40973185649E+02  0.15371204614E+03  0.15990237961E+03  0.00000000000E+00 0. -1.
         13    1    3    3    0    0 -0.16204194932E+02  0.40973185649E+02  0.11664161008E+03  0.12468617838E+03  0.00000000000E+00 0.  1.
<mgrwt>
<rscale>  0 0.88879401E+02</rscale>
<asrwt>0</asrwt>
<pdfrwt beam="1">  1        2 0.42687854E-01 0.88879401E+02</pdfrwt>
<pdfrwt beam="2">  1       -2 0.10949927E-02 0.88879401E+02</pdfrwt>
<totfact> 0.18679560E+05</totfact>
</mgrwt>
</event>
<event>
 5    1  0.6085374E+000  0.8867124E+02  0.7546771E-02  0.1306102E+00
         -2   -1    0    0    0  501 -0.00000000000E+00  0.00000000000E+00  0.11535464302E+03  0.11535464302E+03  0.00000000000E+00 0.  1.
          2   -1    0    0  501    0  0.00000000000E+00 -0.00000000000E+00 -0.17040034291E+02  0.17040034291E+02  0.00000000000E+00 0. -1.
         23    2    1    2    0    0  0.00000000000E+00  0.00000000000E+00  0.98314608731E+02  0.13239467731E+03  0.88671237111E+02 0.  0.
        -13    1    3    3    0    0 -0.38547374799E+02  0.21901327321E+02  0.48738091544E+02  0.65886036531E+02  0.00000000000E+00 0.  1.
         13    1    3    3    0    0  0.38547374799E+02 -0.21901327321E+02  0.49576517186E+02  0.66508640782E+02  0.00000000000E+00 0. -1.
<mgrwt>
<rscale>  0 0.88671237E+02</rscale>
<asrwt>0</asrwt>
<pdfrwt beam="2">  1        2 0.26215438E-02 0.88671237E+02</pdfrwt>
<pdfrwt beam="1">  1       -2 0.17746868E-01 0.88671237E+02</pdfrwt>
<totfact> 0.81894251E+04</totfact>
</mgrwt>
</event>
<event>
 5    1  0.6085374E+000  0.8530218E+02  0.7546771E-02  0.1314644E+00
         -1   -1    0    0    0  501 -0.00000000000E+00  0.00000000000E+00  0.81033372807E+02  0.81033372807E+02  0.00000000000E+00 0.  1.
          1   -1    0    0  501    0  0.00000000000E+00 -0.00000000000E+00 -0.22448967021E+02  0.22448967021E+02  0.00000000000E+00 0. -1.
         23    2    1    2    0    0  0.00000000000E+00  0.00000000000E+00  0.58584405786E+02  0.10348233983E+03  0.85302180833E+02 0.  0.
        -13    1    3    3    0    0 -0.76049990867E+01 -0.13214746565E+02 -0.19029993957E+02  0.24384548548E+02  0.00000000000E+00 0. -1.
         13    1    3    3    0    0  0.76049990867E+01  0.13214746565E+02  0.77614399743E+02  0.79097791280E+02  0.00000000000E+00 0.  1.
<mgrwt>
<rscale>  0 0.85302181E+02</rscale>
<asrwt>0</asrwt>
<pdfrwt beam="2">  1        1 0.34536873E-02 0.85302181E+02</pdfrwt>
<pdfrwt beam="1">  1       -1 0.12466673E-01 0.85302181E+02</pdfrwt>
<totfact> 0.10014608E+05</totfact>
</mgrwt>
</event>
<event>
 5    1  0.6085374E+000  0.9278257E+02  0.7546771E-02  0.1296250E+00
         -1   -1    0    0    0  501 -0.00000000000E+00  0.00000000000E+00  0.12331224910E+03  0.12331224910E+03  0.00000000000E+00 0.  1.
          1   -1    0    0  501    0  0.00000000000E+00 -0.00000000000E+00 -0.17452857523E+02  0.17452857523E+02  0.00000000000E+00 0. -1.
         23    2    1    2    0    0  0.00000000000E+00  0.00000000000E+00  0.10585939158E+03  0.14076510663E+03  0.92782565484E+02 0.  0.
        -13    1    3    3    0    0 -0.31814153069E+02 -0.29386541336E+02  0.78154663806E+02  0.89352451683E+02  0.00000000000E+00 0. -1.
         13    1    3    3    0    0  0.31814153069E+02  0.29386541336E+02  0.27704727773E+02  0.51412654942E+02  0.00000000000E+00 0.  1.
<mgrwt>
<rscale>  0 0.92782565E+02</rscale>
<asrwt>0</asrwt>
<pdfrwt beam="2">  1        1 0.26850551E-02 0.92782565E+02</pdfrwt>
<pdfrwt beam="1">  1       -1 0.18971115E-01 0.92782565E+02</pdfrwt>
<totfact> 0.74638782E+04</totfact>
</mgrwt>
</event>
<event>
 5    1  0.6085374E+000  0.9383220E+02  0.7546771E-02  0.1293828E+00
          3   -1    0    0  501    0  0.00000000000E+00  0.00000000000E+00  0.90099411815E+01  0.90099411815E+01  0.00000000000E+00 0. -1.
         -3   -1    0    0    0  501 -0.00000000000E+00 -0.00000000000E+00 -0.24429908095E+03  0.24429908095E+03  0.00000000000E+00 0.  1.
         23    2    1    2    0    0  0.00000000000E+00  0.00000000000E+00 -0.23528913977E+03  0.25330902213E+03  0.93832198099E+02 0.  0.
        -13    1    3    3    0    0  0.40055104377E+02 -0.97741849651E+00 -0.18353648221E+03  0.18785900839E+03  0.00000000000E+00 0.  1.
         13    1    3    3    0    0 -0.40055104377E+02  0.97741849651E+00 -0.51752657558E+02  0.65450013735E+02  0.00000000000E+00 0. -1.
<mgrwt>
<rscale>  0 0.93832198E+02</rscale>
<asrwt>0</asrwt>
<pdfrwt beam="1">  1        3 0.13861450E-02 0.93832198E+02</pdfrwt>
<pdfrwt beam="2">  1       -3 0.37584467E-01 0.93832198E+02</pdfrwt>
<totfact> 0.24019052E+04</totfact>
</mgrwt>
</event>
<event>
 5    1  0.6085374E+000  0.9344954E+02  0.7546771E-02  0.1294707E+00
          2   -1    0    0  501    0  0.00000000000E+00  0.00000000000E+00  0.57264313341E+02  0.57264313341E+02  0.00000000000E+00 0. -1.
         -2   -1    0    0    0  501 -0.00000000000E+00 -0.00000000000E+00 -0.38125036017E+02  0.38125036017E+02  0.00000000000E+00 0.  1.
         23    2    1    2    0    0  0.00000000000E+00  0.00000000000E+00  0.19139277324E+02  0.95389349359E+02  0.93449537370E+02 0.  0.
        -13    1    3    3    0    0  0.12402353870E+02 -0.86083466134E+00  0.55545059627E+02  0.56919355819E+02  0.00000000000E+00 0. -1.
         13    1    3    3    0    0 -0.12402353870E+02  0.86083466134E+00 -0.36405782304E+02  0.38469993540E+02  0.00000000000E+00 0.  1.
<mgrwt>
<rscale>  0 0.93449537E+02</rscale>
<asrwt>0</asrwt>
<pdfrwt beam="1">  1        2 0.88098944E-02 0.93449537E+02</pdfrwt>
<pdfrwt beam="2">  1       -2 0.58653901E-02 0.93449537E+02</pdfrwt>
<totfact> 0.97687295E+04</totfact>
</mgrwt>
</event>
<event>
 5    1  0.6085374E+000  0.9130704E+02  0.7546771E-02  0.1299717E+00
         -2   -1    0    0    0  501 -0.00000000000E+00  0.00000000000E+00  0.45408738586E+02  0.45408738586E+02  0.00000000000E+00 0.  1.
          2   -1    0    0  501    0  0.00000000000E+00 -0.00000000000E+00 -0.45899620379E+02  0.45899620379E+02  0.00000000000E+00 0. -1.
         23    2    1    2    0    0  0.00000000000E+00  0.00000000000E+00 -0.49088179362E+00  0.91308358965E+02  0.91307039444E+02 0.  0.
        -13    1    3    3    0    0 -0.17643918985E+02 -0.26181715438E+02  0.32731599501E+02  0.45476892004E+02  0.00000000000E+00 0.  1.
         13    1    3    3    0    0  0.17643918985E+02  0.26181715438E+02 -0.33222481295E+02  0.45831466961E+02  0.00000000000E+00 0. -1.
<mgrwt>
<rscale>  0 0.91307039E+02</rscale>
<asrwt>0</asrwt>
<pdfrwt beam="2">  1        2 0.70614800E-02 0.91307039E+02</pdfrwt>
<pdfrwt beam="1">  1       -2 0.69859598E-02 0.91307039E+02</pdfrwt>
<totfact> 0.98444807E+04</totfact>
</mgrwt>
</event>
<event>
 5    1  0.6085374E+000  0.9101261E+02  0.7546771E-02  0.1300418E+00
         -2   -1    0    0    0  501 -0.00000000000E+00  0.00000000000E+00  0.91141205790E+01  0.91141205790E+01  0.00000000000E+00 0.  1.
          2   -1    0    0  501    0  0.00000000000E+00 -0.00000000000E+00 -0.22721046552E+03  0.22721046552E+03  0.00000000000E+00 0. -1.
         23    2    1    2    0    0  0.00000000000E+00  0.00000000000E+00 -0.21809634494E+03  0.23632458610E+03  0.91012605270E+02 0.  0.
        -13    1    3    3    0    0  0.41627095484E+02 -0.89610384808E+01 -0.15073238049E+03  0.15663130536E+03  0.00000000000E+00 0. -1.
         13    1    3    3    0    0 -0.41627095484E+02  0.89610384808E+01 -0.67363964448E+02  0.79693280740E+02  0.00000000000E+00 0.  1.
<mgrwt>
<rscale>  0 0.91012605E+02</rscale>
<asrwt>0</asrwt>
<pdfrwt beam="2">  1        2 0.34955455E-01 0.91012605E+02</pdfrwt>
<pdfrwt beam="1">  1       -2 0.14021725E-02 0.91012605E+02</pdfrwt>
<totfact> 0.16283237E+05</totfact>
</mgrwt>
</event>
<event>
 5    1  0.6085374E+000  0.8916867E+02  0.7546771E-02  0.1304877E+00
          4   -1    0    0  501    0  0.00000000000E+00  0.00000000000E+00  0.60893377161E+02  0.60893377161E+02  0.00000000000E+00 0.  1.
         -4   -1    0    0    0  501 -0.00000000000E+00 -0.00000000000E+00 -0.32643332448E+02  0.32643332448E+02  0.00000000000E+00 0. -1.
         23    2    1    2    0    0  0.00000000000E+00  0.00000000000E+00  0.28250044712E+02  0.93536709609E+02  0.89168666124E+02 0.  0.
        -13    1    3    3    0    0 -0.91111024953E+01 -0.31444163023E+02  0.45873371902E+02  0.56357021094E+02  0.00000000000E+00 0.  1.
         13    1    3    3    0    0  0.91111024953E+01  0.31444163023E+02 -0.17623327189E+02  0.37179688516E+02  0.00000000000E+00 0. -1.
<mgrwt>
<rscale>  0 0.89168666E+02</rscale>
<asrwt>0</asrwt>
<pdfrwt beam="1">  1        4 0.93682118E-02 0.89168666E+02</pdfrwt>
<pdfrwt beam="2">  1       -4 0.50220512E-02 0.89168666E+02</pdfrwt>
<totfact> 0.28532592E+04</totfact>
</mgrwt>
</event>
<event>
 5    1  0.6085374E+000  0.8100692E+02  0.7546771E-02  0.1326218E+00
          3   -1    0    0  501    0  0.00000000000E+00  0.00000000000E+00  0.14211477345E+02  0.14211477345E+02  0.00000000000E+00 0. -1.
         -3   -1    0    0    0  501 -0.00000000000E+00 -0.00000000000E+00 -0.11543699675E+03  0.11543699675E+03  0.00000000000E+00 0.  1.
         23    2    1    2    0    0  0.00000000000E+00  0.00000000000E+00 -0.10122551941E+03  0.12964847410E+03  0.81006919805E+02 0.  0.
        -13    1    3    3    0    0  0.26633855252E+02  0.20643832510E+02 -0.86578670672E+02  0.92905308146E+02  0.00000000000E+00 0.  1.
         13    1    3    3    0    0 -0.26633855252E+02 -0.20643832510E+02 -0.14646848737E+02  0.36743165952E+02  0.00000000000E+00 0. -1.
<mgrwt>
<rscale>  0 0.81006920E+02</rscale>
<asrwt>0</asrwt>
<pdfrwt beam="1">  1        3 0.21863812E-02 0.81006920E+02</pdfrwt>
<pdfrwt beam="2">  1       -3 0.17759537E-01 0.81006920E+02</pdfrwt>
<totfact> 0.44817317E+04</totfact>
</mgrwt>
</event>
<event>
 5    1  0.6085374E+000  0.9322316E+02  0.7546771E-02  0.1295229E+00
          1   -1    0    0  501    0  0.00000000000E+00  0.00000000000E+00  0.18260152081E+02  0.18260152081E+02  0.00000000000E+00 0. -1.
         -1   -1    0    0    0  501 -0.00000000000E+00 -0.00000000000E+00 -0.11898255261E+03  0.11898255261E+03  0.00000000000E+00 0.  1.
         23    2    1    2    0    0  0.00000000000E+00  0.00000000000E+00 -0.10072240053E+03  0.13724270469E+03  0.93223162479E+02 0.  0.
        -13    1    3    3    0    0  0.15426227367E+02 -0.26851352957E+02 -0.10164932184E+03  0.10626169713E+03  0.00000000000E+00 0.  1.
         13    1    3    3    0    0 -0.15426227367E+02  0.26851352957E+02  0.92692130979E+00  0.30981007562E+02  0.00000000000E+00 0. -1.
<mgrwt>
<rscale>  0 0.93223162E+02</rscale>
<asrwt>0</asrwt>
<pdfrwt beam="1">  1        1 0.28092542E-02 0.93223162E+02</pdfrwt>
<pdfrwt beam="2">  1       -1 0.18305008E-01 0.93223162E+02</pdfrwt>
<totfact> 0.74275382E+04</totfact>
</mgrwt>
</event>
<event>
 5    1  0.6085374E+000  0.9175177E+02  0.7546771E-02  0.1298664E+00
         -2   -1    0    0    0  501 -0.00000000000E+00  0.00000000000E+00  0.83461309871E+01  0.83461309871E+01  0.00000000000E+00 0.  1.
          2   -1    0    0  501    0  0.00000000000E+00 -0.00000000000E+00 -0.25216436680E+03  0.25216436680E+03  0.00000000000E+00 0. -1.
         23    2    1    2    0    0  0.00000000000E+00  0.00000000000E+00 -0.24381823581E+03  0.26051049779E+03  0.91751770241E+02 0.  0.
        -13    1    3    3    0    0  0.18252515207E+02 -0.40616606581E+02 -0.90582294748E+02  0.10093569816E+03  0.00000000000E+00 0.  1.
         13    1    3    3    0    0 -0.18252515207E+02  0.40616606581E+02 -0.15323594107E+03  0.15957479963E+03  0.00000000000E+00 0. -1.
<mgrwt>
<rscale>  0 0.91751770E+02</rscale>
<asrwt>0</asrwt>
<pdfrwt beam="2">  1        2 0.38794523E-01 0.91751770E+02</pdfrwt>
<pdfrwt beam="1">  1       -2 0.12840200E-02 0.91751770E+02</pdfrwt>
<totfact> 0.16558339E+05</totfact>
</mgrwt>
</event>
<event>
 5    1  0.6085374E+000  0.8915231E+02  0.7546771E-02  0.1304918E+00
         -3   -1    0    0    0  501 -0.00000000000E+00  0.00000000000E+00  0.83597036922E+02  0.83597036922E+02  0.00000000000E+00 0.  1.
          3   -1    0    0  501    0  0.00000000000E+00 -0.00000000000E+00 -0.23769186687E+02  0.23769186687E+02  0.00000000000E+00 0. -1.
         23    2    1    2    0    0  0.00000000000E+00  0.00000000000E+00  0.59827850235E+02  0.10736622361E+03  0.89152309606E+02 0.  0.
        -13    1    3    3    0    0  0.11822445406E+02  0.31289860271E+02  0.65399101840E+02  0.73456572835E+02  0.00000000000E+00 0.  1.
         13    1    3    3    0    0 -0.11822445406E+02 -0.31289860271E+02 -0.55712516049E+01  0.33909650774E+02  0.00000000000E+00 0. -1.
<mgrwt>
<rscale>  0 0.89152310E+02</rscale>
<asrwt>0</asrwt>
<pdfrwt beam="2">  1        3 0.36567980E-02 0.89152310E+02</pdfrwt>
<pdfrwt beam="1">  1       -3 0.12861082E-01 0.89152310E+02</pdfrwt>
<totfact> 0.36278185E+04</totfact>
</mgrwt>
</event>
<event>
 5    1  0.6085374E+000  0.9151970E+02  0.7546771E-02  0.1299213E+00
          1   -1    0    0  501    0  0.00000000000E+00  0.00000000000E+00  0.80675558345E+01  0.80675558345E+01  0.00000000000E+00 0. -1.
         -1   -1    0    0    0  501 -0.00000000000E+00 -0.00000000000E+00 -0.25955369384E+03  0.25955369384E+03  0.00000000000E+00 0.  1.
         23    2    1    2    0    0  0.00000000000E+00  0.00000000000E+00 -0.25148613801E+03  0.26762124968E+03  0.91519700986E+02 0.  0.
        -13    1    3    3    0    0  0.40297923923E+02 -0.20054484593E+02 -0.10165458965E+03  0.11117446029E+03  0.00000000000E+00 0. -1.
         13    1    3    3    0    0 -0.40297923923E+02  0.20054484593E+02 -0.14983154836E+03  0.15644678939E+03  0.00000000000E+00 0.  1.
<mgrwt>
<rscale>  0 0.91519701E+02</rscale>
<asrwt>0</asrwt>
<pdfrwt beam="1">  1        1 0.12411626E-02 0.91519701E+02</pdfrwt>
<pdfrwt beam="2">  1       -1 0.39931331E-01 0.91519701E+02</pdfrwt>
<totfact> 0.63309883E+04</totfact>
</mgrwt>
</event>
<event>
 5    1  0.6085374E+000  0.8969865E+02  0.7546771E-02  0.1303583E+00
          2   -1    0    0  501    0  0.00000000000E+00  0.00000000000E+00  0.61393925834E+01  0.61393925834E+01  0.00000000000E+00 0. -1.
         -2   -1    0    0    0  501 -0.00000000000E+00 -0.00000000000E+00 -0.32763209970E+03  0.32763209970E+03  0.00000000000E+00 0.  1.
         23    2    1    2    0    0  0.00000000000E+00  0.00000000000E+00 -0.32149270711E+03  0.33377149228E+03  0.89698652899E+02 0.  0.
        -13    1    3    3    0    0 -0.37147489022E+02  0.19374281339E+02 -0.22030184728E+03  0.22425031245E+03  0.00000000000E+00 0.  1.
         13    1    3    3    0    0  0.37147489022E+02 -0.19374281339E+02 -0.10119085984E+03  0.10952117983E+03  0.00000000000E+00 0. -1.
<mgrwt>
<rscale>  0 0.89698653E+02</rscale>
<asrwt>0</asrwt>
<pdfrwt beam="1">  1        2 0.94452168E-03 0.89698653E+02</pdfrwt>
<pdfrwt beam="2">  1       -2 0.50404952E-01 0.89698653E+02</pdfrwt>
<totfact> 0.50549750E+04</totfact>
</mgrwt>
</event>
<event>
 5    1  0.6085374E+000  0.9590461E+02  0.7546771E-02  0.1289152E+00
         -1   -1    0    0    0  501 -0.00000000000E+00  0.00000000000E+00  0.11648805504E+03  0.11648805504E+03  0.00000000000E+00 0.  1.
          1   -1    0    0  501    0  0.00000000000E+00 -0.00000000000E+00 -0.19739566800E+02  0.19739566800E+02  0.00000000000E+00 0. -1.
         23    2    1    2    0    0  0.00000000000E+00  0.00000000000E+00  0.96748488239E+02  0.13622762184E+03  0.95904613941E+02 0.  0.
        -13    1    3    3    0    0  0.24916371546E+01  0.34837181363E+02  0.95046022821E+02  0.10125998180E+03  0.00000000000E+00 0.  1.
         13    1    3    3    0    0 -0.24916371546E+01 -0.34837181363E+02  0.17024654181E+01  0.34967640034E+02  0.00000000000E+00 0. -1.
<mgrwt>
<rscale>  0 0.95904614E+02</rscale>
<asrwt>0</asrwt>
<pdfrwt beam="2">  1        1 0.30368565E-02 0.95904614E+02</pdfrwt>
<pdfrwt beam="1">  1       -1 0.17921239E-01 0.95904614E+02</pdfrwt>
<totfact> 0.69315412E+04</totfact>
</mgrwt>
</event>
<event>
 5    1  0.6085374E+000  0.9135035E+02  0.7546771E-02  0.1299614E+00
         -2   -1    0    0    0  501 -0.00000000000E+00  0.00000000000E+00  0.73185766350E+01  0.73185766350E+01  0.00000000000E+00 0. -1.
          2   -1    0    0  501    0  0.00000000000E+00 -0.00000000000E+00 -0.28505840561E+03  0.28505840561E+03  0.00000000000E+00 0.  1.
         23    2    1    2    0    0  0.00000000000E+00  0.00000000000E+00 -0.27773982897E+03  0.29237698224E+03  0.91350353845E+02 0.  0.
        -13    1    3    3    0    0 -0.68999179443E+00 -0.38119107971E+02 -0.58364561239E+02  0.69713445545E+02  0.00000000000E+00 0.  1.
         13    1    3    3    0    0  0.68999179443E+00  0.38119107971E+02 -0.21937526773E+03  0.22266353670E+03  0.00000000000E+00 0. -1.
<mgrwt>
<rscale>  0 0.91350354E+02</rscale>
<asrwt>0</asrwt>
<pdfrwt beam="2">  1        2 0.43855143E-01 0.91350354E+02</pdfrwt>
<pdfrwt beam="1">  1       -2 0.11259348E-02 0.91350354E+02</pdfrwt>
<totfact> 0.17537733E+05</totfact>
</mgrwt>
</event>
<event>
 5    1  0.6085374E+000  0.9255272E+02  0.7546771E-02  0.1296785E+00
          3   -1    0    0  501    0  0.00000000000E+00  0.00000000000E+00  0.45658503608E+02  0.45658503608E+02  0.00000000000E+00 0. -1.
         -3   -1    0    0    0  501 -0.00000000000E+00 -0.00000000000E+00 -0.46902577131E+02  0.46902577131E+02  0.00000000000E+00 0.  1.
         23    2    1    2    0    0  0.00000000000E+00  0.00000000000E+00 -0.12440735232E+01  0.92561080740E+02  0.92552719835E+02 0.  0.
        -13    1    3    3    0    0 -0.14287615407E+02 -0.35539615886E+02 -0.26591693471E+02  0.46629587313E+02  0.00000000000E+00 0.  1.
         13    1    3    3    0    0  0.14287615407E+02  0.35539615886E+02  0.25347619948E+02  0.45931493426E+02  0.00000000000E+00 0. -1.
<mgrwt>
<rscale>  0 0.92552720E+02</rscale>
<asrwt>0</asrwt>
<pdfrwt beam="1">  1        3 0.70243851E-02 0.92552720E+02</pdfrwt>
<pdfrwt beam="2">  1       -3 0.72157811E-02 0.92552720E+02</pdfrwt>
<totfact> 0.33820140E+04</totfact>
</mgrwt>
</event>
<event>
 5    1  0.6085374E+000  0.8118563E+02  0.7546771E-02  0.1325720E+00
         -2   -1    0    0    0  501 -0.00000000000E+00  0.00000000000E+00  0.87079079190E+02  0.87079079190E+02  0.00000000000E+00 0.  1.
          2   -1    0    0  501    0  0.00000000000E+00 -0.00000000000E+00 -0.18922762161E+02  0.18922762161E+02  0.00000000000E+00 0. -1.
         23    2    1    2    0    0  0.00000000000E+00  0.00000000000E+00  0.68156317029E+02  0.10600184135E+03  0.81185631849E+02 0.  0.
        -13    1    3    3    0    0  0.18613075869E+02 -0.33801070002E+02  0.50532624503E+02  0.63580697273E+02  0.00000000000E+00 0.  1.
         13    1    3    3    0    0 -0.18613075869E+02  0.33801070002E+02  0.17623692526E+02  0.42421144078E+02  0.00000000000E+00 0. -1.
<mgrwt>
<rscale>  0 0.81185632E+02</rscale>
<asrwt>0</asrwt>
<pdfrwt beam="2">  1        2 0.29111942E-02 0.81185632E+02</pdfrwt>
<pdfrwt beam="1">  1       -2 0.13396781E-01 0.81185632E+02</pdfrwt>
<totfact> 0.11068775E+05</totfact>
</mgrwt>
</event>
<event>
 5    1  0.6085374E+000  0.8795488E+02  0.7546771E-02  0.1307881E+00
         -1   -1    0    0    0  501 -0.00000000000E+00  0.00000000000E+00  0.10214485792E+03  0.10214485792E+03  0.00000000000E+00 0.  1.
          1   -1    0    0  501    0  0.00000000000E+00 -0.00000000000E+00 -0.18934042253E+02  0.18934042253E+02  0.00000000000E+00 0. -1.
         23    2    1    2    0    0  0.00000000000E+00  0.00000000000E+00  0.83210815670E+02  0.12107890018E+03  0.87954876063E+02 0.  0.
        -13    1    3    3    0    0  0.90004591277E+01  0.38920087112E+02  0.16288134690E+02  0.43140291804E+02  0.00000000000E+00 0. -1.
         13    1    3    3    0    0 -0.90004591277E+01 -0.38920087112E+02  0.66922680980E+02  0.77938608371E+02  0.00000000000E+00 0.  1.
<mgrwt>
<rscale>  0 0.87954876E+02</rscale>
<asrwt>0</asrwt>
<pdfrwt beam="2">  1        1 0.29129296E-02 0.87954876E+02</pdfrwt>
<pdfrwt beam="1">  1       -1 0.15714593E-01 0.87954876E+02</pdfrwt>
<totfact> 0.88908003E+04</totfact>
</mgrwt>
</event>
<event>
 5    1  0.6085374E+000  0.9205401E+02  0.7546771E-02  0.1297952E+00
          2   -1    0    0  501    0  0.00000000000E+00  0.00000000000E+00  0.35200306411E+02  0.35200306411E+02  0.00000000000E+00 0. -1.
         -2   -1    0    0    0  501 -0.00000000000E+00 -0.00000000000E+00 -0.60183708374E+02  0.60183708374E+02  0.00000000000E+00 0.  1.
         23    2    1    2    0    0  0.00000000000E+00  0.00000000000E+00 -0.24983401963E+02  0.95384014785E+02  0.92054005360E+02 0.  0.
        -13    1    3    3    0    0  0.20343805389E+02 -0.27553320466E+02 -0.44351819628E+02  0.56036950227E+02  0.00000000000E+00 0.  1.
         13    1    3    3    0    0 -0.20343805389E+02  0.27553320466E+02  0.19368417665E+02  0.39347064558E+02  0.00000000000E+00 0. -1.
<mgrwt>
<rscale>  0 0.92054005E+02</rscale>
<asrwt>0</asrwt>
<pdfrwt beam="1">  1        2 0.54154318E-02 0.92054005E+02</pdfrwt>
<pdfrwt beam="2">  1       -2 0.92590319E-02 0.92054005E+02</pdfrwt>
<totfact> 0.89720047E+04</totfact>
</mgrwt>
</event>
<event>
 5    1  0.6085374E+000  0.8994371E+02  0.7546771E-02  0.1302988E+00
          2   -1    0    0  501    0  0.00000000000E+00  0.00000000000E+00  0.24806413717E+03  0.24806413717E+03  0.00000000000E+00 0. -1.
         -2   -1    0    0    0  501 -0.00000000000E+00 -0.00000000000E+00 -0.81530040319E+01  0.81530040319E+01  0.00000000000E+00 0.  1.
         23    2    1    2    0    0  0.00000000000E+00  0.00000000000E+00  0.23991113314E+03  0.25621714120E+03  0.89943713744E+02 0.  0.
        -13    1    3    3    0    0  0.39265586456E+02 -0.16035172527E+02  0.77363429056E+02  0.88227054768E+02  0.00000000000E+00 0.  1.
         13    1    3    3    0    0 -0.39265586456E+02  0.16035172527E+02  0.16254770408E+03  0.16799008643E+03  0.00000000000E+00 0. -1.
<mgrwt>
<rscale>  0 0.89943714E+02</rscale>
<asrwt>0</asrwt>
<pdfrwt beam="1">  1        2 0.38163708E-01 0.89943714E+02</pdfrwt>
<pdfrwt beam="2">  1       -2 0.12543085E-02 0.89943714E+02</pdfrwt>
<totfact> 0.17358731E+05</totfact>
</mgrwt>
</event>
<event>
 5    1  0.6085374E+000  0.9292430E+02  0.7546771E-02  0.1295921E+00
          3   -1    0    0  501    0  0.00000000000E+00  0.00000000000E+00  0.15763819084E+02  0.15763819084E+02  0.00000000000E+00 0. -1.
         -3   -1    0    0    0  501 -0.00000000000E+00 -0.00000000000E+00 -0.13694216739E+03  0.13694216739E+03  0.00000000000E+00 0.  1.
         23    2    1    2    0    0  0.00000000000E+00  0.00000000000E+00 -0.12117834830E+03  0.15270598647E+03  0.92924303638E+02 0.  0.
        -13    1    3    3    0    0  0.31058892831E+02 -0.29985403497E+02 -0.32366208662E+02  0.53956933845E+02  0.00000000000E+00 0. -1.
         13    1    3    3    0    0 -0.31058892831E+02  0.29985403497E+02 -0.88812139643E+02  0.98749052627E+02  0.00000000000E+00 0.  1.
<mgrwt>
<rscale>  0 0.92924304E+02</rscale>
<asrwt>0</asrwt>
<pdfrwt beam="1">  1        3 0.24252029E-02 0.92924304E+02</pdfrwt>
<pdfrwt beam="2">  1       -3 0.21068026E-01 0.92924304E+02</pdfrwt>
<totfact> 0.29578951E+04</totfact>
</mgrwt>
</event>
<event>
 5    1  0.6085374E+000  0.9520171E+02  0.7546771E-02  0.1290722E+00
         -3   -1    0    0    0  501 -0.00000000000E+00  0.00000000000E+00  0.58548041329E+02  0.58548041329E+02  0.00000000000E+00 0.  1.
          3   -1    0    0  501    0  0.00000000000E+00 -0.00000000000E+00 -0.38700549593E+02  0.38700549593E+02  0.00000000000E+00 0. -1.
         23    2    1    2    0    0  0.00000000000E+00  0.00000000000E+00  0.19847491736E+02  0.97248590923E+02  0.95201709587E+02 0.  0.
        -13    1    3    3    0    0 -0.37274098555E+02 -0.19019754139E+02  0.33099245985E+02  0.53354189671E+02  0.00000000000E+00 0.  1.
         13    1    3    3    0    0  0.37274098555E+02  0.19019754139E+02 -0.13251754249E+02  0.43894401252E+02  0.00000000000E+00 0. -1.
<mgrwt>
<rscale>  0 0.95201710E+02</rscale>
<asrwt>0</asrwt>
<pdfrwt beam="2">  1        3 0.59539307E-02 0.95201710E+02</pdfrwt>
<pdfrwt beam="1">  1       -3 0.90073910E-02 0.95201710E+02</pdfrwt>
<totfact> 0.30993665E+04</totfact>
</mgrwt>
</event>
<event>
 5    1  0.6085374E+000  0.8977998E+02  0.7546771E-02  0.1303385E+00
          1   -1    0    0  501    0  0.00000000000E+00  0.00000000000E+00  0.12825557392E+02  0.12825557392E+02  0.00000000000E+00 0. -1.
         -1   -1    0    0    0  501 -0.00000000000E+00 -0.00000000000E+00 -0.15711686341E+03  0.15711686341E+03  0.00000000000E+00 0.  1.
         23    2    1    2    0    0  0.00000000000E+00  0.00000000000E+00 -0.14429130601E+03  0.16994242080E+03  0.89779983269E+02 0.  0.
        -13    1    3    3    0    0 -0.30401464198E+02  0.30438141950E+02 -0.47876803055E+02  0.64365501486E+02  0.00000000000E+00 0.  1.
         13    1    3    3    0    0  0.30401464198E+02 -0.30438141950E+02 -0.96414502960E+02  0.10557691931E+03  0.00000000000E+00 0. -1.
<mgrwt>
<rscale>  0 0.89779983E+02</rscale>
<asrwt>0</asrwt>
<pdfrwt beam="1">  1        1 0.19731626E-02 0.89779983E+02</pdfrwt>
<pdfrwt beam="2">  1       -1 0.24171825E-01 0.89779983E+02</pdfrwt>
<totfact> 0.76991826E+04</totfact>
</mgrwt>
</event>
<event>
 5    1  0.6085374E+000  0.9152829E+02  0.7546771E-02  0.1299192E+00
         -2   -1    0    0    0  501 -0.00000000000E+00  0.00000000000E+00  0.25315592901E+02  0.25315592901E+02  0.00000000000E+00 0.  1.
          2   -1    0    0  501    0  0.00000000000E+00 -0.00000000000E+00 -0.82729917712E+02  0.82729917712E+02  0.00000000000E+00 0. -1.
         23    2    1    2    0    0  0.00000000000E+00  0.00000000000E+00 -0.57414324811E+02  0.10804551061E+03  0.91528288905E+02 0.  0.
        -13    1    3    3    0    0 -0.15530519610E+02 -0.25304584476E+02  0.12403337667E+02  0.32177038710E+02  0.00000000000E+00 0.  1.
         13    1    3    3    0    0  0.15530519610E+02  0.25304584476E+02 -0.69817662479E+02  0.75868471903E+02  0.00000000000E+00 0. -1.
<mgrwt>
<rscale>  0 0.91528289E+02</rscale>
<asrwt>0</asrwt>
<pdfrwt beam="2">  1        2 0.12727680E-01 0.91528289E+02</pdfrwt>
<pdfrwt beam="1">  1       -2 0.38947066E-02 0.91528289E+02</pdfrwt>
<totfact> 0.11473528E+05</totfact>
</mgrwt>
</event>
<event>
 5    1  0.6085374E+000  0.8794992E+02  0.7546771E-02  0.1307894E+00
         -2   -1    0    0    0  501 -0.00000000000E+00  0.00000000000E+00  0.50841577198E+01  0.50841577198E+01  0.00000000000E+00 0.  1.
          2   -1    0    0  501    0  0.00000000000E+00 -0.00000000000E+00 -0.38035742668E+03  0.38035742668E+03  0.00000000000E+00 0. -1.
         23    2    1    2    0    0  0.00000000000E+00  0.00000000000E+00 -0.37527326896E+03  0.38544158440E+03  0.87949920913E+02 0.  0.
        -13    1    3    3    0    0  0.14634994638E+02  0.40770745929E+02 -0.15444496999E+03  0.16040475538E+03  0.00000000000E+00 0.  1.
         13    1    3    3    0    0 -0.14634994638E+02 -0.40770745929E+02 -0.22082829897E+03  0.22503682902E+03  0.00000000000E+00 0. -1.
<mgrwt>
<rscale>  0 0.87949921E+02</rscale>
<asrwt>0</asrwt>
<pdfrwt beam="2">  1        2 0.58516560E-01 0.87949921E+02</pdfrwt>
<pdfrwt beam="1">  1       -2 0.78217767E-03 0.87949921E+02</pdfrwt>
<totfact> 0.21568644E+05</totfact>
</mgrwt>
</event>
<event>
 5    1  0.6085374E+000  0.8912302E+02  0.7546771E-02  0.1304989E+00
          2   -1    0    0  501    0  0.00000000000E+00  0.00000000000E+00  0.73728013856E+02  0.73728013856E+02  0.00000000000E+00 0. -1.
         -2   -1    0    0    0  501 -0.00000000000E+00 -0.00000000000E+00 -0.26933155987E+02  0.26933155987E+02  0.00000000000E+00 0.  1.
         23    2    1    2    0    0  0.00000000000E+00  0.00000000000E+00  0.46794857869E+02  0.10066116984E+03  0.89123018302E+02 0.  0.
        -13    1    3    3    0    0  0.33867276945E+02 -0.19460342296E+02 -0.82766712394E+00  0.39068944225E+02  0.00000000000E+00 0.  1.
         13    1    3    3    0    0 -0.33867276945E+02  0.19460342296E+02  0.47622524993E+02  0.61592225619E+02  0.00000000000E+00 0. -1.
<mgrwt>
<rscale>  0 0.89123018E+02</rscale>
<asrwt>0</asrwt>
<pdfrwt beam="1">  1        2 0.11342771E-01 0.89123018E+02</pdfrwt>
<pdfrwt beam="2">  1       -2 0.41435625E-02 0.89123018E+02</pdfrwt>
<totfact> 0.11957688E+05</totfact>
</mgrwt>
</event>
<event>
 5    1  0.6085374E+000  0.9017110E+02  0.7546771E-02  0.1302438E+00
          2   -1    0    0  501    0  0.00000000000E+00  0.00000000000E+00  0.45281805752E+02  0.45281805752E+02  0.00000000000E+00 0. -1.
         -2   -1    0    0    0  501 -0.00000000000E+00 -0.00000000000E+00 -0.44890140569E+02  0.44890140569E+02  0.00000000000E+00 0.  1.
         23    2    1    2    0    0  0.00000000000E+00  0.00000000000E+00  0.39166518307E+00  0.90171946321E+02  0.90171095711E+02 0.  0.
        -13    1    3    3    0    0  0.12805300743E+02 -0.25128778523E+02  0.35371089968E+02  0.45238758192E+02  0.00000000000E+00 0. -1.
         13    1    3    3    0    0 -0.12805300743E+02  0.25128778523E+02 -0.34979424785E+02  0.44933188129E+02  0.00000000000E+00 0.  1.
<mgrwt>
<rscale>  0 0.90171096E+02</rscale>
<asrwt>0</asrwt>
<pdfrwt beam="1">  1        2 0.69664317E-02 0.90171096E+02</pdfrwt>
<pdfrwt beam="2">  1       -2 0.69061754E-02 0.90171096E+02</pdfrwt>
<totfact> 0.10168338E+05</totfact>
</mgrwt>
</event>
<event>
 5    1  0.6085374E+000  0.9134866E+02  0.7546771E-02  0.1299618E+00
         -1   -1    0    0    0  501 -0.00000000000E+00  0.00000000000E+00  0.10876109570E+02  0.10876109570E+02  0.00000000000E+00 0.  1.
          1   -1    0    0  501    0  0.00000000000E+00 -0.00000000000E+00 -0.19180980203E+03  0.19180980203E+03  0.00000000000E+00 0. -1.
         23    2    1    2    0    0  0.00000000000E+00  0.00000000000E+00 -0.18093369246E+03  0.20268591160E+03  0.91348660055E+02 0.  0.
        -13    1    3    3    0    0 -0.43598915043E+02 -0.13127882755E+02 -0.98447718076E+02  0.10846732177E+03  0.00000000000E+00 0.  1.
         13    1    3    3    0    0  0.43598915043E+02  0.13127882755E+02 -0.82485974380E+02  0.94218589822E+02  0.00000000000E+00 0. -1.
<mgrwt>
<rscale>  0 0.91348660E+02</rscale>
<asrwt>0</asrwt>
<pdfrwt beam="2">  1        1 0.29509198E-01 0.91348660E+02</pdfrwt>
<pdfrwt beam="1">  1       -1 0.16732477E-02 0.91348660E+02</pdfrwt>
<totfact> 0.11685935E+05</totfact>
</mgrwt>
</event>
<event>
 5    1  0.6085374E+000  0.9147875E+02  0.7546771E-02  0.1299310E+00
         -2   -1    0    0    0  501 -0.00000000000E+00  0.00000000000E+00  0.48931660430E+02  0.48931660430E+02  0.00000000000E+00 0.  1.
          2   -1    0    0  501    0  0.00000000000E+00 -0.00000000000E+00 -0.42755353391E+02  0.42755353391E+02  0.00000000000E+00 0. -1.
         23    2    1    2    0    0  0.00000000000E+00  0.00000000000E+00  0.61763070390E+01  0.91687013820E+02  0.91478750181E+02 0.  0.
        -13    1    3    3    0    0  0.34155116997E+00 -0.20146618419E+02 -0.38067325952E+02  0.43071152713E+02  0.00000000000E+00 0. -1.
         13    1    3    3    0    0 -0.34155116997E+00  0.20146618419E+02  0.44243632991E+02  0.48615861107E+02  0.00000000000E+00 0.  1.
<mgrwt>
<rscale>  0 0.91478750E+02</rscale>
<asrwt>0</asrwt>
<pdfrwt beam="2">  1        2 0.65777467E-02 0.91478750E+02</pdfrwt>
<pdfrwt beam="1">  1       -2 0.75279478E-02 0.91478750E+02</pdfrwt>
<totfact> 0.96125666E+04</totfact>
</mgrwt>
</event>
<event>
 5    1  0.6085374E+000  0.9061982E+02  0.7546771E-02  0.1301358E+00
         -3   -1    0    0    0  501 -0.00000000000E+00  0.00000000000E+00  0.26791585261E+02  0.26791585261E+02  0.00000000000E+00 0.  1.
          3   -1    0    0  501    0  0.00000000000E+00 -0.00000000000E+00 -0.76628079882E+02  0.76628079882E+02  0.00000000000E+00 0. -1.
         23    2    1    2    0    0  0.00000000000E+00  0.00000000000E+00 -0.49836494621E+02  0.10341966514E+03  0.90619815395E+02 0.  0.
        -13    1    3    3    0    0  0.12994128907E+02 -0.12553621073E+02  0.22502582583E+02  0.28858395849E+02  0.00000000000E+00 0.  1.
         13    1    3    3    0    0 -0.12994128907E+02  0.12553621073E+02 -0.72339077204E+02  0.74561269294E+02  0.00000000000E+00 0. -1.
<mgrwt>
<rscale>  0 0.90619815E+02</rscale>
<asrwt>0</asrwt>
<pdfrwt beam="2">  1        3 0.11788935E-01 0.90619815E+02</pdfrwt>
<pdfrwt beam="1">  1       -3 0.41217824E-02 0.90619815E+02</pdfrwt>
<totfact> 0.34997371E+04</totfact>
</mgrwt>
</event>
<event>
 5    1  0.6085374E+000  0.8805063E+02  0.7546771E-02  0.1307642E+00
          4   -1    0    0  501    0  0.00000000000E+00  0.00000000000E+00  0.33472813538E+02  0.33472813538E+02  0.00000000000E+00 0. -1.
         -4   -1    0    0    0  501 -0.00000000000E+00 -0.00000000000E+00 -0.57904548706E+02  0.57904548706E+02  0.00000000000E+00 0.  1.
         23    2    1    2    0    0  0.00000000000E+00  0.00000000000E+00 -0.24431735168E+02  0.91377362245E+02  0.88050625480E+02 0.  0.
        -13    1    3    3    0    0  0.25656127338E+02 -0.35040756271E+02 -0.47224849853E+01  0.43685161490E+02  0.00000000000E+00 0. -1.
         13    1    3    3    0    0 -0.25656127338E+02  0.35040756271E+02 -0.19709250183E+02  0.47692200754E+02  0.00000000000E+00 0.  1.
<mgrwt>
<rscale>  0 0.88050625E+02</rscale>
<asrwt>0</asrwt>
<pdfrwt beam="1">  1        4 0.51496637E-02 0.88050625E+02</pdfrwt>
<pdfrwt beam="2">  1       -4 0.89083920E-02 0.88050625E+02</pdfrwt>
<totfact> 0.29674078E+04</totfact>
</mgrwt>
</event>
<event>
 5    1  0.6085374E+000  0.9207024E+02  0.7546771E-02  0.1297914E+00
          4   -1    0    0  501    0  0.00000000000E+00  0.00000000000E+00  0.18380064228E+02  0.18380064228E+02  0.00000000000E+00 0. -1.
         -4   -1    0    0    0  501 -0.00000000000E+00 -0.00000000000E+00 -0.11530059686E+03  0.11530059686E+03  0.00000000000E+00 0.  1.
         23    2    1    2    0    0  0.00000000000E+00  0.00000000000E+00 -0.96920532635E+02  0.13368066109E+03  0.92070242225E+02 0.  0.
        -13    1    3    3    0    0  0.36568906018E+00 -0.44403405800E+02 -0.66090227837E+02  0.79622323444E+02  0.00000000000E+00 0.  1.
         13    1    3    3    0    0 -0.36568906018E+00  0.44403405800E+02 -0.30830304798E+02  0.54058337646E+02  0.00000000000E+00 0. -1.
<mgrwt>
<rscale>  0 0.92070242E+02</rscale>
<asrwt>0</asrwt>
<pdfrwt beam="1">  1        4 0.28277022E-02 0.92070242E+02</pdfrwt>
<pdfrwt beam="2">  1       -4 0.17738553E-01 0.92070242E+02</pdfrwt>
<totfact> 0.23881436E+04</totfact>
</mgrwt>
</event>
<event>
 5    1  0.6085374E+000  0.9068580E+02  0.7546771E-02  0.1301199E+00
          2   -1    0    0  501    0  0.00000000000E+00  0.00000000000E+00  0.22156858493E+03  0.22156858493E+03  0.00000000000E+00 0. -1.
         -2   -1    0    0    0  501 -0.00000000000E+00 -0.00000000000E+00 -0.92791964940E+01  0.92791964940E+01  0.00000000000E+00 0.  1.
         23    2    1    2    0    0  0.00000000000E+00  0.00000000000E+00  0.21228938844E+03  0.23084778143E+03  0.90685796826E+02 0.  0.
        -13    1    3    3    0    0 -0.25347605851E+02  0.30095023751E+02  0.48783444071E+02  0.62674045604E+02  0.00000000000E+00 0.  1.
         13    1    3    3    0    0  0.25347605851E+02 -0.30095023751E+02  0.16350594437E+03  0.16817373582E+03  0.00000000000E+00 0. -1.
<mgrwt>
<rscale>  0 0.90685797E+02</rscale>
<asrwt>0</asrwt>
<pdfrwt beam="1">  1        2 0.34087471E-01 0.90685797E+02</pdfrwt>
<pdfrwt beam="2">  1       -2 0.14275689E-02 0.90685797E+02</pdfrwt>
<totfact> 0.16290160E+05</totfact>
</mgrwt>
</event>
<event>
 5    1  0.6085374E+000  0.9121065E+02  0.7546771E-02  0.1299946E+00
          4   -1    0    0  501    0  0.00000000000E+00  0.00000000000E+00  0.32923332527E+03  0.32923332527E+03  0.00000000000E+00 0. -1.
         -4   -1    0    0    0  501 -0.00000000000E+00 -0.00000000000E+00 -0.63172388729E+01  0.63172388729E+01  0.00000000000E+00 0.  1.
         23    2    1    2    0    0  0.00000000000E+00  0.00000000000E+00  0.32291608640E+03  0.33555056414E+03  0.91210647638E+02 0.  0.
        -13    1    3    3    0    0 -0.42986629619E+02 -0.11744879987E+02  0.19713590563E+03  0.20210976676E+03  0.00000000000E+00 0. -1.
         13    1    3    3    0    0  0.42986629619E+02  0.11744879987E+02  0.12578018077E+03  0.13344079738E+03  0.00000000000E+00 0.  1.
<mgrwt>
<rscale>  0 0.91210648E+02</rscale>
<asrwt>0</asrwt>
<pdfrwt beam="1">  1        4 0.50651268E-01 0.91210648E+02</pdfrwt>
<pdfrwt beam="2">  1       -4 0.97188316E-03 0.91210648E+02</pdfrwt>
<totfact> 0.16771614E+04</totfact>
</mgrwt>
</event>
<event>
 5    1  0.6085374E+000  0.9459829E+02  0.7546771E-02  0.1292083E+00
         -1   -1    0    0    0  501 -0.00000000000E+00  0.00000000000E+00  0.25429224479E+02  0.25429224479E+02  0.00000000000E+00 0.  1.
          1   -1    0    0  501    0  0.00000000000E+00 -0.00000000000E+00 -0.87977875040E+02  0.87977875040E+02  0.00000000000E+00 0. -1.
         23    2    1    2    0    0  0.00000000000E+00  0.00000000000E+00 -0.62548650560E+02  0.11340709952E+03  0.94598290336E+02 0.  0.
        -13    1    3    3    0    0 -0.34076102610E+02  0.14155635631E+02 -0.66749237140E+02  0.76269413581E+02  0.00000000000E+00 0. -1.
         13    1    3    3    0    0  0.34076102610E+02 -0.14155635631E+02  0.42005865798E+01  0.37137685938E+02  0.00000000000E+00 0.  1.
<mgrwt>
<rscale>  0 0.94598290E+02</rscale>
<asrwt>0</asrwt>
<pdfrwt beam="2">  1        1 0.13535058E-01 0.94598290E+02</pdfrwt>
<pdfrwt beam="1">  1       -1 0.39121883E-02 0.94598290E+02</pdfrwt>
<totfact> 0.92444281E+04</totfact>
</mgrwt>
</event>
<event>
 5    1  0.6085374E+000  0.9114193E+02  0.7546771E-02  0.1300110E+00
          1   -1    0    0  501    0  0.00000000000E+00  0.00000000000E+00  0.25696430275E+02  0.25696430275E+02  0.00000000000E+00 0. -1.
         -1   -1    0    0    0  501 -0.00000000000E+00 -0.00000000000E+00 -0.80817181124E+02  0.80817181124E+02  0.00000000000E+00 0.  1.
         23    2    1    2    0    0  0.00000000000E+00  0.00000000000E+00 -0.55120750848E+02  0.10651361140E+03  0.91141934581E+02 0.  0.
        -13    1    3    3    0    0 -0.16402540567E+02  0.19268606766E+02 -0.71852155182E+02  0.76177783823E+02  0.00000000000E+00 0.  1.
         13    1    3    3    0    0  0.16402540567E+02 -0.19268606766E+02  0.16731404334E+02  0.30335827577E+02  0.00000000000E+00 0. -1.
<mgrwt>
<rscale>  0 0.91141935E+02</rscale>
<asrwt>0</asrwt>
<pdfrwt beam="1">  1        1 0.39532970E-02 0.91141935E+02</pdfrwt>
<pdfrwt beam="2">  1       -1 0.12433412E-01 0.91141935E+02</pdfrwt>
<totfact> 0.84587996E+04</totfact>
</mgrwt>
</event>
<event>
 5    1  0.6085374E+000  0.9143525E+02  0.7546771E-02  0.1299413E+00
         -2   -1    0    0    0  501 -0.00000000000E+00  0.00000000000E+00  0.71142675593E+02  0.71142675593E+02  0.00000000000E+00 0.  1.
          2   -1    0    0  501    0  0.00000000000E+00 -0.00000000000E+00 -0.29379007081E+02  0.29379007081E+02  0.00000000000E+00 0. -1.
         23    2    1    2    0    0  0.00000000000E+00  0.00000000000E+00  0.41763668511E+02  0.10052168267E+03  0.91435248565E+02 0.  0.
        -13    1    3    3    0    0  0.38507612830E+02  0.10755224027E+01  0.47947653123E+02  0.61505856911E+02  0.00000000000E+00 0.  1.
         13    1    3    3    0    0 -0.38507612830E+02 -0.10755224027E+01 -0.61839846118E+01  0.39015825763E+02  0.00000000000E+00 0. -1.
<mgrwt>
<rscale>  0 0.91435249E+02</rscale>
<asrwt>0</asrwt>
<pdfrwt beam="2">  1        2 0.45198473E-02 0.91435249E+02</pdfrwt>
<pdfrwt beam="1">  1       -2 0.10945027E-01 0.91435249E+02</pdfrwt>
<totfact> 0.87234155E+04</totfact>
</mgrwt>
</event>
<event>
 5    1  0.6085374E+000  0.9579006E+02  0.7546771E-02  0.1289407E+00
          1   -1    0    0  501    0  0.00000000000E+00  0.00000000000E+00  0.14403553298E+02  0.14403553298E+02  0.00000000000E+00 0. -1.
         -1   -1    0    0    0  501 -0.00000000000E+00 -0.00000000000E+00 -0.15926166755E+03  0.15926166755E+03  0.00000000000E+00 0.  1.
         23    2    1    2    0    0  0.00000000000E+00  0.00000000000E+00 -0.14485811426E+03  0.17366522085E+03  0.95790060379E+02 0.  0.
        -13    1    3    3    0    0  0.34911427875E+02  0.61997191316E+01 -0.14055416846E+02  0.38141828172E+02  0.00000000000E+00 0. -1.
         13    1    3    3    0    0 -0.34911427875E+02 -0.61997191316E+01 -0.13080269741E+03  0.13552339268E+03  0.00000000000E+00 0.  1.
<mgrwt>
<rscale>  0 0.95790060E+02</rscale>
<asrwt>0</asrwt>
<pdfrwt beam="1">  1        1 0.22159313E-02 0.95790060E+02</pdfrwt>
<pdfrwt beam="2">  1       -1 0.24501794E-01 0.95790060E+02</pdfrwt>
<totfact> 0.64837090E+04</totfact>
</mgrwt>
</event>
<event>
 5    1  0.6085374E+000  0.8818382E+02  0.7546771E-02  0.1307310E+00
          2   -1    0    0  501    0  0.00000000000E+00  0.00000000000E+00  0.15714192500E+03  0.15714192500E+03  0.00000000000E+00 0. -1.
         -2   -1    0    0    0  501 -0.00000000000E+00 -0.00000000000E+00 -0.12371596759E+02  0.12371596759E+02  0.00000000000E+00 0.  1.
         23    2    1    2    0    0  0.00000000000E+00  0.00000000000E+00  0.14477032824E+03  0.16951352176E+03  0.88183820058E+02 0.  0.
        -13    1    3    3    0    0 -0.37033568794E+02  0.14533304082E+02  0.35842000815E+02  0.53547653240E+02  0.00000000000E+00 0.  1.
         13    1    3    3    0    0  0.37033568794E+02 -0.14533304082E+02  0.10892832743E+03  0.11596586852E+03  0.00000000000E+00 0. -1.
<mgrwt>
<rscale>  0 0.88183820E+02</rscale>
<asrwt>0</asrwt>
<pdfrwt beam="1">  1        2 0.24175679E-01 0.88183820E+02</pdfrwt>
<pdfrwt beam="2">  1       -2 0.19033227E-02 0.88183820E+02</pdfrwt>
<totfact> 0.15546034E+05</totfact>
</mgrwt>
</event>
<event>
 5    1  0.6085374E+000  0.9127976E+02  0.7546771E-02  0.1299782E+00
         -2   -1    0    0    0  501 -0.00000000000E+00  0.00000000000E+00  0.12682267889E+03  0.12682267889E+03  0.00000000000E+00 0.  1.
          2   -1    0    0  501    0  0.00000000000E+00 -0.00000000000E+00 -0.16424497090E+02  0.16424497090E+02  0.00000000000E+00 0. -1.
         23    2    1    2    0    0  0.00000000000E+00  0.00000000000E+00  0.11039818180E+03  0.14324717598E+03  0.91279761620E+02 0.  0.
        -13    1    3    3    0    0  0.87566961384E+01  0.32056233150E+02  0.10429441344E+03  0.10946052478E+03  0.00000000000E+00 0.  1.
         13    1    3    3    0    0 -0.87566961384E+01 -0.32056233150E+02  0.61037683637E+01  0.33786651200E+02  0.00000000000E+00 0. -1.
<mgrwt>
<rscale>  0 0.91279762E+02</rscale>
<asrwt>0</asrwt>
<pdfrwt beam="2">  1        2 0.25268458E-02 0.91279762E+02</pdfrwt>
<pdfrwt beam="1">  1       -2 0.19511181E-01 0.91279762E+02</pdfrwt>
<totfact> 0.73849557E+04</totfact>
</mgrwt>
</event>
<event>
 5    1  0.6085374E+000  0.9291310E+02  0.7546771E-02  0.1295947E+00
         -1   -1    0    0    0  501 -0.00000000000E+00  0.00000000000E+00  0.16148442075E+02  0.16148442075E+02  0.00000000000E+00 0.  1.
          1   -1    0    0  501    0  0.00000000000E+00 -0.00000000000E+00 -0.13364826032E+03  0.13364826032E+03  0.00000000000E+00 0. -1.
         23    2    1    2    0    0  0.00000000000E+00  0.00000000000E+00 -0.11749981824E+03  0.14979670239E+03  0.92913103275E+02 0.  0.
        -13    1    3    3    0    0 -0.29816952746E+02 -0.81019882328E+01 -0.28190310480E+01  0.31026437443E+02  0.00000000000E+00 0.  1.
         13    1    3    3    0    0  0.29816952746E+02  0.81019882328E+01 -0.11468078719E+03  0.11877026495E+03  0.00000000000E+00 0. -1.
<mgrwt>
<rscale>  0 0.92913103E+02</rscale>
<asrwt>0</asrwt>
<pdfrwt beam="2">  1        1 0.20561271E-01 0.92913103E+02</pdfrwt>
<pdfrwt beam="1">  1       -1 0.24843757E-02 0.92913103E+02</pdfrwt>
<totfact> 0.10433513E+05</totfact>
</mgrwt>
</event>
<event>
 5    1  0.6085374E+000  0.8989565E+02  0.7546771E-02  0.1303105E+00
          2   -1    0    0  501    0  0.00000000000E+00  0.00000000000E+00  0.12759787943E+03  0.12759787943E+03  0.00000000000E+00 0. -1.
         -2   -1    0    0    0  501 -0.00000000000E+00 -0.00000000000E+00 -0.15833390607E+02  0.15833390607E+02  0.00000000000E+00 0.  1.
         23    2    1    2    0    0  0.00000000000E+00  0.00000000000E+00  0.11176448882E+03  0.14343127004E+03  0.89895652077E+02 0.  0.
        -13    1    3    3    0    0  0.24696666523E+02  0.35209045544E+02  0.35035988038E+02  0.55471818821E+02  0.00000000000E+00 0.  1.
         13    1    3    3    0    0 -0.24696666523E+02 -0.35209045544E+02  0.76728500785E+02  0.87959451216E+02  0.00000000000E+00 0. -1.
<mgrwt>
<rscale>  0 0.89895652E+02</rscale>
<asrwt>0</asrwt>
<pdfrwt beam="1">  1        2 0.19630442E-01 0.89895652E+02</pdfrwt>
<pdfrwt beam="2">  1       -2 0.24359063E-02 0.89895652E+02</pdfrwt>
<totfact> 0.13767515E+05</totfact>
</mgrwt>
</event>
<event>
 5    1  0.6085374E+000  0.8700194E+02  0.7546771E-02  0.1310279E+00
          3   -1    0    0  501    0  0.00000000000E+00  0.00000000000E+00  0.14271539012E+03  0.14271539012E+03  0.00000000000E+00 0. -1.
         -3   -1    0    0    0  501 -0.00000000000E+00 -0.00000000000E+00 -0.13259498989E+02  0.13259498989E+02  0.00000000000E+00 0.  1.
         23    2    1    2    0    0  0.00000000000E+00  0.00000000000E+00  0.12945589113E+03  0.15597488911E+03  0.87001944138E+02 0.  0.
        -13    1    3    3    0    0  0.39104003911E+02 -0.18293291231E+02  0.55145913329E+02  0.70034558490E+02  0.00000000000E+00 0. -1.
         13    1    3    3    0    0 -0.39104003911E+02  0.18293291231E+02  0.74309977799E+02  0.85940330616E+02  0.00000000000E+00 0.  1.
<mgrwt>
<rscale>  0 0.87001944E+02</rscale>
<asrwt>0</asrwt>
<pdfrwt beam="1">  1        3 0.21956213E-01 0.87001944E+02</pdfrwt>
<pdfrwt beam="2">  1       -3 0.20399230E-02 0.87001944E+02</pdfrwt>
<totfact> 0.35112898E+04</totfact>
</mgrwt>
</event>
<event>
 5    1  0.6085374E+000  0.9229664E+02  0.7546771E-02  0.1297383E+00
          2   -1    0    0  501    0  0.00000000000E+00  0.00000000000E+00  0.88809336181E+02  0.88809336181E+02  0.00000000000E+00 0. -1.
         -2   -1    0    0    0  501 -0.00000000000E+00 -0.00000000000E+00 -0.23980221293E+02  0.23980221293E+02  0.00000000000E+00 0.  1.
         23    2    1    2    0    0  0.00000000000E+00  0.00000000000E+00  0.64829114888E+02  0.11278955747E+03  0.92296642073E+02 0.  0.
        -13    1    3    3    0    0  0.32539871487E+02 -0.36987223710E+01  0.72147434672E+02  0.79232418323E+02  0.00000000000E+00 0. -1.
         13    1    3    3    0    0 -0.32539871487E+02  0.36987223710E+01 -0.73183197840E+01  0.33557139151E+02  0.00000000000E+00 0.  1.
<mgrwt>
<rscale>  0 0.92296642E+02</rscale>
<asrwt>0</asrwt>
<pdfrwt beam="1">  1        2 0.13662975E-01 0.92296642E+02</pdfrwt>
<pdfrwt beam="2">  1       -2 0.36892648E-02 0.92296642E+02</pdfrwt>
<totfact> 0.11445358E+05</totfact>
</mgrwt>
</event>
<event>
 5    1  0.6085374E+000  0.9076239E+02  0.7546771E-02  0.1301016E+00
          3   -1    0    0  501    0  0.00000000000E+00  0.00000000000E+00  0.17976731896E+02  0.17976731896E+02  0.00000000000E+00 0. -1.
         -3   -1    0    0    0  501 -0.00000000000E+00 -0.00000000000E+00 -0.11456213361E+03  0.11456213361E+03  0.00000000000E+00 0.  1.
         23    2    1    2    0    0  0.00000000000E+00  0.00000000000E+00 -0.96585401718E+02  0.13253886551E+03  0.90762387834E+02 0.  0.
        -13    1    3    3    0    0 -0.15246677242E+02  0.41170474322E+02 -0.65069047230E+02  0.78494904486E+02  0.00000000000E+00 0.  1.
         13    1    3    3    0    0  0.15246677242E+02 -0.41170474322E+02 -0.31516354487E+02  0.54043961023E+02  0.00000000000E+00 0. -1.
<mgrwt>
<rscale>  0 0.90762388E+02</rscale>
<asrwt>0</asrwt>
<pdfrwt beam="1">  1        3 0.27656511E-02 0.90762388E+02</pdfrwt>
<pdfrwt beam="2">  1       -3 0.17624943E-01 0.90762388E+02</pdfrwt>
<totfact> 0.32813827E+04</totfact>
</mgrwt>
</event>
<event>
 5    1  0.6085374E+000  0.9116375E+02  0.7546771E-02  0.1300058E+00
          1   -1    0    0  501    0  0.00000000000E+00  0.00000000000E+00  0.14252760721E+02  0.14252760721E+02  0.00000000000E+00 0. -1.
         -1   -1    0    0    0  501 -0.00000000000E+00 -0.00000000000E+00 -0.14577577279E+03  0.14577577279E+03  0.00000000000E+00 0.  1.
         23    2    1    2    0    0  0.00000000000E+00  0.00000000000E+00 -0.13152301207E+03  0.16002853351E+03  0.91163747368E+02 0.  0.
        -13    1    3    3    0    0  0.40395444175E+01  0.24365804362E+02 -0.13301168433E+03  0.13528532260E+03  0.00000000000E+00 0.  1.
         13    1    3    3    0    0 -0.40395444175E+01 -0.24365804362E+02  0.14886722618E+01  0.24743210915E+02  0.00000000000E+00 0. -1.
<mgrwt>
<rscale>  0 0.91163747E+02</rscale>
<asrwt>0</asrwt>
<pdfrwt beam="1">  1        1 0.21927324E-02 0.91163747E+02</pdfrwt>
<pdfrwt beam="2">  1       -1 0.22427042E-01 0.91163747E+02</pdfrwt>
<totfact> 0.75313921E+04</totfact>
</mgrwt>
</event>
<event>
 5    1  0.6085374E+000  0.8865286E+02  0.7546771E-02  0.1306147E+00
         -4   -1    0    0    0  501 -0.00000000000E+00  0.00000000000E+00  0.33376373364E+02  0.33376373364E+02  0.00000000000E+00 0.  1.
          4   -1    0    0  501    0  0.00000000000E+00 -0.00000000000E+00 -0.58868960263E+02  0.58868960263E+02  0.00000000000E+00 0. -1.
         23    2    1    2    0    0  0.00000000000E+00  0.00000000000E+00 -0.25492586899E+02  0.92245333627E+02  0.88652860016E+02 0.  0.
        -13    1    3    3    0    0  0.15868243861E+02 -0.53848580769E+01  0.29953635473E+02  0.34322268833E+02  0.00000000000E+00 0.  1.
         13    1    3    3    0    0 -0.15868243861E+02  0.53848580769E+01 -0.55446222373E+02  0.57923064794E+02  0.00000000000E+00 0. -1.
<mgrwt>
<rscale>  0 0.88652860E+02</rscale>
<asrwt>0</asrwt>
<pdfrwt beam="2">  1        4 0.90567631E-02 0.88652860E+02</pdfrwt>
<pdfrwt beam="1">  1       -4 0.51348267E-02 0.88652860E+02</pdfrwt>
<totfact> 0.29072717E+04</totfact>
</mgrwt>
</event>
<event>
 4    1  0.6085374E+000  0.1296128E+03  0.7546771E-02  0.1228031E+00
         -1   -1    0    0    0  501 -0.00000000000E+00  0.00000000000E+00  0.53554755154E+02  0.53554755154E+02  0.00000000000E+00 0. -1.
          1   -1    0    0  501    0  0.00000000000E+00 -0.00000000000E+00 -0.78421945079E+02  0.78421945079E+02  0.00000000000E+00 0.  1.
        -13    1    1    2    0    0 -0.22304755425E+02 -0.33473444038E+02  0.39305483841E+02  0.56239617978E+02  0.00000000000E+00 0. -1.
         13    1    1    2    0    0  0.22304755425E+02  0.33473444038E+02 -0.64172673766E+02  0.75737082256E+02  0.00000000000E+00 0.  1.
<mgrwt>
<rscale>  0 0.12961278E+03</rscale>
<asrwt>0</asrwt>
<pdfrwt beam="2">  1        1 0.12064915E-01 0.12961278E+03</pdfrwt>
<pdfrwt beam="1">  1       -1 0.82391931E-02 0.12961278E+03</pdfrwt>
<totfact> 0.37234843E+04</totfact>
</mgrwt>
</event>
<event>
 5    1  0.6085374E+000  0.9070247E+02  0.7546771E-02  0.1301159E+00
          2   -1    0    0  501    0  0.00000000000E+00  0.00000000000E+00  0.12337380662E+03  0.12337380662E+03  0.00000000000E+00 0. -1.
         -2   -1    0    0    0  501 -0.00000000000E+00 -0.00000000000E+00 -0.16670754211E+02  0.16670754211E+02  0.00000000000E+00 0.  1.
         23    2    1    2    0    0  0.00000000000E+00  0.00000000000E+00  0.10670305241E+03  0.14004456083E+03  0.90702467581E+02 0.  0.
        -13    1    3    3    0    0 -0.33084705990E+02  0.99590416194E+01  0.79948732835E+01  0.35464042060E+02  0.00000000000E+00 0.  1.
         13    1    3    3    0    0  0.33084705990E+02 -0.99590416194E+01  0.98708179127E+02  0.10458051877E+03  0.00000000000E+00 0. -1.
<mgrwt>
<rscale>  0 0.90702468E+02</rscale>
<asrwt>0</asrwt>
<pdfrwt beam="1">  1        2 0.18980585E-01 0.90702468E+02</pdfrwt>
<pdfrwt beam="2">  1       -2 0.25647315E-02 0.90702468E+02</pdfrwt>
<totfact> 0.13290698E+05</totfact>
</mgrwt>
</event>
<event>
 5    1  0.6085374E+000  0.9118475E+02  0.7546771E-02  0.1300008E+00
         -2   -1    0    0    0  501 -0.00000000000E+00  0.00000000000E+00  0.56178421491E+02  0.56178421491E+02  0.00000000000E+00 0.  1.
          2   -1    0    0  501    0  0.00000000000E+00 -0.00000000000E+00 -0.37001124143E+02  0.37001124143E+02  0.00000000000E+00 0. -1.
         23    2    1    2    0    0  0.00000000000E+00  0.00000000000E+00  0.19177297348E+02  0.93179545633E+02  0.91184751965E+02 0.  0.
        -13    1    3    3    0    0 -0.44329273942E+02 -0.23922801628E+01  0.20201277340E+02  0.48773959638E+02  0.00000000000E+00 0.  1.
         13    1    3    3    0    0  0.44329273942E+02  0.23922801628E+01 -0.10239799919E+01  0.44405585995E+02  0.00000000000E+00 0. -1.
<mgrwt>
<rscale>  0 0.91184752E+02</rscale>
<asrwt>0</asrwt>
<pdfrwt beam="2">  1        2 0.56924806E-02 0.91184752E+02</pdfrwt>
<pdfrwt beam="1">  1       -2 0.86428341E-02 0.91184752E+02</pdfrwt>
<totfact> 0.93457570E+04</totfact>
</mgrwt>
</event>
<event>
 5    1  0.6085374E+000  0.8013085E+02  0.7546771E-02  0.1328681E+00
         -1   -1    0    0    0  501 -0.00000000000E+00  0.00000000000E+00  0.11069493801E+02  0.11069493801E+02  0.00000000000E+00 0.  1.
          1   -1    0    0  501    0  0.00000000000E+00 -0.00000000000E+00 -0.14501459998E+03  0.14501459998E+03  0.00000000000E+00 0. -1.
         23    2    1    2    0    0  0.00000000000E+00  0.00000000000E+00 -0.13394510618E+03  0.15608409378E+03  0.80130848377E+02 0.  0.
        -13    1    3    3    0    0 -0.15362738621E+02 -0.32934969368E+02 -0.99828153418E+02  0.10623740471E+03  0.00000000000E+00 0. -1.
         13    1    3    3    0    0  0.15362738621E+02  0.32934969368E+02 -0.34116952758E+02  0.49846689064E+02  0.00000000000E+00 0.  1.
<mgrwt>
<rscale>  0 0.80130848E+02</rscale>
<asrwt>0</asrwt>
<pdfrwt beam="2">  1        1 0.22309936E-01 0.80130848E+02</pdfrwt>
<pdfrwt beam="1">  1       -1 0.17029993E-02 0.80130848E+02</pdfrwt>
<totfact> 0.15748332E+05</totfact>
</mgrwt>
</event>
<event>
 5    1  0.6085374E+000  0.8765847E+02  0.7546771E-02  0.1308623E+00
          1   -1    0    0  501    0  0.00000000000E+00  0.00000000000E+00  0.12358937837E+02  0.12358937837E+02  0.00000000000E+00 0. -1.
         -1   -1    0    0    0  501 -0.00000000000E+00 -0.00000000000E+00 -0.15543420782E+03  0.15543420782E+03  0.00000000000E+00 0.  1.
         23    2    1    2    0    0  0.00000000000E+00  0.00000000000E+00 -0.14307526998E+03  0.16779314566E+03  0.87658467070E+02 0.  0.
        -13    1    3    3    0    0  0.36741587351E+01  0.27630769206E+02 -0.13628192793E+03  0.13910328080E+03  0.00000000000E+00 0.  1.
         13    1    3    3    0    0 -0.36741587351E+01 -0.27630769206E+02 -0.67933420553E+01  0.28689864859E+02  0.00000000000E+00 0. -1.
<mgrwt>
<rscale>  0 0.87658467E+02</rscale>
<asrwt>0</asrwt>
<pdfrwt beam="1">  1        1 0.19013752E-02 0.87658467E+02</pdfrwt>
<pdfrwt beam="2">  1       -1 0.23912954E-01 0.87658467E+02</pdfrwt>
<totfact> 0.82124919E+04</totfact>
</mgrwt>
</event>
<event>
 5    1  0.6085374E+000  0.9174226E+02  0.7546771E-02  0.1298687E+00
         -1   -1    0    0    0  501 -0.00000000000E+00  0.00000000000E+00  0.76736687648E+02  0.76736687648E+02  0.00000000000E+00 0.  1.
          1   -1    0    0  501    0  0.00000000000E+00 -0.00000000000E+00 -0.27420531270E+02  0.27420531270E+02  0.00000000000E+00 0. -1.
         23    2    1    2    0    0  0.00000000000E+00  0.00000000000E+00  0.49316156378E+02  0.10415721892E+03  0.91742263830E+02 0.  0.
        -13    1    3    3    0    0  0.29618746473E+02 -0.85686157428E+01  0.63216829952E+02  0.70335331858E+02  0.00000000000E+00 0.  1.
         13    1    3    3    0    0 -0.29618746473E+02  0.85686157428E+01 -0.13900673574E+02  0.33821887059E+02  0.00000000000E+00 0. -1.
<mgrwt>
<rscale>  0 0.91742264E+02</rscale>
<asrwt>0</asrwt>
<pdfrwt beam="2">  1        1 0.42185433E-02 0.91742264E+02</pdfrwt>
<pdfrwt beam="1">  1       -1 0.11805644E-01 0.91742264E+02</pdfrwt>
<totfact> 0.83906156E+04</totfact>
</mgrwt>
</event>
<event>
 5    1  0.6085374E+000  0.9429306E+02  0.7546771E-02  0.1292776E+00
         -2   -1    0    0    0  501 -0.00000000000E+00  0.00000000000E+00  0.32026685282E+02  0.32026685282E+02  0.00000000000E+00 0.  1.
          2   -1    0    0  501    0  0.00000000000E+00 -0.00000000000E+00 -0.69404481940E+02  0.69404481940E+02  0.00000000000E+00 0. -1.
         23    2    1    2    0    0  0.00000000000E+00  0.00000000000E+00 -0.37377796658E+02  0.10143116722E+03  0.94293064438E+02 0.  0.
        -13    1    3    3    0    0  0.45683430442E+01  0.46856685337E+02 -0.21405290296E+02  0.51716585072E+02  0.00000000000E+00 0.  1.
         13    1    3    3    0    0 -0.45683430442E+01 -0.46856685337E+02 -0.15972506362E+02  0.49714582151E+02  0.00000000000E+00 0. -1.
<mgrwt>
<rscale>  0 0.94293064E+02</rscale>
<asrwt>0</asrwt>
<pdfrwt beam="2">  1        2 0.10677613E-01 0.94293064E+02</pdfrwt>
<pdfrwt beam="1">  1       -2 0.49271824E-02 0.94293064E+02</pdfrwt>
<totfact> 0.10041566E+05</totfact>
</mgrwt>
</event>
<event>
 5    1  0.6085374E+000  0.9113557E+02  0.7546771E-02  0.1300125E+00
         -2   -1    0    0    0  501 -0.00000000000E+00  0.00000000000E+00  0.12490464630E+02  0.12490464630E+02  0.00000000000E+00 0.  1.
          2   -1    0    0  501    0  0.00000000000E+00 -0.00000000000E+00 -0.16624063925E+03  0.16624063925E+03  0.00000000000E+00 0. -1.
         23    2    1    2    0    0  0.00000000000E+00  0.00000000000E+00 -0.15375017462E+03  0.17873110388E+03  0.91135565498E+02 0.  0.
        -13    1    3    3    0    0  0.21360040704E+02  0.26892892514E+02 -0.18140372355E+02  0.38840083880E+02  0.00000000000E+00 0.  1.
         13    1    3    3    0    0 -0.21360040704E+02 -0.26892892514E+02 -0.13560980226E+03  0.13989102000E+03  0.00000000000E+00 0. -1.
<mgrwt>
<rscale>  0 0.91135565E+02</rscale>
<asrwt>0</asrwt>
<pdfrwt beam="2">  1        2 0.25575480E-01 0.91135565E+02</pdfrwt>
<pdfrwt beam="1">  1       -2 0.19216102E-02 0.91135565E+02</pdfrwt>
<totfact> 0.14502193E+05</totfact>
</mgrwt>
</event>
<event>
 5    1  0.6085374E+000  0.6602052E+02  0.7546771E-02  0.1374173E+00
         -1   -1    0    0    0  501 -0.00000000000E+00  0.00000000000E+00  0.19193296337E+03  0.19193296337E+03  0.00000000000E+00 0.  1.
          1   -1    0    0  501    0  0.00000000000E+00 -0.00000000000E+00 -0.56773843996E+01  0.56773843996E+01  0.00000000000E+00 0. -1.
         23    2    1    2    0    0  0.00000000000E+00  0.00000000000E+00  0.18625557897E+03  0.19761034777E+03  0.66020518387E+02 0.  0.
        -13    1    3    3    0    0  0.34331878091E-01  0.27728592075E+02  0.39517425659E+02  0.48275282784E+02  0.00000000000E+00 0. -1.
         13    1    3    3    0    0 -0.34331878091E-01 -0.27728592075E+02  0.14673815331E+03  0.14933506499E+03  0.00000000000E+00 0.  1.
<mgrwt>
<rscale>  0 0.66020518E+02</rscale>
<asrwt>0</asrwt>
<pdfrwt beam="2">  1        1 0.87344390E-03 0.66020518E+02</pdfrwt>
<pdfrwt beam="1">  1       -1 0.29528143E-01 0.66020518E+02</pdfrwt>
<totfact> 0.16128864E+05</totfact>
</mgrwt>
</event>
<event>
 5    1  0.6085374E+000  0.8916789E+02  0.7546771E-02  0.1304879E+00
         -1   -1    0    0    0  501 -0.00000000000E+00  0.00000000000E+00  0.31788120115E+02  0.31788120115E+02  0.00000000000E+00 0.  1.
          1   -1    0    0  501    0  0.00000000000E+00 -0.00000000000E+00 -0.62530534555E+02  0.62530534555E+02  0.00000000000E+00 0. -1.
         23    2    1    2    0    0  0.00000000000E+00  0.00000000000E+00 -0.30742414440E+02  0.94318654671E+02  0.89167889811E+02 0.  0.
        -13    1    3    3    0    0  0.30491284709E+02  0.31446927423E+02 -0.65783592454E+01  0.44293368555E+02  0.00000000000E+00 0.  1.
         13    1    3    3    0    0 -0.30491284709E+02 -0.31446927423E+02 -0.24164055195E+02  0.50025286116E+02  0.00000000000E+00 0. -1.
<mgrwt>
<rscale>  0 0.89167890E+02</rscale>
<asrwt>0</asrwt>
<pdfrwt beam="2">  1        1 0.96200821E-02 0.89167890E+02</pdfrwt>
<pdfrwt beam="1">  1       -1 0.48904801E-02 0.89167890E+02</pdfrwt>
<totfact> 0.10313327E+05</totfact>
</mgrwt>
</event>
<event>
 5    1  0.6085374E+000  0.8430433E+02  0.7546771E-02  0.1317262E+00
         -1   -1    0    0    0  501 -0.00000000000E+00  0.00000000000E+00  0.30325247010E+02  0.30325247010E+02  0.00000000000E+00 0.  1.
          1   -1    0    0  501    0  0.00000000000E+00 -0.00000000000E+00 -0.58591604586E+02  0.58591604586E+02  0.00000000000E+00 0. -1.
         23    2    1    2    0    0  0.00000000000E+00  0.00000000000E+00 -0.28266357576E+02  0.88916851596E+02  0.84304326859E+02 0.  0.
        -13    1    3    3    0    0 -0.20631774985E+01  0.13741733571E+02 -0.56106413901E+02  0.57801571119E+02  0.00000000000E+00 0. -1.
         13    1    3    3    0    0  0.20631774985E+01 -0.13741733571E+02  0.27840056326E+02  0.31115280477E+02  0.00000000000E+00 0.  1.
<mgrwt>
<rscale>  0 0.84304327E+02</rscale>
<asrwt>0</asrwt>
<pdfrwt beam="2">  1        1 0.90140930E-02 0.84304327E+02</pdfrwt>
<pdfrwt beam="1">  1       -1 0.46654226E-02 0.84304327E+02</pdfrwt>
<totfact> 0.11919540E+05</totfact>
</mgrwt>
</event>
<event>
 5    1  0.6085374E+000  0.9077466E+02  0.7546771E-02  0.1300987E+00
          1   -1    0    0  501    0  0.00000000000E+00  0.00000000000E+00  0.31885288419E+02  0.31885288419E+02  0.00000000000E+00 0. -1.
         -1   -1    0    0    0  501 -0.00000000000E+00 -0.00000000000E+00 -0.64606895823E+02  0.64606895823E+02  0.00000000000E+00 0.  1.
         23    2    1    2    0    0  0.00000000000E+00  0.00000000000E+00 -0.32721607403E+02  0.96492184242E+02  0.90774655211E+02 0.  0.
        -13    1    3    3    0    0 -0.28602109486E+02 -0.12055317013E+02 -0.51561502748E+02  0.60183053271E+02  0.00000000000E+00 0.  1.
         13    1    3    3    0    0  0.28602109486E+02  0.12055317013E+02  0.18839895345E+02  0.36309130972E+02  0.00000000000E+00 0. -1.
<mgrwt>
<rscale>  0 0.90774655E+02</rscale>
<asrwt>0</asrwt>
<pdfrwt beam="1">  1        1 0.49054290E-02 0.90774655E+02</pdfrwt>
<pdfrwt beam="2">  1       -1 0.99395224E-02 0.90774655E+02</pdfrwt>
<totfact> 0.88646906E+04</totfact>
</mgrwt>
</event>
<event>
 5    1  0.6085374E+000  0.9036740E+02  0.7546771E-02  0.1301964E+00
          1   -1    0    0  501    0  0.00000000000E+00  0.00000000000E+00  0.10061013823E+02  0.10061013823E+02  0.00000000000E+00 0. -1.
         -1   -1    0    0    0  501 -0.00000000000E+00 -0.00000000000E+00 -0.20291858926E+03  0.20291858926E+03  0.00000000000E+00 0.  1.
         23    2    1    2    0    0  0.00000000000E+00  0.00000000000E+00 -0.19285757543E+03  0.21297960308E+03  0.90367399686E+02 0.  0.
        -13    1    3    3    0    0 -0.29648367294E+02  0.30080659009E+02 -0.58595052041E+02  0.72230546539E+02  0.00000000000E+00 0. -1.
         13    1    3    3    0    0  0.29648367294E+02 -0.30080659009E+02 -0.13426252339E+03  0.14074905654E+03  0.00000000000E+00 0.  1.
<mgrwt>
<rscale>  0 0.90367400E+02</rscale>
<asrwt>0</asrwt>
<pdfrwt beam="1">  1        1 0.15478482E-02 0.90367400E+02</pdfrwt>
<pdfrwt beam="2">  1       -1 0.31218247E-01 0.90367400E+02</pdfrwt>
<totfact> 0.70759961E+04</totfact>
</mgrwt>
</event>
<event>
 5    1  0.6085374E+000  0.9141308E+02  0.7546771E-02  0.1299465E+00
         -1   -1    0    0    0  501 -0.00000000000E+00  0.00000000000E+00  0.20715690111E+02  0.20715690111E+02  0.00000000000E+00 0.  1.
          1   -1    0    0  501    0  0.00000000000E+00 -0.00000000000E+00 -0.10084568002E+03  0.10084568002E+03  0.00000000000E+00 0. -1.
         23    2    1    2    0    0  0.00000000000E+00  0.00000000000E+00 -0.80129989913E+02  0.12156137014E+03  0.91413081261E+02 0.  0.
        -13    1    3    3    0    0 -0.35514718659E+02 -0.12451834132E+02 -0.55734778161E+01  0.38044803451E+02  0.00000000000E+00 0.  1.
         13    1    3    3    0    0  0.35514718659E+02  0.12451834132E+02 -0.74556512097E+02  0.83516566684E+02  0.00000000000E+00 0. -1.
<mgrwt>
<rscale>  0 0.91413081E+02</rscale>
<asrwt>0</asrwt>
<pdfrwt beam="2">  1        1 0.15514720E-01 0.91413081E+02</pdfrwt>
<pdfrwt beam="1">  1       -1 0.31870292E-02 0.91413081E+02</pdfrwt>
<totfact> 0.10386232E+05</totfact>
</mgrwt>
</event>
<event>
 5    1  0.6085374E+000  0.9119874E+02  0.7546771E-02  0.1299974E+00
         -1   -1    0    0    0  501 -0.00000000000E+00  0.00000000000E+00  0.23988406077E+02  0.23988406077E+02  0.00000000000E+00 0.  1.
          1   -1    0    0  501    0  0.00000000000E+00 -0.00000000000E+00 -0.86679474551E+02  0.86679474551E+02  0.00000000000E+00 0. -1.
         23    2    1    2    0    0  0.00000000000E+00  0.00000000000E+00 -0.62691068474E+02  0.11066788063E+03  0.91198737580E+02 0.  0.
        -13    1    3    3    0    0  0.31771301016E+02 -0.32652787914E+02 -0.33674122901E+02  0.56653037694E+02  0.00000000000E+00 0.  1.
         13    1    3    3    0    0 -0.31771301016E+02  0.32652787914E+02 -0.29016945573E+02  0.54014842934E+02  0.00000000000E+00 0. -1.
<mgrwt>
<rscale>  0 0.91198738E+02</rscale>
<asrwt>0</asrwt>
<pdfrwt beam="2">  1        1 0.13335304E-01 0.91198738E+02</pdfrwt>
<pdfrwt beam="1">  1       -1 0.36905240E-02 0.91198738E+02</pdfrwt>
<totfact> 0.10197196E+05</totfact>
</mgrwt>
</event>
<event>
 5    1  0.6085374E+000  0.8906566E+02  0.7546771E-02  0.1305130E+00
         -3   -1    0    0    0  501 -0.00000000000E+00  0.00000000000E+00  0.64498756982E+02  0.64498756982E+02  0.00000000000E+00 0.  1.
          3   -1    0    0  501    0  0.00000000000E+00 -0.00000000000E+00 -0.30747458535E+02  0.30747458535E+02  0.00000000000E+00 0. -1.
         23    2    1    2    0    0  0.00000000000E+00  0.00000000000E+00  0.33751298447E+02  0.95246215517E+02  0.89065657935E+02 0.  0.
        -13    1    3    3    0    0  0.56534806824E+01  0.31082185679E+02  0.50440099253E+02  0.59516953241E+02  0.00000000000E+00 0.  1.
         13    1    3    3    0    0 -0.56534806824E+01 -0.31082185679E+02 -0.16688800806E+02  0.35729262276E+02  0.00000000000E+00 0. -1.
<mgrwt>
<rscale>  0 0.89065658E+02</rscale>
<asrwt>0</asrwt>
<pdfrwt beam="2">  1        3 0.47303783E-02 0.89065658E+02</pdfrwt>
<pdfrwt beam="1">  1       -3 0.99228857E-02 0.89065658E+02</pdfrwt>
<totfact> 0.37329249E+04</totfact>
</mgrwt>
</event>
<event>
 5    1  0.6085374E+000  0.9130866E+02  0.7546771E-02  0.1299713E+00
         -1   -1    0    0    0  501 -0.00000000000E+00  0.00000000000E+00  0.10803176491E+02  0.10803176491E+02  0.00000000000E+00 0.  1.
          1   -1    0    0  501    0  0.00000000000E+00 -0.00000000000E+00 -0.19293564387E+03  0.19293564387E+03  0.00000000000E+00 0. -1.
         23    2    1    2    0    0  0.00000000000E+00  0.00000000000E+00 -0.18213246738E+03  0.20373882036E+03  0.91308659220E+02 0.  0.
        -13    1    3    3    0    0 -0.30044978658E+02  0.10355074419E+01 -0.16773227818E+03  0.17040507669E+03  0.00000000000E+00 0. -1.
         13    1    3    3    0    0  0.30044978658E+02 -0.10355074419E+01 -0.14400189200E+02  0.33333743672E+02  0.00000000000E+00 0.  1.
<mgrwt>
<rscale>  0 0.91308659E+02</rscale>
<asrwt>0</asrwt>
<pdfrwt beam="2">  1        1 0.29682404E-01 0.91308659E+02</pdfrwt>
<pdfrwt beam="1">  1       -1 0.16620273E-02 0.91308659E+02</pdfrwt>
<totfact> 0.11712928E+05</totfact>
</mgrwt>
</event>
<event>
 5    1  0.6085374E+000  0.8895861E+02  0.7546771E-02  0.1305393E+00
          2   -1    0    0  501    0  0.00000000000E+00  0.00000000000E+00  0.89720571667E+02  0.89720571667E+02  0.00000000000E+00 0. -1.
         -2   -1    0    0    0  501 -0.00000000000E+00 -0.00000000000E+00 -0.22050778330E+02  0.22050778330E+02  0.00000000000E+00 0.  1.
         23    2    1    2    0    0  0.00000000000E+00  0.00000000000E+00  0.67669793337E+02  0.11177135000E+03  0.88958606947E+02 0.  0.
        -13    1    3    3    0    0  0.44299174038E+02 -0.39951933540E+01  0.33617103799E+02  0.55753816535E+02  0.00000000000E+00 0.  1.
         13    1    3    3    0    0 -0.44299174038E+02  0.39951933540E+01  0.34052689538E+02  0.56017533462E+02  0.00000000000E+00 0. -1.
<mgrwt>
<rscale>  0 0.88958607E+02</rscale>
<asrwt>0</asrwt>
<pdfrwt beam="1">  1        2 0.13803165E-01 0.88958607E+02</pdfrwt>
<pdfrwt beam="2">  1       -2 0.33924275E-02 0.88958607E+02</pdfrwt>
<totfact> 0.12709546E+05</totfact>
</mgrwt>
</event>
<event>
 5    1  0.6085374E+000  0.9054659E+02  0.7546771E-02  0.1301533E+00
          3   -1    0    0  501    0  0.00000000000E+00  0.00000000000E+00  0.15680013706E+03  0.15680013706E+03  0.00000000000E+00 0. -1.
         -3   -1    0    0    0  501 -0.00000000000E+00 -0.00000000000E+00 -0.13071870911E+02  0.13071870911E+02  0.00000000000E+00 0.  1.
         23    2    1    2    0    0  0.00000000000E+00  0.00000000000E+00  0.14372826615E+03  0.16987200797E+03  0.90546588020E+02 0.  0.
        -13    1    3    3    0    0  0.39156216826E+02  0.18897986177E+02  0.95544897558E+02  0.10497223751E+03  0.00000000000E+00 0.  1.
         13    1    3    3    0    0 -0.39156216826E+02 -0.18897986177E+02  0.48183368590E+02  0.64899770464E+02  0.00000000000E+00 0. -1.
<mgrwt>
<rscale>  0 0.90546588E+02</rscale>
<asrwt>0</asrwt>
<pdfrwt beam="1">  1        3 0.24123097E-01 0.90546588E+02</pdfrwt>
<pdfrwt beam="2">  1       -3 0.20110572E-02 0.90546588E+02</pdfrwt>
<totfact> 0.30703564E+04</totfact>
</mgrwt>
</event>
<event>
 5    1  0.6085374E+000  0.9044519E+02  0.7546771E-02  0.1301777E+00
          2   -1    0    0  501    0  0.00000000000E+00  0.00000000000E+00  0.21705778935E+02  0.21705778935E+02  0.00000000000E+00 0. -1.
         -2   -1    0    0    0  501 -0.00000000000E+00 -0.00000000000E+00 -0.94218373656E+02  0.94218373656E+02  0.00000000000E+00 0.  1.
         23    2    1    2    0    0  0.00000000000E+00  0.00000000000E+00 -0.72512594721E+02  0.11592415259E+03  0.90445192027E+02 0.  0.
        -13    1    3    3    0    0 -0.13077679038E+02  0.42234568273E+02 -0.48435792867E+02  0.65580564780E+02  0.00000000000E+00 0.  1.
         13    1    3    3    0    0  0.13077679038E+02 -0.42234568273E+02 -0.24076801854E+02  0.50343587811E+02  0.00000000000E+00 0. -1.
<mgrwt>
<rscale>  0 0.90445192E+02</rscale>
<asrwt>0</asrwt>
<pdfrwt beam="1">  1        2 0.33393506E-02 0.90445192E+02</pdfrwt>
<pdfrwt beam="2">  1       -2 0.14495135E-01 0.90445192E+02</pdfrwt>
<totfact> 0.82859315E+04</totfact>
</mgrwt>
</event>
<event>
 5    1  0.6085374E+000  0.9259029E+02  0.7546771E-02  0.1296697E+00
         -1   -1    0    0    0  501 -0.00000000000E+00  0.00000000000E+00  0.95082690289E+02  0.95082690289E+02  0.00000000000E+00 0.  1.
          1   -1    0    0  501    0  0.00000000000E+00 -0.00000000000E+00 -0.22540804432E+02  0.22540804432E+02  0.00000000000E+00 0. -1.
         23    2    1    2    0    0  0.00000000000E+00  0.00000000000E+00  0.72541885857E+02  0.11762349472E+03  0.92590287323E+02 0.  0.
        -13    1    3    3    0    0  0.35849772473E+02 -0.25779234567E+02  0.53940679761E+02  0.69709196339E+02  0.00000000000E+00 0.  1.
         13    1    3    3    0    0 -0.35849772473E+02  0.25779234567E+02  0.18601206096E+02  0.47914298382E+02  0.00000000000E+00 0. -1.
<mgrwt>
<rscale>  0 0.92590287E+02</rscale>
<asrwt>0</asrwt>
<pdfrwt beam="2">  1        1 0.34678161E-02 0.92590287E+02</pdfrwt>
<pdfrwt beam="1">  1       -1 0.14628106E-01 0.92590287E+02</pdfrwt>
<totfact> 0.78938383E+04</totfact>
</mgrwt>
</event>
<event>
 5    1  0.6085374E+000  0.9468969E+02  0.7546771E-02  0.1291877E+00
         -1   -1    0    0    0  501 -0.00000000000E+00  0.00000000000E+00  0.26389664217E+02  0.26389664217E+02  0.00000000000E+00 0.  1.
          1   -1    0    0  501    0  0.00000000000E+00 -0.00000000000E+00 -0.84939857903E+02  0.84939857903E+02  0.00000000000E+00 0. -1.
         23    2    1    2    0    0  0.00000000000E+00  0.00000000000E+00 -0.58550193685E+02  0.11132952212E+03  0.94689689591E+02 0.  0.
        -13    1    3    3    0    0 -0.46083632561E+02  0.15854169435E+01 -0.16649288276E+02  0.49024621743E+02  0.00000000000E+00 0.  1.
         13    1    3    3    0    0  0.46083632561E+02 -0.15854169435E+01 -0.41900905409E+02  0.62304900377E+02  0.00000000000E+00 0. -1.
<mgrwt>
<rscale>  0 0.94689690E+02</rscale>
<asrwt>0</asrwt>
<pdfrwt beam="2">  1        1 0.13067670E-01 0.94689690E+02</pdfrwt>
<pdfrwt beam="1">  1       -1 0.40599484E-02 0.94689690E+02</pdfrwt>
<totfact> 0.91668948E+04</totfact>
</mgrwt>
</event>
<event>
 4    1  0.6085374E+000  0.3830976E+02  0.7546771E-02  0.1521031E+00
          4   -1    0    0  501    0  0.00000000000E+00  0.00000000000E+00  0.26389843937E+01  0.26389843937E+01  0.00000000000E+00 0. -1.
         -4   -1    0    0    0  501 -0.00000000000E+00 -0.00000000000E+00 -0.13903431641E+03  0.13903431641E+03  0.00000000000E+00 0.  1.
        -13    1    1    2    0    0  0.86539139331E+01  0.15439774472E+02 -0.95280414802E+02  0.96910444777E+02  0.00000000000E+00 0. -1.
         13    1    1    2    0    0 -0.86539139331E+01 -0.15439774472E+02 -0.41114917215E+02  0.44762856027E+02  0.00000000000E+00 0.  1.
<mgrwt>
<rscale>  0 0.38309758E+02</rscale>
<asrwt>0</asrwt>
<pdfrwt beam="1">  1        4 0.40599754E-03 0.38309758E+02</pdfrwt>
<pdfrwt beam="2">  1       -4 0.21389898E-01 0.38309758E+02</pdfrwt>
<totfact> 0.21378687E+05</totfact>
</mgrwt>
</event>
<event>
 5    1  0.6085374E+000  0.9205211E+02  0.7546771E-02  0.1297957E+00
         -2   -1    0    0    0  501 -0.00000000000E+00  0.00000000000E+00  0.71374427666E+01  0.71374427666E+01  0.00000000000E+00 0.  1.
          2   -1    0    0  501    0  0.00000000000E+00 -0.00000000000E+00 -0.29680063489E+03  0.29680063489E+03  0.00000000000E+00 0. -1.
         23    2    1    2    0    0  0.00000000000E+00  0.00000000000E+00 -0.28966319213E+03  0.30393807766E+03  0.92052105780E+02 0.  0.
        -13    1    3    3    0    0  0.46597910585E+01 -0.42649572213E+02 -0.89809431922E+02  0.99531069144E+02  0.00000000000E+00 0.  1.
         13    1    3    3    0    0 -0.46597910585E+01  0.42649572213E+02 -0.19985376020E+03  0.20440700852E+03  0.00000000000E+00 0. -1.
<mgrwt>
<rscale>  0 0.92052106E+02</rscale>
<asrwt>0</asrwt>
<pdfrwt beam="2">  1        2 0.45661626E-01 0.92052106E+02</pdfrwt>
<pdfrwt beam="1">  1       -2 0.10980684E-02 0.92052106E+02</pdfrwt>
<totfact> 0.17443402E+05</totfact>
</mgrwt>
</event>
<event>
 5    1  0.6085374E+000  0.9107586E+02  0.7546771E-02  0.1300267E+00
          2   -1    0    0  501    0  0.00000000000E+00  0.00000000000E+00  0.14652560516E+03  0.14652560516E+03  0.00000000000E+00 0. -1.
         -2   -1    0    0    0  501 -0.00000000000E+00 -0.00000000000E+00 -0.14152496053E+02  0.14152496053E+02  0.00000000000E+00 0.  1.
         23    2    1    2    0    0  0.00000000000E+00  0.00000000000E+00  0.13237310911E+03  0.16067810121E+03  0.91075859560E+02 0.  0.
        -13    1    3    3    0    0 -0.39044912917E+02  0.13142872622E+02  0.31955963202E+02  0.52138506975E+02  0.00000000000E+00 0.  1.
         13    1    3    3    0    0  0.39044912917E+02 -0.13142872622E+02  0.10041714591E+03  0.10853959424E+03  0.00000000000E+00 0. -1.
<mgrwt>
<rscale>  0 0.91075860E+02</rscale>
<asrwt>0</asrwt>
<pdfrwt beam="1">  1        2 0.22542400E-01 0.91075860E+02</pdfrwt>
<pdfrwt beam="2">  1       -2 0.21773072E-02 0.91075860E+02</pdfrwt>
<totfact> 0.13912112E+05</totfact>
</mgrwt>
</event>
<event>
 5    1  0.6085374E+000  0.9174757E+02  0.7546771E-02  0.1298674E+00
          3   -1    0    0  501    0  0.00000000000E+00  0.00000000000E+00  0.13597776531E+02  0.13597776531E+02  0.00000000000E+00 0. -1.
         -3   -1    0    0    0  501 -0.00000000000E+00 -0.00000000000E+00 -0.15476088706E+03  0.15476088706E+03  0.00000000000E+00 0.  1.
         23    2    1    2    0    0  0.00000000000E+00  0.00000000000E+00 -0.14116311053E+03  0.16835866359E+03  0.91747565807E+02 0.  0.
        -13    1    3    3    0    0  0.37590549887E+02  0.18009111407E+02 -0.10573675623E+03  0.11365579242E+03  0.00000000000E+00 0.  1.
         13    1    3    3    0    0 -0.37590549887E+02 -0.18009111407E+02 -0.35426354301E+02  0.54702871163E+02  0.00000000000E+00 0. -1.
<mgrwt>
<rscale>  0 0.91747566E+02</rscale>
<asrwt>0</asrwt>
<pdfrwt beam="1">  1        3 0.20919656E-02 0.91747566E+02</pdfrwt>
<pdfrwt beam="2">  1       -3 0.23809368E-01 0.91747566E+02</pdfrwt>
<totfact> 0.29714010E+04</totfact>
</mgrwt>
</event>
<event>
 5    1  0.6085374E+000  0.8889515E+02  0.7546771E-02  0.1305550E+00
         -1   -1    0    0    0  501 -0.00000000000E+00  0.00000000000E+00  0.81409677789E+01  0.81409677789E+01  0.00000000000E+00 0.  1.
          1   -1    0    0  501    0  0.00000000000E+00 -0.00000000000E+00 -0.24267226206E+03  0.24267226206E+03  0.00000000000E+00 0. -1.
         23    2    1    2    0    0  0.00000000000E+00  0.00000000000E+00 -0.23453129428E+03  0.25081322984E+03  0.88895153215E+02 0.  0.
        -13    1    3    3    0    0 -0.12275793903E+02  0.36825023822E+02 -0.56175581371E+02  0.68282306916E+02  0.00000000000E+00 0.  1.
         13    1    3    3    0    0  0.12275793903E+02 -0.36825023822E+02 -0.17835571291E+03  0.18253092292E+03  0.00000000000E+00 0. -1.
<mgrwt>
<rscale>  0 0.88895153E+02</rscale>
<asrwt>0</asrwt>
<pdfrwt beam="2">  1        1 0.37334194E-01 0.88895153E+02</pdfrwt>
<pdfrwt beam="1">  1       -1 0.12524566E-02 0.88895153E+02</pdfrwt>
<totfact> 0.13155478E+05</totfact>
</mgrwt>
</event>
<event>
 5    1  0.6085374E+000  0.9270761E+02  0.7546771E-02  0.1296424E+00
          1   -1    0    0  501    0  0.00000000000E+00  0.00000000000E+00  0.32139377757E+03  0.32139377757E+03  0.00000000000E+00 0. -1.
         -1   -1    0    0    0  501 -0.00000000000E+00 -0.00000000000E+00 -0.66854905778E+01  0.66854905778E+01  0.00000000000E+00 0.  1.
         23    2    1    2    0    0  0.00000000000E+00  0.00000000000E+00  0.31470828699E+03  0.32807926815E+03  0.92707606414E+02 0.  0.
        -13    1    3    3    0    0  0.39704592587E+02 -0.23766423750E+02  0.14774204817E+03  0.15481928294E+03  0.00000000000E+00 0. -1.
         13    1    3    3    0    0 -0.39704592587E+02  0.23766423750E+02  0.16696623882E+03  0.17325998521E+03  0.00000000000E+00 0.  1.
<mgrwt>
<rscale>  0 0.92707606E+02</rscale>
<asrwt>0</asrwt>
<pdfrwt beam="1">  1        1 0.49445184E-01 0.92707606E+02</pdfrwt>
<pdfrwt beam="2">  1       -1 0.10285373E-02 0.92707606E+02</pdfrwt>
<totfact> 0.12416108E+05</totfact>
</mgrwt>
</event>
<event>
 5    1  0.6085374E+000  0.8001759E+02  0.7546771E-02  0.1329002E+00
          4   -1    0    0  501    0  0.00000000000E+00  0.00000000000E+00  0.17685613508E+02  0.17685613508E+02  0.00000000000E+00 0. -1.
         -4   -1    0    0    0  501 -0.00000000000E+00 -0.00000000000E+00 -0.90508805994E+02  0.90508805994E+02  0.00000000000E+00 0.  1.
         23    2    1    2    0    0  0.00000000000E+00  0.00000000000E+00 -0.72823192486E+02  0.10819441950E+03  0.80017592112E+02 0.  0.
        -13    1    3    3    0    0  0.13084732207E+02  0.15450341352E+02 -0.83070576094E+02  0.85502303346E+02  0.00000000000E+00 0.  1.
         13    1    3    3    0    0 -0.13084732207E+02 -0.15450341352E+02  0.10247383608E+02  0.22692116156E+02  0.00000000000E+00 0. -1.
<mgrwt>
<rscale>  0 0.80017592E+02</rscale>
<asrwt>0</asrwt>
<pdfrwt beam="1">  1        4 0.27208637E-02 0.80017592E+02</pdfrwt>
<pdfrwt beam="2">  1       -4 0.13924431E-01 0.80017592E+02</pdfrwt>
<totfact> 0.36827414E+04</totfact>
</mgrwt>
</event>
<event>
 5    1  0.6085374E+000  0.9100320E+02  0.7546771E-02  0.1300440E+00
         -4   -1    0    0    0  501 -0.00000000000E+00  0.00000000000E+00  0.13268286231E+03  0.13268286231E+03  0.00000000000E+00 0. -1.
          4   -1    0    0  501    0  0.00000000000E+00 -0.00000000000E+00 -0.15604091687E+02  0.15604091687E+02  0.00000000000E+00 0.  1.
         23    2    1    2    0    0  0.00000000000E+00  0.00000000000E+00  0.11707877063E+03  0.14828695400E+03  0.91003198818E+02 0.  0.
        -13    1    3    3    0    0  0.27305640613E+02  0.34035537823E+02  0.37521139811E+02  0.57548690488E+02  0.00000000000E+00 0.  1.
         13    1    3    3    0    0 -0.27305640613E+02 -0.34035537823E+02  0.79557630814E+02  0.90738263511E+02  0.00000000000E+00 0. -1.
<mgrwt>
<rscale>  0 0.91003199E+02</rscale>
<asrwt>0</asrwt>
<pdfrwt beam="2">  1        4 0.24006296E-02 0.91003199E+02</pdfrwt>
<pdfrwt beam="1">  1       -4 0.20412747E-01 0.91003199E+02</pdfrwt>
<totfact> 0.23881757E+04</totfact>
</mgrwt>
</event>
<event>
 5    1  0.6085374E+000  0.9233503E+02  0.7546771E-02  0.1297294E+00
         -3   -1    0    0    0  501 -0.00000000000E+00  0.00000000000E+00  0.35010073265E+02  0.35010073265E+02  0.00000000000E+00 0.  1.
          3   -1    0    0  501    0  0.00000000000E+00 -0.00000000000E+00 -0.60880744740E+02  0.60880744740E+02  0.00000000000E+00 0. -1.
         23    2    1    2    0    0  0.00000000000E+00  0.00000000000E+00 -0.25870671475E+02  0.95890818005E+02  0.92335027671E+02 0.  0.
        -13    1    3    3    0    0  0.92876111846E+01 -0.35720132581E+02  0.15868132439E+02  0.40174434909E+02  0.00000000000E+00 0.  1.
         13    1    3    3    0    0 -0.92876111846E+01  0.35720132581E+02 -0.41738803914E+02  0.55716383096E+02  0.00000000000E+00 0. -1.
<mgrwt>
<rscale>  0 0.92335028E+02</rscale>
<asrwt>0</asrwt>
<pdfrwt beam="2">  1        3 0.93662683E-02 0.92335028E+02</pdfrwt>
<pdfrwt beam="1">  1       -3 0.53861652E-02 0.92335028E+02</pdfrwt>
<totfact> 0.33794404E+04</totfact>
</mgrwt>
</event>
<event>
 5    1  0.6085374E+000  0.9173753E+02  0.7546771E-02  0.1298698E+00
          4   -1    0    0  501    0  0.00000000000E+00  0.00000000000E+00  0.28699708695E+02  0.28699708695E+02  0.00000000000E+00 0. -1.
         -4   -1    0    0    0  501 -0.00000000000E+00 -0.00000000000E+00 -0.73308877032E+02  0.73308877032E+02  0.00000000000E+00 0.  1.
         23    2    1    2    0    0  0.00000000000E+00  0.00000000000E+00 -0.44609168338E+02  0.10200858573E+03  0.91737525922E+02 0.  0.
        -13    1    3    3    0    0 -0.18903117364E+02  0.91973017154E+01 -0.67636962707E+02  0.70828503649E+02  0.00000000000E+00 0.  1.
         13    1    3    3    0    0  0.18903117364E+02 -0.91973017154E+01  0.23027794369E+02  0.31180082079E+02  0.00000000000E+00 0. -1.
<mgrwt>
<rscale>  0 0.91737526E+02</rscale>
<asrwt>0</asrwt>
<pdfrwt beam="1">  1        4 0.44153398E-02 0.91737526E+02</pdfrwt>
<pdfrwt beam="2">  1       -4 0.11278289E-01 0.91737526E+02</pdfrwt>
<totfact> 0.25899635E+04</totfact>
</mgrwt>
</event>
<event>
 5    1  0.6085374E+000  0.9064237E+02  0.7546771E-02  0.1301304E+00
          1   -1    0    0  501    0  0.00000000000E+00  0.00000000000E+00  0.70556111301E+02  0.70556111301E+02  0.00000000000E+00 0. -1.
         -1   -1    0    0    0  501 -0.00000000000E+00 -0.00000000000E+00 -0.29111718008E+02  0.29111718008E+02  0.00000000000E+00 0.  1.
         23    2    1    2    0    0  0.00000000000E+00  0.00000000000E+00  0.41444393293E+02  0.99667829309E+02  0.90642365723E+02 0.  0.
        -13    1    3    3    0    0 -0.21714116821E+02 -0.38214200713E+02  0.32876405380E+02  0.54887940717E+02  0.00000000000E+00 0. -1.
         13    1    3    3    0    0  0.21714116821E+02  0.38214200713E+02  0.85679879128E+01  0.44779888592E+02  0.00000000000E+00 0.  1.
<mgrwt>
<rscale>  0 0.90642366E+02</rscale>
<asrwt>0</asrwt>
<pdfrwt beam="1">  1        1 0.10854786E-01 0.90642366E+02</pdfrwt>
<pdfrwt beam="2">  1       -1 0.44787259E-02 0.90642366E+02</pdfrwt>
<totfact> 0.10040053E+05</totfact>
</mgrwt>
</event>
<event>
 5    1  0.6085374E+000  0.6849542E+02  0.7546771E-02  0.1365285E+00
         -2   -1    0    0    0  501 -0.00000000000E+00  0.00000000000E+00  0.96054089800E+02  0.96054089800E+02  0.00000000000E+00 0.  1.
          2   -1    0    0  501    0  0.00000000000E+00 -0.00000000000E+00 -0.12210888278E+02  0.12210888278E+02  0.00000000000E+00 0. -1.
         23    2    1    2    0    0  0.00000000000E+00  0.00000000000E+00  0.83843201522E+02  0.10826497808E+03  0.68495423474E+02 0.  0.
        -13    1    3    3    0    0  0.21237181989E+02  0.26866557319E+02  0.42357226730E+02  0.54469849066E+02  0.00000000000E+00 0.  1.
         13    1    3    3    0    0 -0.21237181989E+02 -0.26866557319E+02  0.41485974792E+02  0.53795129012E+02  0.00000000000E+00 0. -1.
<mgrwt>
<rscale>  0 0.68495423E+02</rscale>
<asrwt>0</asrwt>
<pdfrwt beam="2">  1        2 0.18785983E-02 0.68495423E+02</pdfrwt>
<pdfrwt beam="1">  1       -2 0.14777552E-01 0.68495423E+02</pdfrwt>
<totfact> 0.16432454E+05</totfact>
</mgrwt>
</event>
<event>
 5    1  0.6085374E+000  0.9065154E+02  0.7546771E-02  0.1301282E+00
         -2   -1    0    0    0  501 -0.00000000000E+00  0.00000000000E+00  0.20084690402E+02  0.20084690402E+02  0.00000000000E+00 0. -1.
          2   -1    0    0  501    0  0.00000000000E+00 -0.00000000000E+00 -0.10228813978E+03  0.10228813978E+03  0.00000000000E+00 0.  1.
         23    2    1    2    0    0  0.00000000000E+00  0.00000000000E+00 -0.82203449382E+02  0.12237283019E+03  0.90651544264E+02 0.  0.
        -13    1    3    3    0    0 -0.84028763561E+01  0.33860592813E+02 -0.20406202258E+01  0.34947277542E+02  0.00000000000E+00 0. -1.
         13    1    3    3    0    0  0.84028763561E+01 -0.33860592813E+02 -0.80162829156E+02  0.87425552643E+02  0.00000000000E+00 0.  1.
<mgrwt>
<rscale>  0 0.90651544E+02</rscale>
<asrwt>0</asrwt>
<pdfrwt beam="2">  1        2 0.15736636E-01 0.90651544E+02</pdfrwt>
<pdfrwt beam="1">  1       -2 0.30899525E-02 0.90651544E+02</pdfrwt>
<totfact> 0.12550406E+05</totfact>
</mgrwt>
</event>
<event>
 5    1  0.6085374E+000  0.8870306E+02  0.7546771E-02  0.1306023E+00
         -4   -1    0    0    0  501 -0.00000000000E+00  0.00000000000E+00  0.61854060231E+02  0.61854060231E+02  0.00000000000E+00 0.  1.
          4   -1    0    0  501    0  0.00000000000E+00 -0.00000000000E+00 -0.31801600625E+02  0.31801600625E+02  0.00000000000E+00 0. -1.
         23    2    1    2    0    0  0.00000000000E+00  0.00000000000E+00  0.30052459605E+02  0.93655660856E+02  0.88703057907E+02 0.  0.
        -13    1    3    3    0    0 -0.29881475465E+02  0.25863589796E+02 -0.62280492885E+01  0.40007704896E+02  0.00000000000E+00 0. -1.
         13    1    3    3    0    0  0.29881475465E+02 -0.25863589796E+02  0.36280508894E+02  0.53647955960E+02  0.00000000000E+00 0.  1.
<mgrwt>
<rscale>  0 0.88703058E+02</rscale>
<asrwt>0</asrwt>
<pdfrwt beam="2">  1        4 0.48925540E-02 0.88703058E+02</pdfrwt>
<pdfrwt beam="1">  1       -4 0.95160092E-02 0.88703058E+02</pdfrwt>
<totfact> 0.28930311E+04</totfact>
</mgrwt>
</event>
<event>
 5    1  0.6085374E+000  0.9217489E+02  0.7546771E-02  0.1297669E+00
         -2   -1    0    0    0  501 -0.00000000000E+00  0.00000000000E+00  0.83377573821E+02  0.83377573821E+02  0.00000000000E+00 0.  1.
          2   -1    0    0  501    0  0.00000000000E+00 -0.00000000000E+00 -0.25475106179E+02  0.25475106179E+02  0.00000000000E+00 0. -1.
         23    2    1    2    0    0  0.00000000000E+00  0.00000000000E+00  0.57902467641E+02  0.10885268000E+03  0.92174889119E+02 0.  0.
        -13    1    3    3    0    0 -0.14752897482E+02  0.22164020288E+01  0.80447266014E+02  0.81818842763E+02  0.00000000000E+00 0.  1.
         13    1    3    3    0    0  0.14752897482E+02 -0.22164020288E+01 -0.22544798372E+02  0.27033837236E+02  0.00000000000E+00 0. -1.
<mgrwt>
<rscale>  0 0.92174889E+02</rscale>
<asrwt>0</asrwt>
<pdfrwt beam="2">  1        2 0.39192471E-02 0.92174889E+02</pdfrwt>
<pdfrwt beam="1">  1       -2 0.12827319E-01 0.92174889E+02</pdfrwt>
<totfact> 0.81879585E+04</totfact>
</mgrwt>
</event>
<event>
 5    1  0.6085374E+000  0.8648809E+02  0.7546771E-02  0.1311586E+00
         -1   -1    0    0    0  501 -0.00000000000E+00  0.00000000000E+00  0.43934341392E+02  0.43934341392E+02  0.00000000000E+00 0.  1.
          1   -1    0    0  501    0  0.00000000000E+00 -0.00000000000E+00 -0.42564590632E+02  0.42564590632E+02  0.00000000000E+00 0. -1.
         23    2    1    2    0    0  0.00000000000E+00  0.00000000000E+00  0.13697507607E+01  0.86498932024E+02  0.86488086024E+02 0.  0.
        -13    1    3    3    0    0 -0.44482232823E+01 -0.18818039383E+02  0.39369720333E+02  0.43862058498E+02  0.00000000000E+00 0.  1.
         13    1    3    3    0    0  0.44482232823E+01  0.18818039383E+02 -0.37999969572E+02  0.42636873526E+02  0.00000000000E+00 0. -1.
<mgrwt>
<rscale>  0 0.86488086E+02</rscale>
<asrwt>0</asrwt>
<pdfrwt beam="2">  1        1 0.65483986E-02 0.86488086E+02</pdfrwt>
<pdfrwt beam="1">  1       -1 0.67591294E-02 0.86488086E+02</pdfrwt>
<totfact> 0.10610907E+05</totfact>
</mgrwt>
</event>
<event>
 5    1  0.6085374E+000  0.8735648E+02  0.7546771E-02  0.1309383E+00
         -2   -1    0    0    0  501 -0.00000000000E+00  0.00000000000E+00  0.90224307953E+01  0.90224307953E+01  0.00000000000E+00 0.  1.
          2   -1    0    0  501    0  0.00000000000E+00 -0.00000000000E+00 -0.21144951557E+03  0.21144951557E+03  0.00000000000E+00 0. -1.
         23    2    1    2    0    0  0.00000000000E+00  0.00000000000E+00 -0.20242708478E+03  0.22047194637E+03  0.87356479346E+02 0.  0.
        -13    1    3    3    0    0  0.52347093465E+01  0.41519906885E+02 -0.69642213281E+02  0.81248647499E+02  0.00000000000E+00 0.  1.
         13    1    3    3    0    0 -0.52347093465E+01 -0.41519906885E+02 -0.13278487149E+03  0.13922329887E+03  0.00000000000E+00 0. -1.
<mgrwt>
<rscale>  0 0.87356479E+02</rscale>
<asrwt>0</asrwt>
<pdfrwt beam="2">  1        2 0.32530693E-01 0.87356479E+02</pdfrwt>
<pdfrwt beam="1">  1       -2 0.13880664E-02 0.87356479E+02</pdfrwt>
<totfact> 0.17702458E+05</totfact>
</mgrwt>
</event>
<event>
 5    1  0.6085374E+000  0.9558057E+02  0.7546771E-02  0.1289874E+00
         -1   -1    0    0    0  501 -0.00000000000E+00  0.00000000000E+00  0.39955413756E+02  0.39955413756E+02  0.00000000000E+00 0.  1.
          1   -1    0    0  501    0  0.00000000000E+00 -0.00000000000E+00 -0.57161493459E+02  0.57161493459E+02  0.00000000000E+00 0. -1.
         23    2    1    2    0    0  0.00000000000E+00  0.00000000000E+00 -0.17206079703E+02  0.97116907215E+02  0.95580565432E+02 0.  0.
        -13    1    3    3    0    0 -0.81304465204E+01 -0.43840596166E+02  0.88725162735E+01  0.45462331417E+02  0.00000000000E+00 0.  1.
         13    1    3    3    0    0  0.81304465204E+01  0.43840596166E+02 -0.26078595976E+02  0.51654575799E+02  0.00000000000E+00 0. -1.
<mgrwt>
<rscale>  0 0.95580565E+02</rscale>
<asrwt>0</asrwt>
<pdfrwt beam="2">  1        1 0.87940759E-02 0.95580565E+02</pdfrwt>
<pdfrwt beam="1">  1       -1 0.61469867E-02 0.95580565E+02</pdfrwt>
<totfact> 0.83865545E+04</totfact>
</mgrwt>
</event>
<event>
 5    1  0.6085374E+000  0.9541381E+02  0.7546771E-02  0.1290247E+00
          3   -1    0    0  501    0  0.00000000000E+00  0.00000000000E+00  0.42007271792E+02  0.42007271792E+02  0.00000000000E+00 0. -1.
         -3   -1    0    0    0  501 -0.00000000000E+00 -0.00000000000E+00 -0.54179875728E+02  0.54179875728E+02  0.00000000000E+00 0.  1.
         23    2    1    2    0    0  0.00000000000E+00  0.00000000000E+00 -0.12172603936E+02  0.96187147520E+02  0.95413809596E+02 0.  0.
        -13    1    3    3    0    0  0.65104099473E+01 -0.44136999685E+02  0.10947052511E+02  0.45937981427E+02  0.00000000000E+00 0. -1.
         13    1    3    3    0    0 -0.65104099473E+01  0.44136999685E+02 -0.23119656447E+02  0.50249166094E+02  0.00000000000E+00 0.  1.
<mgrwt>
<rscale>  0 0.95413810E+02</rscale>
<asrwt>0</asrwt>
<pdfrwt beam="1">  1        3 0.64626572E-02 0.95413810E+02</pdfrwt>
<pdfrwt beam="2">  1       -3 0.83353655E-02 0.95413810E+02</pdfrwt>
<totfact> 0.30874695E+04</totfact>
</mgrwt>
</event>
<event>
 5    1  0.6085374E+000  0.9285734E+02  0.7546771E-02  0.1296076E+00
         -2   -1    0    0    0  501 -0.00000000000E+00  0.00000000000E+00  0.26100343884E+02  0.26100343884E+02  0.00000000000E+00 0.  1.
          2   -1    0    0  501    0  0.00000000000E+00 -0.00000000000E+00 -0.82589777568E+02  0.82589777568E+02  0.00000000000E+00 0. -1.
         23    2    1    2    0    0  0.00000000000E+00  0.00000000000E+00 -0.56489433684E+02  0.10869012145E+03  0.92857344262E+02 0.  0.
        -13    1    3    3    0    0  0.41874048199E+02  0.20043771764E+02 -0.27474583380E+02  0.53944799851E+02  0.00000000000E+00 0. -1.
         13    1    3    3    0    0 -0.41874048199E+02 -0.20043771764E+02 -0.29014850304E+02  0.54745321601E+02  0.00000000000E+00 0.  1.
<mgrwt>
<rscale>  0 0.92857344E+02</rscale>
<asrwt>0</asrwt>
<pdfrwt beam="2">  1        2 0.12706120E-01 0.92857344E+02</pdfrwt>
<pdfrwt beam="1">  1       -2 0.40154375E-02 0.92857344E+02</pdfrwt>
<totfact> 0.11016982E+05</totfact>
</mgrwt>
</event>
<event>
 5    1  0.6085374E+000  0.9266897E+02  0.7546771E-02  0.1296514E+00
          2   -1    0    0  501    0  0.00000000000E+00  0.00000000000E+00  0.68022096092E+02  0.68022096092E+02  0.00000000000E+00 0. -1.
         -2   -1    0    0    0  501 -0.00000000000E+00 -0.00000000000E+00 -0.31561574504E+02  0.31561574504E+02  0.00000000000E+00 0.  1.
         23    2    1    2    0    0  0.00000000000E+00  0.00000000000E+00  0.36460521588E+02  0.99583670596E+02  0.92668968997E+02 0.  0.
        -13    1    3    3    0    0 -0.44182354392E+02 -0.94985428103E+01  0.29219854699E+02  0.53815450048E+02  0.00000000000E+00 0.  1.
         13    1    3    3    0    0  0.44182354392E+02  0.94985428103E+01  0.72406668892E+01  0.45768220549E+02  0.00000000000E+00 0. -1.
<mgrwt>
<rscale>  0 0.92668969E+02</rscale>
<asrwt>0</asrwt>
<pdfrwt beam="1">  1        2 0.10464938E-01 0.92668969E+02</pdfrwt>
<pdfrwt beam="2">  1       -2 0.48556269E-02 0.92668969E+02</pdfrwt>
<totfact> 0.10485681E+05</totfact>
</mgrwt>
</event>
<event>
 5    1  0.6085374E+000  0.1028536E+03  0.7546771E-02  0.1274407E+00
          3   -1    0    0  501    0  0.00000000000E+00  0.00000000000E+00  0.11975529730E+02  0.11975529730E+02  0.00000000000E+00 0. -1.
         -3   -1    0    0    0  501 -0.00000000000E+00 -0.00000000000E+00 -0.22084317729E+03  0.22084317729E+03  0.00000000000E+00 0.  1.
         23    2    1    2    0    0  0.00000000000E+00  0.00000000000E+00 -0.20886764756E+03  0.23281870702E+03  0.10285356650E+03 0.  0.
        -13    1    3    3    0    0 -0.18911833676E+02  0.41158529711E+02 -0.49310221978E+02  0.66956553171E+02  0.00000000000E+00 0. -1.
         13    1    3    3    0    0  0.18911833676E+02 -0.41158529711E+02 -0.15955742558E+03  0.16586215384E+03  0.00000000000E+00 0.  1.
<mgrwt>
<rscale>  0 0.10285357E+03</rscale>
<asrwt>0</asrwt>
<pdfrwt beam="1">  1        3 0.18423892E-02 0.10285357E+03</pdfrwt>
<pdfrwt beam="2">  1       -3 0.33975874E-01 0.10285357E+03</pdfrwt>
<totfact> 0.19383769E+04</totfact>
</mgrwt>
</event>
<event>
 5    1  0.6085374E+000  0.9349948E+02  0.7546771E-02  0.1294592E+00
          4   -1    0    0  501    0  0.00000000000E+00  0.00000000000E+00  0.21097512726E+02  0.21097512726E+02  0.00000000000E+00 0. -1.
         -4   -1    0    0    0  501 -0.00000000000E+00 -0.00000000000E+00 -0.10359222283E+03  0.10359222283E+03  0.00000000000E+00 0.  1.
         23    2    1    2    0    0  0.00000000000E+00  0.00000000000E+00 -0.82494710105E+02  0.12468973556E+03  0.93499481058E+02 0.  0.
        -13    1    3    3    0    0  0.39654386551E+02  0.56479225739E+01 -0.90979705363E+01  0.41074839866E+02  0.00000000000E+00 0. -1.
         13    1    3    3    0    0 -0.39654386551E+02 -0.56479225739E+01 -0.73396739568E+02  0.83614895691E+02  0.00000000000E+00 0.  1.
<mgrwt>
<rscale>  0 0.93499481E+02</rscale>
<asrwt>0</asrwt>
<pdfrwt beam="1">  1        4 0.32457712E-02 0.93499481E+02</pdfrwt>
<pdfrwt beam="2">  1       -4 0.15937265E-01 0.93499481E+02</pdfrwt>
<totfact> 0.23361671E+04</totfact>
</mgrwt>
</event>
<event>
 5    1  0.6085374E+000  0.9247695E+02  0.7546771E-02  0.1296962E+00
          2   -1    0    0  501    0  0.00000000000E+00  0.00000000000E+00  0.86088598514E+02  0.86088598514E+02  0.00000000000E+00 0. -1.
         -2   -1    0    0    0  501 -0.00000000000E+00 -0.00000000000E+00 -0.24834838386E+02  0.24834838386E+02  0.00000000000E+00 0.  1.
         23    2    1    2    0    0  0.00000000000E+00  0.00000000000E+00  0.61253760128E+02  0.11092343690E+03  0.92476946986E+02 0.  0.
        -13    1    3    3    0    0 -0.14254458248E+02 -0.88795941294E+01 -0.21047360178E+02  0.26926346620E+02  0.00000000000E+00 0.  1.
         13    1    3    3    0    0  0.14254458248E+02  0.88795941294E+01  0.82301120306E+02  0.83997090280E+02  0.00000000000E+00 0. -1.
<mgrwt>
<rscale>  0 0.92476947E+02</rscale>
<asrwt>0</asrwt>
<pdfrwt beam="1">  1        2 0.13244400E-01 0.92476947E+02</pdfrwt>
<pdfrwt beam="2">  1       -2 0.38207444E-02 0.92476947E+02</pdfrwt>
<totfact> 0.11279514E+05</totfact>
</mgrwt>
</event>
<event>
 5    1  0.6085374E+000  0.9109051E+02  0.7546771E-02  0.1300232E+00
          2   -1    0    0  501    0  0.00000000000E+00  0.00000000000E+00  0.34259933742E+03  0.34259933742E+03  0.00000000000E+00 0. -1.
         -2   -1    0    0    0  501 -0.00000000000E+00 -0.00000000000E+00 -0.60547990680E+01  0.60547990680E+01  0.00000000000E+00 0.  1.
         23    2    1    2    0    0  0.00000000000E+00  0.00000000000E+00  0.33654453835E+03  0.34865413649E+03  0.91090507714E+02 0.  0.
        -13    1    3    3    0    0  0.42597240985E+02  0.22643252011E+00  0.10657922427E+03  0.11477677142E+03  0.00000000000E+00 0.  1.
         13    1    3    3    0    0 -0.42597240985E+02 -0.22643252011E+00  0.22996531408E+03  0.23387736507E+03  0.00000000000E+00 0. -1.
<mgrwt>
<rscale>  0 0.91090508E+02</rscale>
<asrwt>0</asrwt>
<pdfrwt beam="1">  1        2 0.52707575E-01 0.91090508E+02</pdfrwt>
<pdfrwt beam="2">  1       -2 0.93150782E-03 0.91090508E+02</pdfrwt>
<totfact> 0.18918910E+05</totfact>
</mgrwt>
</event>
<event>
 5    1  0.6085374E+000  0.9192553E+02  0.7546771E-02  0.1298255E+00
         -4   -1    0    0    0  501 -0.00000000000E+00  0.00000000000E+00  0.10077995272E+03  0.10077995272E+03  0.00000000000E+00 0.  1.
          4   -1    0    0  501    0  0.00000000000E+00 -0.00000000000E+00 -0.20962259906E+02  0.20962259906E+02  0.00000000000E+00 0. -1.
         23    2    1    2    0    0  0.00000000000E+00  0.00000000000E+00  0.79817692818E+02  0.12174221263E+03  0.91925525558E+02 0.  0.
        -13    1    3    3    0    0  0.86530044449E+01  0.36369319914E+02  0.44968765469E+01  0.37654001323E+02  0.00000000000E+00 0. -1.
         13    1    3    3    0    0 -0.86530044449E+01 -0.36369319914E+02  0.75320816271E+02  0.84088211306E+02  0.00000000000E+00 0.  1.
<mgrwt>
<rscale>  0 0.91925526E+02</rscale>
<asrwt>0</asrwt>
<pdfrwt beam="2">  1        4 0.32249631E-02 0.91925526E+02</pdfrwt>
<pdfrwt beam="1">  1       -4 0.15504608E-01 0.91925526E+02</pdfrwt>
<totfact> 0.24622961E+04</totfact>
</mgrwt>
</event>
<event>
 5    1  0.6085374E+000  0.9084798E+02  0.7546771E-02  0.1300811E+00
          1   -1    0    0  501    0  0.00000000000E+00  0.00000000000E+00  0.37856002056E+03  0.37856002056E+03  0.00000000000E+00 0. -1.
         -1   -1    0    0    0  501 -0.00000000000E+00 -0.00000000000E+00 -0.54504936590E+01  0.54504936590E+01  0.00000000000E+00 0.  1.
         23    2    1    2    0    0  0.00000000000E+00  0.00000000000E+00  0.37310952690E+03  0.38401051422E+03  0.90847982732E+02 0.  0.
        -13    1    3    3    0    0 -0.44849771233E+02 -0.68941360376E+01  0.19532801634E+03  0.20052946182E+03  0.00000000000E+00 0. -1.
         13    1    3    3    0    0  0.44849771233E+02  0.68941360376E+01  0.17778151056E+03  0.18348105240E+03  0.00000000000E+00 0.  1.
<mgrwt>
<rscale>  0 0.90847983E+02</rscale>
<asrwt>0</asrwt>
<pdfrwt beam="1">  1        1 0.58239983E-01 0.90847983E+02</pdfrwt>
<pdfrwt beam="2">  1       -1 0.83853778E-03 0.90847983E+02</pdfrwt>
<totfact> 0.13494014E+05</totfact>
</mgrwt>
</event>
<event>
 5    1  0.6085374E+000  0.9710945E+02  0.7546771E-02  0.1286495E+00
         -2   -1    0    0    0  501 -0.00000000000E+00  0.00000000000E+00  0.84486274882E+01  0.84486274882E+01  0.00000000000E+00 0.  1.
          2   -1    0    0  501    0  0.00000000000E+00 -0.00000000000E+00 -0.27904664635E+03  0.27904664635E+03  0.00000000000E+00 0. -1.
         23    2    1    2    0    0  0.00000000000E+00  0.00000000000E+00 -0.27059801886E+03  0.28749527384E+03  0.97109446849E+02 0.  0.
        -13    1    3    3    0    0  0.35367610335E+02  0.31395409516E+02 -0.16786772384E+03  0.17440215683E+03  0.00000000000E+00 0.  1.
         13    1    3    3    0    0 -0.35367610335E+02 -0.31395409516E+02 -0.10273029502E+03  0.11309311700E+03  0.00000000000E+00 0. -1.
<mgrwt>
<rscale>  0 0.97109447E+02</rscale>
<asrwt>0</asrwt>
<pdfrwt beam="2">  1        2 0.42930253E-01 0.97109447E+02</pdfrwt>
<pdfrwt beam="1">  1       -2 0.12997889E-02 0.97109447E+02</pdfrwt>
<totfact> 0.14766495E+05</totfact>
</mgrwt>
</event>
<event>
 5    1  0.6085374E+000  0.8968279E+02  0.7546771E-02  0.1303622E+00
          2   -1    0    0  501    0  0.00000000000E+00  0.00000000000E+00  0.26617130789E+03  0.26617130789E+03  0.00000000000E+00 0. -1.
         -2   -1    0    0    0  501 -0.00000000000E+00 -0.00000000000E+00 -0.75543482035E+01  0.75543482035E+01  0.00000000000E+00 0.  1.
         23    2    1    2    0    0  0.00000000000E+00  0.00000000000E+00  0.25861695968E+03  0.27372565609E+03  0.89682790803E+02 0.  0.
        -13    1    3    3    0    0 -0.35242087544E+02 -0.47636292313E+01  0.45941997447E+02  0.58097883157E+02  0.00000000000E+00 0. -1.
         13    1    3    3    0    0  0.35242087544E+02  0.47636292313E+01  0.21267496224E+03  0.21562777293E+03  0.00000000000E+00 0.  1.
<mgrwt>
<rscale>  0 0.89682791E+02</rscale>
<asrwt>0</asrwt>
<pdfrwt beam="1">  1        2 0.40949425E-01 0.89682791E+02</pdfrwt>
<pdfrwt beam="2">  1       -2 0.11622076E-02 0.89682791E+02</pdfrwt>
<totfact> 0.17956926E+05</totfact>
</mgrwt>
</event>
<event>
 5    1  0.6085374E+000  0.9212810E+02  0.7546771E-02  0.1297779E+00
          1   -1    0    0  501    0  0.00000000000E+00  0.00000000000E+00  0.11053993719E+03  0.11053993719E+03  0.00000000000E+00 0. -1.
         -1   -1    0    0    0  501 -0.00000000000E+00 -0.00000000000E+00 -0.19195746890E+02  0.19195746890E+02  0.00000000000E+00 0.  1.
         23    2    1    2    0    0  0.00000000000E+00  0.00000000000E+00  0.91344190295E+02  0.12973568408E+03  0.92128098981E+02 0.  0.
        -13    1    3    3    0    0 -0.21622039335E+02  0.25514944258E+02  0.90278606429E+02  0.96274356629E+02  0.00000000000E+00 0.  1.
         13    1    3    3    0    0  0.21622039335E+02 -0.25514944258E+02  0.10655838659E+01  0.33461327446E+02  0.00000000000E+00 0. -1.
<mgrwt>
<rscale>  0 0.92128099E+02</rscale>
<asrwt>0</asrwt>
<pdfrwt beam="1">  1        1 0.17006144E-01 0.92128099E+02</pdfrwt>
<pdfrwt beam="2">  1       -1 0.29531919E-02 0.92128099E+02</pdfrwt>
<totfact> 0.10326848E+05</totfact>
</mgrwt>
</event>
<event>
 5    1  0.6085374E+000  0.8184836E+02  0.7546771E-02  0.1323886E+00
          1   -1    0    0  501    0  0.00000000000E+00  0.00000000000E+00  0.19717793456E+02  0.19717793456E+02  0.00000000000E+00 0. -1.
         -1   -1    0    0    0  501 -0.00000000000E+00 -0.00000000000E+00 -0.84937929576E+02  0.84937929576E+02  0.00000000000E+00 0.  1.
         23    2    1    2    0    0  0.00000000000E+00  0.00000000000E+00 -0.65220136120E+02  0.10465572303E+03  0.81848361058E+02 0.  0.
        -13    1    3    3    0    0 -0.27380811622E+02 -0.20292609057E+02 -0.61579119844E+02  0.70381011845E+02  0.00000000000E+00 0.  1.
         13    1    3    3    0    0  0.27380811622E+02  0.20292609057E+02 -0.36410162756E+01  0.34274711187E+02  0.00000000000E+00 0. -1.
<mgrwt>
<rscale>  0 0.81848361E+02</rscale>
<asrwt>0</asrwt>
<pdfrwt beam="1">  1        1 0.30335067E-02 0.81848361E+02</pdfrwt>
<pdfrwt beam="2">  1       -1 0.13067374E-01 0.81848361E+02</pdfrwt>
<totfact> 0.11043695E+05</totfact>
</mgrwt>
</event>
<event>
 5    1  0.6085374E+000  0.8748128E+02  0.7546771E-02  0.1309068E+00
          3   -1    0    0  501    0  0.00000000000E+00  0.00000000000E+00  0.14973048606E+02  0.14973048606E+02  0.00000000000E+00 0. -1.
         -3   -1    0    0    0  501 -0.00000000000E+00 -0.00000000000E+00 -0.12777915957E+03  0.12777915957E+03  0.00000000000E+00 0.  1.
         23    2    1    2    0    0  0.00000000000E+00  0.00000000000E+00 -0.11280611097E+03  0.14275220818E+03  0.87481279533E+02 0.  0.
        -13    1    3    3    0    0  0.33624509111E+02 -0.10004801277E+02 -0.99034665299E+02  0.10506459248E+03  0.00000000000E+00 0.  1.
         13    1    3    3    0    0 -0.33624509111E+02  0.10004801277E+02 -0.13771445669E+02  0.37687615703E+02  0.00000000000E+00 0. -1.
<mgrwt>
<rscale>  0 0.87481280E+02</rscale>
<asrwt>0</asrwt>
<pdfrwt beam="1">  1        3 0.23035460E-02 0.87481280E+02</pdfrwt>
<pdfrwt beam="2">  1       -3 0.19658332E-01 0.87481280E+02</pdfrwt>
<totfact> 0.35510202E+04</totfact>
</mgrwt>
</event>
<event>
 5    1  0.6085374E+000  0.9657802E+02  0.7546771E-02  0.1287661E+00
         -2   -1    0    0    0  501 -0.00000000000E+00  0.00000000000E+00  0.44580865896E+02  0.44580865896E+02  0.00000000000E+00 0.  1.
          2   -1    0    0  501    0  0.00000000000E+00 -0.00000000000E+00 -0.52305586026E+02  0.52305586026E+02  0.00000000000E+00 0. -1.
         23    2    1    2    0    0  0.00000000000E+00  0.00000000000E+00 -0.77247201293E+01  0.96886451922E+02  0.96578016468E+02 0.  0.
        -13    1    3    3    0    0 -0.26556221935E+02 -0.37039383279E+02 -0.19872006719E+02  0.49719669027E+02  0.00000000000E+00 0. -1.
         13    1    3    3    0    0  0.26556221935E+02  0.37039383279E+02  0.12147286589E+02  0.47166782895E+02  0.00000000000E+00 0.  1.
<mgrwt>
<rscale>  0 0.96578016E+02</rscale>
<asrwt>0</asrwt>
<pdfrwt beam="2">  1        2 0.80470132E-02 0.96578016E+02</pdfrwt>
<pdfrwt beam="1">  1       -2 0.68585948E-02 0.96578016E+02</pdfrwt>
<totfact> 0.86744324E+04</totfact>
</mgrwt>
</event>
<event>
 5    1  0.6085374E+000  0.9100094E+02  0.7546771E-02  0.1300446E+00
          1   -1    0    0  501    0  0.00000000000E+00  0.00000000000E+00  0.24820220526E+02  0.24820220526E+02  0.00000000000E+00 0. -1.
         -1   -1    0    0    0  501 -0.00000000000E+00 -0.00000000000E+00 -0.83411542182E+02  0.83411542182E+02  0.00000000000E+00 0.  1.
         23    2    1    2    0    0  0.00000000000E+00  0.00000000000E+00 -0.58591321656E+02  0.10823176271E+03  0.91000942223E+02 0.  0.
        -13    1    3    3    0    0 -0.21536288563E+02  0.81090216753E+01 -0.75980019302E+02  0.79388483363E+02  0.00000000000E+00 0.  1.
         13    1    3    3    0    0  0.21536288563E+02 -0.81090216753E+01  0.17388697646E+02  0.28843279345E+02  0.00000000000E+00 0. -1.
<mgrwt>
<rscale>  0 0.91000942E+02</rscale>
<asrwt>0</asrwt>
<pdfrwt beam="1">  1        1 0.38184954E-02 0.91000942E+02</pdfrwt>
<pdfrwt beam="2">  1       -1 0.12832545E-01 0.91000942E+02</pdfrwt>
<totfact> 0.84467695E+04</totfact>
</mgrwt>
</event>
<event>
 5    1  0.6085374E+000  0.9127041E+02  0.7546771E-02  0.1299804E+00
         -4   -1    0    0    0  501 -0.00000000000E+00  0.00000000000E+00  0.32816248935E+02  0.32816248935E+02  0.00000000000E+00 0.  1.
          4   -1    0    0  501    0  0.00000000000E+00 -0.00000000000E+00 -0.63461612842E+02  0.63461612842E+02  0.00000000000E+00 0. -1.
         23    2    1    2    0    0  0.00000000000E+00  0.00000000000E+00 -0.30645363907E+02  0.96277861777E+02  0.91270413275E+02 0.  0.
        -13    1    3    3    0    0 -0.18157879465E+02  0.28911826665E+02  0.16620187778E+02  0.37971475472E+02  0.00000000000E+00 0.  1.
         13    1    3    3    0    0  0.18157879465E+02 -0.28911826665E+02 -0.47265551686E+02  0.58306386305E+02  0.00000000000E+00 0. -1.
<mgrwt>
<rscale>  0 0.91270413E+02</rscale>
<asrwt>0</asrwt>
<pdfrwt beam="2">  1        4 0.97633249E-02 0.91270413E+02</pdfrwt>
<pdfrwt beam="1">  1       -4 0.50486538E-02 0.91270413E+02</pdfrwt>
<totfact> 0.26616523E+04</totfact>
</mgrwt>
</event>
<event>
 5    1  0.6085374E+000  0.9283306E+02  0.7546771E-02  0.1296133E+00
          2   -1    0    0  501    0  0.00000000000E+00  0.00000000000E+00  0.31172005882E+02  0.31172005882E+02  0.00000000000E+00 0. -1.
         -2   -1    0    0    0  501 -0.00000000000E+00 -0.00000000000E+00 -0.69116312275E+02  0.69116312275E+02  0.00000000000E+00 0.  1.
         23    2    1    2    0    0  0.00000000000E+00  0.00000000000E+00 -0.37944306393E+02  0.10028831816E+03  0.92833056456E+02 0.  0.
        -13    1    3    3    0    0 -0.32198317982E+02 -0.73191740528E+01  0.16269616978E+02  0.36810357596E+02  0.00000000000E+00 0. -1.
         13    1    3    3    0    0  0.32198317982E+02  0.73191740528E+01 -0.54213923371E+02  0.63477960561E+02  0.00000000000E+00 0.  1.
<mgrwt>
<rscale>  0 0.92833056E+02</rscale>
<asrwt>0</asrwt>
<pdfrwt beam="1">  1        2 0.47956932E-02 0.92833056E+02</pdfrwt>
<pdfrwt beam="2">  1       -2 0.10633279E-01 0.92833056E+02</pdfrwt>
<totfact> 0.84724916E+04</totfact>
</mgrwt>
</event>
<event>
 5    1  0.6085374E+000  0.8996712E+02  0.7546771E-02  0.1302931E+00
         -2   -1    0    0    0  501 -0.00000000000E+00  0.00000000000E+00  0.58227292517E+01  0.58227292517E+01  0.00000000000E+00 0.  1.
          2   -1    0    0  501    0  0.00000000000E+00 -0.00000000000E+00 -0.34752097338E+03  0.34752097338E+03  0.00000000000E+00 0. -1.
         23    2    1    2    0    0  0.00000000000E+00  0.00000000000E+00 -0.34169824412E+03  0.35334370263E+03  0.89967117043E+02 0.  0.
        -13    1    3    3    0    0  0.43447393479E+02  0.43633725809E+01 -0.21329594889E+03  0.21771972082E+03  0.00000000000E+00 0. -1.
         13    1    3    3    0    0 -0.43447393479E+02 -0.43633725809E+01 -0.12840229524E+03  0.13562398181E+03  0.00000000000E+00 0.  1.
<mgrwt>
<rscale>  0 0.89967117E+02</rscale>
<asrwt>0</asrwt>
<pdfrwt beam="2">  1        2 0.53464771E-01 0.89967117E+02</pdfrwt>
<pdfrwt beam="1">  1       -2 0.89580440E-03 0.89967117E+02</pdfrwt>
<totfact> 0.19655745E+05</totfact>
</mgrwt>
</event>
<event>
 5    1  0.6085374E+000  0.9099908E+02  0.7546771E-02  0.1300450E+00
          2   -1    0    0  501    0  0.00000000000E+00  0.00000000000E+00  0.11174124248E+03  0.11174124248E+03  0.00000000000E+00 0. -1.
         -2   -1    0    0    0  501 -0.00000000000E+00 -0.00000000000E+00 -0.18526803833E+02  0.18526803833E+02  0.00000000000E+00 0.  1.
         23    2    1    2    0    0  0.00000000000E+00  0.00000000000E+00  0.93214438645E+02  0.13026804631E+03  0.90999078664E+02 0.  0.
        -13    1    3    3    0    0 -0.18225127290E+02 -0.31739860600E+02  0.85301863973E+02  0.92822314197E+02  0.00000000000E+00 0. -1.
         13    1    3    3    0    0  0.18225127290E+02  0.31739860600E+02  0.79125746721E+01  0.37445732114E+02  0.00000000000E+00 0.  1.
<mgrwt>
<rscale>  0 0.90999079E+02</rscale>
<asrwt>0</asrwt>
<pdfrwt beam="1">  1        2 0.17190960E-01 0.90999079E+02</pdfrwt>
<pdfrwt beam="2">  1       -2 0.28502776E-02 0.90999079E+02</pdfrwt>
<totfact> 0.12764231E+05</totfact>
</mgrwt>
</event>
<event>
 5    1  0.6085374E+000  0.9082978E+02  0.7546771E-02  0.1300855E+00
         -2   -1    0    0    0  501 -0.00000000000E+00  0.00000000000E+00  0.82333075311E+02  0.82333075311E+02  0.00000000000E+00 0.  1.
          2   -1    0    0  501    0  0.00000000000E+00 -0.00000000000E+00 -0.25050837063E+02  0.25050837063E+02  0.00000000000E+00 0. -1.
         23    2    1    2    0    0  0.00000000000E+00  0.00000000000E+00  0.57282238249E+02  0.10738391237E+03  0.90829784861E+02 0.  0.
        -13    1    3    3    0    0  0.32882527250E+02 -0.23711910856E+02  0.52841180442E+02  0.66601093574E+02  0.00000000000E+00 0.  1.
         13    1    3    3    0    0 -0.32882527250E+02  0.23711910856E+02  0.44410578070E+01  0.40782818800E+02  0.00000000000E+00 0. -1.
<mgrwt>
<rscale>  0 0.90829785E+02</rscale>
<asrwt>0</asrwt>
<pdfrwt beam="2">  1        2 0.38539750E-02 0.90829785E+02</pdfrwt>
<pdfrwt beam="1">  1       -2 0.12666627E-01 0.90829785E+02</pdfrwt>
<totfact> 0.85199059E+04</totfact>
</mgrwt>
</event>
<event>
 5    1  0.6085374E+000  0.9012957E+02  0.7546771E-02  0.1302538E+00
         -1   -1    0    0    0  501 -0.00000000000E+00  0.00000000000E+00  0.10436934378E+03  0.10436934378E+03  0.00000000000E+00 0.  1.
          1   -1    0    0  501    0  0.00000000000E+00 -0.00000000000E+00 -0.19458153535E+02  0.19458153535E+02  0.00000000000E+00 0. -1.
         23    2    1    2    0    0  0.00000000000E+00  0.00000000000E+00  0.84911190242E+02  0.12382749731E+03  0.90129567080E+02 0.  0.
        -13    1    3    3    0    0 -0.10513089973E+01  0.30246132669E+02  0.88329736429E+02  0.93370638477E+02  0.00000000000E+00 0.  1.
         13    1    3    3    0    0  0.10513089973E+01 -0.30246132669E+02 -0.34185461862E+01  0.30456858835E+02  0.00000000000E+00 0. -1.
<mgrwt>
<rscale>  0 0.90129567E+02</rscale>
<asrwt>0</asrwt>
<pdfrwt beam="2">  1        1 0.29935621E-02 0.90129567E+02</pdfrwt>
<pdfrwt beam="1">  1       -1 0.16056822E-01 0.90129567E+02</pdfrwt>
<totfact> 0.83156929E+04</totfact>
</mgrwt>
</event>
<event>
 5    1  0.6085374E+000  0.9559416E+02  0.7546771E-02  0.1289843E+00
          1   -1    0    0  501    0  0.00000000000E+00  0.00000000000E+00  0.27699683350E+02  0.27699683350E+02  0.00000000000E+00 0.  1.
         -1   -1    0    0    0  501 -0.00000000000E+00 -0.00000000000E+00 -0.82476057135E+02  0.82476057135E+02  0.00000000000E+00 0. -1.
         23    2    1    2    0    0  0.00000000000E+00  0.00000000000E+00 -0.54776373785E+02  0.11017574049E+03  0.95594156026E+02 0.  0.
        -13    1    3    3    0    0  0.87530254974E+01  0.43324869122E+02 -0.64227640192E+01  0.44664433696E+02  0.00000000000E+00 0.  1.
         13    1    3    3    0    0 -0.87530254974E+01 -0.43324869122E+02 -0.48353609766E+02  0.65511306789E+02  0.00000000000E+00 0. -1.
<mgrwt>
<rscale>  0 0.95594156E+02</rscale>
<asrwt>0</asrwt>
<pdfrwt beam="1">  1        1 0.42614898E-02 0.95594156E+02</pdfrwt>
<pdfrwt beam="2">  1       -1 0.12688624E-01 0.95594156E+02</pdfrwt>
<totfact> 0.74587069E+04</totfact>
</mgrwt>
</event>
<event>
 5    1  0.6085374E+000  0.8278265E+02  0.7546771E-02  0.1321335E+00
          2   -1    0    0  501    0  0.00000000000E+00  0.00000000000E+00  0.30286300889E+02  0.30286300889E+02  0.00000000000E+00 0. -1.
         -2   -1    0    0    0  501 -0.00000000000E+00 -0.00000000000E+00 -0.56568214709E+02  0.56568214709E+02  0.00000000000E+00 0.  1.
         23    2    1    2    0    0  0.00000000000E+00  0.00000000000E+00 -0.26281913820E+02  0.86854515598E+02  0.82782654498E+02 0.  0.
        -13    1    3    3    0    0 -0.22722681391E+02 -0.24772470782E+02 -0.38479351353E+02  0.51094579348E+02  0.00000000000E+00 0.  1.
         13    1    3    3    0    0  0.22722681391E+02  0.24772470782E+02  0.12197437533E+02  0.35759936250E+02  0.00000000000E+00 0. -1.
<mgrwt>
<rscale>  0 0.82782654E+02</rscale>
<asrwt>0</asrwt>
<pdfrwt beam="1">  1        2 0.46594309E-02 0.82782654E+02</pdfrwt>
<pdfrwt beam="2">  1       -2 0.87028022E-02 0.82782654E+02</pdfrwt>
<totfact> 0.11768428E+05</totfact>
</mgrwt>
</event>
<event>
 5    1  0.6085374E+000  0.9005087E+02  0.7546771E-02  0.1302729E+00
         -2   -1    0    0    0  501 -0.00000000000E+00  0.00000000000E+00  0.12976229833E+02  0.12976229833E+02  0.00000000000E+00 0.  1.
          2   -1    0    0  501    0  0.00000000000E+00 -0.00000000000E+00 -0.15623103197E+03  0.15623103197E+03  0.00000000000E+00 0. -1.
         23    2    1    2    0    0  0.00000000000E+00  0.00000000000E+00 -0.14325480214E+03  0.16920726180E+03  0.90050869578E+02 0.  0.
        -13    1    3    3    0    0  0.28922875757E+02  0.34125962531E+01 -0.13614949797E+03  0.13922953837E+03  0.00000000000E+00 0. -1.
         13    1    3    3    0    0 -0.28922875757E+02 -0.34125962531E+01 -0.71053041641E+01  0.29977723438E+02  0.00000000000E+00 0.  1.
<mgrwt>
<rscale>  0 0.90050870E+02</rscale>
<asrwt>0</asrwt>
<pdfrwt beam="2">  1        2 0.24035545E-01 0.90050870E+02</pdfrwt>
<pdfrwt beam="1">  1       -2 0.19963429E-02 0.90050870E+02</pdfrwt>
<totfact> 0.14661779E+05</totfact>
</mgrwt>
</event>
<event>
 5    1  0.6085374E+000  0.8588614E+02  0.7546771E-02  0.1313131E+00
          1   -1    0    0  501    0  0.00000000000E+00  0.00000000000E+00  0.48701754947E+02  0.48701754947E+02  0.00000000000E+00 0. -1.
         -1   -1    0    0    0  501 -0.00000000000E+00 -0.00000000000E+00 -0.37865311219E+02  0.37865311219E+02  0.00000000000E+00 0.  1.
         23    2    1    2    0    0  0.00000000000E+00  0.00000000000E+00  0.10836443727E+02  0.86567066166E+02  0.85886136436E+02 0.  0.
        -13    1    3    3    0    0 -0.34112233445E+02 -0.24274632816E+02  0.15044060413E+02  0.44488493149E+02  0.00000000000E+00 0.  1.
         13    1    3    3    0    0  0.34112233445E+02  0.24274632816E+02 -0.42076166859E+01  0.42078573017E+02  0.00000000000E+00 0. -1.
<mgrwt>
<rscale>  0 0.85886136E+02</rscale>
<asrwt>0</asrwt>
<pdfrwt beam="1">  1        1 0.74925777E-02 0.85886136E+02</pdfrwt>
<pdfrwt beam="2">  1       -1 0.58254325E-02 0.85886136E+02</pdfrwt>
<totfact> 0.11029754E+05</totfact>
</mgrwt>
</event>
<event>
 5    1  0.6085374E+000  0.9197911E+02  0.7546771E-02  0.1298129E+00
          1   -1    0    0  501    0  0.00000000000E+00  0.00000000000E+00  0.16512201065E+03  0.16512201065E+03  0.00000000000E+00 0. -1.
         -1   -1    0    0    0  501 -0.00000000000E+00 -0.00000000000E+00 -0.12808948682E+02  0.12808948682E+02  0.00000000000E+00 0.  1.
         23    2    1    2    0    0  0.00000000000E+00  0.00000000000E+00  0.15231306197E+03  0.17793095934E+03  0.91979114168E+02 0.  0.
        -13    1    3    3    0    0 -0.35170929255E+02  0.22623765056E+02  0.39137281881E+02  0.57276136768E+02  0.00000000000E+00 0.  1.
         13    1    3    3    0    0  0.35170929255E+02 -0.22623765056E+02  0.11317578009E+03  0.12065482257E+03  0.00000000000E+00 0. -1.
<mgrwt>
<rscale>  0 0.91979114E+02</rscale>
<asrwt>0</asrwt>
<pdfrwt beam="1">  1        1 0.25403385E-01 0.91979114E+02</pdfrwt>
<pdfrwt beam="2">  1       -1 0.19706076E-02 0.91979114E+02</pdfrwt>
<totfact> 0.11148580E+05</totfact>
</mgrwt>
</event>
<event>
 5    1  0.6085374E+000  0.9098183E+02  0.7546771E-02  0.1300491E+00
          2   -1    0    0  501    0  0.00000000000E+00  0.00000000000E+00  0.10562215282E+03  0.10562215282E+03  0.00000000000E+00 0. -1.
         -2   -1    0    0    0  501 -0.00000000000E+00 -0.00000000000E+00 -0.19592702223E+02  0.19592702223E+02  0.00000000000E+00 0.  1.
         23    2    1    2    0    0  0.00000000000E+00  0.00000000000E+00  0.86029450596E+02  0.12521485504E+03  0.90981830897E+02 0.  0.
        -13    1    3    3    0    0  0.41674216643E+02  0.18072134789E+02  0.46408544276E+02  0.64939166690E+02  0.00000000000E+00 0.  1.
         13    1    3    3    0    0 -0.41674216643E+02 -0.18072134789E+02  0.39620906321E+02  0.60275688352E+02  0.00000000000E+00 0. -1.
<mgrwt>
<rscale>  0 0.90981831E+02</rscale>
<asrwt>0</asrwt>
<pdfrwt beam="1">  1        2 0.16249562E-01 0.90981831E+02</pdfrwt>
<pdfrwt beam="2">  1       -2 0.30142619E-02 0.90981831E+02</pdfrwt>
<totfact> 0.12548875E+05</totfact>
</mgrwt>
</event>
<event>
 5    1  0.6085374E+000  0.9171950E+02  0.7546771E-02  0.1298740E+00
          2   -1    0    0  501    0  0.00000000000E+00  0.00000000000E+00  0.15758036868E+02  0.15758036868E+02  0.00000000000E+00 0. -1.
         -2   -1    0    0    0  501 -0.00000000000E+00 -0.00000000000E+00 -0.13346312265E+03  0.13346312265E+03  0.00000000000E+00 0.  1.
         23    2    1    2    0    0  0.00000000000E+00  0.00000000000E+00 -0.11770508578E+03  0.14922115952E+03  0.91719502992E+02 0.  0.
        -13    1    3    3    0    0 -0.29439413250E+02  0.23201353342E+02 -0.15865416909E+02  0.40702497504E+02  0.00000000000E+00 0. -1.
         13    1    3    3    0    0  0.29439413250E+02 -0.23201353342E+02 -0.10183966887E+03  0.10851866201E+03  0.00000000000E+00 0.  1.
<mgrwt>
<rscale>  0 0.91719503E+02</rscale>
<asrwt>0</asrwt>
<pdfrwt beam="1">  1        2 0.24243134E-02 0.91719503E+02</pdfrwt>
<pdfrwt beam="2">  1       -2 0.20532788E-01 0.91719503E+02</pdfrwt>
<totfact> 0.71713193E+04</totfact>
</mgrwt>
</event>
<event>
 5    1  0.6085374E+000  0.9132660E+02  0.7546771E-02  0.1299671E+00
          1   -1    0    0  501    0  0.00000000000E+00  0.00000000000E+00  0.98858079715E+02  0.98858079715E+02  0.00000000000E+00 0. -1.
         -1   -1    0    0    0  501 -0.00000000000E+00 -0.00000000000E+00 -0.21092225882E+02  0.21092225882E+02  0.00000000000E+00 0.  1.
         23    2    1    2    0    0  0.00000000000E+00  0.00000000000E+00  0.77765853834E+02  0.11995030560E+03  0.91326599577E+02 0.  0.
        -13    1    3    3    0    0  0.68224384950E+01 -0.35666038113E+02  0.25192965330E+01  0.36399983471E+02  0.00000000000E+00 0.  1.
         13    1    3    3    0    0 -0.68224384950E+01  0.35666038113E+02  0.75246557301E+02  0.83550322126E+02  0.00000000000E+00 0. -1.
<mgrwt>
<rscale>  0 0.91326600E+02</rscale>
<asrwt>0</asrwt>
<pdfrwt beam="1">  1        1 0.15208935E-01 0.91326600E+02</pdfrwt>
<pdfrwt beam="2">  1       -1 0.32449579E-02 0.91326600E+02</pdfrwt>
<totfact> 0.10378672E+05</totfact>
</mgrwt>
</event>
<event>
 5    1  0.6085374E+000  0.9009625E+02  0.7546771E-02  0.1302619E+00
         -3   -1    0    0    0  501 -0.00000000000E+00  0.00000000000E+00  0.32745428229E+02  0.32745428229E+02  0.00000000000E+00 0.  1.
          3   -1    0    0  501    0  0.00000000000E+00 -0.00000000000E+00 -0.61973030107E+02  0.61973030107E+02  0.00000000000E+00 0. -1.
         23    2    1    2    0    0  0.00000000000E+00  0.00000000000E+00 -0.29227601878E+02  0.94718458336E+02  0.90096246526E+02 0.  0.
        -13    1    3    3    0    0 -0.77091269228E+01  0.43894113823E+02 -0.77031690428E+01  0.45226791612E+02  0.00000000000E+00 0. -1.
         13    1    3    3    0    0  0.77091269228E+01 -0.43894113823E+02 -0.21524432836E+02  0.49491666724E+02  0.00000000000E+00 0.  1.
<mgrwt>
<rscale>  0 0.90096247E+02</rscale>
<asrwt>0</asrwt>
<pdfrwt beam="2">  1        3 0.95343122E-02 0.90096247E+02</pdfrwt>
<pdfrwt beam="1">  1       -3 0.50377583E-02 0.90096247E+02</pdfrwt>
<totfact> 0.36222454E+04</totfact>
</mgrwt>
</event>
<event>
 5    1  0.6085374E+000  0.9760232E+02  0.7546771E-02  0.1285420E+00
          2   -1    0    0  501    0  0.00000000000E+00  0.00000000000E+00  0.15022093367E+02  0.15022093367E+02  0.00000000000E+00 0. -1.
         -2   -1    0    0    0  501 -0.00000000000E+00 -0.00000000000E+00 -0.15853670690E+03  0.15853670690E+03  0.00000000000E+00 0.  1.
         23    2    1    2    0    0  0.00000000000E+00  0.00000000000E+00 -0.14351461354E+03  0.17355880027E+03  0.97602319917E+02 0.  0.
        -13    1    3    3    0    0  0.40497371434E+01 -0.28841092562E+02 -0.14138889952E+03  0.14435729943E+03  0.00000000000E+00 0.  1.
         13    1    3    3    0    0 -0.40497371434E+01  0.28841092562E+02 -0.21257140120E+01  0.29201500837E+02  0.00000000000E+00 0. -1.
<mgrwt>
<rscale>  0 0.97602320E+02</rscale>
<asrwt>0</asrwt>
<pdfrwt beam="1">  1        2 0.23110912E-02 0.97602320E+02</pdfrwt>
<pdfrwt beam="2">  1       -2 0.24390263E-01 0.97602320E+02</pdfrwt>
<totfact> 0.57573207E+04</totfact>
</mgrwt>
</event>
<event>
 5    1  0.6085374E+000  0.9078607E+02  0.7546771E-02  0.1300959E+00
         -2   -1    0    0    0  501 -0.00000000000E+00  0.00000000000E+00  0.27685645940E+02  0.27685645940E+02  0.00000000000E+00 0.  1.
          2   -1    0    0  501    0  0.00000000000E+00 -0.00000000000E+00 -0.74425852856E+02  0.74425852856E+02  0.00000000000E+00 0. -1.
         23    2    1    2    0    0  0.00000000000E+00  0.00000000000E+00 -0.46740206917E+02  0.10211149880E+03  0.90786074063E+02 0.  0.
        -13    1    3    3    0    0  0.25896742333E+02  0.88783927585E+01  0.17355432907E+02  0.32414166237E+02  0.00000000000E+00 0.  1.
         13    1    3    3    0    0 -0.25896742333E+02 -0.88783927585E+01 -0.64095639824E+02  0.69697332559E+02  0.00000000000E+00 0. -1.
<mgrwt>
<rscale>  0 0.90786074E+02</rscale>
<asrwt>0</asrwt>
<pdfrwt beam="2">  1        2 0.11450131E-01 0.90786074E+02</pdfrwt>
<pdfrwt beam="1">  1       -2 0.42593302E-02 0.90786074E+02</pdfrwt>
<totfact> 0.11388352E+05</totfact>
</mgrwt>
</event>
<event>
 5    1  0.6085374E+000  0.9241460E+02  0.7546771E-02  0.1297108E+00
          1   -1    0    0  501    0  0.00000000000E+00  0.00000000000E+00  0.41379182467E+02  0.41379182467E+02  0.00000000000E+00 0. -1.
         -1   -1    0    0    0  501 -0.00000000000E+00 -0.00000000000E+00 -0.51598760977E+02  0.51598760977E+02  0.00000000000E+00 0.  1.
         23    2    1    2    0    0  0.00000000000E+00  0.00000000000E+00 -0.10219578509E+02  0.92977943444E+02  0.92414599399E+02 0.  0.
        -13    1    3    3    0    0  0.40837632821E+02 -0.21497184909E+02 -0.27994172543E+01  0.46235029473E+02  0.00000000000E+00 0.  1.
         13    1    3    3    0    0 -0.40837632821E+02  0.21497184909E+02 -0.74201612549E+01  0.46742913971E+02  0.00000000000E+00 0. -1.
<mgrwt>
<rscale>  0 0.92414599E+02</rscale>
<asrwt>0</asrwt>
<pdfrwt beam="1">  1        1 0.63660281E-02 0.92414599E+02</pdfrwt>
<pdfrwt beam="2">  1       -1 0.79382709E-02 0.92414599E+02</pdfrwt>
<totfact> 0.87723821E+04</totfact>
</mgrwt>
</event>
<event>
 5    1  0.6085374E+000  0.9531465E+02  0.7546771E-02  0.1290469E+00
          2   -1    0    0  501    0  0.00000000000E+00  0.00000000000E+00  0.24376901859E+03  0.24376901859E+03  0.00000000000E+00 0.  1.
         -2   -1    0    0    0  501 -0.00000000000E+00 -0.00000000000E+00 -0.93171009078E+01  0.93171009078E+01  0.00000000000E+00 0. -1.
         23    2    1    2    0    0  0.00000000000E+00  0.00000000000E+00  0.23445191768E+03  0.25308611950E+03  0.95314648285E+02 0.  0.
        -13    1    3    3    0    0 -0.42681779006E+02  0.16962100391E+02  0.83453531060E+02  0.95257225213E+02  0.00000000000E+00 0. -1.
         13    1    3    3    0    0  0.42681779006E+02 -0.16962100391E+02  0.15099838662E+03  0.15782889429E+03  0.00000000000E+00 0.  1.
<mgrwt>
<rscale>  0 0.95314648E+02</rscale>
<asrwt>0</asrwt>
<pdfrwt beam="1">  1        2 0.37502921E-01 0.95314648E+02</pdfrwt>
<pdfrwt beam="2">  1       -2 0.14334003E-02 0.95314648E+02</pdfrwt>
<totfact> 0.14759776E+05</totfact>
</mgrwt>
</event>
<event>
 5    1  0.6085374E+000  0.9074534E+02  0.7546771E-02  0.1301057E+00
         -1   -1    0    0    0  501 -0.00000000000E+00  0.00000000000E+00  0.30763349286E+02  0.30763349286E+02  0.00000000000E+00 0.  1.
          1   -1    0    0  501    0  0.00000000000E+00 -0.00000000000E+00 -0.66919868221E+02  0.66919868221E+02  0.00000000000E+00 0. -1.
         23    2    1    2    0    0  0.00000000000E+00  0.00000000000E+00 -0.36156518936E+02  0.97683217507E+02  0.90745342145E+02 0.  0.
        -13    1    3    3    0    0 -0.23465984244E+01 -0.39800357912E+02 -0.41392984876E+02  0.57471333820E+02  0.00000000000E+00 0. -1.
         13    1    3    3    0    0  0.23465984244E+01  0.39800357912E+02  0.52364659403E+01  0.40211883687E+02  0.00000000000E+00 0.  1.
<mgrwt>
<rscale>  0 0.90745342E+02</rscale>
<asrwt>0</asrwt>
<pdfrwt beam="2">  1        1 0.10295364E-01 0.90745342E+02</pdfrwt>
<pdfrwt beam="1">  1       -1 0.47328230E-02 0.90745342E+02</pdfrwt>
<totfact> 0.99277945E+04</totfact>
</mgrwt>
</event>
<event>
 5    1  0.6085374E+000  0.8955164E+02  0.7546771E-02  0.1303941E+00
         -3   -1    0    0    0  501 -0.00000000000E+00  0.00000000000E+00  0.61901148128E+02  0.61901148128E+02  0.00000000000E+00 0.  1.
          3   -1    0    0  501    0  0.00000000000E+00 -0.00000000000E+00 -0.32388315576E+02  0.32388315576E+02  0.00000000000E+00 0. -1.
         23    2    1    2    0    0  0.00000000000E+00  0.00000000000E+00  0.29512832552E+02  0.94289463703E+02  0.89551636949E+02 0.  0.
        -13    1    3    3    0    0 -0.21698981597E+02 -0.83979806679E+01 -0.25523290700E+02  0.34537085138E+02  0.00000000000E+00 0. -1.
         13    1    3    3    0    0  0.21698981597E+02  0.83979806679E+01  0.55036123252E+02  0.59752378566E+02  0.00000000000E+00 0.  1.
<mgrwt>
<rscale>  0 0.89551637E+02</rscale>
<asrwt>0</asrwt>
<pdfrwt beam="2">  1        3 0.49828178E-02 0.89551637E+02</pdfrwt>
<pdfrwt beam="1">  1       -3 0.95232535E-02 0.89551637E+02</pdfrwt>
<totfact> 0.36858849E+04</totfact>
</mgrwt>
</event>
<event>
 5    1  0.6085374E+000  0.9198610E+02  0.7546771E-02  0.1298112E+00
          1   -1    0    0  501    0  0.00000000000E+00  0.00000000000E+00  0.12512866729E+03  0.12512866729E+03  0.00000000000E+00 0. -1.
         -1   -1    0    0    0  501 -0.00000000000E+00 -0.00000000000E+00 -0.16905483797E+02  0.16905483797E+02  0.00000000000E+00 0.  1.
         23    2    1    2    0    0  0.00000000000E+00  0.00000000000E+00  0.10822318349E+03  0.14203415109E+03  0.91986100198E+02 0.  0.
        -13    1    3    3    0    0  0.62990454021E-01 -0.44234050287E+02  0.34659489623E+02  0.56195510439E+02  0.00000000000E+00 0.  1.
         13    1    3    3    0    0 -0.62990454021E-01  0.44234050287E+02  0.73563693869E+02  0.85838640647E+02  0.00000000000E+00 0. -1.
<mgrwt>
<rscale>  0 0.91986100E+02</rscale>
<asrwt>0</asrwt>
<pdfrwt beam="1">  1        1 0.19250564E-01 0.91986100E+02</pdfrwt>
<pdfrwt beam="2">  1       -1 0.26008437E-02 0.91986100E+02</pdfrwt>
<totfact> 0.10595983E+05</totfact>
</mgrwt>
</event>
<event>
 5    1  0.6085374E+000  0.9137844E+02  0.7546771E-02  0.1299548E+00
         -1   -1    0    0    0  501 -0.00000000000E+00  0.00000000000E+00  0.13613001655E+02  0.13613001655E+02  0.00000000000E+00 0.  1.
          1   -1    0    0  501    0  0.00000000000E+00 -0.00000000000E+00 -0.15334639318E+03  0.15334639318E+03  0.00000000000E+00 0. -1.
         23    2    1    2    0    0  0.00000000000E+00  0.00000000000E+00 -0.13973339153E+03  0.16695939484E+03  0.91378437375E+02 0.  0.
        -13    1    3    3    0    0  0.40789409565E+02  0.13018196345E+01 -0.32331310829E+02  0.52065193046E+02  0.00000000000E+00 0.  1.
         13    1    3    3    0    0 -0.40789409565E+02 -0.13018196345E+01 -0.10740208070E+03  0.11489420179E+03  0.00000000000E+00 0. -1.
<mgrwt>
<rscale>  0 0.91378437E+02</rscale>
<asrwt>0</asrwt>
<pdfrwt beam="2">  1        1 0.23591750E-01 0.91378437E+02</pdfrwt>
<pdfrwt beam="1">  1       -1 0.20943082E-02 0.91378437E+02</pdfrwt>
<totfact> 0.11192035E+05</totfact>
</mgrwt>
</event>
<event>
 5    1  0.6085374E+000  0.8968413E+02  0.7546771E-02  0.1303618E+00
          1   -1    0    0  501    0  0.00000000000E+00  0.00000000000E+00  0.13434671811E+02  0.13434671811E+02  0.00000000000E+00 0. -1.
         -1   -1    0    0    0  501 -0.00000000000E+00 -0.00000000000E+00 -0.14967322905E+03  0.14967322905E+03  0.00000000000E+00 0.  1.
         23    2    1    2    0    0  0.00000000000E+00  0.00000000000E+00 -0.13623855724E+03  0.16310790086E+03  0.89684128165E+02 0.  0.
        -13    1    3    3    0    0  0.94550280340E+01 -0.34830800045E+02 -0.11651936258E+03  0.12198091671E+03  0.00000000000E+00 0.  1.
         13    1    3    3    0    0 -0.94550280340E+01  0.34830800045E+02 -0.19719194659E+02  0.41126984145E+02  0.00000000000E+00 0. -1.
<mgrwt>
<rscale>  0 0.89684128E+02</rscale>
<asrwt>0</asrwt>
<pdfrwt beam="1">  1        1 0.20668725E-02 0.89684128E+02</pdfrwt>
<pdfrwt beam="2">  1       -1 0.23026651E-01 0.89684128E+02</pdfrwt>
<totfact> 0.78098247E+04</totfact>
</mgrwt>
</event>
<event>
 5    1  0.6085374E+000  0.7939462E+02  0.7546771E-02  0.1330778E+00
         -3   -1    0    0    0  501 -0.00000000000E+00  0.00000000000E+00  0.95584087221E+01  0.95584087221E+01  0.00000000000E+00 0.  1.
          3   -1    0    0  501    0  0.00000000000E+00 -0.00000000000E+00 -0.16486808820E+03  0.16486808820E+03  0.00000000000E+00 0. -1.
         23    2    1    2    0    0  0.00000000000E+00  0.00000000000E+00 -0.15530967947E+03  0.17442649692E+03  0.79394623803E+02 0.  0.
        -13    1    3    3    0    0 -0.24534459274E+02  0.92243127573E+01 -0.14315394110E+03  0.14553377097E+03  0.00000000000E+00 0. -1.
         13    1    3    3    0    0  0.24534459274E+02 -0.92243127573E+01 -0.12155738370E+02  0.28892725953E+02  0.00000000000E+00 0.  1.
<mgrwt>
<rscale>  0 0.79394624E+02</rscale>
<asrwt>0</asrwt>
<pdfrwt beam="2">  1        3 0.25364320E-01 0.79394624E+02</pdfrwt>
<pdfrwt beam="1">  1       -3 0.14705245E-02 0.79394624E+02</pdfrwt>
<totfact> 0.43277138E+04</totfact>
</mgrwt>
</event>
<event>
 4    1  0.6085374E+000  0.1815611E+03  0.7546771E-02  0.1166301E+00
         -2   -1    0    0    0  501 -0.00000000000E+00  0.00000000000E+00  0.41536762779E+02  0.41536762779E+02  0.00000000000E+00 0.  1.
          2   -1    0    0  501    0  0.00000000000E+00 -0.00000000000E+00 -0.19840510045E+03  0.19840510045E+03  0.00000000000E+00 0. -1.
        -13    1    1    2    0    0  0.47472693217E+02  0.17209466894E+01 -0.18066850186E+03  0.18680933013E+03  0.00000000000E+00 0. -1.
         13    1    1    2    0    0 -0.47472693217E+02 -0.17209466894E+01  0.23800164186E+02  0.53132533104E+02  0.00000000000E+00 0.  1.
<mgrwt>
<rscale>  0 0.18156107E+03</rscale>
<asrwt>0</asrwt>
<pdfrwt beam="2">  1        2 0.30523861E-01 0.18156107E+03</pdfrwt>
<pdfrwt beam="1">  1       -2 0.63902713E-02 0.18156107E+03</pdfrwt>
<totfact> 0.22058985E+04</totfact>
</mgrwt>
</event>
<event>
 5    1  0.6085374E+000  0.9283473E+02  0.7546771E-02  0.1296129E+00
          3   -1    0    0  501    0  0.00000000000E+00  0.00000000000E+00  0.42565699006E+02  0.42565699006E+02  0.00000000000E+00 0. -1.
         -3   -1    0    0    0  501 -0.00000000000E+00 -0.00000000000E+00 -0.50617555003E+02  0.50617555003E+02  0.00000000000E+00 0.  1.
         23    2    1    2    0    0  0.00000000000E+00  0.00000000000E+00 -0.80518559966E+01  0.93183254009E+02  0.92834726491E+02 0.  0.
        -13    1    3    3    0    0 -0.13658276155E+02  0.43868354343E+02 -0.10653031987E+02  0.47164267309E+02  0.00000000000E+00 0.  1.
         13    1    3    3    0    0  0.13658276155E+02 -0.43868354343E+02  0.26011759907E+01  0.46018986699E+02  0.00000000000E+00 0. -1.
<mgrwt>
<rscale>  0 0.92834726E+02</rscale>
<asrwt>0</asrwt>
<pdfrwt beam="1">  1        3 0.65485690E-02 0.92834726E+02</pdfrwt>
<pdfrwt beam="2">  1       -3 0.77873162E-02 0.92834726E+02</pdfrwt>
<totfact> 0.33495293E+04</totfact>
</mgrwt>
</event>
<event>
 5    1  0.6085374E+000  0.9264740E+02  0.7546771E-02  0.1296564E+00
         -2   -1    0    0    0  501 -0.00000000000E+00  0.00000000000E+00  0.72793148117E+02  0.72793148117E+02  0.00000000000E+00 0.  1.
          2   -1    0    0  501    0  0.00000000000E+00 -0.00000000000E+00 -0.29479218613E+02  0.29479218613E+02  0.00000000000E+00 0. -1.
         23    2    1    2    0    0  0.00000000000E+00  0.00000000000E+00  0.43313929503E+02  0.10227236673E+03  0.92647398817E+02 0.  0.
        -13    1    3    3    0    0 -0.99463618481E+01  0.25357636509E+02  0.63018834902E+02  0.68653575258E+02  0.00000000000E+00 0.  1.
         13    1    3    3    0    0  0.99463618481E+01 -0.25357636509E+02 -0.19704905398E+02  0.33618791472E+02  0.00000000000E+00 0. -1.
<mgrwt>
<rscale>  0 0.92647399E+02</rscale>
<asrwt>0</asrwt>
<pdfrwt beam="2">  1        2 0.45352644E-02 0.92647399E+02</pdfrwt>
<pdfrwt beam="1">  1       -2 0.11198946E-01 0.92647399E+02</pdfrwt>
<totfact> 0.83951145E+04</totfact>
</mgrwt>
</event>
<event>
 5    1  0.6085374E+000  0.9089658E+02  0.7546771E-02  0.1300695E+00
          3   -1    0    0  501    0  0.00000000000E+00  0.00000000000E+00  0.50730724347E+01  0.50730724347E+01  0.00000000000E+00 0. -1.
         -3   -1    0    0    0  501 -0.00000000000E+00 -0.00000000000E+00 -0.40715902060E+03  0.40715902060E+03  0.00000000000E+00 0.  1.
         23    2    1    2    0    0  0.00000000000E+00  0.00000000000E+00 -0.40208594816E+03  0.41223209303E+03  0.90896583081E+02 0.  0.
        -13    1    3    3    0    0  0.87041859950E+01 -0.43633147768E+02 -0.15900191608E+03  0.16510973246E+03  0.00000000000E+00 0.  1.
         13    1    3    3    0    0 -0.87041859950E+01  0.43633147768E+02 -0.24308403209E+03  0.24712236057E+03  0.00000000000E+00 0. -1.
<mgrwt>
<rscale>  0 0.90896583E+02</rscale>
<asrwt>0</asrwt>
<pdfrwt beam="1">  1        3 0.78047247E-03 0.90896583E+02</pdfrwt>
<pdfrwt beam="2">  1       -3 0.62639866E-01 0.90896583E+02</pdfrwt>
<totfact> 0.20402540E+04</totfact>
</mgrwt>
</event>
<event>
 5    1  0.6085374E+000  0.8983014E+02  0.7546771E-02  0.1303264E+00
         -4   -1    0    0    0  501 -0.00000000000E+00  0.00000000000E+00  0.28268247350E+02  0.28268247350E+02  0.00000000000E+00 0.  1.
          4   -1    0    0  501    0  0.00000000000E+00 -0.00000000000E+00 -0.71365003601E+02  0.71365003601E+02  0.00000000000E+00 0. -1.
         23    2    1    2    0    0  0.00000000000E+00  0.00000000000E+00 -0.43096756251E+02  0.99633250951E+02  0.89830141354E+02 0.  0.
        -13    1    3    3    0    0 -0.27939776586E+02  0.35167194509E+02 -0.21515316090E+02  0.49802324361E+02  0.00000000000E+00 0.  1.
         13    1    3    3    0    0  0.27939776586E+02 -0.35167194509E+02 -0.21581440161E+02  0.49830926590E+02  0.00000000000E+00 0. -1.
<mgrwt>
<rscale>  0 0.89830141E+02</rscale>
<asrwt>0</asrwt>
<pdfrwt beam="2">  1        4 0.10979231E-01 0.89830141E+02</pdfrwt>
<pdfrwt beam="1">  1       -4 0.43489611E-02 0.89830141E+02</pdfrwt>
<totfact> 0.27567938E+04</totfact>
</mgrwt>
</event>
<event>
 5    1  0.6085374E+000  0.9107395E+02  0.7546771E-02  0.1300272E+00
         -2   -1    0    0    0  501 -0.00000000000E+00  0.00000000000E+00  0.66588566017E+02  0.66588566017E+02  0.00000000000E+00 0.  1.
          2   -1    0    0  501    0  0.00000000000E+00 -0.00000000000E+00 -0.31140722809E+02  0.31140722809E+02  0.00000000000E+00 0. -1.
         23    2    1    2    0    0  0.00000000000E+00  0.00000000000E+00  0.35447843209E+02  0.97729288826E+02  0.91073949658E+02 0.  0.
        -13    1    3    3    0    0 -0.50689013517E+01 -0.44984797405E+02  0.12435243094E+02  0.46946363324E+02  0.00000000000E+00 0. -1.
         13    1    3    3    0    0  0.50689013517E+01  0.44984797405E+02  0.23012600115E+02  0.50782925502E+02  0.00000000000E+00 0.  1.
<mgrwt>
<rscale>  0 0.91073950E+02</rscale>
<asrwt>0</asrwt>
<pdfrwt beam="2">  1        2 0.47908804E-02 0.91073950E+02</pdfrwt>
<pdfrwt beam="1">  1       -2 0.10244395E-01 0.91073950E+02</pdfrwt>
<totfact> 0.89648114E+04</totfact>
</mgrwt>
</event>
<event>
 5    1  0.6085374E+000  0.9267701E+02  0.7546771E-02  0.1296495E+00
         -1   -1    0    0    0  501 -0.00000000000E+00  0.00000000000E+00  0.16957840129E+02  0.16957840129E+02  0.00000000000E+00 0.  1.
          1   -1    0    0  501    0  0.00000000000E+00 -0.00000000000E+00 -0.12662326399E+03  0.12662326399E+03  0.00000000000E+00 0. -1.
         23    2    1    2    0    0  0.00000000000E+00  0.00000000000E+00 -0.10966542386E+03  0.14358110412E+03  0.92677010469E+02 0.  0.
        -13    1    3    3    0    0 -0.11481798139E+02  0.39818950128E+02 -0.22711111909E+02  0.47256481904E+02  0.00000000000E+00 0.  1.
         13    1    3    3    0    0  0.11481798139E+02 -0.39818950128E+02 -0.86954311953E+02  0.96324622216E+02  0.00000000000E+00 0. -1.
<mgrwt>
<rscale>  0 0.92677010E+02</rscale>
<asrwt>0</asrwt>
<pdfrwt beam="2">  1        1 0.19480502E-01 0.92677010E+02</pdfrwt>
<pdfrwt beam="1">  1       -1 0.26088984E-02 0.92677010E+02</pdfrwt>
<totfact> 0.10404739E+05</totfact>
</mgrwt>
</event>
<event>
 5    1  0.6085374E+000  0.1169139E+03  0.7546771E-02  0.1248277E+00
          1   -1    0    0  501    0  0.00000000000E+00  0.00000000000E+00  0.30898900832E+02  0.30898900832E+02  0.00000000000E+00 0. -1.
         -1   -1    0    0    0  501 -0.00000000000E+00 -0.00000000000E+00 -0.11059343571E+03  0.11059343571E+03  0.00000000000E+00 0.  1.
         23    2    1    2    0    0  0.00000000000E+00  0.00000000000E+00 -0.79694534883E+02  0.14149233655E+03  0.11691391026E+03 0.  0.
        -13    1    3    3    0    0 -0.36108730672E+02  0.82514559555E+01 -0.94579609969E+02  0.10157376422E+03  0.00000000000E+00 0.  1.
         13    1    3    3    0    0  0.36108730672E+02 -0.82514559555E+01  0.14885075087E+02  0.39918572325E+02  0.00000000000E+00 0. -1.
<mgrwt>
<rscale>  0 0.11691391E+03</rscale>
<asrwt>0</asrwt>
<pdfrwt beam="1">  1        1 0.47536771E-02 0.11691391E+03</pdfrwt>
<pdfrwt beam="2">  1       -1 0.17014375E-01 0.11691391E+03</pdfrwt>
<totfact> 0.41910565E+04</totfact>
</mgrwt>
</event>
<event>
 5    1  0.6085374E+000  0.9162925E+02  0.7546771E-02  0.1298954E+00
         -1   -1    0    0    0  501 -0.00000000000E+00  0.00000000000E+00  0.94118645672E+01  0.94118645672E+01  0.00000000000E+00 0.  1.
          1   -1    0    0  501    0  0.00000000000E+00 -0.00000000000E+00 -0.22301423201E+03  0.22301423201E+03  0.00000000000E+00 0. -1.
         23    2    1    2    0    0  0.00000000000E+00  0.00000000000E+00 -0.21360236744E+03  0.23242609657E+03  0.91629247475E+02 0.  0.
        -13    1    3    3    0    0 -0.18742940075E+02  0.34223857146E+02 -0.45901315669E+02  0.60245339910E+02  0.00000000000E+00 0.  1.
         13    1    3    3    0    0  0.18742940075E+02 -0.34223857146E+02 -0.16770105177E+03  0.17218075666E+03  0.00000000000E+00 0. -1.
<mgrwt>
<rscale>  0 0.91629247E+02</rscale>
<asrwt>0</asrwt>
<pdfrwt beam="2">  1        1 0.34309879E-01 0.91629247E+02</pdfrwt>
<pdfrwt beam="1">  1       -1 0.14479793E-02 0.91629247E+02</pdfrwt>
<totfact> 0.11935075E+05</totfact>
</mgrwt>
</event>
<event>
 5    1  0.6085374E+000  0.1217272E+03  0.7546771E-02  0.1240275E+00
         -2   -1    0    0    0  501 -0.00000000000E+00  0.00000000000E+00  0.60305548451E+01  0.60305548451E+01  0.00000000000E+00 0.  1.
          2   -1    0    0  501    0  0.00000000000E+00 -0.00000000000E+00 -0.61426805200E+03  0.61426805200E+03  0.00000000000E+00 0. -1.
         23    2    1    2    0    0  0.00000000000E+00  0.00000000000E+00 -0.60823749716E+03  0.62029860685E+03  0.12172718969E+03 0.  0.
        -13    1    3    3    0    0  0.11740046785E+02 -0.59570604384E+02 -0.32567322418E+03  0.33128467298E+03  0.00000000000E+00 0.  1.
         13    1    3    3    0    0 -0.11740046785E+02  0.59570604384E+02 -0.28256427298E+03  0.28901393387E+03  0.00000000000E+00 0. -1.
<mgrwt>
<rscale>  0 0.12172719E+03</rscale>
<asrwt>0</asrwt>
<pdfrwt beam="2">  1        2 0.94502719E-01 0.12172719E+03</pdfrwt>
<pdfrwt beam="1">  1       -2 0.92777824E-03 0.12172719E+03</pdfrwt>
<totfact> 0.10571622E+05</totfact>
</mgrwt>
</event>
<event>
 5    1  0.6085374E+000  0.9166688E+02  0.7546771E-02  0.1298865E+00
          1   -1    0    0  501    0  0.00000000000E+00  0.00000000000E+00  0.16753302598E+02  0.16753302598E+02  0.00000000000E+00 0. -1.
         -1   -1    0    0    0  501 -0.00000000000E+00 -0.00000000000E+00 -0.12539044194E+03  0.12539044194E+03  0.00000000000E+00 0.  1.
         23    2    1    2    0    0  0.00000000000E+00  0.00000000000E+00 -0.10863713934E+03  0.14214374454E+03  0.91666875517E+02 0.  0.
        -13    1    3    3    0    0 -0.34066464065E+02  0.30649003895E+02 -0.52915587948E+02  0.69999606153E+02  0.00000000000E+00 0. -1.
         13    1    3    3    0    0  0.34066464065E+02 -0.30649003895E+02 -0.55721551394E+02  0.72144138386E+02  0.00000000000E+00 0.  1.
<mgrwt>
<rscale>  0 0.91666876E+02</rscale>
<asrwt>0</asrwt>
<pdfrwt beam="1">  1        1 0.25774312E-02 0.91666876E+02</pdfrwt>
<pdfrwt beam="2">  1       -1 0.19290837E-01 0.91666876E+02</pdfrwt>
<totfact> 0.76745723E+04</totfact>
</mgrwt>
</event>
<event>
 5    1  0.6085374E+000  0.9180363E+02  0.7546771E-02  0.1298542E+00
          2   -1    0    0  501    0  0.00000000000E+00  0.00000000000E+00  0.15935640409E+03  0.15935640409E+03  0.00000000000E+00 0. -1.
         -2   -1    0    0    0  501 -0.00000000000E+00 -0.00000000000E+00 -0.13221788882E+02  0.13221788882E+02  0.00000000000E+00 0.  1.
         23    2    1    2    0    0  0.00000000000E+00  0.00000000000E+00  0.14613461521E+03  0.17257819297E+03  0.91803632429E+02 0.  0.
        -13    1    3    3    0    0 -0.38789404806E+01  0.33185187388E+02  0.13898691667E+02  0.36186689145E+02  0.00000000000E+00 0.  1.
         13    1    3    3    0    0  0.38789404806E+01 -0.33185187388E+02  0.13223592354E+03  0.13639150383E+03  0.00000000000E+00 0. -1.
<mgrwt>
<rscale>  0 0.91803632E+02</rscale>
<asrwt>0</asrwt>
<pdfrwt beam="1">  1        2 0.24516368E-01 0.91803632E+02</pdfrwt>
<pdfrwt beam="2">  1       -2 0.20341215E-02 0.91803632E+02</pdfrwt>
<totfact> 0.14010956E+05</totfact>
</mgrwt>
</event>
<event>
 5    1  0.6085374E+000  0.6678857E+02  0.7546771E-02  0.1371367E+00
         -1   -1    0    0    0  501 -0.00000000000E+00  0.00000000000E+00  0.10480941910E+02  0.10480941910E+02  0.00000000000E+00 0.  1.
          1   -1    0    0  501    0  0.00000000000E+00 -0.00000000000E+00 -0.10640057859E+03  0.10640057859E+03  0.00000000000E+00 0. -1.
         23    2    1    2    0    0  0.00000000000E+00  0.00000000000E+00 -0.95919636677E+02  0.11688152050E+03  0.66788570379E+02 0.  0.
        -13    1    3    3    0    0 -0.14958005449E+02  0.14624413465E+02 -0.24066582308E+01  0.21057241036E+02  0.00000000000E+00 0.  1.
         13    1    3    3    0    0  0.14958005449E+02 -0.14624413465E+02 -0.93512978447E+02  0.95824279461E+02  0.00000000000E+00 0. -1.
<mgrwt>
<rscale>  0 0.66788570E+02</rscale>
<asrwt>0</asrwt>
<pdfrwt beam="2">  1        1 0.16369321E-01 0.66788570E+02</pdfrwt>
<pdfrwt beam="1">  1       -1 0.16124525E-02 0.66788570E+02</pdfrwt>
<totfact> 0.24206401E+05</totfact>
</mgrwt>
</event>
<event>
 5    1  0.6085374E+000  0.9414773E+02  0.7546771E-02  0.1293107E+00
          1   -1    0    0  501    0  0.00000000000E+00  0.00000000000E+00  0.20223975108E+03  0.20223975108E+03  0.00000000000E+00 0. -1.
         -1   -1    0    0    0  501 -0.00000000000E+00 -0.00000000000E+00 -0.10957038510E+02  0.10957038510E+02  0.00000000000E+00 0.  1.
         23    2    1    2    0    0  0.00000000000E+00  0.00000000000E+00  0.19128271257E+03  0.21319678959E+03  0.94147729463E+02 0.  0.
        -13    1    3    3    0    0  0.17556535229E+02  0.33757723894E+02  0.32880481226E+02  0.50288586154E+02  0.00000000000E+00 0.  1.
         13    1    3    3    0    0 -0.17556535229E+02 -0.33757723894E+02  0.15840223134E+03  0.16290820343E+03  0.00000000000E+00 0. -1.
<mgrwt>
<rscale>  0 0.94147729E+02</rscale>
<asrwt>0</asrwt>
<pdfrwt beam="1">  1        1 0.31113805E-01 0.94147729E+02</pdfrwt>
<pdfrwt beam="2">  1       -1 0.16856984E-02 0.94147729E+02</pdfrwt>
<totfact> 0.10886332E+05</totfact>
</mgrwt>
</event>
<event>
 5    1  0.6085374E+000  0.1150319E+03  0.7546771E-02  0.1251525E+00
         -1   -1    0    0    0  501 -0.00000000000E+00  0.00000000000E+00  0.13577839175E+02  0.13577839175E+02  0.00000000000E+00 0.  1.
          1   -1    0    0  501    0  0.00000000000E+00 -0.00000000000E+00 -0.24363865481E+03  0.24363865481E+03  0.00000000000E+00 0. -1.
         23    2    1    2    0    0  0.00000000000E+00  0.00000000000E+00 -0.23006081564E+03  0.25721649399E+03  0.11503193421E+03 0.  0.
        -13    1    3    3    0    0 -0.34945821059E+02 -0.33959696322E+02 -0.18335299803E+03  0.18971766726E+03  0.00000000000E+00 0. -1.
         13    1    3    3    0    0  0.34945821059E+02  0.33959696322E+02 -0.46707817605E+02  0.67498826724E+02  0.00000000000E+00 0.  1.
<mgrwt>
<rscale>  0 0.11503193E+03</rscale>
<asrwt>0</asrwt>
<pdfrwt beam="2">  1        1 0.37482866E-01 0.11503193E+03</pdfrwt>
<pdfrwt beam="1">  1       -1 0.20888986E-02 0.11503193E+03</pdfrwt>
<totfact> 0.65582802E+04</totfact>
</mgrwt>
</event>
<event>
 5    1  0.6085374E+000  0.9038934E+02  0.7546771E-02  0.1301912E+00
         -1   -1    0    0    0  501 -0.00000000000E+00  0.00000000000E+00  0.15891703566E+02  0.15891703566E+02  0.00000000000E+00 0.  1.
          1   -1    0    0  501    0  0.00000000000E+00 -0.00000000000E+00 -0.12852985780E+03  0.12852985780E+03  0.00000000000E+00 0. -1.
         23    2    1    2    0    0  0.00000000000E+00  0.00000000000E+00 -0.11263815423E+03  0.14442156136E+03  0.90389344493E+02 0.  0.
        -13    1    3    3    0    0 -0.20517585531E+02  0.32245678747E+02 -0.17779860390E+02  0.42153037250E+02  0.00000000000E+00 0.  1.
         13    1    3    3    0    0  0.20517585531E+02 -0.32245678747E+02 -0.94858293841E+02  0.10226852411E+03  0.00000000000E+00 0. -1.
<mgrwt>
<rscale>  0 0.90389344E+02</rscale>
<asrwt>0</asrwt>
<pdfrwt beam="2">  1        1 0.19773825E-01 0.90389344E+02</pdfrwt>
<pdfrwt beam="1">  1       -1 0.24448774E-02 0.90389344E+02</pdfrwt>
<totfact> 0.11163515E+05</totfact>
</mgrwt>
</event>
<event>
 5    1  0.6085374E+000  0.8989240E+02  0.7546771E-02  0.1303112E+00
         -2   -1    0    0    0  501 -0.00000000000E+00  0.00000000000E+00  0.13965033123E+02  0.13965033123E+02  0.00000000000E+00 0. -1.
          2   -1    0    0  501    0  0.00000000000E+00 -0.00000000000E+00 -0.14465851973E+03  0.14465851973E+03  0.00000000000E+00 0.  1.
         23    2    1    2    0    0  0.00000000000E+00  0.00000000000E+00 -0.13069348660E+03  0.15862355285E+03  0.89892402781E+02 0.  0.
        -13    1    3    3    0    0 -0.38949397503E+02 -0.14029685204E+02 -0.96228309237E+02  0.10475578806E+03  0.00000000000E+00 0.  1.
         13    1    3    3    0    0  0.38949397503E+02  0.14029685204E+02 -0.34465177367E+02  0.53867764793E+02  0.00000000000E+00 0. -1.
<mgrwt>
<rscale>  0 0.89892403E+02</rscale>
<asrwt>0</asrwt>
<pdfrwt beam="2">  1        2 0.22255156E-01 0.89892403E+02</pdfrwt>
<pdfrwt beam="1">  1       -2 0.21484667E-02 0.89892403E+02</pdfrwt>
<totfact> 0.14352230E+05</totfact>
</mgrwt>
</event>
<event>
 5    1  0.6085374E+000  0.8880268E+02  0.7546771E-02  0.1305777E+00
         -1   -1    0    0    0  501 -0.00000000000E+00  0.00000000000E+00  0.51718167650E+01  0.51718167650E+01  0.00000000000E+00 0.  1.
          1   -1    0    0  501    0  0.00000000000E+00 -0.00000000000E+00 -0.38119660024E+03  0.38119660024E+03  0.00000000000E+00 0. -1.
         23    2    1    2    0    0  0.00000000000E+00  0.00000000000E+00 -0.37602478347E+03  0.38636841700E+03  0.88802679416E+02 0.  0.
        -13    1    3    3    0    0 -0.32824623615E+02  0.28358572394E+02 -0.14677904427E+03  0.15305473655E+03  0.00000000000E+00 0.  1.
         13    1    3    3    0    0  0.32824623615E+02 -0.28358572394E+02 -0.22924573920E+03  0.23331368045E+03  0.00000000000E+00 0. -1.
<mgrwt>
<rscale>  0 0.88802679E+02</rscale>
<asrwt>0</asrwt>
<pdfrwt beam="2">  1        1 0.58645665E-01 0.88802679E+02</pdfrwt>
<pdfrwt beam="1">  1       -1 0.79566366E-03 0.88802679E+02</pdfrwt>
<totfact> 0.14350782E+05</totfact>
</mgrwt>
</event>
<event>
 5    1  0.6085374E+000  0.9274838E+02  0.7546771E-02  0.1296329E+00
          2   -1    0    0  501    0  0.00000000000E+00  0.00000000000E+00  0.86444042537E+02  0.86444042537E+02  0.00000000000E+00 0. -1.
         -2   -1    0    0    0  501 -0.00000000000E+00 -0.00000000000E+00 -0.24878120552E+02  0.24878120552E+02  0.00000000000E+00 0.  1.
         23    2    1    2    0    0  0.00000000000E+00  0.00000000000E+00  0.61565921985E+02  0.11132216309E+03  0.92748375970E+02 0.  0.
        -13    1    3    3    0    0 -0.66414744299E+01 -0.38854911393E+02  0.60103520967E+02  0.71876606449E+02  0.00000000000E+00 0.  1.
         13    1    3    3    0    0  0.66414744299E+01  0.38854911393E+02  0.14624010180E+01  0.39445556641E+02  0.00000000000E+00 0. -1.
<mgrwt>
<rscale>  0 0.92748376E+02</rscale>
<asrwt>0</asrwt>
<pdfrwt beam="1">  1        2 0.13299083E-01 0.92748376E+02</pdfrwt>
<pdfrwt beam="2">  1       -2 0.38274032E-02 0.92748376E+02</pdfrwt>
<totfact> 0.11201587E+05</totfact>
</mgrwt>
</event>
<event>
 4    1  0.6085374E+000  0.2326347E+02  0.7546771E-02  0.1687275E+00
         -1   -1    0    0    0  501 -0.00000000000E+00  0.00000000000E+00  0.14131138522E+02  0.14131138522E+02  0.00000000000E+00 0.  1.
          1   -1    0    0  501    0  0.00000000000E+00 -0.00000000000E+00 -0.95744028822E+01  0.95744028822E+01  0.00000000000E+00 0. -1.
        -13    1    1    2    0    0 -0.36702403282E+01  0.93862103249E+01  0.81961003489E+01  0.12990291346E+02  0.00000000000E+00 0.  1.
         13    1    1    2    0    0  0.36702403282E+01 -0.93862103249E+01 -0.36393647087E+01  0.10715250058E+02  0.00000000000E+00 0. -1.
<mgrwt>
<rscale>  0 0.23263466E+02</rscale>
<asrwt>0</asrwt>
<pdfrwt beam="2">  1        1 0.14729851E-02 0.23263466E+02</pdfrwt>
<pdfrwt beam="1">  1       -1 0.21740213E-02 0.23263466E+02</pdfrwt>
<totfact> 0.27217874E+06</totfact>
</mgrwt>
</event>
<event>
 5    1  0.6085374E+000  0.8929543E+02  0.7546771E-02  0.1304567E+00
         -2   -1    0    0    0  501 -0.00000000000E+00  0.00000000000E+00  0.93914217328E+02  0.93914217328E+02  0.00000000000E+00 0.  1.
          2   -1    0    0  501    0  0.00000000000E+00 -0.00000000000E+00 -0.21225948878E+02  0.21225948878E+02  0.00000000000E+00 0. -1.
         23    2    1    2    0    0  0.00000000000E+00  0.00000000000E+00  0.72688268450E+02  0.11514016621E+03  0.89295428235E+02 0.  0.
        -13    1    3    3    0    0  0.17233711557E+02  0.34662561479E+02  0.65029940258E+02  0.75679502590E+02  0.00000000000E+00 0.  1.
         13    1    3    3    0    0 -0.17233711557E+02 -0.34662561479E+02  0.76583281916E+01  0.39460663616E+02  0.00000000000E+00 0. -1.
<mgrwt>
<rscale>  0 0.89295428E+02</rscale>
<asrwt>0</asrwt>
<pdfrwt beam="2">  1        2 0.32655306E-02 0.89295428E+02</pdfrwt>
<pdfrwt beam="1">  1       -2 0.14448341E-01 0.89295428E+02</pdfrwt>
<totfact> 0.85609076E+04</totfact>
</mgrwt>
</event>
<event>
 4    1  0.6085374E+000  0.1455620E+03  0.7546771E-02  0.1206035E+00
         -4   -1    0    0    0  501 -0.00000000000E+00  0.00000000000E+00  0.28237940411E+02  0.28237940411E+02  0.00000000000E+00 0.  1.
          4   -1    0    0  501    0  0.00000000000E+00 -0.00000000000E+00 -0.18758705592E+03  0.18758705592E+03  0.00000000000E+00 0. -1.
        -13    1    1    2    0    0  0.63111005182E+02  0.10549680752E+02 -0.13109625747E+03  0.14587845441E+03  0.00000000000E+00 0. -1.
         13    1    1    2    0    0 -0.63111005182E+02 -0.10549680752E+02 -0.28252858038E+02  0.69946541919E+02  0.00000000000E+00 0.  1.
<mgrwt>
<rscale>  0 0.14556197E+03</rscale>
<asrwt>0</asrwt>
<pdfrwt beam="2">  1        4 0.28859547E-01 0.14556197E+03</pdfrwt>
<pdfrwt beam="1">  1       -4 0.43442986E-02 0.14556197E+03</pdfrwt>
<totfact> 0.56933635E+03</totfact>
</mgrwt>
</event>
<event>
 5    1  0.6085374E+000  0.9948891E+02  0.7546771E-02  0.1281374E+00
          2   -1    0    0  501    0  0.00000000000E+00  0.00000000000E+00  0.12232777238E+02  0.12232777238E+02  0.00000000000E+00 0. -1.
         -2   -1    0    0    0  501 -0.00000000000E+00 -0.00000000000E+00 -0.20228527677E+03  0.20228527677E+03  0.00000000000E+00 0.  1.
         23    2    1    2    0    0  0.00000000000E+00  0.00000000000E+00 -0.19005249954E+03  0.21451805401E+03  0.99488908513E+02 0.  0.
        -13    1    3    3    0    0  0.48683266509E+02 -0.97442181391E+01 -0.88380216553E+02  0.10137096677E+03  0.00000000000E+00 0. -1.
         13    1    3    3    0    0 -0.48683266509E+02  0.97442181391E+01 -0.10167228298E+03  0.11314708724E+03  0.00000000000E+00 0.  1.
<mgrwt>
<rscale>  0 0.99488909E+02</rscale>
<asrwt>0</asrwt>
<pdfrwt beam="1">  1        2 0.18819658E-02 0.99488909E+02</pdfrwt>
<pdfrwt beam="2">  1       -2 0.31120811E-01 0.99488909E+02</pdfrwt>
<totfact> 0.49605667E+04</totfact>
</mgrwt>
</event>
<event>
 5    1  0.6085374E+000  0.9271482E+02  0.7546771E-02  0.1296407E+00
         -1   -1    0    0    0  501 -0.00000000000E+00  0.00000000000E+00  0.86187785621E+01  0.86187785621E+01  0.00000000000E+00 0.  1.
          1   -1    0    0  501    0  0.00000000000E+00 -0.00000000000E+00 -0.24934039735E+03  0.24934039735E+03  0.00000000000E+00 0. -1.
         23    2    1    2    0    0  0.00000000000E+00  0.00000000000E+00 -0.24072161879E+03  0.25795917591E+03  0.92714824518E+02 0.  0.
        -13    1    3    3    0    0  0.34624938430E+02 -0.96447051145E+01 -0.20181591312E+03  0.20499163272E+03  0.00000000000E+00 0. -1.
         13    1    3    3    0    0 -0.34624938430E+02  0.96447051145E+01 -0.38905705671E+02  0.52967543192E+02  0.00000000000E+00 0.  1.
<mgrwt>
<rscale>  0 0.92714825E+02</rscale>
<asrwt>0</asrwt>
<pdfrwt beam="2">  1        1 0.38360065E-01 0.92714825E+02</pdfrwt>
<pdfrwt beam="1">  1       -1 0.13259658E-02 0.92714825E+02</pdfrwt>
<totfact> 0.11819584E+05</totfact>
</mgrwt>
</event>
<event>
 5    1  0.6085374E+000  0.9191096E+02  0.7546771E-02  0.1298289E+00
         -4   -1    0    0    0  501 -0.00000000000E+00  0.00000000000E+00  0.41847130847E+02  0.41847130847E+02  0.00000000000E+00 0.  1.
          4   -1    0    0  501    0  0.00000000000E+00 -0.00000000000E+00 -0.50467166886E+02  0.50467166886E+02  0.00000000000E+00 0. -1.
         23    2    1    2    0    0  0.00000000000E+00  0.00000000000E+00 -0.86200360388E+01  0.92314297733E+02  0.91910959873E+02 0.  0.
        -13    1    3    3    0    0  0.32411739784E+02 -0.23363090757E+02  0.18495376564E+02  0.44027648583E+02  0.00000000000E+00 0.  1.
         13    1    3    3    0    0 -0.32411739784E+02  0.23363090757E+02 -0.27115412603E+02  0.48286649150E+02  0.00000000000E+00 0. -1.
<mgrwt>
<rscale>  0 0.91910960E+02</rscale>
<asrwt>0</asrwt>
<pdfrwt beam="2">  1        4 0.77641795E-02 0.91910960E+02</pdfrwt>
<pdfrwt beam="1">  1       -4 0.64380201E-02 0.91910960E+02</pdfrwt>
<totfact> 0.26361684E+04</totfact>
</mgrwt>
</event>
<event>
 5    1  0.6085374E+000  0.9078628E+02  0.7546771E-02  0.1300959E+00
          2   -1    0    0  501    0  0.00000000000E+00  0.00000000000E+00  0.34518979852E+03  0.34518979852E+03  0.00000000000E+00 0. -1.
         -2   -1    0    0    0  501 -0.00000000000E+00 -0.00000000000E+00 -0.59692878688E+01  0.59692878688E+01  0.00000000000E+00 0.  1.
         23    2    1    2    0    0  0.00000000000E+00  0.00000000000E+00  0.33922051065E+03  0.35115908639E+03  0.90786282592E+02 0.  0.
        -13    1    3    3    0    0  0.25486432291E+02 -0.34599904166E+02  0.11304970775E+03  0.12094192003E+03  0.00000000000E+00 0.  1.
         13    1    3    3    0    0 -0.25486432291E+02  0.34599904166E+02  0.22617080290E+03  0.23021716636E+03  0.00000000000E+00 0. -1.
<mgrwt>
<rscale>  0 0.90786283E+02</rscale>
<asrwt>0</asrwt>
<pdfrwt beam="1">  1        2 0.53106107E-01 0.90786283E+02</pdfrwt>
<pdfrwt beam="2">  1       -2 0.91835225E-03 0.90786283E+02</pdfrwt>
<totfact> 0.19140815E+05</totfact>
</mgrwt>
</event>
<event>
 5    1  0.6085374E+000  0.8903146E+02  0.7546771E-02  0.1305214E+00
          1   -1    0    0  501    0  0.00000000000E+00  0.00000000000E+00  0.18529683897E+02  0.18529683897E+02  0.00000000000E+00 0. -1.
         -1   -1    0    0    0  501 -0.00000000000E+00 -0.00000000000E+00 -0.10694462897E+03  0.10694462897E+03  0.00000000000E+00 0.  1.
         23    2    1    2    0    0  0.00000000000E+00  0.00000000000E+00 -0.88414945070E+02  0.12547431286E+03  0.89031458917E+02 0.  0.
        -13    1    3    3    0    0 -0.34510600987E+02  0.13644727938E+02 -0.95572608467E+01  0.38321030986E+02  0.00000000000E+00 0.  1.
         13    1    3    3    0    0  0.34510600987E+02 -0.13644727938E+02 -0.78857684223E+02  0.87153281877E+02  0.00000000000E+00 0. -1.
<mgrwt>
<rscale>  0 0.89031459E+02</rscale>
<asrwt>0</asrwt>
<pdfrwt beam="1">  1        1 0.28507206E-02 0.89031459E+02</pdfrwt>
<pdfrwt beam="2">  1       -1 0.16453020E-01 0.89031459E+02</pdfrwt>
<totfact> 0.85426147E+04</totfact>
</mgrwt>
</event>
<event>
 5    1  0.6085374E+000  0.8626490E+02  0.7546771E-02  0.1312157E+00
         -3   -1    0    0    0  501 -0.00000000000E+00  0.00000000000E+00  0.33371048071E+02  0.33371048071E+02  0.00000000000E+00 0.  1.
          3   -1    0    0  501    0  0.00000000000E+00 -0.00000000000E+00 -0.55749170750E+02  0.55749170750E+02  0.00000000000E+00 0. -1.
         23    2    1    2    0    0  0.00000000000E+00  0.00000000000E+00 -0.22378122679E+02  0.89120218821E+02  0.86264900325E+02 0.  0.
        -13    1    3    3    0    0 -0.23585878751E+02  0.30968488556E+02  0.80017802403E+01  0.39741281395E+02  0.00000000000E+00 0.  1.
         13    1    3    3    0    0  0.23585878751E+02 -0.30968488556E+02 -0.30379902919E+02  0.49378937426E+02  0.00000000000E+00 0. -1.
<mgrwt>
<rscale>  0 0.86264900E+02</rscale>
<asrwt>0</asrwt>
<pdfrwt beam="2">  1        3 0.85767955E-02 0.86264900E+02</pdfrwt>
<pdfrwt beam="1">  1       -3 0.51340074E-02 0.86264900E+02</pdfrwt>
<totfact> 0.41250759E+04</totfact>
</mgrwt>
</event>
<event>
 5    1  0.6085374E+000  0.9691521E+02  0.7546771E-02  0.1286920E+00
         -2   -1    0    0    0  501 -0.00000000000E+00  0.00000000000E+00  0.32295509665E+02  0.32295509665E+02  0.00000000000E+00 0.  1.
          2   -1    0    0  501    0  0.00000000000E+00 -0.00000000000E+00 -0.72707921555E+02  0.72707921555E+02  0.00000000000E+00 0. -1.
         23    2    1    2    0    0  0.00000000000E+00  0.00000000000E+00 -0.40412411890E+02  0.10500343122E+03  0.96915207955E+02 0.  0.
        -13    1    3    3    0    0  0.19058732689E+02  0.28980132405E+02  0.16456534609E+02  0.38391416974E+02  0.00000000000E+00 0.  1.
         13    1    3    3    0    0 -0.19058732689E+02 -0.28980132405E+02 -0.56868946499E+02  0.66612014245E+02  0.00000000000E+00 0. -1.
<mgrwt>
<rscale>  0 0.96915208E+02</rscale>
<asrwt>0</asrwt>
<pdfrwt beam="2">  1        2 0.11185834E-01 0.96915208E+02</pdfrwt>
<pdfrwt beam="1">  1       -2 0.49685400E-02 0.96915208E+02</pdfrwt>
<totfact> 0.94180229E+04</totfact>
</mgrwt>
</event>
<event>
 5    1  0.6085374E+000  0.9599397E+02  0.7546771E-02  0.1288953E+00
          2   -1    0    0  501    0  0.00000000000E+00  0.00000000000E+00  0.56199260414E+02  0.56199260414E+02  0.00000000000E+00 0. -1.
         -2   -1    0    0    0  501 -0.00000000000E+00 -0.00000000000E+00 -0.40991827794E+02  0.40991827794E+02  0.00000000000E+00 0.  1.
         23    2    1    2    0    0  0.00000000000E+00  0.00000000000E+00  0.15207432620E+02  0.97191088207E+02  0.95993966581E+02 0.  0.
        -13    1    3    3    0    0 -0.17810828349E+02 -0.14500583075E+02  0.50274500772E+02  0.55272216744E+02  0.00000000000E+00 0. -1.
         13    1    3    3    0    0  0.17810828349E+02  0.14500583075E+02 -0.35067068152E+02  0.41918871463E+02  0.00000000000E+00 0.  1.
<mgrwt>
<rscale>  0 0.95993967E+02</rscale>
<asrwt>0</asrwt>
<pdfrwt beam="1">  1        2 0.86460401E-02 0.95993967E+02</pdfrwt>
<pdfrwt beam="2">  1       -2 0.63064350E-02 0.95993967E+02</pdfrwt>
<totfact> 0.90020498E+04</totfact>
</mgrwt>
</event>
<event>
 5    1  0.6085374E+000  0.9331968E+02  0.7546771E-02  0.1295006E+00
         -2   -1    0    0    0  501 -0.00000000000E+00  0.00000000000E+00  0.53258910329E+01  0.53258910329E+01  0.00000000000E+00 0.  1.
          2   -1    0    0  501    0  0.00000000000E+00 -0.00000000000E+00 -0.40878433138E+03  0.40878433138E+03  0.00000000000E+00 0. -1.
         23    2    1    2    0    0  0.00000000000E+00  0.00000000000E+00 -0.40345844035E+03  0.41411022242E+03  0.93319682916E+02 0.  0.
        -13    1    3    3    0    0 -0.20687100435E+02  0.40156155366E+02 -0.14985209461E+03  0.15651237394E+03  0.00000000000E+00 0.  1.
         13    1    3    3    0    0  0.20687100435E+02 -0.40156155366E+02 -0.25360634574E+03  0.25759784848E+03  0.00000000000E+00 0. -1.
<mgrwt>
<rscale>  0 0.93319683E+02</rscale>
<asrwt>0</asrwt>
<pdfrwt beam="2">  1        2 0.62889905E-01 0.93319683E+02</pdfrwt>
<pdfrwt beam="1">  1       -2 0.81936775E-03 0.93319683E+02</pdfrwt>
<totfact> 0.18912763E+05</totfact>
</mgrwt>
</event>
<event>
 5    1  0.6085374E+000  0.9470634E+02  0.7546771E-02  0.1291839E+00
          2   -1    0    0  501    0  0.00000000000E+00  0.00000000000E+00  0.46921780921E+02  0.46921780921E+02  0.00000000000E+00 0. -1.
         -2   -1    0    0    0  501 -0.00000000000E+00 -0.00000000000E+00 -0.47788529580E+02  0.47788529580E+02  0.00000000000E+00 0.  1.
         23    2    1    2    0    0  0.00000000000E+00  0.00000000000E+00 -0.86674865917E+00  0.94710310501E+02  0.94706344360E+02 0.  0.
        -13    1    3    3    0    0 -0.63646978479E+01  0.43836622536E+02 -0.17172177380E+02  0.47508341689E+02  0.00000000000E+00 0.  1.
         13    1    3    3    0    0  0.63646978479E+01 -0.43836622536E+02  0.16305428721E+02  0.47201968813E+02  0.00000000000E+00 0. -1.
<mgrwt>
<rscale>  0 0.94706344E+02</rscale>
<asrwt>0</asrwt>
<pdfrwt beam="1">  1        2 0.72187356E-02 0.94706344E+02</pdfrwt>
<pdfrwt beam="2">  1       -2 0.73520814E-02 0.94706344E+02</pdfrwt>
<totfact> 0.89123256E+04</totfact>
</mgrwt>
</event>
<event>
 5    1  0.6085374E+000  0.9012681E+02  0.7546771E-02  0.1302545E+00
          3   -1    0    0  501    0  0.00000000000E+00  0.00000000000E+00  0.10813490721E+03  0.10813490721E+03  0.00000000000E+00 0. -1.
         -3   -1    0    0    0  501 -0.00000000000E+00 -0.00000000000E+00 -0.18779416768E+02  0.18779416768E+02  0.00000000000E+00 0.  1.
         23    2    1    2    0    0  0.00000000000E+00  0.00000000000E+00  0.89355490444E+02  0.12691432398E+03  0.90126810433E+02 0.  0.
        -13    1    3    3    0    0 -0.23057278342E+02  0.34245948024E+02  0.70114214189E+02  0.81366000712E+02  0.00000000000E+00 0. -1.
         13    1    3    3    0    0  0.23057278342E+02 -0.34245948024E+02  0.19241276255E+02  0.45548323268E+02  0.00000000000E+00 0.  1.
<mgrwt>
<rscale>  0 0.90126810E+02</rscale>
<asrwt>0</asrwt>
<pdfrwt beam="1">  1        3 0.16636139E-01 0.90126810E+02</pdfrwt>
<pdfrwt beam="2">  1       -3 0.28891411E-02 0.90126810E+02</pdfrwt>
<totfact> 0.33824733E+04</totfact>
</mgrwt>
</event>
<event>
 5    1  0.6085374E+000  0.8708478E+02  0.7546771E-02  0.1310069E+00
         -1   -1    0    0    0  501 -0.00000000000E+00  0.00000000000E+00  0.15264500180E+02  0.15264500180E+02  0.00000000000E+00 0.  1.
          1   -1    0    0  501    0  0.00000000000E+00 -0.00000000000E+00 -0.12420582542E+03  0.12420582542E+03  0.00000000000E+00 0. -1.
         23    2    1    2    0    0  0.00000000000E+00  0.00000000000E+00 -0.10894132524E+03  0.13947032560E+03  0.87084782703E+02 0.  0.
        -13    1    3    3    0    0  0.34183688747E+02  0.26725408358E+02 -0.48659053155E+02  0.65195670732E+02  0.00000000000E+00 0. -1.
         13    1    3    3    0    0 -0.34183688747E+02 -0.26725408358E+02 -0.60282272089E+02  0.74274654872E+02  0.00000000000E+00 0.  1.
<mgrwt>
<rscale>  0 0.87084783E+02</rscale>
<asrwt>0</asrwt>
<pdfrwt beam="2">  1        1 0.19108588E-01 0.87084783E+02</pdfrwt>
<pdfrwt beam="1">  1       -1 0.23483847E-02 0.87084783E+02</pdfrwt>
<totfact> 0.12269730E+05</totfact>
</mgrwt>
</event>
<event>
 5    1  0.6085374E+000  0.8833146E+02  0.7546771E-02  0.1306943E+00
         -1   -1    0    0    0  501 -0.00000000000E+00  0.00000000000E+00  0.22008937239E+02  0.22008937239E+02  0.00000000000E+00 0.  1.
          1   -1    0    0  501    0  0.00000000000E+00 -0.00000000000E+00 -0.88628171575E+02  0.88628171575E+02  0.00000000000E+00 0. -1.
         23    2    1    2    0    0  0.00000000000E+00  0.00000000000E+00 -0.66619234336E+02  0.11063710881E+03  0.88331463609E+02 0.  0.
        -13    1    3    3    0    0 -0.32401088685E+02 -0.28428257719E+02 -0.45363506082E+02  0.62576705482E+02  0.00000000000E+00 0. -1.
         13    1    3    3    0    0  0.32401088685E+02  0.28428257719E+02 -0.21255728253E+02  0.48060403332E+02  0.00000000000E+00 0.  1.
<mgrwt>
<rscale>  0 0.88331464E+02</rscale>
<asrwt>0</asrwt>
<pdfrwt beam="2">  1        1 0.13635103E-01 0.88331464E+02</pdfrwt>
<pdfrwt beam="1">  1       -1 0.33859904E-02 0.88331464E+02</pdfrwt>
<totfact> 0.11165624E+05</totfact>
</mgrwt>
</event>
<event>
 5    1  0.6085374E+000  0.9087382E+02  0.7546771E-02  0.1300749E+00
         -2   -1    0    0    0  501 -0.00000000000E+00  0.00000000000E+00  0.20715264566E+02  0.20715264566E+02  0.00000000000E+00 0.  1.
          2   -1    0    0  501    0  0.00000000000E+00 -0.00000000000E+00 -0.99661432189E+02  0.99661432189E+02  0.00000000000E+00 0. -1.
         23    2    1    2    0    0  0.00000000000E+00  0.00000000000E+00 -0.78946167623E+02  0.12037669675E+03  0.90873823179E+02 0.  0.
        -13    1    3    3    0    0 -0.16693884216E+02 -0.32421501343E+02 -0.35684266343E+01  0.36641140651E+02  0.00000000000E+00 0.  1.
         13    1    3    3    0    0  0.16693884216E+02  0.32421501343E+02 -0.75377740989E+02  0.83735556104E+02  0.00000000000E+00 0. -1.
<mgrwt>
<rscale>  0 0.90873823E+02</rscale>
<asrwt>0</asrwt>
<pdfrwt beam="2">  1        2 0.15332528E-01 0.90873823E+02</pdfrwt>
<pdfrwt beam="1">  1       -2 0.31869638E-02 0.90873823E+02</pdfrwt>
<totfact> 0.12367772E+05</totfact>
</mgrwt>
</event>
<event>
 5    1  0.6085374E+000  0.9065155E+02  0.7546771E-02  0.1301282E+00
          2   -1    0    0  501    0  0.00000000000E+00  0.00000000000E+00  0.11225039121E+02  0.11225039121E+02  0.00000000000E+00 0. -1.
         -2   -1    0    0    0  501 -0.00000000000E+00 -0.00000000000E+00 -0.18302170078E+03  0.18302170078E+03  0.00000000000E+00 0.  1.
         23    2    1    2    0    0  0.00000000000E+00  0.00000000000E+00 -0.17179666166E+03  0.19424673990E+03  0.90651547174E+02 0.  0.
        -13    1    3    3    0    0 -0.43188128341E+02 -0.62034841661E+01 -0.11220559215E+03  0.12039016801E+03  0.00000000000E+00 0.  1.
         13    1    3    3    0    0  0.43188128341E+02  0.62034841661E+01 -0.59591069514E+02  0.73856571889E+02  0.00000000000E+00 0. -1.
<mgrwt>
<rscale>  0 0.90651547E+02</rscale>
<asrwt>0</asrwt>
<pdfrwt beam="1">  1        2 0.17269293E-02 0.90651547E+02</pdfrwt>
<pdfrwt beam="2">  1       -2 0.28157182E-01 0.90651547E+02</pdfrwt>
<totfact> 0.65651486E+04</totfact>
</mgrwt>
</event>
<event>
 5    1  0.6085374E+000  0.7776576E+02  0.7546771E-02  0.1335514E+00
          2   -1    0    0  501    0  0.00000000000E+00  0.00000000000E+00  0.18740801722E+03  0.18740801722E+03  0.00000000000E+00 0. -1.
         -2   -1    0    0    0  501 -0.00000000000E+00 -0.00000000000E+00 -0.80673091046E+01  0.80673091046E+01  0.00000000000E+00 0.  1.
         23    2    1    2    0    0  0.00000000000E+00  0.00000000000E+00  0.17934070812E+03  0.19547532633E+03  0.77765761196E+02 0.  0.
        -13    1    3    3    0    0  0.30318708925E+02  0.10744008207E+01  0.28536626439E+02  0.41649939934E+02  0.00000000000E+00 0.  1.
         13    1    3    3    0    0 -0.30318708925E+02 -0.10744008207E+01  0.15080408168E+03  0.15382538639E+03  0.00000000000E+00 0. -1.
<mgrwt>
<rscale>  0 0.77765761E+02</rscale>
<asrwt>0</asrwt>
<pdfrwt beam="1">  1        2 0.28831999E-01 0.77765761E+02</pdfrwt>
<pdfrwt beam="2">  1       -2 0.12411246E-02 0.77765761E+02</pdfrwt>
<totfact> 0.23108190E+05</totfact>
</mgrwt>
</event>
<event>
 5    1  0.6085374E+000  0.9060678E+02  0.7546771E-02  0.1301389E+00
          1   -1    0    0  501    0  0.00000000000E+00  0.00000000000E+00  0.12818053714E+03  0.12818053714E+03  0.00000000000E+00 0. -1.
         -1   -1    0    0    0  501 -0.00000000000E+00 -0.00000000000E+00 -0.16011769561E+02  0.16011769561E+02  0.00000000000E+00 0.  1.
         23    2    1    2    0    0  0.00000000000E+00  0.00000000000E+00  0.11216876758E+03  0.14419230670E+03  0.90606781709E+02 0.  0.
        -13    1    3    3    0    0  0.11637968566E+02 -0.22619704554E+02  0.11574208391E+03  0.11850452875E+03  0.00000000000E+00 0. -1.
         13    1    3    3    0    0 -0.11637968566E+02  0.22619704554E+02 -0.35733163304E+01  0.25687777951E+02  0.00000000000E+00 0.  1.
<mgrwt>
<rscale>  0 0.90606782E+02</rscale>
<asrwt>0</asrwt>
<pdfrwt beam="1">  1        1 0.19720082E-01 0.90606782E+02</pdfrwt>
<pdfrwt beam="2">  1       -1 0.24633492E-02 0.90606782E+02</pdfrwt>
<totfact> 0.11085922E+05</totfact>
</mgrwt>
</event>
<event>
 5    1  0.6085374E+000  0.8315083E+02  0.7546771E-02  0.1320340E+00
          2   -1    0    0  501    0  0.00000000000E+00  0.00000000000E+00  0.21233518777E+02  0.21233518777E+02  0.00000000000E+00 0. -1.
         -2   -1    0    0    0  501 -0.00000000000E+00 -0.00000000000E+00 -0.81405033157E+02  0.81405033157E+02  0.00000000000E+00 0.  1.
         23    2    1    2    0    0  0.00000000000E+00  0.00000000000E+00 -0.60171514381E+02  0.10263855193E+03  0.83150834032E+02 0.  0.
        -13    1    3    3    0    0 -0.12499845911E+02 -0.38763081658E+02 -0.19781008521E+02  0.45278150863E+02  0.00000000000E+00 0. -1.
         13    1    3    3    0    0  0.12499845911E+02  0.38763081658E+02 -0.40390505859E+02  0.57360401071E+02  0.00000000000E+00 0.  1.
<mgrwt>
<rscale>  0 0.83150834E+02</rscale>
<asrwt>0</asrwt>
<pdfrwt beam="1">  1        2 0.32666952E-02 0.83150834E+02</pdfrwt>
<pdfrwt beam="2">  1       -2 0.12523851E-01 0.83150834E+02</pdfrwt>
<totfact> 0.10622717E+05</totfact>
</mgrwt>
</event>
<event>
 5    1  0.6085374E+000  0.8272488E+02  0.7546771E-02  0.1321492E+00
          1   -1    0    0  501    0  0.00000000000E+00  0.00000000000E+00  0.55942597584E+02  0.55942597584E+02  0.00000000000E+00 0. -1.
         -1   -1    0    0    0  501 -0.00000000000E+00 -0.00000000000E+00 -0.30582266067E+02  0.30582266067E+02  0.00000000000E+00 0.  1.
         23    2    1    2    0    0  0.00000000000E+00  0.00000000000E+00  0.25360331516E+02  0.86524863651E+02  0.82724879058E+02 0.  0.
        -13    1    3    3    0    0 -0.34271513647E+02 -0.22325568621E+02  0.19117872912E+02  0.45149315904E+02  0.00000000000E+00 0. -1.
         13    1    3    3    0    0  0.34271513647E+02  0.22325568621E+02  0.62424586044E+01  0.41375547747E+02  0.00000000000E+00 0.  1.
<mgrwt>
<rscale>  0 0.82724879E+02</rscale>
<asrwt>0</asrwt>
<pdfrwt beam="1">  1        1 0.86065535E-02 0.82724879E+02</pdfrwt>
<pdfrwt beam="2">  1       -1 0.47049640E-02 0.82724879E+02</pdfrwt>
<totfact> 0.12471960E+05</totfact>
</mgrwt>
</event>
<event>
 5    1  0.6085374E+000  0.9227425E+02  0.7546771E-02  0.1297436E+00
         -3   -1    0    0    0  501 -0.00000000000E+00  0.00000000000E+00  0.66665524519E+02  0.66665524519E+02  0.00000000000E+00 0.  1.
          3   -1    0    0  501    0  0.00000000000E+00 -0.00000000000E+00 -0.31930058800E+02  0.31930058800E+02  0.00000000000E+00 0. -1.
         23    2    1    2    0    0  0.00000000000E+00  0.00000000000E+00  0.34735465718E+02  0.98595583319E+02  0.92274245981E+02 0.  0.
        -13    1    3    3    0    0  0.18835370944E+02  0.36605948524E+02 -0.48886965200E+01  0.41456797026E+02  0.00000000000E+00 0. -1.
         13    1    3    3    0    0 -0.18835370944E+02 -0.36605948524E+02  0.39624162239E+02  0.57138786293E+02  0.00000000000E+00 0.  1.
<mgrwt>
<rscale>  0 0.92274246E+02</rscale>
<asrwt>0</asrwt>
<pdfrwt beam="2">  1        3 0.49123168E-02 0.92274246E+02</pdfrwt>
<pdfrwt beam="1">  1       -3 0.10256234E-01 0.92274246E+02</pdfrwt>
<totfact> 0.33659646E+04</totfact>
</mgrwt>
</event>
<event>
 5    1  0.6085374E+000  0.8977171E+02  0.7546771E-02  0.1303405E+00
          1   -1    0    0  501    0  0.00000000000E+00  0.00000000000E+00  0.14866727142E+03  0.14866727142E+03  0.00000000000E+00 0. -1.
         -1   -1    0    0    0  501 -0.00000000000E+00 -0.00000000000E+00 -0.13552007926E+02  0.13552007926E+02  0.00000000000E+00 0.  1.
         23    2    1    2    0    0  0.00000000000E+00  0.00000000000E+00  0.13511526349E+03  0.16221927935E+03  0.89771711373E+02 0.  0.
        -13    1    3    3    0    0 -0.27196431072E+02 -0.56955126433E+01  0.13125746622E+03  0.13416634141E+03  0.00000000000E+00 0. -1.
         13    1    3    3    0    0  0.27196431072E+02  0.56955126433E+01  0.38577972722E+01  0.28052937941E+02  0.00000000000E+00 0.  1.
<mgrwt>
<rscale>  0 0.89771711E+02</rscale>
<asrwt>0</asrwt>
<pdfrwt beam="1">  1        1 0.22871887E-01 0.89771711E+02</pdfrwt>
<pdfrwt beam="2">  1       -1 0.20849244E-02 0.89771711E+02</pdfrwt>
<totfact> 0.11673245E+05</totfact>
</mgrwt>
</event>
<event>
 5    1  0.6085374E+000  0.8969256E+02  0.7546771E-02  0.1303598E+00
          1   -1    0    0  501    0  0.00000000000E+00  0.00000000000E+00  0.59913875227E+02  0.59913875227E+02  0.00000000000E+00 0. -1.
         -1   -1    0    0    0  501 -0.00000000000E+00 -0.00000000000E+00 -0.33567999005E+02  0.33567999005E+02  0.00000000000E+00 0.  1.
         23    2    1    2    0    0  0.00000000000E+00  0.00000000000E+00  0.26345876222E+02  0.93481874232E+02  0.89692561654E+02 0.  0.
        -13    1    3    3    0    0  0.93412915813E+01 -0.10804072102E+02  0.57480131070E+02  0.59227976246E+02  0.00000000000E+00 0. -1.
         13    1    3    3    0    0 -0.93412915813E+01  0.10804072102E+02 -0.31134254847E+02  0.34253897986E+02  0.00000000000E+00 0.  1.
<mgrwt>
<rscale>  0 0.89692562E+02</rscale>
<asrwt>0</asrwt>
<pdfrwt beam="1">  1        1 0.92175192E-02 0.89692562E+02</pdfrwt>
<pdfrwt beam="2">  1       -1 0.51643076E-02 0.89692562E+02</pdfrwt>
<totfact> 0.10082913E+05</totfact>
</mgrwt>
</event>
<event>
 5    1  0.6085374E+000  0.9287821E+02  0.7546771E-02  0.1296028E+00
          2   -1    0    0  501    0  0.00000000000E+00  0.00000000000E+00  0.13188254613E+02  0.13188254613E+02  0.00000000000E+00 0. -1.
         -2   -1    0    0    0  501 -0.00000000000E+00 -0.00000000000E+00 -0.16352356643E+03  0.16352356643E+03  0.00000000000E+00 0.  1.
         23    2    1    2    0    0  0.00000000000E+00  0.00000000000E+00 -0.15033531182E+03  0.17671182104E+03  0.92878209055E+02 0.  0.
        -13    1    3    3    0    0  0.14215294576E+02  0.42100099404E+02 -0.49493054297E+02  0.66513573001E+02  0.00000000000E+00 0.  1.
         13    1    3    3    0    0 -0.14215294576E+02 -0.42100099404E+02 -0.10084225752E+03  0.11019824804E+03  0.00000000000E+00 0. -1.
<mgrwt>
<rscale>  0 0.92878209E+02</rscale>
<asrwt>0</asrwt>
<pdfrwt beam="1">  1        2 0.20289623E-02 0.92878209E+02</pdfrwt>
<pdfrwt beam="2">  1       -2 0.25157471E-01 0.92878209E+02</pdfrwt>
<totfact> 0.64537777E+04</totfact>
</mgrwt>
</event>
<event>
 5    1  0.6085374E+000  0.9216439E+02  0.7546771E-02  0.1297693E+00
          2   -1    0    0  501    0  0.00000000000E+00  0.00000000000E+00  0.86774744211E+02  0.86774744211E+02  0.00000000000E+00 0.  1.
         -2   -1    0    0    0  501 -0.00000000000E+00 -0.00000000000E+00 -0.24472200036E+02  0.24472200036E+02  0.00000000000E+00 0. -1.
         23    2    1    2    0    0  0.00000000000E+00  0.00000000000E+00  0.62302544176E+02  0.11124694425E+03  0.92164394392E+02 0.  0.
        -13    1    3    3    0    0 -0.17083096380E+02  0.34662532278E+02  0.84867728941E+00  0.38652859907E+02  0.00000000000E+00 0. -1.
         13    1    3    3    0    0  0.17083096380E+02 -0.34662532278E+02  0.61453866886E+02  0.72594084340E+02  0.00000000000E+00 0.  1.
<mgrwt>
<rscale>  0 0.92164394E+02</rscale>
<asrwt>0</asrwt>
<pdfrwt beam="1">  1        2 0.13349960E-01 0.92164394E+02</pdfrwt>
<pdfrwt beam="2">  1       -2 0.37649539E-02 0.92164394E+02</pdfrwt>
<totfact> 0.11412680E+05</totfact>
</mgrwt>
</event>
<event>
 5    1  0.6085374E+000  0.9515664E+02  0.7546771E-02  0.1290824E+00
         -2   -1    0    0    0  501 -0.00000000000E+00  0.00000000000E+00  0.10042305653E+02  0.10042305653E+02  0.00000000000E+00 0.  1.
          2   -1    0    0  501    0  0.00000000000E+00 -0.00000000000E+00 -0.22541601674E+03  0.22541601674E+03  0.00000000000E+00 0. -1.
         23    2    1    2    0    0  0.00000000000E+00  0.00000000000E+00 -0.21537371108E+03  0.23545832239E+03  0.95156640106E+02 0.  0.
        -13    1    3    3    0    0 -0.44773457056E+02  0.15985750007E+02 -0.11230938972E+03  0.12195739289E+03  0.00000000000E+00 0. -1.
         13    1    3    3    0    0  0.44773457056E+02 -0.15985750007E+02 -0.10306432136E+03  0.11350092950E+03  0.00000000000E+00 0.  1.
<mgrwt>
<rscale>  0 0.95156640E+02</rscale>
<asrwt>0</asrwt>
<pdfrwt beam="2">  1        2 0.34679388E-01 0.95156640E+02</pdfrwt>
<pdfrwt beam="1">  1       -2 0.15449701E-02 0.95156640E+02</pdfrwt>
<totfact> 0.14401389E+05</totfact>
</mgrwt>
</event>
<event>
 5    1  0.6085374E+000  0.9103889E+02  0.7546771E-02  0.1300355E+00
         -1   -1    0    0    0  501 -0.00000000000E+00  0.00000000000E+00  0.79641588523E+02  0.79641588523E+02  0.00000000000E+00 0.  1.
          1   -1    0    0  501    0  0.00000000000E+00 -0.00000000000E+00 -0.26016805957E+02  0.26016805957E+02  0.00000000000E+00 0. -1.
         23    2    1    2    0    0  0.00000000000E+00  0.00000000000E+00  0.53624782567E+02  0.10565839448E+03  0.91038887398E+02 0.  0.
        -13    1    3    3    0    0 -0.95974471713E+01  0.43607817997E+02  0.16544852977E+02  0.47618115698E+02  0.00000000000E+00 0. -1.
         13    1    3    3    0    0  0.95974471713E+01 -0.43607817997E+02  0.37079929590E+02  0.58040278782E+02  0.00000000000E+00 0.  1.
<mgrwt>
<rscale>  0 0.91038887E+02</rscale>
<asrwt>0</asrwt>
<pdfrwt beam="2">  1        1 0.40025856E-02 0.91038887E+02</pdfrwt>
<pdfrwt beam="1">  1       -1 0.12252552E-01 0.91038887E+02</pdfrwt>
<totfact> 0.85044166E+04</totfact>
</mgrwt>
</event>
<event>
 5    1  0.6085374E+000  0.9158093E+02  0.7546771E-02  0.1299068E+00
          2   -1    0    0  501    0  0.00000000000E+00  0.00000000000E+00  0.18487312032E+03  0.18487312032E+03  0.00000000000E+00 0. -1.
         -2   -1    0    0    0  501 -0.00000000000E+00 -0.00000000000E+00 -0.11341651945E+02  0.11341651945E+02  0.00000000000E+00 0.  1.
         23    2    1    2    0    0  0.00000000000E+00  0.00000000000E+00  0.17353146837E+03  0.19621477226E+03  0.91580927810E+02 0.  0.
        -13    1    3    3    0    0 -0.31057113710E+02  0.82964385948E+01  0.15663291655E+03  0.15989761022E+03  0.00000000000E+00 0. -1.
         13    1    3    3    0    0  0.31057113710E+02 -0.82964385948E+01  0.16898551818E+02  0.36317162044E+02  0.00000000000E+00 0.  1.
<mgrwt>
<rscale>  0 0.91580928E+02</rscale>
<asrwt>0</asrwt>
<pdfrwt beam="1">  1        2 0.28442017E-01 0.91580928E+02</pdfrwt>
<pdfrwt beam="2">  1       -2 0.17448697E-02 0.91580928E+02</pdfrwt>
<totfact> 0.14858450E+05</totfact>
</mgrwt>
</event>
<event>
 5    1  0.6085374E+000  0.9062692E+02  0.7546771E-02  0.1301341E+00
         -3   -1    0    0    0  501 -0.00000000000E+00  0.00000000000E+00  0.31707875937E+02  0.31707875937E+02  0.00000000000E+00 0.  1.
          3   -1    0    0  501    0  0.00000000000E+00 -0.00000000000E+00 -0.64757083356E+02  0.64757083356E+02  0.00000000000E+00 0. -1.
         23    2    1    2    0    0  0.00000000000E+00  0.00000000000E+00 -0.33049207419E+02  0.96464959293E+02  0.90626917968E+02 0.  0.
        -13    1    3    3    0    0 -0.15026076325E+02  0.42504156505E+02 -0.11655744601E+02  0.46564392750E+02  0.00000000000E+00 0.  1.
         13    1    3    3    0    0  0.15026076325E+02 -0.42504156505E+02 -0.21393462818E+02  0.49900566543E+02  0.00000000000E+00 0. -1.
<mgrwt>
<rscale>  0 0.90626918E+02</rscale>
<asrwt>0</asrwt>
<pdfrwt beam="2">  1        3 0.99626282E-02 0.90626918E+02</pdfrwt>
<pdfrwt beam="1">  1       -3 0.48781348E-02 0.90626918E+02</pdfrwt>
<totfact> 0.35514781E+04</totfact>
</mgrwt>
</event>
<event>
 5    1  0.6085374E+000  0.9135369E+02  0.7546771E-02  0.1299606E+00
         -2   -1    0    0    0  501 -0.00000000000E+00  0.00000000000E+00  0.17781410431E+02  0.17781410431E+02  0.00000000000E+00 0. -1.
          2   -1    0    0  501    0  0.00000000000E+00 -0.00000000000E+00 -0.11733457615E+03  0.11733457615E+03  0.00000000000E+00 0.  1.
         23    2    1    2    0    0  0.00000000000E+00  0.00000000000E+00 -0.99553165714E+02  0.13511598658E+03  0.91353691906E+02 0.  0.
        -13    1    3    3    0    0  0.18578325732E+02  0.29673683991E+02 -0.93168081973E+02  0.99528755679E+02  0.00000000000E+00 0.  1.
         13    1    3    3    0    0 -0.18578325732E+02 -0.29673683991E+02 -0.63850837418E+01  0.35587230898E+02  0.00000000000E+00 0. -1.
<mgrwt>
<rscale>  0 0.91353692E+02</rscale>
<asrwt>0</asrwt>
<pdfrwt beam="2">  1        2 0.18051473E-01 0.91353692E+02</pdfrwt>
<pdfrwt beam="1">  1       -2 0.27356017E-02 0.91353692E+02</pdfrwt>
<totfact> 0.12825375E+05</totfact>
</mgrwt>
</event>
<event>
 5    1  0.6085374E+000  0.8739612E+02  0.7546771E-02  0.1309283E+00
          1   -1    0    0  501    0  0.00000000000E+00  0.00000000000E+00  0.10343056846E+03  0.10343056846E+03  0.00000000000E+00 0. -1.
         -1   -1    0    0    0  501 -0.00000000000E+00 -0.00000000000E+00 -0.18461857083E+02  0.18461857083E+02  0.00000000000E+00 0.  1.
         23    2    1    2    0    0  0.00000000000E+00  0.00000000000E+00  0.84968711382E+02  0.12189242555E+03  0.87396118290E+02 0.  0.
        -13    1    3    3    0    0 -0.33262039994E+02 -0.25699944187E+02  0.25825283490E+02  0.49333515009E+02  0.00000000000E+00 0.  1.
         13    1    3    3    0    0  0.33262039994E+02  0.25699944187E+02  0.59143427892E+02  0.72558910539E+02  0.00000000000E+00 0. -1.
<mgrwt>
<rscale>  0 0.87396118E+02</rscale>
<asrwt>0</asrwt>
<pdfrwt beam="1">  1        1 0.15912395E-01 0.87396118E+02</pdfrwt>
<pdfrwt beam="2">  1       -1 0.28402858E-02 0.87396118E+02</pdfrwt>
<totfact> 0.11783493E+05</totfact>
</mgrwt>
</event>
<event>
 5    1  0.6085374E+000  0.8550291E+02  0.7546771E-02  0.1314123E+00
          1   -1    0    0  501    0  0.00000000000E+00  0.00000000000E+00  0.31930970972E+03  0.31930970972E+03  0.00000000000E+00 0. -1.
         -1   -1    0    0    0  501 -0.00000000000E+00 -0.00000000000E+00 -0.57238687796E+01  0.57238687796E+01  0.00000000000E+00 0.  1.
         23    2    1    2    0    0  0.00000000000E+00  0.00000000000E+00  0.31358584094E+03  0.32503357850E+03  0.85502909389E+02 0.  0.
        -13    1    3    3    0    0 -0.45449271889E+01  0.40974640339E+02  0.11376624657E+03  0.12100552207E+03  0.00000000000E+00 0.  1.
         13    1    3    3    0    0  0.45449271889E+01 -0.40974640339E+02  0.19981959437E+03  0.20402805642E+03  0.00000000000E+00 0. -1.
<mgrwt>
<rscale>  0 0.85502909E+02</rscale>
<asrwt>0</asrwt>
<pdfrwt beam="1">  1        1 0.49124557E-01 0.85502909E+02</pdfrwt>
<pdfrwt beam="2">  1       -1 0.88059545E-03 0.85502909E+02</pdfrwt>
<totfact> 0.15372474E+05</totfact>
</mgrwt>
</event>
<event>
 5    1  0.6085374E+000  0.9209828E+02  0.7546771E-02  0.1297849E+00
          1   -1    0    0  501    0  0.00000000000E+00  0.00000000000E+00  0.10518606038E+03  0.10518606038E+03  0.00000000000E+00 0. -1.
         -1   -1    0    0    0  501 -0.00000000000E+00 -0.00000000000E+00 -0.20159735823E+02  0.20159735823E+02  0.00000000000E+00 0.  1.
         23    2    1    2    0    0  0.00000000000E+00  0.00000000000E+00  0.85026324562E+02  0.12534579621E+03  0.92098277716E+02 0.  0.
        -13    1    3    3    0    0 -0.71747703916E+01 -0.34850364105E+02  0.27286732043E+01  0.35685723558E+02  0.00000000000E+00 0.  1.
         13    1    3    3    0    0  0.71747703916E+01  0.34850364105E+02  0.82297651358E+02  0.89660072649E+02  0.00000000000E+00 0. -1.
<mgrwt>
<rscale>  0 0.92098278E+02</rscale>
<asrwt>0</asrwt>
<pdfrwt beam="1">  1        1 0.16182470E-01 0.92098278E+02</pdfrwt>
<pdfrwt beam="2">  1       -1 0.31014979E-02 0.92098278E+02</pdfrwt>
<totfact> 0.10249029E+05</totfact>
</mgrwt>
</event>
<event>
 5    1  0.6085374E+000  0.9191993E+02  0.7546771E-02  0.1298268E+00
          2   -1    0    0  501    0  0.00000000000E+00  0.00000000000E+00  0.46242054396E+02  0.46242054396E+02  0.00000000000E+00 0.  1.
         -2   -1    0    0    0  501 -0.00000000000E+00 -0.00000000000E+00 -0.45679599256E+02  0.45679599256E+02  0.00000000000E+00 0. -1.
         23    2    1    2    0    0  0.00000000000E+00  0.00000000000E+00  0.56245514052E+00  0.91921653652E+02  0.91919932845E+02 0.  0.
        -13    1    3    3    0    0 -0.15865181285E+02 -0.41132015223E+02 -0.12710238057E+02  0.45881333950E+02  0.00000000000E+00 0.  1.
         13    1    3    3    0    0  0.15865181285E+02  0.41132015223E+02  0.13272693197E+02  0.46040319702E+02  0.00000000000E+00 0. -1.
<mgrwt>
<rscale>  0 0.91919933E+02</rscale>
<asrwt>0</asrwt>
<pdfrwt beam="1">  1        2 0.71141622E-02 0.91919933E+02</pdfrwt>
<pdfrwt beam="2">  1       -2 0.70276307E-02 0.91919933E+02</pdfrwt>
<totfact> 0.96757847E+04</totfact>
</mgrwt>
</event>
<event>
 5    1  0.6085374E+000  0.1012519E+03  0.7546771E-02  0.1277685E+00
          2   -1    0    0  501    0  0.00000000000E+00  0.00000000000E+00  0.18929271878E+03  0.18929271878E+03  0.00000000000E+00 0. -1.
         -2   -1    0    0    0  501 -0.00000000000E+00 -0.00000000000E+00 -0.13539805392E+02  0.13539805392E+02  0.00000000000E+00 0.  1.
         23    2    1    2    0    0  0.00000000000E+00  0.00000000000E+00  0.17575291339E+03  0.20283252418E+03  0.10125189528E+03 0.  0.
        -13    1    3    3    0    0  0.49677234427E+02 -0.96488436718E+01  0.90750798114E+02  0.10390685811E+03  0.00000000000E+00 0.  1.
         13    1    3    3    0    0 -0.49677234427E+02  0.96488436718E+01  0.85002115279E+02  0.98925666065E+02  0.00000000000E+00 0. -1.
<mgrwt>
<rscale>  0 0.10125190E+03</rscale>
<asrwt>0</asrwt>
<pdfrwt beam="1">  1        2 0.29121955E-01 0.10125190E+03</pdfrwt>
<pdfrwt beam="2">  1       -2 0.20830471E-02 0.10125190E+03</pdfrwt>
<totfact> 0.11408929E+05</totfact>
</mgrwt>
</event>
<event>
 5    1  0.6085374E+000  0.9171876E+02  0.7546771E-02  0.1298742E+00
         -2   -1    0    0    0  501 -0.00000000000E+00  0.00000000000E+00  0.91336672703E+01  0.91336672703E+01  0.00000000000E+00 0.  1.
          2   -1    0    0  501    0  0.00000000000E+00 -0.00000000000E+00 -0.23025610405E+03  0.23025610405E+03  0.00000000000E+00 0. -1.
         23    2    1    2    0    0  0.00000000000E+00  0.00000000000E+00 -0.22112243678E+03  0.23938977132E+03  0.91718757979E+02 0.  0.
        -13    1    3    3    0    0 -0.24006142331E+02 -0.37763852266E+02 -0.13675012551E+03  0.14388537186E+03  0.00000000000E+00 0. -1.
         13    1    3    3    0    0  0.24006142331E+02  0.37763852266E+02 -0.84372311265E+02  0.95504399458E+02  0.00000000000E+00 0.  1.
<mgrwt>
<rscale>  0 0.91718758E+02</rscale>
<asrwt>0</asrwt>
<pdfrwt beam="2">  1        2 0.35424011E-01 0.91718758E+02</pdfrwt>
<pdfrwt beam="1">  1       -2 0.14051798E-02 0.91718758E+02</pdfrwt>
<totfact> 0.16026954E+05</totfact>
</mgrwt>
</event>
<event>
 5    1  0.6085374E+000  0.9182056E+02  0.7546771E-02  0.1298502E+00
         -1   -1    0    0    0  501 -0.00000000000E+00  0.00000000000E+00  0.26809279384E+02  0.26809279384E+02  0.00000000000E+00 0.  1.
          1   -1    0    0  501    0  0.00000000000E+00 -0.00000000000E+00 -0.78620316681E+02  0.78620316681E+02  0.00000000000E+00 0. -1.
         23    2    1    2    0    0  0.00000000000E+00  0.00000000000E+00 -0.51811037297E+02  0.10542959606E+03  0.91820564911E+02 0.  0.
        -13    1    3    3    0    0  0.33604904268E+02 -0.19624359186E+02 -0.53874566306E+02  0.66459566346E+02  0.00000000000E+00 0.  1.
         13    1    3    3    0    0 -0.33604904268E+02  0.19624359186E+02  0.20635290087E+01  0.38970029718E+02  0.00000000000E+00 0. -1.
<mgrwt>
<rscale>  0 0.91820565E+02</rscale>
<asrwt>0</asrwt>
<pdfrwt beam="2">  1        1 0.12095433E-01 0.91820565E+02</pdfrwt>
<pdfrwt beam="1">  1       -1 0.41245045E-02 0.91820565E+02</pdfrwt>
<totfact> 0.98543028E+04</totfact>
</mgrwt>
</event>
<event>
 5    1  0.6085374E+000  0.9049550E+02  0.7546771E-02  0.1301656E+00
          1   -1    0    0  501    0  0.00000000000E+00  0.00000000000E+00  0.17666829762E+03  0.17666829762E+03  0.00000000000E+00 0. -1.
         -1   -1    0    0    0  501 -0.00000000000E+00 -0.00000000000E+00 -0.11588717713E+02  0.11588717713E+02  0.00000000000E+00 0.  1.
         23    2    1    2    0    0  0.00000000000E+00  0.00000000000E+00  0.16507957991E+03  0.18825701533E+03  0.90495503313E+02 0.  0.
        -13    1    3    3    0    0 -0.35112419314E+02 -0.16036003988E+00  0.14190838017E+03  0.14618787935E+03  0.00000000000E+00 0. -1.
         13    1    3    3    0    0  0.35112419314E+02  0.16036003988E+00  0.23171199737E+02  0.42069135986E+02  0.00000000000E+00 0.  1.
<mgrwt>
<rscale>  0 0.90495503E+02</rscale>
<asrwt>0</asrwt>
<pdfrwt beam="1">  1        1 0.27179736E-01 0.90495503E+02</pdfrwt>
<pdfrwt beam="2">  1       -1 0.17828798E-02 0.90495503E+02</pdfrwt>
<totfact> 0.11796556E+05</totfact>
</mgrwt>
</event>
<event>
 5    1  0.6085374E+000  0.8792688E+02  0.7546771E-02  0.1307951E+00
         -2   -1    0    0    0  501 -0.00000000000E+00  0.00000000000E+00  0.10508376308E+03  0.10508376308E+03  0.00000000000E+00 0. -1.
          2   -1    0    0  501    0  0.00000000000E+00 -0.00000000000E+00 -0.18392795812E+02  0.18392795812E+02  0.00000000000E+00 0.  1.
         23    2    1    2    0    0  0.00000000000E+00  0.00000000000E+00  0.86690967266E+02  0.12347655889E+03  0.87926883202E+02 0.  0.
        -13    1    3    3    0    0 -0.24703200340E+02  0.32485140992E+02  0.20388063534E+02  0.45620232650E+02  0.00000000000E+00 0.  1.
         13    1    3    3    0    0  0.24703200340E+02 -0.32485140992E+02  0.66302903732E+02  0.77856326240E+02  0.00000000000E+00 0. -1.
<mgrwt>
<rscale>  0 0.87926883E+02</rscale>
<asrwt>0</asrwt>
<pdfrwt beam="2">  1        2 0.28296609E-02 0.87926883E+02</pdfrwt>
<pdfrwt beam="1">  1       -2 0.16166732E-01 0.87926883E+02</pdfrwt>
<totfact> 0.86067770E+04</totfact>
</mgrwt>
</event>
<event>
 5    1  0.6085374E+000  0.8973365E+02  0.7546771E-02  0.1303498E+00
         -2   -1    0    0    0  501 -0.00000000000E+00  0.00000000000E+00  0.87743210454E+02  0.87743210454E+02  0.00000000000E+00 0.  1.
          2   -1    0    0  501    0  0.00000000000E+00 -0.00000000000E+00 -0.22942309684E+02  0.22942309684E+02  0.00000000000E+00 0. -1.
         23    2    1    2    0    0  0.00000000000E+00  0.00000000000E+00  0.64800900770E+02  0.11068552014E+03  0.89733648246E+02 0.  0.
        -13    1    3    3    0    0  0.43222271598E+02  0.93354077832E+01  0.41771505937E+02  0.60829049876E+02  0.00000000000E+00 0.  1.
         13    1    3    3    0    0 -0.43222271598E+02 -0.93354077832E+01  0.23029394834E+02  0.49856470262E+02  0.00000000000E+00 0. -1.
<mgrwt>
<rscale>  0 0.89733648E+02</rscale>
<asrwt>0</asrwt>
<pdfrwt beam="2">  1        2 0.35295861E-02 0.89733648E+02</pdfrwt>
<pdfrwt beam="1">  1       -2 0.13498955E-01 0.89733648E+02</pdfrwt>
<totfact> 0.86235159E+04</totfact>
</mgrwt>
</event>
<event>
 5    1  0.6085374E+000  0.9056326E+02  0.7546771E-02  0.1301493E+00
         -4   -1    0    0    0  501 -0.00000000000E+00  0.00000000000E+00  0.97143580669E+02  0.97143580669E+02  0.00000000000E+00 0.  1.
          4   -1    0    0  501    0  0.00000000000E+00 -0.00000000000E+00 -0.21107168754E+02  0.21107168754E+02  0.00000000000E+00 0. -1.
         23    2    1    2    0    0  0.00000000000E+00  0.00000000000E+00  0.76036411915E+02  0.11825074942E+03  0.90563258566E+02 0.  0.
        -13    1    3    3    0    0  0.30748099221E+02 -0.32317007162E+02  0.27854377429E+02  0.52589931542E+02  0.00000000000E+00 0. -1.
         13    1    3    3    0    0 -0.30748099221E+02  0.32317007162E+02  0.48182034486E+02  0.65660817881E+02  0.00000000000E+00 0.  1.
<mgrwt>
<rscale>  0 0.90563259E+02</rscale>
<asrwt>0</asrwt>
<pdfrwt beam="2">  1        4 0.32472568E-02 0.90563259E+02</pdfrwt>
<pdfrwt beam="1">  1       -4 0.14945166E-01 0.90563259E+02</pdfrwt>
<totfact> 0.25838739E+04</totfact>
</mgrwt>
</event>
<event>
 5    1  0.6085374E+000  0.9063661E+02  0.7546771E-02  0.1301317E+00
          2   -1    0    0  501    0  0.00000000000E+00  0.00000000000E+00  0.21900246934E+03  0.21900246934E+03  0.00000000000E+00 0. -1.
         -2   -1    0    0    0  501 -0.00000000000E+00 -0.00000000000E+00 -0.93777420707E+01  0.93777420707E+01  0.00000000000E+00 0.  1.
         23    2    1    2    0    0  0.00000000000E+00  0.00000000000E+00  0.20962472727E+03  0.22838021141E+03  0.90636607844E+02 0.  0.
        -13    1    3    3    0    0 -0.37425114482E+02 -0.25365759802E+02  0.11265505823E+03  0.12138872727E+03  0.00000000000E+00 0.  1.
         13    1    3    3    0    0  0.37425114482E+02  0.25365759802E+02  0.96969669042E+02  0.10699148414E+03  0.00000000000E+00 0. -1.
<mgrwt>
<rscale>  0 0.90636608E+02</rscale>
<asrwt>0</asrwt>
<pdfrwt beam="1">  1        2 0.33692684E-01 0.90636608E+02</pdfrwt>
<pdfrwt beam="2">  1       -2 0.14427297E-02 0.90636608E+02</pdfrwt>
<totfact> 0.16244498E+05</totfact>
</mgrwt>
</event>
<event>
 5    1  0.6085374E+000  0.9352945E+02  0.7546771E-02  0.1294523E+00
          2   -1    0    0  501    0  0.00000000000E+00  0.00000000000E+00  0.66744409683E+02  0.66744409683E+02  0.00000000000E+00 0. -1.
         -2   -1    0    0    0  501 -0.00000000000E+00 -0.00000000000E+00 -0.32765882146E+02  0.32765882146E+02  0.00000000000E+00 0.  1.
         23    2    1    2    0    0  0.00000000000E+00  0.00000000000E+00  0.33978527537E+02  0.99510291829E+02  0.93529449086E+02 0.  0.
        -13    1    3    3    0    0  0.34977789714E+02 -0.22155266528E+02 -0.61411751649E+01  0.41857085907E+02  0.00000000000E+00 0.  1.
         13    1    3    3    0    0 -0.34977789714E+02  0.22155266528E+02  0.40119702702E+02  0.57653205922E+02  0.00000000000E+00 0. -1.
<mgrwt>
<rscale>  0 0.93529449E+02</rscale>
<asrwt>0</asrwt>
<pdfrwt beam="1">  1        2 0.10268371E-01 0.93529449E+02</pdfrwt>
<pdfrwt beam="2">  1       -2 0.50409050E-02 0.93529449E+02</pdfrwt>
<totfact> 0.10162659E+05</totfact>
</mgrwt>
</event>
<event>
 5    1  0.6085374E+000  0.9525281E+02  0.7546771E-02  0.1290608E+00
         -1   -1    0    0    0  501 -0.00000000000E+00  0.00000000000E+00  0.16469659061E+02  0.16469659061E+02  0.00000000000E+00 0.  1.
          1   -1    0    0  501    0  0.00000000000E+00 -0.00000000000E+00 -0.13772442846E+03  0.13772442846E+03  0.00000000000E+00 0. -1.
         23    2    1    2    0    0  0.00000000000E+00  0.00000000000E+00 -0.12125476940E+03  0.15419408753E+03  0.95252808488E+02 0.  0.
        -13    1    3    3    0    0 -0.15654174101E+02  0.40137544858E+02 -0.27761657625E+02  0.51252173691E+02  0.00000000000E+00 0.  1.
         13    1    3    3    0    0  0.15654174101E+02 -0.40137544858E+02 -0.93493111777E+02  0.10294191383E+03  0.00000000000E+00 0. -1.
<mgrwt>
<rscale>  0 0.95252808E+02</rscale>
<asrwt>0</asrwt>
<pdfrwt beam="2">  1        1 0.21188374E-01 0.95252808E+02</pdfrwt>
<pdfrwt beam="1">  1       -1 0.25337937E-02 0.95252808E+02</pdfrwt>
<totfact> 0.98054127E+04</totfact>
</mgrwt>
</event>
<event>
 5    1  0.6085374E+000  0.9091575E+02  0.7546771E-02  0.1300649E+00
          2   -1    0    0  501    0  0.00000000000E+00  0.00000000000E+00  0.32362941961E+02  0.32362941961E+02  0.00000000000E+00 0. -1.
         -2   -1    0    0    0  501 -0.00000000000E+00 -0.00000000000E+00 -0.63851381914E+02  0.63851381914E+02  0.00000000000E+00 0.  1.
         23    2    1    2    0    0  0.00000000000E+00  0.00000000000E+00 -0.31488439953E+02  0.96214323874E+02  0.90915753684E+02 0.  0.
        -13    1    3    3    0    0  0.40817832540E+01  0.41334511198E+02  0.38043571981E+01  0.41709422248E+02  0.00000000000E+00 0. -1.
         13    1    3    3    0    0 -0.40817832540E+01 -0.41334511198E+02 -0.35292797151E+02  0.54504901626E+02  0.00000000000E+00 0.  1.
<mgrwt>
<rscale>  0 0.90915754E+02</rscale>
<asrwt>0</asrwt>
<pdfrwt beam="1">  1        2 0.49789141E-02 0.90915754E+02</pdfrwt>
<pdfrwt beam="2">  1       -2 0.98232896E-02 0.90915754E+02</pdfrwt>
<totfact> 0.91029321E+04</totfact>
</mgrwt>
</event>
<event>
 5    1  0.6085374E+000  0.8354484E+02  0.7546771E-02  0.1319282E+00
         -1   -1    0    0    0  501 -0.00000000000E+00  0.00000000000E+00  0.17645150517E+02  0.17645150517E+02  0.00000000000E+00 0.  1.
          1   -1    0    0  501    0  0.00000000000E+00 -0.00000000000E+00 -0.98890358547E+02  0.98890358547E+02  0.00000000000E+00 0. -1.
         23    2    1    2    0    0  0.00000000000E+00  0.00000000000E+00 -0.81245208030E+02  0.11653550906E+03  0.83544844515E+02 0.  0.
        -13    1    3    3    0    0  0.42941428842E+01  0.26001184577E+02 -0.85831406929E+02  0.89786032755E+02  0.00000000000E+00 0. -1.
         13    1    3    3    0    0 -0.42941428842E+01 -0.26001184577E+02  0.45861988982E+01  0.26749476309E+02  0.00000000000E+00 0.  1.
<mgrwt>
<rscale>  0 0.83544845E+02</rscale>
<asrwt>0</asrwt>
<pdfrwt beam="2">  1        1 0.15213901E-01 0.83544845E+02</pdfrwt>
<pdfrwt beam="1">  1       -1 0.27146385E-02 0.83544845E+02</pdfrwt>
<totfact> 0.13212328E+05</totfact>
</mgrwt>
</event>
<event>
 5    1  0.6085374E+000  0.9036843E+02  0.7546771E-02  0.1301962E+00
          3   -1    0    0  501    0  0.00000000000E+00  0.00000000000E+00  0.36710609188E+02  0.36710609188E+02  0.00000000000E+00 0. -1.
         -3   -1    0    0    0  501 -0.00000000000E+00 -0.00000000000E+00 -0.55613711048E+02  0.55613711048E+02  0.00000000000E+00 0.  1.
         23    2    1    2    0    0  0.00000000000E+00  0.00000000000E+00 -0.18903101860E+02  0.92324320236E+02  0.90368428376E+02 0.  0.
        -13    1    3    3    0    0 -0.17726879796E+02  0.29262630273E+02 -0.39604220715E+02  0.52335820394E+02  0.00000000000E+00 0.  1.
         13    1    3    3    0    0  0.17726879796E+02 -0.29262630273E+02  0.20701118855E+02  0.39988499843E+02  0.00000000000E+00 0. -1.
<mgrwt>
<rscale>  0 0.90368428E+02</rscale>
<asrwt>0</asrwt>
<pdfrwt beam="1">  1        3 0.56477861E-02 0.90368428E+02</pdfrwt>
<pdfrwt beam="2">  1       -3 0.85559555E-02 0.90368428E+02</pdfrwt>
<totfact> 0.36115580E+04</totfact>
</mgrwt>
</event>
<event>
 5    1  0.6085374E+000  0.9156891E+02  0.7546771E-02  0.1299096E+00
          1   -1    0    0  501    0  0.00000000000E+00  0.00000000000E+00  0.14282837702E+03  0.14282837702E+03  0.00000000000E+00 0. -1.
         -1   -1    0    0    0  501 -0.00000000000E+00 -0.00000000000E+00 -0.14676470910E+02  0.14676470910E+02  0.00000000000E+00 0.  1.
         23    2    1    2    0    0  0.00000000000E+00  0.00000000000E+00  0.12815190611E+03  0.15750484793E+03  0.91568914385E+02 0.  0.
        -13    1    3    3    0    0  0.12639571433E+02  0.19198592110E+02  0.13218442503E+03  0.13416805479E+03  0.00000000000E+00 0. -1.
         13    1    3    3    0    0 -0.12639571433E+02 -0.19198592110E+02 -0.40325189258E+01  0.23336793137E+02  0.00000000000E+00 0.  1.
<mgrwt>
<rscale>  0 0.91568914E+02</rscale>
<asrwt>0</asrwt>
<pdfrwt beam="1">  1        1 0.21973596E-01 0.91568914E+02</pdfrwt>
<pdfrwt beam="2">  1       -1 0.22579187E-02 0.91568914E+02</pdfrwt>
<totfact> 0.10985071E+05</totfact>
</mgrwt>
</event>
<event>
 5    1  0.6085374E+000  0.9322328E+02  0.7546771E-02  0.1295229E+00
          1   -1    0    0  501    0  0.00000000000E+00  0.00000000000E+00  0.21989926884E+03  0.21989926884E+03  0.00000000000E+00 0. -1.
         -1   -1    0    0    0  501 -0.00000000000E+00 -0.00000000000E+00 -0.98801827616E+01  0.98801827616E+01  0.00000000000E+00 0.  1.
         23    2    1    2    0    0  0.00000000000E+00  0.00000000000E+00  0.21001908608E+03  0.22977945160E+03  0.93223279610E+02 0.  0.
        -13    1    3    3    0    0  0.29268245550E+02 -0.36272036258E+02  0.10647638227E+03  0.11623042111E+03  0.00000000000E+00 0.  1.
         13    1    3    3    0    0 -0.29268245550E+02  0.36272036258E+02  0.10354270381E+03  0.11354903049E+03  0.00000000000E+00 0. -1.
<mgrwt>
<rscale>  0 0.93223280E+02</rscale>
<asrwt>0</asrwt>
<pdfrwt beam="1">  1        1 0.33830653E-01 0.93223280E+02</pdfrwt>
<pdfrwt beam="2">  1       -1 0.15200283E-02 0.93223280E+02</pdfrwt>
<totfact> 0.11364055E+05</totfact>
</mgrwt>
</event>
<event>
 5    1  0.6085374E+000  0.9108105E+02  0.7546771E-02  0.1300255E+00
          1   -1    0    0  501    0  0.00000000000E+00  0.00000000000E+00  0.17114192985E+02  0.17114192985E+02  0.00000000000E+00 0. -1.
         -1   -1    0    0    0  501 -0.00000000000E+00 -0.00000000000E+00 -0.12118243621E+03  0.12118243621E+03  0.00000000000E+00 0.  1.
         23    2    1    2    0    0  0.00000000000E+00  0.00000000000E+00 -0.10406824322E+03  0.13829662919E+03  0.91081054003E+02 0.  0.
        -13    1    3    3    0    0  0.35900499302E+02 -0.15069691468E+02 -0.16166719137E+02  0.42158086517E+02  0.00000000000E+00 0. -1.
         13    1    3    3    0    0 -0.35900499302E+02  0.15069691468E+02 -0.87901524086E+02  0.96138542676E+02  0.00000000000E+00 0.  1.
<mgrwt>
<rscale>  0 0.91081054E+02</rscale>
<asrwt>0</asrwt>
<pdfrwt beam="1">  1        1 0.26329528E-02 0.91081054E+02</pdfrwt>
<pdfrwt beam="2">  1       -1 0.18643452E-01 0.91081054E+02</pdfrwt>
<totfact> 0.78586466E+04</totfact>
</mgrwt>
</event>
<event>
 5    1  0.6085374E+000  0.6181922E+02  0.7546771E-02  0.1390352E+00
         -1   -1    0    0    0  501 -0.00000000000E+00  0.00000000000E+00  0.11442331776E+02  0.11442331776E+02  0.00000000000E+00 0.  1.
          1   -1    0    0  501    0  0.00000000000E+00 -0.00000000000E+00 -0.83497327033E+02  0.83497327033E+02  0.00000000000E+00 0. -1.
         23    2    1    2    0    0  0.00000000000E+00  0.00000000000E+00 -0.72054995257E+02  0.94939658810E+02  0.61819224141E+02 0.  0.
        -13    1    3    3    0    0 -0.58814558129E+01  0.15251001646E+02 -0.76316602401E+02  0.78047475140E+02  0.00000000000E+00 0. -1.
         13    1    3    3    0    0  0.58814558129E+01 -0.15251001646E+02  0.42616071440E+01  0.16892183670E+02  0.00000000000E+00 0.  1.
<mgrwt>
<rscale>  0 0.61819224E+02</rscale>
<asrwt>0</asrwt>
<pdfrwt beam="2">  1        1 0.12845743E-01 0.61819224E+02</pdfrwt>
<pdfrwt beam="1">  1       -1 0.17603587E-02 0.61819224E+02</pdfrwt>
<totfact> 0.28622194E+05</totfact>
</mgrwt>
</event>
<event>
 5    1  0.6085374E+000  0.9105564E+02  0.7546771E-02  0.1300315E+00
          2   -1    0    0  501    0  0.00000000000E+00  0.00000000000E+00  0.27810495604E+02  0.27810495604E+02  0.00000000000E+00 0. -1.
         -2   -1    0    0    0  501 -0.00000000000E+00 -0.00000000000E+00 -0.74532386125E+02  0.74532386125E+02  0.00000000000E+00 0.  1.
         23    2    1    2    0    0  0.00000000000E+00  0.00000000000E+00 -0.46721890521E+02  0.10234288173E+03  0.91055644453E+02 0.  0.
        -13    1    3    3    0    0  0.20890961434E+02 -0.32036700801E+02  0.43988163597E+01  0.38498468193E+02  0.00000000000E+00 0. -1.
         13    1    3    3    0    0 -0.20890961434E+02  0.32036700801E+02 -0.51120706881E+02  0.63844413536E+02  0.00000000000E+00 0.  1.
<mgrwt>
<rscale>  0 0.91055644E+02</rscale>
<asrwt>0</asrwt>
<pdfrwt beam="1">  1        2 0.42785379E-02 0.91055644E+02</pdfrwt>
<pdfrwt beam="2">  1       -2 0.11466521E-01 0.91055644E+02</pdfrwt>
<totfact> 0.87025884E+04</totfact>
</mgrwt>
</event>
<event>
 5    1  0.6085374E+000  0.9068171E+02  0.7546771E-02  0.1301209E+00
         -1   -1    0    0    0  501 -0.00000000000E+00  0.00000000000E+00  0.45032523977E+02  0.45032523977E+02  0.00000000000E+00 0.  1.
          1   -1    0    0  501    0  0.00000000000E+00 -0.00000000000E+00 -0.45651297046E+02  0.45651297046E+02  0.00000000000E+00 0. -1.
         23    2    1    2    0    0  0.00000000000E+00  0.00000000000E+00 -0.61877306907E+00  0.90683821022E+02  0.90681709926E+02 0.  0.
        -13    1    3    3    0    0  0.27323493127E+02  0.35475033181E+02 -0.74328853596E+01  0.45390517078E+02  0.00000000000E+00 0. -1.
         13    1    3    3    0    0 -0.27323493127E+02 -0.35475033181E+02  0.68141122905E+01  0.45293303944E+02  0.00000000000E+00 0.  1.
<mgrwt>
<rscale>  0 0.90681710E+02</rscale>
<asrwt>0</asrwt>
<pdfrwt beam="2">  1        1 0.70232765E-02 0.90681710E+02</pdfrwt>
<pdfrwt beam="1">  1       -1 0.69280806E-02 0.90681710E+02</pdfrwt>
<totfact> 0.93914632E+04</totfact>
</mgrwt>
</event>
<event>
 5    1  0.6085374E+000  0.8989257E+02  0.7546771E-02  0.1303112E+00
         -2   -1    0    0    0  501 -0.00000000000E+00  0.00000000000E+00  0.16504512962E+03  0.16504512962E+03  0.00000000000E+00 0.  1.
          2   -1    0    0  501    0  0.00000000000E+00 -0.00000000000E+00 -0.12240098219E+02  0.12240098219E+02  0.00000000000E+00 0. -1.
         23    2    1    2    0    0  0.00000000000E+00  0.00000000000E+00  0.15280503140E+03  0.17728522784E+03  0.89892571376E+02 0.  0.
        -13    1    3    3    0    0  0.11980675572E+02  0.35818840558E+02  0.28350534166E+02  0.47225826764E+02  0.00000000000E+00 0. -1.
         13    1    3    3    0    0 -0.11980675572E+02 -0.35818840558E+02  0.12445449723E+03  0.13005940107E+03  0.00000000000E+00 0.  1.
<mgrwt>
<rscale>  0 0.89892571E+02</rscale>
<asrwt>0</asrwt>
<pdfrwt beam="2">  1        2 0.18830922E-02 0.89892571E+02</pdfrwt>
<pdfrwt beam="1">  1       -2 0.25391557E-01 0.89892571E+02</pdfrwt>
<totfact> 0.69872765E+04</totfact>
</mgrwt>
</event>
<event>
 5    1  0.6085374E+000  0.8586356E+02  0.7546771E-02  0.1313190E+00
         -1   -1    0    0    0  501 -0.00000000000E+00  0.00000000000E+00  0.13694588590E+03  0.13694588590E+03  0.00000000000E+00 0.  1.
          1   -1    0    0  501    0  0.00000000000E+00 -0.00000000000E+00 -0.13458875246E+02  0.13458875246E+02  0.00000000000E+00 0. -1.
         23    2    1    2    0    0  0.00000000000E+00  0.00000000000E+00  0.12348701065E+03  0.15040476115E+03  0.85863556734E+02 0.  0.
        -13    1    3    3    0    0  0.25169936828E+02  0.28038069271E+02  0.97790446376E+02  0.10479804603E+03  0.00000000000E+00 0.  1.
         13    1    3    3    0    0 -0.25169936828E+02 -0.28038069271E+02  0.25696564277E+02  0.45606715119E+02  0.00000000000E+00 0. -1.
<mgrwt>
<rscale>  0 0.85863557E+02</rscale>
<asrwt>0</asrwt>
<pdfrwt beam="2">  1        1 0.20705963E-02 0.85863557E+02</pdfrwt>
<pdfrwt beam="1">  1       -1 0.21068597E-01 0.85863557E+02</pdfrwt>
<totfact> 0.89179132E+04</totfact>
</mgrwt>
</event>
<event>
 5    1  0.6085374E+000  0.9291367E+02  0.7546771E-02  0.1295945E+00
         -1   -1    0    0    0  501 -0.00000000000E+00  0.00000000000E+00  0.28992069170E+02  0.28992069170E+02  0.00000000000E+00 0.  1.
          1   -1    0    0  501    0  0.00000000000E+00 -0.00000000000E+00 -0.74442338217E+02  0.74442338217E+02  0.00000000000E+00 0. -1.
         23    2    1    2    0    0  0.00000000000E+00  0.00000000000E+00 -0.45450269047E+02  0.10343440739E+03  0.92913667860E+02 0.  0.
        -13    1    3    3    0    0  0.36350945602E+02  0.72917734224E+01  0.84389058510E+01  0.38023365682E+02  0.00000000000E+00 0.  1.
         13    1    3    3    0    0 -0.36350945602E+02 -0.72917734224E+01 -0.53889174898E+02  0.65411041705E+02  0.00000000000E+00 0. -1.
<mgrwt>
<rscale>  0 0.92913668E+02</rscale>
<asrwt>0</asrwt>
<pdfrwt beam="2">  1        1 0.11452667E-01 0.92913668E+02</pdfrwt>
<pdfrwt beam="1">  1       -1 0.44603183E-02 0.92913668E+02</pdfrwt>
<totfact> 0.94561317E+04</totfact>
</mgrwt>
</event>
<event>
 5    1  0.6085374E+000  0.9090445E+02  0.7546771E-02  0.1300676E+00
          2   -1    0    0  501    0  0.00000000000E+00  0.00000000000E+00  0.22440652625E+03  0.22440652625E+03  0.00000000000E+00 0. -1.
         -2   -1    0    0    0  501 -0.00000000000E+00 -0.00000000000E+00 -0.92060822471E+01  0.92060822471E+01  0.00000000000E+00 0.  1.
         23    2    1    2    0    0  0.00000000000E+00  0.00000000000E+00  0.21520044400E+03  0.23361260849E+03  0.90904453959E+02 0.  0.
        -13    1    3    3    0    0  0.13104185396E+01 -0.34483114746E+02  0.31577994950E+02  0.46775764712E+02  0.00000000000E+00 0.  1.
         13    1    3    3    0    0 -0.13104185396E+01  0.34483114746E+02  0.18362244905E+03  0.18683684378E+03  0.00000000000E+00 0. -1.
<mgrwt>
<rscale>  0 0.90904454E+02</rscale>
<asrwt>0</asrwt>
<pdfrwt beam="1">  1        2 0.34524077E-01 0.90904454E+02</pdfrwt>
<pdfrwt beam="2">  1       -2 0.14163205E-02 0.90904454E+02</pdfrwt>
<totfact> 0.16260953E+05</totfact>
</mgrwt>
</event>
<event>
 5    1  0.6085374E+000  0.9125312E+02  0.7546771E-02  0.1299845E+00
         -3   -1    0    0    0  501 -0.00000000000E+00  0.00000000000E+00  0.12960200670E+02  0.12960200670E+02  0.00000000000E+00 0. -1.
          3   -1    0    0  501    0  0.00000000000E+00 -0.00000000000E+00 -0.16062890667E+03  0.16062890667E+03  0.00000000000E+00 0.  1.
         23    2    1    2    0    0  0.00000000000E+00  0.00000000000E+00 -0.14766870600E+03  0.17358910734E+03  0.91253117510E+02 0.  0.
        -13    1    3    3    0    0  0.26597550870E+02 -0.12464698553E+02 -0.14025052501E+03  0.14329343386E+03  0.00000000000E+00 0.  1.
         13    1    3    3    0    0 -0.26597550870E+02  0.12464698553E+02 -0.74181809904E+01  0.30295673478E+02  0.00000000000E+00 0. -1.
<mgrwt>
<rscale>  0 0.91253118E+02</rscale>
<asrwt>0</asrwt>
<pdfrwt beam="2">  1        3 0.24712139E-01 0.91253118E+02</pdfrwt>
<pdfrwt beam="1">  1       -3 0.19938771E-02 0.91253118E+02</pdfrwt>
<totfact> 0.29855591E+04</totfact>
</mgrwt>
</event>
<event>
 5    1  0.6085374E+000  0.8725228E+02  0.7546771E-02  0.1309645E+00
          3   -1    0    0  501    0  0.00000000000E+00  0.00000000000E+00  0.56413510939E+01  0.56413510939E+01  0.00000000000E+00 0. -1.
         -3   -1    0    0    0  501 -0.00000000000E+00 -0.00000000000E+00 -0.33737306733E+03  0.33737306733E+03  0.00000000000E+00 0.  1.
         23    2    1    2    0    0  0.00000000000E+00  0.00000000000E+00 -0.33173171624E+03  0.34301441843E+03  0.87252276130E+02 0.  0.
        -13    1    3    3    0    0 -0.60048149333E+01 -0.42501997013E+02 -0.13522132826E+03  0.14187066352E+03  0.00000000000E+00 0.  1.
         13    1    3    3    0    0  0.60048149333E+01  0.42501997013E+02 -0.19651038798E+03  0.20114375490E+03  0.00000000000E+00 0. -1.
<mgrwt>
<rscale>  0 0.87252276E+02</rscale>
<asrwt>0</asrwt>
<pdfrwt beam="1">  1        3 0.86790046E-03 0.87252276E+02</pdfrwt>
<pdfrwt beam="2">  1       -3 0.51903531E-01 0.87252276E+02</pdfrwt>
<totfact> 0.25243784E+04</totfact>
</mgrwt>
</event>
<event>
 5    1  0.6085374E+000  0.9892312E+02  0.7546771E-02  0.1282577E+00
          2   -1    0    0  501    0  0.00000000000E+00  0.00000000000E+00  0.56602396564E+02  0.56602396564E+02  0.00000000000E+00 0. -1.
         -2   -1    0    0    0  501 -0.00000000000E+00 -0.00000000000E+00 -0.43221592683E+02  0.43221592683E+02  0.00000000000E+00 0.  1.
         23    2    1    2    0    0  0.00000000000E+00  0.00000000000E+00  0.13380803881E+02  0.99823989247E+02  0.98923116189E+02 0.  0.
        -13    1    3    3    0    0 -0.13293612163E+02  0.24323196748E+02  0.48028172320E+02  0.55453073501E+02  0.00000000000E+00 0. -1.
         13    1    3    3    0    0  0.13293612163E+02 -0.24323196748E+02 -0.34647368439E+02  0.44370915745E+02  0.00000000000E+00 0.  1.
<mgrwt>
<rscale>  0 0.98923116E+02</rscale>
<asrwt>0</asrwt>
<pdfrwt beam="1">  1        2 0.87080610E-02 0.98923116E+02</pdfrwt>
<pdfrwt beam="2">  1       -2 0.66494758E-02 0.98923116E+02</pdfrwt>
<totfact> 0.82746963E+04</totfact>
</mgrwt>
</event>
<event>
 5    1  0.6085374E+000  0.9193897E+02  0.7546771E-02  0.1298223E+00
         -2   -1    0    0    0  501 -0.00000000000E+00  0.00000000000E+00  0.82184720039E+01  0.82184720039E+01  0.00000000000E+00 0.  1.
          2   -1    0    0  501    0  0.00000000000E+00 -0.00000000000E+00 -0.25712727829E+03  0.25712727829E+03  0.00000000000E+00 0. -1.
         23    2    1    2    0    0  0.00000000000E+00  0.00000000000E+00 -0.24890880629E+03  0.26534575029E+03  0.91938965365E+02 0.  0.
        -13    1    3    3    0    0  0.39911938369E+02 -0.93712009042E+01 -0.18446955992E+03  0.18897037008E+03  0.00000000000E+00 0. -1.
         13    1    3    3    0    0 -0.39911938369E+02  0.93712009042E+01 -0.64439246367E+02  0.76375380216E+02  0.00000000000E+00 0.  1.
<mgrwt>
<rscale>  0 0.91938965E+02</rscale>
<asrwt>0</asrwt>
<pdfrwt beam="2">  1        2 0.39558035E-01 0.91938965E+02</pdfrwt>
<pdfrwt beam="1">  1       -2 0.12643805E-02 0.91938965E+02</pdfrwt>
<totfact> 0.16587665E+05</totfact>
</mgrwt>
</event>
<event>
 5    1  0.6085374E+000  0.9133727E+02  0.7546771E-02  0.1299645E+00
          2   -1    0    0  501    0  0.00000000000E+00  0.00000000000E+00  0.41084910373E+03  0.41084910373E+03  0.00000000000E+00 0. -1.
         -2   -1    0    0    0  501 -0.00000000000E+00 -0.00000000000E+00 -0.50763757772E+01  0.50763757772E+01  0.00000000000E+00 0.  1.
         23    2    1    2    0    0  0.00000000000E+00  0.00000000000E+00  0.40577272795E+03  0.41592547951E+03  0.91337274719E+02 0.  0.
        -13    1    3    3    0    0  0.39884337236E+02  0.18890426076E+02  0.14938904563E+03  0.15577129231E+03  0.00000000000E+00 0.  1.
         13    1    3    3    0    0 -0.39884337236E+02 -0.18890426076E+02  0.25638368232E+03  0.26015418719E+03  0.00000000000E+00 0. -1.
<mgrwt>
<rscale>  0 0.91337275E+02</rscale>
<asrwt>0</asrwt>
<pdfrwt beam="1">  1        2 0.63207528E-01 0.91337275E+02</pdfrwt>
<pdfrwt beam="2">  1       -2 0.78098121E-03 0.91337275E+02</pdfrwt>
<totfact> 0.20059756E+05</totfact>
</mgrwt>
</event>
<event>
 5    1  0.6085374E+000  0.9201889E+02  0.7546771E-02  0.1298035E+00
         -4   -1    0    0    0  501 -0.00000000000E+00  0.00000000000E+00  0.16336225663E+02  0.16336225663E+02  0.00000000000E+00 0.  1.
          4   -1    0    0  501    0  0.00000000000E+00 -0.00000000000E+00 -0.12958129280E+03  0.12958129280E+03  0.00000000000E+00 0. -1.
         23    2    1    2    0    0  0.00000000000E+00  0.00000000000E+00 -0.11324506714E+03  0.14591751846E+03  0.92018894601E+02 0.  0.
        -13    1    3    3    0    0  0.35779191719E+02 -0.63658428612E+00 -0.10248051792E+03  0.10854866352E+03  0.00000000000E+00 0. -1.
         13    1    3    3    0    0 -0.35779191719E+02  0.63658428612E+00 -0.10764549216E+02  0.37368854938E+02  0.00000000000E+00 0.  1.
<mgrwt>
<rscale>  0 0.92018895E+02</rscale>
<asrwt>0</asrwt>
<pdfrwt beam="2">  1        4 0.19935583E-01 0.92018895E+02</pdfrwt>
<pdfrwt beam="1">  1       -4 0.25132655E-02 0.92018895E+02</pdfrwt>
<totfact> 0.23294527E+04</totfact>
</mgrwt>
</event>
<event>
 5    1  0.6085374E+000  0.9038169E+02  0.7546771E-02  0.1301930E+00
          2   -1    0    0  501    0  0.00000000000E+00  0.00000000000E+00  0.22932891076E+03  0.22932891076E+03  0.00000000000E+00 0. -1.
         -2   -1    0    0    0  501 -0.00000000000E+00 -0.00000000000E+00 -0.89051672234E+01  0.89051672234E+01  0.00000000000E+00 0.  1.
         23    2    1    2    0    0  0.00000000000E+00  0.00000000000E+00  0.22042374354E+03  0.23823407799E+03  0.90381686187E+02 0.  0.
        -13    1    3    3    0    0  0.16562514312E+02 -0.33873711380E+02  0.17586914212E+03  0.17986578428E+03  0.00000000000E+00 0. -1.
         13    1    3    3    0    0 -0.16562514312E+02  0.33873711380E+02  0.44554601416E+02  0.58368293707E+02  0.00000000000E+00 0.  1.
<mgrwt>
<rscale>  0 0.90381686E+02</rscale>
<asrwt>0</asrwt>
<pdfrwt beam="1">  1        2 0.35281366E-01 0.90381686E+02</pdfrwt>
<pdfrwt beam="2">  1       -2 0.13700259E-02 0.90381686E+02</pdfrwt>
<totfact> 0.16646278E+05</totfact>
</mgrwt>
</event>
<event>
 5    1  0.6085374E+000  0.9107188E+02  0.7546771E-02  0.1300277E+00
         -2   -1    0    0    0  501 -0.00000000000E+00  0.00000000000E+00  0.26095328247E+02  0.26095328247E+02  0.00000000000E+00 0.  1.
          2   -1    0    0  501    0  0.00000000000E+00 -0.00000000000E+00 -0.79459498180E+02  0.79459498180E+02  0.00000000000E+00 0. -1.
         23    2    1    2    0    0  0.00000000000E+00  0.00000000000E+00 -0.53364169933E+02  0.10555482643E+03  0.91071876830E+02 0.  0.
        -13    1    3    3    0    0 -0.41877126719E+02 -0.16921542931E+02 -0.19974795671E+02  0.49386484178E+02  0.00000000000E+00 0.  1.
         13    1    3    3    0    0  0.41877126719E+02  0.16921542931E+02 -0.33389374262E+02  0.56168342249E+02  0.00000000000E+00 0. -1.
<mgrwt>
<rscale>  0 0.91071877E+02</rscale>
<asrwt>0</asrwt>
<pdfrwt beam="2">  1        2 0.12224538E-01 0.91071877E+02</pdfrwt>
<pdfrwt beam="1">  1       -2 0.40146659E-02 0.91071877E+02</pdfrwt>
<totfact> 0.11500140E+05</totfact>
</mgrwt>
</event>
<event>
 5    1  0.6085374E+000  0.9102481E+02  0.7546771E-02  0.1300389E+00
          3   -1    0    0  501    0  0.00000000000E+00  0.00000000000E+00  0.69996560718E+01  0.69996560718E+01  0.00000000000E+00 0. -1.
         -3   -1    0    0    0  501 -0.00000000000E+00 -0.00000000000E+00 -0.29592580530E+03  0.29592580530E+03  0.00000000000E+00 0.  1.
         23    2    1    2    0    0  0.00000000000E+00  0.00000000000E+00 -0.28892614923E+03  0.30292546137E+03  0.91024806726E+02 0.  0.
        -13    1    3    3    0    0  0.14139518607E+02 -0.35844510421E+02 -0.63859202361E+02  0.74583863134E+02  0.00000000000E+00 0. -1.
         13    1    3    3    0    0 -0.14139518607E+02  0.35844510421E+02 -0.22506694687E+03  0.22834159824E+03  0.00000000000E+00 0.  1.
<mgrwt>
<rscale>  0 0.91024807E+02</rscale>
<asrwt>0</asrwt>
<pdfrwt beam="1">  1        3 0.10768701E-02 0.91024807E+02</pdfrwt>
<pdfrwt beam="2">  1       -3 0.45527050E-01 0.91024807E+02</pdfrwt>
<totfact> 0.24018020E+04</totfact>
</mgrwt>
</event>
<event>
 5    1  0.6085374E+000  0.8832864E+02  0.7546771E-02  0.1306950E+00
         -1   -1    0    0    0  501 -0.00000000000E+00  0.00000000000E+00  0.11409411836E+03  0.11409411836E+03  0.00000000000E+00 0.  1.
          1   -1    0    0  501    0  0.00000000000E+00 -0.00000000000E+00 -0.17095423811E+02  0.17095423811E+02  0.00000000000E+00 0. -1.
         23    2    1    2    0    0  0.00000000000E+00  0.00000000000E+00  0.96998694548E+02  0.13118954217E+03  0.88328643319E+02 0.  0.
        -13    1    3    3    0    0 -0.35514573492E+02 -0.21097979359E+02  0.71703283225E+02  0.82751256719E+02  0.00000000000E+00 0.  1.
         13    1    3    3    0    0  0.35514573492E+02  0.21097979359E+02  0.25295411322E+02  0.48438285450E+02  0.00000000000E+00 0. -1.
<mgrwt>
<rscale>  0 0.88328643E+02</rscale>
<asrwt>0</asrwt>
<pdfrwt beam="2">  1        1 0.26300653E-02 0.88328643E+02</pdfrwt>
<pdfrwt beam="1">  1       -1 0.17552941E-01 0.88328643E+02</pdfrwt>
<totfact> 0.86099750E+04</totfact>
</mgrwt>
</event>
<event>
 5    1  0.6085374E+000  0.9229489E+02  0.7546771E-02  0.1297388E+00
          2   -1    0    0  501    0  0.00000000000E+00  0.00000000000E+00  0.56135865654E+02  0.56135865654E+02  0.00000000000E+00 0. -1.
         -2   -1    0    0    0  501 -0.00000000000E+00 -0.00000000000E+00 -0.37936292562E+02  0.37936292562E+02  0.00000000000E+00 0.  1.
         23    2    1    2    0    0  0.00000000000E+00  0.00000000000E+00  0.18199573092E+02  0.94072158216E+02  0.92294888757E+02 0.  0.
        -13    1    3    3    0    0  0.26009101465E+02 -0.18269499673E+02 -0.25000985072E+02  0.40438808488E+02  0.00000000000E+00 0.  1.
         13    1    3    3    0    0 -0.26009101465E+02  0.18269499673E+02  0.43200558164E+02  0.53633349728E+02  0.00000000000E+00 0. -1.
<mgrwt>
<rscale>  0 0.92294889E+02</rscale>
<asrwt>0</asrwt>
<pdfrwt beam="1">  1        2 0.86362870E-02 0.92294889E+02</pdfrwt>
<pdfrwt beam="2">  1       -2 0.58363527E-02 0.92294889E+02</pdfrwt>
<totfact> 0.10066103E+05</totfact>
</mgrwt>
</event>
<event>
 5    1  0.6085374E+000  0.9340593E+02  0.7546771E-02  0.1294807E+00
         -2   -1    0    0    0  501 -0.00000000000E+00  0.00000000000E+00  0.33680177611E+02  0.33680177611E+02  0.00000000000E+00 0.  1.
          2   -1    0    0  501    0  0.00000000000E+00 -0.00000000000E+00 -0.64761153327E+02  0.64761153327E+02  0.00000000000E+00 0. -1.
         23    2    1    2    0    0  0.00000000000E+00  0.00000000000E+00 -0.31080975716E+02  0.98441330938E+02  0.93405934423E+02 0.  0.
        -13    1    3    3    0    0 -0.66300462699E+01  0.26642535103E+02 -0.55357949004E+02  0.61792270619E+02  0.00000000000E+00 0. -1.
         13    1    3    3    0    0  0.66300462699E+01 -0.26642535103E+02  0.24276973288E+02  0.36649060320E+02  0.00000000000E+00 0.  1.
<mgrwt>
<rscale>  0 0.93405934E+02</rscale>
<asrwt>0</asrwt>
<pdfrwt beam="2">  1        2 0.99632543E-02 0.93405934E+02</pdfrwt>
<pdfrwt beam="1">  1       -2 0.51815658E-02 0.93405934E+02</pdfrwt>
<totfact> 0.10115754E+05</totfact>
</mgrwt>
</event>
<event>
 5    1  0.6085374E+000  0.9257718E+02  0.7546771E-02  0.1296728E+00
         -1   -1    0    0    0  501 -0.00000000000E+00  0.00000000000E+00  0.40892255586E+02  0.40892255586E+02  0.00000000000E+00 0.  1.
          1   -1    0    0  501    0  0.00000000000E+00 -0.00000000000E+00 -0.52397045809E+02  0.52397045809E+02  0.00000000000E+00 0. -1.
         23    2    1    2    0    0  0.00000000000E+00  0.00000000000E+00 -0.11504790223E+02  0.93289301395E+02  0.92577176219E+02 0.  0.
        -13    1    3    3    0    0 -0.13364883925E+01 -0.24832928628E+02 -0.45093361213E+02  0.51496327743E+02  0.00000000000E+00 0. -1.
         13    1    3    3    0    0  0.13364883925E+01  0.24832928628E+02  0.33588570990E+02  0.41792973652E+02  0.00000000000E+00 0.  1.
<mgrwt>
<rscale>  0 0.92577176E+02</rscale>
<asrwt>0</asrwt>
<pdfrwt beam="2">  1        1 0.80610839E-02 0.92577176E+02</pdfrwt>
<pdfrwt beam="1">  1       -1 0.62911163E-02 0.92577176E+02</pdfrwt>
<totfact> 0.90486468E+04</totfact>
</mgrwt>
</event>
<event>
 5    1  0.6085374E+000  0.9187906E+02  0.7546771E-02  0.1298364E+00
          2   -1    0    0  501    0  0.00000000000E+00  0.00000000000E+00  0.30965204279E+02  0.30965204279E+02  0.00000000000E+00 0. -1.
         -2   -1    0    0    0  501 -0.00000000000E+00 -0.00000000000E+00 -0.68155217028E+02  0.68155217028E+02  0.00000000000E+00 0.  1.
         23    2    1    2    0    0  0.00000000000E+00  0.00000000000E+00 -0.37190012749E+02  0.99120421307E+02  0.91879055675E+02 0.  0.
        -13    1    3    3    0    0  0.31034482823E+02 -0.20275668319E+02  0.10676430504E+02  0.38577558478E+02  0.00000000000E+00 0. -1.
         13    1    3    3    0    0 -0.31034482823E+02  0.20275668319E+02 -0.47866443253E+02  0.60542862829E+02  0.00000000000E+00 0.  1.
<mgrwt>
<rscale>  0 0.91879056E+02</rscale>
<asrwt>0</asrwt>
<pdfrwt beam="1">  1        2 0.47638776E-02 0.91879056E+02</pdfrwt>
<pdfrwt beam="2">  1       -2 0.10485418E-01 0.91879056E+02</pdfrwt>
<totfact> 0.87208626E+04</totfact>
</mgrwt>
</event>
<event>
 5    1  0.6085374E+000  0.9281578E+02  0.7546771E-02  0.1296173E+00
          1   -1    0    0  501    0  0.00000000000E+00  0.00000000000E+00  0.25070892458E+02  0.25070892458E+02  0.00000000000E+00 0. -1.
         -1   -1    0    0    0  501 -0.00000000000E+00 -0.00000000000E+00 -0.85904094495E+02  0.85904094495E+02  0.00000000000E+00 0.  1.
         23    2    1    2    0    0  0.00000000000E+00  0.00000000000E+00 -0.60833202037E+02  0.11097498695E+03  0.92815781305E+02 0.  0.
        -13    1    3    3    0    0  0.41548876906E+02  0.17803083905E+02 -0.42981337758E+02  0.62375110134E+02  0.00000000000E+00 0.  1.
         13    1    3    3    0    0 -0.41548876906E+02 -0.17803083905E+02 -0.17851864279E+02  0.48599876820E+02  0.00000000000E+00 0. -1.
<mgrwt>
<rscale>  0 0.92815781E+02</rscale>
<asrwt>0</asrwt>
<pdfrwt beam="1">  1        1 0.38570604E-02 0.92815781E+02</pdfrwt>
<pdfrwt beam="2">  1       -1 0.13216015E-01 0.92815781E+02</pdfrwt>
<totfact> 0.79883586E+04</totfact>
</mgrwt>
</event>
<event>
 5    1  0.6085374E+000  0.9069830E+02  0.7546771E-02  0.1301169E+00
          2   -1    0    0  501    0  0.00000000000E+00  0.00000000000E+00  0.31231912829E+03  0.31231912829E+03  0.00000000000E+00 0. -1.
         -2   -1    0    0    0  501 -0.00000000000E+00 -0.00000000000E+00 -0.65847566655E+01  0.65847566655E+01  0.00000000000E+00 0.  1.
         23    2    1    2    0    0  0.00000000000E+00  0.00000000000E+00  0.30573437162E+03  0.31890388496E+03  0.90698301236E+02 0.  0.
        -13    1    3    3    0    0  0.30255692741E+02  0.30309006861E+02  0.20531510024E+03  0.20973395821E+03  0.00000000000E+00 0. -1.
         13    1    3    3    0    0 -0.30255692741E+02 -0.30309006861E+02  0.10041927138E+03  0.10916992674E+03  0.00000000000E+00 0.  1.
<mgrwt>
<rscale>  0 0.90698301E+02</rscale>
<asrwt>0</asrwt>
<pdfrwt beam="1">  1        2 0.48049085E-01 0.90698301E+02</pdfrwt>
<pdfrwt beam="2">  1       -2 0.10130397E-02 0.90698301E+02</pdfrwt>
<totfact> 0.18494439E+05</totfact>
</mgrwt>
</event>
<event>
 5    1  0.6085374E+000  0.9152364E+02  0.7546771E-02  0.1299203E+00
          3   -1    0    0  501    0  0.00000000000E+00  0.00000000000E+00  0.12586047356E+03  0.12586047356E+03  0.00000000000E+00 0. -1.
         -3   -1    0    0    0  501 -0.00000000000E+00 -0.00000000000E+00 -0.16638616053E+02  0.16638616053E+02  0.00000000000E+00 0.  1.
         23    2    1    2    0    0  0.00000000000E+00  0.00000000000E+00  0.10922185751E+03  0.14249908961E+03  0.91523638386E+02 0.  0.
        -13    1    3    3    0    0  0.15552766725E+02  0.17087539151E+02 -0.68896082479E+01  0.24110977766E+02  0.00000000000E+00 0.  1.
         13    1    3    3    0    0 -0.15552766725E+02 -0.17087539151E+02  0.11611146575E+03  0.11838811185E+03  0.00000000000E+00 0. -1.
<mgrwt>
<rscale>  0 0.91523638E+02</rscale>
<asrwt>0</asrwt>
<pdfrwt beam="1">  1        3 0.19363149E-01 0.91523638E+02</pdfrwt>
<pdfrwt beam="2">  1       -3 0.25597872E-02 0.91523638E+02</pdfrwt>
<totfact> 0.31446509E+04</totfact>
</mgrwt>
</event>
<event>
 5    1  0.6085374E+000  0.8992716E+02  0.7546771E-02  0.1303028E+00
          2   -1    0    0  501    0  0.00000000000E+00  0.00000000000E+00  0.25977214013E+02  0.25977214013E+02  0.00000000000E+00 0. -1.
         -2   -1    0    0    0  501 -0.00000000000E+00 -0.00000000000E+00 -0.77826806550E+02  0.77826806550E+02  0.00000000000E+00 0.  1.
         23    2    1    2    0    0  0.00000000000E+00  0.00000000000E+00 -0.51849592537E+02  0.10380402056E+03  0.89927161852E+02 0.  0.
        -13    1    3    3    0    0  0.30599769372E+02 -0.18412634602E+02  0.56103838752E+01  0.36150344477E+02  0.00000000000E+00 0. -1.
         13    1    3    3    0    0 -0.30599769372E+02  0.18412634602E+02 -0.57459976412E+02  0.67653676086E+02  0.00000000000E+00 0.  1.
<mgrwt>
<rscale>  0 0.89927162E+02</rscale>
<asrwt>0</asrwt>
<pdfrwt beam="1">  1        2 0.39964944E-02 0.89927162E+02</pdfrwt>
<pdfrwt beam="2">  1       -2 0.11973355E-01 0.89927162E+02</pdfrwt>
<totfact> 0.88675532E+04</totfact>
</mgrwt>
</event>
<event>
 5    1  0.6085374E+000  0.9384747E+02  0.7546771E-02  0.1293793E+00
         -4   -1    0    0    0  501 -0.00000000000E+00  0.00000000000E+00  0.16914047264E+03  0.16914047264E+03  0.00000000000E+00 0.  1.
          4   -1    0    0  501    0  0.00000000000E+00 -0.00000000000E+00 -0.13017800507E+02  0.13017800507E+02  0.00000000000E+00 0. -1.
         23    2    1    2    0    0  0.00000000000E+00  0.00000000000E+00  0.15612267213E+03  0.18215827315E+03  0.93847470513E+02 0.  0.
        -13    1    3    3    0    0 -0.18557393425E+02  0.34718025019E+02  0.28494671485E+02  0.48596958906E+02  0.00000000000E+00 0. -1.
         13    1    3    3    0    0  0.18557393425E+02 -0.34718025019E+02  0.12762800065E+03  0.13356131424E+03  0.00000000000E+00 0.  1.
<mgrwt>
<rscale>  0 0.93847471E+02</rscale>
<asrwt>0</asrwt>
<pdfrwt beam="2">  1        4 0.20027387E-02 0.93847471E+02</pdfrwt>
<pdfrwt beam="1">  1       -4 0.26021610E-01 0.93847471E+02</pdfrwt>
<totfact> 0.20498875E+04</totfact>
</mgrwt>
</event>
<event>
 5    1  0.6085374E+000  0.9663673E+02  0.7546771E-02  0.1287532E+00
         -2   -1    0    0    0  501 -0.00000000000E+00  0.00000000000E+00  0.57940515874E+02  0.57940515874E+02  0.00000000000E+00 0. -1.
          2   -1    0    0  501    0  0.00000000000E+00 -0.00000000000E+00 -0.40294155628E+02  0.40294155628E+02  0.00000000000E+00 0.  1.
         23    2    1    2    0    0  0.00000000000E+00  0.00000000000E+00  0.17646360246E+02  0.98234671502E+02  0.96636725188E+02 0.  0.
        -13    1    3    3    0    0  0.54529174094E+00  0.18548378671E+02  0.54173936433E+02  0.57263907333E+02  0.00000000000E+00 0. -1.
         13    1    3    3    0    0 -0.54529174094E+00 -0.18548378671E+02 -0.36527576187E+02  0.40970764168E+02  0.00000000000E+00 0.  1.
<mgrwt>
<rscale>  0 0.96636725E+02</rscale>
<asrwt>0</asrwt>
<pdfrwt beam="2">  1        2 0.61991008E-02 0.96636725E+02</pdfrwt>
<pdfrwt beam="1">  1       -2 0.89139255E-02 0.96636725E+02</pdfrwt>
<totfact> 0.80661913E+04</totfact>
</mgrwt>
</event>
<event>
 5    1  0.6085374E+000  0.8691307E+02  0.7546771E-02  0.1310504E+00
          2   -1    0    0  501    0  0.00000000000E+00  0.00000000000E+00  0.10818903824E+03  0.10818903824E+03  0.00000000000E+00 0.  1.
         -2   -1    0    0    0  501 -0.00000000000E+00 -0.00000000000E+00 -0.17455284229E+02  0.17455284229E+02  0.00000000000E+00 0. -1.
         23    2    1    2    0    0  0.00000000000E+00  0.00000000000E+00  0.90733754012E+02  0.12564432247E+03  0.86913069512E+02 0.  0.
        -13    1    3    3    0    0 -0.39365347858E+02  0.12018140327E+02  0.65523162226E+02  0.77377975529E+02  0.00000000000E+00 0. -1.
         13    1    3    3    0    0  0.39365347858E+02 -0.12018140327E+02  0.25210591786E+02  0.48266346942E+02  0.00000000000E+00 0.  1.
<mgrwt>
<rscale>  0 0.86913070E+02</rscale>
<asrwt>0</asrwt>
<pdfrwt beam="1">  1        2 0.16644467E-01 0.86913070E+02</pdfrwt>
<pdfrwt beam="2">  1       -2 0.26854284E-02 0.86913070E+02</pdfrwt>
<totfact> 0.14326076E+05</totfact>
</mgrwt>
</event>
<event>
 5    1  0.6085374E+000  0.9052286E+02  0.7546771E-02  0.1301590E+00
          1   -1    0    0  501    0  0.00000000000E+00  0.00000000000E+00  0.30158579916E+03  0.30158579916E+03  0.00000000000E+00 0. -1.
         -1   -1    0    0    0  501 -0.00000000000E+00 -0.00000000000E+00 -0.67927510100E+01  0.67927510100E+01  0.00000000000E+00 0.  1.
         23    2    1    2    0    0  0.00000000000E+00  0.00000000000E+00  0.29479304815E+03  0.30837855017E+03  0.90522864335E+02 0.  0.
        -13    1    3    3    0    0 -0.36379539635E+02  0.26924174109E+02  0.14897680112E+03  0.15569993362E+03  0.00000000000E+00 0.  1.
         13    1    3    3    0    0  0.36379539635E+02 -0.26924174109E+02  0.14581624703E+03  0.15267861655E+03  0.00000000000E+00 0. -1.
<mgrwt>
<rscale>  0 0.90522864E+02</rscale>
<asrwt>0</asrwt>
<pdfrwt beam="1">  1        1 0.46397805E-01 0.90522864E+02</pdfrwt>
<pdfrwt beam="2">  1       -1 0.10450389E-02 0.90522864E+02</pdfrwt>
<totfact> 0.13073226E+05</totfact>
</mgrwt>
</event>
<event>
 5    1  0.6085374E+000  0.9109116E+02  0.7546771E-02  0.1300231E+00
         -1   -1    0    0    0  501 -0.00000000000E+00  0.00000000000E+00  0.13570509400E+02  0.13570509400E+02  0.00000000000E+00 0.  1.
          1   -1    0    0  501    0  0.00000000000E+00 -0.00000000000E+00 -0.15286086485E+03  0.15286086485E+03  0.00000000000E+00 0. -1.
         23    2    1    2    0    0  0.00000000000E+00  0.00000000000E+00 -0.13929035545E+03  0.16643137425E+03  0.91091158810E+02 0.  0.
        -13    1    3    3    0    0 -0.11854742602E+02  0.42453426637E+02 -0.48687662058E+02  0.65675846337E+02  0.00000000000E+00 0. -1.
         13    1    3    3    0    0  0.11854742602E+02 -0.42453426637E+02 -0.90602693387E+02  0.10075552791E+03  0.00000000000E+00 0.  1.
<mgrwt>
<rscale>  0 0.91091159E+02</rscale>
<asrwt>0</asrwt>
<pdfrwt beam="2">  1        1 0.23517055E-01 0.91091159E+02</pdfrwt>
<pdfrwt beam="1">  1       -1 0.20877708E-02 0.91091159E+02</pdfrwt>
<totfact> 0.11280952E+05</totfact>
</mgrwt>
</event>
<event>
 5    1  0.6085374E+000  0.9115086E+02  0.7546771E-02  0.1300088E+00
         -1   -1    0    0    0  501 -0.00000000000E+00  0.00000000000E+00  0.63065051530E+01  0.63065051530E+01  0.00000000000E+00 0.  1.
          1   -1    0    0  501    0  0.00000000000E+00 -0.00000000000E+00 -0.32936150640E+03  0.32936150640E+03  0.00000000000E+00 0. -1.
         23    2    1    2    0    0  0.00000000000E+00  0.00000000000E+00 -0.32305500124E+03  0.33566801155E+03  0.91150864775E+02 0.  0.
        -13    1    3    3    0    0 -0.43913737006E+02  0.84776978893E+01 -0.12924840935E+03  0.13676782874E+03  0.00000000000E+00 0.  1.
         13    1    3    3    0    0  0.43913737006E+02 -0.84776978893E+01 -0.19380659190E+03  0.19890018281E+03  0.00000000000E+00 0. -1.
<mgrwt>
<rscale>  0 0.91150865E+02</rscale>
<asrwt>0</asrwt>
<pdfrwt beam="2">  1        1 0.50671026E-01 0.91150865E+02</pdfrwt>
<pdfrwt beam="1">  1       -1 0.97023108E-03 0.91150865E+02</pdfrwt>
<totfact> 0.13048545E+05</totfact>
</mgrwt>
</event>
<event>
 5    1  0.6085374E+000  0.9009442E+02  0.7546771E-02  0.1302623E+00
          3   -1    0    0  501    0  0.00000000000E+00  0.00000000000E+00  0.23530371355E+03  0.23530371355E+03  0.00000000000E+00 0. -1.
         -3   -1    0    0    0  501 -0.00000000000E+00 -0.00000000000E+00 -0.86239652104E+01  0.86239652104E+01  0.00000000000E+00 0.  1.
         23    2    1    2    0    0  0.00000000000E+00  0.00000000000E+00  0.22667974834E+03  0.24392767876E+03  0.90094418018E+02 0.  0.
        -13    1    3    3    0    0 -0.40529303920E+02 -0.16130324318E+02  0.82895708994E+02  0.93672356693E+02  0.00000000000E+00 0.  1.
         13    1    3    3    0    0  0.40529303920E+02  0.16130324318E+02  0.14378403934E+03  0.15025532206E+03  0.00000000000E+00 0. -1.
<mgrwt>
<rscale>  0 0.90094418E+02</rscale>
<asrwt>0</asrwt>
<pdfrwt beam="1">  1        3 0.36200566E-01 0.90094418E+02</pdfrwt>
<pdfrwt beam="2">  1       -3 0.13267641E-02 0.90094418E+02</pdfrwt>
<totfact> 0.27235648E+04</totfact>
</mgrwt>
</event>
<event>
 5    1  0.6085374E+000  0.9001346E+02  0.7546771E-02  0.1302819E+00
          1   -1    0    0  501    0  0.00000000000E+00  0.00000000000E+00  0.34628066321E+02  0.34628066321E+02  0.00000000000E+00 0. -1.
         -1   -1    0    0    0  501 -0.00000000000E+00 -0.00000000000E+00 -0.58496075151E+02  0.58496075151E+02  0.00000000000E+00 0.  1.
         23    2    1    2    0    0  0.00000000000E+00  0.00000000000E+00 -0.23868008830E+02  0.93124141472E+02  0.90013464989E+02 0.  0.
        -13    1    3    3    0    0 -0.30642016741E+02  0.35812549926E+01 -0.45836064216E+02  0.55251274737E+02  0.00000000000E+00 0.  1.
         13    1    3    3    0    0  0.30642016741E+02 -0.35812549926E+01  0.21968055386E+02  0.37872866734E+02  0.00000000000E+00 0. -1.
<mgrwt>
<rscale>  0 0.90013465E+02</rscale>
<asrwt>0</asrwt>
<pdfrwt beam="1">  1        1 0.53273949E-02 0.90013465E+02</pdfrwt>
<pdfrwt beam="2">  1       -1 0.89993960E-02 0.90013465E+02</pdfrwt>
<totfact> 0.91971886E+04</totfact>
</mgrwt>
</event>
<event>
 5    1  0.6085374E+000  0.9216940E+02  0.7546771E-02  0.1297682E+00
          4   -1    0    0  501    0  0.00000000000E+00  0.00000000000E+00  0.49566389447E+02  0.49566389447E+02  0.00000000000E+00 0.  1.
         -4   -1    0    0    0  501 -0.00000000000E+00 -0.00000000000E+00 -0.42847571595E+02  0.42847571595E+02  0.00000000000E+00 0. -1.
         23    2    1    2    0    0  0.00000000000E+00  0.00000000000E+00  0.67188178524E+01  0.92413961042E+02  0.92169396668E+02 0.  0.
        -13    1    3    3    0    0  0.34508293636E+01 -0.43789632591E+02 -0.10618862708E+02  0.45190711335E+02  0.00000000000E+00 0. -1.
         13    1    3    3    0    0 -0.34508293636E+01  0.43789632591E+02  0.17337680560E+02  0.47223249707E+02  0.00000000000E+00 0.  1.
<mgrwt>
<rscale>  0 0.92169397E+02</rscale>
<asrwt>0</asrwt>
<pdfrwt beam="1">  1        4 0.76255984E-02 0.92169397E+02</pdfrwt>
<pdfrwt beam="2">  1       -4 0.65919341E-02 0.92169397E+02</pdfrwt>
<totfact> 0.26154617E+04</totfact>
</mgrwt>
</event>
<event>
 5    1  0.6085374E+000  0.9131907E+02  0.7546771E-02  0.1299688E+00
         -1   -1    0    0    0  501 -0.00000000000E+00  0.00000000000E+00  0.19256319047E+02  0.19256319047E+02  0.00000000000E+00 0.  1.
          1   -1    0    0  501    0  0.00000000000E+00 -0.00000000000E+00 -0.10826540823E+03  0.10826540823E+03  0.00000000000E+00 0. -1.
         23    2    1    2    0    0  0.00000000000E+00  0.00000000000E+00 -0.89009089183E+02  0.12752172728E+03  0.91319072326E+02 0.  0.
        -13    1    3    3    0    0  0.27241552722E+02  0.24369647338E+02 -0.62917411032E+01  0.37088649371E+02  0.00000000000E+00 0.  1.
         13    1    3    3    0    0 -0.27241552722E+02 -0.24369647338E+02 -0.82717348080E+02  0.90433077905E+02  0.00000000000E+00 0. -1.
<mgrwt>
<rscale>  0 0.91319072E+02</rscale>
<asrwt>0</asrwt>
<pdfrwt beam="2">  1        1 0.16656216E-01 0.91319072E+02</pdfrwt>
<pdfrwt beam="1">  1       -1 0.29625107E-02 0.91319072E+02</pdfrwt>
<totfact> 0.10540535E+05</totfact>
</mgrwt>
</event>
<event>
 5    1  0.6085374E+000  0.9221125E+02  0.7546771E-02  0.1297583E+00
          2   -1    0    0  501    0  0.00000000000E+00  0.00000000000E+00  0.15464896495E+02  0.15464896495E+02  0.00000000000E+00 0. -1.
         -2   -1    0    0    0  501 -0.00000000000E+00 -0.00000000000E+00 -0.13745509954E+03  0.13745509954E+03  0.00000000000E+00 0.  1.
         23    2    1    2    0    0  0.00000000000E+00  0.00000000000E+00 -0.12199020305E+03  0.15291999604E+03  0.92211254998E+02 0.  0.
        -13    1    3    3    0    0 -0.40890091320E+02  0.20521150996E+02 -0.70465471287E+02  0.84014878742E+02  0.00000000000E+00 0.  1.
         13    1    3    3    0    0  0.40890091320E+02 -0.20521150996E+02 -0.51524731758E+02  0.68905117293E+02  0.00000000000E+00 0. -1.
<mgrwt>
<rscale>  0 0.92211255E+02</rscale>
<asrwt>0</asrwt>
<pdfrwt beam="1">  1        2 0.23792149E-02 0.92211255E+02</pdfrwt>
<pdfrwt beam="2">  1       -2 0.21146938E-01 0.92211255E+02</pdfrwt>
<totfact> 0.70035043E+04</totfact>
</mgrwt>
</event>
<event>
 5    1  0.6085374E+000  0.9115670E+02  0.7546771E-02  0.1300075E+00
         -4   -1    0    0    0  501 -0.00000000000E+00  0.00000000000E+00  0.34751530978E+02  0.34751530978E+02  0.00000000000E+00 0.  1.
          4   -1    0    0  501    0  0.00000000000E+00 -0.00000000000E+00 -0.59778259044E+02  0.59778259044E+02  0.00000000000E+00 0. -1.
         23    2    1    2    0    0  0.00000000000E+00  0.00000000000E+00 -0.25026728066E+02  0.94529790022E+02  0.91156700707E+02 0.  0.
        -13    1    3    3    0    0  0.28245269502E+02 -0.30951111174E+02 -0.31110722994E+02  0.52188539138E+02  0.00000000000E+00 0. -1.
         13    1    3    3    0    0 -0.28245269502E+02  0.30951111174E+02  0.60839949272E+01  0.42341250884E+02  0.00000000000E+00 0.  1.
<mgrwt>
<rscale>  0 0.91156701E+02</rscale>
<asrwt>0</asrwt>
<pdfrwt beam="2">  1        4 0.91966553E-02 0.91156701E+02</pdfrwt>
<pdfrwt beam="1">  1       -4 0.53463894E-02 0.91156701E+02</pdfrwt>
<totfact> 0.26817846E+04</totfact>
</mgrwt>
</event>
<event>
 5    1  0.6085374E+000  0.9027909E+02  0.7546771E-02  0.1302177E+00
         -4   -1    0    0    0  501 -0.00000000000E+00  0.00000000000E+00  0.37744871918E+02  0.37744871918E+02  0.00000000000E+00 0.  1.
          4   -1    0    0  501    0  0.00000000000E+00 -0.00000000000E+00 -0.53982922437E+02  0.53982922437E+02  0.00000000000E+00 0. -1.
         23    2    1    2    0    0  0.00000000000E+00  0.00000000000E+00 -0.16238050519E+02  0.91727794354E+02  0.90279089342E+02 0.  0.
        -13    1    3    3    0    0  0.38992926388E+02 -0.11609224040E+02 -0.27986734423E+02  0.49380964903E+02  0.00000000000E+00 0. -1.
         13    1    3    3    0    0 -0.38992926388E+02  0.11609224040E+02  0.11748683904E+02  0.42346829451E+02  0.00000000000E+00 0.  1.
<mgrwt>
<rscale>  0 0.90279089E+02</rscale>
<asrwt>0</asrwt>
<pdfrwt beam="2">  1        4 0.83050650E-02 0.90279089E+02</pdfrwt>
<pdfrwt beam="1">  1       -4 0.58069034E-02 0.90279089E+02</pdfrwt>
<totfact> 0.27713868E+04</totfact>
</mgrwt>
</event>
<event>
 5    1  0.6085374E+000  0.9170047E+02  0.7546771E-02  0.1298785E+00
          3   -1    0    0  501    0  0.00000000000E+00  0.00000000000E+00  0.33991547589E+02  0.33991547589E+02  0.00000000000E+00 0. -1.
         -3   -1    0    0    0  501 -0.00000000000E+00 -0.00000000000E+00 -0.61846079531E+02  0.61846079531E+02  0.00000000000E+00 0.  1.
         23    2    1    2    0    0  0.00000000000E+00  0.00000000000E+00 -0.27854531942E+02  0.95837627120E+02  0.91700467951E+02 0.  0.
        -13    1    3    3    0    0  0.39670049791E+02  0.56707690722E+00 -0.37946968039E+02  0.54899970947E+02  0.00000000000E+00 0.  1.
         13    1    3    3    0    0 -0.39670049791E+02 -0.56707690722E+00  0.10092436097E+02  0.40937656173E+02  0.00000000000E+00 0. -1.
<mgrwt>
<rscale>  0 0.91700468E+02</rscale>
<asrwt>0</asrwt>
<pdfrwt beam="1">  1        3 0.52294689E-02 0.91700468E+02</pdfrwt>
<pdfrwt beam="2">  1       -3 0.95147814E-02 0.91700468E+02</pdfrwt>
<totfact> 0.34441471E+04</totfact>
</mgrwt>
</event>
<event>
 5    1  0.6085374E+000  0.9191943E+02  0.7546771E-02  0.1298269E+00
          1   -1    0    0  501    0  0.00000000000E+00  0.00000000000E+00  0.10600145389E+03  0.10600145389E+03  0.00000000000E+00 0. -1.
         -1   -1    0    0    0  501 -0.00000000000E+00 -0.00000000000E+00 -0.19927042026E+02  0.19927042026E+02  0.00000000000E+00 0.  1.
         23    2    1    2    0    0  0.00000000000E+00  0.00000000000E+00  0.86074411869E+02  0.12592849592E+03  0.91919430515E+02 0.  0.
        -13    1    3    3    0    0 -0.23845972198E+02 -0.16140075763E+02 -0.60374884583E+01  0.29420803908E+02  0.00000000000E+00 0.  1.
         13    1    3    3    0    0  0.23845972198E+02  0.16140075763E+02  0.92111900327E+02  0.96507692012E+02  0.00000000000E+00 0. -1.
<mgrwt>
<rscale>  0 0.91919431E+02</rscale>
<asrwt>0</asrwt>
<pdfrwt beam="1">  1        1 0.16307916E-01 0.91919431E+02</pdfrwt>
<pdfrwt beam="2">  1       -1 0.30656988E-02 0.91919431E+02</pdfrwt>
<totfact> 0.10316980E+05</totfact>
</mgrwt>
</event>
<event>
 5    1  0.6085374E+000  0.8794790E+02  0.7546771E-02  0.1307899E+00
          3   -1    0    0  501    0  0.00000000000E+00  0.00000000000E+00  0.79395547637E+01  0.79395547637E+01  0.00000000000E+00 0. -1.
         -3   -1    0    0    0  501 -0.00000000000E+00 -0.00000000000E+00 -0.24355376856E+03  0.24355376856E+03  0.00000000000E+00 0.  1.
         23    2    1    2    0    0  0.00000000000E+00  0.00000000000E+00 -0.23561421379E+03  0.25149332332E+03  0.87947904657E+02 0.  0.
        -13    1    3    3    0    0  0.25922665342E+01 -0.38516103021E+02 -0.17802797531E+03  0.18216522728E+03  0.00000000000E+00 0.  1.
         13    1    3    3    0    0 -0.25922665342E+01  0.38516103021E+02 -0.57586238483E+02  0.69328096039E+02  0.00000000000E+00 0. -1.
<mgrwt>
<rscale>  0 0.87947905E+02</rscale>
<asrwt>0</asrwt>
<pdfrwt beam="1">  1        3 0.12214702E-02 0.87947905E+02</pdfrwt>
<pdfrwt beam="2">  1       -3 0.37469803E-01 0.87947905E+02</pdfrwt>
<totfact> 0.28675091E+04</totfact>
</mgrwt>
</event>
<event>
 5    1  0.6085374E+000  0.1078278E+03  0.7546771E-02  0.1264646E+00
          2   -1    0    0  501    0  0.00000000000E+00  0.00000000000E+00  0.11607909338E+03  0.11607909338E+03  0.00000000000E+00 0. -1.
         -2   -1    0    0    0  501 -0.00000000000E+00 -0.00000000000E+00 -0.25040782236E+02  0.25040782236E+02  0.00000000000E+00 0.  1.
         23    2    1    2    0    0  0.00000000000E+00  0.00000000000E+00  0.91038311147E+02  0.14111987562E+03  0.10782784983E+03 0.  0.
        -13    1    3    3    0    0  0.38422997143E+02  0.33101768940E+02  0.69460994802E+02  0.86005137145E+02  0.00000000000E+00 0. -1.
         13    1    3    3    0    0 -0.38422997143E+02 -0.33101768940E+02  0.21577316345E+02  0.55114738474E+02  0.00000000000E+00 0.  1.
<mgrwt>
<rscale>  0 0.10782785E+03</rscale>
<asrwt>0</asrwt>
<pdfrwt beam="1">  1        2 0.17858322E-01 0.10782785E+03</pdfrwt>
<pdfrwt beam="2">  1       -2 0.38524281E-02 0.10782785E+03</pdfrwt>
<totfact> 0.80716917E+04</totfact>
</mgrwt>
</event>
<event>
 5    1  0.6085374E+000  0.1053192E+03  0.7546771E-02  0.1269492E+00
          2   -1    0    0  501    0  0.00000000000E+00  0.00000000000E+00  0.10167678167E+03  0.10167678167E+03  0.00000000000E+00 0. -1.
         -2   -1    0    0    0  501 -0.00000000000E+00 -0.00000000000E+00 -0.27273026315E+02  0.27273026315E+02  0.00000000000E+00 0.  1.
         23    2    1    2    0    0  0.00000000000E+00  0.00000000000E+00  0.74403755352E+02  0.12894980798E+03  0.10531920133E+03 0.  0.
        -13    1    3    3    0    0 -0.13175535971E+02  0.47259143474E+02  0.13777886540E+02  0.50959312668E+02  0.00000000000E+00 0.  1.
         13    1    3    3    0    0  0.13175535971E+02 -0.47259143474E+02  0.60625868812E+02  0.77990495314E+02  0.00000000000E+00 0. -1.
<mgrwt>
<rscale>  0 0.10531920E+03</rscale>
<asrwt>0</asrwt>
<pdfrwt beam="1">  1        2 0.15642582E-01 0.10531920E+03</pdfrwt>
<pdfrwt beam="2">  1       -2 0.41958503E-02 0.10531920E+03</pdfrwt>
<totfact> 0.82549204E+04</totfact>
</mgrwt>
</event>
<event>
 5    1  0.6085374E+000  0.9080746E+02  0.7546771E-02  0.1300908E+00
          1   -1    0    0  501    0  0.00000000000E+00  0.00000000000E+00  0.17949159574E+03  0.17949159574E+03  0.00000000000E+00 0. -1.
         -1   -1    0    0    0  501 -0.00000000000E+00 -0.00000000000E+00 -0.11485209670E+02  0.11485209670E+02  0.00000000000E+00 0.  1.
         23    2    1    2    0    0  0.00000000000E+00  0.00000000000E+00  0.16800638607E+03  0.19097680541E+03  0.90807458088E+02 0.  0.
        -13    1    3    3    0    0 -0.42301951757E+02  0.11548048459E+02  0.59236072427E+02  0.73700236243E+02  0.00000000000E+00 0.  1.
         13    1    3    3    0    0  0.42301951757E+02 -0.11548048459E+02  0.10877031364E+03  0.11727656917E+03  0.00000000000E+00 0. -1.
<mgrwt>
<rscale>  0 0.90807458E+02</rscale>
<asrwt>0</asrwt>
<pdfrwt beam="1">  1        1 0.27614090E-01 0.90807458E+02</pdfrwt>
<pdfrwt beam="2">  1       -1 0.17669555E-02 0.90807458E+02</pdfrwt>
<totfact> 0.11723488E+05</totfact>
</mgrwt>
</event>
<event>
 5    1  0.6085374E+000  0.9209258E+02  0.7546771E-02  0.1297862E+00
          1   -1    0    0  501    0  0.00000000000E+00  0.00000000000E+00  0.13106700452E+02  0.13106700452E+02  0.00000000000E+00 0. -1.
         -1   -1    0    0    0  501 -0.00000000000E+00 -0.00000000000E+00 -0.16176921995E+03  0.16176921995E+03  0.00000000000E+00 0.  1.
         23    2    1    2    0    0  0.00000000000E+00  0.00000000000E+00 -0.14866251950E+03  0.17487592040E+03  0.92092577512E+02 0.  0.
        -13    1    3    3    0    0  0.24190193708E+02 -0.30249347579E+02 -0.27045919539E+02  0.47240557409E+02  0.00000000000E+00 0. -1.
         13    1    3    3    0    0 -0.24190193708E+02  0.30249347579E+02 -0.12161659996E+03  0.12763536299E+03  0.00000000000E+00 0.  1.
<mgrwt>
<rscale>  0 0.92092578E+02</rscale>
<asrwt>0</asrwt>
<pdfrwt beam="1">  1        1 0.20164154E-02 0.92092578E+02</pdfrwt>
<pdfrwt beam="2">  1       -1 0.24887573E-01 0.92092578E+02</pdfrwt>
<totfact> 0.71560281E+04</totfact>
</mgrwt>
</event>
<event>
 5    1  0.6085374E+000  0.9143896E+02  0.7546771E-02  0.1299404E+00
         -1   -1    0    0    0  501 -0.00000000000E+00  0.00000000000E+00  0.49886310214E+02  0.49886310214E+02  0.00000000000E+00 0.  1.
          1   -1    0    0  501    0  0.00000000000E+00 -0.00000000000E+00 -0.41900694312E+02  0.41900694312E+02  0.00000000000E+00 0. -1.
         23    2    1    2    0    0  0.00000000000E+00  0.00000000000E+00  0.79856159020E+01  0.91787004526E+02  0.91438964006E+02 0.  0.
        -13    1    3    3    0    0 -0.24940143260E+02 -0.35214293974E+02 -0.11171438725E+02  0.44574188597E+02  0.00000000000E+00 0.  1.
         13    1    3    3    0    0  0.24940143260E+02  0.35214293974E+02  0.19157054627E+02  0.47212815928E+02  0.00000000000E+00 0. -1.
<mgrwt>
<rscale>  0 0.91438964E+02</rscale>
<asrwt>0</asrwt>
<pdfrwt beam="2">  1        1 0.64462607E-02 0.91438964E+02</pdfrwt>
<pdfrwt beam="1">  1       -1 0.76748169E-02 0.91438964E+02</pdfrwt>
<totfact> 0.90567301E+04</totfact>
</mgrwt>
</event>
<event>
 5    1  0.6085374E+000  0.9098748E+02  0.7546771E-02  0.1300478E+00
          2   -1    0    0  501    0  0.00000000000E+00  0.00000000000E+00  0.26333303422E+02  0.26333303422E+02  0.00000000000E+00 0. -1.
         -2   -1    0    0    0  501 -0.00000000000E+00 -0.00000000000E+00 -0.78595553342E+02  0.78595553342E+02  0.00000000000E+00 0.  1.
         23    2    1    2    0    0  0.00000000000E+00  0.00000000000E+00 -0.52262249920E+02  0.10492885676E+03  0.90987483838E+02 0.  0.
        -13    1    3    3    0    0  0.12830728229E+02 -0.21210103641E+02 -0.70122983638E+02  0.74375593562E+02  0.00000000000E+00 0.  1.
         13    1    3    3    0    0 -0.12830728229E+02  0.21210103641E+02  0.17860733718E+02  0.30553263202E+02  0.00000000000E+00 0. -1.
<mgrwt>
<rscale>  0 0.90987484E+02</rscale>
<asrwt>0</asrwt>
<pdfrwt beam="1">  1        2 0.40512775E-02 0.90987484E+02</pdfrwt>
<pdfrwt beam="2">  1       -2 0.12091624E-01 0.90987484E+02</pdfrwt>
<totfact> 0.85932517E+04</totfact>
</mgrwt>
</event>
<event>
 5    1  0.6085374E+000  0.9421895E+02  0.7546771E-02  0.1292945E+00
          2   -1    0    0  501    0  0.00000000000E+00  0.00000000000E+00  0.20508986328E+03  0.20508986328E+03  0.00000000000E+00 0. -1.
         -2   -1    0    0    0  501 -0.00000000000E+00 -0.00000000000E+00 -0.10821122553E+02  0.10821122553E+02  0.00000000000E+00 0.  1.
         23    2    1    2    0    0  0.00000000000E+00  0.00000000000E+00  0.19426874072E+03  0.21591098583E+03  0.94218948093E+02 0.  0.
        -13    1    3    3    0    0  0.32281526698E+02  0.22277761239E+02  0.37337236646E+02  0.54152237739E+02  0.00000000000E+00 0.  1.
         13    1    3    3    0    0 -0.32281526698E+02 -0.22277761239E+02  0.15693150408E+03  0.16175874809E+03  0.00000000000E+00 0. -1.
<mgrwt>
<rscale>  0 0.94218948E+02</rscale>
<asrwt>0</asrwt>
<pdfrwt beam="1">  1        2 0.31552284E-01 0.94218948E+02</pdfrwt>
<pdfrwt beam="2">  1       -2 0.16647882E-02 0.94218948E+02</pdfrwt>
<totfact> 0.14286721E+05</totfact>
</mgrwt>
</event>
<event>
 5    1  0.6085374E+000  0.9112719E+02  0.7546771E-02  0.1300145E+00
         -3   -1    0    0    0  501 -0.00000000000E+00  0.00000000000E+00  0.13389521699E+02  0.13389521699E+02  0.00000000000E+00 0.  1.
          3   -1    0    0  501    0  0.00000000000E+00 -0.00000000000E+00 -0.15504970138E+03  0.15504970138E+03  0.00000000000E+00 0. -1.
         23    2    1    2    0    0  0.00000000000E+00  0.00000000000E+00 -0.14166017968E+03  0.16843922308E+03  0.91127193330E+02 0.  0.
        -13    1    3    3    0    0  0.25869318601E+02  0.13873073014E+02 -0.64178320733E+01  0.30047834669E+02  0.00000000000E+00 0.  1.
         13    1    3    3    0    0 -0.25869318601E+02 -0.13873073014E+02 -0.13524234761E+03  0.13839138841E+03  0.00000000000E+00 0. -1.
<mgrwt>
<rscale>  0 0.91127193E+02</rscale>
<asrwt>0</asrwt>
<pdfrwt beam="2">  1        3 0.23853800E-01 0.91127193E+02</pdfrwt>
<pdfrwt beam="1">  1       -3 0.20599264E-02 0.91127193E+02</pdfrwt>
<totfact> 0.30260291E+04</totfact>
</mgrwt>
</event>
<event>
 5    1  0.6085374E+000  0.9194473E+02  0.7546771E-02  0.1298209E+00
          3   -1    0    0  501    0  0.00000000000E+00  0.00000000000E+00  0.21629630613E+03  0.21629630613E+03  0.00000000000E+00 0. -1.
         -3   -1    0    0    0  501 -0.00000000000E+00 -0.00000000000E+00 -0.97711258118E+01  0.97711258118E+01  0.00000000000E+00 0.  1.
         23    2    1    2    0    0  0.00000000000E+00  0.00000000000E+00  0.20652518032E+03  0.22606743194E+03  0.91944731657E+02 0.  0.
        -13    1    3    3    0    0 -0.41665198164E+02 -0.32072963532E+01  0.15037685229E+03  0.15607521646E+03  0.00000000000E+00 0.  1.
         13    1    3    3    0    0  0.41665198164E+02  0.32072963532E+01  0.56148328031E+02  0.69992215486E+02  0.00000000000E+00 0. -1.
<mgrwt>
<rscale>  0 0.91944732E+02</rscale>
<asrwt>0</asrwt>
<pdfrwt beam="1">  1        3 0.33276351E-01 0.91944732E+02</pdfrwt>
<pdfrwt beam="2">  1       -3 0.15032503E-02 0.91944732E+02</pdfrwt>
<totfact> 0.26595870E+04</totfact>
</mgrwt>
</event>
<event>
 5    1  0.6085374E+000  0.9231899E+02  0.7546771E-02  0.1297331E+00
         -2   -1    0    0    0  501 -0.00000000000E+00  0.00000000000E+00  0.58174369557E+02  0.58174369557E+02  0.00000000000E+00 0.  1.
          2   -1    0    0  501    0  0.00000000000E+00 -0.00000000000E+00 -0.36626080092E+02  0.36626080092E+02  0.00000000000E+00 0. -1.
         23    2    1    2    0    0  0.00000000000E+00  0.00000000000E+00  0.21548289464E+02  0.94800449649E+02  0.92318993034E+02 0.  0.
        -13    1    3    3    0    0 -0.17997205949E+02  0.40975011742E+02  0.22385061015E+02  0.50039404131E+02  0.00000000000E+00 0.  1.
         13    1    3    3    0    0  0.17997205949E+02 -0.40975011742E+02 -0.83677155058E+00  0.44761045517E+02  0.00000000000E+00 0. -1.
<mgrwt>
<rscale>  0 0.92318993E+02</rscale>
<asrwt>0</asrwt>
<pdfrwt beam="2">  1        2 0.56347816E-02 0.92318993E+02</pdfrwt>
<pdfrwt beam="1">  1       -2 0.89499030E-02 0.92318993E+02</pdfrwt>
<totfact> 0.89901957E+04</totfact>
</mgrwt>
</event>
<event>
 5    1  0.6085374E+000  0.8897953E+02  0.7546771E-02  0.1305342E+00
         -2   -1    0    0    0  501 -0.00000000000E+00  0.00000000000E+00  0.15148566660E+03  0.15148566660E+03  0.00000000000E+00 0.  1.
          2   -1    0    0  501    0  0.00000000000E+00 -0.00000000000E+00 -0.13066180486E+02  0.13066180486E+02  0.00000000000E+00 0. -1.
         23    2    1    2    0    0  0.00000000000E+00  0.00000000000E+00  0.13841948611E+03  0.16455184708E+03  0.88979527100E+02 0.  0.
        -13    1    3    3    0    0  0.27508193584E+02  0.34392562474E+02  0.57544344010E+02  0.72463098162E+02  0.00000000000E+00 0. -1.
         13    1    3    3    0    0 -0.27508193584E+02 -0.34392562474E+02  0.80875142100E+02  0.92088748919E+02  0.00000000000E+00 0.  1.
<mgrwt>
<rscale>  0 0.88979527E+02</rscale>
<asrwt>0</asrwt>
<pdfrwt beam="2">  1        2 0.20101817E-02 0.88979527E+02</pdfrwt>
<pdfrwt beam="1">  1       -2 0.23305486E-01 0.88979527E+02</pdfrwt>
<totfact> 0.74037099E+04</totfact>
</mgrwt>
</event>
<event>
 5    1  0.6085374E+000  0.9041428E+02  0.7546771E-02  0.1301852E+00
          1   -1    0    0  501    0  0.00000000000E+00  0.00000000000E+00  0.79545009181E+01  0.79545009181E+01  0.00000000000E+00 0.  1.
         -1   -1    0    0    0  501 -0.00000000000E+00 -0.00000000000E+00 -0.25692187866E+03  0.25692187866E+03  0.00000000000E+00 0. -1.
         23    2    1    2    0    0  0.00000000000E+00  0.00000000000E+00 -0.24896737774E+03  0.26487637958E+03  0.90414275857E+02 0.  0.
        -13    1    3    3    0    0  0.33476754547E+02  0.24027784641E+02 -0.70017197745E+02  0.81243064380E+02  0.00000000000E+00 0.  1.
         13    1    3    3    0    0 -0.33476754547E+02 -0.24027784641E+02 -0.17895018000E+03  0.18363331520E+03  0.00000000000E+00 0. -1.
<mgrwt>
<rscale>  0 0.90414276E+02</rscale>
<asrwt>0</asrwt>
<pdfrwt beam="1">  1        1 0.12237694E-02 0.90414276E+02</pdfrwt>
<pdfrwt beam="2">  1       -1 0.39526441E-01 0.90414276E+02</pdfrwt>
<totfact> 0.65583753E+04</totfact>
</mgrwt>
</event>
<event>
 5    1  0.6085374E+000  0.8328637E+02  0.7546771E-02  0.1319976E+00
         -2   -1    0    0    0  501 -0.00000000000E+00  0.00000000000E+00  0.13646644801E+02  0.13646644801E+02  0.00000000000E+00 0.  1.
          2   -1    0    0  501    0  0.00000000000E+00 -0.00000000000E+00 -0.12707553688E+03  0.12707553688E+03  0.00000000000E+00 0. -1.
         23    2    1    2    0    0  0.00000000000E+00  0.00000000000E+00 -0.11342889208E+03  0.14072218168E+03  0.83286366583E+02 0.  0.
        -13    1    3    3    0    0 -0.24894513061E+01  0.22610093921E+02  0.22225117470E+01  0.22855049188E+02  0.00000000000E+00 0.  1.
         13    1    3    3    0    0  0.24894513061E+01 -0.22610093921E+02 -0.11565140383E+03  0.11786713249E+03  0.00000000000E+00 0. -1.
<mgrwt>
<rscale>  0 0.83286367E+02</rscale>
<asrwt>0</asrwt>
<pdfrwt beam="2">  1        2 0.19550083E-01 0.83286367E+02</pdfrwt>
<pdfrwt beam="1">  1       -2 0.20994838E-02 0.83286367E+02</pdfrwt>
<totfact> 0.16907558E+05</totfact>
</mgrwt>
</event>
<event>
 5    1  0.6085374E+000  0.8999803E+02  0.7546771E-02  0.1302856E+00
          1   -1    0    0  501    0  0.00000000000E+00  0.00000000000E+00  0.19938161454E+02  0.19938161454E+02  0.00000000000E+00 0. -1.
         -1   -1    0    0    0  501 -0.00000000000E+00 -0.00000000000E+00 -0.10155958393E+03  0.10155958393E+03  0.00000000000E+00 0.  1.
         23    2    1    2    0    0  0.00000000000E+00  0.00000000000E+00 -0.81621422479E+02  0.12149774539E+03  0.89998030681E+02 0.  0.
        -13    1    3    3    0    0  0.41440684255E+02 -0.10784551797E+02 -0.59481547252E+02  0.73291823094E+02  0.00000000000E+00 0. -1.
         13    1    3    3    0    0 -0.41440684255E+02  0.10784551797E+02 -0.22139875227E+02  0.48205922292E+02  0.00000000000E+00 0.  1.
<mgrwt>
<rscale>  0 0.89998031E+02</rscale>
<asrwt>0</asrwt>
<pdfrwt beam="1">  1        1 0.30674095E-02 0.89998031E+02</pdfrwt>
<pdfrwt beam="2">  1       -1 0.15624551E-01 0.89998031E+02</pdfrwt>
<totfact> 0.83899094E+04</totfact>
</mgrwt>
</event>
<event>
 5    1  0.6085374E+000  0.9214111E+02  0.7546771E-02  0.1297748E+00
          1   -1    0    0  501    0  0.00000000000E+00  0.00000000000E+00  0.40761080771E+02  0.40761080771E+02  0.00000000000E+00 0. -1.
         -1   -1    0    0    0  501 -0.00000000000E+00 -0.00000000000E+00 -0.52071631306E+02  0.52071631306E+02  0.00000000000E+00 0.  1.
         23    2    1    2    0    0  0.00000000000E+00  0.00000000000E+00 -0.11310550536E+02  0.92832712077E+02  0.92141108514E+02 0.  0.
        -13    1    3    3    0    0 -0.14677795920E+02 -0.19897156405E+02  0.33510167240E+02  0.41644517461E+02  0.00000000000E+00 0. -1.
         13    1    3    3    0    0  0.14677795920E+02  0.19897156405E+02 -0.44820717776E+02  0.51188194616E+02  0.00000000000E+00 0.  1.
<mgrwt>
<rscale>  0 0.92141109E+02</rscale>
<asrwt>0</asrwt>
<pdfrwt beam="1">  1        1 0.62709355E-02 0.92141109E+02</pdfrwt>
<pdfrwt beam="2">  1       -1 0.80110202E-02 0.92141109E+02</pdfrwt>
<totfact> 0.88258806E+04</totfact>
</mgrwt>
</event>
<event>
 5    1  0.6085374E+000  0.9098234E+02  0.7546771E-02  0.1300490E+00
         -2   -1    0    0    0  501 -0.00000000000E+00  0.00000000000E+00  0.45306314883E+01  0.45306314883E+01  0.00000000000E+00 0.  1.
          2   -1    0    0  501    0  0.00000000000E+00 -0.00000000000E+00 -0.45676782035E+03  0.45676782035E+03  0.00000000000E+00 0. -1.
         23    2    1    2    0    0  0.00000000000E+00  0.00000000000E+00 -0.45223718886E+03  0.46129845183E+03  0.90982342676E+02 0.  0.
        -13    1    3    3    0    0  0.11285935901E+02  0.43774932424E+02 -0.25188677896E+03  0.25591124726E+03  0.00000000000E+00 0. -1.
         13    1    3    3    0    0 -0.11285935901E+02 -0.43774932424E+02 -0.20035040989E+03  0.20538720457E+03  0.00000000000E+00 0.  1.
<mgrwt>
<rscale>  0 0.90982343E+02</rscale>
<asrwt>0</asrwt>
<pdfrwt beam="2">  1        2 0.70271976E-01 0.90982343E+02</pdfrwt>
<pdfrwt beam="1">  1       -2 0.69702020E-03 0.90982343E+02</pdfrwt>
<totfact> 0.21029057E+05</totfact>
</mgrwt>
</event>
<event>
 5    1  0.6085374E+000  0.9104113E+02  0.7546771E-02  0.1300350E+00
         -2   -1    0    0    0  501 -0.00000000000E+00  0.00000000000E+00  0.10773973360E+02  0.10773973360E+02  0.00000000000E+00 0. -1.
          2   -1    0    0  501    0  0.00000000000E+00 -0.00000000000E+00 -0.19232661518E+03  0.19232661518E+03  0.00000000000E+00 0.  1.
         23    2    1    2    0    0  0.00000000000E+00  0.00000000000E+00 -0.18155264182E+03  0.20310058854E+03  0.91041129792E+02 0.  0.
        -13    1    3    3    0    0  0.17757011775E+02  0.30862705277E+02 -0.27508394706E+02  0.44994775513E+02  0.00000000000E+00 0. -1.
         13    1    3    3    0    0 -0.17757011775E+02 -0.30862705277E+02 -0.15404424711E+03  0.15810581303E+03  0.00000000000E+00 0.  1.
<mgrwt>
<rscale>  0 0.91041130E+02</rscale>
<asrwt>0</asrwt>
<pdfrwt beam="2">  1        2 0.29588709E-01 0.91041130E+02</pdfrwt>
<pdfrwt beam="1">  1       -2 0.16575344E-02 0.91041130E+02</pdfrwt>
<totfact> 0.15312729E+05</totfact>
</mgrwt>
</event>
<event>
 5    1  0.6085374E+000  0.9032898E+02  0.7546771E-02  0.1302057E+00
         -3   -1    0    0    0  501 -0.00000000000E+00  0.00000000000E+00  0.26805622947E+02  0.26805622947E+02  0.00000000000E+00 0. -1.
          3   -1    0    0  501    0  0.00000000000E+00 -0.00000000000E+00 -0.76097140639E+02  0.76097140639E+02  0.00000000000E+00 0.  1.
         23    2    1    2    0    0  0.00000000000E+00  0.00000000000E+00 -0.49291517692E+02  0.10290276359E+03  0.90328982266E+02 0.  0.
        -13    1    3    3    0    0  0.29766970507E+02  0.87115787735E+01  0.12755182551E+02  0.33535933263E+02  0.00000000000E+00 0. -1.
         13    1    3    3    0    0 -0.29766970507E+02 -0.87115787735E+01 -0.62046700243E+02  0.69366830322E+02  0.00000000000E+00 0.  1.
<mgrwt>
<rscale>  0 0.90328982E+02</rscale>
<asrwt>0</asrwt>
<pdfrwt beam="2">  1        3 0.11707252E-01 0.90328982E+02</pdfrwt>
<pdfrwt beam="1">  1       -3 0.41239421E-02 0.90328982E+02</pdfrwt>
<totfact> 0.35342791E+04</totfact>
</mgrwt>
</event>
<event>
 5    1  0.6085374E+000  0.8986814E+02  0.7546771E-02  0.1303171E+00
          2   -1    0    0  501    0  0.00000000000E+00  0.00000000000E+00  0.13262270986E+03  0.13262270986E+03  0.00000000000E+00 0. -1.
         -2   -1    0    0    0  501 -0.00000000000E+00 -0.00000000000E+00 -0.15224168591E+02  0.15224168591E+02  0.00000000000E+00 0.  1.
         23    2    1    2    0    0  0.00000000000E+00  0.00000000000E+00  0.11739854127E+03  0.14784687845E+03  0.89868136596E+02 0.  0.
        -13    1    3    3    0    0  0.42179650920E+02  0.14119007297E+02  0.48216508676E+02  0.65599550514E+02  0.00000000000E+00 0.  1.
         13    1    3    3    0    0 -0.42179650920E+02 -0.14119007297E+02  0.69182032590E+02  0.82247327933E+02  0.00000000000E+00 0. -1.
<mgrwt>
<rscale>  0 0.89868137E+02</rscale>
<asrwt>0</asrwt>
<pdfrwt beam="1">  1        2 0.20403493E-01 0.89868137E+02</pdfrwt>
<pdfrwt beam="2">  1       -2 0.23421799E-02 0.89868137E+02</pdfrwt>
<totfact> 0.13954053E+05</totfact>
</mgrwt>
</event>
<event>
 5    1  0.6085374E+000  0.8951726E+02  0.7546771E-02  0.1304025E+00
          2   -1    0    0  501    0  0.00000000000E+00  0.00000000000E+00  0.17162444215E+03  0.17162444215E+03  0.00000000000E+00 0. -1.
         -2   -1    0    0    0  501 -0.00000000000E+00 -0.00000000000E+00 -0.11672783784E+02  0.11672783784E+02  0.00000000000E+00 0.  1.
         23    2    1    2    0    0  0.00000000000E+00  0.00000000000E+00  0.15995165836E+03  0.18329722593E+03  0.89517261021E+02 0.  0.
        -13    1    3    3    0    0  0.40195428207E+02 -0.17973446246E+02  0.96435651593E+02  0.10601203760E+03  0.00000000000E+00 0. -1.
         13    1    3    3    0    0 -0.40195428207E+02  0.17973446246E+02  0.63516006771E+02  0.77285188327E+02  0.00000000000E+00 0.  1.
<mgrwt>
<rscale>  0 0.89517261E+02</rscale>
<asrwt>0</asrwt>
<pdfrwt beam="1">  1        2 0.26403758E-01 0.89517261E+02</pdfrwt>
<pdfrwt beam="2">  1       -2 0.17958130E-02 0.89517261E+02</pdfrwt>
<totfact> 0.15390793E+05</totfact>
</mgrwt>
</event>
<event>
 5    1  0.6085374E+000  0.9133751E+02  0.7546771E-02  0.1299645E+00
         -1   -1    0    0    0  501 -0.00000000000E+00  0.00000000000E+00  0.15291125545E+02  0.15291125545E+02  0.00000000000E+00 0.  1.
          1   -1    0    0  501    0  0.00000000000E+00 -0.00000000000E+00 -0.13639513604E+03  0.13639513604E+03  0.00000000000E+00 0. -1.
         23    2    1    2    0    0  0.00000000000E+00  0.00000000000E+00 -0.12110401049E+03  0.15168626158E+03  0.91337509245E+02 0.  0.
        -13    1    3    3    0    0 -0.24368210313E+02 -0.28363733110E+02 -0.17013062820E+02  0.41082299549E+02  0.00000000000E+00 0.  1.
         13    1    3    3    0    0  0.24368210313E+02  0.28363733110E+02 -0.10409094767E+03  0.11060396203E+03  0.00000000000E+00 0. -1.
<mgrwt>
<rscale>  0 0.91337509E+02</rscale>
<asrwt>0</asrwt>
<pdfrwt beam="2">  1        1 0.20983868E-01 0.91337509E+02</pdfrwt>
<pdfrwt beam="1">  1       -1 0.23524807E-02 0.91337509E+02</pdfrwt>
<totfact> 0.10968602E+05</totfact>
</mgrwt>
</event>
<event>
 5    1  0.6085374E+000  0.9392635E+02  0.7546771E-02  0.1293613E+00
          1   -1    0    0  501    0  0.00000000000E+00  0.00000000000E+00  0.48920365780E+03  0.48920365780E+03  0.00000000000E+00 0. -1.
         -1   -1    0    0    0  501 -0.00000000000E+00 -0.00000000000E+00 -0.45084285770E+01  0.45084285770E+01  0.00000000000E+00 0.  1.
         23    2    1    2    0    0  0.00000000000E+00  0.00000000000E+00  0.48469522922E+03  0.49371208638E+03  0.93926348823E+02 0.  0.
        -13    1    3    3    0    0 -0.46340800117E+02  0.75303927100E+01  0.23621051641E+03  0.24083102921E+03  0.00000000000E+00 0.  1.
         13    1    3    3    0    0  0.46340800117E+02 -0.75303927100E+01  0.24848471281E+03  0.25288105716E+03  0.00000000000E+00 0. -1.
<mgrwt>
<rscale>  0 0.93926349E+02</rscale>
<asrwt>0</asrwt>
<pdfrwt beam="1">  1        1 0.75262059E-01 0.93926349E+02</pdfrwt>
<pdfrwt beam="2">  1       -1 0.69360478E-03 0.93926349E+02</pdfrwt>
<totfact> 0.12836162E+05</totfact>
</mgrwt>
</event>
<event>
 5    1  0.6085374E+000  0.8901278E+02  0.7546771E-02  0.1305260E+00
         -2   -1    0    0    0  501 -0.00000000000E+00  0.00000000000E+00  0.42376848976E+02  0.42376848976E+02  0.00000000000E+00 0.  1.
          2   -1    0    0  501    0  0.00000000000E+00 -0.00000000000E+00 -0.46742941450E+02  0.46742941450E+02  0.00000000000E+00 0. -1.
         23    2    1    2    0    0  0.00000000000E+00  0.00000000000E+00 -0.43660924741E+01  0.89119790427E+02  0.89012775949E+02 0.  0.
        -13    1    3    3    0    0  0.18817260250E+01  0.13205828584E+02  0.40328380028E+02  0.42477206089E+02  0.00000000000E+00 0.  1.
         13    1    3    3    0    0 -0.18817260250E+01 -0.13205828584E+02 -0.44694472503E+02  0.46642584338E+02  0.00000000000E+00 0. -1.
<mgrwt>
<rscale>  0 0.89012776E+02</rscale>
<asrwt>0</asrwt>
<pdfrwt beam="2">  1        2 0.71912217E-02 0.89012776E+02</pdfrwt>
<pdfrwt beam="1">  1       -2 0.65195153E-02 0.89012776E+02</pdfrwt>
<totfact> 0.10636963E+05</totfact>
</mgrwt>
</event>
<event>
 5    1  0.6085374E+000  0.9079402E+02  0.7546771E-02  0.1300940E+00
         -2   -1    0    0    0  501 -0.00000000000E+00  0.00000000000E+00  0.15915607483E+02  0.15915607483E+02  0.00000000000E+00 0.  1.
          2   -1    0    0  501    0  0.00000000000E+00 -0.00000000000E+00 -0.12948853406E+03  0.12948853406E+03  0.00000000000E+00 0. -1.
         23    2    1    2    0    0  0.00000000000E+00  0.00000000000E+00 -0.11357292658E+03  0.14540414154E+03  0.90794023627E+02 0.  0.
        -13    1    3    3    0    0  0.34880059150E+02  0.26247805252E+02 -0.76745391863E+02  0.88291681256E+02  0.00000000000E+00 0.  1.
         13    1    3    3    0    0 -0.34880059150E+02 -0.26247805252E+02 -0.36827534715E+02  0.57112460287E+02  0.00000000000E+00 0. -1.
<mgrwt>
<rscale>  0 0.90794024E+02</rscale>
<asrwt>0</asrwt>
<pdfrwt beam="2">  1        2 0.19921313E-01 0.90794024E+02</pdfrwt>
<pdfrwt beam="1">  1       -2 0.24485549E-02 0.90794024E+02</pdfrwt>
<totfact> 0.13464362E+05</totfact>
</mgrwt>
</event>
<event>
 5    1  0.6085374E+000  0.8961771E+02  0.7546771E-02  0.1303780E+00
          1   -1    0    0  501    0  0.00000000000E+00  0.00000000000E+00  0.55186233648E+02  0.55186233648E+02  0.00000000000E+00 0. -1.
         -1   -1    0    0    0  501 -0.00000000000E+00 -0.00000000000E+00 -0.36382869985E+02  0.36382869985E+02  0.00000000000E+00 0.  1.
         23    2    1    2    0    0  0.00000000000E+00  0.00000000000E+00  0.18803363663E+02  0.91569103633E+02  0.89617711726E+02 0.  0.
        -13    1    3    3    0    0 -0.29426788157E+02  0.26812228513E+02 -0.11613172138E+02  0.41469232283E+02  0.00000000000E+00 0.  1.
         13    1    3    3    0    0  0.29426788157E+02 -0.26812228513E+02  0.30416535801E+02  0.50099871349E+02  0.00000000000E+00 0. -1.
<mgrwt>
<rscale>  0 0.89617712E+02</rscale>
<asrwt>0</asrwt>
<pdfrwt beam="1">  1        1 0.84901898E-02 0.89617712E+02</pdfrwt>
<pdfrwt beam="2">  1       -1 0.55973646E-02 0.89617712E+02</pdfrwt>
<totfact> 0.99832827E+04</totfact>
</mgrwt>
</event>
<event>
 5    1  0.6085374E+000  0.9108867E+02  0.7546771E-02  0.1300237E+00
         -3   -1    0    0    0  501 -0.00000000000E+00  0.00000000000E+00  0.13360334288E+03  0.13360334288E+03  0.00000000000E+00 0.  1.
          3   -1    0    0  501    0  0.00000000000E+00 -0.00000000000E+00 -0.15525706873E+02  0.15525706873E+02  0.00000000000E+00 0. -1.
         23    2    1    2    0    0  0.00000000000E+00  0.00000000000E+00  0.11807763601E+03  0.14912904975E+03  0.91088667543E+02 0.  0.
        -13    1    3    3    0    0  0.32982351794E+02 -0.23306779944E+02  0.93507107711E+02  0.10185588208E+03  0.00000000000E+00 0.  1.
         13    1    3    3    0    0 -0.32982351794E+02  0.23306779944E+02  0.24570528295E+02  0.47273167674E+02  0.00000000000E+00 0. -1.
<mgrwt>
<rscale>  0 0.91088668E+02</rscale>
<asrwt>0</asrwt>
<pdfrwt beam="2">  1        3 0.23885704E-02 0.91088668E+02</pdfrwt>
<pdfrwt beam="1">  1       -3 0.20554360E-01 0.91088668E+02</pdfrwt>
<totfact> 0.31443908E+04</totfact>
</mgrwt>
</event>
<event>
 5    1  0.6085374E+000  0.8620090E+02  0.7546771E-02  0.1312322E+00
          1   -1    0    0  501    0  0.00000000000E+00  0.00000000000E+00  0.42501516386E+03  0.42501516386E+03  0.00000000000E+00 0. -1.
         -1   -1    0    0    0  501 -0.00000000000E+00 -0.00000000000E+00 -0.43707827042E+01  0.43707827042E+01  0.00000000000E+00 0.  1.
         23    2    1    2    0    0  0.00000000000E+00  0.00000000000E+00  0.42064438116E+03  0.42938594657E+03  0.86200903180E+02 0.  0.
        -13    1    3    3    0    0  0.34760355481E+01 -0.42960021252E+02  0.21006440967E+03  0.21444044035E+03  0.00000000000E+00 0. -1.
         13    1    3    3    0    0 -0.34760355481E+01  0.42960021252E+02  0.21057997149E+03  0.21494550621E+03  0.00000000000E+00 0.  1.
<mgrwt>
<rscale>  0 0.86200903E+02</rscale>
<asrwt>0</asrwt>
<pdfrwt beam="1">  1        1 0.65386916E-01 0.86200903E+02</pdfrwt>
<pdfrwt beam="2">  1       -1 0.67242844E-03 0.86200903E+02</pdfrwt>
<totfact> 0.15799592E+05</totfact>
</mgrwt>
</event>
<event>
 5    1  0.6085374E+000  0.9248832E+02  0.7546771E-02  0.1296935E+00
          2   -1    0    0  501    0  0.00000000000E+00  0.00000000000E+00  0.23877514477E+03  0.23877514477E+03  0.00000000000E+00 0. -1.
         -2   -1    0    0    0  501 -0.00000000000E+00 -0.00000000000E+00 -0.89562187430E+01  0.89562187430E+01  0.00000000000E+00 0.  1.
         23    2    1    2    0    0  0.00000000000E+00  0.00000000000E+00  0.22981892603E+03  0.24773136351E+03  0.92488322007E+02 0.  0.
        -13    1    3    3    0    0  0.60961725575E+01  0.42355031047E+02  0.16187220086E+03  0.16743273690E+03  0.00000000000E+00 0. -1.
         13    1    3    3    0    0 -0.60961725575E+01 -0.42355031047E+02  0.67946725168E+02  0.80298626613E+02  0.00000000000E+00 0.  1.
<mgrwt>
<rscale>  0 0.92488322E+02</rscale>
<asrwt>0</asrwt>
<pdfrwt beam="1">  1        2 0.36734633E-01 0.92488322E+02</pdfrwt>
<pdfrwt beam="2">  1       -2 0.13778800E-02 0.92488322E+02</pdfrwt>
<totfact> 0.15882671E+05</totfact>
</mgrwt>
</event>
<event>
 5    1  0.6085374E+000  0.9092074E+02  0.7546771E-02  0.1300637E+00
          2   -1    0    0  501    0  0.00000000000E+00  0.00000000000E+00  0.52241019981E+02  0.52241019981E+02  0.00000000000E+00 0. -1.
         -2   -1    0    0    0  501 -0.00000000000E+00 -0.00000000000E+00 -0.39559818872E+02  0.39559818872E+02  0.00000000000E+00 0.  1.
         23    2    1    2    0    0  0.00000000000E+00  0.00000000000E+00  0.12681201109E+02  0.91800838852E+02  0.90920741046E+02 0.  0.
        -13    1    3    3    0    0 -0.62022572868E+01 -0.19105636194E+02 -0.34835920288E+02  0.40212369641E+02  0.00000000000E+00 0.  1.
         13    1    3    3    0    0  0.62022572868E+01  0.19105636194E+02  0.47517121397E+02  0.51588469212E+02  0.00000000000E+00 0. -1.
<mgrwt>
<rscale>  0 0.90920741E+02</rscale>
<asrwt>0</asrwt>
<pdfrwt beam="1">  1        2 0.80370800E-02 0.90920741E+02</pdfrwt>
<pdfrwt beam="2">  1       -2 0.60861260E-02 0.90920741E+02</pdfrwt>
<totfact> 0.10306638E+05</totfact>
</mgrwt>
</event>
<event>
 5    1  0.6085374E+000  0.9148156E+02  0.7546771E-02  0.1299303E+00
          1   -1    0    0  501    0  0.00000000000E+00  0.00000000000E+00  0.31641754755E+03  0.31641754755E+03  0.00000000000E+00 0. -1.
         -1   -1    0    0    0  501 -0.00000000000E+00 -0.00000000000E+00 -0.66122089375E+01  0.66122089375E+01  0.00000000000E+00 0.  1.
         23    2    1    2    0    0  0.00000000000E+00  0.00000000000E+00  0.30980533861E+03  0.32302975649E+03  0.91481559582E+02 0.  0.
        -13    1    3    3    0    0  0.13087573205E+02  0.43647601068E+02  0.14085740744E+03  0.14804461112E+03  0.00000000000E+00 0.  1.
         13    1    3    3    0    0 -0.13087573205E+02 -0.43647601068E+02  0.16894793117E+03  0.17498514537E+03  0.00000000000E+00 0. -1.
<mgrwt>
<rscale>  0 0.91481560E+02</rscale>
<asrwt>0</asrwt>
<pdfrwt beam="1">  1        1 0.48679611E-01 0.91481560E+02</pdfrwt>
<pdfrwt beam="2">  1       -1 0.10172632E-02 0.91481560E+02</pdfrwt>
<totfact> 0.12827321E+05</totfact>
</mgrwt>
</event>
<event>
 5    1  0.6085374E+000  0.9323764E+02  0.7546771E-02  0.1295195E+00
          3   -1    0    0  501    0  0.00000000000E+00  0.00000000000E+00  0.54507481021E+02  0.54507481021E+02  0.00000000000E+00 0. -1.
         -3   -1    0    0    0  501 -0.00000000000E+00 -0.00000000000E+00 -0.39871855854E+02  0.39871855854E+02  0.00000000000E+00 0.  1.
         23    2    1    2    0    0  0.00000000000E+00  0.00000000000E+00  0.14635625167E+02  0.94379336876E+02  0.93237641031E+02 0.  0.
        -13    1    3    3    0    0  0.33085707461E+02  0.49121047199E+01 -0.25553223085E+02  0.42092279827E+02  0.00000000000E+00 0.  1.
         13    1    3    3    0    0 -0.33085707461E+02 -0.49121047199E+01  0.40188848252E+02  0.52287057049E+02  0.00000000000E+00 0. -1.
<mgrwt>
<rscale>  0 0.93237641E+02</rscale>
<asrwt>0</asrwt>
<pdfrwt beam="1">  1        3 0.83857663E-02 0.93237641E+02</pdfrwt>
<pdfrwt beam="2">  1       -3 0.61341316E-02 0.93237641E+02</pdfrwt>
<totfact> 0.33015846E+04</totfact>
</mgrwt>
</event>
<event>
 5    1  0.6085374E+000  0.8997463E+02  0.7546771E-02  0.1302913E+00
          1   -1    0    0  501    0  0.00000000000E+00  0.00000000000E+00  0.53002400421E+02  0.53002400421E+02  0.00000000000E+00 0. -1.
         -1   -1    0    0    0  501 -0.00000000000E+00 -0.00000000000E+00 -0.38184277438E+02  0.38184277438E+02  0.00000000000E+00 0.  1.
         23    2    1    2    0    0  0.00000000000E+00  0.00000000000E+00  0.14818122983E+02  0.91186677859E+02  0.89974626702E+02 0.  0.
        -13    1    3    3    0    0 -0.11639715488E+02  0.20345277215E+02 -0.31506709643E+02  0.39269403282E+02  0.00000000000E+00 0.  1.
         13    1    3    3    0    0  0.11639715488E+02 -0.20345277215E+02  0.46324832627E+02  0.51917274577E+02  0.00000000000E+00 0. -1.
<mgrwt>
<rscale>  0 0.89974627E+02</rscale>
<asrwt>0</asrwt>
<pdfrwt beam="1">  1        1 0.81542155E-02 0.89974627E+02</pdfrwt>
<pdfrwt beam="2">  1       -1 0.58745042E-02 0.89974627E+02</pdfrwt>
<totfact> 0.98147252E+04</totfact>
</mgrwt>
</event>
<event>
 5    1  0.6085374E+000  0.8991598E+02  0.7546771E-02  0.1303055E+00
          2   -1    0    0  501    0  0.00000000000E+00  0.00000000000E+00  0.44187892025E+02  0.44187892025E+02  0.00000000000E+00 0. -1.
         -2   -1    0    0    0  501 -0.00000000000E+00 -0.00000000000E+00 -0.45741514107E+02  0.45741514107E+02  0.00000000000E+00 0.  1.
         23    2    1    2    0    0  0.00000000000E+00  0.00000000000E+00 -0.15536220817E+01  0.89929406132E+02  0.89915984928E+02 0.  0.
        -13    1    3    3    0    0  0.16386701643E+02  0.13458107416E+02  0.38872219647E+02  0.44279725679E+02  0.00000000000E+00 0. -1.
         13    1    3    3    0    0 -0.16386701643E+02 -0.13458107416E+02 -0.40425841729E+02  0.45649680453E+02  0.00000000000E+00 0.  1.
<mgrwt>
<rscale>  0 0.89915985E+02</rscale>
<asrwt>0</asrwt>
<pdfrwt beam="1">  1        2 0.67981373E-02 0.89915985E+02</pdfrwt>
<pdfrwt beam="2">  1       -2 0.70371560E-02 0.89915985E+02</pdfrwt>
<totfact> 0.10186976E+05</totfact>
</mgrwt>
</event>
<event>
 5    1  0.6085374E+000  0.8925105E+02  0.7546771E-02  0.1304676E+00
         -2   -1    0    0    0  501 -0.00000000000E+00  0.00000000000E+00  0.39252523874E+01  0.39252523874E+01  0.00000000000E+00 0. -1.
          2   -1    0    0  501    0  0.00000000000E+00 -0.00000000000E+00 -0.50733998661E+03  0.50733998661E+03  0.00000000000E+00 0.  1.
         23    2    1    2    0    0  0.00000000000E+00  0.00000000000E+00 -0.50341473422E+03  0.51126523899E+03  0.89251050271E+02 0.  0.
        -13    1    3    3    0    0 -0.23152632093E+02 -0.38126462216E+02 -0.25931988344E+03  0.26312824523E+03  0.00000000000E+00 0.  1.
         13    1    3    3    0    0  0.23152632093E+02  0.38126462216E+02 -0.24409485078E+03  0.24813699376E+03  0.00000000000E+00 0. -1.
<mgrwt>
<rscale>  0 0.89251050E+02</rscale>
<asrwt>0</asrwt>
<pdfrwt beam="2">  1        2 0.78052309E-01 0.89251050E+02</pdfrwt>
<pdfrwt beam="1">  1       -2 0.60388495E-03 0.89251050E+02</pdfrwt>
<totfact> 0.22907908E+05</totfact>
</mgrwt>
</event>
<event>
 5    1  0.6085374E+000  0.8879404E+02  0.7546771E-02  0.1305799E+00
          4   -1    0    0  501    0  0.00000000000E+00  0.00000000000E+00  0.19041940626E+02  0.19041940626E+02  0.00000000000E+00 0.  1.
         -4   -1    0    0    0  501 -0.00000000000E+00 -0.00000000000E+00 -0.10351337253E+03  0.10351337253E+03  0.00000000000E+00 0. -1.
         23    2    1    2    0    0  0.00000000000E+00  0.00000000000E+00 -0.84471431900E+02  0.12255531315E+03  0.88794042450E+02 0.  0.
        -13    1    3    3    0    0 -0.10233786039E+01  0.37086645395E+02 -0.85790315220E+01  0.38079736768E+02  0.00000000000E+00 0.  1.
         13    1    3    3    0    0  0.10233786039E+01 -0.37086645395E+02 -0.75892400378E+02  0.84475576385E+02  0.00000000000E+00 0. -1.
<mgrwt>
<rscale>  0 0.88794042E+02</rscale>
<asrwt>0</asrwt>
<pdfrwt beam="1">  1        4 0.29295293E-02 0.88794042E+02</pdfrwt>
<pdfrwt beam="2">  1       -4 0.15925134E-01 0.88794042E+02</pdfrwt>
<totfact> 0.26984794E+04</totfact>
</mgrwt>
</event>
<event>
 5    1  0.6085374E+000  0.9088451E+02  0.7546771E-02  0.1300724E+00
         -1   -1    0    0    0  501 -0.00000000000E+00  0.00000000000E+00  0.57943003240E+01  0.57943003240E+01  0.00000000000E+00 0.  1.
          1   -1    0    0  501    0  0.00000000000E+00 -0.00000000000E+00 -0.35638441667E+03  0.35638441667E+03  0.00000000000E+00 0. -1.
         23    2    1    2    0    0  0.00000000000E+00  0.00000000000E+00 -0.35059011634E+03  0.36217871699E+03  0.90884505631E+02 0.  0.
        -13    1    3    3    0    0  0.29245931807E+02  0.34088986461E+02 -0.14779686675E+03  0.15447102430E+03  0.00000000000E+00 0.  1.
         13    1    3    3    0    0 -0.29245931807E+02 -0.34088986461E+02 -0.20279324959E+03  0.20770769269E+03  0.00000000000E+00 0. -1.
<mgrwt>
<rscale>  0 0.90884506E+02</rscale>
<asrwt>0</asrwt>
<pdfrwt beam="2">  1        1 0.54828367E-01 0.90884506E+02</pdfrwt>
<pdfrwt beam="1">  1       -1 0.89143090E-03 0.90884506E+02</pdfrwt>
<totfact> 0.13339034E+05</totfact>
</mgrwt>
</event>
<event>
 5    1  0.6085374E+000  0.9179247E+02  0.7546771E-02  0.1298568E+00
         -2   -1    0    0    0  501 -0.00000000000E+00  0.00000000000E+00  0.11846196947E+03  0.11846196947E+03  0.00000000000E+00 0.  1.
          2   -1    0    0  501    0  0.00000000000E+00 -0.00000000000E+00 -0.17781777623E+02  0.17781777623E+02  0.00000000000E+00 0. -1.
         23    2    1    2    0    0  0.00000000000E+00  0.00000000000E+00  0.10068019185E+03  0.13624374709E+03  0.91792470234E+02 0.  0.
        -13    1    3    3    0    0  0.42461828715E+02 -0.15114596633E+02  0.63194705235E+02  0.77621058347E+02  0.00000000000E+00 0.  1.
         13    1    3    3    0    0 -0.42461828715E+02  0.15114596633E+02  0.37485486611E+02  0.58622688745E+02  0.00000000000E+00 0. -1.
<mgrwt>
<rscale>  0 0.91792470E+02</rscale>
<asrwt>0</asrwt>
<pdfrwt beam="2">  1        2 0.27356582E-02 0.91792470E+02</pdfrwt>
<pdfrwt beam="1">  1       -2 0.18224918E-01 0.91792470E+02</pdfrwt>
<totfact> 0.74462261E+04</totfact>
</mgrwt>
</event>
<event>
 5    1  0.6085374E+000  0.9074639E+02  0.7546771E-02  0.1301054E+00
         -2   -1    0    0    0  501 -0.00000000000E+00  0.00000000000E+00  0.68938656369E+02  0.68938656369E+02  0.00000000000E+00 0.  1.
          2   -1    0    0  501    0  0.00000000000E+00 -0.00000000000E+00 -0.29863169197E+02  0.29863169197E+02  0.00000000000E+00 0. -1.
         23    2    1    2    0    0  0.00000000000E+00  0.00000000000E+00  0.39075487173E+02  0.98801825566E+02  0.90746388564E+02 0.  0.
        -13    1    3    3    0    0  0.44193978221E+02 -0.10624936653E+01  0.84083037351E+01  0.44999290833E+02  0.00000000000E+00 0.  1.
         13    1    3    3    0    0 -0.44193978221E+02  0.10624936653E+01  0.30667183438E+02  0.53802534733E+02  0.00000000000E+00 0. -1.
<mgrwt>
<rscale>  0 0.90746389E+02</rscale>
<asrwt>0</asrwt>
<pdfrwt beam="2">  1        2 0.45943338E-02 0.90746389E+02</pdfrwt>
<pdfrwt beam="1">  1       -2 0.10605947E-01 0.90746389E+02</pdfrwt>
<totfact> 0.89607111E+04</totfact>
</mgrwt>
</event>
<event>
 5    1  0.6085374E+000  0.7144503E+02  0.7546771E-02  0.1355247E+00
          1   -1    0    0  501    0  0.00000000000E+00  0.00000000000E+00  0.12537223395E+03  0.12537223395E+03  0.00000000000E+00 0. -1.
         -1   -1    0    0    0  501 -0.00000000000E+00 -0.00000000000E+00 -0.10178474068E+02  0.10178474068E+02  0.00000000000E+00 0.  1.
         23    2    1    2    0    0  0.00000000000E+00  0.00000000000E+00  0.11519375988E+03  0.13555070801E+03  0.71445028715E+02 0.  0.
        -13    1    3    3    0    0  0.17349236689E+02 -0.20765037538E+02  0.13348702530E+02  0.30172349211E+02  0.00000000000E+00 0.  1.
         13    1    3    3    0    0 -0.17349236689E+02  0.20765037538E+02  0.10184505735E+03  0.10537835880E+03  0.00000000000E+00 0. -1.
<mgrwt>
<rscale>  0 0.71445029E+02</rscale>
<asrwt>0</asrwt>
<pdfrwt beam="1">  1        1 0.19288035E-01 0.71445029E+02</pdfrwt>
<pdfrwt beam="2">  1       -1 0.15659192E-02 0.71445029E+02</pdfrwt>
<totfact> 0.20810618E+05</totfact>
</mgrwt>
</event>
<event>
 4    1  0.6085374E+000  0.4583830E+02  0.7546771E-02  0.1469175E+00
          3   -1    0    0  501    0  0.00000000000E+00  0.00000000000E+00  0.53229837245E+01  0.53229837245E+01  0.00000000000E+00 0. -1.
         -3   -1    0    0    0  501 -0.00000000000E+00 -0.00000000000E+00 -0.98682881825E+02  0.98682881825E+02  0.00000000000E+00 0.  1.
        -13    1    1    2    0    0 -0.12396117937E+02 -0.14640753283E+02 -0.18225182336E+02  0.26460776024E+02  0.00000000000E+00 0. -1.
         13    1    1    2    0    0  0.12396117937E+02  0.14640753283E+02 -0.75134715764E+02  0.77545089526E+02  0.00000000000E+00 0.  1.
<mgrwt>
<rscale>  0 0.45838297E+02</rscale>
<asrwt>0</asrwt>
<pdfrwt beam="1">  1        3 0.81892057E-03 0.45838297E+02</pdfrwt>
<pdfrwt beam="2">  1       -3 0.15181982E-01 0.45838297E+02</pdfrwt>
<totfact> 0.20544892E+05</totfact>
</mgrwt>
</event>
<event>
 5    1  0.6085374E+000  0.8708456E+02  0.7546771E-02  0.1310069E+00
          1   -1    0    0  501    0  0.00000000000E+00  0.00000000000E+00  0.22188688324E+02  0.22188688324E+02  0.00000000000E+00 0. -1.
         -1   -1    0    0    0  501 -0.00000000000E+00 -0.00000000000E+00 -0.85445793897E+02  0.85445793897E+02  0.00000000000E+00 0.  1.
         23    2    1    2    0    0  0.00000000000E+00  0.00000000000E+00 -0.63257105573E+02  0.10763448222E+03  0.87084558662E+02 0.  0.
        -13    1    3    3    0    0  0.21591131278E+02 -0.22447550783E+02  0.59796927036E+01  0.31714763295E+02  0.00000000000E+00 0. -1.
         13    1    3    3    0    0 -0.21591131278E+02  0.22447550783E+02 -0.69236798276E+02  0.75919718925E+02  0.00000000000E+00 0.  1.
<mgrwt>
<rscale>  0 0.87084559E+02</rscale>
<asrwt>0</asrwt>
<pdfrwt beam="1">  1        1 0.34136444E-02 0.87084559E+02</pdfrwt>
<pdfrwt beam="2">  1       -1 0.13145507E-01 0.87084559E+02</pdfrwt>
<totfact> 0.94146679E+04</totfact>
</mgrwt>
</event>
<event>
 5    1  0.6085374E+000  0.8902864E+02  0.7546771E-02  0.1305221E+00
          2   -1    0    0  501    0  0.00000000000E+00  0.00000000000E+00  0.10669191588E+03  0.10669191588E+03  0.00000000000E+00 0. -1.
         -2   -1    0    0    0  501 -0.00000000000E+00 -0.00000000000E+00 -0.18572397169E+02  0.18572397169E+02  0.00000000000E+00 0.  1.
         23    2    1    2    0    0  0.00000000000E+00  0.00000000000E+00  0.88119518709E+02  0.12526431305E+03  0.89028638906E+02 0.  0.
        -13    1    3    3    0    0 -0.17050837059E+02  0.41085410082E+02  0.41712676043E+02  0.60981056966E+02  0.00000000000E+00 0.  1.
         13    1    3    3    0    0  0.17050837059E+02 -0.41085410082E+02  0.46406842667E+02  0.64283256081E+02  0.00000000000E+00 0. -1.
<mgrwt>
<rscale>  0 0.89028639E+02</rscale>
<asrwt>0</asrwt>
<pdfrwt beam="1">  1        2 0.16414140E-01 0.89028639E+02</pdfrwt>
<pdfrwt beam="2">  1       -2 0.28572919E-02 0.89028639E+02</pdfrwt>
<totfact> 0.13358801E+05</totfact>
</mgrwt>
</event>
<event>
 5    1  0.6085374E+000  0.9067873E+02  0.7546771E-02  0.1301216E+00
          2   -1    0    0  501    0  0.00000000000E+00  0.00000000000E+00  0.39779789068E+02  0.39779789068E+02  0.00000000000E+00 0. -1.
         -2   -1    0    0    0  501 -0.00000000000E+00 -0.00000000000E+00 -0.51675944206E+02  0.51675944206E+02  0.00000000000E+00 0.  1.
         23    2    1    2    0    0  0.00000000000E+00  0.00000000000E+00 -0.11896155138E+02  0.91455733274E+02  0.90678733127E+02 0.  0.
        -13    1    3    3    0    0  0.15837883936E+02  0.35427655025E+02  0.17698522013E+02  0.42652022105E+02  0.00000000000E+00 0. -1.
         13    1    3    3    0    0 -0.15837883936E+02 -0.35427655025E+02 -0.29594677151E+02  0.48803711169E+02  0.00000000000E+00 0.  1.
<mgrwt>
<rscale>  0 0.90678733E+02</rscale>
<asrwt>0</asrwt>
<pdfrwt beam="1">  1        2 0.61199675E-02 0.90678733E+02</pdfrwt>
<pdfrwt beam="2">  1       -2 0.79501453E-02 0.90678733E+02</pdfrwt>
<totfact> 0.96774828E+04</totfact>
</mgrwt>
</event>
<event>
 5    1  0.6085374E+000  0.9122866E+02  0.7546771E-02  0.1299903E+00
          1   -1    0    0  501    0  0.00000000000E+00  0.00000000000E+00  0.42326349278E+02  0.42326349278E+02  0.00000000000E+00 0. -1.
         -1   -1    0    0    0  501 -0.00000000000E+00 -0.00000000000E+00 -0.49157729364E+02  0.49157729364E+02  0.00000000000E+00 0.  1.
         23    2    1    2    0    0  0.00000000000E+00  0.00000000000E+00 -0.68313800865E+01  0.91484078642E+02  0.91228662662E+02 0.  0.
        -13    1    3    3    0    0  0.23806763991E+02 -0.35372060616E+02  0.12838408040E+02  0.44528298923E+02  0.00000000000E+00 0.  1.
         13    1    3    3    0    0 -0.23806763991E+02  0.35372060616E+02 -0.19669788127E+02  0.46955779718E+02  0.00000000000E+00 0. -1.
<mgrwt>
<rscale>  0 0.91228663E+02</rscale>
<asrwt>0</asrwt>
<pdfrwt beam="1">  1        1 0.65117461E-02 0.91228663E+02</pdfrwt>
<pdfrwt beam="2">  1       -1 0.75627276E-02 0.91228663E+02</pdfrwt>
<totfact> 0.91297131E+04</totfact>
</mgrwt>
</event>
<event>
 5    1  0.6085374E+000  0.9317112E+02  0.7546771E-02  0.1295349E+00
         -1   -1    0    0    0  501 -0.00000000000E+00  0.00000000000E+00  0.59934047875E+02  0.59934047875E+02  0.00000000000E+00 0.  1.
          1   -1    0    0  501    0  0.00000000000E+00 -0.00000000000E+00 -0.36210041503E+02  0.36210041503E+02  0.00000000000E+00 0. -1.
         23    2    1    2    0    0  0.00000000000E+00  0.00000000000E+00  0.23724006372E+02  0.96144089378E+02  0.93171119152E+02 0.  0.
        -13    1    3    3    0    0  0.30085881380E+01  0.39139655367E+02 -0.14023281000E+02  0.41684729037E+02  0.00000000000E+00 0.  1.
         13    1    3    3    0    0 -0.30085881380E+01 -0.39139655367E+02  0.37747287372E+02  0.54459360341E+02  0.00000000000E+00 0. -1.
<mgrwt>
<rscale>  0 0.93171119E+02</rscale>
<asrwt>0</asrwt>
<pdfrwt beam="2">  1        1 0.55707756E-02 0.93171119E+02</pdfrwt>
<pdfrwt beam="1">  1       -1 0.92206227E-02 0.93171119E+02</pdfrwt>
<totfact> 0.83956472E+04</totfact>
</mgrwt>
</event>
<event>
 5    1  0.6085374E+000  0.8967960E+02  0.7546771E-02  0.1303629E+00
          1   -1    0    0  501    0  0.00000000000E+00  0.00000000000E+00  0.11204020204E+02  0.11204020204E+02  0.00000000000E+00 0. -1.
         -1   -1    0    0    0  501 -0.00000000000E+00 -0.00000000000E+00 -0.17945413706E+03  0.17945413706E+03  0.00000000000E+00 0.  1.
         23    2    1    2    0    0  0.00000000000E+00  0.00000000000E+00 -0.16825011686E+03  0.19065815727E+03  0.89679602527E+02 0.  0.
        -13    1    3    3    0    0  0.44184854874E+02  0.21049828972E+01 -0.68520299373E+02  0.81558345860E+02  0.00000000000E+00 0.  1.
         13    1    3    3    0    0 -0.44184854874E+02 -0.21049828972E+01 -0.99729817486E+02  0.10909981141E+03  0.00000000000E+00 0. -1.
<mgrwt>
<rscale>  0 0.89679603E+02</rscale>
<asrwt>0</asrwt>
<pdfrwt beam="1">  1        1 0.17236954E-02 0.89679603E+02</pdfrwt>
<pdfrwt beam="2">  1       -1 0.27608329E-01 0.89679603E+02</pdfrwt>
<totfact> 0.74671974E+04</totfact>
</mgrwt>
</event>
<event>
 5    1  0.6085374E+000  0.9251396E+02  0.7546771E-02  0.1296875E+00
          1   -1    0    0  501    0  0.00000000000E+00  0.00000000000E+00  0.18580559317E+03  0.18580559317E+03  0.00000000000E+00 0. -1.
         -1   -1    0    0    0  501 -0.00000000000E+00 -0.00000000000E+00 -0.11515843666E+02  0.11515843666E+02  0.00000000000E+00 0.  1.
         23    2    1    2    0    0  0.00000000000E+00  0.00000000000E+00  0.17428974950E+03  0.19732143684E+03  0.92513959234E+02 0.  0.
        -13    1    3    3    0    0 -0.13636844342E+02 -0.44189187510E+02  0.84948578207E+02  0.96720777271E+02  0.00000000000E+00 0. -1.
         13    1    3    3    0    0  0.13636844342E+02  0.44189187510E+02  0.89341171295E+02  0.10060065956E+03  0.00000000000E+00 0.  1.
<mgrwt>
<rscale>  0 0.92513959E+02</rscale>
<asrwt>0</asrwt>
<pdfrwt beam="1">  1        1 0.28585474E-01 0.92513959E+02</pdfrwt>
<pdfrwt beam="2">  1       -1 0.17716684E-02 0.92513959E+02</pdfrwt>
<totfact> 0.11225156E+05</totfact>
</mgrwt>
</event>
<event>
 5    1  0.6085374E+000  0.9288515E+02  0.7546771E-02  0.1296012E+00
          2   -1    0    0  501    0  0.00000000000E+00  0.00000000000E+00  0.10604741960E+03  0.10604741960E+03  0.00000000000E+00 0. -1.
         -2   -1    0    0    0  501 -0.00000000000E+00 -0.00000000000E+00 -0.20339134356E+02  0.20339134356E+02  0.00000000000E+00 0.  1.
         23    2    1    2    0    0  0.00000000000E+00  0.00000000000E+00  0.85708285245E+02  0.12638655396E+03  0.92885148767E+02 0.  0.
        -13    1    3    3    0    0 -0.35231841993E+02  0.13812089319E+02  0.62204645460E+01  0.38350367414E+02  0.00000000000E+00 0.  1.
         13    1    3    3    0    0  0.35231841993E+02 -0.13812089319E+02  0.79487820698E+02  0.88036186543E+02  0.00000000000E+00 0. -1.
<mgrwt>
<rscale>  0 0.92885149E+02</rscale>
<asrwt>0</asrwt>
<pdfrwt beam="1">  1        2 0.16314987E-01 0.92885149E+02</pdfrwt>
<pdfrwt beam="2">  1       -2 0.31290977E-02 0.92885149E+02</pdfrwt>
<totfact> 0.11868523E+05</totfact>
</mgrwt>
</event>
<event>
 5    1  0.6085374E+000  0.9209453E+02  0.7546771E-02  0.1297857E+00
         -1   -1    0    0    0  501 -0.00000000000E+00  0.00000000000E+00  0.34264368933E+02  0.34264368933E+02  0.00000000000E+00 0.  1.
          1   -1    0    0  501    0  0.00000000000E+00 -0.00000000000E+00 -0.61882091354E+02  0.61882091354E+02  0.00000000000E+00 0. -1.
         23    2    1    2    0    0  0.00000000000E+00  0.00000000000E+00 -0.27617722421E+02  0.96146460286E+02  0.92094534223E+02 0.  0.
        -13    1    3    3    0    0 -0.27445961088E+02  0.36973869220E+02 -0.13866265329E+02  0.48089719268E+02  0.00000000000E+00 0.  1.
         13    1    3    3    0    0  0.27445961088E+02 -0.36973869220E+02 -0.13751457092E+02  0.48056741018E+02  0.00000000000E+00 0. -1.
<mgrwt>
<rscale>  0 0.92094534E+02</rscale>
<asrwt>0</asrwt>
<pdfrwt beam="2">  1        1 0.95203217E-02 0.92094534E+02</pdfrwt>
<pdfrwt beam="1">  1       -1 0.52714414E-02 0.92094534E+02</pdfrwt>
<totfact> 0.94169504E+04</totfact>
</mgrwt>
</event>
<event>
 5    1  0.6085374E+000  0.9153640E+02  0.7546771E-02  0.1299173E+00
          2   -1    0    0  501    0  0.00000000000E+00  0.00000000000E+00  0.23527664424E+03  0.23527664424E+03  0.00000000000E+00 0. -1.
         -2   -1    0    0    0  501 -0.00000000000E+00 -0.00000000000E+00 -0.89032554676E+01  0.89032554676E+01  0.00000000000E+00 0.  1.
         23    2    1    2    0    0  0.00000000000E+00  0.00000000000E+00  0.22637338877E+03  0.24417989971E+03  0.91536398646E+02 0.  0.
        -13    1    3    3    0    0 -0.24144988788E+02 -0.24471411293E+02  0.32588163556E+02  0.47368965138E+02  0.00000000000E+00 0.  1.
         13    1    3    3    0    0  0.24144988788E+02  0.24471411293E+02  0.19378522522E+03  0.19681093457E+03  0.00000000000E+00 0. -1.
<mgrwt>
<rscale>  0 0.91536399E+02</rscale>
<asrwt>0</asrwt>
<pdfrwt beam="1">  1        2 0.36196402E-01 0.91536399E+02</pdfrwt>
<pdfrwt beam="2">  1       -2 0.13697318E-02 0.91536399E+02</pdfrwt>
<totfact> 0.16241443E+05</totfact>
</mgrwt>
</event>
<event>
 5    1  0.6085374E+000  0.9115576E+02  0.7546771E-02  0.1300077E+00
         -2   -1    0    0    0  501 -0.00000000000E+00  0.00000000000E+00  0.38556887778E+02  0.38556887778E+02  0.00000000000E+00 0.  1.
          2   -1    0    0  501    0  0.00000000000E+00 -0.00000000000E+00 -0.53877359117E+02  0.53877359117E+02  0.00000000000E+00 0. -1.
         23    2    1    2    0    0  0.00000000000E+00  0.00000000000E+00 -0.15320471339E+02  0.92434246896E+02  0.91155763159E+02 0.  0.
        -13    1    3    3    0    0  0.90512417577E+01 -0.19477813405E+02 -0.48423964260E+02  0.52973488718E+02  0.00000000000E+00 0. -1.
         13    1    3    3    0    0 -0.90512417577E+01  0.19477813405E+02  0.33103492920E+02  0.39460758177E+02  0.00000000000E+00 0.  1.
<mgrwt>
<rscale>  0 0.91155763E+02</rscale>
<asrwt>0</asrwt>
<pdfrwt beam="2">  1        2 0.82888245E-02 0.91155763E+02</pdfrwt>
<pdfrwt beam="1">  1       -2 0.59318289E-02 0.91155763E+02</pdfrwt>
<totfact> 0.10314578E+05</totfact>
</mgrwt>
</event>
<event>
 5    1  0.6085374E+000  0.9146856E+02  0.7546771E-02  0.1299334E+00
          1   -1    0    0  501    0  0.00000000000E+00  0.00000000000E+00  0.28672160231E+03  0.28672160231E+03  0.00000000000E+00 0. -1.
         -1   -1    0    0    0  501 -0.00000000000E+00 -0.00000000000E+00 -0.72949662117E+01  0.72949662117E+01  0.00000000000E+00 0.  1.
         23    2    1    2    0    0  0.00000000000E+00  0.00000000000E+00  0.27942663610E+03  0.29401656852E+03  0.91468560741E+02 0.  0.
        -13    1    3    3    0    0 -0.36500594221E+02  0.27355262485E+02  0.15038427348E+03  0.15714971675E+03  0.00000000000E+00 0.  1.
         13    1    3    3    0    0  0.36500594221E+02 -0.27355262485E+02  0.12904236262E+03  0.13686685177E+03  0.00000000000E+00 0. -1.
<mgrwt>
<rscale>  0 0.91468561E+02</rscale>
<asrwt>0</asrwt>
<pdfrwt beam="1">  1        1 0.44111007E-01 0.91468561E+02</pdfrwt>
<pdfrwt beam="2">  1       -1 0.11223027E-02 0.91468561E+02</pdfrwt>
<totfact> 0.12593625E+05</totfact>
</mgrwt>
</event>
<event>
 5    1  0.6085374E+000  0.9083423E+02  0.7546771E-02  0.1300844E+00
         -1   -1    0    0    0  501 -0.00000000000E+00  0.00000000000E+00  0.43726493630E+02  0.43726493630E+02  0.00000000000E+00 0.  1.
          1   -1    0    0  501    0  0.00000000000E+00 -0.00000000000E+00 -0.47173101409E+02  0.47173101409E+02  0.00000000000E+00 0. -1.
         23    2    1    2    0    0  0.00000000000E+00  0.00000000000E+00 -0.34466077793E+01  0.90899595038E+02  0.90834229633E+02 0.  0.
        -13    1    3    3    0    0  0.20467316505E+02  0.15288006152E+02 -0.39301359890E+02  0.46874631371E+02  0.00000000000E+00 0. -1.
         13    1    3    3    0    0 -0.20467316505E+02 -0.15288006152E+02  0.35854752110E+02  0.44024963667E+02  0.00000000000E+00 0.  1.
<mgrwt>
<rscale>  0 0.90834230E+02</rscale>
<asrwt>0</asrwt>
<pdfrwt beam="2">  1        1 0.72574002E-02 0.90834230E+02</pdfrwt>
<pdfrwt beam="1">  1       -1 0.67271529E-02 0.90834230E+02</pdfrwt>
<totfact> 0.93933706E+04</totfact>
</mgrwt>
</event>
<event>
 5    1  0.6085374E+000  0.8528650E+02  0.7546771E-02  0.1314685E+00
          2   -1    0    0  501    0  0.00000000000E+00  0.00000000000E+00  0.80097083544E+02  0.80097083544E+02  0.00000000000E+00 0. -1.
         -2   -1    0    0    0  501 -0.00000000000E+00 -0.00000000000E+00 -0.22703031174E+02  0.22703031174E+02  0.00000000000E+00 0.  1.
         23    2    1    2    0    0  0.00000000000E+00  0.00000000000E+00  0.57394052370E+02  0.10280011472E+03  0.85286495640E+02 0.  0.
        -13    1    3    3    0    0  0.10764499515E+02 -0.31578317227E+02 -0.33159108794E+01  0.33527001561E+02  0.00000000000E+00 0.  1.
         13    1    3    3    0    0 -0.10764499515E+02  0.31578317227E+02  0.60709963250E+02  0.69273113157E+02  0.00000000000E+00 0. -1.
<mgrwt>
<rscale>  0 0.85286496E+02</rscale>
<asrwt>0</asrwt>
<pdfrwt beam="1">  1        2 0.12322628E-01 0.85286496E+02</pdfrwt>
<pdfrwt beam="2">  1       -2 0.34927741E-02 0.85286496E+02</pdfrwt>
<totfact> 0.13817352E+05</totfact>
</mgrwt>
</event>
<event>
 5    1  0.6085374E+000  0.7721123E+02  0.7546771E-02  0.1337157E+00
         -2   -1    0    0    0  501 -0.00000000000E+00  0.00000000000E+00  0.17164910059E+03  0.17164910059E+03  0.00000000000E+00 0.  1.
          2   -1    0    0  501    0  0.00000000000E+00 -0.00000000000E+00 -0.86827933342E+01  0.86827933342E+01  0.00000000000E+00 0. -1.
         23    2    1    2    0    0  0.00000000000E+00  0.00000000000E+00  0.16296630725E+03  0.18033189392E+03  0.77211234063E+02 0.  0.
        -13    1    3    3    0    0 -0.21852173340E+02  0.27704178590E+02  0.11806698774E+03  0.12322683387E+03  0.00000000000E+00 0.  1.
         13    1    3    3    0    0  0.21852173340E+02 -0.27704178590E+02  0.44899319512E+02  0.57105060053E+02  0.00000000000E+00 0. -1.
<mgrwt>
<rscale>  0 0.77211234E+02</rscale>
<asrwt>0</asrwt>
<pdfrwt beam="2">  1        2 0.13358145E-02 0.77211234E+02</pdfrwt>
<pdfrwt beam="1">  1       -2 0.26407551E-01 0.77211234E+02</pdfrwt>
<totfact> 0.10119425E+05</totfact>
</mgrwt>
</event>
<event>
 5    1  0.6085374E+000  0.8960590E+02  0.7546771E-02  0.1303809E+00
         -3   -1    0    0    0  501 -0.00000000000E+00  0.00000000000E+00  0.75228593436E+02  0.75228593436E+02  0.00000000000E+00 0.  1.
          3   -1    0    0  501    0  0.00000000000E+00 -0.00000000000E+00 -0.26682729941E+02  0.26682729941E+02  0.00000000000E+00 0. -1.
         23    2    1    2    0    0  0.00000000000E+00  0.00000000000E+00  0.48545863495E+02  0.10191132338E+03  0.89605898076E+02 0.  0.
        -13    1    3    3    0    0  0.13350491439E+02 -0.15377834645E+02 -0.21114744529E+02  0.29335061898E+02  0.00000000000E+00 0. -1.
         13    1    3    3    0    0 -0.13350491439E+02  0.15377834645E+02  0.69660608024E+02  0.72576261479E+02  0.00000000000E+00 0.  1.
<mgrwt>
<rscale>  0 0.89605898E+02</rscale>
<asrwt>0</asrwt>
<pdfrwt beam="2">  1        3 0.41050354E-02 0.89605898E+02</pdfrwt>
<pdfrwt beam="1">  1       -3 0.11573630E-01 0.89605898E+02</pdfrwt>
<totfact> 0.36199626E+04</totfact>
</mgrwt>
</event>
<event>
 5    1  0.6085374E+000  0.8039797E+02  0.7546771E-02  0.1327926E+00
          1   -1    0    0  501    0  0.00000000000E+00  0.00000000000E+00  0.99955446677E+02  0.99955446677E+02  0.00000000000E+00 0. -1.
         -1   -1    0    0    0  501 -0.00000000000E+00 -0.00000000000E+00 -0.16166785900E+02  0.16166785900E+02  0.00000000000E+00 0.  1.
         23    2    1    2    0    0  0.00000000000E+00  0.00000000000E+00  0.83788660777E+02  0.11612223258E+03  0.80397967784E+02 0.  0.
        -13    1    3    3    0    0  0.35001463929E+02 -0.18040333774E+02  0.30213695785E+02  0.49632887613E+02  0.00000000000E+00 0.  1.
         13    1    3    3    0    0 -0.35001463929E+02  0.18040333774E+02  0.53574964991E+02  0.66489344963E+02  0.00000000000E+00 0. -1.
<mgrwt>
<rscale>  0 0.80397968E+02</rscale>
<asrwt>0</asrwt>
<pdfrwt beam="1">  1        1 0.15377761E-01 0.80397968E+02</pdfrwt>
<pdfrwt beam="2">  1       -1 0.24871979E-02 0.80397968E+02</pdfrwt>
<totfact> 0.14673761E+05</totfact>
</mgrwt>
</event>
<event>
 5    1  0.6085374E+000  0.9637685E+02  0.7546771E-02  0.1288105E+00
          1   -1    0    0  501    0  0.00000000000E+00  0.00000000000E+00  0.14626704055E+03  0.14626704055E+03  0.00000000000E+00 0. -1.
         -1   -1    0    0    0  501 -0.00000000000E+00 -0.00000000000E+00 -0.15875922177E+02  0.15875922177E+02  0.00000000000E+00 0.  1.
         23    2    1    2    0    0  0.00000000000E+00  0.00000000000E+00  0.13039111837E+03  0.16214296272E+03  0.96376846862E+02 0.  0.
        -13    1    3    3    0    0  0.58616672640E+01  0.45013213820E+02  0.37985843827E+02  0.59190141855E+02  0.00000000000E+00 0.  1.
         13    1    3    3    0    0 -0.58616672640E+01 -0.45013213820E+02  0.92405274544E+02  0.10295282087E+03  0.00000000000E+00 0. -1.
<mgrwt>
<rscale>  0 0.96376847E+02</rscale>
<asrwt>0</asrwt>
<pdfrwt beam="1">  1        1 0.22502621E-01 0.96376847E+02</pdfrwt>
<pdfrwt beam="2">  1       -1 0.24424497E-02 0.96376847E+02</pdfrwt>
<totfact> 0.96038107E+04</totfact>
</mgrwt>
</event>
<event>
 5    1  0.6085374E+000  0.9192413E+02  0.7546771E-02  0.1298258E+00
         -4   -1    0    0    0  501 -0.00000000000E+00  0.00000000000E+00  0.36419150274E+02  0.36419150274E+02  0.00000000000E+00 0.  1.
          4   -1    0    0  501    0  0.00000000000E+00 -0.00000000000E+00 -0.58005505628E+02  0.58005505628E+02  0.00000000000E+00 0. -1.
         23    2    1    2    0    0  0.00000000000E+00  0.00000000000E+00 -0.21586355354E+02  0.94424655902E+02  0.91924125803E+02 0.  0.
        -13    1    3    3    0    0  0.32766646692E+02  0.89758756351E+01  0.21005186325E+02  0.39942925924E+02  0.00000000000E+00 0.  1.
         13    1    3    3    0    0 -0.32766646692E+02 -0.89758756351E+01 -0.42591541678E+02  0.54481729978E+02  0.00000000000E+00 0. -1.
<mgrwt>
<rscale>  0 0.91924126E+02</rscale>
<asrwt>0</asrwt>
<pdfrwt beam="2">  1        4 0.89239239E-02 0.91924126E+02</pdfrwt>
<pdfrwt beam="1">  1       -4 0.56029462E-02 0.91924126E+02</pdfrwt>
<totfact> 0.26220086E+04</totfact>
</mgrwt>
</event>
<event>
 5    1  0.6085374E+000  0.9668226E+02  0.7546771E-02  0.1287432E+00
          4   -1    0    0  501    0  0.00000000000E+00  0.00000000000E+00  0.28694751058E+02  0.28694751058E+02  0.00000000000E+00 0. -1.
         -4   -1    0    0    0  501 -0.00000000000E+00 -0.00000000000E+00 -0.81438754293E+02  0.81438754293E+02  0.00000000000E+00 0.  1.
         23    2    1    2    0    0  0.00000000000E+00  0.00000000000E+00 -0.52744003235E+02  0.11013350535E+03  0.96682258577E+02 0.  0.
        -13    1    3    3    0    0  0.33180880104E+02 -0.34088500033E+02 -0.16581582983E+02  0.50378026293E+02  0.00000000000E+00 0.  1.
         13    1    3    3    0    0 -0.33180880104E+02  0.34088500033E+02 -0.36162420252E+02  0.59755479058E+02  0.00000000000E+00 0. -1.
<mgrwt>
<rscale>  0 0.96682259E+02</rscale>
<asrwt>0</asrwt>
<pdfrwt beam="1">  1        4 0.44145773E-02 0.96682259E+02</pdfrwt>
<pdfrwt beam="2">  1       -4 0.12529039E-01 0.96682259E+02</pdfrwt>
<totfact> 0.22034014E+04</totfact>
</mgrwt>
</event>
<event>
 5    1  0.6085374E+000  0.9132578E+02  0.7546771E-02  0.1299673E+00
          2   -1    0    0  501    0  0.00000000000E+00  0.00000000000E+00  0.69528586026E+02  0.69528586026E+02  0.00000000000E+00 0. -1.
         -2   -1    0    0    0  501 -0.00000000000E+00 -0.00000000000E+00 -0.29989094402E+02  0.29989094402E+02  0.00000000000E+00 0.  1.
         23    2    1    2    0    0  0.00000000000E+00  0.00000000000E+00  0.39539491624E+02  0.99517680428E+02  0.91325775769E+02 0.  0.
        -13    1    3    3    0    0  0.10531030139E+02 -0.39771229516E+02 -0.18174807106E+01  0.41181992777E+02  0.00000000000E+00 0.  1.
         13    1    3    3    0    0 -0.10531030139E+02  0.39771229516E+02  0.41356972335E+02  0.58335687651E+02  0.00000000000E+00 0. -1.
<mgrwt>
<rscale>  0 0.91325776E+02</rscale>
<asrwt>0</asrwt>
<pdfrwt beam="1">  1        2 0.10696706E-01 0.91325776E+02</pdfrwt>
<pdfrwt beam="2">  1       -2 0.46137068E-02 0.91325776E+02</pdfrwt>
<totfact> 0.10990902E+05</totfact>
</mgrwt>
</event>
<event>
 5    1  0.6085374E+000  0.9054228E+02  0.7546771E-02  0.1301544E+00
         -1   -1    0    0    0  501 -0.00000000000E+00  0.00000000000E+00  0.32780393036E+02  0.32780393036E+02  0.00000000000E+00 0.  1.
          1   -1    0    0  501    0  0.00000000000E+00 -0.00000000000E+00 -0.62521396513E+02  0.62521396513E+02  0.00000000000E+00 0. -1.
         23    2    1    2    0    0  0.00000000000E+00  0.00000000000E+00 -0.29741003478E+02  0.95301789549E+02  0.90542276332E+02 0.  0.
        -13    1    3    3    0    0  0.29166045629E+02 -0.24850355025E+02 -0.40247569316E+02  0.55570362590E+02  0.00000000000E+00 0. -1.
         13    1    3    3    0    0 -0.29166045629E+02  0.24850355025E+02  0.10506565839E+02  0.39731426959E+02  0.00000000000E+00 0.  1.
<mgrwt>
<rscale>  0 0.90542276E+02</rscale>
<asrwt>0</asrwt>
<pdfrwt beam="2">  1        1 0.96186763E-02 0.90542276E+02</pdfrwt>
<pdfrwt beam="1">  1       -1 0.50431374E-02 0.90542276E+02</pdfrwt>
<totfact> 0.98866643E+04</totfact>
</mgrwt>
</event>
<event>
 5    1  0.6085374E+000  0.9073879E+02  0.7546771E-02  0.1301072E+00
          1   -1    0    0  501    0  0.00000000000E+00  0.00000000000E+00  0.81099713710E+01  0.81099713710E+01  0.00000000000E+00 0. -1.
         -1   -1    0    0    0  501 -0.00000000000E+00 -0.00000000000E+00 -0.25380878286E+03  0.25380878286E+03  0.00000000000E+00 0.  1.
         23    2    1    2    0    0  0.00000000000E+00  0.00000000000E+00 -0.24569881149E+03  0.26191875423E+03  0.90738789119E+02 0.  0.
        -13    1    3    3    0    0 -0.16135091046E+02 -0.34616191982E+02 -0.19354012245E+03  0.19727240281E+03  0.00000000000E+00 0.  1.
         13    1    3    3    0    0  0.16135091046E+02  0.34616191982E+02 -0.52158689036E+02  0.64646351423E+02  0.00000000000E+00 0. -1.
<mgrwt>
<rscale>  0 0.90738789E+02</rscale>
<asrwt>0</asrwt>
<pdfrwt beam="1">  1        1 0.12476878E-02 0.90738789E+02</pdfrwt>
<pdfrwt beam="2">  1       -1 0.39047509E-01 0.90738789E+02</pdfrwt>
<totfact> 0.65247193E+04</totfact>
</mgrwt>
</event>
<event>
 5    1  0.6085374E+000  0.9115997E+02  0.7546771E-02  0.1300067E+00
         -2   -1    0    0    0  501 -0.00000000000E+00  0.00000000000E+00  0.59458971077E+02  0.59458971077E+02  0.00000000000E+00 0.  1.
          2   -1    0    0  501    0  0.00000000000E+00 -0.00000000000E+00 -0.34940649831E+02  0.34940649831E+02  0.00000000000E+00 0. -1.
         23    2    1    2    0    0  0.00000000000E+00  0.00000000000E+00  0.24518321246E+02  0.94399620909E+02  0.91159971210E+02 0.  0.
        -13    1    3    3    0    0 -0.37333009894E+02 -0.26148469442E+02  0.12054642887E+02  0.47146691263E+02  0.00000000000E+00 0.  1.
         13    1    3    3    0    0  0.37333009894E+02  0.26148469442E+02  0.12463678359E+02  0.47252929646E+02  0.00000000000E+00 0. -1.
<mgrwt>
<rscale>  0 0.91159971E+02</rscale>
<asrwt>0</asrwt>
<pdfrwt beam="2">  1        2 0.53754846E-02 0.91159971E+02</pdfrwt>
<pdfrwt beam="1">  1       -2 0.91475340E-02 0.91159971E+02</pdfrwt>
<totfact> 0.92146808E+04</totfact>
</mgrwt>
</event>
<event>
 5    1  0.6085374E+000  0.8472608E+02  0.7546771E-02  0.1316150E+00
          3   -1    0    0  501    0  0.00000000000E+00  0.00000000000E+00  0.11687609466E+03  0.11687609466E+03  0.00000000000E+00 0. -1.
         -3   -1    0    0    0  501 -0.00000000000E+00 -0.00000000000E+00 -0.15354954490E+02  0.15354954490E+02  0.00000000000E+00 0.  1.
         23    2    1    2    0    0  0.00000000000E+00  0.00000000000E+00  0.10152114017E+03  0.13223104915E+03  0.84726078972E+02 0.  0.
        -13    1    3    3    0    0  0.40724037692E+02  0.10919939508E+02  0.44338038631E+02  0.61184589517E+02  0.00000000000E+00 0. -1.
         13    1    3    3    0    0 -0.40724037692E+02 -0.10919939508E+02  0.57183101543E+02  0.71046459636E+02  0.00000000000E+00 0.  1.
<mgrwt>
<rscale>  0 0.84726079E+02</rscale>
<asrwt>0</asrwt>
<pdfrwt beam="1">  1        3 0.17980937E-01 0.84726079E+02</pdfrwt>
<pdfrwt beam="2">  1       -3 0.23623008E-02 0.84726079E+02</pdfrwt>
<totfact> 0.39526350E+04</totfact>
</mgrwt>
</event>
<event>
 5    1  0.6085374E+000  0.9180556E+02  0.7546771E-02  0.1298537E+00
          1   -1    0    0  501    0  0.00000000000E+00  0.00000000000E+00  0.98556143205E+02  0.98556143205E+02  0.00000000000E+00 0. -1.
         -1   -1    0    0    0  501 -0.00000000000E+00 -0.00000000000E+00 -0.21379336860E+02  0.21379336860E+02  0.00000000000E+00 0.  1.
         23    2    1    2    0    0  0.00000000000E+00  0.00000000000E+00  0.77176806345E+02  0.11993548007E+03  0.91805555065E+02 0.  0.
        -13    1    3    3    0    0 -0.62395255183E+01 -0.37633173127E+02  0.52333419837E+01  0.38504224010E+02  0.00000000000E+00 0.  1.
         13    1    3    3    0    0  0.62395255183E+01  0.37633173127E+02  0.71943464361E+02  0.81431256055E+02  0.00000000000E+00 0. -1.
<mgrwt>
<rscale>  0 0.91805555E+02</rscale>
<asrwt>0</asrwt>
<pdfrwt beam="1">  1        1 0.15162483E-01 0.91805555E+02</pdfrwt>
<pdfrwt beam="2">  1       -1 0.32891288E-02 0.91805555E+02</pdfrwt>
<totfact> 0.10226260E+05</totfact>
</mgrwt>
</event>
<event>
 5    1  0.6085374E+000  0.9443293E+02  0.7546771E-02  0.1292458E+00
         -4   -1    0    0    0  501 -0.00000000000E+00  0.00000000000E+00  0.45200840610E+02  0.45200840610E+02  0.00000000000E+00 0.  1.
          4   -1    0    0  501    0  0.00000000000E+00 -0.00000000000E+00 -0.49321968304E+02  0.49321968304E+02  0.00000000000E+00 0. -1.
         23    2    1    2    0    0  0.00000000000E+00  0.00000000000E+00 -0.41211276941E+01  0.94522808915E+02  0.94432927052E+02 0.  0.
        -13    1    3    3    0    0  0.16892620617E+01 -0.17179992869E+02  0.41928832971E+02  0.45343497832E+02  0.00000000000E+00 0.  1.
         13    1    3    3    0    0 -0.16892620617E+01  0.17179992869E+02 -0.46049960665E+02  0.49179311083E+02  0.00000000000E+00 0. -1.
<mgrwt>
<rscale>  0 0.94432927E+02</rscale>
<asrwt>0</asrwt>
<pdfrwt beam="2">  1        4 0.75879951E-02 0.94432927E+02</pdfrwt>
<pdfrwt beam="1">  1       -4 0.69539755E-02 0.94432927E+02</pdfrwt>
<totfact> 0.24358431E+04</totfact>
</mgrwt>
</event>
<event>
 5    1  0.6085374E+000  0.9187139E+02  0.7546771E-02  0.1298382E+00
         -4   -1    0    0    0  501 -0.00000000000E+00  0.00000000000E+00  0.39398595990E+02  0.39398595990E+02  0.00000000000E+00 0.  1.
          4   -1    0    0  501    0  0.00000000000E+00 -0.00000000000E+00 -0.53557441674E+02  0.53557441674E+02  0.00000000000E+00 0. -1.
         23    2    1    2    0    0  0.00000000000E+00  0.00000000000E+00 -0.14158845685E+02  0.92956037664E+02  0.91871388512E+02 0.  0.
        -13    1    3    3    0    0 -0.57201228722E+01  0.34270074054E+02  0.23324135746E+02  0.41847020081E+02  0.00000000000E+00 0.  1.
         13    1    3    3    0    0  0.57201228722E+01 -0.34270074054E+02 -0.37482981431E+02  0.51109017583E+02  0.00000000000E+00 0. -1.
<mgrwt>
<rscale>  0 0.91871389E+02</rscale>
<asrwt>0</asrwt>
<pdfrwt beam="2">  1        4 0.82396065E-02 0.91871389E+02</pdfrwt>
<pdfrwt beam="1">  1       -4 0.60613224E-02 0.91871389E+02</pdfrwt>
<totfact> 0.26352657E+04</totfact>
</mgrwt>
</event>
<event>
 5    1  0.6085374E+000  0.9096190E+02  0.7546771E-02  0.1300539E+00
          1   -1    0    0  501    0  0.00000000000E+00  0.00000000000E+00  0.95118189872E+02  0.95118189872E+02  0.00000000000E+00 0. -1.
         -1   -1    0    0    0  501 -0.00000000000E+00 -0.00000000000E+00 -0.21746805427E+02  0.21746805427E+02  0.00000000000E+00 0.  1.
         23    2    1    2    0    0  0.00000000000E+00  0.00000000000E+00  0.73371384445E+02  0.11686499530E+03  0.90961899006E+02 0.  0.
        -13    1    3    3    0    0  0.21685302299E+02  0.33916439245E+02  0.63877284965E+02  0.75504203336E+02  0.00000000000E+00 0. -1.
         13    1    3    3    0    0 -0.21685302299E+02 -0.33916439245E+02  0.94940994801E+01  0.41360791963E+02  0.00000000000E+00 0.  1.
<mgrwt>
<rscale>  0 0.90961899E+02</rscale>
<asrwt>0</asrwt>
<pdfrwt beam="1">  1        1 0.14633567E-01 0.90961899E+02</pdfrwt>
<pdfrwt beam="2">  1       -1 0.33456624E-02 0.90961899E+02</pdfrwt>
<totfact> 0.10426110E+05</totfact>
</mgrwt>
</event>
<event>
 5    1  0.6085374E+000  0.9215661E+02  0.7546771E-02  0.1297712E+00
         -3   -1    0    0    0  501 -0.00000000000E+00  0.00000000000E+00  0.15285737831E+02  0.15285737831E+02  0.00000000000E+00 0.  1.
          3   -1    0    0  501    0  0.00000000000E+00 -0.00000000000E+00 -0.13890139309E+03  0.13890139309E+03  0.00000000000E+00 0. -1.
         23    2    1    2    0    0  0.00000000000E+00  0.00000000000E+00 -0.12361565526E+03  0.15418713092E+03  0.92156611899E+02 0.  0.
        -13    1    3    3    0    0  0.42730526875E+02  0.14467901984E+02 -0.46113467005E+02  0.64511006457E+02  0.00000000000E+00 0.  1.
         13    1    3    3    0    0 -0.42730526875E+02 -0.14467901984E+02 -0.77502188252E+02  0.89676124463E+02  0.00000000000E+00 0. -1.
<mgrwt>
<rscale>  0 0.92156612E+02</rscale>
<asrwt>0</asrwt>
<pdfrwt beam="2">  1        3 0.21369445E-01 0.92156612E+02</pdfrwt>
<pdfrwt beam="1">  1       -3 0.23516520E-02 0.92156612E+02</pdfrwt>
<totfact> 0.30165257E+04</totfact>
</mgrwt>
</event>
<event>
 5    1  0.6085374E+000  0.9103920E+02  0.7546771E-02  0.1300354E+00
         -1   -1    0    0    0  501 -0.00000000000E+00  0.00000000000E+00  0.14091294659E+02  0.14091294659E+02  0.00000000000E+00 0.  1.
          1   -1    0    0  501    0  0.00000000000E+00 -0.00000000000E+00 -0.14704355981E+03  0.14704355981E+03  0.00000000000E+00 0. -1.
         23    2    1    2    0    0  0.00000000000E+00  0.00000000000E+00 -0.13295226515E+03  0.16113485447E+03  0.91039203181E+02 0.  0.
        -13    1    3    3    0    0  0.17284416873E+02 -0.38763233753E+02 -0.95596776690E+02  0.10459485203E+03  0.00000000000E+00 0. -1.
         13    1    3    3    0    0 -0.17284416873E+02  0.38763233753E+02 -0.37355488459E+02  0.56540002437E+02  0.00000000000E+00 0.  1.
<mgrwt>
<rscale>  0 0.91039203E+02</rscale>
<asrwt>0</asrwt>
<pdfrwt beam="2">  1        1 0.22622085E-01 0.91039203E+02</pdfrwt>
<pdfrwt beam="1">  1       -1 0.21678916E-02 0.91039203E+02</pdfrwt>
<totfact> 0.11218079E+05</totfact>
</mgrwt>
</event>
<event>
 5    1  0.6085374E+000  0.9093121E+02  0.7546771E-02  0.1300612E+00
          2   -1    0    0  501    0  0.00000000000E+00  0.00000000000E+00  0.13196946057E+03  0.13196946057E+03  0.00000000000E+00 0. -1.
         -2   -1    0    0    0  501 -0.00000000000E+00 -0.00000000000E+00 -0.15663632916E+02  0.15663632916E+02  0.00000000000E+00 0.  1.
         23    2    1    2    0    0  0.00000000000E+00  0.00000000000E+00  0.11630582765E+03  0.14763309349E+03  0.90931208866E+02 0.  0.
        -13    1    3    3    0    0  0.42676605929E+02  0.44989240094E+00  0.32707588817E+02  0.53770637554E+02  0.00000000000E+00 0.  1.
         13    1    3    3    0    0 -0.42676605929E+02 -0.44989240094E+00  0.83598238838E+02  0.93862455932E+02  0.00000000000E+00 0. -1.
<mgrwt>
<rscale>  0 0.90931209E+02</rscale>
<asrwt>0</asrwt>
<pdfrwt beam="1">  1        2 0.20302993E-01 0.90931209E+02</pdfrwt>
<pdfrwt beam="2">  1       -2 0.24097898E-02 0.90931209E+02</pdfrwt>
<totfact> 0.13492937E+05</totfact>
</mgrwt>
</event>
<event>
 5    1  0.6085374E+000  0.9218602E+02  0.7546771E-02  0.1297643E+00
          2   -1    0    0  501    0  0.00000000000E+00  0.00000000000E+00  0.37218008212E+03  0.37218008212E+03  0.00000000000E+00 0. -1.
         -2   -1    0    0    0  501 -0.00000000000E+00 -0.00000000000E+00 -0.57084339076E+01  0.57084339076E+01  0.00000000000E+00 0.  1.
         23    2    1    2    0    0  0.00000000000E+00  0.00000000000E+00  0.36647164821E+03  0.37788851603E+03  0.92186016304E+02 0.  0.
        -13    1    3    3    0    0 -0.27767923200E+01  0.45944615646E+02  0.17323923305E+03  0.17924968662E+03  0.00000000000E+00 0.  1.
         13    1    3    3    0    0  0.27767923200E+01 -0.45944615646E+02  0.19323241516E+03  0.19863882941E+03  0.00000000000E+00 0. -1.
<mgrwt>
<rscale>  0 0.92186016E+02</rscale>
<asrwt>0</asrwt>
<pdfrwt beam="1">  1        2 0.57258455E-01 0.92186016E+02</pdfrwt>
<pdfrwt beam="2">  1       -2 0.87822089E-03 0.92186016E+02</pdfrwt>
<totfact> 0.18888431E+05</totfact>
</mgrwt>
</event>
<event>
 5    1  0.6085374E+000  0.8760066E+02  0.7546771E-02  0.1308768E+00
         -2   -1    0    0    0  501 -0.00000000000E+00  0.00000000000E+00  0.76180249086E+01  0.76180249086E+01  0.00000000000E+00 0.  1.
          2   -1    0    0  501    0  0.00000000000E+00 -0.00000000000E+00 -0.25183283627E+03  0.25183283627E+03  0.00000000000E+00 0. -1.
         23    2    1    2    0    0  0.00000000000E+00  0.00000000000E+00 -0.24421481136E+03  0.25945086117E+03  0.87600657976E+02 0.  0.
        -13    1    3    3    0    0 -0.36526990481E+02  0.18711745420E+02 -0.16742485873E+03  0.17238165149E+03  0.00000000000E+00 0. -1.
         13    1    3    3    0    0  0.36526990481E+02 -0.18711745420E+02 -0.76789952628E+02  0.87069209683E+02  0.00000000000E+00 0.  1.
<mgrwt>
<rscale>  0 0.87600658E+02</rscale>
<asrwt>0</asrwt>
<pdfrwt beam="2">  1        2 0.38743504E-01 0.87600658E+02</pdfrwt>
<pdfrwt beam="1">  1       -2 0.11720041E-02 0.87600658E+02</pdfrwt>
<totfact> 0.18729175E+05</totfact>
</mgrwt>
</event>
<event>
 5    1  0.6085374E+000  0.8946987E+02  0.7546771E-02  0.1304141E+00
         -3   -1    0    0    0  501 -0.00000000000E+00  0.00000000000E+00  0.24889763906E+03  0.24889763906E+03  0.00000000000E+00 0.  1.
          3   -1    0    0  501    0  0.00000000000E+00 -0.00000000000E+00 -0.80403110080E+01  0.80403110080E+01  0.00000000000E+00 0. -1.
         23    2    1    2    0    0  0.00000000000E+00  0.00000000000E+00  0.24085732805E+03  0.25693795007E+03  0.89469870397E+02 0.  0.
        -13    1    3    3    0    0  0.35004982355E+02  0.21414311098E+02  0.17158290392E+03  0.17642169489E+03  0.00000000000E+00 0.  1.
         13    1    3    3    0    0 -0.35004982355E+02 -0.21414311098E+02  0.69274424136E+02  0.80516255184E+02  0.00000000000E+00 0. -1.
<mgrwt>
<rscale>  0 0.89469870E+02</rscale>
<asrwt>0</asrwt>
<pdfrwt beam="2">  1        3 0.12369711E-02 0.89469870E+02</pdfrwt>
<pdfrwt beam="1">  1       -3 0.38291939E-01 0.89469870E+02</pdfrwt>
<totfact> 0.27135468E+04</totfact>
</mgrwt>
</event>
<event>
 5    1  0.6085374E+000  0.9156204E+02  0.7546771E-02  0.1299112E+00
         -3   -1    0    0    0  501 -0.00000000000E+00  0.00000000000E+00  0.20071379275E+03  0.20071379275E+03  0.00000000000E+00 0.  1.
          3   -1    0    0  501    0  0.00000000000E+00 -0.00000000000E+00 -0.10442241583E+02  0.10442241583E+02  0.00000000000E+00 0. -1.
         23    2    1    2    0    0  0.00000000000E+00  0.00000000000E+00  0.19027155117E+03  0.21115603434E+03  0.91562042639E+02 0.  0.
        -13    1    3    3    0    0  0.24701063583E+02  0.34574227571E+02  0.55837545676E+02  0.70166596479E+02  0.00000000000E+00 0.  1.
         13    1    3    3    0    0 -0.24701063583E+02 -0.34574227571E+02  0.13443400549E+03  0.14098943786E+03  0.00000000000E+00 0. -1.
<mgrwt>
<rscale>  0 0.91562043E+02</rscale>
<asrwt>0</asrwt>
<pdfrwt beam="2">  1        3 0.16064989E-02 0.91562043E+02</pdfrwt>
<pdfrwt beam="1">  1       -3 0.30879042E-01 0.91562043E+02</pdfrwt>
<totfact> 0.27613798E+04</totfact>
</mgrwt>
</event>
<event>
 5    1  0.6085374E+000  0.9105507E+02  0.7546771E-02  0.1300317E+00
          2   -1    0    0  501    0  0.00000000000E+00  0.00000000000E+00  0.12547671022E+03  0.12547671022E+03  0.00000000000E+00 0. -1.
         -2   -1    0    0    0  501 -0.00000000000E+00 -0.00000000000E+00 -0.16519051821E+02  0.16519051821E+02  0.00000000000E+00 0.  1.
         23    2    1    2    0    0  0.00000000000E+00  0.00000000000E+00  0.10895765840E+03  0.14199576205E+03  0.91055066384E+02 0.  0.
        -13    1    3    3    0    0 -0.38003814922E+02  0.24881929650E+02  0.59248783419E+02  0.74658011683E+02  0.00000000000E+00 0. -1.
         13    1    3    3    0    0  0.38003814922E+02 -0.24881929650E+02  0.49708874984E+02  0.67337750363E+02  0.00000000000E+00 0.  1.
<mgrwt>
<rscale>  0 0.91055066E+02</rscale>
<asrwt>0</asrwt>
<pdfrwt beam="1">  1        2 0.19304109E-01 0.91055066E+02</pdfrwt>
<pdfrwt beam="2">  1       -2 0.25413927E-02 0.91055066E+02</pdfrwt>
<totfact> 0.13223008E+05</totfact>
</mgrwt>
</event>
<event>
 5    1  0.6085374E+000  0.9096973E+02  0.7546771E-02  0.1300520E+00
         -1   -1    0    0    0  501 -0.00000000000E+00  0.00000000000E+00  0.21680175809E+02  0.21680175809E+02  0.00000000000E+00 0.  1.
          1   -1    0    0  501    0  0.00000000000E+00 -0.00000000000E+00 -0.95426941287E+02  0.95426941287E+02  0.00000000000E+00 0. -1.
         23    2    1    2    0    0  0.00000000000E+00  0.00000000000E+00 -0.73746765478E+02  0.11710711710E+03  0.90969728240E+02 0.  0.
        -13    1    3    3    0    0 -0.41948856185E+02 -0.24349387522E+01 -0.14456368066E+02  0.44436719497E+02  0.00000000000E+00 0.  1.
         13    1    3    3    0    0  0.41948856185E+02  0.24349387522E+01 -0.59290397412E+02  0.72670397599E+02  0.00000000000E+00 0. -1.
<mgrwt>
<rscale>  0 0.90969728E+02</rscale>
<asrwt>0</asrwt>
<pdfrwt beam="2">  1        1 0.14681068E-01 0.90969728E+02</pdfrwt>
<pdfrwt beam="1">  1       -1 0.33354117E-02 0.90969728E+02</pdfrwt>
<totfact> 0.10429211E+05</totfact>
</mgrwt>
</event>
<event>
 5    1  0.6085374E+000  0.9604094E+02  0.7546771E-02  0.1288849E+00
          1   -1    0    0  501    0  0.00000000000E+00  0.00000000000E+00  0.10925121770E+02  0.10925121770E+02  0.00000000000E+00 0. -1.
         -1   -1    0    0    0  501 -0.00000000000E+00 -0.00000000000E+00 -0.21107001581E+03  0.21107001581E+03  0.00000000000E+00 0.  1.
         23    2    1    2    0    0  0.00000000000E+00  0.00000000000E+00 -0.20014489404E+03  0.22199513758E+03  0.96040941785E+02 0.  0.
        -13    1    3    3    0    0 -0.28173880049E+02  0.27954566235E+02 -0.16255641364E+03  0.16733144625E+03  0.00000000000E+00 0.  1.
         13    1    3    3    0    0  0.28173880049E+02 -0.27954566235E+02 -0.37588480398E+02  0.54663691323E+02  0.00000000000E+00 0. -1.
<mgrwt>
<rscale>  0 0.96040942E+02</rscale>
<asrwt>0</asrwt>
<pdfrwt beam="1">  1        1 0.16807880E-02 0.96040942E+02</pdfrwt>
<pdfrwt beam="2">  1       -1 0.32472309E-01 0.96040942E+02</pdfrwt>
<totfact> 0.59663834E+04</totfact>
</mgrwt>
</event>
<event>
 5    1  0.6085374E+000  0.9876899E+02  0.7546771E-02  0.1282906E+00
         -1   -1    0    0    0  501 -0.00000000000E+00  0.00000000000E+00  0.12803358304E+03  0.12803358304E+03  0.00000000000E+00 0.  1.
          1   -1    0    0  501    0  0.00000000000E+00 -0.00000000000E+00 -0.19048347040E+02  0.19048347040E+02  0.00000000000E+00 0. -1.
         23    2    1    2    0    0  0.00000000000E+00  0.00000000000E+00  0.10898523600E+03  0.14708193008E+03  0.98768985466E+02 0.  0.
        -13    1    3    3    0    0 -0.48134954520E+02 -0.91754965258E+01  0.45353483735E+02  0.66769020286E+02  0.00000000000E+00 0.  1.
         13    1    3    3    0    0  0.48134954520E+02  0.91754965258E+01  0.63631752261E+02  0.80312909790E+02  0.00000000000E+00 0. -1.
<mgrwt>
<rscale>  0 0.98768985E+02</rscale>
<asrwt>0</asrwt>
<pdfrwt beam="2">  1        1 0.29305150E-02 0.98768985E+02</pdfrwt>
<pdfrwt beam="1">  1       -1 0.19697474E-01 0.98768985E+02</pdfrwt>
<totfact> 0.62958036E+04</totfact>
</mgrwt>
</event>
<event>
 5    1  0.6085374E+000  0.9184653E+02  0.7546771E-02  0.1298441E+00
          1   -1    0    0  501    0  0.00000000000E+00  0.00000000000E+00  0.20124250444E+02  0.20124250444E+02  0.00000000000E+00 0. -1.
         -1   -1    0    0    0  501 -0.00000000000E+00 -0.00000000000E+00 -0.10479625813E+03  0.10479625813E+03  0.00000000000E+00 0.  1.
         23    2    1    2    0    0  0.00000000000E+00  0.00000000000E+00 -0.84672007687E+02  0.12492050857E+03  0.91846527298E+02 0.  0.
        -13    1    3    3    0    0  0.15895599471E+02 -0.31186224765E+02 -0.82767732680E+02  0.89865167170E+02  0.00000000000E+00 0.  1.
         13    1    3    3    0    0 -0.15895599471E+02  0.31186224765E+02 -0.19042750070E+01  0.35055341404E+02  0.00000000000E+00 0. -1.
<mgrwt>
<rscale>  0 0.91846527E+02</rscale>
<asrwt>0</asrwt>
<pdfrwt beam="1">  1        1 0.30960385E-02 0.91846527E+02</pdfrwt>
<pdfrwt beam="2">  1       -1 0.16122501E-01 0.91846527E+02</pdfrwt>
<totfact> 0.79147628E+04</totfact>
</mgrwt>
</event>
<event>
 5    1  0.6085374E+000  0.9042960E+02  0.7546771E-02  0.1301815E+00
          4   -1    0    0  501    0  0.00000000000E+00  0.00000000000E+00  0.69293561661E+02  0.69293561661E+02  0.00000000000E+00 0.  1.
         -4   -1    0    0    0  501 -0.00000000000E+00 -0.00000000000E+00 -0.29503147277E+02  0.29503147277E+02  0.00000000000E+00 0. -1.
         23    2    1    2    0    0  0.00000000000E+00  0.00000000000E+00  0.39790414385E+02  0.98796708938E+02  0.90429600353E+02 0.  0.
        -13    1    3    3    0    0  0.33094965389E+02  0.29465188536E+02  0.10068294607E+02  0.45440561460E+02  0.00000000000E+00 0. -1.
         13    1    3    3    0    0 -0.33094965389E+02 -0.29465188536E+02  0.29722119778E+02  0.53356147478E+02  0.00000000000E+00 0.  1.
<mgrwt>
<rscale>  0 0.90429600E+02</rscale>
<asrwt>0</asrwt>
<pdfrwt beam="1">  1        4 0.10660548E-01 0.90429600E+02</pdfrwt>
<pdfrwt beam="2">  1       -4 0.45389458E-02 0.90429600E+02</pdfrwt>
<totfact> 0.27130355E+04</totfact>
</mgrwt>
</event>
<event>
 5    1  0.6085374E+000  0.9117472E+02  0.7546771E-02  0.1300032E+00
          1   -1    0    0  501    0  0.00000000000E+00  0.00000000000E+00  0.88218807799E+01  0.88218807799E+01  0.00000000000E+00 0. -1.
         -1   -1    0    0    0  501 -0.00000000000E+00 -0.00000000000E+00 -0.23557416372E+03  0.23557416372E+03  0.00000000000E+00 0.  1.
         23    2    1    2    0    0  0.00000000000E+00  0.00000000000E+00 -0.22675228294E+03  0.24439604450E+03  0.91174715511E+02 0.  0.
        -13    1    3    3    0    0  0.30852229012E+02  0.26524807794E+02 -0.16849216264E+03  0.17333503493E+03  0.00000000000E+00 0.  1.
         13    1    3    3    0    0 -0.30852229012E+02 -0.26524807794E+02 -0.58260120301E+02  0.71061009570E+02  0.00000000000E+00 0. -1.
<mgrwt>
<rscale>  0 0.91174716E+02</rscale>
<asrwt>0</asrwt>
<pdfrwt beam="1">  1        1 0.13572126E-02 0.91174716E+02</pdfrwt>
<pdfrwt beam="2">  1       -1 0.36242175E-01 0.91174716E+02</pdfrwt>
<totfact> 0.66056143E+04</totfact>
</mgrwt>
</event>
<event>
 5    1  0.6085374E+000  0.9075660E+02  0.7546771E-02  0.1301030E+00
          1   -1    0    0  501    0  0.00000000000E+00  0.00000000000E+00  0.93424439563E+01  0.93424439563E+01  0.00000000000E+00 0. -1.
         -1   -1    0    0    0  501 -0.00000000000E+00 -0.00000000000E+00 -0.22041236489E+03  0.22041236489E+03  0.00000000000E+00 0.  1.
         23    2    1    2    0    0  0.00000000000E+00  0.00000000000E+00 -0.21106992094E+03  0.22975480885E+03  0.90756601221E+02 0.  0.
        -13    1    3    3    0    0 -0.10334545505E+02 -0.30290641341E+02 -0.18697314932E+03  0.18969260489E+03  0.00000000000E+00 0.  1.
         13    1    3    3    0    0  0.10334545505E+02  0.30290641341E+02 -0.24096771618E+02  0.40062203959E+02  0.00000000000E+00 0. -1.
<mgrwt>
<rscale>  0 0.90756601E+02</rscale>
<asrwt>0</asrwt>
<pdfrwt beam="1">  1        1 0.14372991E-02 0.90756601E+02</pdfrwt>
<pdfrwt beam="2">  1       -1 0.33909594E-01 0.90756601E+02</pdfrwt>
<totfact> 0.68269743E+04</totfact>
</mgrwt>
</event>
<event>
 5    1  0.6085374E+000  0.9151735E+02  0.7546771E-02  0.1299218E+00
          3   -1    0    0  501    0  0.00000000000E+00  0.00000000000E+00  0.72159483568E+02  0.72159483568E+02  0.00000000000E+00 0. -1.
         -3   -1    0    0    0  501 -0.00000000000E+00 -0.00000000000E+00 -0.29017064601E+02  0.29017064601E+02  0.00000000000E+00 0.  1.
         23    2    1    2    0    0  0.00000000000E+00  0.00000000000E+00  0.43142418967E+02  0.10117654817E+03  0.91517351278E+02 0.  0.
        -13    1    3    3    0    0 -0.22216638206E+02  0.38889731414E+02  0.31934251844E+02  0.55007151022E+02  0.00000000000E+00 0.  1.
         13    1    3    3    0    0  0.22216638206E+02 -0.38889731414E+02  0.11208167123E+02  0.46169397147E+02  0.00000000000E+00 0. -1.
<mgrwt>
<rscale>  0 0.91517351E+02</rscale>
<asrwt>0</asrwt>
<pdfrwt beam="1">  1        3 0.11101459E-01 0.91517351E+02</pdfrwt>
<pdfrwt beam="2">  1       -3 0.44641638E-02 0.91517351E+02</pdfrwt>
<totfact> 0.34234303E+04</totfact>
</mgrwt>
</event>
<event>
 5    1  0.6085374E+000  0.9321244E+02  0.7546771E-02  0.1295254E+00
         -2   -1    0    0    0  501 -0.00000000000E+00  0.00000000000E+00  0.62124130505E+01  0.62124130505E+01  0.00000000000E+00 0.  1.
          2   -1    0    0  501    0  0.00000000000E+00 -0.00000000000E+00 -0.34964506756E+03  0.34964506756E+03  0.00000000000E+00 0. -1.
         23    2    1    2    0    0  0.00000000000E+00  0.00000000000E+00 -0.34343265451E+03  0.35585748061E+03  0.93212436525E+02 0.  0.
        -13    1    3    3    0    0  0.46120975568E+02  0.73075201380E+00 -0.14626017239E+03  0.15336139154E+03  0.00000000000E+00 0.  1.
         13    1    3    3    0    0 -0.46120975568E+02 -0.73075201380E+00 -0.19717248211E+03  0.20249608907E+03  0.00000000000E+00 0. -1.
<mgrwt>
<rscale>  0 0.93212437E+02</rscale>
<asrwt>0</asrwt>
<pdfrwt beam="2">  1        2 0.53791558E-01 0.93212437E+02</pdfrwt>
<pdfrwt beam="1">  1       -2 0.95575568E-03 0.93212437E+02</pdfrwt>
<totfact> 0.17926025E+05</totfact>
</mgrwt>
</event>
<event>
 5    1  0.6085374E+000  0.9187766E+02  0.7546771E-02  0.1298367E+00
         -2   -1    0    0    0  501 -0.00000000000E+00  0.00000000000E+00  0.39322320239E+02  0.39322320239E+02  0.00000000000E+00 0.  1.
          2   -1    0    0  501    0  0.00000000000E+00 -0.00000000000E+00 -0.53668661037E+02  0.53668661037E+02  0.00000000000E+00 0. -1.
         23    2    1    2    0    0  0.00000000000E+00  0.00000000000E+00 -0.14346340798E+02  0.92990981276E+02  0.91877663794E+02 0.  0.
        -13    1    3    3    0    0  0.18889244925E+02  0.24604101558E+02 -0.41469031958E+02  0.51786542642E+02  0.00000000000E+00 0. -1.
         13    1    3    3    0    0 -0.18889244925E+02 -0.24604101558E+02  0.27122691160E+02  0.41204438633E+02  0.00000000000E+00 0.  1.
<mgrwt>
<rscale>  0 0.91877664E+02</rscale>
<asrwt>0</asrwt>
<pdfrwt beam="2">  1        2 0.82567170E-02 0.91877664E+02</pdfrwt>
<pdfrwt beam="1">  1       -2 0.60495878E-02 0.91877664E+02</pdfrwt>
<totfact> 0.10075464E+05</totfact>
</mgrwt>
</event>
<event>
 5    1  0.6085374E+000  0.9244554E+02  0.7546771E-02  0.1297035E+00
          2   -1    0    0  501    0  0.00000000000E+00  0.00000000000E+00  0.37175786782E+03  0.37175786782E+03  0.00000000000E+00 0. -1.
         -2   -1    0    0    0  501 -0.00000000000E+00 -0.00000000000E+00 -0.57471402282E+01  0.57471402282E+01  0.00000000000E+00 0.  1.
         23    2    1    2    0    0  0.00000000000E+00  0.00000000000E+00  0.36601072759E+03  0.37750500805E+03  0.92445542830E+02 0.  0.
        -13    1    3    3    0    0 -0.37350150340E+02  0.22790577637E+02  0.24386249107E+03  0.24775665220E+03  0.00000000000E+00 0.  1.
         13    1    3    3    0    0  0.37350150340E+02 -0.22790577637E+02  0.12214823652E+03  0.12974835584E+03  0.00000000000E+00 0. -1.
<mgrwt>
<rscale>  0 0.92445543E+02</rscale>
<asrwt>0</asrwt>
<pdfrwt beam="1">  1        2 0.57193499E-01 0.92445543E+02</pdfrwt>
<pdfrwt beam="2">  1       -2 0.88417571E-03 0.92445543E+02</pdfrwt>
<totfact> 0.18739827E+05</totfact>
</mgrwt>
</event>
<event>
 5    1  0.6085374E+000  0.9638506E+02  0.7546771E-02  0.1288087E+00
         -1   -1    0    0    0  501 -0.00000000000E+00  0.00000000000E+00  0.41705593139E+02  0.41705593139E+02  0.00000000000E+00 0.  1.
          1   -1    0    0  501    0  0.00000000000E+00 -0.00000000000E+00 -0.55688450631E+02  0.55688450631E+02  0.00000000000E+00 0. -1.
         23    2    1    2    0    0  0.00000000000E+00  0.00000000000E+00 -0.13982857492E+02  0.97394043770E+02  0.96385058273E+02 0.  0.
        -13    1    3    3    0    0 -0.27731526949E+02 -0.38419248357E+02  0.19009006918E+01  0.47420350638E+02  0.00000000000E+00 0.  1.
         13    1    3    3    0    0  0.27731526949E+02  0.38419248357E+02 -0.15883758183E+02  0.49973693132E+02  0.00000000000E+00 0. -1.
<mgrwt>
<rscale>  0 0.96385058E+02</rscale>
<asrwt>0</asrwt>
<pdfrwt beam="2">  1        1 0.85674540E-02 0.96385058E+02</pdfrwt>
<pdfrwt beam="1">  1       -1 0.64162450E-02 0.96385058E+02</pdfrwt>
<totfact> 0.81582209E+04</totfact>
</mgrwt>
</event>
<event>
 5    1  0.6085374E+000  0.9169547E+02  0.7546771E-02  0.1298797E+00
         -2   -1    0    0    0  501 -0.00000000000E+00  0.00000000000E+00  0.21967771818E+02  0.21967771818E+02  0.00000000000E+00 0.  1.
          2   -1    0    0  501    0  0.00000000000E+00 -0.00000000000E+00 -0.95686299820E+02  0.95686299820E+02  0.00000000000E+00 0. -1.
         23    2    1    2    0    0  0.00000000000E+00  0.00000000000E+00 -0.73718528002E+02  0.11765407164E+03  0.91695469911E+02 0.  0.
        -13    1    3    3    0    0 -0.56135413979E+00  0.29971892665E+02 -0.81369657906E+02  0.86715919508E+02  0.00000000000E+00 0. -1.
         13    1    3    3    0    0  0.56135413979E+00 -0.29971892665E+02  0.76511299048E+01  0.30938152130E+02  0.00000000000E+00 0.  1.
<mgrwt>
<rscale>  0 0.91695470E+02</rscale>
<asrwt>0</asrwt>
<pdfrwt beam="2">  1        2 0.14720969E-01 0.91695470E+02</pdfrwt>
<pdfrwt beam="1">  1       -2 0.33796572E-02 0.91695470E+02</pdfrwt>
<totfact> 0.11916862E+05</totfact>
</mgrwt>
</event>
<event>
 5    1  0.6085374E+000  0.9118184E+02  0.7546771E-02  0.1300015E+00
         -1   -1    0    0    0  501 -0.00000000000E+00  0.00000000000E+00  0.75856782865E+01  0.75856782865E+01  0.00000000000E+00 0.  1.
          1   -1    0    0  501    0  0.00000000000E+00 -0.00000000000E+00 -0.27400741213E+03  0.27400741213E+03  0.00000000000E+00 0. -1.
         23    2    1    2    0    0  0.00000000000E+00  0.00000000000E+00 -0.26642173384E+03  0.28159309041E+03  0.91181841975E+02 0.  0.
        -13    1    3    3    0    0 -0.28680426981E+01  0.43172367235E+02 -0.88837298737E+02  0.98813686342E+02  0.00000000000E+00 0.  1.
         13    1    3    3    0    0  0.28680426981E+01 -0.43172367235E+02 -0.17758443510E+03  0.18277940407E+03  0.00000000000E+00 0. -1.
<mgrwt>
<rscale>  0 0.91181842E+02</rscale>
<asrwt>0</asrwt>
<pdfrwt beam="2">  1        1 0.42154986E-01 0.91181842E+02</pdfrwt>
<pdfrwt beam="1">  1       -1 0.11670274E-02 0.91181842E+02</pdfrwt>
<totfact> 0.12588463E+05</totfact>
</mgrwt>
</event>
<event>
 5    1  0.6085374E+000  0.8825595E+02  0.7546771E-02  0.1307131E+00
         -2   -1    0    0    0  501 -0.00000000000E+00  0.00000000000E+00  0.10868003616E+02  0.10868003616E+02  0.00000000000E+00 0.  1.
          2   -1    0    0  501    0  0.00000000000E+00 -0.00000000000E+00 -0.17917534515E+03  0.17917534515E+03  0.00000000000E+00 0. -1.
         23    2    1    2    0    0  0.00000000000E+00  0.00000000000E+00 -0.16830734154E+03  0.19004334877E+03  0.88255952751E+02 0.  0.
        -13    1    3    3    0    0  0.38295859740E+02  0.12231606833E+02 -0.44971922443E+02  0.60321297128E+02  0.00000000000E+00 0.  1.
         13    1    3    3    0    0 -0.38295859740E+02 -0.12231606833E+02 -0.12333541909E+03  0.12972205164E+03  0.00000000000E+00 0. -1.
<mgrwt>
<rscale>  0 0.88255953E+02</rscale>
<asrwt>0</asrwt>
<pdfrwt beam="2">  1        2 0.27565438E-01 0.88255953E+02</pdfrwt>
<pdfrwt beam="1">  1       -2 0.16720006E-02 0.88255953E+02</pdfrwt>
<totfact> 0.16233060E+05</totfact>
</mgrwt>
</event>
<event>
 5    1  0.6085374E+000  0.8853369E+02  0.7546771E-02  0.1306442E+00
         -2   -1    0    0    0  501 -0.00000000000E+00  0.00000000000E+00  0.22522100036E+02  0.22522100036E+02  0.00000000000E+00 0.  1.
          2   -1    0    0  501    0  0.00000000000E+00 -0.00000000000E+00 -0.87005807739E+02  0.87005807739E+02  0.00000000000E+00 0. -1.
         23    2    1    2    0    0  0.00000000000E+00  0.00000000000E+00 -0.64483707702E+02  0.10952790778E+03  0.88533688630E+02 0.  0.
        -13    1    3    3    0    0 -0.32766166249E+02 -0.19791051747E+02 -0.47383598298E+01  0.38571484723E+02  0.00000000000E+00 0.  1.
         13    1    3    3    0    0  0.32766166249E+02  0.19791051747E+02 -0.59745347873E+02  0.70956423052E+02  0.00000000000E+00 0. -1.
<mgrwt>
<rscale>  0 0.88533689E+02</rscale>
<asrwt>0</asrwt>
<pdfrwt beam="2">  1        2 0.13385509E-01 0.88533689E+02</pdfrwt>
<pdfrwt beam="1">  1       -2 0.34649384E-02 0.88533689E+02</pdfrwt>
<totfact> 0.12763546E+05</totfact>
</mgrwt>
</event>
<event>
 5    1  0.6085374E+000  0.9265611E+02  0.7546771E-02  0.1296544E+00
          2   -1    0    0  501    0  0.00000000000E+00  0.00000000000E+00  0.63118623968E+02  0.63118623968E+02  0.00000000000E+00 0. -1.
         -2   -1    0    0    0  501 -0.00000000000E+00 -0.00000000000E+00 -0.34004046332E+02  0.34004046332E+02  0.00000000000E+00 0.  1.
         23    2    1    2    0    0  0.00000000000E+00  0.00000000000E+00  0.29114577637E+02  0.97122670300E+02  0.92656108570E+02 0.  0.
        -13    1    3    3    0    0  0.32007446629E+02  0.26972389572E+02 -0.62569792829E+01  0.42321817407E+02  0.00000000000E+00 0.  1.
         13    1    3    3    0    0 -0.32007446629E+02 -0.26972389572E+02  0.35371556920E+02  0.54800852893E+02  0.00000000000E+00 0. -1.
<mgrwt>
<rscale>  0 0.92656109E+02</rscale>
<asrwt>0</asrwt>
<pdfrwt beam="1">  1        2 0.97105575E-02 0.92656109E+02</pdfrwt>
<pdfrwt beam="2">  1       -2 0.52313918E-02 0.92656109E+02</pdfrwt>
<totfact> 0.10275806E+05</totfact>
</mgrwt>
</event>
<event>
 5    1  0.6085374E+000  0.9170275E+02  0.7546771E-02  0.1298780E+00
          1   -1    0    0  501    0  0.00000000000E+00  0.00000000000E+00  0.18563827902E+03  0.18563827902E+03  0.00000000000E+00 0. -1.
         -1   -1    0    0    0  501 -0.00000000000E+00 -0.00000000000E+00 -0.11324973646E+02  0.11324973646E+02  0.00000000000E+00 0.  1.
         23    2    1    2    0    0  0.00000000000E+00  0.00000000000E+00  0.17431330537E+03  0.19696325267E+03  0.91702750617E+02 0.  0.
        -13    1    3    3    0    0  0.39474695268E+02  0.18775652625E+02  0.11688486340E+03  0.12479121760E+03  0.00000000000E+00 0. -1.
         13    1    3    3    0    0 -0.39474695268E+02 -0.18775652625E+02  0.57428441969E+02  0.72172035062E+02  0.00000000000E+00 0.  1.
<mgrwt>
<rscale>  0 0.91702751E+02</rscale>
<asrwt>0</asrwt>
<pdfrwt beam="1">  1        1 0.28559733E-01 0.91702751E+02</pdfrwt>
<pdfrwt beam="2">  1       -1 0.17423038E-02 0.91702751E+02</pdfrwt>
<totfact> 0.11492341E+05</totfact>
</mgrwt>
</event>
<event>
 5    1  0.6085374E+000  0.9113151E+02  0.7546771E-02  0.1300135E+00
         -4   -1    0    0    0  501 -0.00000000000E+00  0.00000000000E+00  0.96517325238E+02  0.96517325238E+02  0.00000000000E+00 0.  1.
          4   -1    0    0  501    0  0.00000000000E+00 -0.00000000000E+00 -0.21511555751E+02  0.21511555751E+02  0.00000000000E+00 0. -1.
         23    2    1    2    0    0  0.00000000000E+00  0.00000000000E+00  0.75005769487E+02  0.11802888099E+03  0.91131505480E+02 0.  0.
        -13    1    3    3    0    0 -0.20246389506E+02  0.37781207689E+02  0.57521292390E+02  0.71735869833E+02  0.00000000000E+00 0.  1.
         13    1    3    3    0    0  0.20246389506E+02 -0.37781207689E+02  0.17484477097E+02  0.46293011156E+02  0.00000000000E+00 0. -1.
<mgrwt>
<rscale>  0 0.91131505E+02</rscale>
<asrwt>0</asrwt>
<pdfrwt beam="2">  1        4 0.33094702E-02 0.91131505E+02</pdfrwt>
<pdfrwt beam="1">  1       -4 0.14848819E-01 0.91131505E+02</pdfrwt>
<totfact> 0.25419169E+04</totfact>
</mgrwt>
</event>
<event>
 5    1  0.6085374E+000  0.8809138E+02  0.7546771E-02  0.1307541E+00
         -2   -1    0    0    0  501 -0.00000000000E+00  0.00000000000E+00  0.44226946147E+02  0.44226946147E+02  0.00000000000E+00 0.  1.
          2   -1    0    0  501    0  0.00000000000E+00 -0.00000000000E+00 -0.43865176003E+02  0.43865176003E+02  0.00000000000E+00 0. -1.
         23    2    1    2    0    0  0.00000000000E+00  0.00000000000E+00  0.36177014398E+00  0.88092122149E+02  0.88091379301E+02 0.  0.
        -13    1    3    3    0    0 -0.13327060558E+01 -0.15300082356E+02 -0.41100865044E+02  0.43876528268E+02  0.00000000000E+00 0. -1.
         13    1    3    3    0    0  0.13327060558E+01  0.15300082356E+02  0.41462635188E+02  0.44215593881E+02  0.00000000000E+00 0.  1.
<mgrwt>
<rscale>  0 0.88091379E+02</rscale>
<asrwt>0</asrwt>
<pdfrwt beam="2">  1        2 0.67484886E-02 0.88091379E+02</pdfrwt>
<pdfrwt beam="1">  1       -2 0.68041456E-02 0.88091379E+02</pdfrwt>
<totfact> 0.10781980E+05</totfact>
</mgrwt>
</event>
<event>
 5    1  0.6085374E+000  0.9287437E+02  0.7546771E-02  0.1296037E+00
          2   -1    0    0  501    0  0.00000000000E+00  0.00000000000E+00  0.13208560869E+03  0.13208560869E+03  0.00000000000E+00 0. -1.
         -2   -1    0    0    0  501 -0.00000000000E+00 -0.00000000000E+00 -0.16325865983E+02  0.16325865983E+02  0.00000000000E+00 0.  1.
         23    2    1    2    0    0  0.00000000000E+00  0.00000000000E+00  0.11575974271E+03  0.14841147468E+03  0.92874365586E+02 0.  0.
        -13    1    3    3    0    0 -0.44539779884E+02 -0.11862535524E+02  0.48854431958E+02  0.67165968043E+02  0.00000000000E+00 0.  1.
         13    1    3    3    0    0  0.44539779884E+02  0.11862535524E+02  0.66905310752E+02  0.81245506632E+02  0.00000000000E+00 0. -1.
<mgrwt>
<rscale>  0 0.92874366E+02</rscale>
<asrwt>0</asrwt>
<pdfrwt beam="1">  1        2 0.20320862E-01 0.92874366E+02</pdfrwt>
<pdfrwt beam="2">  1       -2 0.25116718E-02 0.92874366E+02</pdfrwt>
<totfact> 0.12739797E+05</totfact>
</mgrwt>
</event>
<event>
 5    1  0.6085374E+000  0.9159433E+02  0.7546771E-02  0.1299036E+00
         -1   -1    0    0    0  501 -0.00000000000E+00  0.00000000000E+00  0.13059952139E+02  0.13059952139E+02  0.00000000000E+00 0.  1.
          1   -1    0    0  501    0  0.00000000000E+00 -0.00000000000E+00 -0.16059633006E+03  0.16059633006E+03  0.00000000000E+00 0. -1.
         23    2    1    2    0    0  0.00000000000E+00  0.00000000000E+00 -0.14753637792E+03  0.17365628220E+03  0.91594331360E+02 0.  0.
        -13    1    3    3    0    0 -0.41321409761E+02  0.11702026611E+02 -0.10392382377E+03  0.11244802123E+03  0.00000000000E+00 0. -1.
         13    1    3    3    0    0  0.41321409761E+02 -0.11702026611E+02 -0.43612554156E+02  0.61208260974E+02  0.00000000000E+00 0.  1.
<mgrwt>
<rscale>  0 0.91594331E+02</rscale>
<asrwt>0</asrwt>
<pdfrwt beam="2">  1        1 0.24707127E-01 0.91594331E+02</pdfrwt>
<pdfrwt beam="1">  1       -1 0.20092235E-02 0.91594331E+02</pdfrwt>
<totfact> 0.11216846E+05</totfact>
</mgrwt>
</event>
<event>
 5    1  0.6085374E+000  0.9338885E+02  0.7546771E-02  0.1294847E+00
         -2   -1    0    0    0  501 -0.00000000000E+00  0.00000000000E+00  0.99045667350E+01  0.99045667350E+01  0.00000000000E+00 0. -1.
          2   -1    0    0  501    0  0.00000000000E+00 -0.00000000000E+00 -0.22013779621E+03  0.22013779621E+03  0.00000000000E+00 0.  1.
         23    2    1    2    0    0  0.00000000000E+00  0.00000000000E+00 -0.21023322947E+03  0.23004236294E+03  0.93388853584E+02 0.  0.
        -13    1    3    3    0    0 -0.26649707568E+02 -0.24284317957E+02 -0.17820717606E+03  0.18181785559E+03  0.00000000000E+00 0.  1.
         13    1    3    3    0    0  0.26649707568E+02  0.24284317957E+02 -0.32026053408E+02  0.48224507348E+02  0.00000000000E+00 0. -1.
<mgrwt>
<rscale>  0 0.93388854E+02</rscale>
<asrwt>0</asrwt>
<pdfrwt beam="2">  1        2 0.33867350E-01 0.93388854E+02</pdfrwt>
<pdfrwt beam="1">  1       -2 0.15237797E-02 0.93388854E+02</pdfrwt>
<totfact> 0.15016794E+05</totfact>
</mgrwt>
</event>
<event>
 5    1  0.6085374E+000  0.9072959E+02  0.7546771E-02  0.1301094E+00
         -2   -1    0    0    0  501 -0.00000000000E+00  0.00000000000E+00  0.26790293937E+03  0.26790293937E+03  0.00000000000E+00 0. -1.
          2   -1    0    0  501    0  0.00000000000E+00 -0.00000000000E+00 -0.76817541018E+01  0.76817541018E+01  0.00000000000E+00 0.  1.
         23    2    1    2    0    0  0.00000000000E+00  0.00000000000E+00  0.26022118527E+03  0.27558469348E+03  0.90729587312E+02 0.  0.
        -13    1    3    3    0    0 -0.73613958575E+01  0.40019302782E+02  0.69192926500E+02  0.80270765673E+02  0.00000000000E+00 0.  1.
         13    1    3    3    0    0  0.73613958575E+01 -0.40019302782E+02  0.19102825877E+03  0.19531392780E+03  0.00000000000E+00 0. -1.
<mgrwt>
<rscale>  0 0.90729587E+02</rscale>
<asrwt>0</asrwt>
<pdfrwt beam="2">  1        2 0.11818085E-02 0.90729587E+02</pdfrwt>
<pdfrwt beam="1">  1       -2 0.41215830E-01 0.90729587E+02</pdfrwt>
<totfact> 0.54917011E+04</totfact>
</mgrwt>
</event>
<event>
 5    1  0.6085374E+000  0.9208158E+02  0.7546771E-02  0.1297888E+00
          2   -1    0    0  501    0  0.00000000000E+00  0.00000000000E+00  0.60322700723E+02  0.60322700723E+02  0.00000000000E+00 0. -1.
         -2   -1    0    0    0  501 -0.00000000000E+00 -0.00000000000E+00 -0.35140242394E+02  0.35140242394E+02  0.00000000000E+00 0.  1.
         23    2    1    2    0    0  0.00000000000E+00  0.00000000000E+00  0.25182458328E+02  0.95462943117E+02  0.92081579597E+02 0.  0.
        -13    1    3    3    0    0  0.35851776597E+02  0.21923722546E+02  0.32090269954E+02  0.52875182470E+02  0.00000000000E+00 0. -1.
         13    1    3    3    0    0 -0.35851776597E+02 -0.21923722546E+02 -0.69078116258E+01  0.42587760647E+02  0.00000000000E+00 0.  1.
<mgrwt>
<rscale>  0 0.92081580E+02</rscale>
<asrwt>0</asrwt>
<pdfrwt beam="1">  1        2 0.92804155E-02 0.92081580E+02</pdfrwt>
<pdfrwt beam="2">  1       -2 0.54061911E-02 0.92081580E+02</pdfrwt>
<totfact> 0.10330010E+05</totfact>
</mgrwt>
</event>
<event>
 5    1  0.6085374E+000  0.9947823E+02  0.7546771E-02  0.1281397E+00
         -4   -1    0    0    0  501 -0.00000000000E+00  0.00000000000E+00  0.21869481207E+02  0.21869481207E+02  0.00000000000E+00 0.  1.
          4   -1    0    0  501    0  0.00000000000E+00 -0.00000000000E+00 -0.11312473870E+03  0.11312473870E+03  0.00000000000E+00 0. -1.
         23    2    1    2    0    0  0.00000000000E+00  0.00000000000E+00 -0.91255257493E+02  0.13499421991E+03  0.99478225699E+02 0.  0.
        -13    1    3    3    0    0 -0.15308154308E+02  0.37519104655E+02 -0.84769128688E+02  0.93956521759E+02  0.00000000000E+00 0. -1.
         13    1    3    3    0    0  0.15308154308E+02 -0.37519104655E+02 -0.64861288050E+01  0.41037698149E+02  0.00000000000E+00 0.  1.
<mgrwt>
<rscale>  0 0.99478226E+02</rscale>
<asrwt>0</asrwt>
<pdfrwt beam="2">  1        4 0.17403806E-01 0.99478226E+02</pdfrwt>
<pdfrwt beam="1">  1       -4 0.33645356E-02 0.99478226E+02</pdfrwt>
<totfact> 0.19296488E+04</totfact>
</mgrwt>
</event>
<event>
 5    1  0.6085374E+000  0.9351524E+02  0.7546771E-02  0.1294556E+00
          1   -1    0    0  501    0  0.00000000000E+00  0.00000000000E+00  0.11443096545E+03  0.11443096545E+03  0.00000000000E+00 0. -1.
         -1   -1    0    0    0  501 -0.00000000000E+00 -0.00000000000E+00 -0.19105625397E+02  0.19105625397E+02  0.00000000000E+00 0.  1.
         23    2    1    2    0    0  0.00000000000E+00  0.00000000000E+00  0.95325340053E+02  0.13353659085E+03  0.93515242814E+02 0.  0.
        -13    1    3    3    0    0  0.19868348153E+02  0.40337944285E+02  0.29354934005E+02  0.53699284519E+02  0.00000000000E+00 0.  1.
         13    1    3    3    0    0 -0.19868348153E+02 -0.40337944285E+02  0.65970406048E+02  0.79837306327E+02  0.00000000000E+00 0. -1.
<mgrwt>
<rscale>  0 0.93515243E+02</rscale>
<asrwt>0</asrwt>
<pdfrwt beam="1">  1        1 0.17604764E-01 0.93515243E+02</pdfrwt>
<pdfrwt beam="2">  1       -1 0.29393270E-02 0.93515243E+02</pdfrwt>
<totfact> 0.99740001E+04</totfact>
</mgrwt>
</event>
<event>
 4    1  0.6085374E+000  0.1331331E+03  0.7546771E-02  0.1222879E+00
          2   -1    0    0  501    0  0.00000000000E+00  0.00000000000E+00  0.28509509418E+03  0.28509509418E+03  0.00000000000E+00 0. -1.
         -2   -1    0    0    0  501 -0.00000000000E+00 -0.00000000000E+00 -0.15542562849E+02  0.15542562849E+02  0.00000000000E+00 0.  1.
        -13    1    1    2    0    0  0.65782371413E+02  0.84282529057E+01  0.12185277078E+03  0.13873158827E+03  0.00000000000E+00 0.  1.
         13    1    1    2    0    0 -0.65782371413E+02 -0.84282529057E+01  0.14769976055E+03  0.16190606876E+03  0.00000000000E+00 0. -1.
<mgrwt>
<rscale>  0 0.13313314E+03</rscale>
<asrwt>0</asrwt>
<pdfrwt beam="1">  1        2 0.43860780E-01 0.13313314E+03</pdfrwt>
<pdfrwt beam="2">  1       -2 0.23911637E-02 0.13313314E+03</pdfrwt>
<totfact> 0.62691752E+04</totfact>
</mgrwt>
</event>
<event>
 5    1  0.6085374E+000  0.9052646E+02  0.7546771E-02  0.1301582E+00
         -2   -1    0    0    0  501 -0.00000000000E+00  0.00000000000E+00  0.75380399836E+01  0.75380399836E+01  0.00000000000E+00 0.  1.
          2   -1    0    0  501    0  0.00000000000E+00 -0.00000000000E+00 -0.27178950011E+03  0.27178950011E+03  0.00000000000E+00 0. -1.
         23    2    1    2    0    0  0.00000000000E+00  0.00000000000E+00 -0.26425146013E+03  0.27932754010E+03  0.90526462849E+02 0.  0.
        -13    1    3    3    0    0  0.43592514613E+02 -0.10394609886E+02 -0.11251223079E+03  0.12110886558E+03  0.00000000000E+00 0. -1.
         13    1    3    3    0    0 -0.43592514613E+02  0.10394609886E+02 -0.15173922934E+03  0.15821867451E+03  0.00000000000E+00 0.  1.
<mgrwt>
<rscale>  0 0.90526463E+02</rscale>
<asrwt>0</asrwt>
<pdfrwt beam="2">  1        2 0.41813765E-01 0.90526463E+02</pdfrwt>
<pdfrwt beam="1">  1       -2 0.11596986E-02 0.90526463E+02</pdfrwt>
<totfact> 0.17650606E+05</totfact>
</mgrwt>
</event>
<event>
 5    1  0.6085374E+000  0.9129340E+02  0.7546771E-02  0.1299749E+00
          1   -1    0    0  501    0  0.00000000000E+00  0.00000000000E+00  0.57127220877E+02  0.57127220877E+02  0.00000000000E+00 0. -1.
         -1   -1    0    0    0  501 -0.00000000000E+00 -0.00000000000E+00 -0.36473355471E+02  0.36473355471E+02  0.00000000000E+00 0.  1.
         23    2    1    2    0    0  0.00000000000E+00  0.00000000000E+00  0.20653865407E+02  0.93600576348E+02  0.91293404671E+02 0.  0.
        -13    1    3    3    0    0 -0.25287192615E+02 -0.22284643933E+02 -0.21233698457E+02  0.39836132038E+02  0.00000000000E+00 0.  1.
         13    1    3    3    0    0  0.25287192615E+02  0.22284643933E+02  0.41887563863E+02  0.53764444310E+02  0.00000000000E+00 0. -1.
<mgrwt>
<rscale>  0 0.91293405E+02</rscale>
<asrwt>0</asrwt>
<pdfrwt beam="1">  1        1 0.87888032E-02 0.91293405E+02</pdfrwt>
<pdfrwt beam="2">  1       -1 0.56112855E-02 0.91293405E+02</pdfrwt>
<totfact> 0.95320446E+04</totfact>
</mgrwt>
</event>
<event>
 5    1  0.6085374E+000  0.9175798E+02  0.7546771E-02  0.1298649E+00
          2   -1    0    0  501    0  0.00000000000E+00  0.00000000000E+00  0.18343184516E+03  0.18343184516E+03  0.00000000000E+00 0. -1.
         -2   -1    0    0    0  501 -0.00000000000E+00 -0.00000000000E+00 -0.11475006137E+02  0.11475006137E+02  0.00000000000E+00 0.  1.
         23    2    1    2    0    0  0.00000000000E+00  0.00000000000E+00  0.17195683902E+03  0.19490685130E+03  0.91757976196E+02 0.  0.
        -13    1    3    3    0    0  0.22980843250E+02 -0.37133514155E+02  0.11585750089E+03  0.12381428650E+03  0.00000000000E+00 0. -1.
         13    1    3    3    0    0 -0.22980843250E+02  0.37133514155E+02  0.56099338138E+02  0.71092564798E+02  0.00000000000E+00 0.  1.
<mgrwt>
<rscale>  0 0.91757976E+02</rscale>
<asrwt>0</asrwt>
<pdfrwt beam="1">  1        2 0.28220282E-01 0.91757976E+02</pdfrwt>
<pdfrwt beam="2">  1       -2 0.17653857E-02 0.91757976E+02</pdfrwt>
<totfact> 0.14739868E+05</totfact>
</mgrwt>
</event>
<event>
 5    1  0.6085374E+000  0.1062975E+03  0.7546771E-02  0.1267584E+00
         -4   -1    0    0    0  501 -0.00000000000E+00  0.00000000000E+00  0.11066092079E+02  0.11066092079E+02  0.00000000000E+00 0.  1.
          4   -1    0    0  501    0  0.00000000000E+00 -0.00000000000E+00 -0.25526515186E+03  0.25526515186E+03  0.00000000000E+00 0. -1.
         23    2    1    2    0    0  0.00000000000E+00  0.00000000000E+00 -0.24419905978E+03  0.26633124394E+03  0.10629746328E+03 0.  0.
        -13    1    3    3    0    0 -0.36217713357E+02 -0.29498510889E+02 -0.18562850739E+03  0.19141532765E+03  0.00000000000E+00 0. -1.
         13    1    3    3    0    0  0.36217713357E+02  0.29498510889E+02 -0.58570552397E+02  0.74915916290E+02  0.00000000000E+00 0.  1.
<mgrwt>
<rscale>  0 0.10629746E+03</rscale>
<asrwt>0</asrwt>
<pdfrwt beam="2">  1        4 0.39271560E-01 0.10629746E+03</pdfrwt>
<pdfrwt beam="1">  1       -4 0.17024758E-02 0.10629746E+03</pdfrwt>
<totfact> 0.12501895E+04</totfact>
</mgrwt>
</event>
<event>
 5    1  0.6085374E+000  0.9109071E+02  0.7546771E-02  0.1300232E+00
         -2   -1    0    0    0  501 -0.00000000000E+00  0.00000000000E+00  0.31403599717E+02  0.31403599717E+02  0.00000000000E+00 0.  1.
          2   -1    0    0  501    0  0.00000000000E+00 -0.00000000000E+00 -0.66055460484E+02  0.66055460484E+02  0.00000000000E+00 0. -1.
         23    2    1    2    0    0  0.00000000000E+00  0.00000000000E+00 -0.34651860766E+02  0.97459060201E+02  0.91090707323E+02 0.  0.
        -13    1    3    3    0    0 -0.23086633885E+02 -0.24493659873E+02 -0.50154059228E+02  0.60401669639E+02  0.00000000000E+00 0. -1.
         13    1    3    3    0    0  0.23086633885E+02  0.24493659873E+02  0.15502198461E+02  0.37057390562E+02  0.00000000000E+00 0.  1.
<mgrwt>
<rscale>  0 0.91090707E+02</rscale>
<asrwt>0</asrwt>
<pdfrwt beam="2">  1        2 0.10162378E-01 0.91090707E+02</pdfrwt>
<pdfrwt beam="1">  1       -2 0.48313231E-02 0.91090707E+02</pdfrwt>
<totfact> 0.10915696E+05</totfact>
</mgrwt>
</event>
<event>
 5    1  0.6085374E+000  0.9126237E+02  0.7546771E-02  0.1299823E+00
          1   -1    0    0  501    0  0.00000000000E+00  0.00000000000E+00  0.18003209453E+02  0.18003209453E+02  0.00000000000E+00 0. -1.
         -1   -1    0    0    0  501 -0.00000000000E+00 -0.00000000000E+00 -0.11565744751E+03  0.11565744751E+03  0.00000000000E+00 0.  1.
         23    2    1    2    0    0  0.00000000000E+00  0.00000000000E+00 -0.97654238052E+02  0.13366065696E+03  0.91262374553E+02 0.  0.
        -13    1    3    3    0    0 -0.22551474423E+02 -0.11255686792E+02 -0.10453773418E+03  0.10753323836E+03  0.00000000000E+00 0.  1.
         13    1    3    3    0    0  0.22551474423E+02  0.11255686792E+02  0.68834961295E+01  0.26127418601E+02  0.00000000000E+00 0. -1.
<mgrwt>
<rscale>  0 0.91262375E+02</rscale>
<asrwt>0</asrwt>
<pdfrwt beam="1">  1        1 0.27697246E-02 0.91262375E+02</pdfrwt>
<pdfrwt beam="2">  1       -1 0.17793453E-01 0.91262375E+02</pdfrwt>
<totfact> 0.78927222E+04</totfact>
</mgrwt>
</event>
<event>
 4    1  0.6085374E+000  0.4182663E+02  0.7546771E-02  0.1495184E+00
         -1   -1    0    0    0  501 -0.00000000000E+00  0.00000000000E+00  0.23342376873E+02  0.23342376873E+02  0.00000000000E+00 0. -1.
          1   -1    0    0  501    0  0.00000000000E+00 -0.00000000000E+00 -0.18737024072E+02  0.18737024072E+02  0.00000000000E+00 0.  1.
        -13    1    1    2    0    0  0.20574058257E+02  0.16026981454E+01 -0.11098967209E+01  0.20666213616E+02  0.00000000000E+00 0. -1.
         13    1    1    2    0    0 -0.20574058257E+02 -0.16026981454E+01  0.57152495211E+01  0.21413187329E+02  0.00000000000E+00 0.  1.
<mgrwt>
<rscale>  0 0.41826627E+02</rscale>
<asrwt>0</asrwt>
<pdfrwt beam="2">  1        1 0.28826191E-02 0.41826627E+02</pdfrwt>
<pdfrwt beam="1">  1       -1 0.35911349E-02 0.41826627E+02</pdfrwt>
<totfact> 0.67610584E+05</totfact>
</mgrwt>
</event>
<event>
 5    1  0.6085374E+000  0.9254295E+02  0.7546771E-02  0.1296808E+00
          1   -1    0    0  501    0  0.00000000000E+00  0.00000000000E+00  0.35267192051E+03  0.35267192051E+03  0.00000000000E+00 0. -1.
         -1   -1    0    0    0  501 -0.00000000000E+00 -0.00000000000E+00 -0.60709377164E+01  0.60709377164E+01  0.00000000000E+00 0.  1.
         23    2    1    2    0    0  0.00000000000E+00  0.00000000000E+00  0.34660098279E+03  0.35874285823E+03  0.92542947084E+02 0.  0.
        -13    1    3    3    0    0 -0.22693430565E+02 -0.38733444722E+02  0.12982526828E+03  0.13736765200E+03  0.00000000000E+00 0.  1.
         13    1    3    3    0    0  0.22693430565E+02  0.38733444722E+02  0.21677571451E+03  0.22137520623E+03  0.00000000000E+00 0. -1.
<mgrwt>
<rscale>  0 0.92542947E+02</rscale>
<asrwt>0</asrwt>
<pdfrwt beam="1">  1        1 0.54257203E-01 0.92542947E+02</pdfrwt>
<pdfrwt beam="2">  1       -1 0.93399069E-03 0.92542947E+02</pdfrwt>
<totfact> 0.12688643E+05</totfact>
</mgrwt>
</event>
<event>
 5    1  0.6085374E+000  0.9448668E+02  0.7546771E-02  0.1292336E+00
          1   -1    0    0  501    0  0.00000000000E+00  0.00000000000E+00  0.33936641343E+02  0.33936641343E+02  0.00000000000E+00 0. -1.
         -1   -1    0    0    0  501 -0.00000000000E+00 -0.00000000000E+00 -0.65767646983E+02  0.65767646983E+02  0.00000000000E+00 0.  1.
         23    2    1    2    0    0  0.00000000000E+00  0.00000000000E+00 -0.31831005641E+02  0.99704288326E+02  0.94486677318E+02 0.  0.
        -13    1    3    3    0    0 -0.23124387651E+02  0.62298585065E+01  0.27056529116E+02  0.36133145573E+02  0.00000000000E+00 0. -1.
         13    1    3    3    0    0  0.23124387651E+02 -0.62298585065E+01 -0.58887534756E+02  0.63571142753E+02  0.00000000000E+00 0.  1.
<mgrwt>
<rscale>  0 0.94486677E+02</rscale>
<asrwt>0</asrwt>
<pdfrwt beam="1">  1        1 0.52210219E-02 0.94486677E+02</pdfrwt>
<pdfrwt beam="2">  1       -1 0.10118099E-01 0.94486677E+02</pdfrwt>
<totfact> 0.79821241E+04</totfact>
</mgrwt>
</event>
<event>
 5    1  0.6085374E+000  0.9131694E+02  0.7546771E-02  0.1299694E+00
         -4   -1    0    0    0  501 -0.00000000000E+00  0.00000000000E+00  0.20701134218E+02  0.20701134218E+02  0.00000000000E+00 0.  1.
          4   -1    0    0  501    0  0.00000000000E+00 -0.00000000000E+00 -0.10070443043E+03  0.10070443043E+03  0.00000000000E+00 0. -1.
         23    2    1    2    0    0  0.00000000000E+00  0.00000000000E+00 -0.80003296216E+02  0.12140556465E+03  0.91316941053E+02 0.  0.
        -13    1    3    3    0    0  0.24994927705E+02  0.38084674597E+02 -0.44100958734E+02  0.63404127715E+02  0.00000000000E+00 0.  1.
         13    1    3    3    0    0 -0.24994927705E+02 -0.38084674597E+02 -0.35902337482E+02  0.58001436937E+02  0.00000000000E+00 0. -1.
<mgrwt>
<rscale>  0 0.91316941E+02</rscale>
<asrwt>0</asrwt>
<pdfrwt beam="2">  1        4 0.15492989E-01 0.91316941E+02</pdfrwt>
<pdfrwt beam="1">  1       -4 0.31847899E-02 0.91316941E+02</pdfrwt>
<totfact> 0.25088770E+04</totfact>
</mgrwt>
</event>
<event>
 5    1  0.6085374E+000  0.8444947E+02  0.7546771E-02  0.1316879E+00
          1   -1    0    0  501    0  0.00000000000E+00  0.00000000000E+00  0.49179647874E+01  0.49179647874E+01  0.00000000000E+00 0. -1.
         -1   -1    0    0    0  501 -0.00000000000E+00 -0.00000000000E+00 -0.36253376976E+03  0.36253376976E+03  0.00000000000E+00 0.  1.
         23    2    1    2    0    0  0.00000000000E+00  0.00000000000E+00 -0.35761580498E+03  0.36745173455E+03  0.84449471614E+02 0.  0.
        -13    1    3    3    0    0 -0.40997494519E+02  0.31512124344E+01 -0.13702704539E+03  0.14306339806E+03  0.00000000000E+00 0. -1.
         13    1    3    3    0    0  0.40997494519E+02 -0.31512124344E+01 -0.22058875958E+03  0.22438833649E+03  0.00000000000E+00 0.  1.
<mgrwt>
<rscale>  0 0.84449472E+02</rscale>
<asrwt>0</asrwt>
<pdfrwt beam="1">  1        1 0.75660991E-03 0.84449472E+02</pdfrwt>
<pdfrwt beam="2">  1       -1 0.55774430E-01 0.84449472E+02</pdfrwt>
<totfact> 0.68262060E+04</totfact>
</mgrwt>
</event>
<event>
 5    1  0.6085374E+000  0.9055214E+02  0.7546771E-02  0.1301520E+00
         -1   -1    0    0    0  501 -0.00000000000E+00  0.00000000000E+00  0.22923765479E+02  0.22923765479E+02  0.00000000000E+00 0.  1.
          1   -1    0    0  501    0  0.00000000000E+00 -0.00000000000E+00 -0.89423458259E+02  0.89423458259E+02  0.00000000000E+00 0. -1.
         23    2    1    2    0    0  0.00000000000E+00  0.00000000000E+00 -0.66499692780E+02  0.11234722374E+03  0.90552137146E+02 0.  0.
        -13    1    3    3    0    0 -0.14271635471E+02 -0.42814986417E+02 -0.37743776664E+02  0.58833624041E+02  0.00000000000E+00 0. -1.
         13    1    3    3    0    0  0.14271635471E+02  0.42814986417E+02 -0.28755916116E+02  0.53513599697E+02  0.00000000000E+00 0.  1.
<mgrwt>
<rscale>  0 0.90552137E+02</rscale>
<asrwt>0</asrwt>
<pdfrwt beam="2">  1        1 0.13757455E-01 0.90552137E+02</pdfrwt>
<pdfrwt beam="1">  1       -1 0.35267331E-02 0.90552137E+02</pdfrwt>
<totfact> 0.10449826E+05</totfact>
</mgrwt>
</event>
<event>
 5    1  0.6085374E+000  0.9123641E+02  0.7546771E-02  0.1299885E+00
         -2   -1    0    0    0  501 -0.00000000000E+00  0.00000000000E+00  0.83917651151E+01  0.83917651151E+01  0.00000000000E+00 0.  1.
          2   -1    0    0  501    0  0.00000000000E+00 -0.00000000000E+00 -0.24798363523E+03  0.24798363523E+03  0.00000000000E+00 0. -1.
         23    2    1    2    0    0  0.00000000000E+00  0.00000000000E+00 -0.23959187012E+03  0.25637540035E+03  0.91236405437E+02 0.  0.
        -13    1    3    3    0    0 -0.32055811951E+02  0.31555455024E+02 -0.14114067235E+03  0.14813511135E+03  0.00000000000E+00 0. -1.
         13    1    3    3    0    0  0.32055811951E+02 -0.31555455024E+02 -0.98451197765E+02  0.10824028900E+03  0.00000000000E+00 0.  1.
<mgrwt>
<rscale>  0 0.91236405E+02</rscale>
<asrwt>0</asrwt>
<pdfrwt beam="2">  1        2 0.38151325E-01 0.91236405E+02</pdfrwt>
<pdfrwt beam="1">  1       -2 0.12910409E-02 0.91236405E+02</pdfrwt>
<totfact> 0.16706550E+05</totfact>
</mgrwt>
</event>
<event>
 5    1  0.6085374E+000  0.9598607E+02  0.7546771E-02  0.1288971E+00
         -3   -1    0    0    0  501 -0.00000000000E+00  0.00000000000E+00  0.16540228613E+02  0.16540228613E+02  0.00000000000E+00 0.  1.
          3   -1    0    0  501    0  0.00000000000E+00 -0.00000000000E+00 -0.13925633205E+03  0.13925633205E+03  0.00000000000E+00 0. -1.
         23    2    1    2    0    0  0.00000000000E+00  0.00000000000E+00 -0.12271610344E+03  0.15579656067E+03  0.95986073324E+02 0.  0.
        -13    1    3    3    0    0 -0.10967819339E+02  0.33592388036E+02 -0.86482406740E+01  0.36380402166E+02  0.00000000000E+00 0.  1.
         13    1    3    3    0    0  0.10967819339E+02 -0.33592388036E+02 -0.11406786277E+03  0.11941615850E+03  0.00000000000E+00 0. -1.
<mgrwt>
<rscale>  0 0.95986073E+02</rscale>
<asrwt>0</asrwt>
<pdfrwt beam="2">  1        3 0.21424052E-01 0.95986073E+02</pdfrwt>
<pdfrwt beam="1">  1       -3 0.25446505E-02 0.95986073E+02</pdfrwt>
<totfact> 0.26918933E+04</totfact>
</mgrwt>
</event>
<event>
 5    1  0.6085374E+000  0.9045822E+02  0.7546771E-02  0.1301746E+00
         -3   -1    0    0    0  501 -0.00000000000E+00  0.00000000000E+00  0.55385113835E+02  0.55385113835E+02  0.00000000000E+00 0.  1.
          3   -1    0    0  501    0  0.00000000000E+00 -0.00000000000E+00 -0.36935418291E+02  0.36935418291E+02  0.00000000000E+00 0. -1.
         23    2    1    2    0    0  0.00000000000E+00  0.00000000000E+00  0.18449695544E+02  0.92320532126E+02  0.90458219010E+02 0.  0.
        -13    1    3    3    0    0 -0.25941211529E+02  0.34505605805E+02  0.22996694861E+02  0.48912485748E+02  0.00000000000E+00 0.  1.
         13    1    3    3    0    0  0.25941211529E+02 -0.34505605805E+02 -0.45469993163E+01  0.43408046378E+02  0.00000000000E+00 0. -1.
<mgrwt>
<rscale>  0 0.90458219E+02</rscale>
<asrwt>0</asrwt>
<pdfrwt beam="2">  1        3 0.56823720E-02 0.90458219E+02</pdfrwt>
<pdfrwt beam="1">  1       -3 0.85207868E-02 0.90458219E+02</pdfrwt>
<totfact> 0.36018561E+04</totfact>
</mgrwt>
</event>
<event>
 5    1  0.6085374E+000  0.9021275E+02  0.7546771E-02  0.1302337E+00
         -2   -1    0    0    0  501 -0.00000000000E+00  0.00000000000E+00  0.18002805964E+03  0.18002805964E+03  0.00000000000E+00 0.  1.
          2   -1    0    0  501    0  0.00000000000E+00 -0.00000000000E+00 -0.11301489057E+02  0.11301489057E+02  0.00000000000E+00 0. -1.
         23    2    1    2    0    0  0.00000000000E+00  0.00000000000E+00  0.16872657059E+03  0.19132954870E+03  0.90212751780E+02 0.  0.
        -13    1    3    3    0    0 -0.38981371508E+02  0.29972657233E+01  0.36652930970E+02  0.53590748037E+02  0.00000000000E+00 0. -1.
         13    1    3    3    0    0  0.38981371508E+02 -0.29972657233E+01  0.13207363962E+03  0.13773880066E+03  0.00000000000E+00 0.  1.
<mgrwt>
<rscale>  0 0.90212752E+02</rscale>
<asrwt>0</asrwt>
<pdfrwt beam="2">  1        2 0.17386908E-02 0.90212752E+02</pdfrwt>
<pdfrwt beam="1">  1       -2 0.27696622E-01 0.90212752E+02</pdfrwt>
<totfact> 0.66914914E+04</totfact>
</mgrwt>
</event>
<event>
 5    1  0.6085374E+000  0.9125549E+02  0.7546771E-02  0.1299840E+00
          2   -1    0    0  501    0  0.00000000000E+00  0.00000000000E+00  0.63360942688E+01  0.63360942688E+01  0.00000000000E+00 0.  1.
         -2   -1    0    0    0  501 -0.00000000000E+00 -0.00000000000E+00 -0.32857642283E+03  0.32857642283E+03  0.00000000000E+00 0. -1.
         23    2    1    2    0    0  0.00000000000E+00  0.00000000000E+00 -0.32224032856E+03  0.33491251709E+03  0.91255491660E+02 0.  0.
        -13    1    3    3    0    0  0.43918130154E+02 -0.66391006503E+01 -0.12280168365E+03  0.13058764613E+03  0.00000000000E+00 0.  1.
         13    1    3    3    0    0 -0.43918130154E+02  0.66391006503E+01 -0.19943864491E+03  0.20432487097E+03  0.00000000000E+00 0. -1.
<mgrwt>
<rscale>  0 0.91255492E+02</rscale>
<asrwt>0</asrwt>
<pdfrwt beam="1">  1        2 0.97478356E-03 0.91255492E+02</pdfrwt>
<pdfrwt beam="2">  1       -2 0.50550228E-01 0.91255492E+02</pdfrwt>
<totfact> 0.48274924E+04</totfact>
</mgrwt>
</event>
<event>
 5    1  0.6085374E+000  0.8938869E+02  0.7546771E-02  0.1304339E+00
         -1   -1    0    0    0  501 -0.00000000000E+00  0.00000000000E+00  0.28135125488E+02  0.28135125488E+02  0.00000000000E+00 0.  1.
          1   -1    0    0  501    0  0.00000000000E+00 -0.00000000000E+00 -0.70999668586E+02  0.70999668586E+02  0.00000000000E+00 0. -1.
         23    2    1    2    0    0  0.00000000000E+00  0.00000000000E+00 -0.42864543098E+02  0.99134794074E+02  0.89388692468E+02 0.  0.
        -13    1    3    3    0    0 -0.11953242027E+02  0.29309686970E+02  0.13561937668E+02  0.34436374643E+02  0.00000000000E+00 0.  1.
         13    1    3    3    0    0  0.11953242027E+02 -0.29309686970E+02 -0.56426480766E+02  0.64698419431E+02  0.00000000000E+00 0. -1.
<mgrwt>
<rscale>  0 0.89388692E+02</rscale>
<asrwt>0</asrwt>
<pdfrwt beam="2">  1        1 0.10923026E-01 0.89388692E+02</pdfrwt>
<pdfrwt beam="1">  1       -1 0.43284809E-02 0.89388692E+02</pdfrwt>
<totfact> 0.10441951E+05</totfact>
</mgrwt>
</event>
<event>
 5    1  0.6085374E+000  0.8946264E+02  0.7546771E-02  0.1304158E+00
         -1   -1    0    0    0  501 -0.00000000000E+00  0.00000000000E+00  0.35237861238E+02  0.35237861238E+02  0.00000000000E+00 0.  1.
          1   -1    0    0  501    0  0.00000000000E+00 -0.00000000000E+00 -0.56782419349E+02  0.56782419349E+02  0.00000000000E+00 0. -1.
         23    2    1    2    0    0  0.00000000000E+00  0.00000000000E+00 -0.21544558111E+02  0.92020280588E+02  0.89462640556E+02 0.  0.
        -13    1    3    3    0    0 -0.19367951015E+02 -0.33309065398E+02  0.12599100255E+02  0.40538237399E+02  0.00000000000E+00 0.  1.
         13    1    3    3    0    0  0.19367951015E+02  0.33309065398E+02 -0.34143658366E+02  0.51482043188E+02  0.00000000000E+00 0. -1.
<mgrwt>
<rscale>  0 0.89462641E+02</rscale>
<asrwt>0</asrwt>
<pdfrwt beam="2">  1        1 0.87357567E-02 0.89462641E+02</pdfrwt>
<pdfrwt beam="1">  1       -1 0.54212095E-02 0.89462641E+02</pdfrwt>
<totfact> 0.10073859E+05</totfact>
</mgrwt>
</event>
<event>
 5    1  0.6085374E+000  0.8789407E+02  0.7546771E-02  0.1308033E+00
          1   -1    0    0  501    0  0.00000000000E+00  0.00000000000E+00  0.46958881608E+02  0.46958881608E+02  0.00000000000E+00 0. -1.
         -1   -1    0    0    0  501 -0.00000000000E+00 -0.00000000000E+00 -0.41128360927E+02  0.41128360927E+02  0.00000000000E+00 0.  1.
         23    2    1    2    0    0  0.00000000000E+00  0.00000000000E+00  0.58305206808E+01  0.88087242534E+02  0.87894068775E+02 0.  0.
        -13    1    3    3    0    0  0.43048026172E+02  0.66562834128E+01 -0.29201791392E+01  0.43657371799E+02  0.00000000000E+00 0.  1.
         13    1    3    3    0    0 -0.43048026172E+02 -0.66562834128E+01  0.87506998200E+01  0.44429870735E+02  0.00000000000E+00 0. -1.
<mgrwt>
<rscale>  0 0.87894069E+02</rscale>
<asrwt>0</asrwt>
<pdfrwt beam="1">  1        1 0.72244434E-02 0.87894069E+02</pdfrwt>
<pdfrwt beam="2">  1       -1 0.63274401E-02 0.87894069E+02</pdfrwt>
<totfact> 0.10289958E+05</totfact>
</mgrwt>
</event>
<event>
 5    1  0.6085374E+000  0.9065218E+02  0.7546771E-02  0.1301280E+00
          1   -1    0    0  501    0  0.00000000000E+00  0.00000000000E+00  0.19921243346E+03  0.19921243346E+03  0.00000000000E+00 0. -1.
         -1   -1    0    0    0  501 -0.00000000000E+00 -0.00000000000E+00 -0.10312883224E+02  0.10312883224E+02  0.00000000000E+00 0.  1.
         23    2    1    2    0    0  0.00000000000E+00  0.00000000000E+00  0.18889955023E+03  0.20952531668E+03  0.90652182830E+02 0.  0.
        -13    1    3    3    0    0  0.13645108128E+02 -0.36307998199E+02  0.14865455095E+03  0.15363149165E+03  0.00000000000E+00 0. -1.
         13    1    3    3    0    0 -0.13645108128E+02  0.36307998199E+02  0.40244999282E+02  0.55893825028E+02  0.00000000000E+00 0.  1.
<mgrwt>
<rscale>  0 0.90652183E+02</rscale>
<asrwt>0</asrwt>
<pdfrwt beam="1">  1        1 0.30648064E-01 0.90652183E+02</pdfrwt>
<pdfrwt beam="2">  1       -1 0.15865976E-02 0.90652183E+02</pdfrwt>
<totfact> 0.12015972E+05</totfact>
</mgrwt>
</event>
<event>
 5    1  0.6085374E+000  0.9153852E+02  0.7546771E-02  0.1299168E+00
         -1   -1    0    0    0  501 -0.00000000000E+00  0.00000000000E+00  0.53227336070E+02  0.53227336070E+02  0.00000000000E+00 0.  1.
          1   -1    0    0  501    0  0.00000000000E+00 -0.00000000000E+00 -0.39356189607E+02  0.39356189607E+02  0.00000000000E+00 0. -1.
         23    2    1    2    0    0  0.00000000000E+00  0.00000000000E+00  0.13871146463E+02  0.92583525677E+02  0.91538519338E+02 0.  0.
        -13    1    3    3    0    0 -0.25387562607E+02  0.11168238378E+02 -0.29888405767E+02  0.40774681886E+02  0.00000000000E+00 0. -1.
         13    1    3    3    0    0  0.25387562607E+02 -0.11168238378E+02  0.43759552230E+02  0.51808843791E+02  0.00000000000E+00 0.  1.
<mgrwt>
<rscale>  0 0.91538519E+02</rscale>
<asrwt>0</asrwt>
<pdfrwt beam="2">  1        1 0.60547984E-02 0.91538519E+02</pdfrwt>
<pdfrwt beam="1">  1       -1 0.81888210E-02 0.91538519E+02</pdfrwt>
<totfact> 0.89432223E+04</totfact>
</mgrwt>
</event>
<event>
 5    1  0.6085374E+000  0.9147585E+02  0.7546771E-02  0.1299317E+00
         -1   -1    0    0    0  501 -0.00000000000E+00  0.00000000000E+00  0.81948755942E+01  0.81948755942E+01  0.00000000000E+00 0.  1.
          1   -1    0    0  501    0  0.00000000000E+00 -0.00000000000E+00 -0.25527634308E+03  0.25527634308E+03  0.00000000000E+00 0. -1.
         23    2    1    2    0    0  0.00000000000E+00  0.00000000000E+00 -0.24708146749E+03  0.26347121867E+03  0.91475851976E+02 0.  0.
        -13    1    3    3    0    0 -0.32706849374E+02 -0.31037927167E+02 -0.14563921883E+03  0.15245941421E+03  0.00000000000E+00 0. -1.
         13    1    3    3    0    0  0.32706849374E+02  0.31037927167E+02 -0.10144224865E+03  0.11101180447E+03  0.00000000000E+00 0.  1.
<mgrwt>
<rscale>  0 0.91475852E+02</rscale>
<asrwt>0</asrwt>
<pdfrwt beam="2">  1        1 0.39273288E-01 0.91475852E+02</pdfrwt>
<pdfrwt beam="1">  1       -1 0.12607500E-02 0.91475852E+02</pdfrwt>
<totfact> 0.12309163E+05</totfact>
</mgrwt>
</event>
<event>
 5    1  0.6085374E+000  0.8947332E+02  0.7546771E-02  0.1304132E+00
         -1   -1    0    0    0  501 -0.00000000000E+00  0.00000000000E+00  0.93259324535E+01  0.93259324535E+01  0.00000000000E+00 0.  1.
          1   -1    0    0  501    0  0.00000000000E+00 -0.00000000000E+00 -0.21460255003E+03  0.21460255003E+03  0.00000000000E+00 0. -1.
         23    2    1    2    0    0  0.00000000000E+00  0.00000000000E+00 -0.20527661758E+03  0.22392848249E+03  0.89473323085E+02 0.  0.
        -13    1    3    3    0    0  0.27157668604E+02  0.21400195618E+02 -0.31591269140E+02  0.46834982891E+02  0.00000000000E+00 0.  1.
         13    1    3    3    0    0 -0.27157668604E+02 -0.21400195618E+02 -0.17368534844E+03  0.17709349960E+03  0.00000000000E+00 0. -1.
<mgrwt>
<rscale>  0 0.89473323E+02</rscale>
<asrwt>0</asrwt>
<pdfrwt beam="2">  1        1 0.33015775E-01 0.89473323E+02</pdfrwt>
<pdfrwt beam="1">  1       -1 0.14347589E-02 0.89473323E+02</pdfrwt>
<totfact> 0.12624963E+05</totfact>
</mgrwt>
</event>
<event>
 5    1  0.6085374E+000  0.9235133E+02  0.7546771E-02  0.1297255E+00
         -2   -1    0    0    0  501 -0.00000000000E+00  0.00000000000E+00  0.84770388876E+02  0.84770388876E+02  0.00000000000E+00 0.  1.
          2   -1    0    0  501    0  0.00000000000E+00 -0.00000000000E+00 -0.25152557104E+02  0.25152557104E+02  0.00000000000E+00 0. -1.
         23    2    1    2    0    0  0.00000000000E+00  0.00000000000E+00  0.59617831772E+02  0.10992294598E+03  0.92351330190E+02 0.  0.
        -13    1    3    3    0    0  0.13588483108E+02  0.14971113895E+02 -0.19603902360E+02  0.28161926642E+02  0.00000000000E+00 0. -1.
         13    1    3    3    0    0 -0.13588483108E+02 -0.14971113895E+02  0.79221734132E+02  0.81761019339E+02  0.00000000000E+00 0.  1.
<mgrwt>
<rscale>  0 0.92351330E+02</rscale>
<asrwt>0</asrwt>
<pdfrwt beam="2">  1        2 0.38696242E-02 0.92351330E+02</pdfrwt>
<pdfrwt beam="1">  1       -2 0.13041598E-01 0.92351330E+02</pdfrwt>
<totfact> 0.81114127E+04</totfact>
</mgrwt>
</event>
<event>
 5    1  0.6085374E+000  0.9121648E+02  0.7546771E-02  0.1299932E+00
          4   -1    0    0  501    0  0.00000000000E+00  0.00000000000E+00  0.11338987396E+03  0.11338987396E+03  0.00000000000E+00 0. -1.
         -4   -1    0    0    0  501 -0.00000000000E+00 -0.00000000000E+00 -0.18344772644E+02  0.18344772644E+02  0.00000000000E+00 0.  1.
         23    2    1    2    0    0  0.00000000000E+00  0.00000000000E+00  0.95045101312E+02  0.13173464660E+03  0.91216477850E+02 0.  0.
        -13    1    3    3    0    0 -0.39611616850E+02  0.21768740660E+02  0.38719669965E+02  0.59516141521E+02  0.00000000000E+00 0.  1.
         13    1    3    3    0    0  0.39611616850E+02 -0.21768740660E+02  0.56325431347E+02  0.72218505079E+02  0.00000000000E+00 0. -1.
<mgrwt>
<rscale>  0 0.91216478E+02</rscale>
<asrwt>0</asrwt>
<pdfrwt beam="1">  1        4 0.17444596E-01 0.91216478E+02</pdfrwt>
<pdfrwt beam="2">  1       -4 0.28222728E-02 0.91216478E+02</pdfrwt>
<totfact> 0.24594961E+04</totfact>
</mgrwt>
</event>
<event>
 5    1  0.6085374E+000  0.9079638E+02  0.7546771E-02  0.1300935E+00
         -4   -1    0    0    0  501 -0.00000000000E+00  0.00000000000E+00  0.18654800891E+03  0.18654800891E+03  0.00000000000E+00 0.  1.
          4   -1    0    0  501    0  0.00000000000E+00 -0.00000000000E+00 -0.11048071999E+02  0.11048071999E+02  0.00000000000E+00 0. -1.
         23    2    1    2    0    0  0.00000000000E+00  0.00000000000E+00  0.17549993692E+03  0.19759608091E+03  0.90796383931E+02 0.  0.
        -13    1    3    3    0    0  0.24225428798E+02 -0.28757409886E+02  0.32388514135E+02  0.49627370186E+02  0.00000000000E+00 0. -1.
         13    1    3    3    0    0 -0.24225428798E+02  0.28757409886E+02  0.14311142278E+03  0.14796871073E+03  0.00000000000E+00 0.  1.
<mgrwt>
<rscale>  0 0.90796384E+02</rscale>
<asrwt>0</asrwt>
<pdfrwt beam="2">  1        4 0.16997035E-02 0.90796384E+02</pdfrwt>
<pdfrwt beam="1">  1       -4 0.28699691E-01 0.90796384E+02</pdfrwt>
<totfact> 0.21728742E+04</totfact>
</mgrwt>
</event>
<event>
 5    1  0.6085374E+000  0.8934941E+02  0.7546771E-02  0.1304435E+00
         -3   -1    0    0    0  501 -0.00000000000E+00  0.00000000000E+00  0.16890651627E+02  0.16890651627E+02  0.00000000000E+00 0. -1.
          3   -1    0    0  501    0  0.00000000000E+00 -0.00000000000E+00 -0.11816177936E+03  0.11816177936E+03  0.00000000000E+00 0.  1.
         23    2    1    2    0    0  0.00000000000E+00  0.00000000000E+00 -0.10127112774E+03  0.13505243099E+03  0.89349414117E+02 0.  0.
        -13    1    3    3    0    0 -0.17458106500E+02 -0.10019320010E+02 -0.11091913812E+03  0.11273077423E+03  0.00000000000E+00 0.  1.
         13    1    3    3    0    0  0.17458106500E+02  0.10019320010E+02  0.96480103887E+01  0.22321656760E+02  0.00000000000E+00 0. -1.
<mgrwt>
<rscale>  0 0.89349414E+02</rscale>
<asrwt>0</asrwt>
<pdfrwt beam="2">  1        3 0.18178735E-01 0.89349414E+02</pdfrwt>
<pdfrwt beam="1">  1       -3 0.25985618E-02 0.89349414E+02</pdfrwt>
<totfact> 0.34061531E+04</totfact>
</mgrwt>
</event>
<event>
 5    1  0.6085374E+000  0.8959859E+02  0.7546771E-02  0.1303827E+00
         -3   -1    0    0    0  501 -0.00000000000E+00  0.00000000000E+00  0.71537485679E+02  0.71537485679E+02  0.00000000000E+00 0.  1.
          3   -1    0    0  501    0  0.00000000000E+00 -0.00000000000E+00 -0.28054895774E+02  0.28054895774E+02  0.00000000000E+00 0. -1.
         23    2    1    2    0    0  0.00000000000E+00  0.00000000000E+00  0.43482589905E+02  0.99592381454E+02  0.89598587147E+02 0.  0.
        -13    1    3    3    0    0  0.31613097629E+02 -0.24533190686E+02  0.44130234174E+02  0.59571326619E+02  0.00000000000E+00 0.  1.
         13    1    3    3    0    0 -0.31613097629E+02  0.24533190686E+02 -0.64764426895E+00  0.40021054834E+02  0.00000000000E+00 0. -1.
<mgrwt>
<rscale>  0 0.89598587E+02</rscale>
<asrwt>0</asrwt>
<pdfrwt beam="2">  1        3 0.43161379E-02 0.89598587E+02</pdfrwt>
<pdfrwt beam="1">  1       -3 0.11005767E-01 0.89598587E+02</pdfrwt>
<totfact> 0.36387778E+04</totfact>
</mgrwt>
</event>
<event>
 5    1  0.6085374E+000  0.9046386E+02  0.7546771E-02  0.1301732E+00
          3   -1    0    0  501    0  0.00000000000E+00  0.00000000000E+00  0.12129343964E+02  0.12129343964E+02  0.00000000000E+00 0. -1.
         -3   -1    0    0    0  501 -0.00000000000E+00 -0.00000000000E+00 -0.16867585853E+03  0.16867585853E+03  0.00000000000E+00 0.  1.
         23    2    1    2    0    0  0.00000000000E+00  0.00000000000E+00 -0.15654651457E+03  0.18080520249E+03  0.90463860331E+02 0.  0.
        -13    1    3    3    0    0 -0.22906752165E+02 -0.22267117921E+02 -0.14227311450E+03  0.14581557853E+03  0.00000000000E+00 0.  1.
         13    1    3    3    0    0  0.22906752165E+02  0.22267117921E+02 -0.14273400072E+02  0.34989623960E+02  0.00000000000E+00 0. -1.
<mgrwt>
<rscale>  0 0.90463860E+02</rscale>
<asrwt>0</asrwt>
<pdfrwt beam="1">  1        3 0.18660530E-02 0.90463860E+02</pdfrwt>
<pdfrwt beam="2">  1       -3 0.25950132E-01 0.90463860E+02</pdfrwt>
<totfact> 0.30153384E+04</totfact>
</mgrwt>
</event>
<event>
 5    1  0.6085374E+000  0.9282122E+02  0.7546771E-02  0.1296160E+00
          1   -1    0    0  501    0  0.00000000000E+00  0.00000000000E+00  0.35794028804E+02  0.35794028804E+02  0.00000000000E+00 0. -1.
         -1   -1    0    0    0  501 -0.00000000000E+00 -0.00000000000E+00 -0.60176084809E+02  0.60176084809E+02  0.00000000000E+00 0.  1.
         23    2    1    2    0    0  0.00000000000E+00  0.00000000000E+00 -0.24382056005E+02  0.95970113613E+02  0.92821215527E+02 0.  0.
        -13    1    3    3    0    0  0.25104599859E+02  0.31433243865E+02  0.11738340708E+02  0.41905589084E+02  0.00000000000E+00 0.  1.
         13    1    3    3    0    0 -0.25104599859E+02 -0.31433243865E+02 -0.36120396713E+02  0.54064524529E+02  0.00000000000E+00 0. -1.
<mgrwt>
<rscale>  0 0.92821216E+02</rscale>
<asrwt>0</asrwt>
<pdfrwt beam="1">  1        1 0.55067737E-02 0.92821216E+02</pdfrwt>
<pdfrwt beam="2">  1       -1 0.92578591E-02 0.92821216E+02</pdfrwt>
<totfact> 0.84708187E+04</totfact>
</mgrwt>
</event>
<event>
 5    1  0.6085374E+000  0.9206123E+02  0.7546771E-02  0.1297936E+00
          1   -1    0    0  501    0  0.00000000000E+00  0.00000000000E+00  0.15390066939E+02  0.15390066939E+02  0.00000000000E+00 0. -1.
         -1   -1    0    0    0  501 -0.00000000000E+00 -0.00000000000E+00 -0.13767435380E+03  0.13767435380E+03  0.00000000000E+00 0.  1.
         23    2    1    2    0    0  0.00000000000E+00  0.00000000000E+00 -0.12228428686E+03  0.15306442074E+03  0.92061230077E+02 0.  0.
        -13    1    3    3    0    0  0.56540526543E+01  0.39205978071E+02 -0.10012524080E+03  0.10767609239E+03  0.00000000000E+00 0.  1.
         13    1    3    3    0    0 -0.56540526543E+01 -0.39205978071E+02 -0.22159046068E+02  0.45388328352E+02  0.00000000000E+00 0. -1.
<mgrwt>
<rscale>  0 0.92061230E+02</rscale>
<asrwt>0</asrwt>
<pdfrwt beam="1">  1        1 0.23677025E-02 0.92061230E+02</pdfrwt>
<pdfrwt beam="2">  1       -1 0.21180671E-01 0.92061230E+02</pdfrwt>
<totfact> 0.74377987E+04</totfact>
</mgrwt>
</event>
<event>
 5    1  0.6085374E+000  0.8765683E+02  0.7546771E-02  0.1308627E+00
          2   -1    0    0  501    0  0.00000000000E+00  0.00000000000E+00  0.71771021250E+02  0.71771021250E+02  0.00000000000E+00 0. -1.
         -2   -1    0    0    0  501 -0.00000000000E+00 -0.00000000000E+00 -0.26764700821E+02  0.26764700821E+02  0.00000000000E+00 0.  1.
         23    2    1    2    0    0  0.00000000000E+00  0.00000000000E+00  0.45006320429E+02  0.98535722071E+02  0.87656828859E+02 0.  0.
        -13    1    3    3    0    0  0.38011211502E+02  0.15040470998E+02  0.47343640533E+01  0.41151940059E+02  0.00000000000E+00 0. -1.
         13    1    3    3    0    0 -0.38011211502E+02 -0.15040470998E+02  0.40271956376E+02  0.57383782012E+02  0.00000000000E+00 0.  1.
<mgrwt>
<rscale>  0 0.87656829E+02</rscale>
<asrwt>0</asrwt>
<pdfrwt beam="1">  1        2 0.11041695E-01 0.87656829E+02</pdfrwt>
<pdfrwt beam="2">  1       -2 0.41176463E-02 0.87656829E+02</pdfrwt>
<totfact> 0.12428704E+05</totfact>
</mgrwt>
</event>
<event>
 5    1  0.6085374E+000  0.9232414E+02  0.7546771E-02  0.1297319E+00
         -2   -1    0    0    0  501 -0.00000000000E+00  0.00000000000E+00  0.69546954017E+01  0.69546954017E+01  0.00000000000E+00 0.  1.
          2   -1    0    0  501    0  0.00000000000E+00 -0.00000000000E+00 -0.30640261749E+03  0.30640261749E+03  0.00000000000E+00 0. -1.
         23    2    1    2    0    0  0.00000000000E+00  0.00000000000E+00 -0.29944792209E+03  0.31335731289E+03  0.92324143645E+02 0.  0.
        -13    1    3    3    0    0  0.43634551753E+02  0.11310214517E+02 -0.18350195420E+03  0.18895730273E+03  0.00000000000E+00 0.  1.
         13    1    3    3    0    0 -0.43634551753E+02 -0.11310214517E+02 -0.11594596789E+03  0.12440001017E+03  0.00000000000E+00 0. -1.
<mgrwt>
<rscale>  0 0.92324144E+02</rscale>
<asrwt>0</asrwt>
<pdfrwt beam="2">  1        2 0.47138862E-01 0.92324144E+02</pdfrwt>
<pdfrwt beam="1">  1       -2 0.10699532E-02 0.92324144E+02</pdfrwt>
<totfact> 0.17513021E+05</totfact>
</mgrwt>
</event>
<event>
 5    1  0.6085374E+000  0.9184644E+02  0.7546771E-02  0.1298441E+00
         -3   -1    0    0    0  501 -0.00000000000E+00  0.00000000000E+00  0.31907015038E+02  0.31907015038E+02  0.00000000000E+00 0.  1.
          3   -1    0    0  501    0  0.00000000000E+00 -0.00000000000E+00 -0.66096498066E+02  0.66096498066E+02  0.00000000000E+00 0. -1.
         23    2    1    2    0    0  0.00000000000E+00  0.00000000000E+00 -0.34189483028E+02  0.98003513105E+02  0.91846436138E+02 0.  0.
        -13    1    3    3    0    0  0.25125170156E+02  0.38380184880E+02 -0.19390530057E+02  0.49802664815E+02  0.00000000000E+00 0. -1.
         13    1    3    3    0    0 -0.25125170156E+02 -0.38380184880E+02 -0.14798952971E+02  0.48200848290E+02  0.00000000000E+00 0.  1.
<mgrwt>
<rscale>  0 0.91846436E+02</rscale>
<asrwt>0</asrwt>
<pdfrwt beam="2">  1        3 0.10168692E-01 0.91846436E+02</pdfrwt>
<pdfrwt beam="1">  1       -3 0.49087716E-02 0.91846436E+02</pdfrwt>
<totfact> 0.34131549E+04</totfact>
</mgrwt>
</event>
<event>
 5    1  0.6085374E+000  0.8976542E+02  0.7546771E-02  0.1303421E+00
          1   -1    0    0  501    0  0.00000000000E+00  0.00000000000E+00  0.41276210138E+03  0.41276210138E+03  0.00000000000E+00 0. -1.
         -1   -1    0    0    0  501 -0.00000000000E+00 -0.00000000000E+00 -0.48804326586E+01  0.48804326586E+01  0.00000000000E+00 0.  1.
         23    2    1    2    0    0  0.00000000000E+00  0.00000000000E+00  0.40788166872E+03  0.41764253404E+03  0.89765419618E+02 0.  0.
        -13    1    3    3    0    0 -0.40354020536E+02  0.17060172632E+02  0.15860217237E+03  0.16454223028E+03  0.00000000000E+00 0.  1.
         13    1    3    3    0    0  0.40354020536E+02 -0.17060172632E+02  0.24927949635E+03  0.25310030377E+03  0.00000000000E+00 0. -1.
<mgrwt>
<rscale>  0 0.89765420E+02</rscale>
<asrwt>0</asrwt>
<pdfrwt beam="1">  1        1 0.63501834E-01 0.89765420E+02</pdfrwt>
<pdfrwt beam="2">  1       -1 0.75083612E-03 0.89765420E+02</pdfrwt>
<totfact> 0.14130233E+05</totfact>
</mgrwt>
</event>
<event>
 5    1  0.6085374E+000  0.9130916E+02  0.7546771E-02  0.1299712E+00
         -4   -1    0    0    0  501 -0.00000000000E+00  0.00000000000E+00  0.40405090497E+02  0.40405090497E+02  0.00000000000E+00 0.  1.
          4   -1    0    0  501    0  0.00000000000E+00 -0.00000000000E+00 -0.51586095745E+02  0.51586095745E+02  0.00000000000E+00 0. -1.
         23    2    1    2    0    0  0.00000000000E+00  0.00000000000E+00 -0.11181005249E+02  0.91991186242E+02  0.91309164205E+02 0.  0.
        -13    1    3    3    0    0  0.12802726665E+02 -0.19762499024E+02 -0.44996269296E+02  0.50785139837E+02  0.00000000000E+00 0. -1.
         13    1    3    3    0    0 -0.12802726665E+02  0.19762499024E+02  0.33815264047E+02  0.41206046405E+02  0.00000000000E+00 0.  1.
<mgrwt>
<rscale>  0 0.91309164E+02</rscale>
<asrwt>0</asrwt>
<pdfrwt beam="2">  1        4 0.79363225E-02 0.91309164E+02</pdfrwt>
<pdfrwt beam="1">  1       -4 0.62161677E-02 0.91309164E+02</pdfrwt>
<totfact> 0.26857996E+04</totfact>
</mgrwt>
</event>
<event>
 5    1  0.6085374E+000  0.9085273E+02  0.7546771E-02  0.1300800E+00
          3   -1    0    0  501    0  0.00000000000E+00  0.00000000000E+00  0.66653694814E+02  0.66653694814E+02  0.00000000000E+00 0. -1.
         -3   -1    0    0    0  501 -0.00000000000E+00 -0.00000000000E+00 -0.30959342567E+02  0.30959342567E+02  0.00000000000E+00 0.  1.
         23    2    1    2    0    0  0.00000000000E+00  0.00000000000E+00  0.35694352248E+02  0.97613037381E+02  0.90852728547E+02 0.  0.
        -13    1    3    3    0    0  0.23595574444E+01 -0.31714005710E+02  0.52698624997E+02  0.61550716861E+02  0.00000000000E+00 0. -1.
         13    1    3    3    0    0 -0.23595574444E+01  0.31714005710E+02 -0.17004272750E+02  0.36062320520E+02  0.00000000000E+00 0.  1.
<mgrwt>
<rscale>  0 0.90852729E+02</rscale>
<asrwt>0</asrwt>
<pdfrwt beam="1">  1        3 0.10254415E-01 0.90852729E+02</pdfrwt>
<pdfrwt beam="2">  1       -3 0.47629758E-02 0.90852729E+02</pdfrwt>
<totfact> 0.35188308E+04</totfact>
</mgrwt>
</event>
<event>
 5    1  0.6085374E+000  0.9086813E+02  0.7546771E-02  0.1300763E+00
         -2   -1    0    0    0  501 -0.00000000000E+00  0.00000000000E+00  0.24876681169E+02  0.24876681169E+02  0.00000000000E+00 0.  1.
          2   -1    0    0  501    0  0.00000000000E+00 -0.00000000000E+00 -0.82979484049E+02  0.82979484049E+02  0.00000000000E+00 0. -1.
         23    2    1    2    0    0  0.00000000000E+00  0.00000000000E+00 -0.58102802880E+02  0.10785616522E+03  0.90868127927E+02 0.  0.
        -13    1    3    3    0    0  0.34958007119E+02  0.22585548235E+02 -0.74213291952E+01  0.42275824981E+02  0.00000000000E+00 0.  1.
         13    1    3    3    0    0 -0.34958007119E+02 -0.22585548235E+02 -0.50681473685E+02  0.65580340237E+02  0.00000000000E+00 0. -1.
<mgrwt>
<rscale>  0 0.90868128E+02</rscale>
<asrwt>0</asrwt>
<pdfrwt beam="2">  1        2 0.12766074E-01 0.90868128E+02</pdfrwt>
<pdfrwt beam="1">  1       -2 0.38271817E-02 0.90868128E+02</pdfrwt>
<totfact> 0.11716627E+05</totfact>
</mgrwt>
</event>
<event>
 5    1  0.6085374E+000  0.9250311E+02  0.7546771E-02  0.1296901E+00
         -1   -1    0    0    0  501 -0.00000000000E+00  0.00000000000E+00  0.13464637684E+03  0.13464637684E+03  0.00000000000E+00 0.  1.
          1   -1    0    0  501    0  0.00000000000E+00 -0.00000000000E+00 -0.15887587671E+02  0.15887587671E+02  0.00000000000E+00 0. -1.
         23    2    1    2    0    0  0.00000000000E+00  0.00000000000E+00  0.11875878917E+03  0.15053396451E+03  0.92503105173E+02 0.  0.
        -13    1    3    3    0    0  0.34959526422E+01  0.46116999996E+02  0.60119329937E+02  0.75850729763E+02  0.00000000000E+00 0.  1.
         13    1    3    3    0    0 -0.34959526422E+01 -0.46116999996E+02  0.58639459234E+02  0.74683234750E+02  0.00000000000E+00 0. -1.
<mgrwt>
<rscale>  0 0.92503105E+02</rscale>
<asrwt>0</asrwt>
<pdfrwt beam="2">  1        1 0.24442443E-02 0.92503105E+02</pdfrwt>
<pdfrwt beam="1">  1       -1 0.20714827E-01 0.92503105E+02</pdfrwt>
<totfact> 0.73821429E+04</totfact>
</mgrwt>
</event>
<event>
 5    1  0.6085374E+000  0.9276231E+02  0.7546771E-02  0.1296297E+00
         -1   -1    0    0    0  501 -0.00000000000E+00  0.00000000000E+00  0.10700885920E+02  0.10700885920E+02  0.00000000000E+00 0.  1.
          1   -1    0    0  501    0  0.00000000000E+00 -0.00000000000E+00 -0.20103117364E+03  0.20103117364E+03  0.00000000000E+00 0. -1.
         23    2    1    2    0    0  0.00000000000E+00  0.00000000000E+00 -0.19033028772E+03  0.21173205956E+03  0.92762312510E+02 0.  0.
        -13    1    3    3    0    0 -0.14209929968E+02 -0.41710719297E+02 -0.62127222965E+02  0.76167565587E+02  0.00000000000E+00 0.  1.
         13    1    3    3    0    0  0.14209929968E+02  0.41710719297E+02 -0.12820306475E+03  0.13556449397E+03  0.00000000000E+00 0. -1.
<mgrwt>
<rscale>  0 0.92762313E+02</rscale>
<asrwt>0</asrwt>
<pdfrwt beam="2">  1        1 0.30927871E-01 0.92762313E+02</pdfrwt>
<pdfrwt beam="1">  1       -1 0.16462903E-02 0.92762313E+02</pdfrwt>
<totfact> 0.11316069E+05</totfact>
</mgrwt>
</event>
<event>
 5    1  0.6085374E+000  0.9373065E+02  0.7546771E-02  0.1294061E+00
         -2   -1    0    0    0  501 -0.00000000000E+00  0.00000000000E+00  0.14163116356E+03  0.14163116356E+03  0.00000000000E+00 0.  1.
          2   -1    0    0  501    0  0.00000000000E+00 -0.00000000000E+00 -0.15507595910E+02  0.15507595910E+02  0.00000000000E+00 0. -1.
         23    2    1    2    0    0  0.00000000000E+00  0.00000000000E+00  0.12612356765E+03  0.15713875947E+03  0.93730653529E+02 0.  0.
        -13    1    3    3    0    0  0.25207245472E+02  0.16322006718E+02  0.27419171929E+01  0.30155119590E+02  0.00000000000E+00 0. -1.
         13    1    3    3    0    0 -0.25207245472E+02 -0.16322006718E+02  0.12338165045E+03  0.12698363988E+03  0.00000000000E+00 0.  1.
<mgrwt>
<rscale>  0 0.93730654E+02</rscale>
<asrwt>0</asrwt>
<pdfrwt beam="2">  1        2 0.23857841E-02 0.93730654E+02</pdfrwt>
<pdfrwt beam="1">  1       -2 0.21789409E-01 0.93730654E+02</pdfrwt>
<totfact> 0.66497184E+04</totfact>
</mgrwt>
</event>
<event>
 5    1  0.6085374E+000  0.9049671E+02  0.7546771E-02  0.1301653E+00
          4   -1    0    0  501    0  0.00000000000E+00  0.00000000000E+00  0.15593997815E+02  0.15593997815E+02  0.00000000000E+00 0. -1.
         -4   -1    0    0    0  501 -0.00000000000E+00 -0.00000000000E+00 -0.13129496880E+03  0.13129496880E+03  0.00000000000E+00 0.  1.
         23    2    1    2    0    0  0.00000000000E+00  0.00000000000E+00 -0.11570097099E+03  0.14688896662E+03  0.90496706162E+02 0.  0.
        -13    1    3    3    0    0  0.25082480496E+02 -0.22610635428E+02 -0.10673485887E+03  0.11194955007E+03  0.00000000000E+00 0.  1.
         13    1    3    3    0    0 -0.25082480496E+02  0.22610635428E+02 -0.89661121171E+01  0.34939416549E+02  0.00000000000E+00 0. -1.
<mgrwt>
<rscale>  0 0.90496706E+02</rscale>
<asrwt>0</asrwt>
<pdfrwt beam="1">  1        4 0.23990766E-02 0.90496706E+02</pdfrwt>
<pdfrwt beam="2">  1       -4 0.20199226E-01 0.90496706E+02</pdfrwt>
<totfact> 0.24314558E+04</totfact>
</mgrwt>
</event>
<event>
 5    1  0.6085374E+000  0.9004685E+02  0.7546771E-02  0.1302738E+00
         -4   -1    0    0    0  501 -0.00000000000E+00  0.00000000000E+00  0.68762043766E+02  0.68762043766E+02  0.00000000000E+00 0.  1.
          4   -1    0    0  501    0  0.00000000000E+00 -0.00000000000E+00 -0.29480051409E+02  0.29480051409E+02  0.00000000000E+00 0. -1.
         23    2    1    2    0    0  0.00000000000E+00  0.00000000000E+00  0.39281992357E+02  0.98242095175E+02  0.90046845257E+02 0.  0.
        -13    1    3    3    0    0 -0.30803177169E+02 -0.32691817874E+02  0.16275107024E+02  0.47775200557E+02  0.00000000000E+00 0. -1.
         13    1    3    3    0    0  0.30803177169E+02  0.32691817874E+02  0.23006885333E+02  0.50466894618E+02  0.00000000000E+00 0.  1.
<mgrwt>
<rscale>  0 0.90046845E+02</rscale>
<asrwt>0</asrwt>
<pdfrwt beam="2">  1        4 0.45353925E-02 0.90046845E+02</pdfrwt>
<pdfrwt beam="1">  1       -4 0.10578776E-01 0.90046845E+02</pdfrwt>
<totfact> 0.27478866E+04</totfact>
</mgrwt>
</event>
<event>
 5    1  0.6085374E+000  0.9025830E+02  0.7546771E-02  0.1302227E+00
          4   -1    0    0  501    0  0.00000000000E+00  0.00000000000E+00  0.15869052905E+02  0.15869052905E+02  0.00000000000E+00 0. -1.
         -4   -1    0    0    0  501 -0.00000000000E+00 -0.00000000000E+00 -0.12834038625E+03  0.12834038625E+03  0.00000000000E+00 0.  1.
         23    2    1    2    0    0  0.00000000000E+00  0.00000000000E+00 -0.11247133334E+03  0.14420943915E+03  0.90258304422E+02 0.  0.
        -13    1    3    3    0    0 -0.13782367468E+02 -0.29130470783E+02 -0.10671272841E+03  0.11147261720E+03  0.00000000000E+00 0.  1.
         13    1    3    3    0    0  0.13782367468E+02  0.29130470783E+02 -0.57586049393E+01  0.32736821958E+02  0.00000000000E+00 0. -1.
<mgrwt>
<rscale>  0 0.90258304E+02</rscale>
<asrwt>0</asrwt>
<pdfrwt beam="1">  1        4 0.24413928E-02 0.90258304E+02</pdfrwt>
<pdfrwt beam="2">  1       -4 0.19744674E-01 0.90258304E+02</pdfrwt>
<totfact> 0.24628146E+04</totfact>
</mgrwt>
</event>
<event>
 5    1  0.6085374E+000  0.8975367E+02  0.7546771E-02  0.1303449E+00
          2   -1    0    0  501    0  0.00000000000E+00  0.00000000000E+00  0.10342340618E+03  0.10342340618E+03  0.00000000000E+00 0. -1.
         -2   -1    0    0    0  501 -0.00000000000E+00 -0.00000000000E+00 -0.19472672300E+02  0.19472672300E+02  0.00000000000E+00 0.  1.
         23    2    1    2    0    0  0.00000000000E+00  0.00000000000E+00  0.83950733883E+02  0.12289607848E+03  0.89753665033E+02 0.  0.
        -13    1    3    3    0    0  0.14396632476E+02  0.40310015353E+02  0.60436001159E+02  0.74058561966E+02  0.00000000000E+00 0.  1.
         13    1    3    3    0    0 -0.14396632476E+02 -0.40310015353E+02  0.23514732724E+02  0.48837516516E+02  0.00000000000E+00 0. -1.
<mgrwt>
<rscale>  0 0.89753665E+02</rscale>
<asrwt>0</asrwt>
<pdfrwt beam="1">  1        2 0.15911293E-01 0.89753665E+02</pdfrwt>
<pdfrwt beam="2">  1       -2 0.29957958E-02 0.89753665E+02</pdfrwt>
<totfact> 0.12941427E+05</totfact>
</mgrwt>
</event>
<event>
 5    1  0.6085374E+000  0.9314273E+02  0.7546771E-02  0.1295415E+00
          1   -1    0    0  501    0  0.00000000000E+00  0.00000000000E+00  0.15921289462E+03  0.15921289462E+03  0.00000000000E+00 0. -1.
         -1   -1    0    0    0  501 -0.00000000000E+00 -0.00000000000E+00 -0.13622590390E+02  0.13622590390E+02  0.00000000000E+00 0.  1.
         23    2    1    2    0    0  0.00000000000E+00  0.00000000000E+00  0.14559030423E+03  0.17283548501E+03  0.93142730221E+02 0.  0.
        -13    1    3    3    0    0  0.22049778709E+02  0.32828500866E+02  0.11843641259E+03  0.12486427446E+03  0.00000000000E+00 0. -1.
         13    1    3    3    0    0 -0.22049778709E+02 -0.32828500866E+02  0.27153891644E+02  0.47971210550E+02  0.00000000000E+00 0.  1.
<mgrwt>
<rscale>  0 0.93142730E+02</rscale>
<asrwt>0</asrwt>
<pdfrwt beam="1">  1        1 0.24494290E-01 0.93142730E+02</pdfrwt>
<pdfrwt beam="2">  1       -1 0.20957833E-02 0.93142730E+02</pdfrwt>
<totfact> 0.10703096E+05</totfact>
</mgrwt>
</event>
<event>
 5    1  0.6085374E+000  0.9275669E+02  0.7546771E-02  0.1296310E+00
          1   -1    0    0  501    0  0.00000000000E+00  0.00000000000E+00  0.13827832034E+03  0.13827832034E+03  0.00000000000E+00 0. -1.
         -1   -1    0    0    0  501 -0.00000000000E+00 -0.00000000000E+00 -0.15555227529E+02  0.15555227529E+02  0.00000000000E+00 0.  1.
         23    2    1    2    0    0  0.00000000000E+00  0.00000000000E+00  0.12272309281E+03  0.15383354787E+03  0.92756686771E+02 0.  0.
        -13    1    3    3    0    0 -0.38734683977E+02 -0.16207024389E+01  0.19145650373E+02  0.43238389742E+02  0.00000000000E+00 0.  1.
         13    1    3    3    0    0  0.38734683977E+02  0.16207024389E+01  0.10357744244E+03  0.11059515813E+03  0.00000000000E+00 0. -1.
<mgrwt>
<rscale>  0 0.92756687E+02</rscale>
<asrwt>0</asrwt>
<pdfrwt beam="1">  1        1 0.21273587E-01 0.92756687E+02</pdfrwt>
<pdfrwt beam="2">  1       -1 0.23931120E-02 0.92756687E+02</pdfrwt>
<totfact> 0.10546090E+05</totfact>
</mgrwt>
</event>
<event>
 5    1  0.6085374E+000  0.9080439E+02  0.7546771E-02  0.1300915E+00
         -3   -1    0    0    0  501 -0.00000000000E+00  0.00000000000E+00  0.17194126288E+03  0.17194126288E+03  0.00000000000E+00 0.  1.
          3   -1    0    0  501    0  0.00000000000E+00 -0.00000000000E+00 -0.11988740920E+02  0.11988740920E+02  0.00000000000E+00 0. -1.
         23    2    1    2    0    0  0.00000000000E+00  0.00000000000E+00  0.15995252196E+03  0.18393000380E+03  0.90804388753E+02 0.  0.
        -13    1    3    3    0    0  0.21905716944E+02 -0.32367608645E+02  0.12677670423E+03  0.13266444610E+03  0.00000000000E+00 0.  1.
         13    1    3    3    0    0 -0.21905716944E+02  0.32367608645E+02  0.33175817735E+02  0.51265557703E+02  0.00000000000E+00 0. -1.
<mgrwt>
<rscale>  0 0.90804389E+02</rscale>
<asrwt>0</asrwt>
<pdfrwt beam="2">  1        3 0.18444218E-02 0.90804389E+02</pdfrwt>
<pdfrwt beam="1">  1       -3 0.26452500E-01 0.90804389E+02</pdfrwt>
<totfact> 0.29676644E+04</totfact>
</mgrwt>
</event>
<event>
 5    1  0.6085374E+000  0.9160532E+02  0.7546771E-02  0.1299010E+00
         -1   -1    0    0    0  501 -0.00000000000E+00  0.00000000000E+00  0.20322887739E+02  0.20322887739E+02  0.00000000000E+00 0.  1.
          1   -1    0    0  501    0  0.00000000000E+00 -0.00000000000E+00 -0.10322764055E+03  0.10322764055E+03  0.00000000000E+00 0. -1.
         23    2    1    2    0    0  0.00000000000E+00  0.00000000000E+00 -0.82904752815E+02  0.12355052829E+03  0.91605321910E+02 0.  0.
        -13    1    3    3    0    0 -0.29177075018E+02 -0.36774683391E+01  0.59080606789E+01  0.29995510680E+02  0.00000000000E+00 0.  1.
         13    1    3    3    0    0  0.29177075018E+02  0.36774683391E+01 -0.88812813494E+02  0.93555017614E+02  0.00000000000E+00 0. -1.
<mgrwt>
<rscale>  0 0.91605322E+02</rscale>
<asrwt>0</asrwt>
<pdfrwt beam="2">  1        1 0.15881175E-01 0.91605322E+02</pdfrwt>
<pdfrwt beam="1">  1       -1 0.31265982E-02 0.91605322E+02</pdfrwt>
<totfact> 0.10367298E+05</totfact>
</mgrwt>
</event>
<event>
 5    1  0.6085374E+000  0.8970844E+02  0.7546771E-02  0.1303559E+00
          2   -1    0    0  501    0  0.00000000000E+00  0.00000000000E+00  0.38719033610E+02  0.38719033610E+02  0.00000000000E+00 0. -1.
         -2   -1    0    0    0  501 -0.00000000000E+00 -0.00000000000E+00 -0.51961548038E+02  0.51961548038E+02  0.00000000000E+00 0.  1.
         23    2    1    2    0    0  0.00000000000E+00  0.00000000000E+00 -0.13242514428E+02  0.90680581647E+02  0.89708437170E+02 0.  0.
        -13    1    3    3    0    0 -0.83432040886E+01 -0.39034766849E+02 -0.27302167243E+02  0.48360421975E+02  0.00000000000E+00 0.  1.
         13    1    3    3    0    0  0.83432040886E+01  0.39034766849E+02  0.14059652815E+02  0.42320159673E+02  0.00000000000E+00 0. -1.
<mgrwt>
<rscale>  0 0.89708437E+02</rscale>
<asrwt>0</asrwt>
<pdfrwt beam="1">  1        2 0.59567744E-02 0.89708437E+02</pdfrwt>
<pdfrwt beam="2">  1       -2 0.79940843E-02 0.89708437E+02</pdfrwt>
<totfact> 0.99142224E+04</totfact>
</mgrwt>
</event>
<event>
 5    1  0.6085374E+000  0.9254766E+02  0.7546771E-02  0.1296797E+00
         -1   -1    0    0    0  501 -0.00000000000E+00  0.00000000000E+00  0.63930174420E+01  0.63930174420E+01  0.00000000000E+00 0.  1.
          1   -1    0    0  501    0  0.00000000000E+00 -0.00000000000E+00 -0.33493845245E+03  0.33493845245E+03  0.00000000000E+00 0. -1.
         23    2    1    2    0    0  0.00000000000E+00  0.00000000000E+00 -0.32854543501E+03  0.34133146989E+03  0.92547660554E+02 0.  0.
        -13    1    3    3    0    0 -0.44310221140E+02  0.88811692776E+01 -0.20096889379E+03  0.20598729848E+03  0.00000000000E+00 0.  1.
         13    1    3    3    0    0  0.44310221140E+02 -0.88811692776E+01 -0.12757654122E+03  0.13534417141E+03  0.00000000000E+00 0. -1.
<mgrwt>
<rscale>  0 0.92547661E+02</rscale>
<asrwt>0</asrwt>
<pdfrwt beam="2">  1        1 0.51528993E-01 0.92547661E+02</pdfrwt>
<pdfrwt beam="1">  1       -1 0.98354113E-03 0.92547661E+02</pdfrwt>
<totfact> 0.12569084E+05</totfact>
</mgrwt>
</event>
<event>
 5    1  0.6085374E+000  0.9023459E+02  0.7546771E-02  0.1302285E+00
         -2   -1    0    0    0  501 -0.00000000000E+00  0.00000000000E+00  0.42919498005E+02  0.42919498005E+02  0.00000000000E+00 0.  1.
          2   -1    0    0  501    0  0.00000000000E+00 -0.00000000000E+00 -0.47427634461E+02  0.47427634461E+02  0.00000000000E+00 0. -1.
         23    2    1    2    0    0  0.00000000000E+00  0.00000000000E+00 -0.45081364561E+01  0.90347132466E+02  0.90234588992E+02 0.  0.
        -13    1    3    3    0    0 -0.36466514125E+02  0.78082289255E+00 -0.28841922672E+02  0.46500245593E+02  0.00000000000E+00 0. -1.
         13    1    3    3    0    0  0.36466514125E+02 -0.78082289255E+00  0.24333786216E+02  0.43846886873E+02  0.00000000000E+00 0.  1.
<mgrwt>
<rscale>  0 0.90234589E+02</rscale>
<asrwt>0</asrwt>
<pdfrwt beam="2">  1        2 0.72965591E-02 0.90234589E+02</pdfrwt>
<pdfrwt beam="1">  1       -2 0.66029997E-02 0.90234589E+02</pdfrwt>
<totfact> 0.10269748E+05</totfact>
</mgrwt>
</event>
<event>
 5    1  0.6085374E+000  0.9090515E+02  0.7546771E-02  0.1300674E+00
         -1   -1    0    0    0  501 -0.00000000000E+00  0.00000000000E+00  0.21884400767E+02  0.21884400767E+02  0.00000000000E+00 0.  1.
          1   -1    0    0  501    0  0.00000000000E+00 -0.00000000000E+00 -0.94402245045E+02  0.94402245045E+02  0.00000000000E+00 0. -1.
         23    2    1    2    0    0  0.00000000000E+00  0.00000000000E+00 -0.72517844278E+02  0.11628664581E+03  0.90905149774E+02 0.  0.
        -13    1    3    3    0    0  0.26032259633E+02 -0.10896071479E+02 -0.81837782840E+02  0.86566885212E+02  0.00000000000E+00 0. -1.
         13    1    3    3    0    0 -0.26032259633E+02  0.10896071479E+02  0.93199385614E+01  0.29719760599E+02  0.00000000000E+00 0.  1.
<mgrwt>
<rscale>  0 0.90905150E+02</rscale>
<asrwt>0</asrwt>
<pdfrwt beam="2">  1        1 0.14523422E-01 0.90905150E+02</pdfrwt>
<pdfrwt beam="1">  1       -1 0.33668308E-02 0.90905150E+02</pdfrwt>
<totfact> 0.10430941E+05</totfact>
</mgrwt>
</event>
<event>
 4    1  0.6085374E+000  0.2177473E+03  0.7546771E-02  0.1135574E+00
          2   -1    0    0  501    0  0.00000000000E+00  0.00000000000E+00  0.24922415332E+03  0.24922415332E+03  0.00000000000E+00 0. -1.
         -2   -1    0    0    0  501 -0.00000000000E+00 -0.00000000000E+00 -0.47561490372E+02  0.47561490372E+02  0.00000000000E+00 0.  1.
        -13    1    1    2    0    0 -0.85152482509E+02  0.40194589982E+02  0.26340635907E+02  0.97777192849E+02  0.00000000000E+00 0.  1.
         13    1    1    2    0    0  0.85152482509E+02 -0.40194589982E+02  0.17532202704E+03  0.19900845084E+03  0.00000000000E+00 0. -1.
<mgrwt>
<rscale>  0 0.21774730E+03</rscale>
<asrwt>0</asrwt>
<pdfrwt beam="1">  1        2 0.38342177E-01 0.21774730E+03</pdfrwt>
<pdfrwt beam="2">  1       -2 0.73171525E-02 0.21774730E+03</pdfrwt>
<totfact> 0.14181404E+04</totfact>
</mgrwt>
</event>
<event>
 5    1  0.6085374E+000  0.8886355E+02  0.7546771E-02  0.1305627E+00
          2   -1    0    0  501    0  0.00000000000E+00  0.00000000000E+00  0.33732867323E+03  0.33732867323E+03  0.00000000000E+00 0. -1.
         -2   -1    0    0    0  501 -0.00000000000E+00 -0.00000000000E+00 -0.58524015476E+01  0.58524015476E+01  0.00000000000E+00 0.  1.
         23    2    1    2    0    0  0.00000000000E+00  0.00000000000E+00  0.33147627168E+03  0.34318107478E+03  0.88863554943E+02 0.  0.
        -13    1    3    3    0    0  0.43799444454E+02  0.73744594428E+01  0.17032202373E+03  0.17601808360E+03  0.00000000000E+00 0. -1.
         13    1    3    3    0    0 -0.43799444454E+02 -0.73744594428E+01  0.16115424795E+03  0.16716299118E+03  0.00000000000E+00 0.  1.
<mgrwt>
<rscale>  0 0.88863555E+02</rscale>
<asrwt>0</asrwt>
<pdfrwt beam="1">  1        2 0.51896704E-01 0.88863555E+02</pdfrwt>
<pdfrwt beam="2">  1       -2 0.90036973E-03 0.88863555E+02</pdfrwt>
<totfact> 0.20090055E+05</totfact>
</mgrwt>
</event>
<event>
 5    1  0.6085374E+000  0.9190285E+02  0.7546771E-02  0.1298308E+00
          3   -1    0    0  501    0  0.00000000000E+00  0.00000000000E+00  0.32168719025E+03  0.32168719025E+03  0.00000000000E+00 0. -1.
         -3   -1    0    0    0  501 -0.00000000000E+00 -0.00000000000E+00 -0.65639342303E+01  0.65639342303E+01  0.00000000000E+00 0.  1.
         23    2    1    2    0    0  0.00000000000E+00  0.00000000000E+00  0.31512325602E+03  0.32825112448E+03  0.91902852177E+02 0.  0.
        -13    1    3    3    0    0  0.28422693444E+02 -0.32502812645E+02  0.10139912427E+03  0.11020918625E+03  0.00000000000E+00 0.  1.
         13    1    3    3    0    0 -0.28422693444E+02  0.32502812645E+02  0.21372413176E+03  0.21804193823E+03  0.00000000000E+00 0. -1.
<mgrwt>
<rscale>  0 0.91902852E+02</rscale>
<asrwt>0</asrwt>
<pdfrwt beam="1">  1        3 0.49490325E-01 0.91902852E+02</pdfrwt>
<pdfrwt beam="2">  1       -3 0.10098363E-02 0.91902852E+02</pdfrwt>
<totfact> 0.22493572E+04</totfact>
</mgrwt>
</event>
<event>
 5    1  0.6085374E+000  0.9019112E+02  0.7546771E-02  0.1302390E+00
         -2   -1    0    0    0  501 -0.00000000000E+00  0.00000000000E+00  0.44114320397E+01  0.44114320397E+01  0.00000000000E+00 0.  1.
          2   -1    0    0  501    0  0.00000000000E+00 -0.00000000000E+00 -0.46098621793E+03  0.46098621793E+03  0.00000000000E+00 0. -1.
         23    2    1    2    0    0  0.00000000000E+00  0.00000000000E+00 -0.45657478589E+03  0.46539764997E+03  0.90191116450E+02 0.  0.
        -13    1    3    3    0    0 -0.21379276116E+02 -0.39333522553E+02 -0.25627123903E+03  0.26015216201E+03  0.00000000000E+00 0.  1.
         13    1    3    3    0    0  0.21379276116E+02  0.39333522553E+02 -0.20030354686E+03  0.20524548796E+03  0.00000000000E+00 0. -1.
<mgrwt>
<rscale>  0 0.90191116E+02</rscale>
<asrwt>0</asrwt>
<pdfrwt beam="2">  1        2 0.70920907E-01 0.90191116E+02</pdfrwt>
<pdfrwt beam="1">  1       -2 0.67868232E-03 0.90191116E+02</pdfrwt>
<totfact> 0.21588115E+05</totfact>
</mgrwt>
</event>
<event>
 5    1  0.6085374E+000  0.9340783E+02  0.7546771E-02  0.1294803E+00
          2   -1    0    0  501    0  0.00000000000E+00  0.00000000000E+00  0.16986895703E+02  0.16986895703E+02  0.00000000000E+00 0. -1.
         -2   -1    0    0    0  501 -0.00000000000E+00 -0.00000000000E+00 -0.12840815326E+03  0.12840815326E+03  0.00000000000E+00 0.  1.
         23    2    1    2    0    0  0.00000000000E+00  0.00000000000E+00 -0.11142125756E+03  0.14539504896E+03  0.93407834936E+02 0.  0.
        -13    1    3    3    0    0  0.29573635595E+02  0.36092662097E+02 -0.52606965443E+02  0.70319079862E+02  0.00000000000E+00 0. -1.
         13    1    3    3    0    0 -0.29573635595E+02 -0.36092662097E+02 -0.58814292115E+02  0.75075969102E+02  0.00000000000E+00 0.  1.
<mgrwt>
<rscale>  0 0.93407835E+02</rscale>
<asrwt>0</asrwt>
<pdfrwt beam="1">  1        2 0.26133686E-02 0.93407835E+02</pdfrwt>
<pdfrwt beam="2">  1       -2 0.19755100E-01 0.93407835E+02</pdfrwt>
<totfact> 0.69395574E+04</totfact>
</mgrwt>
</event>
<event>
 5    1  0.6085374E+000  0.8973439E+02  0.7546771E-02  0.1303496E+00
         -2   -1    0    0    0  501 -0.00000000000E+00  0.00000000000E+00  0.31468542069E+02  0.31468542069E+02  0.00000000000E+00 0. -1.
          2   -1    0    0  501    0  0.00000000000E+00 -0.00000000000E+00 -0.63970714545E+02  0.63970714545E+02  0.00000000000E+00 0.  1.
         23    2    1    2    0    0  0.00000000000E+00  0.00000000000E+00 -0.32502172475E+02  0.95439256614E+02  0.89734388544E+02 0.  0.
        -13    1    3    3    0    0 -0.12586917494E+02 -0.21462394831E+02 -0.55961056699E+02  0.61242997565E+02  0.00000000000E+00 0.  1.
         13    1    3    3    0    0  0.12586917494E+02  0.21462394831E+02  0.23458884224E+02  0.34196259049E+02  0.00000000000E+00 0. -1.
<mgrwt>
<rscale>  0 0.89734389E+02</rscale>
<asrwt>0</asrwt>
<pdfrwt beam="2">  1        2 0.98416483E-02 0.89734389E+02</pdfrwt>
<pdfrwt beam="1">  1       -2 0.48413142E-02 0.89734389E+02</pdfrwt>
<totfact> 0.11285654E+05</totfact>
</mgrwt>
</event>
<event>
 5    1  0.6085374E+000  0.9099879E+02  0.7546771E-02  0.1300451E+00
         -3   -1    0    0    0  501 -0.00000000000E+00  0.00000000000E+00  0.53590256395E+02  0.53590256395E+02  0.00000000000E+00 0.  1.
          3   -1    0    0  501    0  0.00000000000E+00 -0.00000000000E+00 -0.38630062990E+02  0.38630062990E+02  0.00000000000E+00 0. -1.
         23    2    1    2    0    0  0.00000000000E+00  0.00000000000E+00  0.14960193405E+02  0.92220319384E+02  0.90998790765E+02 0.  0.
        -13    1    3    3    0    0 -0.57360204936E+01  0.10366763793E+02  0.51999544487E+02  0.53332207432E+02  0.00000000000E+00 0.  1.
         13    1    3    3    0    0  0.57360204936E+01 -0.10366763793E+02 -0.37039351082E+02  0.38888111953E+02  0.00000000000E+00 0. -1.
<mgrwt>
<rscale>  0 0.90998791E+02</rscale>
<asrwt>0</asrwt>
<pdfrwt beam="2">  1        3 0.59430867E-02 0.90998791E+02</pdfrwt>
<pdfrwt beam="1">  1       -3 0.82446548E-02 0.90998791E+02</pdfrwt>
<totfact> 0.35447743E+04</totfact>
</mgrwt>
</event>
<event>
 5    1  0.6085374E+000  0.7502227E+02  0.7546771E-02  0.1343802E+00
         -1   -1    0    0    0  501 -0.00000000000E+00  0.00000000000E+00  0.13839812419E+02  0.13839812419E+02  0.00000000000E+00 0.  1.
          1   -1    0    0  501    0  0.00000000000E+00 -0.00000000000E+00 -0.10166939214E+03  0.10166939214E+03  0.00000000000E+00 0. -1.
         23    2    1    2    0    0  0.00000000000E+00  0.00000000000E+00 -0.87829579717E+02  0.11550920455E+03  0.75022271784E+02 0.  0.
        -13    1    3    3    0    0  0.79277929242E+01  0.36463191751E+02 -0.49812143438E+02  0.62238765148E+02  0.00000000000E+00 0.  1.
         13    1    3    3    0    0 -0.79277929242E+01 -0.36463191751E+02 -0.38017436279E+02  0.53270439406E+02  0.00000000000E+00 0. -1.
<mgrwt>
<rscale>  0 0.75022272E+02</rscale>
<asrwt>0</asrwt>
<pdfrwt beam="2">  1        1 0.15641445E-01 0.75022272E+02</pdfrwt>
<pdfrwt beam="1">  1       -1 0.21292019E-02 0.75022272E+02</pdfrwt>
<totfact> 0.17698396E+05</totfact>
</mgrwt>
</event>
<event>
 5    1  0.6085374E+000  0.9141991E+02  0.7546771E-02  0.1299449E+00
          3   -1    0    0  501    0  0.00000000000E+00  0.00000000000E+00  0.64271186259E+02  0.64271186259E+02  0.00000000000E+00 0. -1.
         -3   -1    0    0    0  501 -0.00000000000E+00 -0.00000000000E+00 -0.32509127779E+02  0.32509127779E+02  0.00000000000E+00 0.  1.
         23    2    1    2    0    0  0.00000000000E+00  0.00000000000E+00  0.31762058479E+02  0.96780314038E+02  0.91419914824E+02 0.  0.
        -13    1    3    3    0    0  0.14615683239E+01 -0.36972100803E+02 -0.12531591792E+02  0.39065499006E+02  0.00000000000E+00 0.  1.
         13    1    3    3    0    0 -0.14615683239E+01  0.36972100803E+02  0.44293650271E+02  0.57714815032E+02  0.00000000000E+00 0. -1.
<mgrwt>
<rscale>  0 0.91419915E+02</rscale>
<asrwt>0</asrwt>
<pdfrwt beam="1">  1        3 0.98878748E-02 0.91419915E+02</pdfrwt>
<pdfrwt beam="2">  1       -3 0.50014043E-02 0.91419915E+02</pdfrwt>
<totfact> 0.34658950E+04</totfact>
</mgrwt>
</event>
<event>
 5    1  0.6085374E+000  0.9215418E+02  0.7546771E-02  0.1297717E+00
         -1   -1    0    0    0  501 -0.00000000000E+00  0.00000000000E+00  0.15445860806E+02  0.15445860806E+02  0.00000000000E+00 0.  1.
          1   -1    0    0  501    0  0.00000000000E+00 -0.00000000000E+00 -0.13745418369E+03  0.13745418369E+03  0.00000000000E+00 0. -1.
         23    2    1    2    0    0  0.00000000000E+00  0.00000000000E+00 -0.12200832288E+03  0.15290004449E+03  0.92154179251E+02 0.  0.
        -13    1    3    3    0    0  0.29667460170E+02  0.45994130085E+01 -0.11899909310E+03  0.12272773505E+03  0.00000000000E+00 0. -1.
         13    1    3    3    0    0 -0.29667460170E+02 -0.45994130085E+01 -0.30092297815E+01  0.30172309438E+02  0.00000000000E+00 0.  1.
<mgrwt>
<rscale>  0 0.92154179E+02</rscale>
<asrwt>0</asrwt>
<pdfrwt beam="2">  1        1 0.21146797E-01 0.92154179E+02</pdfrwt>
<pdfrwt beam="1">  1       -1 0.23762863E-02 0.92154179E+02</pdfrwt>
<totfact> 0.10722344E+05</totfact>
</mgrwt>
</event>
<event>
 5    1  0.6085374E+000  0.8464712E+02  0.7546771E-02  0.1316358E+00
          1   -1    0    0  501    0  0.00000000000E+00  0.00000000000E+00  0.11634375382E+03  0.11634375382E+03  0.00000000000E+00 0.  1.
         -1   -1    0    0    0  501 -0.00000000000E+00 -0.00000000000E+00 -0.15396476065E+02  0.15396476065E+02  0.00000000000E+00 0. -1.
         23    2    1    2    0    0  0.00000000000E+00  0.00000000000E+00  0.10094727776E+03  0.13174022989E+03  0.84647122126E+02 0.  0.
        -13    1    3    3    0    0  0.35301507716E+02  0.54353922141E+01  0.85811400746E+02  0.92948030821E+02  0.00000000000E+00 0.  1.
         13    1    3    3    0    0 -0.35301507716E+02 -0.54353922141E+01  0.15135877014E+02  0.38792199068E+02  0.00000000000E+00 0. -1.
<mgrwt>
<rscale>  0 0.84647122E+02</rscale>
<asrwt>0</asrwt>
<pdfrwt beam="1">  1        1 0.17899038E-01 0.84647122E+02</pdfrwt>
<pdfrwt beam="2">  1       -1 0.23686887E-02 0.84647122E+02</pdfrwt>
<totfact> 0.13097266E+05</totfact>
</mgrwt>
</event>
<event>
 5    1  0.6085374E+000  0.8883678E+02  0.7546771E-02  0.1305693E+00
         -1   -1    0    0    0  501 -0.00000000000E+00  0.00000000000E+00  0.34564470397E+02  0.34564470397E+02  0.00000000000E+00 0.  1.
          1   -1    0    0  501    0  0.00000000000E+00 -0.00000000000E+00 -0.57081544994E+02  0.57081544994E+02  0.00000000000E+00 0. -1.
         23    2    1    2    0    0  0.00000000000E+00  0.00000000000E+00 -0.22517074598E+02  0.91646015391E+02  0.88836780044E+02 0.  0.
        -13    1    3    3    0    0 -0.39358651053E+02 -0.12615321150E+00  0.99807133707E+01  0.40604605240E+02  0.00000000000E+00 0.  1.
         13    1    3    3    0    0  0.39358651053E+02  0.12615321150E+00 -0.32497787968E+02  0.51041410151E+02  0.00000000000E+00 0. -1.
<mgrwt>
<rscale>  0 0.88836780E+02</rscale>
<asrwt>0</asrwt>
<pdfrwt beam="2">  1        1 0.87817761E-02 0.88836780E+02</pdfrwt>
<pdfrwt beam="1">  1       -1 0.53176109E-02 0.88836780E+02</pdfrwt>
<totfact> 0.10279501E+05</totfact>
</mgrwt>
</event>
<event>
 5    1  0.6085374E+000  0.9321640E+02  0.7546771E-02  0.1295244E+00
         -3   -1    0    0    0  501 -0.00000000000E+00  0.00000000000E+00  0.24798455726E+03  0.24798455726E+03  0.00000000000E+00 0.  1.
          3   -1    0    0  501    0  0.00000000000E+00 -0.00000000000E+00 -0.87599168048E+01  0.87599168048E+01  0.00000000000E+00 0. -1.
         23    2    1    2    0    0  0.00000000000E+00  0.00000000000E+00  0.23922464046E+03  0.25674447407E+03  0.93216395350E+02 0.  0.
        -13    1    3    3    0    0 -0.34073771287E+02 -0.70049225557E+01  0.20504990888E+03  0.20797970084E+03  0.00000000000E+00 0.  1.
         13    1    3    3    0    0  0.34073771287E+02  0.70049225557E+01  0.34174731584E+02  0.48764773234E+02  0.00000000000E+00 0. -1.
<mgrwt>
<rscale>  0 0.93216395E+02</rscale>
<asrwt>0</asrwt>
<pdfrwt beam="2">  1        3 0.13476797E-02 0.93216395E+02</pdfrwt>
<pdfrwt beam="1">  1       -3 0.38151465E-01 0.93216395E+02</pdfrwt>
<totfact> 0.24308362E+04</totfact>
</mgrwt>
</event>
<event>
 5    1  0.6085374E+000  0.8657726E+02  0.7546771E-02  0.1311359E+00
          1   -1    0    0  501    0  0.00000000000E+00  0.00000000000E+00  0.21622580175E+03  0.21622580175E+03  0.00000000000E+00 0. -1.
         -1   -1    0    0    0  501 -0.00000000000E+00 -0.00000000000E+00 -0.86664295228E+01  0.86664295228E+01  0.00000000000E+00 0.  1.
         23    2    1    2    0    0  0.00000000000E+00  0.00000000000E+00  0.20755937223E+03  0.22489223127E+03  0.86577264264E+02 0.  0.
        -13    1    3    3    0    0  0.36021183085E+02 -0.66447830897E+01  0.16370619871E+03  0.16775398138E+03  0.00000000000E+00 0. -1.
         13    1    3    3    0    0 -0.36021183085E+02  0.66447830897E+01  0.43853173516E+02  0.57138249891E+02  0.00000000000E+00 0.  1.
<mgrwt>
<rscale>  0 0.86577264E+02</rscale>
<asrwt>0</asrwt>
<pdfrwt beam="1">  1        1 0.33265504E-01 0.86577264E+02</pdfrwt>
<pdfrwt beam="2">  1       -1 0.13332970E-02 0.86577264E+02</pdfrwt>
<totfact> 0.13802685E+05</totfact>
</mgrwt>
</event>
<event>
 5    1  0.6085374E+000  0.9166868E+02  0.7546771E-02  0.1298860E+00
          3   -1    0    0  501    0  0.00000000000E+00  0.00000000000E+00  0.15924092538E+03  0.15924092538E+03  0.00000000000E+00 0. -1.
         -3   -1    0    0    0  501 -0.00000000000E+00 -0.00000000000E+00 -0.13192505941E+02  0.13192505941E+02  0.00000000000E+00 0.  1.
         23    2    1    2    0    0  0.00000000000E+00  0.00000000000E+00  0.14604841944E+03  0.17243343132E+03  0.91668682855E+02 0.  0.
        -13    1    3    3    0    0 -0.20437724086E+02  0.15776158848E+02  0.14426114089E+03  0.14655328220E+03  0.00000000000E+00 0. -1.
         13    1    3    3    0    0  0.20437724086E+02 -0.15776158848E+02  0.17872785514E+01  0.25880149119E+02  0.00000000000E+00 0.  1.
<mgrwt>
<rscale>  0 0.91668683E+02</rscale>
<asrwt>0</asrwt>
<pdfrwt beam="1">  1        3 0.24498603E-01 0.91668683E+02</pdfrwt>
<pdfrwt beam="2">  1       -3 0.20296164E-02 0.91668683E+02</pdfrwt>
<totfact> 0.29554679E+04</totfact>
</mgrwt>
</event>
<event>
 5    1  0.6085374E+000  0.8838091E+02  0.7546771E-02  0.1306821E+00
          2   -1    0    0  501    0  0.00000000000E+00  0.00000000000E+00  0.34445160633E+02  0.34445160633E+02  0.00000000000E+00 0. -1.
         -2   -1    0    0    0  501 -0.00000000000E+00 -0.00000000000E+00 -0.56692907810E+02  0.56692907810E+02  0.00000000000E+00 0.  1.
         23    2    1    2    0    0  0.00000000000E+00  0.00000000000E+00 -0.22247747177E+02  0.91138068444E+02  0.88380910072E+02 0.  0.
        -13    1    3    3    0    0 -0.33541609875E+02 -0.28130385013E+02 -0.17348590191E+02  0.47088552065E+02  0.00000000000E+00 0. -1.
         13    1    3    3    0    0  0.33541609875E+02  0.28130385013E+02 -0.48991569861E+01  0.44049516378E+02  0.00000000000E+00 0.  1.
<mgrwt>
<rscale>  0 0.88380910E+02</rscale>
<asrwt>0</asrwt>
<pdfrwt beam="1">  1        2 0.52992555E-02 0.88380910E+02</pdfrwt>
<pdfrwt beam="2">  1       -2 0.87219858E-02 0.88380910E+02</pdfrwt>
<totfact> 0.10048535E+05</totfact>
</mgrwt>
</event>
<event>
 5    1  0.6085374E+000  0.9092609E+02  0.7546771E-02  0.1300624E+00
         -4   -1    0    0    0  501 -0.00000000000E+00  0.00000000000E+00  0.35066549454E+02  0.35066549454E+02  0.00000000000E+00 0.  1.
          4   -1    0    0  501    0  0.00000000000E+00 -0.00000000000E+00 -0.58941887447E+02  0.58941887447E+02  0.00000000000E+00 0. -1.
         23    2    1    2    0    0  0.00000000000E+00  0.00000000000E+00 -0.23875337993E+02  0.94008436901E+02  0.90926093309E+02 0.  0.
        -13    1    3    3    0    0 -0.16885479546E+02 -0.84201478711E+01 -0.54702508222E+02  0.57865211617E+02  0.00000000000E+00 0. -1.
         13    1    3    3    0    0  0.16885479546E+02  0.84201478711E+01  0.30827170229E+02  0.36143225285E+02  0.00000000000E+00 0.  1.
<mgrwt>
<rscale>  0 0.90926093E+02</rscale>
<asrwt>0</asrwt>
<pdfrwt beam="2">  1        4 0.90679826E-02 0.90926093E+02</pdfrwt>
<pdfrwt beam="1">  1       -4 0.53948538E-02 0.90926093E+02</pdfrwt>
<totfact> 0.27036270E+04</totfact>
</mgrwt>
</event>
<event>
 5    1  0.6085374E+000  0.9228997E+02  0.7546771E-02  0.1297399E+00
          1   -1    0    0  501    0  0.00000000000E+00  0.00000000000E+00  0.87692973974E+02  0.87692973974E+02  0.00000000000E+00 0. -1.
         -1   -1    0    0    0  501 -0.00000000000E+00 -0.00000000000E+00 -0.24281988859E+02  0.24281988859E+02  0.00000000000E+00 0.  1.
         23    2    1    2    0    0  0.00000000000E+00  0.00000000000E+00  0.63410985115E+02  0.11197496283E+03  0.92289973822E+02 0.  0.
        -13    1    3    3    0    0 -0.22360216530E+02  0.27626670255E+01 -0.17155031090E+02  0.28317957271E+02  0.00000000000E+00 0.  1.
         13    1    3    3    0    0  0.22360216530E+02 -0.27626670255E+01  0.80566016205E+02  0.83657005561E+02  0.00000000000E+00 0. -1.
<mgrwt>
<rscale>  0 0.92289974E+02</rscale>
<asrwt>0</asrwt>
<pdfrwt beam="1">  1        1 0.13491227E-01 0.92289974E+02</pdfrwt>
<pdfrwt beam="2">  1       -1 0.37356906E-02 0.92289974E+02</pdfrwt>
<totfact> 0.98885216E+04</totfact>
</mgrwt>
</event>
<event>
 5    1  0.6085374E+000  0.9035037E+02  0.7546771E-02  0.1302005E+00
         -2   -1    0    0    0  501 -0.00000000000E+00  0.00000000000E+00  0.24072931873E+03  0.24072931873E+03  0.00000000000E+00 0. -1.
          2   -1    0    0  501    0  0.00000000000E+00 -0.00000000000E+00 -0.84775599889E+01  0.84775599889E+01  0.00000000000E+00 0.  1.
         23    2    1    2    0    0  0.00000000000E+00  0.00000000000E+00  0.23225175874E+03  0.24920687872E+03  0.90350367804E+02 0.  0.
        -13    1    3    3    0    0  0.14367245321E+02  0.40886423280E+02  0.15130597706E+03  0.15739001252E+03  0.00000000000E+00 0. -1.
         13    1    3    3    0    0 -0.14367245321E+02 -0.40886423280E+02  0.80945781682E+02  0.91816866200E+02  0.00000000000E+00 0.  1.
<mgrwt>
<rscale>  0 0.90350368E+02</rscale>
<asrwt>0</asrwt>
<pdfrwt beam="2">  1        2 0.13042402E-02 0.90350368E+02</pdfrwt>
<pdfrwt beam="1">  1       -2 0.37035275E-01 0.90350368E+02</pdfrwt>
<totfact> 0.58584647E+04</totfact>
</mgrwt>
</event>
<event>
 5    1  0.6085374E+000  0.9183559E+02  0.7546771E-02  0.1298466E+00
          1   -1    0    0  501    0  0.00000000000E+00  0.00000000000E+00  0.59441630714E+02  0.59441630714E+02  0.00000000000E+00 0. -1.
         -1   -1    0    0    0  501 -0.00000000000E+00 -0.00000000000E+00 -0.35470830025E+02  0.35470830025E+02  0.00000000000E+00 0.  1.
         23    2    1    2    0    0  0.00000000000E+00  0.00000000000E+00  0.23970800689E+02  0.94912460740E+02  0.91835591782E+02 0.  0.
        -13    1    3    3    0    0 -0.19004663773E+02 -0.30206601353E+02 -0.17876036420E+02  0.39914517265E+02  0.00000000000E+00 0.  1.
         13    1    3    3    0    0  0.19004663773E+02  0.30206601353E+02  0.41846837108E+02  0.54997943474E+02  0.00000000000E+00 0. -1.
<mgrwt>
<rscale>  0 0.91835592E+02</rscale>
<asrwt>0</asrwt>
<pdfrwt beam="1">  1        1 0.91448662E-02 0.91835592E+02</pdfrwt>
<pdfrwt beam="2">  1       -1 0.54570508E-02 0.91835592E+02</pdfrwt>
<totfact> 0.94328848E+04</totfact>
</mgrwt>
</event>
<event>
 5    1  0.6085374E+000  0.9640957E+02  0.7546771E-02  0.1288033E+00
          2   -1    0    0  501    0  0.00000000000E+00  0.00000000000E+00  0.31794347725E+02  0.31794347725E+02  0.00000000000E+00 0. -1.
         -2   -1    0    0    0  501 -0.00000000000E+00 -0.00000000000E+00 -0.73085359623E+02  0.73085359623E+02  0.00000000000E+00 0.  1.
         23    2    1    2    0    0  0.00000000000E+00  0.00000000000E+00 -0.41291011898E+02  0.10487970735E+03  0.96409570842E+02 0.  0.
        -13    1    3    3    0    0  0.38662381957E+02 -0.17818716388E+02 -0.45246803167E+02  0.62125354157E+02  0.00000000000E+00 0.  1.
         13    1    3    3    0    0 -0.38662381957E+02  0.17818716388E+02  0.39557912690E+01  0.42754353192E+02  0.00000000000E+00 0. -1.
<mgrwt>
<rscale>  0 0.96409571E+02</rscale>
<asrwt>0</asrwt>
<pdfrwt beam="1">  1        2 0.48914381E-02 0.96409571E+02</pdfrwt>
<pdfrwt beam="2">  1       -2 0.11243901E-01 0.96409571E+02</pdfrwt>
<totfact> 0.76098703E+04</totfact>
</mgrwt>
</event>
<event>
 5    1  0.6085374E+000  0.9190698E+02  0.7546771E-02  0.1298298E+00
          2   -1    0    0  501    0  0.00000000000E+00  0.00000000000E+00  0.32289228137E+02  0.32289228137E+02  0.00000000000E+00 0. -1.
         -2   -1    0    0    0  501 -0.00000000000E+00 -0.00000000000E+00 -0.65400238527E+02  0.65400238527E+02  0.00000000000E+00 0.  1.
         23    2    1    2    0    0  0.00000000000E+00  0.00000000000E+00 -0.33111010390E+02  0.97689466664E+02  0.91906979540E+02 0.  0.
        -13    1    3    3    0    0  0.42538789035E+02 -0.46649307451E+01  0.12436082699E+01  0.42811875840E+02  0.00000000000E+00 0. -1.
         13    1    3    3    0    0 -0.42538789035E+02  0.46649307451E+01 -0.34354618660E+02  0.54877590824E+02  0.00000000000E+00 0.  1.
<mgrwt>
<rscale>  0 0.91906980E+02</rscale>
<asrwt>0</asrwt>
<pdfrwt beam="1">  1        2 0.49675737E-02 0.91906980E+02</pdfrwt>
<pdfrwt beam="2">  1       -2 0.10061575E-01 0.91906980E+02</pdfrwt>
<totfact> 0.88108476E+04</totfact>
</mgrwt>
</event>
<event>
 5    1  0.6085374E+000  0.8992195E+02  0.7546771E-02  0.1303041E+00
         -1   -1    0    0    0  501 -0.00000000000E+00  0.00000000000E+00  0.14229987367E+02  0.14229987367E+02  0.00000000000E+00 0.  1.
          1   -1    0    0  501    0  0.00000000000E+00 -0.00000000000E+00 -0.14205840159E+03  0.14205840159E+03  0.00000000000E+00 0. -1.
         23    2    1    2    0    0  0.00000000000E+00  0.00000000000E+00 -0.12782841423E+03  0.15628838896E+03  0.89921949712E+02 0.  0.
        -13    1    3    3    0    0 -0.18015405191E+01 -0.32306834300E+02 -0.96573500234E+01  0.33767462153E+02  0.00000000000E+00 0.  1.
         13    1    3    3    0    0  0.18015405191E+01  0.32306834300E+02 -0.11817106420E+03  0.12252092681E+03  0.00000000000E+00 0. -1.
<mgrwt>
<rscale>  0 0.89921950E+02</rscale>
<asrwt>0</asrwt>
<pdfrwt beam="2">  1        1 0.21855140E-01 0.89921950E+02</pdfrwt>
<pdfrwt beam="1">  1       -1 0.21892287E-02 0.89921950E+02</pdfrwt>
<totfact> 0.11525186E+05</totfact>
</mgrwt>
</event>
<event>
 5    1  0.6085374E+000  0.9006695E+02  0.7546771E-02  0.1302690E+00
         -2   -1    0    0    0  501 -0.00000000000E+00  0.00000000000E+00  0.62140015993E+02  0.62140015993E+02  0.00000000000E+00 0.  1.
          2   -1    0    0  501    0  0.00000000000E+00 -0.00000000000E+00 -0.32636199545E+02  0.32636199545E+02  0.00000000000E+00 0. -1.
         23    2    1    2    0    0  0.00000000000E+00  0.00000000000E+00  0.29503816447E+02  0.94776215538E+02  0.90066952023E+02 0.  0.
        -13    1    3    3    0    0 -0.24051384007E+02 -0.36742734408E+02  0.42545230591E+01  0.44120273921E+02  0.00000000000E+00 0.  1.
         13    1    3    3    0    0  0.24051384007E+02  0.36742734408E+02  0.25249293388E+02  0.50655941616E+02  0.00000000000E+00 0. -1.
<mgrwt>
<rscale>  0 0.90066952E+02</rscale>
<asrwt>0</asrwt>
<pdfrwt beam="2">  1        2 0.50209538E-02 0.90066952E+02</pdfrwt>
<pdfrwt beam="1">  1       -2 0.95600024E-02 0.90066952E+02</pdfrwt>
<totfact> 0.93779304E+04</totfact>
</mgrwt>
</event>
<event>
 5    1  0.6085374E+000  0.9041441E+02  0.7546771E-02  0.1301851E+00
          1   -1    0    0  501    0  0.00000000000E+00  0.00000000000E+00  0.10364760700E+03  0.10364760700E+03  0.00000000000E+00 0. -1.
         -1   -1    0    0    0  501 -0.00000000000E+00 -0.00000000000E+00 -0.19717688204E+02  0.19717688204E+02  0.00000000000E+00 0.  1.
         23    2    1    2    0    0  0.00000000000E+00  0.00000000000E+00  0.83929918793E+02  0.12336529520E+03  0.90414405886E+02 0.  0.
        -13    1    3    3    0    0  0.27520897037E+02 -0.16716213530E+02 -0.13302488977E+01  0.32227335146E+02  0.00000000000E+00 0.  1.
         13    1    3    3    0    0 -0.27520897037E+02  0.16716213530E+02  0.85260167691E+02  0.91137960056E+02  0.00000000000E+00 0. -1.
<mgrwt>
<rscale>  0 0.90414406E+02</rscale>
<asrwt>0</asrwt>
<pdfrwt beam="1">  1        1 0.15945785E-01 0.90414406E+02</pdfrwt>
<pdfrwt beam="2">  1       -1 0.30334905E-02 0.90414406E+02</pdfrwt>
<totfact> 0.10750634E+05</totfact>
</mgrwt>
</event>
<event>
 5    1  0.6085374E+000  0.9275893E+02  0.7546771E-02  0.1296305E+00
          2   -1    0    0  501    0  0.00000000000E+00  0.00000000000E+00  0.18719961552E+02  0.18719961552E+02  0.00000000000E+00 0. -1.
         -2   -1    0    0    0  501 -0.00000000000E+00 -0.00000000000E+00 -0.11490701577E+03  0.11490701577E+03  0.00000000000E+00 0.  1.
         23    2    1    2    0    0  0.00000000000E+00  0.00000000000E+00 -0.96187054216E+02  0.13362697732E+03  0.92758933096E+02 0.  0.
        -13    1    3    3    0    0  0.17651557697E+02  0.15974278008E+02 -0.10543344850E+03  0.10808777502E+03  0.00000000000E+00 0.  1.
         13    1    3    3    0    0 -0.17651557697E+02 -0.15974278008E+02  0.92463942790E+01  0.25539202301E+02  0.00000000000E+00 0. -1.
<mgrwt>
<rscale>  0 0.92758933E+02</rscale>
<asrwt>0</asrwt>
<pdfrwt beam="1">  1        2 0.28799941E-02 0.92758933E+02</pdfrwt>
<pdfrwt beam="2">  1       -2 0.17678003E-01 0.92758933E+02</pdfrwt>
<totfact> 0.73242932E+04</totfact>
</mgrwt>
</event>
<event>
 5    1  0.6085374E+000  0.9060965E+02  0.7546771E-02  0.1301382E+00
          3   -1    0    0  501    0  0.00000000000E+00  0.00000000000E+00  0.35672386755E+02  0.35672386755E+02  0.00000000000E+00 0. -1.
         -3   -1    0    0    0  501 -0.00000000000E+00 -0.00000000000E+00 -0.57538268281E+02  0.57538268281E+02  0.00000000000E+00 0.  1.
         23    2    1    2    0    0  0.00000000000E+00  0.00000000000E+00 -0.21865881526E+02  0.93210655037E+02  0.90609654218E+02 0.  0.
        -13    1    3    3    0    0 -0.40194167572E+02  0.14998366804E+02  0.40454235813E+01  0.43091618275E+02  0.00000000000E+00 0. -1.
         13    1    3    3    0    0  0.40194167572E+02 -0.14998366804E+02 -0.25911305107E+02  0.50119036762E+02  0.00000000000E+00 0.  1.
<mgrwt>
<rscale>  0 0.90609654E+02</rscale>
<asrwt>0</asrwt>
<pdfrwt beam="1">  1        3 0.54880596E-02 0.90609654E+02</pdfrwt>
<pdfrwt beam="2">  1       -3 0.88520411E-02 0.90609654E+02</pdfrwt>
<totfact> 0.35786129E+04</totfact>
</mgrwt>
</event>
<event>
 5    1  0.6085374E+000  0.9002583E+02  0.7546771E-02  0.1302789E+00
          1   -1    0    0  501    0  0.00000000000E+00  0.00000000000E+00  0.45701253770E+02  0.45701253770E+02  0.00000000000E+00 0. -1.
         -1   -1    0    0    0  501 -0.00000000000E+00 -0.00000000000E+00 -0.44334946195E+02  0.44334946195E+02  0.00000000000E+00 0.  1.
         23    2    1    2    0    0  0.00000000000E+00  0.00000000000E+00  0.13663075746E+01  0.90036199964E+02  0.90025832446E+02 0.  0.
        -13    1    3    3    0    0  0.31203281042E+01  0.28558286698E+02  0.35340433541E+02  0.45544027374E+02  0.00000000000E+00 0. -1.
         13    1    3    3    0    0 -0.31203281042E+01 -0.28558286698E+02 -0.33974125966E+02  0.44492172590E+02  0.00000000000E+00 0.  1.
<mgrwt>
<rscale>  0 0.90025832E+02</rscale>
<asrwt>0</asrwt>
<pdfrwt beam="1">  1        1 0.70309621E-02 0.90025832E+02</pdfrwt>
<pdfrwt beam="2">  1       -1 0.68207609E-02 0.90025832E+02</pdfrwt>
<totfact> 0.95858415E+04</totfact>
</mgrwt>
</event>
<event>
 5    1  0.6085374E+000  0.9404814E+02  0.7546771E-02  0.1293334E+00
          1   -1    0    0  501    0  0.00000000000E+00  0.00000000000E+00  0.84435615232E+02  0.84435615232E+02  0.00000000000E+00 0. -1.
         -1   -1    0    0    0  501 -0.00000000000E+00 -0.00000000000E+00 -0.26188746719E+02  0.26188746719E+02  0.00000000000E+00 0.  1.
         23    2    1    2    0    0  0.00000000000E+00  0.00000000000E+00  0.58246868513E+02  0.11062436195E+03  0.94048135364E+02 0.  0.
        -13    1    3    3    0    0  0.20581066042E+02 -0.35650468734E+02  0.55861565948E+02  0.69390566726E+02  0.00000000000E+00 0. -1.
         13    1    3    3    0    0 -0.20581066042E+02  0.35650468734E+02  0.23853025648E+01  0.41233795225E+02  0.00000000000E+00 0.  1.
<mgrwt>
<rscale>  0 0.94048135E+02</rscale>
<asrwt>0</asrwt>
<pdfrwt beam="1">  1        1 0.12990095E-01 0.94048135E+02</pdfrwt>
<pdfrwt beam="2">  1       -1 0.40290380E-02 0.94048135E+02</pdfrwt>
<totfact> 0.93311218E+04</totfact>
</mgrwt>
</event>
<event>
 5    1  0.6085374E+000  0.9246585E+02  0.7546771E-02  0.1296988E+00
          2   -1    0    0  501    0  0.00000000000E+00  0.00000000000E+00  0.71006868952E+02  0.71006868952E+02  0.00000000000E+00 0. -1.
         -2   -1    0    0    0  501 -0.00000000000E+00 -0.00000000000E+00 -0.30102490104E+02  0.30102490104E+02  0.00000000000E+00 0.  1.
         23    2    1    2    0    0  0.00000000000E+00  0.00000000000E+00  0.40904378848E+02  0.10110935906E+03  0.92465854670E+02 0.  0.
        -13    1    3    3    0    0  0.25518343728E+02  0.27790060043E+02  0.49670977413E+02  0.62375310027E+02  0.00000000000E+00 0.  1.
         13    1    3    3    0    0 -0.25518343728E+02 -0.27790060043E+02 -0.87665985649E+01  0.38734049029E+02  0.00000000000E+00 0. -1.
<mgrwt>
<rscale>  0 0.92465855E+02</rscale>
<asrwt>0</asrwt>
<pdfrwt beam="1">  1        2 0.10924134E-01 0.92465855E+02</pdfrwt>
<pdfrwt beam="2">  1       -2 0.46311523E-02 0.92465855E+02</pdfrwt>
<totfact> 0.10677557E+05</totfact>
</mgrwt>
</event>
<event>
 5    1  0.6085374E+000  0.9211919E+02  0.7546771E-02  0.1297799E+00
          2   -1    0    0  501    0  0.00000000000E+00  0.00000000000E+00  0.40970709574E+02  0.40970709574E+02  0.00000000000E+00 0. -1.
         -2   -1    0    0    0  501 -0.00000000000E+00 -0.00000000000E+00 -0.51780561735E+02  0.51780561735E+02  0.00000000000E+00 0.  1.
         23    2    1    2    0    0  0.00000000000E+00  0.00000000000E+00 -0.10809852161E+02  0.92751271309E+02  0.92119191409E+02 0.  0.
        -13    1    3    3    0    0 -0.22715941814E+02 -0.30978622265E+02 -0.30991837669E+02  0.49357705093E+02  0.00000000000E+00 0. -1.
         13    1    3    3    0    0  0.22715941814E+02  0.30978622265E+02  0.20181985508E+02  0.43393566217E+02  0.00000000000E+00 0.  1.
<mgrwt>
<rscale>  0 0.92119191E+02</rscale>
<asrwt>0</asrwt>
<pdfrwt beam="1">  1        2 0.63031860E-02 0.92119191E+02</pdfrwt>
<pdfrwt beam="2">  1       -2 0.79662403E-02 0.92119191E+02</pdfrwt>
<totfact> 0.93164794E+04</totfact>
</mgrwt>
</event>
<event>
 5    1  0.6085374E+000  0.9063502E+02  0.7546771E-02  0.1301321E+00
          1   -1    0    0  501    0  0.00000000000E+00  0.00000000000E+00  0.19548516342E+02  0.19548516342E+02  0.00000000000E+00 0. -1.
         -1   -1    0    0    0  501 -0.00000000000E+00 -0.00000000000E+00 -0.10505536583E+03  0.10505536583E+03  0.00000000000E+00 0.  1.
         23    2    1    2    0    0  0.00000000000E+00  0.00000000000E+00 -0.85506849490E+02  0.12460388217E+03  0.90635016098E+02 0.  0.
        -13    1    3    3    0    0  0.12396619875E+02  0.37987918987E+02 -0.13366451126E+02  0.42135735297E+02  0.00000000000E+00 0. -1.
         13    1    3    3    0    0 -0.12396619875E+02 -0.37987918987E+02 -0.72140398363E+02  0.82468146877E+02  0.00000000000E+00 0.  1.
<mgrwt>
<rscale>  0 0.90635016E+02</rscale>
<asrwt>0</asrwt>
<pdfrwt beam="1">  1        1 0.30074641E-02 0.90635016E+02</pdfrwt>
<pdfrwt beam="2">  1       -1 0.16162364E-01 0.90635016E+02</pdfrwt>
<totfact> 0.81866467E+04</totfact>
</mgrwt>
</event>
<event>
 5    1  0.6085374E+000  0.8703161E+02  0.7546771E-02  0.1310204E+00
          2   -1    0    0  501    0  0.00000000000E+00  0.00000000000E+00  0.25569748545E+03  0.25569748545E+03  0.00000000000E+00 0. -1.
         -2   -1    0    0    0  501 -0.00000000000E+00 -0.00000000000E+00 -0.74057246614E+01  0.74057246614E+01  0.00000000000E+00 0.  1.
         23    2    1    2    0    0  0.00000000000E+00  0.00000000000E+00  0.24829176079E+03  0.26310321011E+03  0.87031607450E+02 0.  0.
        -13    1    3    3    0    0  0.14840972156E+02 -0.37546858491E+02  0.17322821963E+03  0.17787084391E+03  0.00000000000E+00 0.  1.
         13    1    3    3    0    0 -0.14840972156E+02  0.37546858491E+02  0.75063541161E+02  0.85232366204E+02  0.00000000000E+00 0. -1.
<mgrwt>
<rscale>  0 0.87031607E+02</rscale>
<asrwt>0</asrwt>
<pdfrwt beam="1">  1        2 0.39338068E-01 0.87031607E+02</pdfrwt>
<pdfrwt beam="2">  1       -2 0.11393424E-02 0.87031607E+02</pdfrwt>
<totfact> 0.19164124E+05</totfact>
</mgrwt>
</event>
<event>
 5    1  0.6085374E+000  0.1002352E+03  0.7546771E-02  0.1279802E+00
         -2   -1    0    0    0  501 -0.00000000000E+00  0.00000000000E+00  0.33669669211E+02  0.33669669211E+02  0.00000000000E+00 0.  1.
          2   -1    0    0  501    0  0.00000000000E+00 -0.00000000000E+00 -0.74600428829E+02  0.74600428829E+02  0.00000000000E+00 0. -1.
         23    2    1    2    0    0  0.00000000000E+00  0.00000000000E+00 -0.40930759619E+02  0.10827009804E+03  0.10023515873E+03 0.  0.
        -13    1    3    3    0    0  0.35265472187E+02 -0.37114584644E+01  0.17790364523E+02  0.39672730211E+02  0.00000000000E+00 0.  1.
         13    1    3    3    0    0 -0.35265472187E+02  0.37114584644E+01 -0.58721124142E+02  0.68597367829E+02  0.00000000000E+00 0. -1.
<mgrwt>
<rscale>  0 0.10023516E+03</rscale>
<asrwt>0</asrwt>
<pdfrwt beam="2">  1        2 0.11476989E-01 0.10023516E+03</pdfrwt>
<pdfrwt beam="1">  1       -2 0.51799492E-02 0.10023516E+03</pdfrwt>
<totfact> 0.86264119E+04</totfact>
</mgrwt>
</event>
<event>
 5    1  0.6085374E+000  0.8747714E+02  0.7546771E-02  0.1309079E+00
          2   -1    0    0  501    0  0.00000000000E+00  0.00000000000E+00  0.10444650575E+03  0.10444650575E+03  0.00000000000E+00 0. -1.
         -2   -1    0    0    0  501 -0.00000000000E+00 -0.00000000000E+00 -0.18316195628E+02  0.18316195628E+02  0.00000000000E+00 0.  1.
         23    2    1    2    0    0  0.00000000000E+00  0.00000000000E+00  0.86130310124E+02  0.12276270138E+03  0.87477142889E+02 0.  0.
        -13    1    3    3    0    0  0.33399088104E+02 -0.14556642761E+02  0.77027485409E+02  0.85209321339E+02  0.00000000000E+00 0. -1.
         13    1    3    3    0    0 -0.33399088104E+02  0.14556642761E+02  0.91028247150E+01  0.37553380040E+02  0.00000000000E+00 0.  1.
<mgrwt>
<rscale>  0 0.87477143E+02</rscale>
<asrwt>0</asrwt>
<pdfrwt beam="1">  1        2 0.16068693E-01 0.87477143E+02</pdfrwt>
<pdfrwt beam="2">  1       -2 0.28178763E-02 0.87477143E+02</pdfrwt>
<totfact> 0.13925223E+05</totfact>
</mgrwt>
</event>
<event>
 5    1  0.6085374E+000  0.9171599E+02  0.7546771E-02  0.1298749E+00
          1   -1    0    0  501    0  0.00000000000E+00  0.00000000000E+00  0.12046625796E+03  0.12046625796E+03  0.00000000000E+00 0. -1.
         -1   -1    0    0    0  501 -0.00000000000E+00 -0.00000000000E+00 -0.17456804641E+02  0.17456804641E+02  0.00000000000E+00 0.  1.
         23    2    1    2    0    0  0.00000000000E+00  0.00000000000E+00  0.10300945331E+03  0.13792306260E+03  0.91715994918E+02 0.  0.
        -13    1    3    3    0    0  0.26074785930E+01  0.34452774226E+02  0.61614639409E+01  0.35096384919E+02  0.00000000000E+00 0.  1.
         13    1    3    3    0    0 -0.26074785930E+01 -0.34452774226E+02  0.96847989374E+02  0.10282667768E+03  0.00000000000E+00 0. -1.
<mgrwt>
<rscale>  0 0.91715995E+02</rscale>
<asrwt>0</asrwt>
<pdfrwt beam="1">  1        1 0.18533270E-01 0.91715995E+02</pdfrwt>
<pdfrwt beam="2">  1       -1 0.26856623E-02 0.91715995E+02</pdfrwt>
<totfact> 0.10609918E+05</totfact>
</mgrwt>
</event>
<event>
 5    1  0.6085374E+000  0.9292820E+02  0.7546771E-02  0.1295912E+00
         -4   -1    0    0    0  501 -0.00000000000E+00  0.00000000000E+00  0.22987545991E+03  0.22987545991E+03  0.00000000000E+00 0.  1.
          4   -1    0    0  501    0  0.00000000000E+00 -0.00000000000E+00 -0.93916626096E+01  0.93916626096E+01  0.00000000000E+00 0. -1.
         23    2    1    2    0    0  0.00000000000E+00  0.00000000000E+00  0.22048379730E+03  0.23926712252E+03  0.92928203720E+02 0.  0.
        -13    1    3    3    0    0  0.34198257532E+02  0.27140321484E+02  0.69304557474E+02  0.81909947840E+02  0.00000000000E+00 0.  1.
         13    1    3    3    0    0 -0.34198257532E+02 -0.27140321484E+02  0.15117923982E+03  0.15735717468E+03  0.00000000000E+00 0. -1.
<mgrwt>
<rscale>  0 0.92928204E+02</rscale>
<asrwt>0</asrwt>
<pdfrwt beam="2">  1        4 0.14448713E-02 0.92928204E+02</pdfrwt>
<pdfrwt beam="1">  1       -4 0.35365451E-01 0.92928204E+02</pdfrwt>
<totfact> 0.18864801E+04</totfact>
</mgrwt>
</event>
<event>
 5    1  0.6085374E+000  0.9344709E+02  0.7546771E-02  0.1294712E+00
          2   -1    0    0  501    0  0.00000000000E+00  0.00000000000E+00  0.53781083669E+02  0.53781083669E+02  0.00000000000E+00 0. -1.
         -2   -1    0    0    0  501 -0.00000000000E+00 -0.00000000000E+00 -0.40592145981E+02  0.40592145981E+02  0.00000000000E+00 0.  1.
         23    2    1    2    0    0  0.00000000000E+00  0.00000000000E+00  0.13188937688E+02  0.94373229649E+02  0.93447088757E+02 0.  0.
        -13    1    3    3    0    0  0.55426895369E+01  0.15186552729E+02  0.50866555930E+02  0.53373769806E+02  0.00000000000E+00 0. -1.
         13    1    3    3    0    0 -0.55426895369E+01 -0.15186552729E+02 -0.37677618242E+02  0.40999459844E+02  0.00000000000E+00 0.  1.
<mgrwt>
<rscale>  0 0.93447089E+02</rscale>
<asrwt>0</asrwt>
<pdfrwt beam="1">  1        2 0.82740129E-02 0.93447089E+02</pdfrwt>
<pdfrwt beam="2">  1       -2 0.62449455E-02 0.93447089E+02</pdfrwt>
<totfact> 0.96059293E+04</totfact>
</mgrwt>
</event>
<event>
 5    1  0.6085374E+000  0.9323519E+02  0.7546771E-02  0.1295201E+00
         -3   -1    0    0    0  501 -0.00000000000E+00  0.00000000000E+00  0.26557903094E+02  0.26557903094E+02  0.00000000000E+00 0.  1.
          3   -1    0    0  501    0  0.00000000000E+00 -0.00000000000E+00 -0.81828760491E+02  0.81828760491E+02  0.00000000000E+00 0. -1.
         23    2    1    2    0    0  0.00000000000E+00  0.00000000000E+00 -0.55270857397E+02  0.10838666358E+03  0.93235192742E+02 0.  0.
        -13    1    3    3    0    0 -0.32800806556E+01 -0.25309760075E+02  0.17715162824E+02  0.31067183297E+02  0.00000000000E+00 0.  1.
         13    1    3    3    0    0  0.32800806556E+01  0.25309760075E+02 -0.72986020221E+02  0.77319480287E+02  0.00000000000E+00 0. -1.
<mgrwt>
<rscale>  0 0.93235193E+02</rscale>
<asrwt>0</asrwt>
<pdfrwt beam="2">  1        3 0.12589040E-01 0.93235193E+02</pdfrwt>
<pdfrwt beam="1">  1       -3 0.40858313E-02 0.93235193E+02</pdfrwt>
<totfact> 0.32048616E+04</totfact>
</mgrwt>
</event>
<event>
 5    1  0.6085374E+000  0.9036350E+02  0.7546771E-02  0.1301974E+00
          3   -1    0    0  501    0  0.00000000000E+00  0.00000000000E+00  0.15942250023E+02  0.15942250023E+02  0.00000000000E+00 0. -1.
         -3   -1    0    0    0  501 -0.00000000000E+00 -0.00000000000E+00 -0.12804908558E+03  0.12804908558E+03  0.00000000000E+00 0.  1.
         23    2    1    2    0    0  0.00000000000E+00  0.00000000000E+00 -0.11210683556E+03  0.14399133560E+03  0.90363500098E+02 0.  0.
        -13    1    3    3    0    0 -0.25577250515E+01  0.22867628127E+02 -0.11801289507E+03  0.12023524349E+03  0.00000000000E+00 0.  1.
         13    1    3    3    0    0  0.25577250515E+01 -0.22867628127E+02  0.59060595139E+01  0.23756092115E+02  0.00000000000E+00 0. -1.
<mgrwt>
<rscale>  0 0.90363500E+02</rscale>
<asrwt>0</asrwt>
<pdfrwt beam="1">  1        3 0.24526538E-02 0.90363500E+02</pdfrwt>
<pdfrwt beam="2">  1       -3 0.19699860E-01 0.90363500E+02</pdfrwt>
<totfact> 0.32457195E+04</totfact>
</mgrwt>
</event>
<event>
 5    1  0.6085374E+000  0.9065539E+02  0.7546771E-02  0.1301272E+00
         -1   -1    0    0    0  501 -0.00000000000E+00  0.00000000000E+00  0.83053138688E+01  0.83053138688E+01  0.00000000000E+00 0.  1.
          1   -1    0    0  501    0  0.00000000000E+00 -0.00000000000E+00 -0.24738376443E+03  0.24738376443E+03  0.00000000000E+00 0. -1.
         23    2    1    2    0    0  0.00000000000E+00  0.00000000000E+00 -0.23907845056E+03  0.25568907830E+03  0.90655387257E+02 0.  0.
        -13    1    3    3    0    0  0.21301415007E+02 -0.39163923494E+02 -0.96446529697E+02  0.10625204128E+03  0.00000000000E+00 0.  1.
         13    1    3    3    0    0 -0.21301415007E+02  0.39163923494E+02 -0.14263192087E+03  0.14943703703E+03  0.00000000000E+00 0. -1.
<mgrwt>
<rscale>  0 0.90655387E+02</rscale>
<asrwt>0</asrwt>
<pdfrwt beam="2">  1        1 0.38059045E-01 0.90655387E+02</pdfrwt>
<pdfrwt beam="1">  1       -1 0.12777404E-02 0.90655387E+02</pdfrwt>
<totfact> 0.12532156E+05</totfact>
</mgrwt>
</event>
<event>
 5    1  0.6085374E+000  0.9180988E+02  0.7546771E-02  0.1298527E+00
          4   -1    0    0  501    0  0.00000000000E+00  0.00000000000E+00  0.89070404691E+01  0.89070404691E+01  0.00000000000E+00 0. -1.
         -4   -1    0    0    0  501 -0.00000000000E+00 -0.00000000000E+00 -0.23658402254E+03  0.23658402254E+03  0.00000000000E+00 0.  1.
         23    2    1    2    0    0  0.00000000000E+00  0.00000000000E+00 -0.22767698207E+03  0.24549106301E+03  0.91809878839E+02 0.  0.
        -13    1    3    3    0    0 -0.28006633419E+02 -0.34551359706E+02 -0.14421947304E+03  0.15092191484E+03  0.00000000000E+00 0.  1.
         13    1    3    3    0    0  0.28006633419E+02  0.34551359706E+02 -0.83457509025E+02  0.94569148170E+02  0.00000000000E+00 0. -1.
<mgrwt>
<rscale>  0 0.91809879E+02</rscale>
<asrwt>0</asrwt>
<pdfrwt beam="1">  1        4 0.13703138E-02 0.91809879E+02</pdfrwt>
<pdfrwt beam="2">  1       -4 0.36397545E-01 0.91809879E+02</pdfrwt>
<totfact> 0.19264945E+04</totfact>
</mgrwt>
</event>
<event>
 5    1  0.6085374E+000  0.9373277E+02  0.7546771E-02  0.1294056E+00
         -2   -1    0    0    0  501 -0.00000000000E+00  0.00000000000E+00  0.48046471366E+01  0.48046471366E+01  0.00000000000E+00 0. -1.
          2   -1    0    0  501    0  0.00000000000E+00 -0.00000000000E+00 -0.45715281119E+03  0.45715281119E+03  0.00000000000E+00 0.  1.
         23    2    1    2    0    0  0.00000000000E+00  0.00000000000E+00 -0.45234816406E+03  0.46195745833E+03  0.93732767916E+02 0.  0.
        -13    1    3    3    0    0 -0.29753151666E+02  0.35260465658E+02 -0.18556068417E+03  0.19121014090E+03  0.00000000000E+00 0. -1.
         13    1    3    3    0    0  0.29753151666E+02 -0.35260465658E+02 -0.26678747989E+03  0.27074731743E+03  0.00000000000E+00 0.  1.
<mgrwt>
<rscale>  0 0.93732768E+02</rscale>
<asrwt>0</asrwt>
<pdfrwt beam="2">  1        2 0.70331198E-01 0.93732768E+02</pdfrwt>
<pdfrwt beam="1">  1       -2 0.73917652E-03 0.93732768E+02</pdfrwt>
<totfact> 0.19436157E+05</totfact>
</mgrwt>
</event>
<event>
 5    1  0.6085374E+000  0.9082194E+02  0.7546771E-02  0.1300873E+00
         -2   -1    0    0    0  501 -0.00000000000E+00  0.00000000000E+00  0.10079411488E+02  0.10079411488E+02  0.00000000000E+00 0.  1.
          2   -1    0    0  501    0  0.00000000000E+00 -0.00000000000E+00 -0.20459092824E+03  0.20459092824E+03  0.00000000000E+00 0. -1.
         23    2    1    2    0    0  0.00000000000E+00  0.00000000000E+00 -0.19451151675E+03  0.21467033973E+03  0.90821939032E+02 0.  0.
        -13    1    3    3    0    0  0.19626605215E+02 -0.33852193498E+02 -0.15172119320E+03  0.15668597609E+03  0.00000000000E+00 0. -1.
         13    1    3    3    0    0 -0.19626605215E+02  0.33852193498E+02 -0.42790323553E+02  0.57984363640E+02  0.00000000000E+00 0.  1.
<mgrwt>
<rscale>  0 0.90821939E+02</rscale>
<asrwt>0</asrwt>
<pdfrwt beam="2">  1        2 0.31475526E-01 0.90821939E+02</pdfrwt>
<pdfrwt beam="1">  1       -2 0.15506787E-02 0.90821939E+02</pdfrwt>
<totfact> 0.15760111E+05</totfact>
</mgrwt>
</event>
<event>
 5    1  0.6085374E+000  0.9441727E+02  0.7546771E-02  0.1292494E+00
         -1   -1    0    0    0  501 -0.00000000000E+00  0.00000000000E+00  0.49455847464E+02  0.49455847464E+02  0.00000000000E+00 0.  1.
          1   -1    0    0  501    0  0.00000000000E+00 -0.00000000000E+00 -0.45063535674E+02  0.45063535674E+02  0.00000000000E+00 0. -1.
         23    2    1    2    0    0  0.00000000000E+00  0.00000000000E+00  0.43923117906E+01  0.94519383138E+02  0.94417272710E+02 0.  0.
        -13    1    3    3    0    0 -0.22011452908E+02 -0.25568209779E+02  0.35253344866E+02  0.48795857761E+02  0.00000000000E+00 0.  1.
         13    1    3    3    0    0  0.22011452908E+02  0.25568209779E+02 -0.30861033075E+02  0.45723525377E+02  0.00000000000E+00 0. -1.
<mgrwt>
<rscale>  0 0.94417273E+02</rscale>
<asrwt>0</asrwt>
<pdfrwt beam="2">  1        1 0.69328516E-02 0.94417273E+02</pdfrwt>
<pdfrwt beam="1">  1       -1 0.76085919E-02 0.94417273E+02</pdfrwt>
<totfact> 0.83656206E+04</totfact>
</mgrwt>
</event>
<event>
 5    1  0.6085374E+000  0.8968543E+02  0.7546771E-02  0.1303615E+00
         -2   -1    0    0    0  501 -0.00000000000E+00  0.00000000000E+00  0.18136551475E+03  0.18136551475E+03  0.00000000000E+00 0.  1.
          2   -1    0    0  501    0  0.00000000000E+00 -0.00000000000E+00 -0.11087383985E+02  0.11087383985E+02  0.00000000000E+00 0. -1.
         23    2    1    2    0    0  0.00000000000E+00  0.00000000000E+00  0.17027813076E+03  0.19245289873E+03  0.89685430336E+02 0.  0.
        -13    1    3    3    0    0 -0.43032940280E+02 -0.12337261628E+02  0.79532180405E+02  0.91265599727E+02  0.00000000000E+00 0. -1.
         13    1    3    3    0    0  0.43032940280E+02  0.12337261628E+02  0.90745950356E+02  0.10118729900E+03  0.00000000000E+00 0.  1.
<mgrwt>
<rscale>  0 0.89685430E+02</rscale>
<asrwt>0</asrwt>
<pdfrwt beam="2">  1        2 0.17057515E-02 0.89685430E+02</pdfrwt>
<pdfrwt beam="1">  1       -2 0.27902385E-01 0.89685430E+02</pdfrwt>
<totfact> 0.67716407E+04</totfact>
</mgrwt>
</event>
<event>
 5    1  0.6085374E+000  0.8006619E+02  0.7546771E-02  0.1328864E+00
         -4   -1    0    0    0  501 -0.00000000000E+00  0.00000000000E+00  0.24340795878E+02  0.24340795878E+02  0.00000000000E+00 0. -1.
          4   -1    0    0  501    0  0.00000000000E+00 -0.00000000000E+00 -0.65842075651E+02  0.65842075651E+02  0.00000000000E+00 0.  1.
         23    2    1    2    0    0  0.00000000000E+00  0.00000000000E+00 -0.41501279772E+02  0.90182871529E+02  0.80066185712E+02 0.  0.
        -13    1    3    3    0    0  0.19270815597E+02 -0.34892686116E+02 -0.16568748777E+02  0.43166970176E+02  0.00000000000E+00 0.  1.
         13    1    3    3    0    0 -0.19270815597E+02  0.34892686116E+02 -0.24932530996E+02  0.47015901353E+02  0.00000000000E+00 0. -1.
<mgrwt>
<rscale>  0 0.80066186E+02</rscale>
<asrwt>0</asrwt>
<pdfrwt beam="2">  1        4 0.10129550E-01 0.80066186E+02</pdfrwt>
<pdfrwt beam="1">  1       -4 0.37447378E-02 0.80066186E+02</pdfrwt>
<totfact> 0.38396277E+04</totfact>
</mgrwt>
</event>
<event>
 5    1  0.6085374E+000  0.1002799E+03  0.7546771E-02  0.1279708E+00
          2   -1    0    0  501    0  0.00000000000E+00  0.00000000000E+00  0.14740417150E+02  0.14740417150E+02  0.00000000000E+00 0. -1.
         -2   -1    0    0    0  501 -0.00000000000E+00 -0.00000000000E+00 -0.17055243391E+03  0.17055243391E+03  0.00000000000E+00 0.  1.
         23    2    1    2    0    0  0.00000000000E+00  0.00000000000E+00 -0.15581201676E+03  0.18529285106E+03  0.10027988875E+03 0.  0.
        -13    1    3    3    0    0  0.29044350752E+02  0.40059944326E+02 -0.62935691323E+02  0.80057945841E+02  0.00000000000E+00 0. -1.
         13    1    3    3    0    0 -0.29044350752E+02 -0.40059944326E+02 -0.92876325442E+02  0.10523490522E+03  0.00000000000E+00 0.  1.
<mgrwt>
<rscale>  0 0.10027989E+03</rscale>
<asrwt>0</asrwt>
<pdfrwt beam="1">  1        2 0.22677565E-02 0.10027989E+03</pdfrwt>
<pdfrwt beam="2">  1       -2 0.26238836E-01 0.10027989E+03</pdfrwt>
<totfact> 0.52232184E+04</totfact>
</mgrwt>
</event>
<event>
 5    1  0.6085374E+000  0.9044649E+02  0.7546771E-02  0.1301774E+00
          3   -1    0    0  501    0  0.00000000000E+00  0.00000000000E+00  0.75501563307E+02  0.75501563307E+02  0.00000000000E+00 0. -1.
         -3   -1    0    0    0  501 -0.00000000000E+00 -0.00000000000E+00 -0.27087412938E+02  0.27087412938E+02  0.00000000000E+00 0.  1.
         23    2    1    2    0    0  0.00000000000E+00  0.00000000000E+00  0.48414150368E+02  0.10258897624E+03  0.90446492973E+02 0.  0.
        -13    1    3    3    0    0 -0.33166172906E+02 -0.15003859928E+02 -0.62287174961E+01  0.36931121830E+02  0.00000000000E+00 0.  1.
         13    1    3    3    0    0  0.33166172906E+02  0.15003859928E+02  0.54642867864E+02  0.65657854415E+02  0.00000000000E+00 0. -1.
<mgrwt>
<rscale>  0 0.90446493E+02</rscale>
<asrwt>0</asrwt>
<pdfrwt beam="1">  1        3 0.11615625E-01 0.90446493E+02</pdfrwt>
<pdfrwt beam="2">  1       -3 0.41672943E-02 0.90446493E+02</pdfrwt>
<totfact> 0.35241925E+04</totfact>
</mgrwt>
</event>
<event>
 5    1  0.6085374E+000  0.9058756E+02  0.7546771E-02  0.1301435E+00
         -4   -1    0    0    0  501 -0.00000000000E+00  0.00000000000E+00  0.28535248680E+02  0.28535248680E+02  0.00000000000E+00 0. -1.
          4   -1    0    0  501    0  0.00000000000E+00 -0.00000000000E+00 -0.71894463613E+02  0.71894463613E+02  0.00000000000E+00 0.  1.
         23    2    1    2    0    0  0.00000000000E+00  0.00000000000E+00 -0.43359214933E+02  0.10042971229E+03  0.90587557598E+02 0.  0.
        -13    1    3    3    0    0  0.39974954482E+02  0.18333096206E+02 -0.96658836774E+01  0.45028088008E+02  0.00000000000E+00 0. -1.
         13    1    3    3    0    0 -0.39974954482E+02 -0.18333096206E+02 -0.33693331256E+02  0.55401624285E+02  0.00000000000E+00 0.  1.
<mgrwt>
<rscale>  0 0.90587558E+02</rscale>
<asrwt>0</asrwt>
<pdfrwt beam="2">  1        4 0.11060686E-01 0.90587558E+02</pdfrwt>
<pdfrwt beam="1">  1       -4 0.43900383E-02 0.90587558E+02</pdfrwt>
<totfact> 0.26899543E+04</totfact>
</mgrwt>
</event>
<event>
 5    1  0.6085374E+000  0.9147929E+02  0.7546771E-02  0.1299308E+00
          1   -1    0    0  501    0  0.00000000000E+00  0.00000000000E+00  0.50775702814E+02  0.50775702814E+02  0.00000000000E+00 0. -1.
         -1   -1    0    0    0  501 -0.00000000000E+00 -0.00000000000E+00 -0.41203072415E+02  0.41203072415E+02  0.00000000000E+00 0.  1.
         23    2    1    2    0    0  0.00000000000E+00  0.00000000000E+00  0.95726303992E+01  0.91978775229E+02  0.91479286398E+02 0.  0.
        -13    1    3    3    0    0 -0.36051165351E+02  0.19564210921E+02 -0.15564508016E+02  0.43871389104E+02  0.00000000000E+00 0.  1.
         13    1    3    3    0    0  0.36051165351E+02 -0.19564210921E+02  0.25137138416E+02  0.48107386126E+02  0.00000000000E+00 0. -1.
<mgrwt>
<rscale>  0 0.91479286E+02</rscale>
<asrwt>0</asrwt>
<pdfrwt beam="1">  1        1 0.78116466E-02 0.91479286E+02</pdfrwt>
<pdfrwt beam="2">  1       -1 0.63389342E-02 0.91479286E+02</pdfrwt>
<totfact> 0.93114343E+04</totfact>
</mgrwt>
</event>
<event>
 5    1  0.6085374E+000  0.9273009E+02  0.7546771E-02  0.1296372E+00
         -2   -1    0    0    0  501 -0.00000000000E+00  0.00000000000E+00  0.19458455506E+03  0.19458455506E+03  0.00000000000E+00 0.  1.
          2   -1    0    0  501    0  0.00000000000E+00 -0.00000000000E+00 -0.11047728478E+02  0.11047728478E+02  0.00000000000E+00 0. -1.
         23    2    1    2    0    0  0.00000000000E+00  0.00000000000E+00  0.18353682658E+03  0.20563228354E+03  0.92730088546E+02 0.  0.
        -13    1    3    3    0    0 -0.22853539796E+02 -0.37405524693E+02  0.12527153794E+03  0.13271931199E+03  0.00000000000E+00 0.  1.
         13    1    3    3    0    0  0.22853539796E+02  0.37405524693E+02  0.58265288645E+02  0.72912971546E+02  0.00000000000E+00 0. -1.
<mgrwt>
<rscale>  0 0.92730089E+02</rscale>
<asrwt>0</asrwt>
<pdfrwt beam="2">  1        2 0.16996507E-02 0.92730089E+02</pdfrwt>
<pdfrwt beam="1">  1       -2 0.29936083E-01 0.92730089E+02</pdfrwt>
<totfact> 0.60394872E+04</totfact>
</mgrwt>
</event>
<event>
 5    1  0.6085374E+000  0.9277711E+02  0.7546771E-02  0.1296263E+00
         -1   -1    0    0    0  501 -0.00000000000E+00  0.00000000000E+00  0.35944609887E+02  0.35944609887E+02  0.00000000000E+00 0.  1.
          1   -1    0    0  501    0  0.00000000000E+00 -0.00000000000E+00 -0.59867059112E+02  0.59867059112E+02  0.00000000000E+00 0. -1.
         23    2    1    2    0    0  0.00000000000E+00  0.00000000000E+00 -0.23922449226E+02  0.95811668999E+02  0.92777111076E+02 0.  0.
        -13    1    3    3    0    0 -0.43369433007E+02 -0.15539650866E+02 -0.63512700594E+01  0.46505129822E+02  0.00000000000E+00 0.  1.
         13    1    3    3    0    0  0.43369433007E+02  0.15539650866E+02 -0.17571179166E+02  0.49306539178E+02  0.00000000000E+00 0. -1.
<mgrwt>
<rscale>  0 0.92777111E+02</rscale>
<asrwt>0</asrwt>
<pdfrwt beam="2">  1        1 0.92103166E-02 0.92777111E+02</pdfrwt>
<pdfrwt beam="1">  1       -1 0.55299401E-02 0.92777111E+02</pdfrwt>
<totfact> 0.91789461E+04</totfact>
</mgrwt>
</event>
<event>
 5    1  0.6085374E+000  0.8962802E+02  0.7546771E-02  0.1303755E+00
         -3   -1    0    0    0  501 -0.00000000000E+00  0.00000000000E+00  0.96696613272E+02  0.96696613272E+02  0.00000000000E+00 0.  1.
          3   -1    0    0  501    0  0.00000000000E+00 -0.00000000000E+00 -0.20769036450E+02  0.20769036450E+02  0.00000000000E+00 0. -1.
         23    2    1    2    0    0  0.00000000000E+00  0.00000000000E+00  0.75927576822E+02  0.11746564972E+03  0.89628019851E+02 0.  0.
        -13    1    3    3    0    0  0.30800978170E+02  0.27028175497E+02  0.61738386368E+02  0.74100275831E+02  0.00000000000E+00 0.  1.
         13    1    3    3    0    0 -0.30800978170E+02 -0.27028175497E+02  0.14189190454E+02  0.43365373891E+02  0.00000000000E+00 0. -1.
<mgrwt>
<rscale>  0 0.89628020E+02</rscale>
<asrwt>0</asrwt>
<pdfrwt beam="2">  1        3 0.31952364E-02 0.89628020E+02</pdfrwt>
<pdfrwt beam="1">  1       -3 0.14876402E-01 0.89628020E+02</pdfrwt>
<totfact> 0.35010669E+04</totfact>
</mgrwt>
</event>
<event>
 5    1  0.6085374E+000  0.9025913E+02  0.7546771E-02  0.1302225E+00
         -1   -1    0    0    0  501 -0.00000000000E+00  0.00000000000E+00  0.78828089064E+02  0.78828089064E+02  0.00000000000E+00 0.  1.
          1   -1    0    0  501    0  0.00000000000E+00 -0.00000000000E+00 -0.25836951827E+02  0.25836951827E+02  0.00000000000E+00 0. -1.
         23    2    1    2    0    0  0.00000000000E+00  0.00000000000E+00  0.52991137237E+02  0.10466504089E+03  0.90259127844E+02 0.  0.
        -13    1    3    3    0    0  0.11541422866E+01 -0.35605155350E+02  0.58623532666E+02  0.68598671373E+02  0.00000000000E+00 0.  1.
         13    1    3    3    0    0 -0.11541422866E+01  0.35605155350E+02 -0.56323954289E+01  0.36066369518E+02  0.00000000000E+00 0. -1.
<mgrwt>
<rscale>  0 0.90259128E+02</rscale>
<asrwt>0</asrwt>
<pdfrwt beam="2">  1        1 0.39749157E-02 0.90259128E+02</pdfrwt>
<pdfrwt beam="1">  1       -1 0.12127398E-01 0.90259128E+02</pdfrwt>
<totfact> 0.87084865E+04</totfact>
</mgrwt>
</event>
<event>
 5    1  0.6085374E+000  0.9080754E+02  0.7546771E-02  0.1300908E+00
          2   -1    0    0  501    0  0.00000000000E+00  0.00000000000E+00  0.50558738235E+02  0.50558738235E+02  0.00000000000E+00 0. -1.
         -2   -1    0    0    0  501 -0.00000000000E+00 -0.00000000000E+00 -0.40774406662E+02  0.40774406662E+02  0.00000000000E+00 0.  1.
         23    2    1    2    0    0  0.00000000000E+00  0.00000000000E+00  0.97843315732E+01  0.91333144897E+02  0.90807544909E+02 0.  0.
        -13    1    3    3    0    0  0.11362485049E+02 -0.59924473262E+01 -0.38908571406E+02  0.40974289747E+02  0.00000000000E+00 0.  1.
         13    1    3    3    0    0 -0.11362485049E+02  0.59924473262E+01  0.48692902979E+02  0.50358855150E+02  0.00000000000E+00 0. -1.
<mgrwt>
<rscale>  0 0.90807545E+02</rscale>
<asrwt>0</asrwt>
<pdfrwt beam="1">  1        2 0.77782674E-02 0.90807545E+02</pdfrwt>
<pdfrwt beam="2">  1       -2 0.62729856E-02 0.90807545E+02</pdfrwt>
<totfact> 0.10255019E+05</totfact>
</mgrwt>
</event>
<event>
 5    1  0.6085374E+000  0.8937830E+02  0.7546771E-02  0.1304364E+00
         -2   -1    0    0    0  501 -0.00000000000E+00  0.00000000000E+00  0.75585350429E+02  0.75585350429E+02  0.00000000000E+00 0.  1.
          2   -1    0    0  501    0  0.00000000000E+00 -0.00000000000E+00 -0.26422055532E+02  0.26422055532E+02  0.00000000000E+00 0. -1.
         23    2    1    2    0    0  0.00000000000E+00  0.00000000000E+00  0.49163294897E+02  0.10200740596E+03  0.89378304446E+02 0.  0.
        -13    1    3    3    0    0 -0.46921771362E+01  0.41641927051E+02  0.42301353105E+02  0.59543858536E+02  0.00000000000E+00 0.  1.
         13    1    3    3    0    0  0.46921771362E+01 -0.41641927051E+02  0.68619417913E+01  0.42463547425E+02  0.00000000000E+00 0. -1.
<mgrwt>
<rscale>  0 0.89378304E+02</rscale>
<asrwt>0</asrwt>
<pdfrwt beam="2">  1        2 0.40649317E-02 0.89378304E+02</pdfrwt>
<pdfrwt beam="1">  1       -2 0.11628515E-01 0.89378304E+02</pdfrwt>
<totfact> 0.90729798E+04</totfact>
</mgrwt>
</event>
<event>
 5    1  0.6085374E+000  0.9229952E+02  0.7546771E-02  0.1297377E+00
          1   -1    0    0  501    0  0.00000000000E+00  0.00000000000E+00  0.80947138166E+02  0.80947138166E+02  0.00000000000E+00 0. -1.
         -1   -1    0    0    0  501 -0.00000000000E+00 -0.00000000000E+00 -0.26311004108E+02  0.26311004108E+02  0.00000000000E+00 0.  1.
         23    2    1    2    0    0  0.00000000000E+00  0.00000000000E+00  0.54636134058E+02  0.10725814227E+03  0.92299522964E+02 0.  0.
        -13    1    3    3    0    0 -0.64891127139E+01 -0.42417209850E+02  0.75809914237E+01  0.43575218946E+02  0.00000000000E+00 0.  1.
         13    1    3    3    0    0  0.64891127139E+01  0.42417209850E+02  0.47055142634E+02  0.63682923328E+02  0.00000000000E+00 0. -1.
<mgrwt>
<rscale>  0 0.92299523E+02</rscale>
<asrwt>0</asrwt>
<pdfrwt beam="1">  1        1 0.12453406E-01 0.92299523E+02</pdfrwt>
<pdfrwt beam="2">  1       -1 0.40478468E-02 0.92299523E+02</pdfrwt>
<totfact> 0.97593036E+04</totfact>
</mgrwt>
</event>
<event>
 5    1  0.6085374E+000  0.8933140E+02  0.7546771E-02  0.1304479E+00
          2   -1    0    0  501    0  0.00000000000E+00  0.00000000000E+00  0.17967901611E+03  0.17967901611E+03  0.00000000000E+00 0. -1.
         -2   -1    0    0    0  501 -0.00000000000E+00 -0.00000000000E+00 -0.11103270088E+02  0.11103270088E+02  0.00000000000E+00 0.  1.
         23    2    1    2    0    0  0.00000000000E+00  0.00000000000E+00  0.16857574602E+03  0.19078228620E+03  0.89331397505E+02 0.  0.
        -13    1    3    3    0    0  0.44122306824E+02 -0.69394059494E+01  0.84933292722E+02  0.95961437708E+02  0.00000000000E+00 0.  1.
         13    1    3    3    0    0 -0.44122306824E+02  0.69394059494E+01  0.83642453300E+02  0.94820848490E+02  0.00000000000E+00 0. -1.
<mgrwt>
<rscale>  0 0.89331398E+02</rscale>
<asrwt>0</asrwt>
<pdfrwt beam="1">  1        2 0.27642923E-01 0.89331398E+02</pdfrwt>
<pdfrwt beam="2">  1       -2 0.17081955E-02 0.89331398E+02</pdfrwt>
<totfact> 0.15728408E+05</totfact>
</mgrwt>
</event>
<event>
 5    1  0.6085374E+000  0.8731705E+02  0.7546771E-02  0.1309482E+00
          2   -1    0    0  501    0  0.00000000000E+00  0.00000000000E+00  0.15780459373E+03  0.15780459373E+03  0.00000000000E+00 0. -1.
         -2   -1    0    0    0  501 -0.00000000000E+00 -0.00000000000E+00 -0.12078651413E+02  0.12078651413E+02  0.00000000000E+00 0.  1.
         23    2    1    2    0    0  0.00000000000E+00  0.00000000000E+00  0.14572594231E+03  0.16988324514E+03  0.87317047108E+02 0.  0.
        -13    1    3    3    0    0 -0.35741450966E+02  0.96504869675E+01  0.11788494587E+03  0.12356149756E+03  0.00000000000E+00 0. -1.
         13    1    3    3    0    0  0.35741450966E+02 -0.96504869675E+01  0.27840996438E+02  0.46321747576E+02  0.00000000000E+00 0.  1.
<mgrwt>
<rscale>  0 0.87317047E+02</rscale>
<asrwt>0</asrwt>
<pdfrwt beam="1">  1        2 0.24277628E-01 0.87317047E+02</pdfrwt>
<pdfrwt beam="2">  1       -2 0.18582542E-02 0.87317047E+02</pdfrwt>
<totfact> 0.15988347E+05</totfact>
</mgrwt>
</event>
<event>
 5    1  0.6085374E+000  0.9225877E+02  0.7546771E-02  0.1297472E+00
         -1   -1    0    0    0  501 -0.00000000000E+00  0.00000000000E+00  0.13795703064E+03  0.13795703064E+03  0.00000000000E+00 0.  1.
          1   -1    0    0  501    0  0.00000000000E+00 -0.00000000000E+00 -0.15424512581E+02  0.15424512581E+02  0.00000000000E+00 0. -1.
         23    2    1    2    0    0  0.00000000000E+00  0.00000000000E+00  0.12253251806E+03  0.15338154322E+03  0.92258765542E+02 0.  0.
        -13    1    3    3    0    0  0.20281886289E+02  0.26997089665E+02  0.90166710954E+01  0.34949937332E+02  0.00000000000E+00 0. -1.
         13    1    3    3    0    0 -0.20281886289E+02 -0.26997089665E+02  0.11351584697E+03  0.11843160589E+03  0.00000000000E+00 0.  1.
<mgrwt>
<rscale>  0 0.92258766E+02</rscale>
<asrwt>0</asrwt>
<pdfrwt beam="2">  1        1 0.23730020E-02 0.92258766E+02</pdfrwt>
<pdfrwt beam="1">  1       -1 0.21224158E-01 0.92258766E+02</pdfrwt>
<totfact> 0.73931604E+04</totfact>
</mgrwt>
</event>
<event>
 5    1  0.6085374E+000  0.9192605E+02  0.7546771E-02  0.1298253E+00
          4   -1    0    0  501    0  0.00000000000E+00  0.00000000000E+00  0.10568087185E+02  0.10568087185E+02  0.00000000000E+00 0. -1.
         -4   -1    0    0    0  501 -0.00000000000E+00 -0.00000000000E+00 -0.19990367975E+03  0.19990367975E+03  0.00000000000E+00 0.  1.
         23    2    1    2    0    0  0.00000000000E+00  0.00000000000E+00 -0.18933559256E+03  0.21047176693E+03  0.91926046715E+02 0.  0.
        -13    1    3    3    0    0  0.10581101784E+02  0.36155428582E+02 -0.15495913730E+03  0.15947259628E+03  0.00000000000E+00 0.  1.
         13    1    3    3    0    0 -0.10581101784E+02 -0.36155428582E+02 -0.34376455259E+02  0.50999170651E+02  0.00000000000E+00 0. -1.
<mgrwt>
<rscale>  0 0.91926047E+02</rscale>
<asrwt>0</asrwt>
<pdfrwt beam="1">  1        4 0.16258596E-02 0.91926047E+02</pdfrwt>
<pdfrwt beam="2">  1       -4 0.30754412E-01 0.91926047E+02</pdfrwt>
<totfact> 0.20501827E+04</totfact>
</mgrwt>
</event>
<event>
 5    1  0.6085374E+000  0.9085027E+02  0.7546771E-02  0.1300806E+00
          1   -1    0    0  501    0  0.00000000000E+00  0.00000000000E+00  0.27552949295E+02  0.27552949295E+02  0.00000000000E+00 0. -1.
         -1   -1    0    0    0  501 -0.00000000000E+00 -0.00000000000E+00 -0.74890093930E+02  0.74890093930E+02  0.00000000000E+00 0.  1.
         23    2    1    2    0    0  0.00000000000E+00  0.00000000000E+00 -0.47337144635E+02  0.10244304323E+03  0.90850271563E+02 0.  0.
        -13    1    3    3    0    0  0.15255138871E+02 -0.27512463152E+02 -0.60618664726E+02  0.68295515254E+02  0.00000000000E+00 0.  1.
         13    1    3    3    0    0 -0.15255138871E+02  0.27512463152E+02  0.13281520091E+02  0.34147527972E+02  0.00000000000E+00 0. -1.
<mgrwt>
<rscale>  0 0.90850272E+02</rscale>
<asrwt>0</asrwt>
<pdfrwt beam="1">  1        1 0.42389153E-02 0.90850272E+02</pdfrwt>
<pdfrwt beam="2">  1       -1 0.11521553E-01 0.90850272E+02</pdfrwt>
<totfact> 0.86377688E+04</totfact>
</mgrwt>
</event>
<event>
 5    1  0.6085374E+000  0.8980362E+02  0.7546771E-02  0.1303328E+00
          1   -1    0    0  501    0  0.00000000000E+00  0.00000000000E+00  0.38042894999E+02  0.38042894999E+02  0.00000000000E+00 0. -1.
         -1   -1    0    0    0  501 -0.00000000000E+00 -0.00000000000E+00 -0.52997345467E+02  0.52997345467E+02  0.00000000000E+00 0.  1.
         23    2    1    2    0    0  0.00000000000E+00  0.00000000000E+00 -0.14954450468E+02  0.91040240465E+02  0.89803617940E+02 0.  0.
        -13    1    3    3    0    0  0.47419103960E+01 -0.23701731578E+02 -0.45838950394E+02  0.51821493294E+02  0.00000000000E+00 0.  1.
         13    1    3    3    0    0 -0.47419103960E+01  0.23701731578E+02  0.30884499926E+02  0.39218747171E+02  0.00000000000E+00 0. -1.
<mgrwt>
<rscale>  0 0.89803618E+02</rscale>
<asrwt>0</asrwt>
<pdfrwt beam="1">  1        1 0.58527531E-02 0.89803618E+02</pdfrwt>
<pdfrwt beam="2">  1       -1 0.81534377E-02 0.89803618E+02</pdfrwt>
<totfact> 0.93915398E+04</totfact>
</mgrwt>
</event>
<event>
 5    1  0.6085374E+000  0.9266300E+02  0.7546771E-02  0.1296528E+00
          4   -1    0    0  501    0  0.00000000000E+00  0.00000000000E+00  0.26874445359E+02  0.26874445359E+02  0.00000000000E+00 0. -1.
         -4   -1    0    0    0  501 -0.00000000000E+00 -0.00000000000E+00 -0.79875427701E+02  0.79875427701E+02  0.00000000000E+00 0.  1.
         23    2    1    2    0    0  0.00000000000E+00  0.00000000000E+00 -0.53000982342E+02  0.10674987306E+03  0.92662998382E+02 0.  0.
        -13    1    3    3    0    0  0.93020389818E+01  0.45047172260E+02 -0.32897294376E+02  0.56550929569E+02  0.00000000000E+00 0. -1.
         13    1    3    3    0    0 -0.93020389818E+01 -0.45047172260E+02 -0.20103687966E+02  0.50198943491E+02  0.00000000000E+00 0.  1.
<mgrwt>
<rscale>  0 0.92662998E+02</rscale>
<asrwt>0</asrwt>
<pdfrwt beam="1">  1        4 0.41345301E-02 0.92662998E+02</pdfrwt>
<pdfrwt beam="2">  1       -4 0.12288527E-01 0.92662998E+02</pdfrwt>
<totfact> 0.24928038E+04</totfact>
</mgrwt>
</event>
<event>
 5    1  0.6085374E+000  0.9087324E+02  0.7546771E-02  0.1300751E+00
          1   -1    0    0  501    0  0.00000000000E+00  0.00000000000E+00  0.23994077305E+02  0.23994077305E+02  0.00000000000E+00 0. -1.
         -1   -1    0    0    0  501 -0.00000000000E+00 -0.00000000000E+00 -0.86041502844E+02  0.86041502844E+02  0.00000000000E+00 0.  1.
         23    2    1    2    0    0  0.00000000000E+00  0.00000000000E+00 -0.62047425539E+02  0.11003558015E+03  0.90873240741E+02 0.  0.
        -13    1    3    3    0    0 -0.33798339639E+02  0.16825411003E+00 -0.67793684072E+02  0.75751829495E+02  0.00000000000E+00 0.  1.
         13    1    3    3    0    0  0.33798339639E+02 -0.16825411003E+00  0.57462585333E+01  0.34283750654E+02  0.00000000000E+00 0. -1.
<mgrwt>
<rscale>  0 0.90873241E+02</rscale>
<asrwt>0</asrwt>
<pdfrwt beam="1">  1        1 0.36913965E-02 0.90873241E+02</pdfrwt>
<pdfrwt beam="2">  1       -1 0.13237154E-01 0.90873241E+02</pdfrwt>
<totfact> 0.84318509E+04</totfact>
</mgrwt>
</event>
<event>
 5    1  0.6085374E+000  0.8571869E+02  0.7546771E-02  0.1313564E+00
         -1   -1    0    0    0  501 -0.00000000000E+00  0.00000000000E+00  0.82302384383E+02  0.82302384383E+02  0.00000000000E+00 0.  1.
          1   -1    0    0  501    0  0.00000000000E+00 -0.00000000000E+00 -0.22319201543E+02  0.22319201543E+02  0.00000000000E+00 0. -1.
         23    2    1    2    0    0  0.00000000000E+00  0.00000000000E+00  0.59983182841E+02  0.10462158593E+03  0.85718691182E+02 0.  0.
        -13    1    3    3    0    0 -0.28897644202E+02  0.25302523155E+02  0.53201807629E+02  0.65618014702E+02  0.00000000000E+00 0.  1.
         13    1    3    3    0    0  0.28897644202E+02 -0.25302523155E+02  0.67813752122E+01  0.39003571224E+02  0.00000000000E+00 0. -1.
<mgrwt>
<rscale>  0 0.85718691E+02</rscale>
<asrwt>0</asrwt>
<pdfrwt beam="2">  1        1 0.34337234E-02 0.85718691E+02</pdfrwt>
<pdfrwt beam="1">  1       -1 0.12661905E-01 0.85718691E+02</pdfrwt>
<totfact> 0.98652650E+04</totfact>
</mgrwt>
</event>
<event>
 5    1  0.6085374E+000  0.8768500E+02  0.7546771E-02  0.1308557E+00
         -1   -1    0    0    0  501 -0.00000000000E+00  0.00000000000E+00  0.10610991665E+03  0.10610991665E+03  0.00000000000E+00 0.  1.
          1   -1    0    0  501    0  0.00000000000E+00 -0.00000000000E+00 -0.18114844025E+02  0.18114844025E+02  0.00000000000E+00 0. -1.
         23    2    1    2    0    0  0.00000000000E+00  0.00000000000E+00  0.87995072623E+02  0.12422476067E+03  0.87684995059E+02 0.  0.
        -13    1    3    3    0    0  0.16446053936E+02  0.37619552161E+02  0.65782800283E+02  0.77544053337E+02  0.00000000000E+00 0.  1.
         13    1    3    3    0    0 -0.16446053936E+02 -0.37619552161E+02  0.22212272339E+02  0.46680707336E+02  0.00000000000E+00 0. -1.
<mgrwt>
<rscale>  0 0.87684995E+02</rscale>
<asrwt>0</asrwt>
<pdfrwt beam="2">  1        1 0.27868991E-02 0.87684995E+02</pdfrwt>
<pdfrwt beam="1">  1       -1 0.16324602E-01 0.87684995E+02</pdfrwt>
<totfact> 0.88975349E+04</totfact>
</mgrwt>
</event>
<event>
 5    1  0.6085374E+000  0.9026481E+02  0.7546771E-02  0.1302212E+00
          1   -1    0    0  501    0  0.00000000000E+00  0.00000000000E+00  0.16223403640E+03  0.16223403640E+03  0.00000000000E+00 0. -1.
         -1   -1    0    0    0  501 -0.00000000000E+00 -0.00000000000E+00 -0.12555526934E+02  0.12555526934E+02  0.00000000000E+00 0.  1.
         23    2    1    2    0    0  0.00000000000E+00  0.00000000000E+00  0.14967850947E+03  0.17478956334E+03  0.90264806290E+02 0.  0.
        -13    1    3    3    0    0 -0.40531154200E+02 -0.10280300167E+02  0.10772827749E+03  0.11555881967E+03  0.00000000000E+00 0. -1.
         13    1    3    3    0    0  0.40531154200E+02  0.10280300167E+02  0.41950231981E+02  0.59230743669E+02  0.00000000000E+00 0.  1.
<mgrwt>
<rscale>  0 0.90264806E+02</rscale>
<asrwt>0</asrwt>
<pdfrwt beam="1">  1        1 0.24959081E-01 0.90264806E+02</pdfrwt>
<pdfrwt beam="2">  1       -1 0.19316196E-02 0.90264806E+02</pdfrwt>
<totfact> 0.11689223E+05</totfact>
</mgrwt>
</event>
<event>
 5    1  0.6085374E+000  0.9163102E+02  0.7546771E-02  0.1298949E+00
          2   -1    0    0  501    0  0.00000000000E+00  0.00000000000E+00  0.21222289201E+02  0.21222289201E+02  0.00000000000E+00 0. -1.
         -2   -1    0    0    0  501 -0.00000000000E+00 -0.00000000000E+00 -0.98908316824E+02  0.98908316824E+02  0.00000000000E+00 0.  1.
         23    2    1    2    0    0  0.00000000000E+00  0.00000000000E+00 -0.77686027623E+02  0.12013060603E+03  0.91631018854E+02 0.  0.
        -13    1    3    3    0    0 -0.17559672979E+02  0.39850950293E+02 -0.20181241044E+02  0.47997112876E+02  0.00000000000E+00 0. -1.
         13    1    3    3    0    0  0.17559672979E+02 -0.39850950293E+02 -0.57504786580E+02  0.72133493150E+02  0.00000000000E+00 0.  1.
<mgrwt>
<rscale>  0 0.91631019E+02</rscale>
<asrwt>0</asrwt>
<pdfrwt beam="1">  1        2 0.32649676E-02 0.91631019E+02</pdfrwt>
<pdfrwt beam="2">  1       -2 0.15216664E-01 0.91631019E+02</pdfrwt>
<totfact> 0.79083187E+04</totfact>
</mgrwt>
</event>
<event>
 5    1  0.6085374E+000  0.9304143E+02  0.7546771E-02  0.1295649E+00
         -2   -1    0    0    0  501 -0.00000000000E+00  0.00000000000E+00  0.15748442439E+02  0.15748442439E+02  0.00000000000E+00 0.  1.
          2   -1    0    0  501    0  0.00000000000E+00 -0.00000000000E+00 -0.13742164165E+03  0.13742164165E+03  0.00000000000E+00 0. -1.
         23    2    1    2    0    0  0.00000000000E+00  0.00000000000E+00 -0.12167319921E+03  0.15317008409E+03  0.93041427621E+02 0.  0.
        -13    1    3    3    0    0 -0.65343082804E+01  0.37614953121E+02 -0.10459715687E+03  0.11134696722E+03  0.00000000000E+00 0. -1.
         13    1    3    3    0    0  0.65343082804E+01 -0.37614953121E+02 -0.17076042343E+02  0.41823116875E+02  0.00000000000E+00 0.  1.
<mgrwt>
<rscale>  0 0.93041428E+02</rscale>
<asrwt>0</asrwt>
<pdfrwt beam="2">  1        2 0.21141791E-01 0.93041428E+02</pdfrwt>
<pdfrwt beam="1">  1       -2 0.24228373E-02 0.93041428E+02</pdfrwt>
<totfact> 0.12845649E+05</totfact>
</mgrwt>
</event>
<event>
 5    1  0.6085374E+000  0.9341430E+02  0.7546771E-02  0.1294788E+00
          1   -1    0    0  501    0  0.00000000000E+00  0.00000000000E+00  0.59981642959E+02  0.59981642959E+02  0.00000000000E+00 0. -1.
         -1   -1    0    0    0  501 -0.00000000000E+00 -0.00000000000E+00 -0.36370428436E+02  0.36370428436E+02  0.00000000000E+00 0.  1.
         23    2    1    2    0    0  0.00000000000E+00  0.00000000000E+00  0.23611214523E+02  0.96352071395E+02  0.93414304102E+02 0.  0.
        -13    1    3    3    0    0 -0.33356937607E+01  0.38185512006E+02  0.39333850463E+02  0.54921871529E+02  0.00000000000E+00 0. -1.
         13    1    3    3    0    0  0.33356937607E+01 -0.38185512006E+02 -0.15722635940E+02  0.41430199866E+02  0.00000000000E+00 0.  1.
<mgrwt>
<rscale>  0 0.93414304E+02</rscale>
<asrwt>0</asrwt>
<pdfrwt beam="1">  1        1 0.92279451E-02 0.93414304E+02</pdfrwt>
<pdfrwt beam="2">  1       -1 0.55954505E-02 0.93414304E+02</pdfrwt>
<totfact> 0.90082769E+04</totfact>
</mgrwt>
</event>
<event>
 5    1  0.6085374E+000  0.8924299E+02  0.7546771E-02  0.1304695E+00
          2   -1    0    0  501    0  0.00000000000E+00  0.00000000000E+00  0.89917188653E+02  0.89917188653E+02  0.00000000000E+00 0. -1.
         -2   -1    0    0    0  501 -0.00000000000E+00 -0.00000000000E+00 -0.22143461231E+02  0.22143461231E+02  0.00000000000E+00 0.  1.
         23    2    1    2    0    0  0.00000000000E+00  0.00000000000E+00  0.67773727422E+02  0.11206064988E+03  0.89242989213E+02 0.  0.
        -13    1    3    3    0    0  0.11917263888E+02  0.10909633500E+02  0.86115256426E+02  0.87617798825E+02  0.00000000000E+00 0. -1.
         13    1    3    3    0    0 -0.11917263888E+02 -0.10909633500E+02 -0.18341529004E+02  0.24442851059E+02  0.00000000000E+00 0.  1.
<mgrwt>
<rscale>  0 0.89242989E+02</rscale>
<asrwt>0</asrwt>
<pdfrwt beam="1">  1        2 0.13833413E-01 0.89242989E+02</pdfrwt>
<pdfrwt beam="2">  1       -2 0.34066864E-02 0.89242989E+02</pdfrwt>
<totfact> 0.12606437E+05</totfact>
</mgrwt>
</event>
<event>
 5    1  0.6085374E+000  0.8936120E+02  0.7546771E-02  0.1304406E+00
          1   -1    0    0  501    0  0.00000000000E+00  0.00000000000E+00  0.93730655034E+02  0.93730655034E+02  0.00000000000E+00 0. -1.
         -1   -1    0    0    0  501 -0.00000000000E+00 -0.00000000000E+00 -0.21298858442E+02  0.21298858442E+02  0.00000000000E+00 0.  1.
         23    2    1    2    0    0  0.00000000000E+00  0.00000000000E+00  0.72431796592E+02  0.11502951348E+03  0.89361198589E+02 0.  0.
        -13    1    3    3    0    0  0.19755627119E+02  0.98661987990E+01  0.86215432200E+02  0.88998468700E+02  0.00000000000E+00 0. -1.
         13    1    3    3    0    0 -0.19755627119E+02 -0.98661987990E+01 -0.13783635608E+02  0.26031044777E+02  0.00000000000E+00 0.  1.
<mgrwt>
<rscale>  0 0.89361199E+02</rscale>
<asrwt>0</asrwt>
<pdfrwt beam="1">  1        1 0.14420101E-01 0.89361199E+02</pdfrwt>
<pdfrwt beam="2">  1       -1 0.32767475E-02 0.89361199E+02</pdfrwt>
<totfact> 0.10916545E+05</totfact>
</mgrwt>
</event>
<event>
 5    1  0.6085374E+000  0.9171519E+02  0.7546771E-02  0.1298750E+00
         -1   -1    0    0    0  501 -0.00000000000E+00  0.00000000000E+00  0.10596713635E+03  0.10596713635E+03  0.00000000000E+00 0.  1.
          1   -1    0    0  501    0  0.00000000000E+00 -0.00000000000E+00 -0.19845013263E+02  0.19845013263E+02  0.00000000000E+00 0. -1.
         23    2    1    2    0    0  0.00000000000E+00  0.00000000000E+00  0.86122123092E+02  0.12581214962E+03  0.91715194519E+02 0.  0.
        -13    1    3    3    0    0  0.16491561161E+02 -0.23155597863E+02  0.92421262808E+02  0.96694586824E+02  0.00000000000E+00 0.  1.
         13    1    3    3    0    0 -0.16491561161E+02  0.23155597863E+02 -0.62991397168E+01  0.29117562794E+02  0.00000000000E+00 0. -1.
<mgrwt>
<rscale>  0 0.91715195E+02</rscale>
<asrwt>0</asrwt>
<pdfrwt beam="2">  1        1 0.30530790E-02 0.91715195E+02</pdfrwt>
<pdfrwt beam="1">  1       -1 0.16302636E-01 0.91715195E+02</pdfrwt>
<totfact> 0.79271978E+04</totfact>
</mgrwt>
</event>
<event>
 5    1  0.6085374E+000  0.9006384E+02  0.7546771E-02  0.1302697E+00
          1   -1    0    0  501    0  0.00000000000E+00  0.00000000000E+00  0.54582056576E+02  0.54582056576E+02  0.00000000000E+00 0. -1.
         -1   -1    0    0    0  501 -0.00000000000E+00 -0.00000000000E+00 -0.37152752213E+02  0.37152752213E+02  0.00000000000E+00 0.  1.
         23    2    1    2    0    0  0.00000000000E+00  0.00000000000E+00  0.17429304363E+02  0.91734808789E+02  0.90063835655E+02 0.  0.
        -13    1    3    3    0    0 -0.33436524385E+02  0.16383940020E+02 -0.17081883805E+02  0.40966149536E+02  0.00000000000E+00 0.  1.
         13    1    3    3    0    0  0.33436524385E+02 -0.16383940020E+02  0.34511188167E+02  0.50768659252E+02  0.00000000000E+00 0. -1.
<mgrwt>
<rscale>  0 0.90063836E+02</rscale>
<asrwt>0</asrwt>
<pdfrwt beam="1">  1        1 0.83972395E-02 0.90063836E+02</pdfrwt>
<pdfrwt beam="2">  1       -1 0.57158080E-02 0.90063836E+02</pdfrwt>
<totfact> 0.98305740E+04</totfact>
</mgrwt>
</event>
<event>
 5    1  0.6085374E+000  0.9194866E+02  0.7546771E-02  0.1298200E+00
          1   -1    0    0  501    0  0.00000000000E+00  0.00000000000E+00  0.17935248935E+03  0.17935248935E+03  0.00000000000E+00 0. -1.
         -1   -1    0    0    0  501 -0.00000000000E+00 -0.00000000000E+00 -0.11784833279E+02  0.11784833279E+02  0.00000000000E+00 0.  1.
         23    2    1    2    0    0  0.00000000000E+00  0.00000000000E+00  0.16756765607E+03  0.19113732263E+03  0.91948663618E+02 0.  0.
        -13    1    3    3    0    0  0.12643025924E+01  0.39122558439E+02  0.13390974077E+03  0.13951341052E+03  0.00000000000E+00 0. -1.
         13    1    3    3    0    0 -0.12643025924E+01 -0.39122558439E+02  0.33657915302E+02  0.51623912118E+02  0.00000000000E+00 0.  1.
<mgrwt>
<rscale>  0 0.91948664E+02</rscale>
<asrwt>0</asrwt>
<pdfrwt beam="1">  1        1 0.27592689E-01 0.91948664E+02</pdfrwt>
<pdfrwt beam="2">  1       -1 0.18130514E-02 0.91948664E+02</pdfrwt>
<totfact> 0.11334591E+05</totfact>
</mgrwt>
</event>
<event>
 5    1  0.6085374E+000  0.9227104E+02  0.7546771E-02  0.1297443E+00
          1   -1    0    0  501    0  0.00000000000E+00  0.00000000000E+00  0.42639764470E+02  0.42639764470E+02  0.00000000000E+00 0. -1.
         -1   -1    0    0    0  501 -0.00000000000E+00 -0.00000000000E+00 -0.49917868429E+02  0.49917868429E+02  0.00000000000E+00 0.  1.
         23    2    1    2    0    0  0.00000000000E+00  0.00000000000E+00 -0.72781039585E+01  0.92557632899E+02  0.92271038851E+02 0.  0.
        -13    1    3    3    0    0  0.71128714125E+01 -0.24239983142E+02 -0.42363574699E+02  0.49323850050E+02  0.00000000000E+00 0.  1.
         13    1    3    3    0    0 -0.71128714125E+01  0.24239983142E+02  0.35085470740E+02  0.43233782850E+02  0.00000000000E+00 0. -1.
<mgrwt>
<rscale>  0 0.92271039E+02</rscale>
<asrwt>0</asrwt>
<pdfrwt beam="1">  1        1 0.65599638E-02 0.92271039E+02</pdfrwt>
<pdfrwt beam="2">  1       -1 0.76796720E-02 0.92271039E+02</pdfrwt>
<totfact> 0.88515532E+04</totfact>
</mgrwt>
</event>
<event>
 5    1  0.6085374E+000  0.9236184E+02  0.7546771E-02  0.1297231E+00
         -2   -1    0    0    0  501 -0.00000000000E+00  0.00000000000E+00  0.28893492341E+02  0.28893492341E+02  0.00000000000E+00 0. -1.
          2   -1    0    0  501    0  0.00000000000E+00 -0.00000000000E+00 -0.73811684795E+02  0.73811684795E+02  0.00000000000E+00 0.  1.
         23    2    1    2    0    0  0.00000000000E+00  0.00000000000E+00 -0.44918192454E+02  0.10270517714E+03  0.92361839507E+02 0.  0.
        -13    1    3    3    0    0  0.37539473640E+02 -0.18290302058E+02 -0.44388940625E+02  0.60943623787E+02  0.00000000000E+00 0.  1.
         13    1    3    3    0    0 -0.37539473640E+02  0.18290302058E+02 -0.52925182926E+00  0.41761553348E+02  0.00000000000E+00 0. -1.
<mgrwt>
<rscale>  0 0.92361840E+02</rscale>
<asrwt>0</asrwt>
<pdfrwt beam="2">  1        2 0.11355644E-01 0.92361840E+02</pdfrwt>
<pdfrwt beam="1">  1       -2 0.44451527E-02 0.92361840E+02</pdfrwt>
<totfact> 0.10828570E+05</totfact>
</mgrwt>
</event>
<event>
 5    1  0.6085374E+000  0.9115413E+02  0.7546771E-02  0.1300081E+00
          3   -1    0    0  501    0  0.00000000000E+00  0.00000000000E+00  0.85367328963E+02  0.85367328963E+02  0.00000000000E+00 0. -1.
         -3   -1    0    0    0  501 -0.00000000000E+00 -0.00000000000E+00 -0.24333301178E+02  0.24333301178E+02  0.00000000000E+00 0.  1.
         23    2    1    2    0    0  0.00000000000E+00  0.00000000000E+00  0.61034027785E+02  0.10970063014E+03  0.91154131588E+02 0.  0.
        -13    1    3    3    0    0  0.84910780754E+01 -0.36944895999E+02  0.60968319848E+02  0.71792477129E+02  0.00000000000E+00 0. -1.
         13    1    3    3    0    0 -0.84910780754E+01  0.36944895999E+02  0.65707936857E-01  0.37908153012E+02  0.00000000000E+00 0.  1.
<mgrwt>
<rscale>  0 0.91154132E+02</rscale>
<asrwt>0</asrwt>
<pdfrwt beam="1">  1        3 0.13133435E-01 0.91154132E+02</pdfrwt>
<pdfrwt beam="2">  1       -3 0.37435848E-02 0.91154132E+02</pdfrwt>
<totfact> 0.33989153E+04</totfact>
</mgrwt>
</event>
<event>
 5    1  0.6085374E+000  0.9194734E+02  0.7546771E-02  0.1298203E+00
          3   -1    0    0  501    0  0.00000000000E+00  0.00000000000E+00  0.19591968426E+02  0.19591968426E+02  0.00000000000E+00 0. -1.
         -3   -1    0    0    0  501 -0.00000000000E+00 -0.00000000000E+00 -0.10787982569E+03  0.10787982569E+03  0.00000000000E+00 0.  1.
         23    2    1    2    0    0  0.00000000000E+00  0.00000000000E+00 -0.88287857266E+02  0.12747179412E+03  0.91947335770E+02 0.  0.
        -13    1    3    3    0    0  0.28583697690E+02  0.17066349037E+02 -0.88100180226E+02  0.94180304730E+02  0.00000000000E+00 0.  1.
         13    1    3    3    0    0 -0.28583697690E+02 -0.17066349037E+02 -0.18767703935E+00  0.33291489389E+02  0.00000000000E+00 0. -1.
<mgrwt>
<rscale>  0 0.91947336E+02</rscale>
<asrwt>0</asrwt>
<pdfrwt beam="1">  1        3 0.30141490E-02 0.91947336E+02</pdfrwt>
<pdfrwt beam="2">  1       -3 0.16596896E-01 0.91947336E+02</pdfrwt>
<totfact> 0.32003664E+04</totfact>
</mgrwt>
</event>
<event>
 5    1  0.6085374E+000  0.9092086E+02  0.7546771E-02  0.1300637E+00
          1   -1    0    0  501    0  0.00000000000E+00  0.00000000000E+00  0.10430852608E+02  0.10430852608E+02  0.00000000000E+00 0. -1.
         -1   -1    0    0    0  501 -0.00000000000E+00 -0.00000000000E+00 -0.19812866465E+03  0.19812866465E+03  0.00000000000E+00 0.  1.
         23    2    1    2    0    0  0.00000000000E+00  0.00000000000E+00 -0.18769781204E+03  0.20855951726E+03  0.90920864456E+02 0.  0.
        -13    1    3    3    0    0 -0.36998108558E+01 -0.36087557793E+02 -0.15669601973E+03  0.16084042722E+03  0.00000000000E+00 0.  1.
         13    1    3    3    0    0  0.36998108558E+01  0.36087557793E+02 -0.31001792312E+02  0.47719090042E+02  0.00000000000E+00 0. -1.
<mgrwt>
<rscale>  0 0.90920864E+02</rscale>
<asrwt>0</asrwt>
<pdfrwt beam="1">  1        1 0.16047464E-02 0.90920864E+02</pdfrwt>
<pdfrwt beam="2">  1       -1 0.30481336E-01 0.90920864E+02</pdfrwt>
<totfact> 0.70122628E+04</totfact>
</mgrwt>
</event>
<event>
 5    1  0.6085374E+000  0.8863307E+02  0.7546771E-02  0.1306196E+00
          2   -1    0    0  501    0  0.00000000000E+00  0.00000000000E+00  0.27605153118E+03  0.27605153118E+03  0.00000000000E+00 0. -1.
         -2   -1    0    0    0  501 -0.00000000000E+00 -0.00000000000E+00 -0.71144516737E+01  0.71144516737E+01  0.00000000000E+00 0.  1.
         23    2    1    2    0    0  0.00000000000E+00  0.00000000000E+00  0.26893707950E+03  0.28316598285E+03  0.88633070081E+02 0.  0.
        -13    1    3    3    0    0 -0.40450936770E+02 -0.14438269079E+02  0.99586025136E+02  0.10845330010E+03  0.00000000000E+00 0. -1.
         13    1    3    3    0    0  0.40450936770E+02  0.14438269079E+02  0.16935105437E+03  0.17471268275E+03  0.00000000000E+00 0.  1.
<mgrwt>
<rscale>  0 0.88633070E+02</rscale>
<asrwt>0</asrwt>
<pdfrwt beam="1">  1        2 0.42469458E-01 0.88633070E+02</pdfrwt>
<pdfrwt beam="2">  1       -2 0.10945312E-02 0.88633070E+02</pdfrwt>
<totfact> 0.18782262E+05</totfact>
</mgrwt>
</event>
<event>
 5    1  0.6085374E+000  0.9286227E+02  0.7546771E-02  0.1296065E+00
          2   -1    0    0  501    0  0.00000000000E+00  0.00000000000E+00  0.43898990562E+01  0.43898990562E+01  0.00000000000E+00 0.  1.
         -2   -1    0    0    0  501 -0.00000000000E+00 -0.00000000000E+00 -0.49109339942E+03  0.49109339942E+03  0.00000000000E+00 0. -1.
         23    2    1    2    0    0  0.00000000000E+00  0.00000000000E+00 -0.48670350036E+03  0.49548329847E+03  0.92862273300E+02 0.  0.
        -13    1    3    3    0    0  0.45284570656E+02  0.10238115865E+02 -0.24645881399E+03  0.25079365692E+03  0.00000000000E+00 0.  1.
         13    1    3    3    0    0 -0.45284570656E+02 -0.10238115865E+02 -0.24024468637E+03  0.24468964155E+03  0.00000000000E+00 0. -1.
<mgrwt>
<rscale>  0 0.92862273E+02</rscale>
<asrwt>0</asrwt>
<pdfrwt beam="1">  1        2 0.67536938E-03 0.92862273E+02</pdfrwt>
<pdfrwt beam="2">  1       -2 0.75552798E-01 0.92862273E+02</pdfrwt>
<totfact> 0.35105563E+04</totfact>
</mgrwt>
</event>
<event>
 5    1  0.6085374E+000  0.9163964E+02  0.7546771E-02  0.1298929E+00
          3   -1    0    0  501    0  0.00000000000E+00  0.00000000000E+00  0.48968775383E+02  0.48968775383E+02  0.00000000000E+00 0. -1.
         -3   -1    0    0    0  501 -0.00000000000E+00 -0.00000000000E+00 -0.42873356757E+02  0.42873356757E+02  0.00000000000E+00 0.  1.
         23    2    1    2    0    0  0.00000000000E+00  0.00000000000E+00  0.60954186266E+01  0.91842132140E+02  0.91639637209E+02 0.  0.
        -13    1    3    3    0    0 -0.43483167675E+01  0.43733768647E+02  0.16034173606E+02  0.46782957388E+02  0.00000000000E+00 0.  1.
         13    1    3    3    0    0  0.43483167675E+01 -0.43733768647E+02 -0.99387549798E+01  0.45059174752E+02  0.00000000000E+00 0. -1.
<mgrwt>
<rscale>  0 0.91639637E+02</rscale>
<asrwt>0</asrwt>
<pdfrwt beam="1">  1        3 0.75336577E-02 0.91639637E+02</pdfrwt>
<pdfrwt beam="2">  1       -3 0.65959011E-02 0.91639637E+02</pdfrwt>
<totfact> 0.34803082E+04</totfact>
</mgrwt>
</event>
<event>
 5    1  0.6085374E+000  0.9111877E+02  0.7546771E-02  0.1300165E+00
          2   -1    0    0  501    0  0.00000000000E+00  0.00000000000E+00  0.38471535470E+02  0.38471535470E+02  0.00000000000E+00 0. -1.
         -2   -1    0    0    0  501 -0.00000000000E+00 -0.00000000000E+00 -0.53953070373E+02  0.53953070373E+02  0.00000000000E+00 0.  1.
         23    2    1    2    0    0  0.00000000000E+00  0.00000000000E+00 -0.15481534902E+02  0.92424605843E+02  0.91118767783E+02 0.  0.
        -13    1    3    3    0    0 -0.13515661509E+02 -0.30030896977E+02  0.24192619844E+02  0.40863317709E+02  0.00000000000E+00 0. -1.
         13    1    3    3    0    0  0.13515661509E+02  0.30030896977E+02 -0.39674154746E+02  0.51561288134E+02  0.00000000000E+00 0.  1.
<mgrwt>
<rscale>  0 0.91118768E+02</rscale>
<asrwt>0</asrwt>
<pdfrwt beam="1">  1        2 0.59186977E-02 0.91118768E+02</pdfrwt>
<pdfrwt beam="2">  1       -2 0.83004724E-02 0.91118768E+02</pdfrwt>
<totfact> 0.94605959E+04</totfact>
</mgrwt>
</event>
<event>
 5    1  0.6085374E+000  0.7510726E+02  0.7546771E-02  0.1343539E+00
         -2   -1    0    0    0  501 -0.00000000000E+00  0.00000000000E+00  0.10736662316E+02  0.10736662316E+02  0.00000000000E+00 0.  1.
          2   -1    0    0  501    0  0.00000000000E+00 -0.00000000000E+00 -0.13135135016E+03  0.13135135016E+03  0.00000000000E+00 0. -1.
         23    2    1    2    0    0  0.00000000000E+00  0.00000000000E+00 -0.12061468784E+03  0.14208801248E+03  0.75107259075E+02 0.  0.
        -13    1    3    3    0    0  0.11755384487E+02  0.23643651858E+02 -0.11082459459E+03  0.11392674007E+03  0.00000000000E+00 0. -1.
         13    1    3    3    0    0 -0.11755384487E+02 -0.23643651858E+02 -0.97900932592E+01  0.28161272408E+02  0.00000000000E+00 0.  1.
<mgrwt>
<rscale>  0 0.75107259E+02</rscale>
<asrwt>0</asrwt>
<pdfrwt beam="2">  1        2 0.20207901E-01 0.75107259E+02</pdfrwt>
<pdfrwt beam="1">  1       -2 0.16517942E-02 0.75107259E+02</pdfrwt>
<totfact> 0.22529231E+05</totfact>
</mgrwt>
</event>
<event>
 5    1  0.6085374E+000  0.9411458E+02  0.7546771E-02  0.1293183E+00
          3   -1    0    0  501    0  0.00000000000E+00  0.00000000000E+00  0.30087557308E+03  0.30087557308E+03  0.00000000000E+00 0. -1.
         -3   -1    0    0    0  501 -0.00000000000E+00 -0.00000000000E+00 -0.73598153127E+01  0.73598153127E+01  0.00000000000E+00 0.  1.
         23    2    1    2    0    0  0.00000000000E+00  0.00000000000E+00  0.29351575777E+03  0.30823538839E+03  0.94114582291E+02 0.  0.
        -13    1    3    3    0    0 -0.30348810092E+02 -0.28726672908E+02  0.75897638913E+02  0.86641350422E+02  0.00000000000E+00 0.  1.
         13    1    3    3    0    0  0.30348810092E+02  0.28726672908E+02  0.21761811885E+03  0.22159403797E+03  0.00000000000E+00 0. -1.
<mgrwt>
<rscale>  0 0.94114582E+02</rscale>
<asrwt>0</asrwt>
<pdfrwt beam="1">  1        3 0.46288540E-01 0.94114582E+02</pdfrwt>
<pdfrwt beam="2">  1       -3 0.11322795E-02 0.94114582E+02</pdfrwt>
<totfact> 0.21775937E+04</totfact>
</mgrwt>
</event>
<event>
 5    1  0.6085374E+000  0.9162154E+02  0.7546771E-02  0.1298972E+00
         -2   -1    0    0    0  501 -0.00000000000E+00  0.00000000000E+00  0.43237824854E+02  0.43237824854E+02  0.00000000000E+00 0.  1.
          2   -1    0    0  501    0  0.00000000000E+00 -0.00000000000E+00 -0.48536821318E+02  0.48536821318E+02  0.00000000000E+00 0. -1.
         23    2    1    2    0    0  0.00000000000E+00  0.00000000000E+00 -0.52989964636E+01  0.91774646172E+02  0.91621538497E+02 0.  0.
        -13    1    3    3    0    0  0.23313149473E+02  0.84274094950E+01  0.35938928616E+02  0.43659257428E+02  0.00000000000E+00 0.  1.
         13    1    3    3    0    0 -0.23313149473E+02 -0.84274094950E+01 -0.41237925079E+02  0.48115388744E+02  0.00000000000E+00 0. -1.
<mgrwt>
<rscale>  0 0.91621538E+02</rscale>
<asrwt>0</asrwt>
<pdfrwt beam="2">  1        2 0.74672033E-02 0.91621538E+02</pdfrwt>
<pdfrwt beam="1">  1       -2 0.66519730E-02 0.91621538E+02</pdfrwt>
<totfact> 0.98909386E+04</totfact>
</mgrwt>
</event>
<event>
 5    1  0.6085374E+000  0.9153034E+02  0.7546771E-02  0.1299188E+00
         -2   -1    0    0    0  501 -0.00000000000E+00  0.00000000000E+00  0.24334044512E+02  0.24334044512E+02  0.00000000000E+00 0. -1.
          2   -1    0    0  501    0  0.00000000000E+00 -0.00000000000E+00 -0.86070808691E+02  0.86070808691E+02  0.00000000000E+00 0.  1.
         23    2    1    2    0    0  0.00000000000E+00  0.00000000000E+00 -0.61736764179E+02  0.11040485320E+03  0.91530342288E+02 0.  0.
        -13    1    3    3    0    0  0.38836900688E+02 -0.20808525887E+02 -0.45795755641E+02  0.63549593542E+02  0.00000000000E+00 0.  1.
         13    1    3    3    0    0 -0.38836900688E+02  0.20808525887E+02 -0.15941008538E+02  0.46855259661E+02  0.00000000000E+00 0. -1.
<mgrwt>
<rscale>  0 0.91530342E+02</rscale>
<asrwt>0</asrwt>
<pdfrwt beam="2">  1        2 0.13241663E-01 0.91530342E+02</pdfrwt>
<pdfrwt beam="1">  1       -2 0.37436992E-02 0.91530342E+02</pdfrwt>
<totfact> 0.11605687E+05</totfact>
</mgrwt>
</event>
<event>
 5    1  0.6085374E+000  0.9101323E+02  0.7546771E-02  0.1300416E+00
         -3   -1    0    0    0  501 -0.00000000000E+00  0.00000000000E+00  0.14088469567E+02  0.14088469567E+02  0.00000000000E+00 0.  1.
          3   -1    0    0  501    0  0.00000000000E+00 -0.00000000000E+00 -0.14698913109E+03  0.14698913109E+03  0.00000000000E+00 0. -1.
         23    2    1    2    0    0  0.00000000000E+00  0.00000000000E+00 -0.13290066152E+03  0.16107760066E+03  0.91013227611E+02 0.  0.
        -13    1    3    3    0    0 -0.55445735344E+01 -0.30536811002E+02 -0.75490667788E+01  0.31941000784E+02  0.00000000000E+00 0.  1.
         13    1    3    3    0    0  0.55445735344E+01  0.30536811002E+02 -0.12535159474E+03  0.12913659987E+03  0.00000000000E+00 0. -1.
<mgrwt>
<rscale>  0 0.91013228E+02</rscale>
<asrwt>0</asrwt>
<pdfrwt beam="2">  1        3 0.22613712E-01 0.91013228E+02</pdfrwt>
<pdfrwt beam="1">  1       -3 0.21674569E-02 0.91013228E+02</pdfrwt>
<totfact> 0.30792251E+04</totfact>
</mgrwt>
</event>
<event>
 5    1  0.6085374E+000  0.9143149E+02  0.7546771E-02  0.1299422E+00
         -1   -1    0    0    0  501 -0.00000000000E+00  0.00000000000E+00  0.17587982171E+02  0.17587982171E+02  0.00000000000E+00 0.  1.
          1   -1    0    0  501    0  0.00000000000E+00 -0.00000000000E+00 -0.11882711917E+03  0.11882711917E+03  0.00000000000E+00 0. -1.
         23    2    1    2    0    0  0.00000000000E+00  0.00000000000E+00 -0.10123913700E+03  0.13641510134E+03  0.91431488084E+02 0.  0.
        -13    1    3    3    0    0  0.34603198443E+02 -0.46493031845E+01 -0.65885472547E+01  0.35530357689E+02  0.00000000000E+00 0.  1.
         13    1    3    3    0    0 -0.34603198443E+02  0.46493031845E+01 -0.94650589742E+02  0.10088474365E+03  0.00000000000E+00 0. -1.
<mgrwt>
<rscale>  0 0.91431488E+02</rscale>
<asrwt>0</asrwt>
<pdfrwt beam="2">  1        1 0.18281095E-01 0.91431488E+02</pdfrwt>
<pdfrwt beam="1">  1       -1 0.27058434E-02 0.91431488E+02</pdfrwt>
<totfact> 0.10674370E+05</totfact>
</mgrwt>
</event>
<event>
 5    1  0.6085374E+000  0.8972891E+02  0.7546771E-02  0.1303509E+00
         -2   -1    0    0    0  501 -0.00000000000E+00  0.00000000000E+00  0.56665571615E+02  0.56665571615E+02  0.00000000000E+00 0.  1.
          2   -1    0    0  501    0  0.00000000000E+00 -0.00000000000E+00 -0.35521030662E+02  0.35521030662E+02  0.00000000000E+00 0. -1.
         23    2    1    2    0    0  0.00000000000E+00  0.00000000000E+00  0.21144540953E+02  0.92186602278E+02  0.89728914110E+02 0.  0.
        -13    1    3    3    0    0  0.15579449772E+02 -0.40704569168E+02  0.21505087203E+02  0.48600925732E+02  0.00000000000E+00 0. -1.
         13    1    3    3    0    0 -0.15579449772E+02  0.40704569168E+02 -0.36054624982E+00  0.43585676546E+02  0.00000000000E+00 0.  1.
<mgrwt>
<rscale>  0 0.89728914E+02</rscale>
<asrwt>0</asrwt>
<pdfrwt beam="2">  1        2 0.54647739E-02 0.89728914E+02</pdfrwt>
<pdfrwt beam="1">  1       -2 0.87177803E-02 0.89728914E+02</pdfrwt>
<totfact> 0.96914287E+04</totfact>
</mgrwt>
</event>
<event>
 5    1  0.6085374E+000  0.9062605E+02  0.7546771E-02  0.1301343E+00
         -2   -1    0    0    0  501 -0.00000000000E+00  0.00000000000E+00  0.26537444847E+02  0.26537444847E+02  0.00000000000E+00 0. -1.
          2   -1    0    0  501    0  0.00000000000E+00 -0.00000000000E+00 -0.77372572055E+02  0.77372572055E+02  0.00000000000E+00 0.  1.
         23    2    1    2    0    0  0.00000000000E+00  0.00000000000E+00 -0.50835127208E+02  0.10391001690E+03  0.90626052844E+02 0.  0.
        -13    1    3    3    0    0  0.15956015843E+02 -0.20871958894E+02 -0.67748532933E+02  0.72664274745E+02  0.00000000000E+00 0.  1.
         13    1    3    3    0    0 -0.15956015843E+02  0.20871958894E+02  0.16913405725E+02  0.31245742156E+02  0.00000000000E+00 0. -1.
<mgrwt>
<rscale>  0 0.90626053E+02</rscale>
<asrwt>0</asrwt>
<pdfrwt beam="2">  1        2 0.11903472E-01 0.90626053E+02</pdfrwt>
<pdfrwt beam="1">  1       -2 0.40826839E-02 0.90626053E+02</pdfrwt>
<totfact> 0.11570173E+05</totfact>
</mgrwt>
</event>
<event>
 5    1  0.6085374E+000  0.9546181E+02  0.7546771E-02  0.1290139E+00
         -2   -1    0    0    0  501 -0.00000000000E+00  0.00000000000E+00  0.11771741080E+03  0.11771741080E+03  0.00000000000E+00 0.  1.
          2   -1    0    0  501    0  0.00000000000E+00 -0.00000000000E+00 -0.19353460467E+02  0.19353460467E+02  0.00000000000E+00 0. -1.
         23    2    1    2    0    0  0.00000000000E+00  0.00000000000E+00  0.98363950329E+02  0.13707087126E+03  0.95461809247E+02 0.  0.
        -13    1    3    3    0    0  0.10320301815E+02 -0.19966868693E+02 -0.11279200698E+02  0.25147660793E+02  0.00000000000E+00 0. -1.
         13    1    3    3    0    0 -0.10320301815E+02  0.19966868693E+02  0.10964315103E+03  0.11192321047E+03  0.00000000000E+00 0.  1.
<mgrwt>
<rscale>  0 0.95461809E+02</rscale>
<asrwt>0</asrwt>
<pdfrwt beam="2">  1        2 0.29774555E-02 0.95461809E+02</pdfrwt>
<pdfrwt beam="1">  1       -2 0.18110371E-01 0.95461809E+02</pdfrwt>
<totfact> 0.67625129E+04</totfact>
</mgrwt>
</event>
<event>
 5    1  0.6085374E+000  0.9205007E+02  0.7546771E-02  0.1297962E+00
         -4   -1    0    0    0  501 -0.00000000000E+00  0.00000000000E+00  0.10910032455E+02  0.10910032455E+02  0.00000000000E+00 0.  1.
          4   -1    0    0  501    0  0.00000000000E+00 -0.00000000000E+00 -0.19416107442E+03  0.19416107442E+03  0.00000000000E+00 0. -1.
         23    2    1    2    0    0  0.00000000000E+00  0.00000000000E+00 -0.18325104197E+03  0.20507110688E+03  0.92050065148E+02 0.  0.
        -13    1    3    3    0    0  0.29462694214E+02 -0.32162083428E+02 -0.58894459758E+02  0.73287156794E+02  0.00000000000E+00 0.  1.
         13    1    3    3    0    0 -0.29462694214E+02  0.32162083428E+02 -0.12435658221E+03  0.13178395008E+03  0.00000000000E+00 0. -1.
<mgrwt>
<rscale>  0 0.92050065E+02</rscale>
<asrwt>0</asrwt>
<pdfrwt beam="2">  1        4 0.29870932E-01 0.92050065E+02</pdfrwt>
<pdfrwt beam="1">  1       -4 0.16784667E-02 0.92050065E+02</pdfrwt>
<totfact> 0.20641649E+04</totfact>
</mgrwt>
</event>
<event>
 5    1  0.6085374E+000  0.9186942E+02  0.7546771E-02  0.1298387E+00
          2   -1    0    0  501    0  0.00000000000E+00  0.00000000000E+00  0.76715537501E+02  0.76715537501E+02  0.00000000000E+00 0. -1.
         -2   -1    0    0    0  501 -0.00000000000E+00 -0.00000000000E+00 -0.27504175616E+02  0.27504175616E+02  0.00000000000E+00 0.  1.
         23    2    1    2    0    0  0.00000000000E+00  0.00000000000E+00  0.49211361885E+02  0.10421971312E+03  0.91869420720E+02 0.  0.
        -13    1    3    3    0    0  0.10686653946E+01  0.43099630843E+02  0.42588410079E+02  0.60601096505E+02  0.00000000000E+00 0. -1.
         13    1    3    3    0    0 -0.10686653946E+01 -0.43099630843E+02  0.66229518065E+01  0.43618616612E+02  0.00000000000E+00 0.  1.
<mgrwt>
<rscale>  0 0.91869421E+02</rscale>
<asrwt>0</asrwt>
<pdfrwt beam="1">  1        2 0.11802390E-01 0.91869421E+02</pdfrwt>
<pdfrwt beam="2">  1       -2 0.42314117E-02 0.91869421E+02</pdfrwt>
<totfact> 0.11112370E+05</totfact>
</mgrwt>
</event>
<event>
 5    1  0.6085374E+000  0.1069994E+03  0.7546771E-02  0.1266230E+00
          3   -1    0    0  501    0  0.00000000000E+00  0.00000000000E+00  0.12203661846E+03  0.12203661846E+03  0.00000000000E+00 0. -1.
         -3   -1    0    0    0  501 -0.00000000000E+00 -0.00000000000E+00 -0.23453770428E+02  0.23453770428E+02  0.00000000000E+00 0.  1.
         23    2    1    2    0    0  0.00000000000E+00  0.00000000000E+00  0.98582848034E+02  0.14549038889E+03  0.10699941744E+03 0.  0.
        -13    1    3    3    0    0  0.53299565243E+02 -0.15627357589E+01  0.43374949323E+02  0.68736249729E+02  0.00000000000E+00 0.  1.
         13    1    3    3    0    0 -0.53299565243E+02  0.15627357589E+01  0.55207898712E+02  0.76754139161E+02  0.00000000000E+00 0. -1.
<mgrwt>
<rscale>  0 0.10699942E+03</rscale>
<asrwt>0</asrwt>
<pdfrwt beam="1">  1        3 0.18774864E-01 0.10699942E+03</pdfrwt>
<pdfrwt beam="2">  1       -3 0.36082724E-02 0.10699942E+03</pdfrwt>
<totfact> 0.20383507E+04</totfact>
</mgrwt>
</event>
<event>
 5    1  0.6085374E+000  0.8954780E+02  0.7546771E-02  0.1303950E+00
         -3   -1    0    0    0  501 -0.00000000000E+00  0.00000000000E+00  0.93981161452E+02  0.93981161452E+02  0.00000000000E+00 0.  1.
          3   -1    0    0  501    0  0.00000000000E+00 -0.00000000000E+00 -0.21330891947E+02  0.21330891947E+02  0.00000000000E+00 0. -1.
         23    2    1    2    0    0  0.00000000000E+00  0.00000000000E+00  0.72650269505E+02  0.11531205340E+03  0.89547797292E+02 0.  0.
        -13    1    3    3    0    0 -0.25561243386E+02 -0.21118789084E+02 -0.24203622125E+01  0.33245128501E+02  0.00000000000E+00 0. -1.
         13    1    3    3    0    0  0.25561243386E+02  0.21118789084E+02  0.75070631718E+02  0.82066924898E+02  0.00000000000E+00 0.  1.
<mgrwt>
<rscale>  0 0.89547797E+02</rscale>
<asrwt>0</asrwt>
<pdfrwt beam="2">  1        3 0.32816758E-02 0.89547797E+02</pdfrwt>
<pdfrwt beam="1">  1       -3 0.14458640E-01 0.89547797E+02</pdfrwt>
<totfact> 0.35252952E+04</totfact>
</mgrwt>
</event>
<event>
 5    1  0.6085374E+000  0.9510926E+02  0.7546771E-02  0.1290930E+00
         -1   -1    0    0    0  501 -0.00000000000E+00  0.00000000000E+00  0.12198179253E+02  0.12198179253E+02  0.00000000000E+00 0.  1.
          1   -1    0    0  501    0  0.00000000000E+00 -0.00000000000E+00 -0.18539183805E+03  0.18539183805E+03  0.00000000000E+00 0. -1.
         23    2    1    2    0    0  0.00000000000E+00  0.00000000000E+00 -0.17319365880E+03  0.19759001731E+03  0.95109260804E+02 0.  0.
        -13    1    3    3    0    0 -0.31229091350E+02  0.16162375383E+02 -0.15310830340E+03  0.15709433820E+03  0.00000000000E+00 0. -1.
         13    1    3    3    0    0  0.31229091350E+02 -0.16162375383E+02 -0.20085355397E+02  0.40495679103E+02  0.00000000000E+00 0.  1.
<mgrwt>
<rscale>  0 0.95109261E+02</rscale>
<asrwt>0</asrwt>
<pdfrwt beam="2">  1        1 0.28521820E-01 0.95109261E+02</pdfrwt>
<pdfrwt beam="1">  1       -1 0.18766431E-02 0.95109261E+02</pdfrwt>
<totfact> 0.10413864E+05</totfact>
</mgrwt>
</event>
<event>
 5    1  0.6085374E+000  0.8913275E+02  0.7546771E-02  0.1304966E+00
          3   -1    0    0  501    0  0.00000000000E+00  0.00000000000E+00  0.28110759829E+02  0.28110759829E+02  0.00000000000E+00 0. -1.
         -3   -1    0    0    0  501 -0.00000000000E+00 -0.00000000000E+00 -0.70654865352E+02  0.70654865352E+02  0.00000000000E+00 0.  1.
         23    2    1    2    0    0  0.00000000000E+00  0.00000000000E+00 -0.42544105522E+02  0.98765625181E+02  0.89132753815E+02 0.  0.
        -13    1    3    3    0    0 -0.37536550960E+02 -0.19166575692E+02 -0.37322358583E+02  0.56296613858E+02  0.00000000000E+00 0.  1.
         13    1    3    3    0    0  0.37536550960E+02  0.19166575692E+02 -0.52217469396E+01  0.42469011323E+02  0.00000000000E+00 0. -1.
<mgrwt>
<rscale>  0 0.89132754E+02</rscale>
<asrwt>0</asrwt>
<pdfrwt beam="1">  1        3 0.43247323E-02 0.89132754E+02</pdfrwt>
<pdfrwt beam="2">  1       -3 0.10869979E-01 0.89132754E+02</pdfrwt>
<totfact> 0.36971266E+04</totfact>
</mgrwt>
</event>
<event>
 5    1  0.6085374E+000  0.9131922E+02  0.7546771E-02  0.1299688E+00
         -1   -1    0    0    0  501 -0.00000000000E+00  0.00000000000E+00  0.31103420402E+02  0.31103420402E+02  0.00000000000E+00 0.  1.
          1   -1    0    0  501    0  0.00000000000E+00 -0.00000000000E+00 -0.67027991241E+02  0.67027991241E+02  0.00000000000E+00 0. -1.
         23    2    1    2    0    0  0.00000000000E+00  0.00000000000E+00 -0.35924570839E+02  0.98131411644E+02  0.91319215728E+02 0.  0.
        -13    1    3    3    0    0 -0.88499486833E+01  0.13972868597E+02  0.27771118926E+02  0.32323330505E+02  0.00000000000E+00 0.  1.
         13    1    3    3    0    0  0.88499486833E+01 -0.13972868597E+02 -0.63695689765E+02  0.65808081139E+02  0.00000000000E+00 0. -1.
<mgrwt>
<rscale>  0 0.91319216E+02</rscale>
<asrwt>0</asrwt>
<pdfrwt beam="2">  1        1 0.10311999E-01 0.91319216E+02</pdfrwt>
<pdfrwt beam="1">  1       -1 0.47851417E-02 0.91319216E+02</pdfrwt>
<totfact> 0.97588640E+04</totfact>
</mgrwt>
</event>
<event>
 5    1  0.6085374E+000  0.9227943E+02  0.7546771E-02  0.1297424E+00
          2   -1    0    0  501    0  0.00000000000E+00  0.00000000000E+00  0.86608083684E+01  0.86608083684E+01  0.00000000000E+00 0. -1.
         -2   -1    0    0    0  501 -0.00000000000E+00 -0.00000000000E+00 -0.24580536759E+03  0.24580536759E+03  0.00000000000E+00 0.  1.
         23    2    1    2    0    0  0.00000000000E+00  0.00000000000E+00 -0.23714455922E+03  0.25446617596E+03  0.92279427493E+02 0.  0.
        -13    1    3    3    0    0  0.37795592936E+02 -0.12973782594E+02 -0.54965955839E+02  0.67956472697E+02  0.00000000000E+00 0. -1.
         13    1    3    3    0    0 -0.37795592936E+02  0.12973782594E+02 -0.18217860338E+03  0.18650970326E+03  0.00000000000E+00 0.  1.
<mgrwt>
<rscale>  0 0.92279427E+02</rscale>
<asrwt>0</asrwt>
<pdfrwt beam="1">  1        2 0.13324321E-02 0.92279427E+02</pdfrwt>
<pdfrwt beam="2">  1       -2 0.37816209E-01 0.92279427E+02</pdfrwt>
<totfact> 0.54928605E+04</totfact>
</mgrwt>
</event>
<event>
 5    1  0.6085374E+000  0.9125936E+02  0.7546771E-02  0.1299830E+00
         -1   -1    0    0    0  501 -0.00000000000E+00  0.00000000000E+00  0.60717951489E+02  0.60717951489E+02  0.00000000000E+00 0.  1.
          1   -1    0    0  501    0  0.00000000000E+00 -0.00000000000E+00 -0.34290812558E+02  0.34290812558E+02  0.00000000000E+00 0. -1.
         23    2    1    2    0    0  0.00000000000E+00  0.00000000000E+00  0.26427138932E+02  0.95008764047E+02  0.91259364306E+02 0.  0.
        -13    1    3    3    0    0  0.38002837045E+02  0.25237576803E+02  0.12216632202E+02  0.47227079189E+02  0.00000000000E+00 0. -1.
         13    1    3    3    0    0 -0.38002837045E+02 -0.25237576803E+02  0.14210506729E+02  0.47781684858E+02  0.00000000000E+00 0.  1.
<mgrwt>
<rscale>  0 0.91259364E+02</rscale>
<asrwt>0</asrwt>
<pdfrwt beam="2">  1        1 0.52755096E-02 0.91259364E+02</pdfrwt>
<pdfrwt beam="1">  1       -1 0.93412233E-02 0.91259364E+02</pdfrwt>
<totfact> 0.88313091E+04</totfact>
</mgrwt>
</event>
<event>
 5    1  0.6085374E+000  0.9348007E+02  0.7546771E-02  0.1294637E+00
          1   -1    0    0  501    0  0.00000000000E+00  0.00000000000E+00  0.98628270451E+02  0.98628270451E+02  0.00000000000E+00 0. -1.
         -1   -1    0    0    0  501 -0.00000000000E+00 -0.00000000000E+00 -0.22150149044E+02  0.22150149044E+02  0.00000000000E+00 0.  1.
         23    2    1    2    0    0  0.00000000000E+00  0.00000000000E+00  0.76478121406E+02  0.12077841950E+03  0.93480070399E+02 0.  0.
        -13    1    3    3    0    0 -0.41520753192E+02 -0.10682536642E+02  0.62290875244E+02  0.75619062896E+02  0.00000000000E+00 0.  1.
         13    1    3    3    0    0  0.41520753192E+02  0.10682536642E+02  0.14187246163E+02  0.45159356599E+02  0.00000000000E+00 0. -1.
<mgrwt>
<rscale>  0 0.93480070E+02</rscale>
<asrwt>0</asrwt>
<pdfrwt beam="1">  1        1 0.15173580E-01 0.93480070E+02</pdfrwt>
<pdfrwt beam="2">  1       -1 0.34077153E-02 0.93480070E+02</pdfrwt>
<totfact> 0.97341585E+04</totfact>
</mgrwt>
</event>
<event>
 5    1  0.6085374E+000  0.9122252E+02  0.7546771E-02  0.1299918E+00
          3   -1    0    0  501    0  0.00000000000E+00  0.00000000000E+00  0.15440537379E+02  0.15440537379E+02  0.00000000000E+00 0. -1.
         -3   -1    0    0    0  501 -0.00000000000E+00 -0.00000000000E+00 -0.13473539703E+03  0.13473539703E+03  0.00000000000E+00 0.  1.
         23    2    1    2    0    0  0.00000000000E+00  0.00000000000E+00 -0.11929485965E+03  0.15017593441E+03  0.91222517705E+02 0.  0.
        -13    1    3    3    0    0 -0.22011275976E+02  0.16811034476E+02 -0.11930656011E+03  0.12247923267E+03  0.00000000000E+00 0.  1.
         13    1    3    3    0    0  0.22011275976E+02 -0.16811034476E+02  0.11700458990E-01  0.27696701738E+02  0.00000000000E+00 0. -1.
<mgrwt>
<rscale>  0 0.91222518E+02</rscale>
<asrwt>0</asrwt>
<pdfrwt beam="1">  1        3 0.23754672E-02 0.91222518E+02</pdfrwt>
<pdfrwt beam="2">  1       -3 0.20728524E-01 0.91222518E+02</pdfrwt>
<totfact> 0.31254844E+04</totfact>
</mgrwt>
</event>
<event>
 5    1  0.6085374E+000  0.9121807E+02  0.7546771E-02  0.1299928E+00
          4   -1    0    0  501    0  0.00000000000E+00  0.00000000000E+00  0.15359566597E+02  0.15359566597E+02  0.00000000000E+00 0. -1.
         -4   -1    0    0    0  501 -0.00000000000E+00 -0.00000000000E+00 -0.13543247830E+03  0.13543247830E+03  0.00000000000E+00 0.  1.
         23    2    1    2    0    0  0.00000000000E+00  0.00000000000E+00 -0.12007291171E+03  0.15079204490E+03  0.91218072109E+02 0.  0.
        -13    1    3    3    0    0 -0.40946799025E+02 -0.39079498406E+01 -0.92610031682E+02  0.10133375741E+03  0.00000000000E+00 0. -1.
         13    1    3    3    0    0  0.40946799025E+02  0.39079498406E+01 -0.27462880024E+02  0.49458287491E+02  0.00000000000E+00 0.  1.
<mgrwt>
<rscale>  0 0.91218072E+02</rscale>
<asrwt>0</asrwt>
<pdfrwt beam="1">  1        4 0.23630103E-02 0.91218072E+02</pdfrwt>
<pdfrwt beam="2">  1       -4 0.20835766E-01 0.91218072E+02</pdfrwt>
<totfact> 0.23604646E+04</totfact>
</mgrwt>
</event>
<event>
 5    1  0.6085374E+000  0.9052706E+02  0.7546771E-02  0.1301580E+00
          3   -1    0    0  501    0  0.00000000000E+00  0.00000000000E+00  0.28253435797E+02  0.28253435797E+02  0.00000000000E+00 0. -1.
         -3   -1    0    0    0  501 -0.00000000000E+00 -0.00000000000E+00 -0.72514621471E+02  0.72514621471E+02  0.00000000000E+00 0.  1.
         23    2    1    2    0    0  0.00000000000E+00  0.00000000000E+00 -0.44261185673E+02  0.10076805727E+03  0.90527061194E+02 0.  0.
        -13    1    3    3    0    0 -0.24741437574E+02  0.38918396176E+01 -0.64098586674E+02  0.68817977029E+02  0.00000000000E+00 0.  1.
         13    1    3    3    0    0  0.24741437574E+02 -0.38918396176E+01  0.19837401001E+02  0.31950080239E+02  0.00000000000E+00 0. -1.
<mgrwt>
<rscale>  0 0.90527061E+02</rscale>
<asrwt>0</asrwt>
<pdfrwt beam="1">  1        3 0.43466824E-02 0.90527061E+02</pdfrwt>
<pdfrwt beam="2">  1       -3 0.11156096E-01 0.90527061E+02</pdfrwt>
<totfact> 0.35295114E+04</totfact>
</mgrwt>
</event>
<event>
 5    1  0.6085374E+000  0.8900867E+02  0.7546771E-02  0.1305270E+00
         -1   -1    0    0    0  501 -0.00000000000E+00  0.00000000000E+00  0.16637867829E+03  0.16637867829E+03  0.00000000000E+00 0.  1.
          1   -1    0    0  501    0  0.00000000000E+00 -0.00000000000E+00 -0.11904384955E+02  0.11904384955E+02  0.00000000000E+00 0. -1.
         23    2    1    2    0    0  0.00000000000E+00  0.00000000000E+00  0.15447429333E+03  0.17828306324E+03  0.89008670018E+02 0.  0.
        -13    1    3    3    0    0  0.33852855487E+02  0.41609912859E+01  0.13449962787E+03  0.13875690819E+03  0.00000000000E+00 0.  1.
         13    1    3    3    0    0 -0.33852855487E+02 -0.41609912859E+01  0.19974665467E+02  0.39526155057E+02  0.00000000000E+00 0. -1.
<mgrwt>
<rscale>  0 0.89008670E+02</rscale>
<asrwt>0</asrwt>
<pdfrwt beam="2">  1        1 0.18314440E-02 0.89008670E+02</pdfrwt>
<pdfrwt beam="1">  1       -1 0.25596718E-01 0.89008670E+02</pdfrwt>
<totfact> 0.77635417E+04</totfact>
</mgrwt>
</event>
<event>
 5    1  0.6085374E+000  0.9093161E+02  0.7546771E-02  0.1300611E+00
          1   -1    0    0  501    0  0.00000000000E+00  0.00000000000E+00  0.26399311641E+02  0.26399311641E+02  0.00000000000E+00 0. -1.
         -1   -1    0    0    0  501 -0.00000000000E+00 -0.00000000000E+00 -0.78302779867E+02  0.78302779867E+02  0.00000000000E+00 0.  1.
         23    2    1    2    0    0  0.00000000000E+00  0.00000000000E+00 -0.51903468226E+02  0.10470209151E+03  0.90931611402E+02 0.  0.
        -13    1    3    3    0    0  0.33825833688E+02 -0.13278971810E+02 -0.57414049359E+02  0.67947709165E+02  0.00000000000E+00 0.  1.
         13    1    3    3    0    0 -0.33825833688E+02  0.13278971810E+02  0.55105811329E+01  0.36754382343E+02  0.00000000000E+00 0. -1.
<mgrwt>
<rscale>  0 0.90931611E+02</rscale>
<asrwt>0</asrwt>
<pdfrwt beam="1">  1        1 0.40614326E-02 0.90931611E+02</pdfrwt>
<pdfrwt beam="2">  1       -1 0.12046581E-01 0.90931611E+02</pdfrwt>
<totfact> 0.85544376E+04</totfact>
</mgrwt>
</event>
<event>
 5    1  0.6085374E+000  0.9205621E+02  0.7546771E-02  0.1297947E+00
          2   -1    0    0  501    0  0.00000000000E+00  0.00000000000E+00  0.27440143958E+03  0.27440143958E+03  0.00000000000E+00 0. -1.
         -2   -1    0    0    0  501 -0.00000000000E+00 -0.00000000000E+00 -0.77207558904E+01  0.77207558904E+01  0.00000000000E+00 0.  1.
         23    2    1    2    0    0  0.00000000000E+00  0.00000000000E+00  0.26668068369E+03  0.28212219547E+03  0.92056211761E+02 0.  0.
        -13    1    3    3    0    0 -0.59862850558E+01  0.41432576022E+02  0.74702279491E+02  0.85632496903E+02  0.00000000000E+00 0.  1.
         13    1    3    3    0    0  0.59862850558E+01 -0.41432576022E+02  0.19197840420E+03  0.19648969856E+03  0.00000000000E+00 0. -1.
<mgrwt>
<rscale>  0 0.92056212E+02</rscale>
<asrwt>0</asrwt>
<pdfrwt beam="1">  1        2 0.42215598E-01 0.92056212E+02</pdfrwt>
<pdfrwt beam="2">  1       -2 0.11878088E-02 0.92056212E+02</pdfrwt>
<totfact> 0.16937508E+05</totfact>
</mgrwt>
</event>
<event>
 5    1  0.6085374E+000  0.9089169E+02  0.7546771E-02  0.1300707E+00
          2   -1    0    0  501    0  0.00000000000E+00  0.00000000000E+00  0.21001028159E+03  0.21001028159E+03  0.00000000000E+00 0. -1.
         -2   -1    0    0    0  501 -0.00000000000E+00 -0.00000000000E+00 -0.98343996669E+01  0.98343996669E+01  0.00000000000E+00 0.  1.
         23    2    1    2    0    0  0.00000000000E+00  0.00000000000E+00  0.20017588192E+03  0.21984468125E+03  0.90891694742E+02 0.  0.
        -13    1    3    3    0    0  0.26515158194E+02  0.28259226871E+02  0.42661622638E+02  0.57633771034E+02  0.00000000000E+00 0.  1.
         13    1    3    3    0    0 -0.26515158194E+02 -0.28259226871E+02  0.15751425928E+03  0.16221091022E+03  0.00000000000E+00 0. -1.
<mgrwt>
<rscale>  0 0.90891695E+02</rscale>
<asrwt>0</asrwt>
<pdfrwt beam="1">  1        2 0.32309271E-01 0.90891695E+02</pdfrwt>
<pdfrwt beam="2">  1       -2 0.15129847E-02 0.90891695E+02</pdfrwt>
<totfact> 0.15877708E+05</totfact>
</mgrwt>
</event>
<event>
 5    1  0.6085374E+000  0.9082825E+02  0.7546771E-02  0.1300858E+00
          1   -1    0    0  501    0  0.00000000000E+00  0.00000000000E+00  0.12623857918E+03  0.12623857918E+03  0.00000000000E+00 0. -1.
         -1   -1    0    0    0  501 -0.00000000000E+00 -0.00000000000E+00 -0.16337656817E+02  0.16337656817E+02  0.00000000000E+00 0.  1.
         23    2    1    2    0    0  0.00000000000E+00  0.00000000000E+00  0.10990092236E+03  0.14257623600E+03  0.90828246350E+02 0.  0.
        -13    1    3    3    0    0 -0.36386903443E+02 -0.11138022273E+02  0.16041928113E+02  0.41296558451E+02  0.00000000000E+00 0.  1.
         13    1    3    3    0    0  0.36386903443E+02  0.11138022273E+02  0.93858994251E+02  0.10127967755E+03  0.00000000000E+00 0. -1.
<mgrwt>
<rscale>  0 0.90828246E+02</rscale>
<asrwt>0</asrwt>
<pdfrwt beam="1">  1        1 0.19421319E-01 0.90828246E+02</pdfrwt>
<pdfrwt beam="2">  1       -1 0.25134857E-02 0.90828246E+02</pdfrwt>
<totfact> 0.10983337E+05</totfact>
</mgrwt>
</event>
<event>
 5    1  0.6085374E+000  0.9143240E+02  0.7546771E-02  0.1299420E+00
          3   -1    0    0  501    0  0.00000000000E+00  0.00000000000E+00  0.19419489890E+02  0.19419489890E+02  0.00000000000E+00 0. -1.
         -3   -1    0    0    0  501 -0.00000000000E+00 -0.00000000000E+00 -0.10762235084E+03  0.10762235084E+03  0.00000000000E+00 0.  1.
         23    2    1    2    0    0  0.00000000000E+00  0.00000000000E+00 -0.88202860950E+02  0.12704184073E+03  0.91432404629E+02 0.  0.
        -13    1    3    3    0    0 -0.33936859052E+01  0.18782600434E+02  0.13618427698E+02  0.23447062845E+02  0.00000000000E+00 0. -1.
         13    1    3    3    0    0  0.33936859052E+01 -0.18782600434E+02 -0.10182128865E+03  0.10359477789E+03  0.00000000000E+00 0.  1.
<mgrwt>
<rscale>  0 0.91432405E+02</rscale>
<asrwt>0</asrwt>
<pdfrwt beam="1">  1        3 0.29876138E-02 0.91432405E+02</pdfrwt>
<pdfrwt beam="2">  1       -3 0.16557285E-01 0.91432405E+02</pdfrwt>
<totfact> 0.32524672E+04</totfact>
</mgrwt>
</event>
<event>
 5    1  0.6085374E+000  0.8265766E+02  0.7546771E-02  0.1321674E+00
          2   -1    0    0  501    0  0.00000000000E+00  0.00000000000E+00  0.15194380322E+03  0.15194380322E+03  0.00000000000E+00 0. -1.
         -2   -1    0    0    0  501 -0.00000000000E+00 -0.00000000000E+00 -0.11241473660E+02  0.11241473660E+02  0.00000000000E+00 0.  1.
         23    2    1    2    0    0  0.00000000000E+00  0.00000000000E+00  0.14070232956E+03  0.16318527688E+03  0.82657661754E+02 0.  0.
        -13    1    3    3    0    0 -0.24213278106E+02 -0.67677118163E+01  0.13511036408E+03  0.13742960104E+03  0.00000000000E+00 0. -1.
         13    1    3    3    0    0  0.24213278106E+02  0.67677118163E+01  0.55919654746E+01  0.25755675836E+02  0.00000000000E+00 0.  1.
<mgrwt>
<rscale>  0 0.82657662E+02</rscale>
<asrwt>0</asrwt>
<pdfrwt beam="1">  1        2 0.23375968E-01 0.82657662E+02</pdfrwt>
<pdfrwt beam="2">  1       -2 0.17294576E-02 0.82657662E+02</pdfrwt>
<totfact> 0.18290547E+05</totfact>
</mgrwt>
</event>
<event>
 5    1  0.6085374E+000  0.8986094E+02  0.7546771E-02  0.1303189E+00
          1   -1    0    0  501    0  0.00000000000E+00  0.00000000000E+00  0.17393437505E+02  0.17393437505E+02  0.00000000000E+00 0. -1.
         -1   -1    0    0    0  501 -0.00000000000E+00 -0.00000000000E+00 -0.11606373456E+03  0.11606373456E+03  0.00000000000E+00 0.  1.
         23    2    1    2    0    0  0.00000000000E+00  0.00000000000E+00 -0.98670297056E+02  0.13345717207E+03  0.89860943991E+02 0.  0.
        -13    1    3    3    0    0  0.35636140392E+02 -0.95731434463E+01 -0.87407443643E+02  0.94876977090E+02  0.00000000000E+00 0. -1.
         13    1    3    3    0    0 -0.35636140392E+02  0.95731434463E+01 -0.11262853413E+02  0.38580194977E+02  0.00000000000E+00 0.  1.
<mgrwt>
<rscale>  0 0.89860944E+02</rscale>
<asrwt>0</asrwt>
<pdfrwt beam="1">  1        1 0.26759136E-02 0.89860944E+02</pdfrwt>
<pdfrwt beam="2">  1       -1 0.17855958E-01 0.89860944E+02</pdfrwt>
<totfact> 0.82085678E+04</totfact>
</mgrwt>
</event>
<event>
 5    1  0.6085374E+000  0.9075154E+02  0.7546771E-02  0.1301042E+00
         -2   -1    0    0    0  501 -0.00000000000E+00  0.00000000000E+00  0.22159282164E+03  0.22159282164E+03  0.00000000000E+00 0. -1.
          2   -1    0    0  501    0  0.00000000000E+00 -0.00000000000E+00 -0.92916398834E+01  0.92916398834E+01  0.00000000000E+00 0.  1.
         23    2    1    2    0    0  0.00000000000E+00  0.00000000000E+00  0.21230118175E+03  0.23088446152E+03  0.90751544326E+02 0.  0.
        -13    1    3    3    0    0 -0.66457269920E+01  0.43171628161E+02  0.13741405612E+03  0.14418938236E+03  0.00000000000E+00 0. -1.
         13    1    3    3    0    0  0.66457269920E+01 -0.43171628161E+02  0.74887125635E+02  0.86695079164E+02  0.00000000000E+00 0.  1.
<mgrwt>
<rscale>  0 0.90751544E+02</rscale>
<asrwt>0</asrwt>
<pdfrwt beam="2">  1        2 0.14294832E-02 0.90751544E+02</pdfrwt>
<pdfrwt beam="1">  1       -2 0.34091199E-01 0.90751544E+02</pdfrwt>
<totfact> 0.60243102E+04</totfact>
</mgrwt>
</event>
<event>
 5    1  0.6085374E+000  0.9238206E+02  0.7546771E-02  0.1297184E+00
         -2   -1    0    0    0  501 -0.00000000000E+00  0.00000000000E+00  0.11672948513E+02  0.11672948513E+02  0.00000000000E+00 0.  1.
          2   -1    0    0  501    0  0.00000000000E+00 -0.00000000000E+00 -0.18278255962E+03  0.18278255962E+03  0.00000000000E+00 0. -1.
         23    2    1    2    0    0  0.00000000000E+00  0.00000000000E+00 -0.17110961111E+03  0.19445550813E+03  0.92382063356E+02 0.  0.
        -13    1    3    3    0    0  0.45870796930E+02  0.52002305572E+01 -0.88842098246E+02  0.10012038169E+03  0.00000000000E+00 0.  1.
         13    1    3    3    0    0 -0.45870796930E+02 -0.52002305572E+01 -0.82267512863E+02  0.94335126446E+02  0.00000000000E+00 0. -1.
<mgrwt>
<rscale>  0 0.92382063E+02</rscale>
<asrwt>0</asrwt>
<pdfrwt beam="2">  1        2 0.28120393E-01 0.92382063E+02</pdfrwt>
<pdfrwt beam="1">  1       -2 0.17958383E-02 0.92382063E+02</pdfrwt>
<totfact> 0.14453878E+05</totfact>
</mgrwt>
</event>
<event>
 5    1  0.6085374E+000  0.9103592E+02  0.7546771E-02  0.1300362E+00
         -1   -1    0    0    0  501 -0.00000000000E+00  0.00000000000E+00  0.31502498603E+02  0.31502498603E+02  0.00000000000E+00 0.  1.
          1   -1    0    0  501    0  0.00000000000E+00 -0.00000000000E+00 -0.65768899001E+02  0.65768899001E+02  0.00000000000E+00 0. -1.
         23    2    1    2    0    0  0.00000000000E+00  0.00000000000E+00 -0.34266400398E+02  0.97271397603E+02  0.91035919260E+02 0.  0.
        -13    1    3    3    0    0  0.12072494662E+02  0.26066123041E+02 -0.54860244999E+02  0.61926039589E+02  0.00000000000E+00 0. -1.
         13    1    3    3    0    0 -0.12072494662E+02 -0.26066123041E+02  0.20593844601E+02  0.35345358015E+02  0.00000000000E+00 0.  1.
<mgrwt>
<rscale>  0 0.91035919E+02</rscale>
<asrwt>0</asrwt>
<pdfrwt beam="2">  1        1 0.10118292E-01 0.91035919E+02</pdfrwt>
<pdfrwt beam="1">  1       -1 0.48465383E-02 0.91035919E+02</pdfrwt>
<totfact> 0.98145489E+04</totfact>
</mgrwt>
</event>
<event>
 5    1  0.6085374E+000  0.9228518E+02  0.7546771E-02  0.1297410E+00
          1   -1    0    0  501    0  0.00000000000E+00  0.00000000000E+00  0.35769790598E+02  0.35769790598E+02  0.00000000000E+00 0. -1.
         -1   -1    0    0    0  501 -0.00000000000E+00 -0.00000000000E+00 -0.59523373175E+02  0.59523373175E+02  0.00000000000E+00 0.  1.
         23    2    1    2    0    0  0.00000000000E+00  0.00000000000E+00 -0.23753582577E+02  0.95293163773E+02  0.92285179615E+02 0.  0.
        -13    1    3    3    0    0 -0.39508664810E+02 -0.21611333786E+02 -0.22262158415E+02  0.50235326618E+02  0.00000000000E+00 0.  1.
         13    1    3    3    0    0  0.39508664810E+02  0.21611333786E+02 -0.14914241621E+01  0.45057837155E+02  0.00000000000E+00 0. -1.
<mgrwt>
<rscale>  0 0.92285180E+02</rscale>
<asrwt>0</asrwt>
<pdfrwt beam="1">  1        1 0.55030447E-02 0.92285180E+02</pdfrwt>
<pdfrwt beam="2">  1       -1 0.91574420E-02 0.92285180E+02</pdfrwt>
<totfact> 0.86109851E+04</totfact>
</mgrwt>
</event>
<event>
 5    1  0.6085374E+000  0.8866309E+02  0.7546771E-02  0.1306122E+00
          2   -1    0    0  501    0  0.00000000000E+00  0.00000000000E+00  0.43508143017E+02  0.43508143017E+02  0.00000000000E+00 0. -1.
         -2   -1    0    0    0  501 -0.00000000000E+00 -0.00000000000E+00 -0.45170525621E+02  0.45170525621E+02  0.00000000000E+00 0.  1.
         23    2    1    2    0    0  0.00000000000E+00  0.00000000000E+00 -0.16623826041E+01  0.88678668638E+02  0.88663085642E+02 0.  0.
        -13    1    3    3    0    0 -0.13479355937E+02 -0.16573433751E+02 -0.39682760017E+02  0.45067651207E+02  0.00000000000E+00 0.  1.
         13    1    3    3    0    0  0.13479355937E+02  0.16573433751E+02  0.38020377413E+02  0.43611017431E+02  0.00000000000E+00 0. -1.
<mgrwt>
<rscale>  0 0.88663086E+02</rscale>
<asrwt>0</asrwt>
<pdfrwt beam="1">  1        2 0.66935604E-02 0.88663086E+02</pdfrwt>
<pdfrwt beam="2">  1       -2 0.69493117E-02 0.88663086E+02</pdfrwt>
<totfact> 0.10562655E+05</totfact>
</mgrwt>
</event>
<event>
 5    1  0.6085374E+000  0.9006588E+02  0.7546771E-02  0.1302692E+00
          1   -1    0    0  501    0  0.00000000000E+00  0.00000000000E+00  0.47181786220E+02  0.47181786220E+02  0.00000000000E+00 0. -1.
         -1   -1    0    0    0  501 -0.00000000000E+00 -0.00000000000E+00 -0.42981959102E+02  0.42981959102E+02  0.00000000000E+00 0.  1.
         23    2    1    2    0    0  0.00000000000E+00  0.00000000000E+00  0.41998271186E+01  0.90163745322E+02  0.90065878238E+02 0.  0.
        -13    1    3    3    0    0 -0.38658605929E+02 -0.22438787774E+02  0.75811344462E+01  0.45337187922E+02  0.00000000000E+00 0.  1.
         13    1    3    3    0    0  0.38658605929E+02  0.22438787774E+02 -0.33813073276E+01  0.44826557401E+02  0.00000000000E+00 0. -1.
<mgrwt>
<rscale>  0 0.90065878E+02</rscale>
<asrwt>0</asrwt>
<pdfrwt beam="1">  1        1 0.72587363E-02 0.90065878E+02</pdfrwt>
<pdfrwt beam="2">  1       -1 0.66126091E-02 0.90065878E+02</pdfrwt>
<totfact> 0.96194136E+04</totfact>
</mgrwt>
</event>
<event>
 5    1  0.6085374E+000  0.9077865E+02  0.7546771E-02  0.1300977E+00
         -2   -1    0    0    0  501 -0.00000000000E+00  0.00000000000E+00  0.12758452820E+03  0.12758452820E+03  0.00000000000E+00 0.  1.
          2   -1    0    0  501    0  0.00000000000E+00 -0.00000000000E+00 -0.16147653941E+02  0.16147653941E+02  0.00000000000E+00 0. -1.
         23    2    1    2    0    0  0.00000000000E+00  0.00000000000E+00  0.11143687425E+03  0.14373218214E+03  0.90778649681E+02 0.  0.
        -13    1    3    3    0    0 -0.10266008997E+02 -0.41310808828E+02  0.80663580920E+02  0.91206289003E+02  0.00000000000E+00 0.  1.
         13    1    3    3    0    0  0.10266008997E+02  0.41310808828E+02  0.30773293335E+02  0.52525893133E+02  0.00000000000E+00 0. -1.
<mgrwt>
<rscale>  0 0.90778650E+02</rscale>
<asrwt>0</asrwt>
<pdfrwt beam="2">  1        2 0.24842545E-02 0.90778650E+02</pdfrwt>
<pdfrwt beam="1">  1       -2 0.19628388E-01 0.90778650E+02</pdfrwt>
<totfact> 0.74730017E+04</totfact>
</mgrwt>
</event>
<event>
 5    1  0.6085374E+000  0.9214029E+02  0.7546771E-02  0.1297750E+00
          1   -1    0    0  501    0  0.00000000000E+00  0.00000000000E+00  0.14858005492E+03  0.14858005492E+03  0.00000000000E+00 0. -1.
         -1   -1    0    0    0  501 -0.00000000000E+00 -0.00000000000E+00 -0.14284948092E+02  0.14284948092E+02  0.00000000000E+00 0.  1.
         23    2    1    2    0    0  0.00000000000E+00  0.00000000000E+00  0.13429510683E+03  0.16286500301E+03  0.92140292426E+02 0.  0.
        -13    1    3    3    0    0  0.25567426871E+02  0.29770689044E+02  0.24488090104E+02  0.46256391989E+02  0.00000000000E+00 0.  1.
         13    1    3    3    0    0 -0.25567426871E+02 -0.29770689044E+02  0.10980701672E+03  0.11660861102E+03  0.00000000000E+00 0. -1.
<mgrwt>
<rscale>  0 0.92140292E+02</rscale>
<asrwt>0</asrwt>
<pdfrwt beam="1">  1        1 0.22858469E-01 0.92140292E+02</pdfrwt>
<pdfrwt beam="2">  1       -1 0.21976844E-02 0.92140292E+02</pdfrwt>
<totfact> 0.10880212E+05</totfact>
</mgrwt>
</event>
<event>
 5    1  0.6085374E+000  0.9079907E+02  0.7546771E-02  0.1300928E+00
         -1   -1    0    0    0  501 -0.00000000000E+00  0.00000000000E+00  0.37225916114E+02  0.37225916114E+02  0.00000000000E+00 0.  1.
          1   -1    0    0  501    0  0.00000000000E+00 -0.00000000000E+00 -0.55367818292E+02  0.55367818292E+02  0.00000000000E+00 0. -1.
         23    2    1    2    0    0  0.00000000000E+00  0.00000000000E+00 -0.18141902177E+02  0.92593734406E+02  0.90799069580E+02 0.  0.
        -13    1    3    3    0    0  0.35281386519E+02  0.13767540121E+02  0.16459790845E+02  0.41294625684E+02  0.00000000000E+00 0.  1.
         13    1    3    3    0    0 -0.35281386519E+02 -0.13767540121E+02 -0.34601693022E+02  0.51299108722E+02  0.00000000000E+00 0. -1.
<mgrwt>
<rscale>  0 0.90799070E+02</rscale>
<asrwt>0</asrwt>
<pdfrwt beam="2">  1        1 0.85181258E-02 0.90799070E+02</pdfrwt>
<pdfrwt beam="1">  1       -1 0.57270641E-02 0.90799070E+02</pdfrwt>
<totfact> 0.96316312E+04</totfact>
</mgrwt>
</event>
<event>
 5    1  0.6085374E+000  0.9094146E+02  0.7546771E-02  0.1300588E+00
         -1   -1    0    0    0  501 -0.00000000000E+00  0.00000000000E+00  0.68095752489E+01  0.68095752489E+01  0.00000000000E+00 0.  1.
          1   -1    0    0  501    0  0.00000000000E+00 -0.00000000000E+00 -0.30362942770E+03  0.30362942770E+03  0.00000000000E+00 0. -1.
         23    2    1    2    0    0  0.00000000000E+00  0.00000000000E+00 -0.29681985245E+03  0.31043900295E+03  0.90941463276E+02 0.  0.
        -13    1    3    3    0    0  0.41688426349E+02  0.10763654690E+02 -0.98495673605E+02  0.10749501790E+03  0.00000000000E+00 0.  1.
         13    1    3    3    0    0 -0.41688426349E+02 -0.10763654690E+02 -0.19832417884E+03  0.20294398505E+03  0.00000000000E+00 0. -1.
<mgrwt>
<rscale>  0 0.90941463E+02</rscale>
<asrwt>0</asrwt>
<pdfrwt beam="2">  1        1 0.46712224E-01 0.90941463E+02</pdfrwt>
<pdfrwt beam="1">  1       -1 0.10476269E-02 0.90941463E+02</pdfrwt>
<totfact> 0.12930281E+05</totfact>
</mgrwt>
</event>
<event>
 5    1  0.6085374E+000  0.9476659E+02  0.7546771E-02  0.1291703E+00
         -2   -1    0    0    0  501 -0.00000000000E+00  0.00000000000E+00  0.84031222991E+02  0.84031222991E+02  0.00000000000E+00 0.  1.
          2   -1    0    0  501    0  0.00000000000E+00 -0.00000000000E+00 -0.26718360626E+02  0.26718360626E+02  0.00000000000E+00 0. -1.
         23    2    1    2    0    0  0.00000000000E+00  0.00000000000E+00  0.57312862366E+02  0.11074958362E+03  0.94766587355E+02 0.  0.
        -13    1    3    3    0    0  0.12284459860E+02  0.17792359171E+02 -0.20617380618E+02  0.29875615182E+02  0.00000000000E+00 0. -1.
         13    1    3    3    0    0 -0.12284459860E+02 -0.17792359171E+02  0.77930242984E+02  0.80873968435E+02  0.00000000000E+00 0.  1.
<mgrwt>
<rscale>  0 0.94766587E+02</rscale>
<asrwt>0</asrwt>
<pdfrwt beam="2">  1        2 0.41105171E-02 0.94766587E+02</pdfrwt>
<pdfrwt beam="1">  1       -2 0.12927880E-01 0.94766587E+02</pdfrwt>
<totfact> 0.76304110E+04</totfact>
</mgrwt>
</event>
<event>
 5    1  0.6085374E+000  0.8929675E+02  0.7546771E-02  0.1304564E+00
         -2   -1    0    0    0  501 -0.00000000000E+00  0.00000000000E+00  0.10028391801E+03  0.10028391801E+03  0.00000000000E+00 0. -1.
          2   -1    0    0  501    0  0.00000000000E+00 -0.00000000000E+00 -0.19878336287E+02  0.19878336287E+02  0.00000000000E+00 0.  1.
         23    2    1    2    0    0  0.00000000000E+00  0.00000000000E+00  0.80405581725E+02  0.12016225430E+03  0.89296751259E+02 0.  0.
        -13    1    3    3    0    0 -0.40780295907E+02 -0.14576816551E+02  0.25587675723E+02  0.50301543355E+02  0.00000000000E+00 0. -1.
         13    1    3    3    0    0  0.40780295907E+02  0.14576816551E+02  0.54817906003E+02  0.69860710943E+02  0.00000000000E+00 0.  1.
<mgrwt>
<rscale>  0 0.89296751E+02</rscale>
<asrwt>0</asrwt>
<pdfrwt beam="2">  1        2 0.30582056E-02 0.89296751E+02</pdfrwt>
<pdfrwt beam="1">  1       -2 0.15428295E-01 0.89296751E+02</pdfrwt>
<totfact> 0.83979593E+04</totfact>
</mgrwt>
</event>
<event>
 5    1  0.6085374E+000  0.9267864E+02  0.7546771E-02  0.1296492E+00
          1   -1    0    0  501    0  0.00000000000E+00  0.00000000000E+00  0.54125916553E+02  0.54125916553E+02  0.00000000000E+00 0.  1.
         -1   -1    0    0    0  501 -0.00000000000E+00 -0.00000000000E+00 -0.39672910016E+02  0.39672910016E+02  0.00000000000E+00 0. -1.
         23    2    1    2    0    0  0.00000000000E+00  0.00000000000E+00  0.14453006537E+02  0.93798826570E+02  0.92678640840E+02 0.  0.
        -13    1    3    3    0    0 -0.23361141765E+01  0.40567261465E+02 -0.15317658269E+02  0.43425692706E+02  0.00000000000E+00 0. -1.
         13    1    3    3    0    0  0.23361141765E+01 -0.40567261465E+02  0.29770664806E+02  0.50373133863E+02  0.00000000000E+00 0.  1.
<mgrwt>
<rscale>  0 0.92678641E+02</rscale>
<asrwt>0</asrwt>
<pdfrwt beam="1">  1        1 0.83270641E-02 0.92678641E+02</pdfrwt>
<pdfrwt beam="2">  1       -1 0.61035246E-02 0.92678641E+02</pdfrwt>
<totfact> 0.90656279E+04</totfact>
</mgrwt>
</event>
<event>
 5    1  0.6085374E+000  0.9050580E+02  0.7546771E-02  0.1301631E+00
         -4   -1    0    0    0  501 -0.00000000000E+00  0.00000000000E+00  0.58625866018E+02  0.58625866018E+02  0.00000000000E+00 0. -1.
          4   -1    0    0  501    0  0.00000000000E+00 -0.00000000000E+00 -0.34930400255E+02  0.34930400255E+02  0.00000000000E+00 0.  1.
         23    2    1    2    0    0  0.00000000000E+00  0.00000000000E+00  0.23695465763E+02  0.93556266273E+02  0.90505800153E+02 0.  0.
        -13    1    3    3    0    0  0.32851030628E+02 -0.25002473331E+02  0.31006468460E+02  0.51630562386E+02  0.00000000000E+00 0. -1.
         13    1    3    3    0    0 -0.32851030628E+02  0.25002473331E+02 -0.73110026974E+01  0.41925703887E+02  0.00000000000E+00 0.  1.
<mgrwt>
<rscale>  0 0.90505800E+02</rscale>
<asrwt>0</asrwt>
<pdfrwt beam="2">  1        4 0.53739077E-02 0.90505800E+02</pdfrwt>
<pdfrwt beam="1">  1       -4 0.90193640E-02 0.90505800E+02</pdfrwt>
<totfact> 0.27406748E+04</totfact>
</mgrwt>
</event>
<event>
 5    1  0.6085374E+000  0.9378836E+02  0.7546771E-02  0.1293929E+00
          2   -1    0    0  501    0  0.00000000000E+00  0.00000000000E+00  0.36438302145E+02  0.36438302145E+02  0.00000000000E+00 0. -1.
         -2   -1    0    0    0  501 -0.00000000000E+00 -0.00000000000E+00 -0.60350344507E+02  0.60350344507E+02  0.00000000000E+00 0.  1.
         23    2    1    2    0    0  0.00000000000E+00  0.00000000000E+00 -0.23912042362E+02  0.96788646652E+02  0.93788359357E+02 0.  0.
        -13    1    3    3    0    0 -0.39987538628E+02 -0.24131792491E+02 -0.76121605498E+01  0.47321154282E+02  0.00000000000E+00 0.  1.
         13    1    3    3    0    0  0.39987538628E+02  0.24131792491E+02 -0.16299881812E+02  0.49467492370E+02  0.00000000000E+00 0. -1.
<mgrwt>
<rscale>  0 0.93788359E+02</rscale>
<asrwt>0</asrwt>
<pdfrwt beam="1">  1        2 0.56058927E-02 0.93788359E+02</pdfrwt>
<pdfrwt beam="2">  1       -2 0.92846684E-02 0.93788359E+02</pdfrwt>
<totfact> 0.85714762E+04</totfact>
</mgrwt>
</event>
<event>
 5    1  0.6085374E+000  0.6613644E+02  0.7546771E-02  0.1373747E+00
          3   -1    0    0  501    0  0.00000000000E+00  0.00000000000E+00  0.65456817495E+02  0.65456817495E+02  0.00000000000E+00 0. -1.
         -3   -1    0    0    0  501 -0.00000000000E+00 -0.00000000000E+00 -0.16705777346E+02  0.16705777346E+02  0.00000000000E+00 0.  1.
         23    2    1    2    0    0  0.00000000000E+00  0.00000000000E+00  0.48751040150E+02  0.82162594841E+02  0.66136435309E+02 0.  0.
        -13    1    3    3    0    0 -0.35217196878E+01  0.32749038970E+02  0.20731274067E+02  0.38918990062E+02  0.00000000000E+00 0.  1.
         13    1    3    3    0    0  0.35217196878E+01 -0.32749038970E+02  0.28019766083E+02  0.43243604780E+02  0.00000000000E+00 0. -1.
<mgrwt>
<rscale>  0 0.66136435E+02</rscale>
<asrwt>0</asrwt>
<pdfrwt beam="1">  1        3 0.10070280E-01 0.66136435E+02</pdfrwt>
<pdfrwt beam="2">  1       -3 0.25701196E-02 0.66136435E+02</pdfrwt>
<totfact> 0.84980506E+04</totfact>
</mgrwt>
</event>
<event>
 5    1  0.6085374E+000  0.8629330E+02  0.7546771E-02  0.1312085E+00
          1   -1    0    0  501    0  0.00000000000E+00  0.00000000000E+00  0.90969234974E+02  0.90969234974E+02  0.00000000000E+00 0. -1.
         -1   -1    0    0    0  501 -0.00000000000E+00 -0.00000000000E+00 -0.20464429287E+02  0.20464429287E+02  0.00000000000E+00 0.  1.
         23    2    1    2    0    0  0.00000000000E+00  0.00000000000E+00  0.70504805688E+02  0.11143366426E+03  0.86293301626E+02 0.  0.
        -13    1    3    3    0    0  0.50577480784E+01  0.30652393153E+02 -0.34119250637E+01  0.31253659854E+02  0.00000000000E+00 0.  1.
         13    1    3    3    0    0 -0.50577480784E+01 -0.30652393153E+02  0.73916730751E+02  0.80180004406E+02  0.00000000000E+00 0. -1.
<mgrwt>
<rscale>  0 0.86293302E+02</rscale>
<asrwt>0</asrwt>
<pdfrwt beam="1">  1        1 0.13995267E-01 0.86293302E+02</pdfrwt>
<pdfrwt beam="2">  1       -1 0.31483738E-02 0.86293302E+02</pdfrwt>
<totfact> 0.11946084E+05</totfact>
</mgrwt>
</event>
<event>
 5    1  0.6085374E+000  0.9516900E+02  0.7546771E-02  0.1290796E+00
         -1   -1    0    0    0  501 -0.00000000000E+00  0.00000000000E+00  0.24438447539E+02  0.24438447539E+02  0.00000000000E+00 0. -1.
          1   -1    0    0  501    0  0.00000000000E+00 -0.00000000000E+00 -0.92652561274E+02  0.92652561274E+02  0.00000000000E+00 0.  1.
         23    2    1    2    0    0  0.00000000000E+00  0.00000000000E+00 -0.68214113735E+02  0.11709100881E+03  0.95169002476E+02 0.  0.
        -13    1    3    3    0    0  0.13876765155E+02 -0.30571030904E+02 -0.75596108947E+02  0.82715924885E+02  0.00000000000E+00 0.  1.
         13    1    3    3    0    0 -0.13876765155E+02  0.30571030904E+02  0.73819952123E+01  0.34375083928E+02  0.00000000000E+00 0. -1.
<mgrwt>
<rscale>  0 0.95169002E+02</rscale>
<asrwt>0</asrwt>
<pdfrwt beam="2">  1        1 0.14254240E-01 0.95169002E+02</pdfrwt>
<pdfrwt beam="1">  1       -1 0.37597611E-02 0.95169002E+02</pdfrwt>
<totfact> 0.91710672E+04</totfact>
</mgrwt>
</event>
<event>
 5    1  0.6085374E+000  0.8882302E+02  0.7546771E-02  0.1305727E+00
         -3   -1    0    0    0  501 -0.00000000000E+00  0.00000000000E+00  0.13168834680E+02  0.13168834680E+02  0.00000000000E+00 0.  1.
          3   -1    0    0  501    0  0.00000000000E+00 -0.00000000000E+00 -0.14977653104E+03  0.14977653104E+03  0.00000000000E+00 0. -1.
         23    2    1    2    0    0  0.00000000000E+00  0.00000000000E+00 -0.13660769636E+03  0.16294536572E+03  0.88823023507E+02 0.  0.
        -13    1    3    3    0    0 -0.18098398126E+02 -0.34452371170E+02 -0.10755794043E+03  0.11438194107E+03  0.00000000000E+00 0. -1.
         13    1    3    3    0    0  0.18098398126E+02  0.34452371170E+02 -0.29049755932E+02  0.48563424650E+02  0.00000000000E+00 0.  1.
<mgrwt>
<rscale>  0 0.88823024E+02</rscale>
<asrwt>0</asrwt>
<pdfrwt beam="2">  1        3 0.23042542E-01 0.88823024E+02</pdfrwt>
<pdfrwt beam="1">  1       -3 0.20259747E-02 0.88823024E+02</pdfrwt>
<totfact> 0.32765325E+04</totfact>
</mgrwt>
</event>
<event>
 5    1  0.6085374E+000  0.9024843E+02  0.7546771E-02  0.1302251E+00
          1   -1    0    0  501    0  0.00000000000E+00  0.00000000000E+00  0.15398440154E+02  0.15398440154E+02  0.00000000000E+00 0. -1.
         -1   -1    0    0    0  501 -0.00000000000E+00 -0.00000000000E+00 -0.13223384314E+03  0.13223384314E+03  0.00000000000E+00 0.  1.
         23    2    1    2    0    0  0.00000000000E+00  0.00000000000E+00 -0.11683540299E+03  0.14763228330E+03  0.90248433117E+02 0.  0.
        -13    1    3    3    0    0 -0.33177386335E+01  0.39135022900E+02 -0.94762791107E+02  0.10257945206E+03  0.00000000000E+00 0.  1.
         13    1    3    3    0    0  0.33177386335E+01 -0.39135022900E+02 -0.22072611882E+02  0.45052831235E+02  0.00000000000E+00 0. -1.
<mgrwt>
<rscale>  0 0.90248433E+02</rscale>
<asrwt>0</asrwt>
<pdfrwt beam="1">  1        1 0.23689909E-02 0.90248433E+02</pdfrwt>
<pdfrwt beam="2">  1       -1 0.20343668E-01 0.90248433E+02</pdfrwt>
<totfact> 0.79006637E+04</totfact>
</mgrwt>
</event>
<event>
 5    1  0.6085374E+000  0.9146410E+02  0.7546771E-02  0.1299344E+00
         -1   -1    0    0    0  501 -0.00000000000E+00  0.00000000000E+00  0.15114838501E+02  0.15114838501E+02  0.00000000000E+00 0.  1.
          1   -1    0    0  501    0  0.00000000000E+00 -0.00000000000E+00 -0.13836869424E+03  0.13836869424E+03  0.00000000000E+00 0. -1.
         23    2    1    2    0    0  0.00000000000E+00  0.00000000000E+00 -0.12325385574E+03  0.15348353274E+03  0.91464101528E+02 0.  0.
        -13    1    3    3    0    0  0.33559655511E+02 -0.51977152112E+01 -0.10228702695E+02  0.35466788412E+02  0.00000000000E+00 0.  1.
         13    1    3    3    0    0 -0.33559655511E+02  0.51977152112E+01 -0.11302515305E+03  0.11801674433E+03  0.00000000000E+00 0. -1.
<mgrwt>
<rscale>  0 0.91464102E+02</rscale>
<asrwt>0</asrwt>
<pdfrwt beam="2">  1        1 0.21287491E-01 0.91464102E+02</pdfrwt>
<pdfrwt beam="1">  1       -1 0.23253598E-02 0.91464102E+02</pdfrwt>
<totfact> 0.10955920E+05</totfact>
</mgrwt>
</event>
<event>
 5    1  0.6085374E+000  0.1013422E+03  0.7546771E-02  0.1277499E+00
          2   -1    0    0  501    0  0.00000000000E+00  0.00000000000E+00  0.13806914568E+03  0.13806914568E+03  0.00000000000E+00 0. -1.
         -2   -1    0    0    0  501 -0.00000000000E+00 -0.00000000000E+00 -0.18596178689E+02  0.18596178689E+02  0.00000000000E+00 0.  1.
         23    2    1    2    0    0  0.00000000000E+00  0.00000000000E+00  0.11947296699E+03  0.15666532437E+03  0.10134216308E+03 0.  0.
        -13    1    3    3    0    0 -0.46732775130E+02  0.17166657792E+02  0.45159652115E+02  0.67216371446E+02  0.00000000000E+00 0.  1.
         13    1    3    3    0    0  0.46732775130E+02 -0.17166657792E+02  0.74313314874E+02  0.89448952921E+02  0.00000000000E+00 0. -1.
<mgrwt>
<rscale>  0 0.10134216E+03</rscale>
<asrwt>0</asrwt>
<pdfrwt beam="1">  1        2 0.21241406E-01 0.10134216E+03</pdfrwt>
<pdfrwt beam="2">  1       -2 0.28609507E-02 0.10134216E+03</pdfrwt>
<totfact> 0.10175017E+05</totfact>
</mgrwt>
</event>
<event>
 5    1  0.6085374E+000  0.9107273E+02  0.7546771E-02  0.1300275E+00
         -1   -1    0    0    0  501 -0.00000000000E+00  0.00000000000E+00  0.36770357757E+02  0.36770357757E+02  0.00000000000E+00 0.  1.
          1   -1    0    0  501    0  0.00000000000E+00 -0.00000000000E+00 -0.56392177879E+02  0.56392177879E+02  0.00000000000E+00 0. -1.
         23    2    1    2    0    0  0.00000000000E+00  0.00000000000E+00 -0.19621820121E+02  0.93162535636E+02  0.91072730393E+02 0.  0.
        -13    1    3    3    0    0  0.65706075906E+01  0.11164657997E+02 -0.54467396473E+02  0.55986781930E+02  0.00000000000E+00 0. -1.
         13    1    3    3    0    0 -0.65706075906E+01 -0.11164657997E+02  0.34845576352E+02  0.37175753706E+02  0.00000000000E+00 0.  1.
<mgrwt>
<rscale>  0 0.91072730E+02</rscale>
<asrwt>0</asrwt>
<pdfrwt beam="2">  1        1 0.86757196E-02 0.91072730E+02</pdfrwt>
<pdfrwt beam="1">  1       -1 0.56569781E-02 0.91072730E+02</pdfrwt>
<totfact> 0.95777570E+04</totfact>
</mgrwt>
</event>
<event>
 5    1  0.6085374E+000  0.9151875E+02  0.7546771E-02  0.1299215E+00
         -4   -1    0    0    0  501 -0.00000000000E+00  0.00000000000E+00  0.60925978206E+02  0.60925978206E+02  0.00000000000E+00 0. -1.
          4   -1    0    0  501    0  0.00000000000E+00 -0.00000000000E+00 -0.34368267633E+02  0.34368267633E+02  0.00000000000E+00 0.  1.
         23    2    1    2    0    0  0.00000000000E+00  0.00000000000E+00  0.26557710573E+02  0.95294245839E+02  0.91518748348E+02 0.  0.
        -13    1    3    3    0    0  0.40932021031E+01 -0.23762580434E+02  0.53774202664E+02  0.58932838083E+02  0.00000000000E+00 0. -1.
         13    1    3    3    0    0 -0.40932021031E+01  0.23762580434E+02 -0.27216492091E+02  0.36361407757E+02  0.00000000000E+00 0.  1.
<mgrwt>
<rscale>  0 0.91518748E+02</rscale>
<asrwt>0</asrwt>
<pdfrwt beam="2">  1        4 0.52874258E-02 0.91518748E+02</pdfrwt>
<pdfrwt beam="1">  1       -4 0.93732274E-02 0.91518748E+02</pdfrwt>
<totfact> 0.26482305E+04</totfact>
</mgrwt>
</event>
<event>
 5    1  0.6085374E+000  0.1090283E+03  0.7546771E-02  0.1262380E+00
         -1   -1    0    0    0  501 -0.00000000000E+00  0.00000000000E+00  0.21066450081E+02  0.21066450081E+02  0.00000000000E+00 0.  1.
          1   -1    0    0  501    0  0.00000000000E+00 -0.00000000000E+00 -0.14106745719E+03  0.14106745719E+03  0.00000000000E+00 0. -1.
         23    2    1    2    0    0  0.00000000000E+00  0.00000000000E+00 -0.12000100711E+03  0.16213390728E+03  0.10902826322E+03 0.  0.
        -13    1    3    3    0    0  0.31666049640E+02  0.19151169732E+02 -0.11952621250E+03  0.12512402438E+03  0.00000000000E+00 0. -1.
         13    1    3    3    0    0 -0.31666049640E+02 -0.19151169732E+02 -0.47479460987E+00  0.37009882894E+02  0.00000000000E+00 0.  1.
<mgrwt>
<rscale>  0 0.10902826E+03</rscale>
<asrwt>0</asrwt>
<pdfrwt beam="2">  1        1 0.21702686E-01 0.10902826E+03</pdfrwt>
<pdfrwt beam="1">  1       -1 0.32409923E-02 0.10902826E+03</pdfrwt>
<totfact> 0.68032183E+04</totfact>
</mgrwt>
</event>
<event>
 5    1  0.6085374E+000  0.8401846E+02  0.7546771E-02  0.1318020E+00
          2   -1    0    0  501    0  0.00000000000E+00  0.00000000000E+00  0.10212717919E+03  0.10212717919E+03  0.00000000000E+00 0. -1.
         -2   -1    0    0    0  501 -0.00000000000E+00 -0.00000000000E+00 -0.17280172328E+02  0.17280172328E+02  0.00000000000E+00 0.  1.
         23    2    1    2    0    0  0.00000000000E+00  0.00000000000E+00  0.84847006863E+02  0.11940735152E+03  0.84018456444E+02 0.  0.
        -13    1    3    3    0    0  0.26140113028E+02  0.27810489890E+02  0.17479598929E+02  0.41979342965E+02  0.00000000000E+00 0.  1.
         13    1    3    3    0    0 -0.26140113028E+02 -0.27810489890E+02  0.67367407934E+02  0.77428008555E+02  0.00000000000E+00 0. -1.
<mgrwt>
<rscale>  0 0.84018456E+02</rscale>
<asrwt>0</asrwt>
<pdfrwt beam="1">  1        2 0.15711873E-01 0.84018456E+02</pdfrwt>
<pdfrwt beam="2">  1       -2 0.26584881E-02 0.84018456E+02</pdfrwt>
<totfact> 0.15437606E+05</totfact>
</mgrwt>
</event>
<event>
 5    1  0.6085374E+000  0.8935847E+02  0.7546771E-02  0.1304413E+00
          2   -1    0    0  501    0  0.00000000000E+00  0.00000000000E+00  0.90657607109E+02  0.90657607109E+02  0.00000000000E+00 0. -1.
         -2   -1    0    0    0  501 -0.00000000000E+00 -0.00000000000E+00 -0.22019489610E+02  0.22019489610E+02  0.00000000000E+00 0.  1.
         23    2    1    2    0    0  0.00000000000E+00  0.00000000000E+00  0.68638117499E+02  0.11267709672E+03  0.89358474424E+02 0.  0.
        -13    1    3    3    0    0  0.28698729380E+02  0.59039550094E+01 -0.82138736493E+01  0.30429286437E+02  0.00000000000E+00 0.  1.
         13    1    3    3    0    0 -0.28698729380E+02 -0.59039550094E+01  0.76851991149E+02  0.82247810282E+02  0.00000000000E+00 0. -1.
<mgrwt>
<rscale>  0 0.89358474E+02</rscale>
<asrwt>0</asrwt>
<pdfrwt beam="1">  1        2 0.13947324E-01 0.89358474E+02</pdfrwt>
<pdfrwt beam="2">  1       -2 0.33876138E-02 0.89358474E+02</pdfrwt>
<totfact> 0.12591909E+05</totfact>
</mgrwt>
</event>
<event>
 5    1  0.6085374E+000  0.9132387E+02  0.7546771E-02  0.1299677E+00
         -4   -1    0    0    0  501 -0.00000000000E+00  0.00000000000E+00  0.10275354694E+02  0.10275354694E+02  0.00000000000E+00 0.  1.
          4   -1    0    0  501    0  0.00000000000E+00 -0.00000000000E+00 -0.20291389547E+03  0.20291389547E+03  0.00000000000E+00 0. -1.
         23    2    1    2    0    0  0.00000000000E+00  0.00000000000E+00 -0.19263854078E+03  0.21318925017E+03  0.91323868693E+02 0.  0.
        -13    1    3    3    0    0 -0.93853550780E+01  0.30188462868E+02 -0.19403971569E+02  0.37093696135E+02  0.00000000000E+00 0.  1.
         13    1    3    3    0    0  0.93853550780E+01 -0.30188462868E+02 -0.17323456921E+03  0.17609555403E+03  0.00000000000E+00 0. -1.
<mgrwt>
<rscale>  0 0.91323869E+02</rscale>
<asrwt>0</asrwt>
<pdfrwt beam="2">  1        4 0.31217520E-01 0.91323869E+02</pdfrwt>
<pdfrwt beam="1">  1       -4 0.15808239E-02 0.91323869E+02</pdfrwt>
<totfact> 0.20757816E+04</totfact>
</mgrwt>
</event>
<event>
 5    1  0.6085374E+000  0.9298630E+02  0.7546771E-02  0.1295777E+00
         -1   -1    0    0    0  501 -0.00000000000E+00  0.00000000000E+00  0.38354576910E+02  0.38354576910E+02  0.00000000000E+00 0.  1.
          1   -1    0    0  501    0  0.00000000000E+00 -0.00000000000E+00 -0.56358667806E+02  0.56358667806E+02  0.00000000000E+00 0. -1.
         23    2    1    2    0    0  0.00000000000E+00  0.00000000000E+00 -0.18004090896E+02  0.94713244715E+02  0.92986297031E+02 0.  0.
        -13    1    3    3    0    0 -0.37865807580E+02 -0.48962234800E+00  0.18472106898E+02  0.42134046174E+02  0.00000000000E+00 0.  1.
         13    1    3    3    0    0  0.37865807580E+02  0.48962234800E+00 -0.36476197794E+02  0.52579198541E+02  0.00000000000E+00 0. -1.
<mgrwt>
<rscale>  0 0.92986297E+02</rscale>
<asrwt>0</asrwt>
<pdfrwt beam="2">  1        1 0.86705642E-02 0.92986297E+02</pdfrwt>
<pdfrwt beam="1">  1       -1 0.59007042E-02 0.92986297E+02</pdfrwt>
<totfact> 0.90376141E+04</totfact>
</mgrwt>
</event>
<event>
 5    1  0.6085374E+000  0.9015670E+02  0.7546771E-02  0.1302473E+00
         -1   -1    0    0    0  501 -0.00000000000E+00  0.00000000000E+00  0.12273961099E+02  0.12273961099E+02  0.00000000000E+00 0.  1.
          1   -1    0    0  501    0  0.00000000000E+00 -0.00000000000E+00 -0.16555841629E+03  0.16555841629E+03  0.00000000000E+00 0. -1.
         23    2    1    2    0    0  0.00000000000E+00  0.00000000000E+00 -0.15328445519E+03  0.17783237739E+03  0.90156698278E+02 0.  0.
        -13    1    3    3    0    0  0.25797139743E+02  0.26992933390E+02 -0.12646237748E+03  0.13185918167E+03  0.00000000000E+00 0. -1.
         13    1    3    3    0    0 -0.25797139743E+02 -0.26992933390E+02 -0.26822077705E+02  0.45973195716E+02  0.00000000000E+00 0.  1.
<mgrwt>
<rscale>  0 0.90156698E+02</rscale>
<asrwt>0</asrwt>
<pdfrwt beam="2">  1        1 0.25470526E-01 0.90156698E+02</pdfrwt>
<pdfrwt beam="1">  1       -1 0.18883017E-02 0.90156698E+02</pdfrwt>
<totfact> 0.11771347E+05</totfact>
</mgrwt>
</event>
<event>
 5    1  0.6085374E+000  0.9195379E+02  0.7546771E-02  0.1298188E+00
          1   -1    0    0  501    0  0.00000000000E+00  0.00000000000E+00  0.17119213795E+02  0.17119213795E+02  0.00000000000E+00 0. -1.
         -1   -1    0    0    0  501 -0.00000000000E+00 -0.00000000000E+00 -0.12347967910E+03  0.12347967910E+03  0.00000000000E+00 0.  1.
         23    2    1    2    0    0  0.00000000000E+00  0.00000000000E+00 -0.10636046531E+03  0.14059889290E+03  0.91953793309E+02 0.  0.
        -13    1    3    3    0    0  0.34168009760E+01  0.44792729780E+02 -0.68146788752E+02  0.81621369672E+02  0.00000000000E+00 0.  1.
         13    1    3    3    0    0 -0.34168009760E+01 -0.44792729780E+02 -0.38213676557E+02  0.58977523227E+02  0.00000000000E+00 0. -1.
<mgrwt>
<rscale>  0 0.91953793E+02</rscale>
<asrwt>0</asrwt>
<pdfrwt beam="1">  1        1 0.26337253E-02 0.91953793E+02</pdfrwt>
<pdfrwt beam="2">  1       -1 0.18996873E-01 0.91953793E+02</pdfrwt>
<totfact> 0.76372199E+04</totfact>
</mgrwt>
</event>
<event>
 5    1  0.6085374E+000  0.9071656E+02  0.7546771E-02  0.1301126E+00
          3   -1    0    0  501    0  0.00000000000E+00  0.00000000000E+00  0.25464733923E+02  0.25464733923E+02  0.00000000000E+00 0. -1.
         -3   -1    0    0    0  501 -0.00000000000E+00 -0.00000000000E+00 -0.80793060041E+02  0.80793060041E+02  0.00000000000E+00 0.  1.
         23    2    1    2    0    0  0.00000000000E+00  0.00000000000E+00 -0.55328326118E+02  0.10625779396E+03  0.90716564678E+02 0.  0.
        -13    1    3    3    0    0 -0.42802197532E+02  0.14317804568E+02 -0.22380742691E+02  0.50377825326E+02  0.00000000000E+00 0. -1.
         13    1    3    3    0    0  0.42802197532E+02 -0.14317804568E+02 -0.32947583427E+02  0.55879968637E+02  0.00000000000E+00 0.  1.
<mgrwt>
<rscale>  0 0.90716565E+02</rscale>
<asrwt>0</asrwt>
<pdfrwt beam="1">  1        3 0.39176513E-02 0.90716565E+02</pdfrwt>
<pdfrwt beam="2">  1       -3 0.12429702E-01 0.90716565E+02</pdfrwt>
<totfact> 0.34688527E+04</totfact>
</mgrwt>
</event>
<event>
 5    1  0.6085374E+000  0.9190008E+02  0.7546771E-02  0.1298315E+00
          2   -1    0    0  501    0  0.00000000000E+00  0.00000000000E+00  0.26586790153E+02  0.26586790153E+02  0.00000000000E+00 0. -1.
         -2   -1    0    0    0  501 -0.00000000000E+00 -0.00000000000E+00 -0.79415615949E+02  0.79415615949E+02  0.00000000000E+00 0.  1.
         23    2    1    2    0    0  0.00000000000E+00  0.00000000000E+00 -0.52828825796E+02  0.10600240610E+03  0.91900083049E+02 0.  0.
        -13    1    3    3    0    0 -0.22161724343E+02  0.12740876019E+02 -0.70456592774E+02  0.74950673199E+02  0.00000000000E+00 0.  1.
         13    1    3    3    0    0  0.22161724343E+02 -0.12740876019E+02  0.17627766978E+02  0.31051732903E+02  0.00000000000E+00 0. -1.
<mgrwt>
<rscale>  0 0.91900083E+02</rscale>
<asrwt>0</asrwt>
<pdfrwt beam="1">  1        2 0.40902754E-02 0.91900083E+02</pdfrwt>
<pdfrwt beam="2">  1       -2 0.12217787E-01 0.91900083E+02</pdfrwt>
<totfact> 0.83611331E+04</totfact>
</mgrwt>
</event>
<event>
 5    1  0.6085374E+000  0.9341865E+02  0.7546771E-02  0.1294778E+00
         -1   -1    0    0    0  501 -0.00000000000E+00  0.00000000000E+00  0.20338156628E+02  0.20338156628E+02  0.00000000000E+00 0.  1.
          1   -1    0    0  501    0  0.00000000000E+00 -0.00000000000E+00 -0.10727428062E+03  0.10727428062E+03  0.00000000000E+00 0. -1.
         23    2    1    2    0    0  0.00000000000E+00  0.00000000000E+00 -0.86936123988E+02  0.12761243724E+03  0.93418651700E+02 0.  0.
        -13    1    3    3    0    0 -0.46140948464E+02  0.36779009540E+01 -0.34910247533E+02  0.57976197387E+02  0.00000000000E+00 0. -1.
         13    1    3    3    0    0  0.46140948464E+02 -0.36779009540E+01 -0.52025876456E+02  0.69636239858E+02  0.00000000000E+00 0.  1.
<mgrwt>
<rscale>  0 0.93418652E+02</rscale>
<asrwt>0</asrwt>
<pdfrwt beam="2">  1        1 0.16503736E-01 0.93418652E+02</pdfrwt>
<pdfrwt beam="1">  1       -1 0.31289472E-02 0.93418652E+02</pdfrwt>
<totfact> 0.98914339E+04</totfact>
</mgrwt>
</event>
<event>
 5    1  0.6085374E+000  0.9242344E+02  0.7546771E-02  0.1297087E+00
          3   -1    0    0  501    0  0.00000000000E+00  0.00000000000E+00  0.16298301121E+03  0.16298301121E+03  0.00000000000E+00 0. -1.
         -3   -1    0    0    0  501 -0.00000000000E+00 -0.00000000000E+00 -0.13102734181E+02  0.13102734181E+02  0.00000000000E+00 0.  1.
         23    2    1    2    0    0  0.00000000000E+00  0.00000000000E+00  0.14988027703E+03  0.17608574539E+03  0.92423440144E+02 0.  0.
        -13    1    3    3    0    0  0.33362265258E+01 -0.28189285212E+02  0.54651968404E+01  0.28907344823E+02  0.00000000000E+00 0.  1.
         13    1    3    3    0    0 -0.33362265258E+01  0.28189285212E+02  0.14441508019E+03  0.14717840057E+03  0.00000000000E+00 0. -1.
<mgrwt>
<rscale>  0 0.92423440E+02</rscale>
<asrwt>0</asrwt>
<pdfrwt beam="1">  1        3 0.25074308E-01 0.92423440E+02</pdfrwt>
<pdfrwt beam="2">  1       -3 0.20158054E-02 0.92423440E+02</pdfrwt>
<totfact> 0.28707711E+04</totfact>
</mgrwt>
</event>
<event>
 5    1  0.6085374E+000  0.8973792E+02  0.7546771E-02  0.1303488E+00
         -1   -1    0    0    0  501 -0.00000000000E+00  0.00000000000E+00  0.87199693831E+02  0.87199693831E+02  0.00000000000E+00 0.  1.
          1   -1    0    0  501    0  0.00000000000E+00 -0.00000000000E+00 -0.23087505683E+02  0.23087505683E+02  0.00000000000E+00 0. -1.
         23    2    1    2    0    0  0.00000000000E+00  0.00000000000E+00  0.64112188148E+02  0.11028719951E+03  0.89737916777E+02 0.  0.
        -13    1    3    3    0    0 -0.44597344957E+02  0.33025787454E+00  0.26011353778E+02  0.51629669501E+02  0.00000000000E+00 0. -1.
         13    1    3    3    0    0  0.44597344957E+02 -0.33025787454E+00  0.38100834370E+02  0.58657530012E+02  0.00000000000E+00 0.  1.
<mgrwt>
<rscale>  0 0.89737917E+02</rscale>
<asrwt>0</asrwt>
<pdfrwt beam="2">  1        1 0.35519240E-02 0.89737917E+02</pdfrwt>
<pdfrwt beam="1">  1       -1 0.13415337E-01 0.89737917E+02</pdfrwt>
<totfact> 0.86876698E+04</totfact>
</mgrwt>
</event>
<event>
 5    1  0.6085374E+000  0.9009047E+02  0.7546771E-02  0.1302633E+00
          1   -1    0    0  501    0  0.00000000000E+00  0.00000000000E+00  0.52338516236E+02  0.52338516236E+02  0.00000000000E+00 0. -1.
         -1   -1    0    0    0  501 -0.00000000000E+00 -0.00000000000E+00 -0.38768260665E+02  0.38768260665E+02  0.00000000000E+00 0.  1.
         23    2    1    2    0    0  0.00000000000E+00  0.00000000000E+00  0.13570255571E+02  0.91106776901E+02  0.90090470978E+02 0.  0.
        -13    1    3    3    0    0  0.32643039236E+02  0.11330561211E+02  0.36009635689E+02  0.49906347195E+02  0.00000000000E+00 0. -1.
         13    1    3    3    0    0 -0.32643039236E+02 -0.11330561211E+02 -0.22439380118E+02  0.41200429706E+02  0.00000000000E+00 0.  1.
<mgrwt>
<rscale>  0 0.90090471E+02</rscale>
<asrwt>0</asrwt>
<pdfrwt beam="1">  1        1 0.80520795E-02 0.90090471E+02</pdfrwt>
<pdfrwt beam="2">  1       -1 0.59643477E-02 0.90090471E+02</pdfrwt>
<totfact> 0.97613817E+04</totfact>
</mgrwt>
</event>
<event>
 5    1  0.6085374E+000  0.9309523E+02  0.7546771E-02  0.1295525E+00
          4   -1    0    0  501    0  0.00000000000E+00  0.00000000000E+00  0.14122380962E+03  0.14122380962E+03  0.00000000000E+00 0. -1.
         -4   -1    0    0    0  501 -0.00000000000E+00 -0.00000000000E+00 -0.15342174235E+02  0.15342174235E+02  0.00000000000E+00 0.  1.
         23    2    1    2    0    0  0.00000000000E+00  0.00000000000E+00  0.12588163538E+03  0.15656598385E+03  0.93095226371E+02 0.  0.
        -13    1    3    3    0    0 -0.38939453178E+02  0.69718361011E+01  0.10419742258E+03  0.11145398326E+03  0.00000000000E+00 0. -1.
         13    1    3    3    0    0  0.38939453178E+02 -0.69718361011E+01  0.21684212801E+02  0.45112000590E+02  0.00000000000E+00 0.  1.
<mgrwt>
<rscale>  0 0.93095226E+02</rscale>
<asrwt>0</asrwt>
<pdfrwt beam="1">  1        4 0.21726739E-01 0.93095226E+02</pdfrwt>
<pdfrwt beam="2">  1       -4 0.23603346E-02 0.93095226E+02</pdfrwt>
<totfact> 0.22072556E+04</totfact>
</mgrwt>
</event>
<event>
 5    1  0.6085374E+000  0.7654567E+02  0.7546771E-02  0.1339150E+00
          2   -1    0    0  501    0  0.00000000000E+00  0.00000000000E+00  0.17922322753E+02  0.17922322753E+02  0.00000000000E+00 0. -1.
         -2   -1    0    0    0  501 -0.00000000000E+00 -0.00000000000E+00 -0.81731040621E+02  0.81731040621E+02  0.00000000000E+00 0.  1.
         23    2    1    2    0    0  0.00000000000E+00  0.00000000000E+00 -0.63808717869E+02  0.99653363374E+02  0.76545674964E+02 0.  0.
        -13    1    3    3    0    0  0.35937062776E+02  0.52685299675E+01 -0.16196302247E+02  0.39768707491E+02  0.00000000000E+00 0. -1.
         13    1    3    3    0    0 -0.35937062776E+02 -0.52685299675E+01 -0.47612415621E+02  0.59884655883E+02  0.00000000000E+00 0.  1.
<mgrwt>
<rscale>  0 0.76545675E+02</rscale>
<asrwt>0</asrwt>
<pdfrwt beam="1">  1        2 0.27572805E-02 0.76545675E+02</pdfrwt>
<pdfrwt beam="2">  1       -2 0.12574006E-01 0.76545675E+02</pdfrwt>
<totfact> 0.13016950E+05</totfact>
</mgrwt>
</event>
<event>
 5    1  0.6085374E+000  0.9379958E+02  0.7546771E-02  0.1293903E+00
          1   -1    0    0  501    0  0.00000000000E+00  0.00000000000E+00  0.16880690730E+02  0.16880690730E+02  0.00000000000E+00 0. -1.
         -1   -1    0    0    0  501 -0.00000000000E+00 -0.00000000000E+00 -0.13030215476E+03  0.13030215476E+03  0.00000000000E+00 0.  1.
         23    2    1    2    0    0  0.00000000000E+00  0.00000000000E+00 -0.11342146403E+03  0.14718284549E+03  0.93799581575E+02 0.  0.
        -13    1    3    3    0    0  0.16995757392E+02  0.23336197211E+02 -0.11470786445E+03  0.11828494425E+03  0.00000000000E+00 0.  1.
         13    1    3    3    0    0 -0.16995757392E+02 -0.23336197211E+02  0.12864004280E+01  0.28897901232E+02  0.00000000000E+00 0. -1.
<mgrwt>
<rscale>  0 0.93799582E+02</rscale>
<asrwt>0</asrwt>
<pdfrwt beam="1">  1        1 0.25970294E-02 0.93799582E+02</pdfrwt>
<pdfrwt beam="2">  1       -1 0.20046485E-01 0.93799582E+02</pdfrwt>
<totfact> 0.71713735E+04</totfact>
</mgrwt>
</event>
<event>
 5    1  0.6085374E+000  0.9297699E+02  0.7546771E-02  0.1295799E+00
          2   -1    0    0  501    0  0.00000000000E+00  0.00000000000E+00  0.19010462938E+03  0.19010462938E+03  0.00000000000E+00 0. -1.
         -2   -1    0    0    0  501 -0.00000000000E+00 -0.00000000000E+00 -0.11368372143E+02  0.11368372143E+02  0.00000000000E+00 0.  1.
         23    2    1    2    0    0  0.00000000000E+00  0.00000000000E+00  0.17873625724E+03  0.20147300153E+03  0.92976990121E+02 0.  0.
        -13    1    3    3    0    0  0.37784402329E+02 -0.26300556282E+02  0.75358431375E+02  0.88307833738E+02  0.00000000000E+00 0. -1.
         13    1    3    3    0    0 -0.37784402329E+02  0.26300556282E+02  0.10337782587E+03  0.11316516779E+03  0.00000000000E+00 0.  1.
<mgrwt>
<rscale>  0 0.92976990E+02</rscale>
<asrwt>0</asrwt>
<pdfrwt beam="1">  1        2 0.29246864E-01 0.92976990E+02</pdfrwt>
<pdfrwt beam="2">  1       -2 0.17489805E-02 0.92976990E+02</pdfrwt>
<totfact> 0.14406589E+05</totfact>
</mgrwt>
</event>
<event>
 5    1  0.6085374E+000  0.9335104E+02  0.7546771E-02  0.1294934E+00
          1   -1    0    0  501    0  0.00000000000E+00  0.00000000000E+00  0.50807213372E+01  0.50807213372E+01  0.00000000000E+00 0. -1.
         -1   -1    0    0    0  501 -0.00000000000E+00 -0.00000000000E+00 -0.42879819015E+03  0.42879819015E+03  0.00000000000E+00 0.  1.
         23    2    1    2    0    0  0.00000000000E+00  0.00000000000E+00 -0.42371746882E+03  0.43387891149E+03  0.93351038860E+02 0.  0.
        -13    1    3    3    0    0  0.32583333940E+02 -0.33359618510E+02 -0.20248635277E+03  0.20778657525E+03  0.00000000000E+00 0.  1.
         13    1    3    3    0    0 -0.32583333940E+02  0.33359618510E+02 -0.22123111605E+03  0.22609233624E+03  0.00000000000E+00 0. -1.
<mgrwt>
<rscale>  0 0.93351039E+02</rscale>
<asrwt>0</asrwt>
<pdfrwt beam="1">  1        1 0.78164938E-03 0.93351039E+02</pdfrwt>
<pdfrwt beam="2">  1       -1 0.65968957E-01 0.93351039E+02</pdfrwt>
<totfact> 0.48311743E+04</totfact>
</mgrwt>
</event>
<event>
 5    1  0.6085374E+000  0.9385052E+02  0.7546771E-02  0.1293786E+00
         -3   -1    0    0    0  501 -0.00000000000E+00  0.00000000000E+00  0.19554306951E+02  0.19554306951E+02  0.00000000000E+00 0.  1.
          3   -1    0    0  501    0  0.00000000000E+00 -0.00000000000E+00 -0.11260844226E+03  0.11260844226E+03  0.00000000000E+00 0. -1.
         23    2    1    2    0    0  0.00000000000E+00  0.00000000000E+00 -0.93054135312E+02  0.13216274921E+03  0.93850520410E+02 0.  0.
        -13    1    3    3    0    0  0.20142565707E+02 -0.52643046274E+01  0.12694559636E+02  0.24384169061E+02  0.00000000000E+00 0.  1.
         13    1    3    3    0    0 -0.20142565707E+02  0.52643046274E+01 -0.10574869495E+03  0.10777858015E+03  0.00000000000E+00 0. -1.
<mgrwt>
<rscale>  0 0.93850520E+02</rscale>
<asrwt>0</asrwt>
<pdfrwt beam="2">  1        3 0.17324376E-01 0.93850520E+02</pdfrwt>
<pdfrwt beam="1">  1       -3 0.30083549E-02 0.93850520E+02</pdfrwt>
<totfact> 0.29980972E+04</totfact>
</mgrwt>
</event>
<event>
 5    1  0.6085374E+000  0.9049209E+02  0.7546771E-02  0.1301664E+00
         -4   -1    0    0    0  501 -0.00000000000E+00  0.00000000000E+00  0.29122951623E+02  0.29122951623E+02  0.00000000000E+00 0.  1.
          4   -1    0    0  501    0  0.00000000000E+00 -0.00000000000E+00 -0.70295233717E+02  0.70295233717E+02  0.00000000000E+00 0. -1.
         23    2    1    2    0    0  0.00000000000E+00  0.00000000000E+00 -0.41172282094E+02  0.99418185340E+02  0.90492092270E+02 0.  0.
        -13    1    3    3    0    0  0.11664468991E+02  0.97516284302E+01 -0.67404822033E+02  0.69098220868E+02  0.00000000000E+00 0. -1.
         13    1    3    3    0    0 -0.11664468991E+02 -0.97516284302E+01  0.26232539939E+02  0.30319964471E+02  0.00000000000E+00 0.  1.
<mgrwt>
<rscale>  0 0.90492092E+02</rscale>
<asrwt>0</asrwt>
<pdfrwt beam="2">  1        4 0.10814651E-01 0.90492092E+02</pdfrwt>
<pdfrwt beam="1">  1       -4 0.44804542E-02 0.90492092E+02</pdfrwt>
<totfact> 0.27040278E+04</totfact>
</mgrwt>
</event>
<event>
 5    1  0.6085374E+000  0.8888040E+02  0.7546771E-02  0.1305586E+00
          2   -1    0    0  501    0  0.00000000000E+00  0.00000000000E+00  0.72563517421E+02  0.72563517421E+02  0.00000000000E+00 0. -1.
         -2   -1    0    0    0  501 -0.00000000000E+00 -0.00000000000E+00 -0.27216587104E+02  0.27216587104E+02  0.00000000000E+00 0.  1.
         23    2    1    2    0    0  0.00000000000E+00  0.00000000000E+00  0.45346930317E+02  0.99780104525E+02  0.88880398119E+02 0.  0.
        -13    1    3    3    0    0 -0.10881288751E+02 -0.96433835686E+01 -0.24470909768E+02  0.28464411401E+02  0.00000000000E+00 0.  1.
         13    1    3    3    0    0  0.10881288751E+02  0.96433835686E+01  0.69817840085E+02  0.71315693124E+02  0.00000000000E+00 0. -1.
<mgrwt>
<rscale>  0 0.88880398E+02</rscale>
<asrwt>0</asrwt>
<pdfrwt beam="1">  1        2 0.11163618E-01 0.88880398E+02</pdfrwt>
<pdfrwt beam="2">  1       -2 0.41871673E-02 0.88880398E+02</pdfrwt>
<totfact> 0.11995661E+05</totfact>
</mgrwt>
</event>
<event>
 5    1  0.6085374E+000  0.8721972E+02  0.7546771E-02  0.1309728E+00
         -2   -1    0    0    0  501 -0.00000000000E+00  0.00000000000E+00  0.12047318482E+02  0.12047318482E+02  0.00000000000E+00 0.  1.
          2   -1    0    0  501    0  0.00000000000E+00 -0.00000000000E+00 -0.15786250901E+03  0.15786250901E+03  0.00000000000E+00 0. -1.
         23    2    1    2    0    0  0.00000000000E+00  0.00000000000E+00 -0.14581519053E+03  0.16990982750E+03  0.87219720761E+02 0.  0.
        -13    1    3    3    0    0 -0.33139957768E+02 -0.23427594226E+02 -0.41817101803E+02  0.58273312720E+02  0.00000000000E+00 0.  1.
         13    1    3    3    0    0  0.33139957768E+02  0.23427594226E+02 -0.10399808873E+03  0.11163651478E+03  0.00000000000E+00 0. -1.
<mgrwt>
<rscale>  0 0.87219721E+02</rscale>
<asrwt>0</asrwt>
<pdfrwt beam="2">  1        2 0.24286539E-01 0.87219721E+02</pdfrwt>
<pdfrwt beam="1">  1       -2 0.18534337E-02 0.87219721E+02</pdfrwt>
<totfact> 0.16038443E+05</totfact>
</mgrwt>
</event>
<event>
 5    1  0.6085374E+000  0.9128960E+02  0.7546771E-02  0.1299758E+00
          3   -1    0    0  501    0  0.00000000000E+00  0.00000000000E+00  0.23030141665E+03  0.23030141665E+03  0.00000000000E+00 0. -1.
         -3   -1    0    0    0  501 -0.00000000000E+00 -0.00000000000E+00 -0.90466124722E+01  0.90466124722E+01  0.00000000000E+00 0.  1.
         23    2    1    2    0    0  0.00000000000E+00  0.00000000000E+00  0.22125480418E+03  0.23934802913E+03  0.91289597836E+02 0.  0.
        -13    1    3    3    0    0  0.48325289980E+01 -0.33654399224E+02  0.30780174352E+02  0.45862741488E+02  0.00000000000E+00 0.  1.
         13    1    3    3    0    0 -0.48325289980E+01  0.33654399224E+02  0.19047462983E+03  0.19348528764E+03  0.00000000000E+00 0. -1.
<mgrwt>
<rscale>  0 0.91289598E+02</rscale>
<asrwt>0</asrwt>
<pdfrwt beam="1">  1        3 0.35430983E-01 0.91289598E+02</pdfrwt>
<pdfrwt beam="2">  1       -3 0.13917867E-02 0.91289598E+02</pdfrwt>
<totfact> 0.26495907E+04</totfact>
</mgrwt>
</event>
<event>
 5    1  0.6085374E+000  0.9050556E+02  0.7546771E-02  0.1301632E+00
         -2   -1    0    0    0  501 -0.00000000000E+00  0.00000000000E+00  0.44620861636E+01  0.44620861636E+01  0.00000000000E+00 0.  1.
          2   -1    0    0  501    0  0.00000000000E+00 -0.00000000000E+00 -0.45893649442E+03  0.45893649442E+03  0.00000000000E+00 0. -1.
         23    2    1    2    0    0  0.00000000000E+00  0.00000000000E+00 -0.45447440825E+03  0.46339858058E+03  0.90505561856E+02 0.  0.
        -13    1    3    3    0    0  0.31662908710E+02  0.32133394465E+02 -0.20897673393E+03  0.21379048190E+03  0.00000000000E+00 0. -1.
         13    1    3    3    0    0 -0.31662908710E+02 -0.32133394465E+02 -0.24549767433E+03  0.24960809868E+03  0.00000000000E+00 0.  1.
<mgrwt>
<rscale>  0 0.90505562E+02</rscale>
<asrwt>0</asrwt>
<pdfrwt beam="2">  1        2 0.70605650E-01 0.90505562E+02</pdfrwt>
<pdfrwt beam="1">  1       -2 0.68647445E-03 0.90505562E+02</pdfrwt>
<totfact> 0.21357946E+05</totfact>
</mgrwt>
</event>
<event>
 5    1  0.6085374E+000  0.9468543E+02  0.7546771E-02  0.1291886E+00
          3   -1    0    0  501    0  0.00000000000E+00  0.00000000000E+00  0.83350448567E+01  0.83350448567E+01  0.00000000000E+00 0. -1.
         -3   -1    0    0    0  501 -0.00000000000E+00 -0.00000000000E+00 -0.26890467390E+03  0.26890467390E+03  0.00000000000E+00 0.  1.
         23    2    1    2    0    0  0.00000000000E+00  0.00000000000E+00 -0.26056962904E+03  0.27723971875E+03  0.94685426949E+02 0.  0.
        -13    1    3    3    0    0 -0.40741987175E+02 -0.63722268220E+01 -0.19837707729E+03  0.20261781657E+03  0.00000000000E+00 0.  1.
         13    1    3    3    0    0  0.40741987175E+02  0.63722268220E+01 -0.62192551746E+02  0.74621902189E+02  0.00000000000E+00 0. -1.
<mgrwt>
<rscale>  0 0.94685427E+02</rscale>
<asrwt>0</asrwt>
<pdfrwt beam="1">  1        3 0.12823146E-02 0.94685427E+02</pdfrwt>
<pdfrwt beam="2">  1       -3 0.41369950E-01 0.94685427E+02</pdfrwt>
<totfact> 0.22520149E+04</totfact>
</mgrwt>
</event>
<event>
 5    1  0.6085374E+000  0.9009073E+02  0.7546771E-02  0.1302632E+00
          1   -1    0    0  501    0  0.00000000000E+00  0.00000000000E+00  0.24285904925E+02  0.24285904925E+02  0.00000000000E+00 0. -1.
         -1   -1    0    0    0  501 -0.00000000000E+00 -0.00000000000E+00 -0.83549907495E+02  0.83549907495E+02  0.00000000000E+00 0.  1.
         23    2    1    2    0    0  0.00000000000E+00  0.00000000000E+00 -0.59264002569E+02  0.10783581242E+03  0.90090734483E+02 0.  0.
        -13    1    3    3    0    0  0.29818258984E+02 -0.27468563880E+02 -0.61325240050E+01  0.41003151356E+02  0.00000000000E+00 0. -1.
         13    1    3    3    0    0 -0.29818258984E+02  0.27468563880E+02 -0.53131478564E+02  0.66832661064E+02  0.00000000000E+00 0.  1.
<mgrwt>
<rscale>  0 0.90090734E+02</rscale>
<asrwt>0</asrwt>
<pdfrwt beam="1">  1        1 0.37362931E-02 0.90090734E+02</pdfrwt>
<pdfrwt beam="2">  1       -1 0.12853832E-01 0.90090734E+02</pdfrwt>
<totfact> 0.86644849E+04</totfact>
</mgrwt>
</event>
<event>
 5    1  0.6085374E+000  0.8698355E+02  0.7546771E-02  0.1310325E+00
          2   -1    0    0  501    0  0.00000000000E+00  0.00000000000E+00  0.26679338183E+03  0.26679338183E+03  0.00000000000E+00 0. -1.
         -2   -1    0    0    0  501 -0.00000000000E+00 -0.00000000000E+00 -0.70898847999E+01  0.70898847999E+01  0.00000000000E+00 0.  1.
         23    2    1    2    0    0  0.00000000000E+00  0.00000000000E+00  0.25970349703E+03  0.27388326662E+03  0.86983546548E+02 0.  0.
        -13    1    3    3    0    0 -0.30137328914E+02  0.25383700024E+02  0.71883249303E+02  0.81974339591E+02  0.00000000000E+00 0.  1.
         13    1    3    3    0    0  0.30137328914E+02 -0.25383700024E+02  0.18782024772E+03  0.19190892703E+03  0.00000000000E+00 0. -1.
<mgrwt>
<rscale>  0 0.86983547E+02</rscale>
<asrwt>0</asrwt>
<pdfrwt beam="1">  1        2 0.41045128E-01 0.86983547E+02</pdfrwt>
<pdfrwt beam="2">  1       -2 0.10907517E-02 0.86983547E+02</pdfrwt>
<totfact> 0.19496500E+05</totfact>
</mgrwt>
</event>
<event>
 5    1  0.6085374E+000  0.9872208E+02  0.7546771E-02  0.1283006E+00
          2   -1    0    0  501    0  0.00000000000E+00  0.00000000000E+00  0.20335984815E+02  0.20335984815E+02  0.00000000000E+00 0. -1.
         -2   -1    0    0    0  501 -0.00000000000E+00 -0.00000000000E+00 -0.11981284312E+03  0.11981284312E+03  0.00000000000E+00 0.  1.
         23    2    1    2    0    0  0.00000000000E+00  0.00000000000E+00 -0.99476858302E+02  0.14014882793E+03  0.98722077740E+02 0.  0.
        -13    1    3    3    0    0  0.37710915572E+02 -0.26527743127E+02 -0.74760907851E+02  0.87835230127E+02  0.00000000000E+00 0.  1.
         13    1    3    3    0    0 -0.37710915572E+02  0.26527743127E+02 -0.24715950451E+02  0.52313597806E+02  0.00000000000E+00 0. -1.
<mgrwt>
<rscale>  0 0.98722078E+02</rscale>
<asrwt>0</asrwt>
<pdfrwt beam="1">  1        2 0.31286130E-02 0.98722078E+02</pdfrwt>
<pdfrwt beam="2">  1       -2 0.18432745E-01 0.98722078E+02</pdfrwt>
<totfact> 0.61802752E+04</totfact>
</mgrwt>
</event>
<event>
 5    1  0.6085374E+000  0.8835054E+02  0.7546771E-02  0.1306896E+00
          3   -1    0    0  501    0  0.00000000000E+00  0.00000000000E+00  0.86780162661E+02  0.86780162661E+02  0.00000000000E+00 0. -1.
         -3   -1    0    0    0  501 -0.00000000000E+00 -0.00000000000E+00 -0.22487335984E+02  0.22487335984E+02  0.00000000000E+00 0.  1.
         23    2    1    2    0    0  0.00000000000E+00  0.00000000000E+00  0.64292826678E+02  0.10926749864E+03  0.88350544412E+02 0.  0.
        -13    1    3    3    0    0 -0.85391048753E+01  0.36571280471E+02  0.60914596467E+02  0.71560903642E+02  0.00000000000E+00 0. -1.
         13    1    3    3    0    0  0.85391048753E+01 -0.36571280471E+02  0.33782302108E+01  0.37706595003E+02  0.00000000000E+00 0.  1.
<mgrwt>
<rscale>  0 0.88350544E+02</rscale>
<asrwt>0</asrwt>
<pdfrwt beam="1">  1        3 0.13350794E-01 0.88350544E+02</pdfrwt>
<pdfrwt beam="2">  1       -3 0.34595902E-02 0.88350544E+02</pdfrwt>
<totfact> 0.37024857E+04</totfact>
</mgrwt>
</event>
<event>
 5    1  0.6085374E+000  0.9163034E+02  0.7546771E-02  0.1298951E+00
         -3   -1    0    0    0  501 -0.00000000000E+00  0.00000000000E+00  0.12598989395E+03  0.12598989395E+03  0.00000000000E+00 0.  1.
          3   -1    0    0  501    0  0.00000000000E+00 -0.00000000000E+00 -0.16660304462E+02  0.16660304462E+02  0.00000000000E+00 0. -1.
         23    2    1    2    0    0  0.00000000000E+00  0.00000000000E+00  0.10932958949E+03  0.14265019842E+03  0.91630344153E+02 0.  0.
        -13    1    3    3    0    0  0.32308188041E+02 -0.10723259320E+02  0.10240105863E+03  0.10791100089E+03  0.00000000000E+00 0.  1.
         13    1    3    3    0    0 -0.32308188041E+02  0.10723259320E+02  0.69285308668E+01  0.34739197528E+02  0.00000000000E+00 0. -1.
<mgrwt>
<rscale>  0 0.91630344E+02</rscale>
<asrwt>0</asrwt>
<pdfrwt beam="2">  1        3 0.25631238E-02 0.91630344E+02</pdfrwt>
<pdfrwt beam="1">  1       -3 0.19383060E-01 0.91630344E+02</pdfrwt>
<totfact> 0.31339106E+04</totfact>
</mgrwt>
</event>
<event>
 5    1  0.6085374E+000  0.9406755E+02  0.7546771E-02  0.1293290E+00
         -4   -1    0    0    0  501 -0.00000000000E+00  0.00000000000E+00  0.12032800410E+02  0.12032800410E+02  0.00000000000E+00 0.  1.
          4   -1    0    0  501    0  0.00000000000E+00 -0.00000000000E+00 -0.18384549215E+03  0.18384549215E+03  0.00000000000E+00 0. -1.
         23    2    1    2    0    0  0.00000000000E+00  0.00000000000E+00 -0.17181269174E+03  0.19587829256E+03  0.94067552607E+02 0.  0.
        -13    1    3    3    0    0 -0.18064441211E+02  0.38482600110E+02 -0.44003584501E+02  0.61184556846E+02  0.00000000000E+00 0.  1.
         13    1    3    3    0    0  0.18064441211E+02 -0.38482600110E+02 -0.12780910724E+03  0.13469373572E+03  0.00000000000E+00 0. -1.
<mgrwt>
<rscale>  0 0.94067553E+02</rscale>
<asrwt>0</asrwt>
<pdfrwt beam="2">  1        4 0.28283920E-01 0.94067553E+02</pdfrwt>
<pdfrwt beam="1">  1       -4 0.18512002E-02 0.94067553E+02</pdfrwt>
<totfact> 0.19824522E+04</totfact>
</mgrwt>
</event>
<event>
 5    1  0.6085374E+000  0.8577708E+02  0.7546771E-02  0.1313413E+00
          1   -1    0    0  501    0  0.00000000000E+00  0.00000000000E+00  0.78991348998E+02  0.78991348998E+02  0.00000000000E+00 0.  1.
         -1   -1    0    0    0  501 -0.00000000000E+00 -0.00000000000E+00 -0.23286434158E+02  0.23286434158E+02  0.00000000000E+00 0. -1.
         23    2    1    2    0    0  0.00000000000E+00  0.00000000000E+00  0.55704914841E+02  0.10227778316E+03  0.85777079630E+02 0.  0.
        -13    1    3    3    0    0  0.83921043381E+01 -0.33491177408E+02 -0.24848078349E+01  0.34615901683E+02  0.00000000000E+00 0. -1.
         13    1    3    3    0    0 -0.83921043381E+01  0.33491177408E+02  0.58189722675E+02  0.67661881473E+02  0.00000000000E+00 0.  1.
<mgrwt>
<rscale>  0 0.85777080E+02</rscale>
<asrwt>0</asrwt>
<pdfrwt beam="1">  1        1 0.12152515E-01 0.85777080E+02</pdfrwt>
<pdfrwt beam="2">  1       -1 0.35825284E-02 0.85777080E+02</pdfrwt>
<totfact> 0.11879385E+05</totfact>
</mgrwt>
</event>
<event>
 5    1  0.6085374E+000  0.9071859E+02  0.7546771E-02  0.1301121E+00
          2   -1    0    0  501    0  0.00000000000E+00  0.00000000000E+00  0.83788897549E+02  0.83788897549E+02  0.00000000000E+00 0. -1.
         -2   -1    0    0    0  501 -0.00000000000E+00 -0.00000000000E+00 -0.24555349470E+02  0.24555349470E+02  0.00000000000E+00 0.  1.
         23    2    1    2    0    0  0.00000000000E+00  0.00000000000E+00  0.59233548079E+02  0.10834424702E+03  0.90718590400E+02 0.  0.
        -13    1    3    3    0    0  0.21915168738E+02  0.22658710226E+01  0.76969358611E+02  0.80060545572E+02  0.00000000000E+00 0. -1.
         13    1    3    3    0    0 -0.21915168738E+02 -0.22658710226E+01 -0.17735810532E+02  0.28283701447E+02  0.00000000000E+00 0.  1.
<mgrwt>
<rscale>  0 0.90718590E+02</rscale>
<asrwt>0</asrwt>
<pdfrwt beam="1">  1        2 0.12890600E-01 0.90718590E+02</pdfrwt>
<pdfrwt beam="2">  1       -2 0.37777461E-02 0.90718590E+02</pdfrwt>
<totfact> 0.11803222E+05</totfact>
</mgrwt>
</event>
<event>
 5    1  0.6085374E+000  0.9150431E+02  0.7546771E-02  0.1299249E+00
         -1   -1    0    0    0  501 -0.00000000000E+00  0.00000000000E+00  0.96043678189E+02  0.96043678189E+02  0.00000000000E+00 0.  1.
          1   -1    0    0  501    0  0.00000000000E+00 -0.00000000000E+00 -0.21794869821E+02  0.21794869821E+02  0.00000000000E+00 0. -1.
         23    2    1    2    0    0  0.00000000000E+00  0.00000000000E+00  0.74248808368E+02  0.11783854801E+03  0.91504305106E+02 0.  0.
        -13    1    3    3    0    0 -0.78382652578E+01  0.16516040653E+02 -0.16886804151E+02  0.24887389489E+02  0.00000000000E+00 0. -1.
         13    1    3    3    0    0  0.78382652578E+01 -0.16516040653E+02  0.91135612520E+02  0.92951158521E+02  0.00000000000E+00 0.  1.
<mgrwt>
<rscale>  0 0.91504305E+02</rscale>
<asrwt>0</asrwt>
<pdfrwt beam="2">  1        1 0.33530570E-02 0.91504305E+02</pdfrwt>
<pdfrwt beam="1">  1       -1 0.14775950E-01 0.91504305E+02</pdfrwt>
<totfact> 0.81224519E+04</totfact>
</mgrwt>
</event>
<event>
 5    1  0.6085374E+000  0.9186652E+02  0.7546771E-02  0.1298394E+00
         -3   -1    0    0    0  501 -0.00000000000E+00  0.00000000000E+00  0.28280633787E+03  0.28280633787E+03  0.00000000000E+00 0.  1.
          3   -1    0    0  501    0  0.00000000000E+00 -0.00000000000E+00 -0.74604566119E+01  0.74604566119E+01  0.00000000000E+00 0. -1.
         23    2    1    2    0    0  0.00000000000E+00  0.00000000000E+00  0.27534588126E+03  0.29026679448E+03  0.91866520850E+02 0.  0.
        -13    1    3    3    0    0 -0.10136132127E+02 -0.44157116178E+02  0.11376112726E+03  0.12245074994E+03  0.00000000000E+00 0.  1.
         13    1    3    3    0    0  0.10136132127E+02  0.44157116178E+02  0.16158475400E+03  0.16781604455E+03  0.00000000000E+00 0. -1.
<mgrwt>
<rscale>  0 0.91866521E+02</rscale>
<asrwt>0</asrwt>
<pdfrwt beam="2">  1        3 0.11477628E-02 0.91866521E+02</pdfrwt>
<pdfrwt beam="1">  1       -3 0.43508659E-01 0.91866521E+02</pdfrwt>
<totfact> 0.23915936E+04</totfact>
</mgrwt>
</event>
<event>
 5    1  0.6085374E+000  0.9288532E+02  0.7546771E-02  0.1296011E+00
         -2   -1    0    0    0  501 -0.00000000000E+00  0.00000000000E+00  0.18286432834E+03  0.18286432834E+03  0.00000000000E+00 0.  1.
          2   -1    0    0  501    0  0.00000000000E+00 -0.00000000000E+00 -0.11795195171E+02  0.11795195171E+02  0.00000000000E+00 0. -1.
         23    2    1    2    0    0  0.00000000000E+00  0.00000000000E+00  0.17106913316E+03  0.19465952351E+03  0.92885315148E+02 0.  0.
        -13    1    3    3    0    0  0.27475284332E+02 -0.21356848961E+02  0.14998924837E+03  0.15397331221E+03  0.00000000000E+00 0.  1.
         13    1    3    3    0    0 -0.27475284332E+02  0.21356848961E+02  0.21079884796E+02  0.40686211297E+02  0.00000000000E+00 0. -1.
<mgrwt>
<rscale>  0 0.92885315E+02</rscale>
<asrwt>0</asrwt>
<pdfrwt beam="2">  1        2 0.18146455E-02 0.92885315E+02</pdfrwt>
<pdfrwt beam="1">  1       -2 0.28132972E-01 0.92885315E+02</pdfrwt>
<totfact> 0.61723225E+04</totfact>
</mgrwt>
</event>
<event>
 5    1  0.6085374E+000  0.9087712E+02  0.7546771E-02  0.1300741E+00
         -1   -1    0    0    0  501 -0.00000000000E+00  0.00000000000E+00  0.23032728295E+02  0.23032728295E+02  0.00000000000E+00 0.  1.
          1   -1    0    0  501    0  0.00000000000E+00 -0.00000000000E+00 -0.89640387748E+02  0.89640387748E+02  0.00000000000E+00 0. -1.
         23    2    1    2    0    0  0.00000000000E+00  0.00000000000E+00 -0.66607659453E+02  0.11267311604E+03  0.90877119128E+02 0.  0.
        -13    1    3    3    0    0 -0.31882178423E+02 -0.23956397214E+02 -0.63026117395E+01  0.40374561090E+02  0.00000000000E+00 0.  1.
         13    1    3    3    0    0  0.31882178423E+02  0.23956397214E+02 -0.60305047714E+02  0.72298554953E+02  0.00000000000E+00 0. -1.
<mgrwt>
<rscale>  0 0.90877119E+02</rscale>
<asrwt>0</asrwt>
<pdfrwt beam="2">  1        1 0.13790829E-01 0.90877119E+02</pdfrwt>
<pdfrwt beam="1">  1       -1 0.35434967E-02 0.90877119E+02</pdfrwt>
<totfact> 0.10352159E+05</totfact>
</mgrwt>
</event>
<event>
 5    1  0.6085374E+000  0.8813482E+02  0.7546771E-02  0.1307432E+00
          2   -1    0    0  501    0  0.00000000000E+00  0.00000000000E+00  0.60403375788E+02  0.60403375788E+02  0.00000000000E+00 0. -1.
         -2   -1    0    0    0  501 -0.00000000000E+00 -0.00000000000E+00 -0.32149470722E+02  0.32149470722E+02  0.00000000000E+00 0.  1.
         23    2    1    2    0    0  0.00000000000E+00  0.00000000000E+00  0.28253905066E+02  0.92552846510E+02  0.88134818577E+02 0.  0.
        -13    1    3    3    0    0  0.13465956907E+02 -0.13815681653E+02 -0.27478950539E+02  0.33575255437E+02  0.00000000000E+00 0.  1.
         13    1    3    3    0    0 -0.13465956907E+02  0.13815681653E+02  0.55732855605E+02  0.58977591073E+02  0.00000000000E+00 0. -1.
<mgrwt>
<rscale>  0 0.88134819E+02</rscale>
<asrwt>0</asrwt>
<pdfrwt beam="1">  1        2 0.92928270E-02 0.88134819E+02</pdfrwt>
<pdfrwt beam="2">  1       -2 0.49460724E-02 0.88134819E+02</pdfrwt>
<totfact> 0.11688636E+05</totfact>
</mgrwt>
</event>
<event>
 5    1  0.6085374E+000  0.8001502E+02  0.7546771E-02  0.1329009E+00
         -4   -1    0    0    0  501 -0.00000000000E+00  0.00000000000E+00  0.22394752893E+03  0.22394752893E+03  0.00000000000E+00 0.  1.
          4   -1    0    0  501    0  0.00000000000E+00 -0.00000000000E+00 -0.71472144276E+01  0.71472144276E+01  0.00000000000E+00 0. -1.
         23    2    1    2    0    0  0.00000000000E+00  0.00000000000E+00  0.21680031451E+03  0.23109474336E+03  0.80015023835E+02 0.  0.
        -13    1    3    3    0    0  0.33718225113E+02  0.24880738614E+01  0.17017479139E+03  0.17350091884E+03  0.00000000000E+00 0.  1.
         13    1    3    3    0    0 -0.33718225113E+02 -0.24880738614E+01  0.46625523120E+02  0.57593824517E+02  0.00000000000E+00 0. -1.
<mgrwt>
<rscale>  0 0.80015024E+02</rscale>
<asrwt>0</asrwt>
<pdfrwt beam="2">  1        4 0.10995716E-02 0.80015024E+02</pdfrwt>
<pdfrwt beam="1">  1       -4 0.34453461E-01 0.80015024E+02</pdfrwt>
<totfact> 0.28462327E+04</totfact>
</mgrwt>
</event>
<event>
 5    1  0.6085374E+000  0.9101817E+02  0.7546771E-02  0.1300405E+00
         -2   -1    0    0    0  501 -0.00000000000E+00  0.00000000000E+00  0.32917977967E+03  0.32917977967E+03  0.00000000000E+00 0. -1.
          2   -1    0    0  501    0  0.00000000000E+00 -0.00000000000E+00 -0.62916277174E+01  0.62916277174E+01  0.00000000000E+00 0.  1.
         23    2    1    2    0    0  0.00000000000E+00  0.00000000000E+00  0.32288815195E+03  0.33547140739E+03  0.91018165787E+02 0.  0.
        -13    1    3    3    0    0  0.93741691892E+00 -0.41408310551E+02  0.91945231294E+02  0.10084370328E+03  0.00000000000E+00 0.  1.
         13    1    3    3    0    0 -0.93741691892E+00  0.41408310551E+02  0.23094292066E+03  0.23462770411E+03  0.00000000000E+00 0. -1.
<mgrwt>
<rscale>  0 0.91018166E+02</rscale>
<asrwt>0</asrwt>
<pdfrwt beam="2">  1        2 0.96794298E-03 0.91018166E+02</pdfrwt>
<pdfrwt beam="1">  1       -2 0.50643030E-01 0.91018166E+02</pdfrwt>
<totfact> 0.48547215E+04</totfact>
</mgrwt>
</event>
<event>
 5    1  0.6085374E+000  0.8792677E+02  0.7546771E-02  0.1307951E+00
         -1   -1    0    0    0  501 -0.00000000000E+00  0.00000000000E+00  0.49435033705E+01  0.49435033705E+01  0.00000000000E+00 0.  1.
          1   -1    0    0  501    0  0.00000000000E+00 -0.00000000000E+00 -0.39097356076E+03  0.39097356076E+03  0.00000000000E+00 0. -1.
         23    2    1    2    0    0  0.00000000000E+00  0.00000000000E+00 -0.38603005739E+03  0.39591706413E+03  0.87926767605E+02 0.  0.
        -13    1    3    3    0    0 -0.24010093163E+02 -0.36244994405E+02 -0.22240248711E+03  0.22661211456E+03  0.00000000000E+00 0.  1.
         13    1    3    3    0    0  0.24010093163E+02  0.36244994405E+02 -0.16362757028E+03  0.16930494957E+03  0.00000000000E+00 0. -1.
<mgrwt>
<rscale>  0 0.87926768E+02</rscale>
<asrwt>0</asrwt>
<pdfrwt beam="2">  1        1 0.60149788E-01 0.87926768E+02</pdfrwt>
<pdfrwt beam="1">  1       -1 0.76053886E-03 0.87926768E+02</pdfrwt>
<totfact> 0.14795093E+05</totfact>
</mgrwt>
</event>
<event>
 5    1  0.6085374E+000  0.9121027E+02  0.7546771E-02  0.1299947E+00
         -1   -1    0    0    0  501 -0.00000000000E+00  0.00000000000E+00  0.36981454224E+02  0.36981454224E+02  0.00000000000E+00 0.  1.
          1   -1    0    0  501    0  0.00000000000E+00 -0.00000000000E+00 -0.56239763487E+02  0.56239763487E+02  0.00000000000E+00 0. -1.
         23    2    1    2    0    0  0.00000000000E+00  0.00000000000E+00 -0.19258309264E+02  0.93221217711E+02  0.91210267820E+02 0.  0.
        -13    1    3    3    0    0 -0.31515982232E+02  0.67821675719E+01  0.23339967324E+02  0.39799610647E+02  0.00000000000E+00 0.  1.
         13    1    3    3    0    0  0.31515982232E+02 -0.67821675719E+01 -0.42598276588E+02  0.53421607064E+02  0.00000000000E+00 0. -1.
<mgrwt>
<rscale>  0 0.91210268E+02</rscale>
<asrwt>0</asrwt>
<pdfrwt beam="2">  1        1 0.86522713E-02 0.91210268E+02</pdfrwt>
<pdfrwt beam="1">  1       -1 0.56894545E-02 0.91210268E+02</pdfrwt>
<totfact> 0.95337271E+04</totfact>
</mgrwt>
</event>
<event>
 5    1  0.6085374E+000  0.9142731E+02  0.7546771E-02  0.1299432E+00
          3   -1    0    0  501    0  0.00000000000E+00  0.00000000000E+00  0.13078260618E+03  0.13078260618E+03  0.00000000000E+00 0. -1.
         -3   -1    0    0    0  501 -0.00000000000E+00 -0.00000000000E+00 -0.15978716148E+02  0.15978716148E+02  0.00000000000E+00 0.  1.
         23    2    1    2    0    0  0.00000000000E+00  0.00000000000E+00  0.11480389003E+03  0.14676132233E+03  0.91427307545E+02 0.  0.
        -13    1    3    3    0    0  0.23954887085E+02 -0.13766477483E+02  0.11586353043E+03  0.11911217487E+03  0.00000000000E+00 0. -1.
         13    1    3    3    0    0 -0.23954887085E+02  0.13766477483E+02 -0.10596403999E+01  0.27649147460E+02  0.00000000000E+00 0.  1.
<mgrwt>
<rscale>  0 0.91427308E+02</rscale>
<asrwt>0</asrwt>
<pdfrwt beam="1">  1        3 0.20120400E-01 0.91427308E+02</pdfrwt>
<pdfrwt beam="2">  1       -3 0.24582641E-02 0.91427308E+02</pdfrwt>
<totfact> 0.31272640E+04</totfact>
</mgrwt>
</event>
<event>
 5    1  0.6085374E+000  0.9483439E+02  0.7546771E-02  0.1291550E+00
         -2   -1    0    0    0  501 -0.00000000000E+00  0.00000000000E+00  0.10779311687E+02  0.10779311687E+02  0.00000000000E+00 0.  1.
          2   -1    0    0  501    0  0.00000000000E+00 -0.00000000000E+00 -0.20858384255E+03  0.20858384255E+03  0.00000000000E+00 0. -1.
         23    2    1    2    0    0  0.00000000000E+00  0.00000000000E+00 -0.19780453086E+03  0.21936315424E+03  0.94834387261E+02 0.  0.
        -13    1    3    3    0    0 -0.44069126803E+02 -0.11547491041E+02 -0.12932287221E+03  0.13711250039E+03  0.00000000000E+00 0. -1.
         13    1    3    3    0    0  0.44069126803E+02  0.11547491041E+02 -0.68481658656E+02  0.82250653851E+02  0.00000000000E+00 0.  1.
<mgrwt>
<rscale>  0 0.94834387E+02</rscale>
<asrwt>0</asrwt>
<pdfrwt beam="2">  1        2 0.32089820E-01 0.94834387E+02</pdfrwt>
<pdfrwt beam="1">  1       -2 0.16583557E-02 0.94834387E+02</pdfrwt>
<totfact> 0.14124481E+05</totfact>
</mgrwt>
</event>
<event>
 5    1  0.6085374E+000  0.8929522E+02  0.7546771E-02  0.1304567E+00
          1   -1    0    0  501    0  0.00000000000E+00  0.00000000000E+00  0.27387980201E+02  0.27387980201E+02  0.00000000000E+00 0. -1.
         -1   -1    0    0    0  501 -0.00000000000E+00 -0.00000000000E+00 -0.72784085553E+02  0.72784085553E+02  0.00000000000E+00 0.  1.
         23    2    1    2    0    0  0.00000000000E+00  0.00000000000E+00 -0.45396105352E+02  0.10017206575E+03  0.89295220343E+02 0.  0.
        -13    1    3    3    0    0  0.33911597973E+02 -0.13357895102E+02 -0.51626322878E+02  0.63195783503E+02  0.00000000000E+00 0.  1.
         13    1    3    3    0    0 -0.33911597973E+02  0.13357895102E+02  0.62302175265E+01  0.36976282250E+02  0.00000000000E+00 0. -1.
<mgrwt>
<rscale>  0 0.89295220E+02</rscale>
<asrwt>0</asrwt>
<pdfrwt beam="1">  1        1 0.42135355E-02 0.89295220E+02</pdfrwt>
<pdfrwt beam="2">  1       -1 0.11197551E-01 0.89295220E+02</pdfrwt>
<totfact> 0.90687950E+04</totfact>
</mgrwt>
</event>
<event>
 5    1  0.6085374E+000  0.9061637E+02  0.7546771E-02  0.1301366E+00
         -1   -1    0    0    0  501 -0.00000000000E+00  0.00000000000E+00  0.60534520499E+02  0.60534520499E+02  0.00000000000E+00 0.  1.
          1   -1    0    0  501    0  0.00000000000E+00 -0.00000000000E+00 -0.33911748852E+02  0.33911748852E+02  0.00000000000E+00 0. -1.
         23    2    1    2    0    0  0.00000000000E+00  0.00000000000E+00  0.26622771647E+02  0.94446269352E+02  0.90616366206E+02 0.  0.
        -13    1    3    3    0    0  0.32426070645E+02  0.29183648246E+02  0.55923707427E+00  0.43628524254E+02  0.00000000000E+00 0.  1.
         13    1    3    3    0    0 -0.32426070645E+02 -0.29183648246E+02  0.26063534573E+02  0.50817745098E+02  0.00000000000E+00 0. -1.
<mgrwt>
<rscale>  0 0.90616366E+02</rscale>
<asrwt>0</asrwt>
<pdfrwt beam="2">  1        1 0.52171921E-02 0.90616366E+02</pdfrwt>
<pdfrwt beam="1">  1       -1 0.93130032E-02 0.90616366E+02</pdfrwt>
<totfact> 0.89953022E+04</totfact>
</mgrwt>
</event>
<event>
 5    1  0.6085374E+000  0.9086687E+02  0.7546771E-02  0.1300766E+00
         -3   -1    0    0    0  501 -0.00000000000E+00  0.00000000000E+00  0.97047768060E+01  0.97047768060E+01  0.00000000000E+00 0.  1.
          3   -1    0    0  501    0  0.00000000000E+00 -0.00000000000E+00 -0.21269908225E+03  0.21269908225E+03  0.00000000000E+00 0. -1.
         23    2    1    2    0    0  0.00000000000E+00  0.00000000000E+00 -0.20299430544E+03  0.22240385905E+03  0.90866872292E+02 0.  0.
        -13    1    3    3    0    0  0.36226011978E+02  0.27391869212E+02 -0.98441423623E+02  0.10841287897E+03  0.00000000000E+00 0. -1.
         13    1    3    3    0    0 -0.36226011978E+02 -0.27391869212E+02 -0.10455288182E+03  0.11399098008E+03  0.00000000000E+00 0.  1.
<mgrwt>
<rscale>  0 0.90866872E+02</rscale>
<asrwt>0</asrwt>
<pdfrwt beam="2">  1        3 0.32722935E-01 0.90866872E+02</pdfrwt>
<pdfrwt beam="1">  1       -3 0.14930426E-02 0.90866872E+02</pdfrwt>
<totfact> 0.27632626E+04</totfact>
</mgrwt>
</event>
<event>
 5    1  0.6085374E+000  0.9986742E+02  0.7546771E-02  0.1280575E+00
          1   -1    0    0  501    0  0.00000000000E+00  0.00000000000E+00  0.70733264412E+01  0.70733264412E+01  0.00000000000E+00 0. -1.
         -1   -1    0    0    0  501 -0.00000000000E+00 -0.00000000000E+00 -0.35250394264E+03  0.35250394264E+03  0.00000000000E+00 0.  1.
         23    2    1    2    0    0  0.00000000000E+00  0.00000000000E+00 -0.34543061620E+03  0.35957726908E+03  0.99867421277E+02 0.  0.
        -13    1    3    3    0    0  0.33367712169E+02  0.31608878869E+02 -0.24298133293E+03  0.24729022138E+03  0.00000000000E+00 0.  1.
         13    1    3    3    0    0 -0.33367712169E+02 -0.31608878869E+02 -0.10244928327E+03  0.11228704771E+03  0.00000000000E+00 0. -1.
<mgrwt>
<rscale>  0 0.99867421E+02</rscale>
<asrwt>0</asrwt>
<pdfrwt beam="1">  1        1 0.10882039E-02 0.99867421E+02</pdfrwt>
<pdfrwt beam="2">  1       -1 0.54231382E-01 0.99867421E+02</pdfrwt>
<totfact> 0.44562454E+04</totfact>
</mgrwt>
</event>
<event>
 5    1  0.6085374E+000  0.9212776E+02  0.7546771E-02  0.1297779E+00
         -2   -1    0    0    0  501 -0.00000000000E+00  0.00000000000E+00  0.29296305754E+02  0.29296305754E+02  0.00000000000E+00 0.  1.
          2   -1    0    0  501    0  0.00000000000E+00 -0.00000000000E+00 -0.72428273761E+02  0.72428273761E+02  0.00000000000E+00 0. -1.
         23    2    1    2    0    0  0.00000000000E+00  0.00000000000E+00 -0.43131968006E+02  0.10172457951E+03  0.92127755933E+02 0.  0.
        -13    1    3    3    0    0 -0.21675483665E+02  0.27267321814E+02  0.11716000264E+02  0.36750484258E+02  0.00000000000E+00 0.  1.
         13    1    3    3    0    0  0.21675483665E+02 -0.27267321814E+02 -0.54847968271E+02  0.64974095257E+02  0.00000000000E+00 0. -1.
<mgrwt>
<rscale>  0 0.92127756E+02</rscale>
<asrwt>0</asrwt>
<pdfrwt beam="2">  1        2 0.11142811E-01 0.92127756E+02</pdfrwt>
<pdfrwt beam="1">  1       -2 0.45071240E-02 0.92127756E+02</pdfrwt>
<totfact> 0.10847842E+05</totfact>
</mgrwt>
</event>
<event>
 5    1  0.6085374E+000  0.9017746E+02  0.7546771E-02  0.1302423E+00
         -4   -1    0    0    0  501 -0.00000000000E+00  0.00000000000E+00  0.19804726219E+02  0.19804726219E+02  0.00000000000E+00 0.  1.
          4   -1    0    0  501    0  0.00000000000E+00 -0.00000000000E+00 -0.10265194120E+03  0.10265194120E+03  0.00000000000E+00 0. -1.
         23    2    1    2    0    0  0.00000000000E+00  0.00000000000E+00 -0.82847214985E+02  0.12245666742E+03  0.90177460407E+02 0.  0.
        -13    1    3    3    0    0 -0.12291828868E+02  0.39228833327E+02 -0.16273867310E+02  0.44213450197E+02  0.00000000000E+00 0.  1.
         13    1    3    3    0    0  0.12291828868E+02 -0.39228833327E+02 -0.66573347675E+02  0.78243217225E+02  0.00000000000E+00 0. -1.
<mgrwt>
<rscale>  0 0.90177460E+02</rscale>
<asrwt>0</asrwt>
<pdfrwt beam="2">  1        4 0.15792606E-01 0.90177460E+02</pdfrwt>
<pdfrwt beam="1">  1       -4 0.30468810E-02 0.90177460E+02</pdfrwt>
<totfact> 0.25891846E+04</totfact>
</mgrwt>
</event>
<event>
 5    1  0.6085374E+000  0.9143146E+02  0.7546771E-02  0.1299422E+00
          1   -1    0    0  501    0  0.00000000000E+00  0.00000000000E+00  0.11134658663E+02  0.11134658663E+02  0.00000000000E+00 0. -1.
         -1   -1    0    0    0  501 -0.00000000000E+00 -0.00000000000E+00 -0.18769572985E+03  0.18769572985E+03  0.00000000000E+00 0.  1.
         23    2    1    2    0    0  0.00000000000E+00  0.00000000000E+00 -0.17656107119E+03  0.19883038851E+03  0.91431458137E+02 0.  0.
        -13    1    3    3    0    0  0.27049260114E+02  0.11377381523E+02 -0.16451148999E+03  0.16710816144E+03  0.00000000000E+00 0.  1.
         13    1    3    3    0    0 -0.27049260114E+02 -0.11377381523E+02 -0.12049581196E+02  0.31722227066E+02  0.00000000000E+00 0. -1.
<mgrwt>
<rscale>  0 0.91431458E+02</rscale>
<asrwt>0</asrwt>
<pdfrwt beam="1">  1        1 0.17130245E-02 0.91431458E+02</pdfrwt>
<pdfrwt beam="2">  1       -1 0.28876265E-01 0.91431458E+02</pdfrwt>
<totfact> 0.70156444E+04</totfact>
</mgrwt>
</event>
<event>
 5    1  0.6085374E+000  0.9149586E+02  0.7546771E-02  0.1299269E+00
          2   -1    0    0  501    0  0.00000000000E+00  0.00000000000E+00  0.36060948372E+02  0.36060948372E+02  0.00000000000E+00 0.  1.
         -2   -1    0    0    0  501 -0.00000000000E+00 -0.00000000000E+00 -0.58037111352E+02  0.58037111352E+02  0.00000000000E+00 0. -1.
         23    2    1    2    0    0  0.00000000000E+00  0.00000000000E+00 -0.21976162980E+02  0.94098059724E+02  0.91495863865E+02 0.  0.
        -13    1    3    3    0    0 -0.37217045746E+02 -0.13672878716E+02  0.12482392110E+02  0.41567610218E+02  0.00000000000E+00 0.  1.
         13    1    3    3    0    0  0.37217045746E+02  0.13672878716E+02 -0.34458555090E+02  0.52530449506E+02  0.00000000000E+00 0. -1.
<mgrwt>
<rscale>  0 0.91495864E+02</rscale>
<asrwt>0</asrwt>
<pdfrwt beam="1">  1        2 0.55478383E-02 0.91495864E+02</pdfrwt>
<pdfrwt beam="2">  1       -2 0.89287862E-02 0.91495864E+02</pdfrwt>
<totfact> 0.91914406E+04</totfact>
</mgrwt>
</event>
<event>
 5    1  0.6085374E+000  0.9196802E+02  0.7546771E-02  0.1298155E+00
         -2   -1    0    0    0  501 -0.00000000000E+00  0.00000000000E+00  0.11896096257E+03  0.11896096257E+03  0.00000000000E+00 0.  1.
          2   -1    0    0  501    0  0.00000000000E+00 -0.00000000000E+00 -0.17774982235E+02  0.17774982235E+02  0.00000000000E+00 0. -1.
         23    2    1    2    0    0  0.00000000000E+00  0.00000000000E+00  0.10118598034E+03  0.13673594481E+03  0.91968016102E+02 0.  0.
        -13    1    3    3    0    0  0.44098827894E+02 -0.11822846229E+02  0.58742194864E+02  0.74398466194E+02  0.00000000000E+00 0. -1.
         13    1    3    3    0    0 -0.44098827894E+02  0.11822846229E+02  0.42443785473E+02  0.62337478613E+02  0.00000000000E+00 0.  1.
<mgrwt>
<rscale>  0 0.91968016E+02</rscale>
<asrwt>0</asrwt>
<pdfrwt beam="2">  1        2 0.27346127E-02 0.91968016E+02</pdfrwt>
<pdfrwt beam="1">  1       -2 0.18301686E-01 0.91968016E+02</pdfrwt>
<totfact> 0.74005526E+04</totfact>
</mgrwt>
</event>
<event>
 5    1  0.6085374E+000  0.9154304E+02  0.7546771E-02  0.1299157E+00
         -2   -1    0    0    0  501 -0.00000000000E+00  0.00000000000E+00  0.88687868600E+01  0.88687868600E+01  0.00000000000E+00 0.  1.
          2   -1    0    0  501    0  0.00000000000E+00 -0.00000000000E+00 -0.23622531710E+03  0.23622531710E+03  0.00000000000E+00 0. -1.
         23    2    1    2    0    0  0.00000000000E+00  0.00000000000E+00 -0.22735653024E+03  0.24509410396E+03  0.91543038802E+02 0.  0.
        -13    1    3    3    0    0 -0.41760235062E+02 -0.67238532452E+01 -0.66850815018E+02  0.79108526111E+02  0.00000000000E+00 0.  1.
         13    1    3    3    0    0  0.41760235062E+02  0.67238532452E+01 -0.16050571522E+03  0.16598557785E+03  0.00000000000E+00 0. -1.
<mgrwt>
<rscale>  0 0.91543039E+02</rscale>
<asrwt>0</asrwt>
<pdfrwt beam="2">  1        2 0.36342353E-01 0.91543039E+02</pdfrwt>
<pdfrwt beam="1">  1       -2 0.13644289E-02 0.91543039E+02</pdfrwt>
<totfact> 0.16262395E+05</totfact>
</mgrwt>
</event>
<event>
 5    1  0.6085374E+000  0.9297647E+02  0.7546771E-02  0.1295800E+00
          1   -1    0    0  501    0  0.00000000000E+00  0.00000000000E+00  0.73828988031E+02  0.73828988031E+02  0.00000000000E+00 0. -1.
         -1   -1    0    0    0  501 -0.00000000000E+00 -0.00000000000E+00 -0.29272458866E+02  0.29272458866E+02  0.00000000000E+00 0.  1.
         23    2    1    2    0    0  0.00000000000E+00  0.00000000000E+00  0.44556529165E+02  0.10310144690E+03  0.92976470471E+02 0.  0.
        -13    1    3    3    0    0 -0.41672327502E+02 -0.19748857473E+02  0.28796828922E+02  0.54367799357E+02  0.00000000000E+00 0. -1.
         13    1    3    3    0    0  0.41672327502E+02  0.19748857473E+02  0.15759700243E+02  0.48733647541E+02  0.00000000000E+00 0.  1.
<mgrwt>
<rscale>  0 0.92976470E+02</rscale>
<asrwt>0</asrwt>
<pdfrwt beam="1">  1        1 0.11358306E-01 0.92976470E+02</pdfrwt>
<pdfrwt beam="2">  1       -1 0.45034552E-02 0.92976470E+02</pdfrwt>
<totfact> 0.94261940E+04</totfact>
</mgrwt>
</event>
<event>
 5    1  0.6085374E+000  0.9127132E+02  0.7546771E-02  0.1299802E+00
          3   -1    0    0  501    0  0.00000000000E+00  0.00000000000E+00  0.10742419474E+02  0.10742419474E+02  0.00000000000E+00 0. -1.
         -3   -1    0    0    0  501 -0.00000000000E+00 -0.00000000000E+00 -0.19386818716E+03  0.19386818716E+03  0.00000000000E+00 0.  1.
         23    2    1    2    0    0  0.00000000000E+00  0.00000000000E+00 -0.18312576768E+03  0.20461060663E+03  0.91271318365E+02 0.  0.
        -13    1    3    3    0    0  0.53276877949E+01  0.37793389378E+02 -0.35478438776E+02  0.52109923776E+02  0.00000000000E+00 0. -1.
         13    1    3    3    0    0 -0.53276877949E+01 -0.37793389378E+02 -0.14764732891E+03  0.15250068286E+03  0.00000000000E+00 0.  1.
<mgrwt>
<rscale>  0 0.91271318E+02</rscale>
<asrwt>0</asrwt>
<pdfrwt beam="1">  1        3 0.16526801E-02 0.91271318E+02</pdfrwt>
<pdfrwt beam="2">  1       -3 0.29825872E-01 0.91271318E+02</pdfrwt>
<totfact> 0.28181461E+04</totfact>
</mgrwt>
</event>
<event>
 5    1  0.6085374E+000  0.9338048E+02  0.7546771E-02  0.1294866E+00
         -4   -1    0    0    0  501 -0.00000000000E+00  0.00000000000E+00  0.27338293272E+02  0.27338293272E+02  0.00000000000E+00 0.  1.
          4   -1    0    0  501    0  0.00000000000E+00 -0.00000000000E+00 -0.79740840291E+02  0.79740840291E+02  0.00000000000E+00 0. -1.
         23    2    1    2    0    0  0.00000000000E+00  0.00000000000E+00 -0.52402547019E+02  0.10707913356E+03  0.93380479279E+02 0.  0.
        -13    1    3    3    0    0 -0.20205301722E+02  0.39908978614E+02 -0.41542937191E+02  0.61047493169E+02  0.00000000000E+00 0.  1.
         13    1    3    3    0    0  0.20205301722E+02 -0.39908978614E+02 -0.10859609828E+02  0.46031640394E+02  0.00000000000E+00 0. -1.
<mgrwt>
<rscale>  0 0.93380479E+02</rscale>
<asrwt>0</asrwt>
<pdfrwt beam="2">  1        4 0.12267821E-01 0.93380479E+02</pdfrwt>
<pdfrwt beam="1">  1       -4 0.42058913E-02 0.93380479E+02</pdfrwt>
<totfact> 0.24392245E+04</totfact>
</mgrwt>
</event>
<event>
 5    1  0.6085374E+000  0.9059050E+02  0.7546771E-02  0.1301428E+00
          2   -1    0    0  501    0  0.00000000000E+00  0.00000000000E+00  0.58233064477E+02  0.58233064477E+02  0.00000000000E+00 0. -1.
         -2   -1    0    0    0  501 -0.00000000000E+00 -0.00000000000E+00 -0.35231870094E+02  0.35231870094E+02  0.00000000000E+00 0.  1.
         23    2    1    2    0    0  0.00000000000E+00  0.00000000000E+00  0.23001194383E+02  0.93464934570E+02  0.90590501992E+02 0.  0.
        -13    1    3    3    0    0  0.41173850859E+02 -0.18722833920E+02  0.90096031604E+01  0.46119447673E+02  0.00000000000E+00 0. -1.
         13    1    3    3    0    0 -0.41173850859E+02  0.18722833920E+02  0.13991591223E+02  0.47345486897E+02  0.00000000000E+00 0.  1.
<mgrwt>
<rscale>  0 0.90590502E+02</rscale>
<asrwt>0</asrwt>
<pdfrwt beam="1">  1        2 0.89589330E-02 0.90590502E+02</pdfrwt>
<pdfrwt beam="2">  1       -2 0.54202877E-02 0.90590502E+02</pdfrwt>
<totfact> 0.10715781E+05</totfact>
</mgrwt>
</event>
<event>
 5    1  0.6085374E+000  0.1024979E+03  0.7546771E-02  0.1275129E+00
          2   -1    0    0  501    0  0.00000000000E+00  0.00000000000E+00  0.31510383748E+03  0.31510383748E+03  0.00000000000E+00 0. -1.
         -2   -1    0    0    0  501 -0.00000000000E+00 -0.00000000000E+00 -0.83352018091E+01  0.83352018091E+01  0.00000000000E+00 0.  1.
         23    2    1    2    0    0  0.00000000000E+00  0.00000000000E+00  0.30676863567E+03  0.32343903929E+03  0.10249788439E+03 0.  0.
        -13    1    3    3    0    0  0.40345397410E+02  0.16293095958E+02  0.23883194781E+03  0.24276308485E+03  0.00000000000E+00 0. -1.
         13    1    3    3    0    0 -0.40345397410E+02 -0.16293095958E+02  0.67936687858E+02  0.80675954443E+02  0.00000000000E+00 0.  1.
<mgrwt>
<rscale>  0 0.10249788E+03</rscale>
<asrwt>0</asrwt>
<pdfrwt beam="1">  1        2 0.48477504E-01 0.10249788E+03</pdfrwt>
<pdfrwt beam="2">  1       -2 0.12823390E-02 0.10249788E+03</pdfrwt>
<totfact> 0.13364569E+05</totfact>
</mgrwt>
</event>
<event>
 5    1  0.6085374E+000  0.9280488E+02  0.7546771E-02  0.1296198E+00
          4   -1    0    0  501    0  0.00000000000E+00  0.00000000000E+00  0.54559633824E+01  0.54559633824E+01  0.00000000000E+00 0. -1.
         -4   -1    0    0    0  501 -0.00000000000E+00 -0.00000000000E+00 -0.39464828205E+03  0.39464828205E+03  0.00000000000E+00 0.  1.
         23    2    1    2    0    0  0.00000000000E+00  0.00000000000E+00 -0.38919231867E+03  0.40010424543E+03  0.92804882970E+02 0.  0.
        -13    1    3    3    0    0  0.78558533343E+01 -0.45716559108E+02 -0.19982035839E+03  0.20513384371E+03  0.00000000000E+00 0. -1.
         13    1    3    3    0    0 -0.78558533343E+01  0.45716559108E+02 -0.18937196028E+03  0.19497040172E+03  0.00000000000E+00 0.  1.
<mgrwt>
<rscale>  0 0.92804883E+02</rscale>
<asrwt>0</asrwt>
<pdfrwt beam="1">  1        4 0.83937907E-03 0.92804883E+02</pdfrwt>
<pdfrwt beam="2">  1       -4 0.60715114E-01 0.92804883E+02</pdfrwt>
<totfact> 0.14452863E+04</totfact>
</mgrwt>
</event>
<event>
 5    1  0.6085374E+000  0.9165532E+02  0.7546771E-02  0.1298892E+00
          4   -1    0    0  501    0  0.00000000000E+00  0.00000000000E+00  0.30323122712E+02  0.30323122712E+02  0.00000000000E+00 0. -1.
         -4   -1    0    0    0  501 -0.00000000000E+00 -0.00000000000E+00 -0.69259832716E+02  0.69259832716E+02  0.00000000000E+00 0.  1.
         23    2    1    2    0    0  0.00000000000E+00  0.00000000000E+00 -0.38936710004E+02  0.99582955429E+02  0.91655319682E+02 0.  0.
        -13    1    3    3    0    0  0.11464773953E+02 -0.26403162995E+02 -0.58212285625E+02  0.64940266828E+02  0.00000000000E+00 0.  1.
         13    1    3    3    0    0 -0.11464773953E+02  0.26403162995E+02  0.19275575621E+02  0.34642688601E+02  0.00000000000E+00 0. -1.
<mgrwt>
<rscale>  0 0.91655320E+02</rscale>
<asrwt>0</asrwt>
<pdfrwt beam="1">  1        4 0.46650958E-02 0.91655320E+02</pdfrwt>
<pdfrwt beam="2">  1       -4 0.10655359E-01 0.91655320E+02</pdfrwt>
<totfact> 0.26110074E+04</totfact>
</mgrwt>
</event>
<event>
 5    1  0.6085374E+000  0.9273980E+02  0.7546771E-02  0.1296349E+00
          2   -1    0    0  501    0  0.00000000000E+00  0.00000000000E+00  0.25927162470E+02  0.25927162470E+02  0.00000000000E+00 0. -1.
         -2   -1    0    0    0  501 -0.00000000000E+00 -0.00000000000E+00 -0.82931079774E+02  0.82931079774E+02  0.00000000000E+00 0.  1.
         23    2    1    2    0    0  0.00000000000E+00  0.00000000000E+00 -0.57003917304E+02  0.10885824224E+03  0.92739798988E+02 0.  0.
        -13    1    3    3    0    0 -0.17867454292E+02  0.76608597037E+01  0.20912673025E+02  0.28553013629E+02  0.00000000000E+00 0. -1.
         13    1    3    3    0    0  0.17867454292E+02 -0.76608597037E+01 -0.77916590329E+02  0.80305228614E+02  0.00000000000E+00 0.  1.
<mgrwt>
<rscale>  0 0.92739799E+02</rscale>
<asrwt>0</asrwt>
<pdfrwt beam="1">  1        2 0.39887942E-02 0.92739799E+02</pdfrwt>
<pdfrwt beam="2">  1       -2 0.12758628E-01 0.92739799E+02</pdfrwt>
<totfact> 0.80778176E+04</totfact>
</mgrwt>
</event>
<event>
 5    1  0.6085374E+000  0.8904419E+02  0.7546771E-02  0.1305183E+00
         -2   -1    0    0    0  501 -0.00000000000E+00  0.00000000000E+00  0.43190984412E+01  0.43190984412E+01  0.00000000000E+00 0. -1.
          2   -1    0    0  501    0  0.00000000000E+00 -0.00000000000E+00 -0.45894225484E+03  0.45894225484E+03  0.00000000000E+00 0.  1.
         23    2    1    2    0    0  0.00000000000E+00  0.00000000000E+00 -0.45462315640E+03  0.46326135328E+03  0.89044186278E+02 0.  0.
        -13    1    3    3    0    0 -0.21981134204E+02  0.38181632252E+02 -0.26070946926E+03  0.26440581435E+03  0.00000000000E+00 0.  1.
         13    1    3    3    0    0  0.21981134204E+02 -0.38181632252E+02 -0.19391368714E+03  0.19885553893E+03  0.00000000000E+00 0. -1.
<mgrwt>
<rscale>  0 0.89044186E+02</rscale>
<asrwt>0</asrwt>
<pdfrwt beam="2">  1        2 0.70606487E-01 0.89044186E+02</pdfrwt>
<pdfrwt beam="1">  1       -2 0.66447681E-03 0.89044186E+02</pdfrwt>
<totfact> 0.22297421E+05</totfact>
</mgrwt>
</event>
<event>
 5    1  0.6085374E+000  0.9068888E+02  0.7546771E-02  0.1301192E+00
          1   -1    0    0  501    0  0.00000000000E+00  0.00000000000E+00  0.74664416453E+01  0.74664416453E+01  0.00000000000E+00 0. -1.
         -1   -1    0    0    0  501 -0.00000000000E+00 -0.00000000000E+00 -0.27538126626E+03  0.27538126626E+03  0.00000000000E+00 0.  1.
         23    2    1    2    0    0  0.00000000000E+00  0.00000000000E+00 -0.26791482462E+03  0.28284770791E+03  0.90688878144E+02 0.  0.
        -13    1    3    3    0    0  0.37502927117E+02 -0.69054519447E-01 -0.21345176876E+03  0.21672132313E+03  0.00000000000E+00 0.  1.
         13    1    3    3    0    0 -0.37502927117E+02  0.69054519447E-01 -0.54463055855E+02  0.66126384779E+02  0.00000000000E+00 0. -1.
<mgrwt>
<rscale>  0 0.90688878E+02</rscale>
<asrwt>0</asrwt>
<pdfrwt beam="1">  1        1 0.11486834E-02 0.90688878E+02</pdfrwt>
<pdfrwt beam="2">  1       -1 0.42366346E-01 0.90688878E+02</pdfrwt>
<totfact> 0.63474992E+04</totfact>
</mgrwt>
</event>
<event>
 5    1  0.6085374E+000  0.9618478E+02  0.7546771E-02  0.1288530E+00
          2   -1    0    0  501    0  0.00000000000E+00  0.00000000000E+00  0.31109505410E+03  0.31109505410E+03  0.00000000000E+00 0. -1.
         -2   -1    0    0    0  501 -0.00000000000E+00 -0.00000000000E+00 -0.74346344669E+01  0.74346344669E+01  0.00000000000E+00 0.  1.
         23    2    1    2    0    0  0.00000000000E+00  0.00000000000E+00  0.30366041963E+03  0.31852968857E+03  0.96184780744E+02 0.  0.
        -13    1    3    3    0    0  0.32905282020E+02 -0.31647268574E+02  0.10176293543E+03  0.11153475790E+03  0.00000000000E+00 0.  1.
         13    1    3    3    0    0 -0.32905282020E+02  0.31647268574E+02  0.20189748421E+03  0.20699493067E+03  0.00000000000E+00 0. -1.
<mgrwt>
<rscale>  0 0.96184781E+02</rscale>
<asrwt>0</asrwt>
<pdfrwt beam="1">  1        2 0.47860767E-01 0.96184781E+02</pdfrwt>
<pdfrwt beam="2">  1       -2 0.11437902E-02 0.96184781E+02</pdfrwt>
<totfact> 0.15782819E+05</totfact>
</mgrwt>
</event>
<event>
 5    1  0.6085374E+000  0.9223603E+02  0.7546771E-02  0.1297525E+00
         -1   -1    0    0    0  501 -0.00000000000E+00  0.00000000000E+00  0.30901282137E+02  0.30901282137E+02  0.00000000000E+00 0.  1.
          1   -1    0    0  501    0  0.00000000000E+00 -0.00000000000E+00 -0.68827933420E+02  0.68827933420E+02  0.00000000000E+00 0. -1.
         23    2    1    2    0    0  0.00000000000E+00  0.00000000000E+00 -0.37926651284E+02  0.99729215557E+02  0.92236031777E+02 0.  0.
        -13    1    3    3    0    0 -0.33446831103E+02 -0.55919473933E+01 -0.52758079941E+02  0.62716627664E+02  0.00000000000E+00 0. -1.
         13    1    3    3    0    0  0.33446831103E+02  0.55919473933E+01  0.14831428658E+02  0.37012587893E+02  0.00000000000E+00 0.  1.
<mgrwt>
<rscale>  0 0.92236032E+02</rscale>
<asrwt>0</asrwt>
<pdfrwt beam="2">  1        1 0.10588913E-01 0.92236032E+02</pdfrwt>
<pdfrwt beam="1">  1       -1 0.47540434E-02 0.92236032E+02</pdfrwt>
<totfact> 0.95317863E+04</totfact>
</mgrwt>
</event>
<event>
 5    1  0.6085374E+000  0.9278808E+02  0.7546771E-02  0.1296237E+00
         -3   -1    0    0    0  501 -0.00000000000E+00  0.00000000000E+00  0.23016246462E+02  0.23016246462E+02  0.00000000000E+00 0.  1.
          3   -1    0    0  501    0  0.00000000000E+00 -0.00000000000E+00 -0.93516862496E+02  0.93516862496E+02  0.00000000000E+00 0. -1.
         23    2    1    2    0    0  0.00000000000E+00  0.00000000000E+00 -0.70500616034E+02  0.11653310896E+03  0.92788084485E+02 0.  0.
        -13    1    3    3    0    0 -0.40242781243E+01 -0.41320227729E+02 -0.61258514171E+02  0.74001091832E+02  0.00000000000E+00 0. -1.
         13    1    3    3    0    0  0.40242781243E+01  0.41320227729E+02 -0.92421018635E+01  0.42532017126E+02  0.00000000000E+00 0.  1.
<mgrwt>
<rscale>  0 0.92788084E+02</rscale>
<asrwt>0</asrwt>
<pdfrwt beam="2">  1        3 0.14387210E-01 0.92788084E+02</pdfrwt>
<pdfrwt beam="1">  1       -3 0.35409609E-02 0.92788084E+02</pdfrwt>
<totfact> 0.31924932E+04</totfact>
</mgrwt>
</event>
<event>
 5    1  0.6085374E+000  0.9081567E+02  0.7546771E-02  0.1300888E+00
          2   -1    0    0  501    0  0.00000000000E+00  0.00000000000E+00  0.51026732614E+03  0.51026732614E+03  0.00000000000E+00 0. -1.
         -2   -1    0    0    0  501 -0.00000000000E+00 -0.00000000000E+00 -0.40407669074E+01  0.40407669074E+01  0.00000000000E+00 0.  1.
         23    2    1    2    0    0  0.00000000000E+00  0.00000000000E+00  0.50622655923E+03  0.51430809304E+03  0.90815666609E+02 0.  0.
        -13    1    3    3    0    0 -0.37339665022E+02 -0.25827976474E+02  0.24896568877E+03  0.25307162847E+03  0.00000000000E+00 0. -1.
         13    1    3    3    0    0  0.37339665022E+02  0.25827976474E+02  0.25726087046E+03  0.26123646458E+03  0.00000000000E+00 0.  1.
<mgrwt>
<rscale>  0 0.90815667E+02</rscale>
<asrwt>0</asrwt>
<pdfrwt beam="1">  1        2 0.78502615E-01 0.90815667E+02</pdfrwt>
<pdfrwt beam="2">  1       -2 0.62165685E-03 0.90815667E+02</pdfrwt>
<totfact> 0.21920567E+05</totfact>
</mgrwt>
</event>
<event>
 5    1  0.6085374E+000  0.9079409E+02  0.7546771E-02  0.1300940E+00
         -4   -1    0    0    0  501 -0.00000000000E+00  0.00000000000E+00  0.42675476125E+02  0.42675476125E+02  0.00000000000E+00 0.  1.
          4   -1    0    0  501    0  0.00000000000E+00 -0.00000000000E+00 -0.48292181356E+02  0.48292181356E+02  0.00000000000E+00 0. -1.
         23    2    1    2    0    0  0.00000000000E+00  0.00000000000E+00 -0.56167052311E+01  0.90967657482E+02  0.90794093035E+02 0.  0.
        -13    1    3    3    0    0  0.22712884913E+02 -0.53694677204E+01 -0.41821014804E+02  0.47892625778E+02  0.00000000000E+00 0. -1.
         13    1    3    3    0    0 -0.22712884913E+02  0.53694677204E+01  0.36204309573E+02  0.43075031704E+02  0.00000000000E+00 0.  1.
<mgrwt>
<rscale>  0 0.90794093E+02</rscale>
<asrwt>0</asrwt>
<pdfrwt beam="2">  1        4 0.74295663E-02 0.90794093E+02</pdfrwt>
<pdfrwt beam="1">  1       -4 0.65654579E-02 0.90794093E+02</pdfrwt>
<totfact> 0.27339987E+04</totfact>
</mgrwt>
</event>
<event>
 5    1  0.6085374E+000  0.9206390E+02  0.7546771E-02  0.1297929E+00
          3   -1    0    0  501    0  0.00000000000E+00  0.00000000000E+00  0.40393551400E+02  0.40393551400E+02  0.00000000000E+00 0. -1.
         -3   -1    0    0    0  501 -0.00000000000E+00 -0.00000000000E+00 -0.52457395860E+02  0.52457395860E+02  0.00000000000E+00 0.  1.
         23    2    1    2    0    0  0.00000000000E+00  0.00000000000E+00 -0.12063844460E+02  0.92850947260E+02  0.92063902067E+02 0.  0.
        -13    1    3    3    0    0 -0.30244536807E+02  0.52970305173E+01  0.28556305739E+02  0.41931529145E+02  0.00000000000E+00 0. -1.
         13    1    3    3    0    0  0.30244536807E+02 -0.52970305173E+01 -0.40620150199E+02  0.50919418115E+02  0.00000000000E+00 0.  1.
<mgrwt>
<rscale>  0 0.92063902E+02</rscale>
<asrwt>0</asrwt>
<pdfrwt beam="1">  1        3 0.62143926E-02 0.92063902E+02</pdfrwt>
<pdfrwt beam="2">  1       -3 0.80703685E-02 0.92063902E+02</pdfrwt>
<totfact> 0.34292428E+04</totfact>
</mgrwt>
</event>
<event>
 5    1  0.6085374E+000  0.9258556E+02  0.7546771E-02  0.1296708E+00
          4   -1    0    0  501    0  0.00000000000E+00  0.00000000000E+00  0.41520788562E+02  0.41520788562E+02  0.00000000000E+00 0.  1.
         -4   -1    0    0    0  501 -0.00000000000E+00 -0.00000000000E+00 -0.51613213841E+02  0.51613213841E+02  0.00000000000E+00 0. -1.
         23    2    1    2    0    0  0.00000000000E+00  0.00000000000E+00 -0.10092425279E+02  0.93134002403E+02  0.92585556949E+02 0.  0.
        -13    1    3    3    0    0 -0.38834918346E+02 -0.18664614765E+02  0.11980441571E+02  0.44721915294E+02  0.00000000000E+00 0.  1.
         13    1    3    3    0    0  0.38834918346E+02  0.18664614765E+02 -0.22072866850E+02  0.48412087109E+02  0.00000000000E+00 0. -1.
<mgrwt>
<rscale>  0 0.92585557E+02</rscale>
<asrwt>0</asrwt>
<pdfrwt beam="1">  1        4 0.63878136E-02 0.92585557E+02</pdfrwt>
<pdfrwt beam="2">  1       -4 0.79404945E-02 0.92585557E+02</pdfrwt>
<totfact> 0.25791711E+04</totfact>
</mgrwt>
</event>
<event>
 5    1  0.6085374E+000  0.9149754E+02  0.7546771E-02  0.1299265E+00
         -4   -1    0    0    0  501 -0.00000000000E+00  0.00000000000E+00  0.29690260513E+03  0.29690260513E+03  0.00000000000E+00 0. -1.
          4   -1    0    0  501    0  0.00000000000E+00 -0.00000000000E+00 -0.70492806653E+01  0.70492806653E+01  0.00000000000E+00 0.  1.
         23    2    1    2    0    0  0.00000000000E+00  0.00000000000E+00  0.28985332446E+03  0.30395188580E+03  0.91497536444E+02 0.  0.
        -13    1    3    3    0    0  0.10001748106E+02  0.39317753740E+02  0.74690087485E+02  0.84997234619E+02  0.00000000000E+00 0.  1.
         13    1    3    3    0    0 -0.10001748106E+02 -0.39317753740E+02  0.21516323698E+03  0.21895465118E+03  0.00000000000E+00 0. -1.
<mgrwt>
<rscale>  0 0.91497536E+02</rscale>
<asrwt>0</asrwt>
<pdfrwt beam="2">  1        4 0.10845049E-02 0.91497536E+02</pdfrwt>
<pdfrwt beam="1">  1       -4 0.45677314E-01 0.91497536E+02</pdfrwt>
<totfact> 0.17535555E+04</totfact>
</mgrwt>
</event>
<event>
 5    1  0.6085374E+000  0.8525114E+02  0.7546771E-02  0.1314777E+00
          1   -1    0    0  501    0  0.00000000000E+00  0.00000000000E+00  0.81806640186E+02  0.81806640186E+02  0.00000000000E+00 0. -1.
         -1   -1    0    0    0  501 -0.00000000000E+00 -0.00000000000E+00 -0.22210166349E+02  0.22210166349E+02  0.00000000000E+00 0.  1.
         23    2    1    2    0    0  0.00000000000E+00  0.00000000000E+00  0.59596473836E+02  0.10401680654E+03  0.85251136931E+02 0.  0.
        -13    1    3    3    0    0  0.40494971817E+02 -0.32169482413E+01  0.14042703268E+02  0.42981263517E+02  0.00000000000E+00 0.  1.
         13    1    3    3    0    0 -0.40494971817E+02  0.32169482413E+01  0.45553770568E+02  0.61035543018E+02  0.00000000000E+00 0. -1.
<mgrwt>
<rscale>  0 0.85251137E+02</rscale>
<asrwt>0</asrwt>
<pdfrwt beam="1">  1        1 0.12585637E-01 0.85251137E+02</pdfrwt>
<pdfrwt beam="2">  1       -1 0.34169487E-02 0.85251137E+02</pdfrwt>
<totfact> 0.12144390E+05</totfact>
</mgrwt>
</event>
<event>
 5    1  0.6085374E+000  0.9244668E+02  0.7546771E-02  0.1297033E+00
         -2   -1    0    0    0  501 -0.00000000000E+00  0.00000000000E+00  0.15406245410E+02  0.15406245410E+02  0.00000000000E+00 0.  1.
          2   -1    0    0  501    0  0.00000000000E+00 -0.00000000000E+00 -0.13868384155E+03  0.13868384155E+03  0.00000000000E+00 0. -1.
         23    2    1    2    0    0  0.00000000000E+00  0.00000000000E+00 -0.12327759614E+03  0.15409008696E+03  0.92446682953E+02 0.  0.
        -13    1    3    3    0    0  0.35354623689E+02 -0.27005607990E+02 -0.82546671664E+02  0.93772092233E+02  0.00000000000E+00 0. -1.
         13    1    3    3    0    0 -0.35354623689E+02  0.27005607990E+02 -0.40730924475E+02  0.60317994725E+02  0.00000000000E+00 0.  1.
<mgrwt>
<rscale>  0 0.92446683E+02</rscale>
<asrwt>0</asrwt>
<pdfrwt beam="2">  1        2 0.21335976E-01 0.92446683E+02</pdfrwt>
<pdfrwt beam="1">  1       -2 0.23701915E-02 0.92446683E+02</pdfrwt>
<totfact> 0.13112551E+05</totfact>
</mgrwt>
</event>
<event>
 5    1  0.6085374E+000  0.9055325E+02  0.7546771E-02  0.1301517E+00
         -4   -1    0    0    0  501 -0.00000000000E+00  0.00000000000E+00  0.22985439037E+03  0.22985439037E+03  0.00000000000E+00 0.  1.
          4   -1    0    0  501    0  0.00000000000E+00 -0.00000000000E+00 -0.89185721140E+01  0.89185721140E+01  0.00000000000E+00 0. -1.
         23    2    1    2    0    0  0.00000000000E+00  0.00000000000E+00  0.22093581825E+03  0.23877296248E+03  0.90553254082E+02 0.  0.
        -13    1    3    3    0    0  0.14830263951E+02 -0.34864859206E+02  0.17583124247E+03  0.17986695351E+03  0.00000000000E+00 0.  1.
         13    1    3    3    0    0 -0.14830263951E+02  0.34864859206E+02  0.45104575780E+02  0.58906008968E+02  0.00000000000E+00 0. -1.
<mgrwt>
<rscale>  0 0.90553254E+02</rscale>
<asrwt>0</asrwt>
<pdfrwt beam="2">  1        4 0.13720882E-02 0.90553254E+02</pdfrwt>
<pdfrwt beam="1">  1       -4 0.35362209E-01 0.90553254E+02</pdfrwt>
<totfact> 0.20235196E+04</totfact>
</mgrwt>
</event>
<event>
 5    1  0.6085374E+000  0.9219417E+02  0.7546771E-02  0.1297624E+00
         -2   -1    0    0    0  501 -0.00000000000E+00  0.00000000000E+00  0.91076519603E+01  0.91076519603E+01  0.00000000000E+00 0.  1.
          2   -1    0    0  501    0  0.00000000000E+00 -0.00000000000E+00 -0.23331386399E+03  0.23331386399E+03  0.00000000000E+00 0. -1.
         23    2    1    2    0    0  0.00000000000E+00  0.00000000000E+00 -0.22420621203E+03  0.24242151595E+03  0.92194174885E+02 0.  0.
        -13    1    3    3    0    0 -0.57341947345E+01 -0.45729340607E+02 -0.10962541556E+03  0.11891923864E+03  0.00000000000E+00 0.  1.
         13    1    3    3    0    0  0.57341947345E+01  0.45729340607E+02 -0.11458079646E+03  0.12350227731E+03  0.00000000000E+00 0. -1.
<mgrwt>
<rscale>  0 0.92194175E+02</rscale>
<asrwt>0</asrwt>
<pdfrwt beam="2">  1        2 0.35894444E-01 0.92194175E+02</pdfrwt>
<pdfrwt beam="1">  1       -2 0.14011771E-02 0.92194175E+02</pdfrwt>
<totfact> 0.15882873E+05</totfact>
</mgrwt>
</event>
<event>
 5    1  0.6085374E+000  0.9100054E+02  0.7546771E-02  0.1300447E+00
          2   -1    0    0  501    0  0.00000000000E+00  0.00000000000E+00  0.53639361505E+02  0.53639361505E+02  0.00000000000E+00 0. -1.
         -2   -1    0    0    0  501 -0.00000000000E+00 -0.00000000000E+00 -0.38596183378E+02  0.38596183378E+02  0.00000000000E+00 0.  1.
         23    2    1    2    0    0  0.00000000000E+00  0.00000000000E+00  0.15043178127E+02  0.92235544884E+02  0.91000541382E+02 0.  0.
        -13    1    3    3    0    0  0.10322406334E+02  0.19130359304E+02 -0.32992773923E+02  0.39510072776E+02  0.00000000000E+00 0.  1.
         13    1    3    3    0    0 -0.10322406334E+02 -0.19130359304E+02  0.48035952050E+02  0.52725472108E+02  0.00000000000E+00 0. -1.
<mgrwt>
<rscale>  0 0.91000541E+02</rscale>
<asrwt>0</asrwt>
<pdfrwt beam="1">  1        2 0.82522095E-02 0.91000541E+02</pdfrwt>
<pdfrwt beam="2">  1       -2 0.59378744E-02 0.91000541E+02</pdfrwt>
<totfact> 0.10352549E+05</totfact>
</mgrwt>
</event>
<event>
 5    1  0.6085374E+000  0.9449506E+02  0.7546771E-02  0.1292317E+00
          4   -1    0    0  501    0  0.00000000000E+00  0.00000000000E+00  0.59164003920E+01  0.59164003920E+01  0.00000000000E+00 0. -1.
         -4   -1    0    0    0  501 -0.00000000000E+00 -0.00000000000E+00 -0.37731202987E+03  0.37731202987E+03  0.00000000000E+00 0.  1.
         23    2    1    2    0    0  0.00000000000E+00  0.00000000000E+00 -0.37139562948E+03  0.38322843026E+03  0.94495058949E+02 0.  0.
        -13    1    3    3    0    0 -0.35521776138E+02  0.31129822964E+02 -0.18078645162E+03  0.18685449833E+03  0.00000000000E+00 0.  1.
         13    1    3    3    0    0  0.35521776138E+02 -0.31129822964E+02 -0.19060917786E+03  0.19637393193E+03  0.00000000000E+00 0. -1.
<mgrwt>
<rscale>  0 0.94495059E+02</rscale>
<asrwt>0</asrwt>
<pdfrwt beam="1">  1        4 0.91021512E-03 0.94495059E+02</pdfrwt>
<pdfrwt beam="2">  1       -4 0.58048025E-01 0.94495059E+02</pdfrwt>
<totfact> 0.14141280E+04</totfact>
</mgrwt>
</event>
<event>
 5    1  0.6085374E+000  0.9255618E+02  0.7546771E-02  0.1296777E+00
          4   -1    0    0  501    0  0.00000000000E+00  0.00000000000E+00  0.40107449982E+02  0.40107449982E+02  0.00000000000E+00 0. -1.
         -4   -1    0    0    0  501 -0.00000000000E+00 -0.00000000000E+00 -0.53398104924E+02  0.53398104924E+02  0.00000000000E+00 0.  1.
         23    2    1    2    0    0  0.00000000000E+00  0.00000000000E+00 -0.13290654942E+02  0.93505554905E+02  0.92556184501E+02 0.  0.
        -13    1    3    3    0    0 -0.33781101783E+02  0.73134647058E+01 -0.37734542734E+02  0.51171723823E+02  0.00000000000E+00 0.  1.
         13    1    3    3    0    0  0.33781101783E+02 -0.73134647058E+01  0.24443887793E+02  0.42333831082E+02  0.00000000000E+00 0. -1.
<mgrwt>
<rscale>  0 0.92556185E+02</rscale>
<asrwt>0</asrwt>
<pdfrwt beam="1">  1        4 0.61703770E-02 0.92556185E+02</pdfrwt>
<pdfrwt beam="2">  1       -4 0.82150930E-02 0.92556185E+02</pdfrwt>
<totfact> 0.25791533E+04</totfact>
</mgrwt>
</event>
<event>
 5    1  0.6085374E+000  0.8922960E+02  0.7546771E-02  0.1304728E+00
          1   -1    0    0  501    0  0.00000000000E+00  0.00000000000E+00  0.12236505934E+03  0.12236505934E+03  0.00000000000E+00 0. -1.
         -1   -1    0    0    0  501 -0.00000000000E+00 -0.00000000000E+00 -0.16266737777E+02  0.16266737777E+02  0.00000000000E+00 0.  1.
         23    2    1    2    0    0  0.00000000000E+00  0.00000000000E+00  0.10609832156E+03  0.13863179712E+03  0.89229598975E+02 0.  0.
        -13    1    3    3    0    0  0.16148251363E+02 -0.39706032121E+02  0.33822415041E+02  0.54601197496E+02  0.00000000000E+00 0.  1.
         13    1    3    3    0    0 -0.16148251363E+02  0.39706032121E+02  0.72275906524E+02  0.84030599621E+02  0.00000000000E+00 0. -1.
<mgrwt>
<rscale>  0 0.89229599E+02</rscale>
<asrwt>0</asrwt>
<pdfrwt beam="1">  1        1 0.18825393E-01 0.89229599E+02</pdfrwt>
<pdfrwt beam="2">  1       -1 0.25025751E-02 0.89229599E+02</pdfrwt>
<totfact> 0.11460717E+05</totfact>
</mgrwt>
</event>
<event>
 5    1  0.6085374E+000  0.9136554E+02  0.7546771E-02  0.1299578E+00
         -4   -1    0    0    0  501 -0.00000000000E+00  0.00000000000E+00  0.23905369673E+03  0.23905369673E+03  0.00000000000E+00 0.  1.
          4   -1    0    0  501    0  0.00000000000E+00 -0.00000000000E+00 -0.87299032830E+01  0.87299032830E+01  0.00000000000E+00 0. -1.
         23    2    1    2    0    0  0.00000000000E+00  0.00000000000E+00  0.23032379345E+03  0.24778360002E+03  0.91365543876E+02 0.  0.
        -13    1    3    3    0    0  0.50777444919E+01  0.45277605454E+02  0.10613837986E+03  0.11550411562E+03  0.00000000000E+00 0. -1.
         13    1    3    3    0    0 -0.50777444919E+01 -0.45277605454E+02  0.12418541359E+03  0.13227948440E+03  0.00000000000E+00 0.  1.
<mgrwt>
<rscale>  0 0.91365544E+02</rscale>
<asrwt>0</asrwt>
<pdfrwt beam="2">  1        4 0.13430622E-02 0.91365544E+02</pdfrwt>
<pdfrwt beam="1">  1       -4 0.36777487E-01 0.91365544E+02</pdfrwt>
<totfact> 0.19434834E+04</totfact>
</mgrwt>
</event>
<event>
 5    1  0.6085374E+000  0.9173488E+02  0.7546771E-02  0.1298704E+00
          4   -1    0    0  501    0  0.00000000000E+00  0.00000000000E+00  0.83902230949E+01  0.83902230949E+01  0.00000000000E+00 0. -1.
         -4   -1    0    0    0  501 -0.00000000000E+00 -0.00000000000E+00 -0.25074686191E+03  0.25074686191E+03  0.00000000000E+00 0.  1.
         23    2    1    2    0    0  0.00000000000E+00  0.00000000000E+00 -0.24235663882E+03  0.25913708501E+03  0.91734881301E+02 0.  0.
        -13    1    3    3    0    0 -0.12826462372E+02  0.35487713972E+02 -0.19483733870E+03  0.19845776510E+03  0.00000000000E+00 0.  1.
         13    1    3    3    0    0  0.12826462372E+02 -0.35487713972E+02 -0.47519300123E+02  0.60679319905E+02  0.00000000000E+00 0. -1.
<mgrwt>
<rscale>  0 0.91734881E+02</rscale>
<asrwt>0</asrwt>
<pdfrwt beam="1">  1        4 0.12908036E-02 0.91734881E+02</pdfrwt>
<pdfrwt beam="2">  1       -4 0.38576439E-01 0.91734881E+02</pdfrwt>
<totfact> 0.18835147E+04</totfact>
</mgrwt>
</event>
<event>
 5    1  0.6085374E+000  0.8818718E+02  0.7546771E-02  0.1307302E+00
          1   -1    0    0  501    0  0.00000000000E+00  0.00000000000E+00  0.18554871885E+03  0.18554871885E+03  0.00000000000E+00 0. -1.
         -1   -1    0    0    0  501 -0.00000000000E+00 -0.00000000000E+00 -0.10478351018E+02  0.10478351018E+02  0.00000000000E+00 0.  1.
         23    2    1    2    0    0  0.00000000000E+00  0.00000000000E+00  0.17507036783E+03  0.19602706986E+03  0.88187178364E+02 0.  0.
        -13    1    3    3    0    0 -0.64130098869E+01  0.43345463578E+02  0.98490192485E+02  0.10779737438E+03  0.00000000000E+00 0.  1.
         13    1    3    3    0    0  0.64130098869E+01 -0.43345463578E+02  0.76580175345E+02  0.88229695480E+02  0.00000000000E+00 0. -1.
<mgrwt>
<rscale>  0 0.88187178E+02</rscale>
<asrwt>0</asrwt>
<pdfrwt beam="1">  1        1 0.28545954E-01 0.88187178E+02</pdfrwt>
<pdfrwt beam="2">  1       -1 0.16120541E-02 0.88187178E+02</pdfrwt>
<totfact> 0.12760579E+05</totfact>
</mgrwt>
</event>
<event>
 5    1  0.6085374E+000  0.8203219E+02  0.7546771E-02  0.1323381E+00
          1   -1    0    0  501    0  0.00000000000E+00  0.00000000000E+00  0.16718810021E+03  0.16718810021E+03  0.00000000000E+00 0. -1.
         -1   -1    0    0    0  501 -0.00000000000E+00 -0.00000000000E+00 -0.10062438972E+02  0.10062438972E+02  0.00000000000E+00 0.  1.
         23    2    1    2    0    0  0.00000000000E+00  0.00000000000E+00  0.15712566124E+03  0.17725053918E+03  0.82032190149E+02 0.  0.
        -13    1    3    3    0    0 -0.29012487017E+02 -0.41585796795E+01  0.14056156276E+03  0.14358471755E+03  0.00000000000E+00 0. -1.
         13    1    3    3    0    0  0.29012487017E+02  0.41585796795E+01  0.16564098478E+02  0.33665821634E+02  0.00000000000E+00 0.  1.
<mgrwt>
<rscale>  0 0.82032190E+02</rscale>
<asrwt>0</asrwt>
<pdfrwt beam="1">  1        1 0.25721244E-01 0.82032190E+02</pdfrwt>
<pdfrwt beam="2">  1       -1 0.15480677E-02 0.82032190E+02</pdfrwt>
<totfact> 0.15177725E+05</totfact>
</mgrwt>
</event>
<event>
 5    1  0.6085374E+000  0.9132150E+02  0.7546771E-02  0.1299683E+00
         -2   -1    0    0    0  501 -0.00000000000E+00  0.00000000000E+00  0.67648386069E+01  0.67648386069E+01  0.00000000000E+00 0.  1.
          2   -1    0    0  501    0  0.00000000000E+00 -0.00000000000E+00 -0.30819716505E+03  0.30819716505E+03  0.00000000000E+00 0. -1.
         23    2    1    2    0    0  0.00000000000E+00  0.00000000000E+00 -0.30143232644E+03  0.31496200366E+03  0.91321499783E+02 0.  0.
        -13    1    3    3    0    0 -0.23725452557E+02 -0.35830153825E+02 -0.97485430731E+02  0.10653687731E+03  0.00000000000E+00 0.  1.
         13    1    3    3    0    0  0.23725452557E+02  0.35830153825E+02 -0.20394689571E+03  0.20842512635E+03  0.00000000000E+00 0. -1.
<mgrwt>
<rscale>  0 0.91321500E+02</rscale>
<asrwt>0</asrwt>
<pdfrwt beam="2">  1        2 0.47414956E-01 0.91321500E+02</pdfrwt>
<pdfrwt beam="1">  1       -2 0.10407442E-02 0.91321500E+02</pdfrwt>
<totfact> 0.18070502E+05</totfact>
</mgrwt>
</event>
<event>
 5    1  0.6085374E+000  0.9370718E+02  0.7546771E-02  0.1294115E+00
          1   -1    0    0  501    0  0.00000000000E+00  0.00000000000E+00  0.13616294663E+02  0.13616294663E+02  0.00000000000E+00 0. -1.
         -1   -1    0    0    0  501 -0.00000000000E+00 -0.00000000000E+00 -0.16122293664E+03  0.16122293664E+03  0.00000000000E+00 0.  1.
         23    2    1    2    0    0  0.00000000000E+00  0.00000000000E+00 -0.14760664198E+03  0.17483923130E+03  0.93707182474E+02 0.  0.
        -13    1    3    3    0    0 -0.24173403647E+02  0.32153454895E+02 -0.11862383524E+03  0.12525898129E+03  0.00000000000E+00 0.  1.
         13    1    3    3    0    0  0.24173403647E+02 -0.32153454895E+02 -0.28982806737E+02  0.49580250019E+02  0.00000000000E+00 0. -1.
<mgrwt>
<rscale>  0 0.93707182E+02</rscale>
<asrwt>0</asrwt>
<pdfrwt beam="1">  1        1 0.20948145E-02 0.93707182E+02</pdfrwt>
<pdfrwt beam="2">  1       -1 0.24803530E-01 0.93707182E+02</pdfrwt>
<totfact> 0.68451969E+04</totfact>
</mgrwt>
</event>
<event>
 5    1  0.6085374E+000  0.9080081E+02  0.7546771E-02  0.1300924E+00
          1   -1    0    0  501    0  0.00000000000E+00  0.00000000000E+00  0.17635345225E+03  0.17635345225E+03  0.00000000000E+00 0. -1.
         -1   -1    0    0    0  501 -0.00000000000E+00 -0.00000000000E+00 -0.11687873134E+02  0.11687873134E+02  0.00000000000E+00 0.  1.
         23    2    1    2    0    0  0.00000000000E+00  0.00000000000E+00  0.16466557912E+03  0.18804132539E+03  0.90800810053E+02 0.  0.
        -13    1    3    3    0    0 -0.25408195215E+02 -0.77180023968E+01  0.60718967183E+01  0.27239894912E+02  0.00000000000E+00 0.  1.
         13    1    3    3    0    0  0.25408195215E+02  0.77180023968E+01  0.15859368240E+03  0.16080143047E+03  0.00000000000E+00 0. -1.
<mgrwt>
<rscale>  0 0.90800810E+02</rscale>
<asrwt>0</asrwt>
<pdfrwt beam="1">  1        1 0.27131298E-01 0.90800810E+02</pdfrwt>
<pdfrwt beam="2">  1       -1 0.17981345E-02 0.90800810E+02</pdfrwt>
<totfact> 0.11686445E+05</totfact>
</mgrwt>
</event>
<event>
 5    1  0.6085374E+000  0.9099068E+02  0.7546771E-02  0.1300470E+00
          1   -1    0    0  501    0  0.00000000000E+00  0.00000000000E+00  0.46252367954E+03  0.46252367954E+03  0.00000000000E+00 0. -1.
         -1   -1    0    0    0  501 -0.00000000000E+00 -0.00000000000E+00 -0.44750701025E+01  0.44750701025E+01  0.00000000000E+00 0.  1.
         23    2    1    2    0    0  0.00000000000E+00  0.00000000000E+00  0.45804860944E+03  0.46699874964E+03  0.90990678424E+02 0.  0.
        -13    1    3    3    0    0 -0.97497883327E+00  0.44916324366E+02  0.19222864267E+03  0.19740891024E+03  0.00000000000E+00 0. -1.
         13    1    3    3    0    0  0.97497883327E+00 -0.44916324366E+02  0.26581996677E+03  0.26958983940E+03  0.00000000000E+00 0.  1.
<mgrwt>
<rscale>  0 0.90990678E+02</rscale>
<asrwt>0</asrwt>
<pdfrwt beam="1">  1        1 0.71157452E-01 0.90990678E+02</pdfrwt>
<pdfrwt beam="2">  1       -1 0.68847269E-03 0.90990678E+02</pdfrwt>
<totfact> 0.13863528E+05</totfact>
</mgrwt>
</event>
<event>
 5    1  0.6085374E+000  0.9058550E+02  0.7546771E-02  0.1301440E+00
         -4   -1    0    0    0  501 -0.00000000000E+00  0.00000000000E+00  0.32871238054E+02  0.32871238054E+02  0.00000000000E+00 0. -1.
          4   -1    0    0  501    0  0.00000000000E+00 -0.00000000000E+00 -0.62408147697E+02  0.62408147697E+02  0.00000000000E+00 0.  1.
         23    2    1    2    0    0  0.00000000000E+00  0.00000000000E+00 -0.29536909643E+02  0.95279385751E+02  0.90585497282E+02 0.  0.
        -13    1    3    3    0    0 -0.13949613851E+02 -0.41825907657E+02 -0.25670620281E+02  0.51019398502E+02  0.00000000000E+00 0. -1.
         13    1    3    3    0    0  0.13949613851E+02  0.41825907657E+02 -0.38662893625E+01  0.44259987249E+02  0.00000000000E+00 0.  1.
<mgrwt>
<rscale>  0 0.90585497E+02</rscale>
<asrwt>0</asrwt>
<pdfrwt beam="2">  1        4 0.96012534E-02 0.90585497E+02</pdfrwt>
<pdfrwt beam="1">  1       -4 0.50571136E-02 0.90585497E+02</pdfrwt>
<totfact> 0.27229584E+04</totfact>
</mgrwt>
</event>
<event>
 5    1  0.6085374E+000  0.9029470E+02  0.7546771E-02  0.1302140E+00
         -1   -1    0    0    0  501 -0.00000000000E+00  0.00000000000E+00  0.60775088517E+02  0.60775088517E+02  0.00000000000E+00 0.  1.
          1   -1    0    0  501    0  0.00000000000E+00 -0.00000000000E+00 -0.33538134919E+02  0.33538134919E+02  0.00000000000E+00 0. -1.
         23    2    1    2    0    0  0.00000000000E+00  0.00000000000E+00  0.27236953598E+02  0.94313223436E+02  0.90294697927E+02 0.  0.
        -13    1    3    3    0    0  0.27808106943E+01 -0.38891609973E+02  0.37390833370E+02  0.54021890512E+02  0.00000000000E+00 0.  1.
         13    1    3    3    0    0 -0.27808106943E+01  0.38891609973E+02 -0.10153879772E+02  0.40291332924E+02  0.00000000000E+00 0. -1.
<mgrwt>
<rscale>  0 0.90294698E+02</rscale>
<asrwt>0</asrwt>
<pdfrwt beam="2">  1        1 0.51597131E-02 0.90294698E+02</pdfrwt>
<pdfrwt beam="1">  1       -1 0.93500136E-02 0.90294698E+02</pdfrwt>
<totfact> 0.90711185E+04</totfact>
</mgrwt>
</event>
<event>
 5    1  0.6085374E+000  0.8926026E+02  0.7546771E-02  0.1304653E+00
         -1   -1    0    0    0  501 -0.00000000000E+00  0.00000000000E+00  0.37960104596E+03  0.37960104596E+03  0.00000000000E+00 0.  1.
          1   -1    0    0  501    0  0.00000000000E+00 -0.00000000000E+00 -0.52472159581E+01  0.52472159581E+01  0.00000000000E+00 0. -1.
         23    2    1    2    0    0  0.00000000000E+00  0.00000000000E+00  0.37435383000E+03  0.38484826192E+03  0.89260263636E+02 0.  0.
        -13    1    3    3    0    0 -0.49787577694E+01 -0.44343586288E+02  0.18355165888E+03  0.18889773199E+03  0.00000000000E+00 0.  1.
         13    1    3    3    0    0  0.49787577694E+01  0.44343586288E+02  0.19080217113E+03  0.19595052993E+03  0.00000000000E+00 0. -1.
<mgrwt>
<rscale>  0 0.89260264E+02</rscale>
<asrwt>0</asrwt>
<pdfrwt beam="2">  1        1 0.80726429E-03 0.89260264E+02</pdfrwt>
<pdfrwt beam="1">  1       -1 0.58400139E-01 0.89260264E+02</pdfrwt>
<totfact> 0.57810118E+04</totfact>
</mgrwt>
</event>
<event>
 5    1  0.6085374E+000  0.9146693E+02  0.7546771E-02  0.1299338E+00
         -2   -1    0    0    0  501 -0.00000000000E+00  0.00000000000E+00  0.11918461324E+02  0.11918461324E+02  0.00000000000E+00 0.  1.
          2   -1    0    0  501    0  0.00000000000E+00 -0.00000000000E+00 -0.17548825855E+03  0.17548825855E+03  0.00000000000E+00 0. -1.
         23    2    1    2    0    0  0.00000000000E+00  0.00000000000E+00 -0.16356979722E+03  0.18740671987E+03  0.91466934402E+02 0.  0.
        -13    1    3    3    0    0 -0.34589495433E+02 -0.11921250254E+02 -0.13800850544E+03  0.14277568762E+03  0.00000000000E+00 0. -1.
         13    1    3    3    0    0  0.34589495433E+02  0.11921250254E+02 -0.25561291780E+02  0.44631032247E+02  0.00000000000E+00 0.  1.
<mgrwt>
<rscale>  0 0.91466934E+02</rscale>
<asrwt>0</asrwt>
<pdfrwt beam="2">  1        2 0.26998193E-01 0.91466934E+02</pdfrwt>
<pdfrwt beam="1">  1       -2 0.18336095E-02 0.91466934E+02</pdfrwt>
<totfact> 0.14635202E+05</totfact>
</mgrwt>
</event>
<event>
 5    1  0.6085374E+000  0.1038521E+03  0.7546771E-02  0.1272398E+00
         -2   -1    0    0    0  501 -0.00000000000E+00  0.00000000000E+00  0.26504966417E+02  0.26504966417E+02  0.00000000000E+00 0.  1.
          2   -1    0    0  501    0  0.00000000000E+00 -0.00000000000E+00 -0.10172873762E+03  0.10172873762E+03  0.00000000000E+00 0. -1.
         23    2    1    2    0    0  0.00000000000E+00  0.00000000000E+00 -0.75223771206E+02  0.12823370404E+03  0.10385214055E+03 0.  0.
        -13    1    3    3    0    0  0.44362954732E+01  0.40164757202E+02  0.26543331622E+01  0.40496097629E+02  0.00000000000E+00 0. -1.
         13    1    3    3    0    0 -0.44362954732E+01 -0.40164757202E+02 -0.77878104368E+02  0.87737606410E+02  0.00000000000E+00 0.  1.
<mgrwt>
<rscale>  0 0.10385214E+03</rscale>
<asrwt>0</asrwt>
<pdfrwt beam="2">  1        2 0.15650575E-01 0.10385214E+03</pdfrwt>
<pdfrwt beam="1">  1       -2 0.40776872E-02 0.10385214E+03</pdfrwt>
<totfact> 0.85881413E+04</totfact>
</mgrwt>
</event>
<event>
 5    1  0.6085374E+000  0.9150544E+02  0.7546771E-02  0.1299246E+00
          4   -1    0    0  501    0  0.00000000000E+00  0.00000000000E+00  0.12563476671E+03  0.12563476671E+03  0.00000000000E+00 0.  1.
         -4   -1    0    0    0  501 -0.00000000000E+00 -0.00000000000E+00 -0.16661880473E+02  0.16661880473E+02  0.00000000000E+00 0. -1.
         23    2    1    2    0    0  0.00000000000E+00  0.00000000000E+00  0.10897288624E+03  0.14229664718E+03  0.91505441722E+02 0.  0.
        -13    1    3    3    0    0 -0.12537655104E+02  0.22937292964E+02  0.11287895909E+03  0.11586617974E+03  0.00000000000E+00 0.  1.
         13    1    3    3    0    0  0.12537655104E+02 -0.22937292964E+02 -0.39060728472E+01  0.26430467440E+02  0.00000000000E+00 0. -1.
<mgrwt>
<rscale>  0 0.91505442E+02</rscale>
<asrwt>0</asrwt>
<pdfrwt beam="1">  1        4 0.19328425E-01 0.91505442E+02</pdfrwt>
<pdfrwt beam="2">  1       -4 0.25633663E-02 0.91505442E+02</pdfrwt>
<totfact> 0.23833263E+04</totfact>
</mgrwt>
</event>
<event>
 5    1  0.6085374E+000  0.9228233E+02  0.7546771E-02  0.1297417E+00
         -3   -1    0    0    0  501 -0.00000000000E+00  0.00000000000E+00  0.24507510530E+02  0.24507510530E+02  0.00000000000E+00 0.  1.
          3   -1    0    0  501    0  0.00000000000E+00 -0.00000000000E+00 -0.86871625668E+02  0.86871625668E+02  0.00000000000E+00 0. -1.
         23    2    1    2    0    0  0.00000000000E+00  0.00000000000E+00 -0.62364115138E+02  0.11137913620E+03  0.92282333755E+02 0.  0.
        -13    1    3    3    0    0 -0.44417252400E+02  0.31935210479E+01 -0.45761379292E+02  0.63852914751E+02  0.00000000000E+00 0. -1.
         13    1    3    3    0    0  0.44417252400E+02 -0.31935210479E+01 -0.16602735846E+02  0.47526221447E+02  0.00000000000E+00 0.  1.
<mgrwt>
<rscale>  0 0.92282334E+02</rscale>
<asrwt>0</asrwt>
<pdfrwt beam="2">  1        3 0.13364865E-01 0.92282334E+02</pdfrwt>
<pdfrwt beam="1">  1       -3 0.37703862E-02 0.92282334E+02</pdfrwt>
<totfact> 0.32753437E+04</totfact>
</mgrwt>
</event>
<event>
 5    1  0.6085374E+000  0.9114999E+02  0.7546771E-02  0.1300090E+00
         -1   -1    0    0    0  501 -0.00000000000E+00  0.00000000000E+00  0.12272397909E+03  0.12272397909E+03  0.00000000000E+00 0.  1.
          1   -1    0    0  501    0  0.00000000000E+00 -0.00000000000E+00 -0.16924811484E+02  0.16924811484E+02  0.00000000000E+00 0. -1.
         23    2    1    2    0    0  0.00000000000E+00  0.00000000000E+00  0.10579916760E+03  0.13964879057E+03  0.91149990907E+02 0.  0.
        -13    1    3    3    0    0 -0.42101194299E+02  0.15502649551E+02  0.40620247751E+02  0.60521460920E+02  0.00000000000E+00 0. -1.
         13    1    3    3    0    0  0.42101194299E+02 -0.15502649551E+02  0.65178919853E+02  0.79127329652E+02  0.00000000000E+00 0.  1.
<mgrwt>
<rscale>  0 0.91149991E+02</rscale>
<asrwt>0</asrwt>
<pdfrwt beam="2">  1        1 0.26038172E-02 0.91149991E+02</pdfrwt>
<pdfrwt beam="1">  1       -1 0.18880612E-01 0.91149991E+02</pdfrwt>
<totfact> 0.78228219E+04</totfact>
</mgrwt>
</event>
<event>
 5    1  0.6085374E+000  0.9103501E+02  0.7546771E-02  0.1300364E+00
          2   -1    0    0  501    0  0.00000000000E+00  0.00000000000E+00  0.24040049248E+03  0.24040049248E+03  0.00000000000E+00 0. -1.
         -2   -1    0    0    0  501 -0.00000000000E+00 -0.00000000000E+00 -0.86182993513E+01  0.86182993513E+01  0.00000000000E+00 0.  1.
         23    2    1    2    0    0  0.00000000000E+00  0.00000000000E+00  0.23178219313E+03  0.24901879183E+03  0.91035013228E+02 0.  0.
        -13    1    3    3    0    0 -0.29957308369E+02 -0.22780608247E+02  0.18592243758E+03  0.18969330308E+03  0.00000000000E+00 0. -1.
         13    1    3    3    0    0  0.29957308369E+02  0.22780608247E+02  0.45859755547E+02  0.59325488752E+02  0.00000000000E+00 0.  1.
<mgrwt>
<rscale>  0 0.91035013E+02</rscale>
<asrwt>0</asrwt>
<pdfrwt beam="1">  1        2 0.36984686E-01 0.91035013E+02</pdfrwt>
<pdfrwt beam="2">  1       -2 0.13258924E-02 0.91035013E+02</pdfrwt>
<totfact> 0.16614093E+05</totfact>
</mgrwt>
</event>
<event>
 5    1  0.6085374E+000  0.9144814E+02  0.7546771E-02  0.1299382E+00
         -2   -1    0    0    0  501 -0.00000000000E+00  0.00000000000E+00  0.28205502798E+02  0.28205502798E+02  0.00000000000E+00 0.  1.
          2   -1    0    0  501    0  0.00000000000E+00 -0.00000000000E+00 -0.74123500055E+02  0.74123500055E+02  0.00000000000E+00 0. -1.
         23    2    1    2    0    0  0.00000000000E+00  0.00000000000E+00 -0.45917997257E+02  0.10232900285E+03  0.91448140238E+02 0.  0.
        -13    1    3    3    0    0  0.36722062308E+02  0.23713361520E+02 -0.79522089911E+01  0.44430518820E+02  0.00000000000E+00 0.  1.
         13    1    3    3    0    0 -0.36722062308E+02 -0.23713361520E+02 -0.37965788266E+02  0.57898484034E+02  0.00000000000E+00 0. -1.
<mgrwt>
<rscale>  0 0.91448140E+02</rscale>
<asrwt>0</asrwt>
<pdfrwt beam="2">  1        2 0.11403615E-01 0.91448140E+02</pdfrwt>
<pdfrwt beam="1">  1       -2 0.43393081E-02 0.91448140E+02</pdfrwt>
<totfact> 0.11147066E+05</totfact>
</mgrwt>
</event>
<event>
 5    1  0.6085374E+000  0.9418912E+02  0.7546771E-02  0.1293013E+00
         -1   -1    0    0    0  501 -0.00000000000E+00  0.00000000000E+00  0.19382506324E+03  0.19382506324E+03  0.00000000000E+00 0.  1.
          1   -1    0    0  501    0  0.00000000000E+00 -0.00000000000E+00 -0.11442779410E+02  0.11442779410E+02  0.00000000000E+00 0. -1.
         23    2    1    2    0    0  0.00000000000E+00  0.00000000000E+00  0.18238228383E+03  0.20526784265E+03  0.94189117051E+02 0.  0.
        -13    1    3    3    0    0 -0.17353644483E+02 -0.31619540697E+02  0.15718351662E+03  0.16126872675E+03  0.00000000000E+00 0.  1.
         13    1    3    3    0    0  0.17353644483E+02  0.31619540697E+02  0.25198767202E+02  0.43999115892E+02  0.00000000000E+00 0. -1.
<mgrwt>
<rscale>  0 0.94189117E+02</rscale>
<asrwt>0</asrwt>
<pdfrwt beam="2">  1        1 0.17604277E-02 0.94189117E+02</pdfrwt>
<pdfrwt beam="1">  1       -1 0.29819238E-01 0.94189117E+02</pdfrwt>
<totfact> 0.64348479E+04</totfact>
</mgrwt>
</event>
<event>
 5    1  0.6085374E+000  0.9153328E+02  0.7546771E-02  0.1299181E+00
          2   -1    0    0  501    0  0.00000000000E+00  0.00000000000E+00  0.44934541777E+02  0.44934541777E+02  0.00000000000E+00 0.  1.
         -2   -1    0    0    0  501 -0.00000000000E+00 -0.00000000000E+00 -0.46614143563E+02  0.46614143563E+02  0.00000000000E+00 0. -1.
         23    2    1    2    0    0  0.00000000000E+00  0.00000000000E+00 -0.16796017856E+01  0.91548685340E+02  0.91533276601E+02 0.  0.
        -13    1    3    3    0    0 -0.14776664548E+02 -0.42881608025E+02 -0.69566344924E+01  0.45886565413E+02  0.00000000000E+00 0.  1.
         13    1    3    3    0    0  0.14776664548E+02  0.42881608025E+02  0.52770327069E+01  0.45662119926E+02  0.00000000000E+00 0. -1.
<mgrwt>
<rscale>  0 0.91533277E+02</rscale>
<asrwt>0</asrwt>
<pdfrwt beam="1">  1        2 0.69130064E-02 0.91533277E+02</pdfrwt>
<pdfrwt beam="2">  1       -2 0.71714067E-02 0.91533277E+02</pdfrwt>
<totfact> 0.97208269E+04</totfact>
</mgrwt>
</event>
<event>
 5    1  0.6085374E+000  0.9112659E+02  0.7546771E-02  0.1300146E+00
         -1   -1    0    0    0  501 -0.00000000000E+00  0.00000000000E+00  0.34368585841E+02  0.34368585841E+02  0.00000000000E+00 0.  1.
          1   -1    0    0  501    0  0.00000000000E+00 -0.00000000000E+00 -0.60404406698E+02  0.60404406698E+02  0.00000000000E+00 0. -1.
         23    2    1    2    0    0  0.00000000000E+00  0.00000000000E+00 -0.26035820857E+02  0.94772992539E+02  0.91126594072E+02 0.  0.
        -13    1    3    3    0    0 -0.84043485392E+00  0.21449642652E+02  0.28780076846E+02  0.35903848316E+02  0.00000000000E+00 0.  1.
         13    1    3    3    0    0  0.84043485392E+00 -0.21449642652E+02 -0.54815897703E+02  0.58869144223E+02  0.00000000000E+00 0. -1.
<mgrwt>
<rscale>  0 0.91126594E+02</rscale>
<asrwt>0</asrwt>
<pdfrwt beam="2">  1        1 0.92929855E-02 0.91126594E+02</pdfrwt>
<pdfrwt beam="1">  1       -1 0.52874748E-02 0.91126594E+02</pdfrwt>
<totfact> 0.96617042E+04</totfact>
</mgrwt>
</event>
<event>
 5    1  0.6085374E+000  0.9407746E+02  0.7546771E-02  0.1293267E+00
          1   -1    0    0  501    0  0.00000000000E+00  0.00000000000E+00  0.96751539140E+01  0.96751539140E+01  0.00000000000E+00 0. -1.
         -1   -1    0    0    0  501 -0.00000000000E+00 -0.00000000000E+00 -0.22869322469E+03  0.22869322469E+03  0.00000000000E+00 0.  1.
         23    2    1    2    0    0  0.00000000000E+00  0.00000000000E+00 -0.21901807078E+03  0.23836837860E+03  0.94077460595E+02 0.  0.
        -13    1    3    3    0    0  0.30026304195E+02 -0.24070000100E+02 -0.17804666484E+03  0.18215805968E+03  0.00000000000E+00 0.  1.
         13    1    3    3    0    0 -0.30026304195E+02  0.24070000100E+02 -0.40971405940E+02  0.56210318920E+02  0.00000000000E+00 0. -1.
<mgrwt>
<rscale>  0 0.94077461E+02</rscale>
<asrwt>0</asrwt>
<pdfrwt beam="1">  1        1 0.14884852E-02 0.94077461E+02</pdfrwt>
<pdfrwt beam="2">  1       -1 0.35183573E-01 0.94077461E+02</pdfrwt>
<totfact> 0.61440692E+04</totfact>
</mgrwt>
</event>
<event>
 5    1  0.6085374E+000  0.9987543E+02  0.7546771E-02  0.1280558E+00
          4   -1    0    0  501    0  0.00000000000E+00  0.00000000000E+00  0.30720361622E+02  0.30720361622E+02  0.00000000000E+00 0. -1.
         -4   -1    0    0    0  501 -0.00000000000E+00 -0.00000000000E+00 -0.81176633351E+02  0.81176633351E+02  0.00000000000E+00 0.  1.
         23    2    1    2    0    0  0.00000000000E+00  0.00000000000E+00 -0.50456271729E+02  0.11189699497E+03  0.99875433052E+02 0.  0.
        -13    1    3    3    0    0 -0.22933132752E+02 -0.37534990403E+02  0.12601930896E+01  0.44004456240E+02  0.00000000000E+00 0. -1.
         13    1    3    3    0    0  0.22933132752E+02  0.37534990403E+02 -0.51716464818E+02  0.67892538733E+02  0.00000000000E+00 0.  1.
<mgrwt>
<rscale>  0 0.99875433E+02</rscale>
<asrwt>0</asrwt>
<pdfrwt beam="1">  1        4 0.47262095E-02 0.99875433E+02</pdfrwt>
<pdfrwt beam="2">  1       -4 0.12488713E-01 0.99875433E+02</pdfrwt>
<totfact> 0.20079474E+04</totfact>
</mgrwt>
</event>
<event>
 5    1  0.6085374E+000  0.9134119E+02  0.7546771E-02  0.1299636E+00
         -1   -1    0    0    0  501 -0.00000000000E+00  0.00000000000E+00  0.47538997223E+02  0.47538997223E+02  0.00000000000E+00 0.  1.
          1   -1    0    0  501    0  0.00000000000E+00 -0.00000000000E+00 -0.43875624301E+02  0.43875624301E+02  0.00000000000E+00 0. -1.
         23    2    1    2    0    0  0.00000000000E+00  0.00000000000E+00  0.36633729219E+01  0.91414621524E+02  0.91341188558E+02 0.  0.
        -13    1    3    3    0    0  0.39912864571E+02 -0.49991457653E+01  0.23477180099E+02  0.46574737810E+02  0.00000000000E+00 0.  1.
         13    1    3    3    0    0 -0.39912864571E+02  0.49991457653E+01 -0.19813807177E+02  0.44839883714E+02  0.00000000000E+00 0. -1.
<mgrwt>
<rscale>  0 0.91341189E+02</rscale>
<asrwt>0</asrwt>
<pdfrwt beam="2">  1        1 0.67500961E-02 0.91341189E+02</pdfrwt>
<pdfrwt beam="1">  1       -1 0.73136919E-02 0.91341189E+02</pdfrwt>
<totfact> 0.91475879E+04</totfact>
</mgrwt>
</event>
<event>
 4    1  0.6085374E+000  0.1310649E+03  0.7546771E-02  0.1225884E+00
          3   -1    0    0  501    0  0.00000000000E+00  0.00000000000E+00  0.82916589354E+02  0.82916589354E+02  0.00000000000E+00 0. -1.
         -3   -1    0    0    0  501 -0.00000000000E+00 -0.00000000000E+00 -0.51793037278E+02  0.51793037278E+02  0.00000000000E+00 0.  1.
        -13    1    1    2    0    0  0.32118704763E+02  0.23494172321E+02 -0.37952561817E+02  0.54990765381E+02  0.00000000000E+00 0.  1.
         13    1    1    2    0    0 -0.32118704763E+02 -0.23494172321E+02  0.69076113892E+02  0.79718861251E+02  0.00000000000E+00 0. -1.
<mgrwt>
<rscale>  0 0.13106490E+03</rscale>
<asrwt>0</asrwt>
<pdfrwt beam="1">  1        3 0.12756398E-01 0.13106490E+03</pdfrwt>
<pdfrwt beam="2">  1       -3 0.79681596E-02 0.13106490E+03</pdfrwt>
<totfact> 0.11791858E+04</totfact>
</mgrwt>
</event>
<event>
 5    1  0.6085374E+000  0.9033662E+02  0.7546771E-02  0.1302039E+00
          1   -1    0    0  501    0  0.00000000000E+00  0.00000000000E+00  0.44393600560E+02  0.44393600560E+02  0.00000000000E+00 0. -1.
         -1   -1    0    0    0  501 -0.00000000000E+00 -0.00000000000E+00 -0.45956540801E+02  0.45956540801E+02  0.00000000000E+00 0.  1.
         23    2    1    2    0    0  0.00000000000E+00  0.00000000000E+00 -0.15629402413E+01  0.90350141361E+02  0.90336621930E+02 0.  0.
        -13    1    3    3    0    0  0.33251838302E+02 -0.11514241627E+00  0.29792342677E+02  0.44646183380E+02  0.00000000000E+00 0.  1.
         13    1    3    3    0    0 -0.33251838302E+02  0.11514241627E+00 -0.31355282918E+02  0.45703957981E+02  0.00000000000E+00 0. -1.
<mgrwt>
<rscale>  0 0.90336622E+02</rscale>
<asrwt>0</asrwt>
<pdfrwt beam="1">  1        1 0.68297847E-02 0.90336622E+02</pdfrwt>
<pdfrwt beam="2">  1       -1 0.70702371E-02 0.90336622E+02</pdfrwt>
<totfact> 0.94527842E+04</totfact>
</mgrwt>
</event>
<event>
 5    1  0.6085374E+000  0.9144079E+02  0.7546771E-02  0.1299400E+00
         -2   -1    0    0    0  501 -0.00000000000E+00  0.00000000000E+00  0.19562441137E+02  0.19562441137E+02  0.00000000000E+00 0.  1.
          2   -1    0    0  501    0  0.00000000000E+00 -0.00000000000E+00 -0.10685551078E+03  0.10685551078E+03  0.00000000000E+00 0. -1.
         23    2    1    2    0    0  0.00000000000E+00  0.00000000000E+00 -0.87293069645E+02  0.12641795192E+03  0.91440792644E+02 0.  0.
        -13    1    3    3    0    0 -0.24746420793E+02  0.11951735977E+02  0.68695613856E+01  0.28327022585E+02  0.00000000000E+00 0. -1.
         13    1    3    3    0    0  0.24746420793E+02 -0.11951735977E+02 -0.94162631030E+02  0.98090929333E+02  0.00000000000E+00 0.  1.
<mgrwt>
<rscale>  0 0.91440793E+02</rscale>
<asrwt>0</asrwt>
<pdfrwt beam="2">  1        2 0.16439309E-01 0.91440793E+02</pdfrwt>
<pdfrwt beam="1">  1       -2 0.30096064E-02 0.91440793E+02</pdfrwt>
<totfact> 0.12421091E+05</totfact>
</mgrwt>
</event>
<event>
 5    1  0.6085374E+000  0.9314137E+02  0.7546771E-02  0.1295418E+00
          2   -1    0    0  501    0  0.00000000000E+00  0.00000000000E+00  0.44762085028E+02  0.44762085028E+02  0.00000000000E+00 0. -1.
         -2   -1    0    0    0  501 -0.00000000000E+00 -0.00000000000E+00 -0.48452361847E+02  0.48452361847E+02  0.00000000000E+00 0.  1.
         23    2    1    2    0    0  0.00000000000E+00  0.00000000000E+00 -0.36902768189E+01  0.93214446875E+02  0.93141370847E+02 0.  0.
        -13    1    3    3    0    0 -0.44731177005E+02 -0.12812684425E+02  0.10206599185E+00  0.46530135352E+02  0.00000000000E+00 0.  1.
         13    1    3    3    0    0  0.44731177005E+02  0.12812684425E+02 -0.37923428107E+01  0.46684311523E+02  0.00000000000E+00 0. -1.
<mgrwt>
<rscale>  0 0.93141371E+02</rscale>
<asrwt>0</asrwt>
<pdfrwt beam="1">  1        2 0.68864746E-02 0.93141371E+02</pdfrwt>
<pdfrwt beam="2">  1       -2 0.74542095E-02 0.93141371E+02</pdfrwt>
<totfact> 0.92354775E+04</totfact>
</mgrwt>
</event>
<event>
 5    1  0.6085374E+000  0.9529351E+02  0.7546771E-02  0.1290516E+00
         -1   -1    0    0    0  501 -0.00000000000E+00  0.00000000000E+00  0.10821758673E+03  0.10821758673E+03  0.00000000000E+00 0.  1.
          1   -1    0    0  501    0  0.00000000000E+00 -0.00000000000E+00 -0.20978229611E+02  0.20978229611E+02  0.00000000000E+00 0. -1.
         23    2    1    2    0    0  0.00000000000E+00  0.00000000000E+00  0.87239357121E+02  0.12919581634E+03  0.95293512526E+02 0.  0.
        -13    1    3    3    0    0  0.39770611901E+02 -0.24455973902E+01  0.79039491463E+02  0.88515104520E+02  0.00000000000E+00 0.  1.
         13    1    3    3    0    0 -0.39770611901E+02  0.24455973902E+01  0.81998656586E+01  0.40680711823E+02  0.00000000000E+00 0. -1.
<mgrwt>
<rscale>  0 0.95293513E+02</rscale>
<asrwt>0</asrwt>
<pdfrwt beam="2">  1        1 0.32274200E-02 0.95293513E+02</pdfrwt>
<pdfrwt beam="1">  1       -1 0.16648859E-01 0.95293513E+02</pdfrwt>
<totfact> 0.71516452E+04</totfact>
</mgrwt>
</event>
<event>
 5    1  0.6085374E+000  0.8631286E+02  0.7546771E-02  0.1312035E+00
         -1   -1    0    0    0  501 -0.00000000000E+00  0.00000000000E+00  0.64388447406E+02  0.64388447406E+02  0.00000000000E+00 0.  1.
          1   -1    0    0  501    0  0.00000000000E+00 -0.00000000000E+00 -0.28925648766E+02  0.28925648766E+02  0.00000000000E+00 0. -1.
         23    2    1    2    0    0  0.00000000000E+00  0.00000000000E+00  0.35462798640E+02  0.93314096172E+02  0.86312863798E+02 0.  0.
        -13    1    3    3    0    0  0.21502785675E+02  0.30979106070E+02  0.40419428283E+02  0.55279335989E+02  0.00000000000E+00 0.  1.
         13    1    3    3    0    0 -0.21502785675E+02 -0.30979106070E+02 -0.49566296430E+01  0.38034760182E+02  0.00000000000E+00 0. -1.
<mgrwt>
<rscale>  0 0.86312864E+02</rscale>
<asrwt>0</asrwt>
<pdfrwt beam="2">  1        1 0.44500998E-02 0.86312864E+02</pdfrwt>
<pdfrwt beam="1">  1       -1 0.99059149E-02 0.86312864E+02</pdfrwt>
<totfact> 0.10080158E+05</totfact>
</mgrwt>
</event>
<event>
 5    1  0.6085374E+000  0.9180821E+02  0.7546771E-02  0.1298531E+00
         -4   -1    0    0    0  501 -0.00000000000E+00  0.00000000000E+00  0.52559610683E+01  0.52559610683E+01  0.00000000000E+00 0.  1.
          4   -1    0    0  501    0  0.00000000000E+00 -0.00000000000E+00 -0.40091371072E+03  0.40091371072E+03  0.00000000000E+00 0. -1.
         23    2    1    2    0    0  0.00000000000E+00  0.00000000000E+00 -0.39565774966E+03  0.40616967179E+03  0.91808209989E+02 0.  0.
        -13    1    3    3    0    0 -0.35457929334E+02  0.29031586991E+02 -0.20960819647E+03  0.21455930142E+03  0.00000000000E+00 0.  1.
         13    1    3    3    0    0  0.35457929334E+02 -0.29031586991E+02 -0.18604955318E+03  0.19161037038E+03  0.00000000000E+00 0. -1.
<mgrwt>
<rscale>  0 0.91808210E+02</rscale>
<asrwt>0</asrwt>
<pdfrwt beam="2">  1        4 0.61679045E-01 0.91808210E+02</pdfrwt>
<pdfrwt beam="1">  1       -4 0.80860924E-03 0.91808210E+02</pdfrwt>
<totfact> 0.14734903E+04</totfact>
</mgrwt>
</event>
<event>
 5    1  0.6085374E+000  0.8852453E+02  0.7546771E-02  0.1306465E+00
          1   -1    0    0  501    0  0.00000000000E+00  0.00000000000E+00  0.18481821474E+02  0.18481821474E+02  0.00000000000E+00 0. -1.
         -1   -1    0    0    0  501 -0.00000000000E+00 -0.00000000000E+00 -0.10600405019E+03  0.10600405019E+03  0.00000000000E+00 0.  1.
         23    2    1    2    0    0  0.00000000000E+00  0.00000000000E+00 -0.87522228713E+02  0.12448587166E+03  0.88524526118E+02 0.  0.
        -13    1    3    3    0    0  0.32768166507E+02 -0.57362842221E+01 -0.84819433045E+02  0.91109790446E+02  0.00000000000E+00 0.  1.
         13    1    3    3    0    0 -0.32768166507E+02  0.57362842221E+01 -0.27027956678E+01  0.33376081216E+02  0.00000000000E+00 0. -1.
<mgrwt>
<rscale>  0 0.88524526E+02</rscale>
<asrwt>0</asrwt>
<pdfrwt beam="1">  1        1 0.28433571E-02 0.88524526E+02</pdfrwt>
<pdfrwt beam="2">  1       -1 0.16308316E-01 0.88524526E+02</pdfrwt>
<totfact> 0.86836846E+04</totfact>
</mgrwt>
</event>
<event>
 5    1  0.6085374E+000  0.9119988E+02  0.7546771E-02  0.1299972E+00
         -2   -1    0    0    0  501 -0.00000000000E+00  0.00000000000E+00  0.20355717385E+03  0.20355717385E+03  0.00000000000E+00 0.  1.
          2   -1    0    0  501    0  0.00000000000E+00 -0.00000000000E+00 -0.10215088688E+02  0.10215088688E+02  0.00000000000E+00 0. -1.
         23    2    1    2    0    0  0.00000000000E+00  0.00000000000E+00  0.19334208516E+03  0.21377226254E+03  0.91199881226E+02 0.  0.
        -13    1    3    3    0    0  0.43867536641E+02 -0.94232037297E+00  0.67572808242E+02  0.80568810047E+02  0.00000000000E+00 0.  1.
         13    1    3    3    0    0 -0.43867536641E+02  0.94232037297E+00  0.12576927692E+03  0.13320345249E+03  0.00000000000E+00 0. -1.
<mgrwt>
<rscale>  0 0.91199881E+02</rscale>
<asrwt>0</asrwt>
<pdfrwt beam="2">  1        2 0.15715523E-02 0.91199881E+02</pdfrwt>
<pdfrwt beam="1">  1       -2 0.31316485E-01 0.91199881E+02</pdfrwt>
<totfact> 0.61802787E+04</totfact>
</mgrwt>
</event>
<event>
 5    1  0.6085374E+000  0.1086477E+03  0.7546771E-02  0.1263095E+00
          1   -1    0    0  501    0  0.00000000000E+00  0.00000000000E+00  0.89475678069E+02  0.89475678069E+02  0.00000000000E+00 0. -1.
         -1   -1    0    0    0  501 -0.00000000000E+00 -0.00000000000E+00 -0.32981907714E+02  0.32981907714E+02  0.00000000000E+00 0.  1.
         23    2    1    2    0    0  0.00000000000E+00  0.00000000000E+00  0.56493770355E+02  0.12245758578E+03  0.10864766094E+03 0.  0.
        -13    1    3    3    0    0 -0.40097522453E+02  0.16312318937E+02  0.65238947659E+02  0.78294465626E+02  0.00000000000E+00 0. -1.
         13    1    3    3    0    0  0.40097522453E+02 -0.16312318937E+02 -0.87451773036E+01  0.44163120157E+02  0.00000000000E+00 0.  1.
<mgrwt>
<rscale>  0 0.10864766E+03</rscale>
<asrwt>0</asrwt>
<pdfrwt beam="1">  1        1 0.13765489E-01 0.10864766E+03</pdfrwt>
<pdfrwt beam="2">  1       -1 0.50741397E-02 0.10864766E+03</pdfrwt>
<totfact> 0.63117022E+04</totfact>
</mgrwt>
</event>
<event>
 5    1  0.6085374E+000  0.9115527E+02  0.7546771E-02  0.1300078E+00
         -4   -1    0    0    0  501 -0.00000000000E+00  0.00000000000E+00  0.12382644245E+03  0.12382644245E+03  0.00000000000E+00 0.  1.
          4   -1    0    0  501    0  0.00000000000E+00 -0.00000000000E+00 -0.16776068014E+02  0.16776068014E+02  0.00000000000E+00 0. -1.
         23    2    1    2    0    0  0.00000000000E+00  0.00000000000E+00  0.10705037444E+03  0.14060251047E+03  0.91155270184E+02 0.  0.
        -13    1    3    3    0    0 -0.19938059331E+02 -0.35719447644E+01  0.11650244678E+03  0.11825018015E+03  0.00000000000E+00 0.  1.
         13    1    3    3    0    0  0.19938059331E+02  0.35719447644E+01 -0.94520723391E+01  0.22352330322E+02  0.00000000000E+00 0. -1.
<mgrwt>
<rscale>  0 0.91155270E+02</rscale>
<asrwt>0</asrwt>
<pdfrwt beam="2">  1        4 0.25809336E-02 0.91155270E+02</pdfrwt>
<pdfrwt beam="1">  1       -4 0.19050221E-01 0.91155270E+02</pdfrwt>
<totfact> 0.24169260E+04</totfact>
</mgrwt>
</event>
<event>
 5    1  0.6085374E+000  0.9336648E+02  0.7546771E-02  0.1294898E+00
         -3   -1    0    0    0  501 -0.00000000000E+00  0.00000000000E+00  0.23241790941E+02  0.23241790941E+02  0.00000000000E+00 0.  1.
          3   -1    0    0  501    0  0.00000000000E+00 -0.00000000000E+00 -0.93767506614E+02  0.93767506614E+02  0.00000000000E+00 0. -1.
         23    2    1    2    0    0  0.00000000000E+00  0.00000000000E+00 -0.70525715673E+02  0.11700929756E+03  0.93366477620E+02 0.  0.
        -13    1    3    3    0    0  0.21494064716E+02 -0.94777858884E+01  0.15295167337E+02  0.28031507046E+02  0.00000000000E+00 0.  1.
         13    1    3    3    0    0 -0.21494064716E+02  0.94777858884E+01 -0.85820883010E+02  0.88977790510E+02  0.00000000000E+00 0. -1.
<mgrwt>
<rscale>  0 0.93366478E+02</rscale>
<asrwt>0</asrwt>
<pdfrwt beam="2">  1        3 0.14425770E-01 0.93366478E+02</pdfrwt>
<pdfrwt beam="1">  1       -3 0.35756602E-02 0.93366478E+02</pdfrwt>
<totfact> 0.31357605E+04</totfact>
</mgrwt>
</event>
<event>
 5    1  0.6085374E+000  0.9303709E+02  0.7546771E-02  0.1295659E+00
         -1   -1    0    0    0  501 -0.00000000000E+00  0.00000000000E+00  0.34680480485E+03  0.34680480485E+03  0.00000000000E+00 0.  1.
          1   -1    0    0  501    0  0.00000000000E+00 -0.00000000000E+00 -0.62397488385E+01  0.62397488385E+01  0.00000000000E+00 0. -1.
         23    2    1    2    0    0  0.00000000000E+00  0.00000000000E+00  0.34056505601E+03  0.35304455369E+03  0.93037086761E+02 0.  0.
        -13    1    3    3    0    0  0.41032379982E+02  0.12559935648E+02  0.10212981159E+03  0.11077863786E+03  0.00000000000E+00 0.  1.
         13    1    3    3    0    0 -0.41032379982E+02 -0.12559935648E+02  0.23843524442E+03  0.24226591583E+03  0.00000000000E+00 0. -1.
<mgrwt>
<rscale>  0 0.93037087E+02</rscale>
<asrwt>0</asrwt>
<pdfrwt beam="2">  1        1 0.95996163E-03 0.93037087E+02</pdfrwt>
<pdfrwt beam="1">  1       -1 0.53354570E-01 0.93037087E+02</pdfrwt>
<totfact> 0.54079904E+04</totfact>
</mgrwt>
</event>
<event>
 5    1  0.6085374E+000  0.9011599E+02  0.7546771E-02  0.1302571E+00
         -2   -1    0    0    0  501 -0.00000000000E+00  0.00000000000E+00  0.19843867133E+03  0.19843867133E+03  0.00000000000E+00 0.  1.
          2   -1    0    0  501    0  0.00000000000E+00 -0.00000000000E+00 -0.10230984515E+02  0.10230984515E+02  0.00000000000E+00 0. -1.
         23    2    1    2    0    0  0.00000000000E+00  0.00000000000E+00  0.18820768682E+03  0.20866965585E+03  0.90115991336E+02 0.  0.
        -13    1    3    3    0    0  0.30090446938E+02 -0.27987754737E+02  0.51314465038E+02  0.65741339614E+02  0.00000000000E+00 0. -1.
         13    1    3    3    0    0 -0.30090446938E+02  0.27987754737E+02  0.13689322178E+03  0.14292831623E+03  0.00000000000E+00 0.  1.
<mgrwt>
<rscale>  0 0.90115991E+02</rscale>
<asrwt>0</asrwt>
<pdfrwt beam="2">  1        2 0.15739978E-02 0.90115991E+02</pdfrwt>
<pdfrwt beam="1">  1       -2 0.30529024E-01 0.90115991E+02</pdfrwt>
<totfact> 0.64425529E+04</totfact>
</mgrwt>
</event>
<event>
 5    1  0.6085374E+000  0.9774700E+02  0.7546771E-02  0.1285106E+00
         -2   -1    0    0    0  501 -0.00000000000E+00  0.00000000000E+00  0.36597017658E+02  0.36597017658E+02  0.00000000000E+00 0.  1.
          2   -1    0    0  501    0  0.00000000000E+00 -0.00000000000E+00 -0.65268131655E+02  0.65268131655E+02  0.00000000000E+00 0. -1.
         23    2    1    2    0    0  0.00000000000E+00  0.00000000000E+00 -0.28671113997E+02  0.10186514931E+03  0.97746999272E+02 0.  0.
        -13    1    3    3    0    0 -0.21309393906E+02 -0.35751893490E+02  0.12362741728E+02  0.43418032426E+02  0.00000000000E+00 0.  1.
         13    1    3    3    0    0  0.21309393906E+02  0.35751893490E+02 -0.41033855725E+02  0.58447116887E+02  0.00000000000E+00 0. -1.
<mgrwt>
<rscale>  0 0.97746999E+02</rscale>
<asrwt>0</asrwt>
<pdfrwt beam="2">  1        2 0.10041251E-01 0.97746999E+02</pdfrwt>
<pdfrwt beam="1">  1       -2 0.56303104E-02 0.97746999E+02</pdfrwt>
<totfact> 0.89133444E+04</totfact>
</mgrwt>
</event>
<event>
 5    1  0.6085374E+000  0.8984183E+02  0.7546771E-02  0.1303235E+00
         -1   -1    0    0    0  501 -0.00000000000E+00  0.00000000000E+00  0.40488734598E+02  0.40488734598E+02  0.00000000000E+00 0.  1.
          1   -1    0    0  501    0  0.00000000000E+00 -0.00000000000E+00 -0.49838274841E+02  0.49838274841E+02  0.00000000000E+00 0. -1.
         23    2    1    2    0    0  0.00000000000E+00  0.00000000000E+00 -0.93495402436E+01  0.90327009439E+02  0.89841831746E+02 0.  0.
        -13    1    3    3    0    0  0.20666004022E+02 -0.26585462178E+01 -0.44685878108E+02  0.49304962149E+02  0.00000000000E+00 0. -1.
         13    1    3    3    0    0 -0.20666004022E+02  0.26585462178E+01  0.35336337864E+02  0.41022047290E+02  0.00000000000E+00 0.  1.
<mgrwt>
<rscale>  0 0.89841832E+02</rscale>
<asrwt>0</asrwt>
<pdfrwt beam="2">  1        1 0.76674268E-02 0.89841832E+02</pdfrwt>
<pdfrwt beam="1">  1       -1 0.62290362E-02 0.89841832E+02</pdfrwt>
<totfact> 0.97655766E+04</totfact>
</mgrwt>
</event>
<event>
 5    1  0.6085374E+000  0.9106302E+02  0.7546771E-02  0.1300298E+00
          1   -1    0    0  501    0  0.00000000000E+00  0.00000000000E+00  0.34341094334E+02  0.34341094334E+02  0.00000000000E+00 0. -1.
         -1   -1    0    0    0  501 -0.00000000000E+00 -0.00000000000E+00 -0.60368441890E+02  0.60368441890E+02  0.00000000000E+00 0.  1.
         23    2    1    2    0    0  0.00000000000E+00  0.00000000000E+00 -0.26027347556E+02  0.94709536225E+02  0.91063019009E+02 0.  0.
        -13    1    3    3    0    0  0.30580002528E+02  0.32906158830E+02 -0.20738512791E+02  0.49477649058E+02  0.00000000000E+00 0.  1.
         13    1    3    3    0    0 -0.30580002528E+02 -0.32906158830E+02 -0.52888347654E+01  0.45231887167E+02  0.00000000000E+00 0. -1.
<mgrwt>
<rscale>  0 0.91063019E+02</rscale>
<asrwt>0</asrwt>
<pdfrwt beam="1">  1        1 0.52832453E-02 0.91063019E+02</pdfrwt>
<pdfrwt beam="2">  1       -1 0.92874526E-02 0.91063019E+02</pdfrwt>
<totfact> 0.88877394E+04</totfact>
</mgrwt>
</event>
<event>
 5    1  0.6085374E+000  0.9096639E+02  0.7546771E-02  0.1300528E+00
         -1   -1    0    0    0  501 -0.00000000000E+00  0.00000000000E+00  0.16896638868E+03  0.16896638868E+03  0.00000000000E+00 0.  1.
          1   -1    0    0  501    0  0.00000000000E+00 -0.00000000000E+00 -0.12243389084E+02  0.12243389084E+02  0.00000000000E+00 0. -1.
         23    2    1    2    0    0  0.00000000000E+00  0.00000000000E+00  0.15672299960E+03  0.18120977776E+03  0.90966394645E+02 0.  0.
        -13    1    3    3    0    0  0.33035009139E+02  0.19841873341E+02  0.30233366665E+02  0.48980284058E+02  0.00000000000E+00 0. -1.
         13    1    3    3    0    0 -0.33035009139E+02 -0.19841873341E+02  0.12648963293E+03  0.13222949371E+03  0.00000000000E+00 0.  1.
<mgrwt>
<rscale>  0 0.90966395E+02</rscale>
<asrwt>0</asrwt>
<pdfrwt beam="2">  1        1 0.18835984E-02 0.90966395E+02</pdfrwt>
<pdfrwt beam="1">  1       -1 0.25994827E-01 0.90966395E+02</pdfrwt>
<totfact> 0.73088688E+04</totfact>
</mgrwt>
</event>
<event>
 5    1  0.6085374E+000  0.9082212E+02  0.7546771E-02  0.1300873E+00
         -2   -1    0    0    0  501 -0.00000000000E+00  0.00000000000E+00  0.72481273070E+02  0.72481273070E+02  0.00000000000E+00 0.  1.
          2   -1    0    0  501    0  0.00000000000E+00 -0.00000000000E+00 -0.28450994481E+02  0.28450994481E+02  0.00000000000E+00 0. -1.
         23    2    1    2    0    0  0.00000000000E+00  0.00000000000E+00  0.44030278589E+02  0.10093226755E+03  0.90822118453E+02 0.  0.
        -13    1    3    3    0    0  0.54275900296E+01 -0.44951953963E+02  0.25869251067E+02  0.52147435694E+02  0.00000000000E+00 0.  1.
         13    1    3    3    0    0 -0.54275900296E+01  0.44951953963E+02  0.18161027522E+02  0.48784831857E+02  0.00000000000E+00 0. -1.
<mgrwt>
<rscale>  0 0.90822118E+02</rscale>
<asrwt>0</asrwt>
<pdfrwt beam="2">  1        2 0.43770761E-02 0.90822118E+02</pdfrwt>
<pdfrwt beam="1">  1       -2 0.11150965E-01 0.90822118E+02</pdfrwt>
<totfact> 0.88235239E+04</totfact>
</mgrwt>
</event>
<event>
 5    1  0.6085374E+000  0.8857204E+02  0.7546771E-02  0.1306347E+00
          1   -1    0    0  501    0  0.00000000000E+00  0.00000000000E+00  0.50947064851E+02  0.50947064851E+02  0.00000000000E+00 0. -1.
         -1   -1    0    0    0  501 -0.00000000000E+00 -0.00000000000E+00 -0.38495872120E+02  0.38495872120E+02  0.00000000000E+00 0.  1.
         23    2    1    2    0    0  0.00000000000E+00  0.00000000000E+00  0.12451192731E+02  0.89442936972E+02  0.88572042845E+02 0.  0.
        -13    1    3    3    0    0  0.25395692799E+02  0.34946252998E+02  0.16071846570E+02  0.46092147526E+02  0.00000000000E+00 0. -1.
         13    1    3    3    0    0 -0.25395692799E+02 -0.34946252998E+02 -0.36206538388E+01  0.43350789446E+02  0.00000000000E+00 0.  1.
<mgrwt>
<rscale>  0 0.88572043E+02</rscale>
<asrwt>0</asrwt>
<pdfrwt beam="1">  1        1 0.78380099E-02 0.88572043E+02</pdfrwt>
<pdfrwt beam="2">  1       -1 0.59224419E-02 0.88572043E+02</pdfrwt>
<totfact> 0.10193016E+05</totfact>
</mgrwt>
</event>
<event>
 5    1  0.6085374E+000  0.9129337E+02  0.7546771E-02  0.1299749E+00
          1   -1    0    0  501    0  0.00000000000E+00  0.00000000000E+00  0.71160053325E+01  0.71160053325E+01  0.00000000000E+00 0. -1.
         -1   -1    0    0    0  501 -0.00000000000E+00 -0.00000000000E+00 -0.29280752548E+03  0.29280752548E+03  0.00000000000E+00 0.  1.
         23    2    1    2    0    0  0.00000000000E+00  0.00000000000E+00 -0.28569152015E+03  0.29992353081E+03  0.91293371341E+02 0.  0.
        -13    1    3    3    0    0 -0.37095367107E+02 -0.26107975972E+02 -0.15957396962E+03  0.16589618576E+03  0.00000000000E+00 0. -1.
         13    1    3    3    0    0  0.37095367107E+02  0.26107975972E+02 -0.12611755053E+03  0.13402734505E+03  0.00000000000E+00 0.  1.
<mgrwt>
<rscale>  0 0.91293371E+02</rscale>
<asrwt>0</asrwt>
<pdfrwt beam="1">  1        1 0.10947703E-02 0.91293371E+02</pdfrwt>
<pdfrwt beam="2">  1       -1 0.45047300E-01 0.91293371E+02</pdfrwt>
<totfact> 0.60958120E+04</totfact>
</mgrwt>
</event>
<event>
 5    1  0.6085374E+000  0.8861308E+02  0.7546771E-02  0.1306246E+00
         -2   -1    0    0    0  501 -0.00000000000E+00  0.00000000000E+00  0.88532424827E+01  0.88532424827E+01  0.00000000000E+00 0.  1.
          2   -1    0    0  501    0  0.00000000000E+00 -0.00000000000E+00 -0.22173450632E+03  0.22173450632E+03  0.00000000000E+00 0. -1.
         23    2    1    2    0    0  0.00000000000E+00  0.00000000000E+00 -0.21288126383E+03  0.23058774880E+03  0.88613076940E+02 0.  0.
        -13    1    3    3    0    0  0.27535167784E+02  0.31862199409E+02 -0.14227946964E+03  0.14838070190E+03  0.00000000000E+00 0. -1.
         13    1    3    3    0    0 -0.27535167784E+02 -0.31862199409E+02 -0.70601794191E+02  0.82207046894E+02  0.00000000000E+00 0.  1.
<mgrwt>
<rscale>  0 0.88613077E+02</rscale>
<asrwt>0</asrwt>
<pdfrwt beam="2">  1        2 0.34113000E-01 0.88613077E+02</pdfrwt>
<pdfrwt beam="1">  1       -2 0.13620373E-02 0.88613077E+02</pdfrwt>
<totfact> 0.17335572E+05</totfact>
</mgrwt>
</event>
<event>
 5    1  0.6085374E+000  0.8989408E+02  0.7546771E-02  0.1303108E+00
         -1   -1    0    0    0  501 -0.00000000000E+00  0.00000000000E+00  0.13884466134E+02  0.13884466134E+02  0.00000000000E+00 0.  1.
          1   -1    0    0  501    0  0.00000000000E+00 -0.00000000000E+00 -0.14550334715E+03  0.14550334715E+03  0.00000000000E+00 0. -1.
         23    2    1    2    0    0  0.00000000000E+00  0.00000000000E+00 -0.13161888102E+03  0.15938781329E+03  0.89894077579E+02 0.  0.
        -13    1    3    3    0    0 -0.30609811684E+02  0.15113493973E+02 -0.13968720070E+02  0.36885002532E+02  0.00000000000E+00 0.  1.
         13    1    3    3    0    0  0.30609811684E+02 -0.15113493973E+02 -0.11765016095E+03  0.12250281075E+03  0.00000000000E+00 0. -1.
<mgrwt>
<rscale>  0 0.89894078E+02</rscale>
<asrwt>0</asrwt>
<pdfrwt beam="2">  1        1 0.22385131E-01 0.89894078E+02</pdfrwt>
<pdfrwt beam="1">  1       -1 0.21360716E-02 0.89894078E+02</pdfrwt>
<totfact> 0.11585028E+05</totfact>
</mgrwt>
</event>
<event>
 5    1  0.6085374E+000  0.9051143E+02  0.7546771E-02  0.1301618E+00
          1   -1    0    0  501    0  0.00000000000E+00  0.00000000000E+00  0.15733191335E+02  0.15733191335E+02  0.00000000000E+00 0. -1.
         -1   -1    0    0    0  501 -0.00000000000E+00 -0.00000000000E+00 -0.13017572538E+03  0.13017572538E+03  0.00000000000E+00 0.  1.
         23    2    1    2    0    0  0.00000000000E+00  0.00000000000E+00 -0.11444253404E+03  0.14590891671E+03  0.90511426782E+02 0.  0.
        -13    1    3    3    0    0 -0.33348509469E+02 -0.27031091720E+02 -0.80317871419E+02  0.91070101969E+02  0.00000000000E+00 0.  1.
         13    1    3    3    0    0  0.33348509469E+02  0.27031091720E+02 -0.34124662625E+02  0.54838814745E+02  0.00000000000E+00 0. -1.
<mgrwt>
<rscale>  0 0.90511427E+02</rscale>
<asrwt>0</asrwt>
<pdfrwt beam="1">  1        1 0.24204911E-02 0.90511427E+02</pdfrwt>
<pdfrwt beam="2">  1       -1 0.20027033E-01 0.90511427E+02</pdfrwt>
<totfact> 0.78679496E+04</totfact>
</mgrwt>
</event>
<event>
 5    1  0.6085374E+000  0.9105767E+02  0.7546771E-02  0.1300310E+00
          1   -1    0    0  501    0  0.00000000000E+00  0.00000000000E+00  0.25023172429E+03  0.25023172429E+03  0.00000000000E+00 0. -1.
         -1   -1    0    0    0  501 -0.00000000000E+00 -0.00000000000E+00 -0.82838214436E+01  0.82838214436E+01  0.00000000000E+00 0.  1.
         23    2    1    2    0    0  0.00000000000E+00  0.00000000000E+00  0.24194790285E+03  0.25851554573E+03  0.91057672352E+02 0.  0.
        -13    1    3    3    0    0 -0.27649358062E+02  0.29259173423E+02  0.18135184883E+03  0.18576619527E+03  0.00000000000E+00 0. -1.
         13    1    3    3    0    0  0.27649358062E+02 -0.29259173423E+02  0.60596054014E+02  0.72749350463E+02  0.00000000000E+00 0.  1.
<mgrwt>
<rscale>  0 0.91057672E+02</rscale>
<asrwt>0</asrwt>
<pdfrwt beam="1">  1        1 0.38497183E-01 0.91057672E+02</pdfrwt>
<pdfrwt beam="2">  1       -1 0.12744343E-02 0.91057672E+02</pdfrwt>
<totfact> 0.12412550E+05</totfact>
</mgrwt>
</event>
<event>
 5    1  0.6085374E+000  0.9032117E+02  0.7546771E-02  0.1302076E+00
         -2   -1    0    0    0  501 -0.00000000000E+00  0.00000000000E+00  0.90892254424E+01  0.90892254424E+01  0.00000000000E+00 0.  1.
          2   -1    0    0  501    0  0.00000000000E+00 -0.00000000000E+00 -0.22438420643E+03  0.22438420643E+03  0.00000000000E+00 0. -1.
         23    2    1    2    0    0  0.00000000000E+00  0.00000000000E+00 -0.21529498099E+03  0.23347343187E+03  0.90321174438E+02 0.  0.
        -13    1    3    3    0    0 -0.22521970594E+01  0.41155172497E+02 -0.15535724721E+03  0.16073174819E+03  0.00000000000E+00 0. -1.
         13    1    3    3    0    0  0.22521970594E+01 -0.41155172497E+02 -0.59937733775E+02  0.72741683682E+02  0.00000000000E+00 0.  1.
<mgrwt>
<rscale>  0 0.90321174E+02</rscale>
<asrwt>0</asrwt>
<pdfrwt beam="2">  1        2 0.34520646E-01 0.90321174E+02</pdfrwt>
<pdfrwt beam="1">  1       -2 0.13983424E-02 0.90321174E+02</pdfrwt>
<totfact> 0.16543398E+05</totfact>
</mgrwt>
</event>
<event>
 5    1  0.6085374E+000  0.8955141E+02  0.7546771E-02  0.1303942E+00
          1   -1    0    0  501    0  0.00000000000E+00  0.00000000000E+00  0.42040231965E+02  0.42040231965E+02  0.00000000000E+00 0. -1.
         -1   -1    0    0    0  501 -0.00000000000E+00 -0.00000000000E+00 -0.47689164926E+02  0.47689164926E+02  0.00000000000E+00 0.  1.
         23    2    1    2    0    0  0.00000000000E+00  0.00000000000E+00 -0.56489329613E+01  0.89729396891E+02  0.89551405476E+02 0.  0.
        -13    1    3    3    0    0  0.37911939363E+01 -0.28588660620E+02  0.31495310885E+02  0.42704089678E+02  0.00000000000E+00 0. -1.
         13    1    3    3    0    0 -0.37911939363E+01  0.28588660620E+02 -0.37144243846E+02  0.47025307212E+02  0.00000000000E+00 0.  1.
<mgrwt>
<rscale>  0 0.89551405E+02</rscale>
<asrwt>0</asrwt>
<pdfrwt beam="1">  1        1 0.64677280E-02 0.89551405E+02</pdfrwt>
<pdfrwt beam="2">  1       -1 0.73367946E-02 0.89551405E+02</pdfrwt>
<totfact> 0.96088049E+04</totfact>
</mgrwt>
</event>
<event>
 5    1  0.6085374E+000  0.8995108E+02  0.7546771E-02  0.1302970E+00
          2   -1    0    0  501    0  0.00000000000E+00  0.00000000000E+00  0.62685276149E+02  0.62685276149E+02  0.00000000000E+00 0. -1.
         -2   -1    0    0    0  501 -0.00000000000E+00 -0.00000000000E+00 -0.32269131525E+02  0.32269131525E+02  0.00000000000E+00 0.  1.
         23    2    1    2    0    0  0.00000000000E+00  0.00000000000E+00  0.30416144624E+02  0.94954407673E+02  0.89951084945E+02 0.  0.
        -13    1    3    3    0    0 -0.60663683307E+01 -0.44201627099E+02  0.21199580516E+02  0.49396425751E+02  0.00000000000E+00 0.  1.
         13    1    3    3    0    0  0.60663683307E+01  0.44201627099E+02  0.92165641078E+01  0.45557981922E+02  0.00000000000E+00 0. -1.
<mgrwt>
<rscale>  0 0.89951085E+02</rscale>
<asrwt>0</asrwt>
<pdfrwt beam="1">  1        2 0.96438886E-02 0.89951085E+02</pdfrwt>
<pdfrwt beam="2">  1       -2 0.49644818E-02 0.89951085E+02</pdfrwt>
<totfact> 0.11148608E+05</totfact>
</mgrwt>
</event>
<event>
 5    1  0.6085374E+000  0.8982942E+02  0.7546771E-02  0.1303265E+00
          1   -1    0    0  501    0  0.00000000000E+00  0.00000000000E+00  0.37089454566E+02  0.37089454566E+02  0.00000000000E+00 0. -1.
         -1   -1    0    0    0  501 -0.00000000000E+00 -0.00000000000E+00 -0.54390968504E+02  0.54390968504E+02  0.00000000000E+00 0.  1.
         23    2    1    2    0    0  0.00000000000E+00  0.00000000000E+00 -0.17301513938E+02  0.91480423070E+02  0.89829424024E+02 0.  0.
        -13    1    3    3    0    0 -0.91066764071E+01 -0.43580738863E+02 -0.26157104711E+01  0.44598814965E+02  0.00000000000E+00 0.  1.
         13    1    3    3    0    0  0.91066764071E+01  0.43580738863E+02 -0.14685803467E+02  0.46881608105E+02  0.00000000000E+00 0. -1.
<mgrwt>
<rscale>  0 0.89829424E+02</rscale>
<asrwt>0</asrwt>
<pdfrwt beam="1">  1        1 0.57060700E-02 0.89829424E+02</pdfrwt>
<pdfrwt beam="2">  1       -1 0.83678413E-02 0.89829424E+02</pdfrwt>
<totfact> 0.93480014E+04</totfact>
</mgrwt>
</event>
<event>
 5    1  0.6085374E+000  0.8937737E+02  0.7546771E-02  0.1304367E+00
          1   -1    0    0  501    0  0.00000000000E+00  0.00000000000E+00  0.30350294226E+02  0.30350294226E+02  0.00000000000E+00 0. -1.
         -1   -1    0    0    0  501 -0.00000000000E+00 -0.00000000000E+00 -0.65800967950E+02  0.65800967950E+02  0.00000000000E+00 0.  1.
         23    2    1    2    0    0  0.00000000000E+00  0.00000000000E+00 -0.35450673724E+02  0.96151262176E+02  0.89377373818E+02 0.  0.
        -13    1    3    3    0    0 -0.34118084846E+02 -0.27435873873E+02 -0.27365988643E+02  0.51630109657E+02  0.00000000000E+00 0. -1.
         13    1    3    3    0    0  0.34118084846E+02  0.27435873873E+02 -0.80846850810E+01  0.44521152519E+02  0.00000000000E+00 0.  1.
<mgrwt>
<rscale>  0 0.89377374E+02</rscale>
<asrwt>0</asrwt>
<pdfrwt beam="1">  1        1 0.46692760E-02 0.89377374E+02</pdfrwt>
<pdfrwt beam="2">  1       -1 0.10123226E-01 0.89377374E+02</pdfrwt>
<totfact> 0.91943808E+04</totfact>
</mgrwt>
</event>
<event>
 5    1  0.6085374E+000  0.8733464E+02  0.7546771E-02  0.1309438E+00
         -4   -1    0    0    0  501 -0.00000000000E+00  0.00000000000E+00  0.46176574339E+02  0.46176574339E+02  0.00000000000E+00 0.  1.
          4   -1    0    0  501    0  0.00000000000E+00 -0.00000000000E+00 -0.41294417980E+02  0.41294417980E+02  0.00000000000E+00 0. -1.
         23    2    1    2    0    0  0.00000000000E+00  0.00000000000E+00  0.48821563591E+01  0.87470992319E+02  0.87334638297E+02 0.  0.
        -13    1    3    3    0    0 -0.20232352663E+02  0.31677211745E+01 -0.36186638569E+02  0.41579506523E+02  0.00000000000E+00 0. -1.
         13    1    3    3    0    0  0.20232352663E+02 -0.31677211745E+01  0.41068794928E+02  0.45891485796E+02  0.00000000000E+00 0.  1.
<mgrwt>
<rscale>  0 0.87334638E+02</rscale>
<asrwt>0</asrwt>
<pdfrwt beam="2">  1        4 0.63529874E-02 0.87334638E+02</pdfrwt>
<pdfrwt beam="1">  1       -4 0.71040884E-02 0.87334638E+02</pdfrwt>
<totfact> 0.30622353E+04</totfact>
</mgrwt>
</event>
