<event>
 4    1  0.7653521E+003  0.2022848E+02  0.7546771E-02  0.1740822E+00
         -2   -1    0    0    0  501 -0.00000000000E+00  0.00000000000E+00  0.25850173453E+01  0.25850173453E+01  0.00000000000E+00 0.  1.
          2   -1    0    0  501    0  0.00000000000E+00 -0.00000000000E+00 -0.15045245988E+04  0.15045245988E+04  0.00000000000E+00 0.  1.
          2    1    1    2  502    0  0.20157436645E+02 -0.16938591603E+01 -0.14637818037E+04  0.14639215690E+04  0.00000000000E+00 0.  1.
         -2    1    1    2    0  502 -0.20157436645E+02  0.16938591603E+01 -0.38157777754E+02  0.43188047120E+02  0.00000000000E+00 0.  1.
<mgrwt>
<rscale>  2 0.20228480E+02</rscale>
<asrwt>0</asrwt>
<pdfrwt beam="2">  1        2 0.23146612E+00 0.20228480E+02</pdfrwt>
<pdfrwt beam="1">  1       -2 0.39769360E-03 0.20228480E+02</pdfrwt>
<totfact> 0.78529284E+04</totfact>
</mgrwt>
</event>
<event>
 4    1  0.7653521E+003  0.2445356E+02  0.7546771E-02  0.1668977E+00
         -2   -1    0    0    0  501 -0.00000000000E+00  0.00000000000E+00  0.18416236167E+01  0.18416236167E+01  0.00000000000E+00 0. -1.
          2   -1    0    0  501    0  0.00000000000E+00 -0.00000000000E+00 -0.33475134194E+03  0.33475134194E+03  0.00000000000E+00 0.  1.
          2    1    1    2  502    0 -0.14984118566E+02 -0.19324909253E+02 -0.13729286377E+03  0.13945359934E+03  0.00000000000E+00 0.  1.
         -2    1    1    2    0  502  0.14984118566E+02  0.19324909253E+02 -0.19561685456E+03  0.19713936622E+03  0.00000000000E+00 0. -1.
<mgrwt>
<rscale>  2 0.24453559E+02</rscale>
<asrwt>0</asrwt>
<pdfrwt beam="2">  1        2 0.51500217E-01 0.24453559E+02</pdfrwt>
<pdfrwt beam="1">  1       -2 0.28332665E-03 0.24453559E+02</pdfrwt>
<totfact> 0.73441567E+05</totfact>
</mgrwt>
</event>
<event>
 4    1  0.7653521E+003  0.2846915E+02  0.7546771E-02  0.1615654E+00
          2   -1    0    0  501    0  0.00000000000E+00  0.00000000000E+00  0.44950904817E+02  0.44950904817E+02  0.00000000000E+00 0.  1.
         -2   -1    0    0    0  501 -0.00000000000E+00 -0.00000000000E+00 -0.18076800092E+02  0.18076800092E+02  0.00000000000E+00 0.  1.
          2    1    1    2  502    0  0.27374262868E+02  0.78192918633E+01  0.11843808823E+02  0.30834516378E+02  0.00000000000E+00 0.  1.
         -2    1    1    2    0  502 -0.27374262868E+02 -0.78192918633E+01  0.15030295902E+02  0.32193188530E+02  0.00000000000E+00 0.  1.
<mgrwt>
<rscale>  2 0.28469148E+02</rscale>
<asrwt>0</asrwt>
<pdfrwt beam="1">  1        2 0.69155238E-02 0.28469148E+02</pdfrwt>
<pdfrwt beam="2">  1       -2 0.27810462E-02 0.28469148E+02</pdfrwt>
<totfact> 0.30062991E+05</totfact>
</mgrwt>
</event>
<event>
 4    1  0.7653521E+003  0.2228303E+02  0.7546771E-02  0.1703403E+00
          2   -1    0    0  501    0  0.00000000000E+00  0.00000000000E+00  0.75132057395E+03  0.75132057395E+03  0.00000000000E+00 0.  1.
         -2   -1    0    0    0  501 -0.00000000000E+00 -0.00000000000E+00 -0.12497354134E+01  0.12497354134E+01  0.00000000000E+00 0.  1.
          2    1    1    2  502    0 -0.10305681704E+02 -0.19756679106E+02  0.63332806274E+03  0.63371994484E+03  0.00000000000E+00 0.  1.
         -2    1    1    2    0  502  0.10305681704E+02  0.19756679106E+02  0.11674277580E+03  0.11885036452E+03  0.00000000000E+00 0.  1.
<mgrwt>
<rscale>  2 0.22283030E+02</rscale>
<asrwt>0</asrwt>
<pdfrwt beam="1">  1        2 0.11558742E+00 0.22283030E+02</pdfrwt>
<pdfrwt beam="2">  1       -2 0.19226759E-03 0.22283030E+02</pdfrwt>
<totfact> 0.52279114E+05</totfact>
</mgrwt>
</event>
<event>
 4    1  0.7653521E+003  0.3999847E+02  0.7546771E-02  0.1508223E+00
         -2   -1    0    0    0  501 -0.00000000000E+00  0.00000000000E+00  0.25636440674E+01  0.25636440674E+01  0.00000000000E+00 0. -1.
          2   -1    0    0  501    0  0.00000000000E+00 -0.00000000000E+00 -0.11358149999E+04  0.11358149999E+04  0.00000000000E+00 0. -1.
          2    1    1    2  502    0  0.31713430513E+02 -0.24374902142E+02 -0.94868637814E+03  0.94952921050E+03  0.00000000000E+00 0. -1.
         -2    1    1    2    0  502 -0.31713430513E+02  0.24374902142E+02 -0.18456497769E+03  0.18884943347E+03  0.00000000000E+00 0. -1.
<mgrwt>
<rscale>  2 0.39998469E+02</rscale>
<asrwt>0</asrwt>
<pdfrwt beam="2">  1        2 0.17474106E+00 0.39998469E+02</pdfrwt>
<pdfrwt beam="1">  1       -2 0.39440613E-03 0.39998469E+02</pdfrwt>
<totfact> 0.13717181E+05</totfact>
</mgrwt>
</event>
<event>
 4    1  0.7653521E+003  0.2692163E+02  0.7546771E-02  0.1634842E+00
          2   -1    0    0  501    0  0.00000000000E+00  0.00000000000E+00  0.17963136755E+03  0.17963136755E+03  0.00000000000E+00 0. -1.
         -2   -1    0    0    0  501 -0.00000000000E+00 -0.00000000000E+00 -0.12182260314E+03  0.12182260314E+03  0.00000000000E+00 0. -1.
          2    1    1    2  502    0 -0.26702820261E+02 -0.34254247164E+01  0.17711429845E+03  0.17914867809E+03  0.00000000000E+00 0. -1.
         -2    1    1    2    0  502  0.26702820261E+02  0.34254247164E+01 -0.11930553404E+03  0.12230529260E+03  0.00000000000E+00 0. -1.
<mgrwt>
<rscale>  2 0.26921630E+02</rscale>
<asrwt>0</asrwt>
<pdfrwt beam="1">  1        2 0.27635595E-01 0.26921630E+02</pdfrwt>
<pdfrwt beam="2">  1       -2 0.18741939E-01 0.26921630E+02</pdfrwt>
<totfact> 0.37972585E+03</totfact>
</mgrwt>
</event>
<event>
 4    1  0.7653521E+003  0.2482548E+02  0.7546771E-02  0.1663521E+00
          2   -1    0    0  501    0  0.00000000000E+00  0.00000000000E+00  0.12184487912E+04  0.12184487912E+04  0.00000000000E+00 0. -1.
         -2   -1    0    0    0  501 -0.00000000000E+00 -0.00000000000E+00 -0.29644440872E+01  0.29644440872E+01  0.00000000000E+00 0. -1.
          2    1    1    2  502    0  0.19939782278E+02 -0.14788828217E+02  0.11639125940E+04  0.11641773193E+04  0.00000000000E+00 0. -1.
         -2    1    1    2    0  502 -0.19939782278E+02  0.14788828217E+02  0.51571753141E+02  0.57235915991E+02  0.00000000000E+00 0. -1.
<mgrwt>
<rscale>  2 0.24825478E+02</rscale>
<asrwt>0</asrwt>
<pdfrwt beam="1">  1        2 0.18745326E+00 0.24825478E+02</pdfrwt>
<pdfrwt beam="2">  1       -2 0.45606929E-03 0.24825478E+02</pdfrwt>
<totfact> 0.93488517E+04</totfact>
</mgrwt>
</event>
<event>
 4    1  0.7653521E+003  0.2235719E+02  0.7546771E-02  0.1702147E+00
         -2   -1    0    0    0  501 -0.00000000000E+00  0.00000000000E+00  0.24108835998E+03  0.24108835998E+03  0.00000000000E+00 0. -1.
          2   -1    0    0  501    0  0.00000000000E+00 -0.00000000000E+00 -0.50078670101E+02  0.50078670101E+02  0.00000000000E+00 0.  1.
          2    1    1    2  502    0  0.29413667844E+01 -0.22162859891E+02 -0.47033201734E+02  0.52076540424E+02  0.00000000000E+00 0.  1.
         -2    1    1    2    0  502 -0.29413667844E+01  0.22162859891E+02  0.23804289161E+03  0.23909048966E+03  0.00000000000E+00 0. -1.
<mgrwt>
<rscale>  2 0.22357191E+02</rscale>
<asrwt>0</asrwt>
<pdfrwt beam="2">  1        2 0.77044109E-02 0.22357191E+02</pdfrwt>
<pdfrwt beam="1">  1       -2 0.37090516E-01 0.22357191E+02</pdfrwt>
<totfact> 0.48020567E+03</totfact>
</mgrwt>
</event>
<event>
 4    1  0.7653521E+003  0.4071039E+02  0.7546771E-02  0.1503048E+00
          2   -1    0    0  501    0  0.00000000000E+00  0.00000000000E+00  0.11658778561E+04  0.11658778561E+04  0.00000000000E+00 0. -1.
         -2   -1    0    0    0  501 -0.00000000000E+00 -0.00000000000E+00 -0.35965008524E+02  0.35965008524E+02  0.00000000000E+00 0. -1.
          2    1    1    2  502    0  0.21064856106E+02 -0.34836868233E+02  0.11538822723E+04  0.11546002052E+04  0.00000000000E+00 0. -1.
         -2    1    1    2    0  502 -0.21064856106E+02  0.34836868233E+02 -0.23969424693E+02  0.47242659442E+02  0.00000000000E+00 0. -1.
<mgrwt>
<rscale>  2 0.40710386E+02</rscale>
<asrwt>0</asrwt>
<pdfrwt beam="1">  1        2 0.17936580E+00 0.40710386E+02</pdfrwt>
<pdfrwt beam="2">  1       -2 0.55330791E-02 0.40710386E+02</pdfrwt>
<totfact> 0.33103237E+03</totfact>
</mgrwt>
</event>
<event>
 4    1  0.7653521E+003  0.2717652E+02  0.7546771E-02  0.1631574E+00
          2   -1    0    0  501    0  0.00000000000E+00  0.00000000000E+00  0.22990759625E+02  0.22990759625E+02  0.00000000000E+00 0.  1.
         -2   -1    0    0    0  501 -0.00000000000E+00 -0.00000000000E+00 -0.36428523735E+02  0.36428523735E+02  0.00000000000E+00 0.  1.
          2    1    1    2  502    0  0.15865290553E+02  0.22064803276E+02  0.34933813869E+01  0.27400122288E+02  0.00000000000E+00 0.  1.
         -2    1    1    2    0  502 -0.15865290553E+02 -0.22064803276E+02 -0.16931145497E+02  0.32019161072E+02  0.00000000000E+00 0.  1.
<mgrwt>
<rscale>  2 0.27176515E+02</rscale>
<asrwt>0</asrwt>
<pdfrwt beam="1">  1        2 0.35370400E-02 0.27176515E+02</pdfrwt>
<pdfrwt beam="2">  1       -2 0.56043882E-02 0.27176515E+02</pdfrwt>
<totfact> 0.25171756E+05</totfact>
</mgrwt>
</event>
<event>
 4    1  0.7653521E+003  0.2194492E+02  0.7546771E-02  0.1709206E+00
         -2   -1    0    0    0  501 -0.00000000000E+00  0.00000000000E+00  0.40544437488E+03  0.40544437488E+03  0.00000000000E+00 0.  1.
          2   -1    0    0  501    0  0.00000000000E+00 -0.00000000000E+00 -0.22092571706E+01  0.22092571706E+01  0.00000000000E+00 0.  1.
          2    1    1    2  502    0  0.14498982444E+02  0.16472973366E+02  0.63021082462E+02  0.66732572093E+02  0.00000000000E+00 0.  1.
         -2    1    1    2    0  502 -0.14498982444E+02 -0.16472973366E+02  0.34021403524E+03  0.34092105995E+03  0.00000000000E+00 0.  1.
<mgrwt>
<rscale>  2 0.21944916E+02</rscale>
<asrwt>0</asrwt>
<pdfrwt beam="2">  1        2 0.33988604E-03 0.21944916E+02</pdfrwt>
<pdfrwt beam="1">  1       -2 0.62375999E-01 0.21944916E+02</pdfrwt>
<totfact> 0.95558091E+04</totfact>
</mgrwt>
</event>
<event>
 4    1  0.7653521E+003  0.2045109E+02  0.7546771E-02  0.1736504E+00
         -2   -1    0    0    0  501 -0.00000000000E+00  0.00000000000E+00  0.38331829176E+01  0.38331829176E+01  0.00000000000E+00 0.  1.
          2   -1    0    0  501    0  0.00000000000E+00 -0.00000000000E+00 -0.16812578692E+03  0.16812578692E+03  0.00000000000E+00 0. -1.
          2    1    1    2  502    0 -0.15369479119E+02 -0.13491711712E+02 -0.13308566786E+03  0.13464784500E+03  0.00000000000E+00 0. -1.
         -2    1    1    2    0  502  0.15369479119E+02  0.13491711712E+02 -0.31206936143E+02  0.37311124839E+02  0.00000000000E+00 0.  1.
<mgrwt>
<rscale>  2 0.20451092E+02</rscale>
<asrwt>0</asrwt>
<pdfrwt beam="2">  1        2 0.25865509E-01 0.20451092E+02</pdfrwt>
<pdfrwt beam="1">  1       -2 0.58972037E-03 0.20451092E+02</pdfrwt>
<totfact> 0.51903074E+05</totfact>
</mgrwt>
</event>
<event>
 4    1  0.7653521E+003  0.2939098E+02  0.7546771E-02  0.1604920E+00
          2   -1    0    0  501    0  0.00000000000E+00  0.00000000000E+00  0.60491884272E+02  0.60491884272E+02  0.00000000000E+00 0.  1.
         -2   -1    0    0    0  501 -0.00000000000E+00 -0.00000000000E+00 -0.76684712801E+02  0.76684712801E+02  0.00000000000E+00 0. -1.
          2    1    1    2  502    0  0.66241596786E+01 -0.28634775253E+02  0.53776987814E+02  0.61284535273E+02  0.00000000000E+00 0.  1.
         -2    1    1    2    0  502 -0.66241596786E+01  0.28634775253E+02 -0.69969816343E+02  0.75892061800E+02  0.00000000000E+00 0. -1.
<mgrwt>
<rscale>  2 0.29390982E+02</rscale>
<asrwt>0</asrwt>
<pdfrwt beam="1">  1        2 0.93064437E-02 0.29390982E+02</pdfrwt>
<pdfrwt beam="2">  1       -2 0.11797648E-01 0.29390982E+02</pdfrwt>
<totfact> 0.26210160E+04</totfact>
</mgrwt>
</event>
<event>
 4    1  0.7653521E+003  0.2714238E+02  0.7546771E-02  0.1632009E+00
          2   -1    0    0  501    0  0.00000000000E+00  0.00000000000E+00  0.45237172443E+03  0.45237172443E+03  0.00000000000E+00 0.  1.
         -2   -1    0    0    0  501 -0.00000000000E+00 -0.00000000000E+00 -0.10399850636E+02  0.10399850636E+02  0.00000000000E+00 0.  1.
          2    1    1    2  502    0  0.59818213405E+01 -0.26475021839E+02  0.43348410085E+03  0.43433302275E+03  0.00000000000E+00 0.  1.
         -2    1    1    2    0  502 -0.59818213405E+01  0.26475021839E+02  0.84877729454E+01  0.28438552310E+02  0.00000000000E+00 0.  1.
<mgrwt>
<rscale>  2 0.27142383E+02</rscale>
<asrwt>0</asrwt>
<pdfrwt beam="1">  1        2 0.69595635E-01 0.27142383E+02</pdfrwt>
<pdfrwt beam="2">  1       -2 0.15999774E-02 0.27142383E+02</pdfrwt>
<totfact> 0.53844449E+04</totfact>
</mgrwt>
</event>
<event>
 4    1  0.7653521E+003  0.6060641E+02  0.7546771E-02  0.1395304E+00
          2   -1    0    0  501    0  0.00000000000E+00  0.00000000000E+00  0.16915441554E+04  0.16915441554E+04  0.00000000000E+00 0. -1.
         -2   -1    0    0    0  501 -0.00000000000E+00 -0.00000000000E+00 -0.12951956919E+02  0.12951956919E+02  0.00000000000E+00 0. -1.
          2    1    1    2  502    0  0.46268806446E+02  0.39145040272E+02  0.16168267555E+04  0.16179622659E+04  0.00000000000E+00 0. -1.
         -2    1    1    2    0  502 -0.46268806446E+02 -0.39145040272E+02  0.61765443008E+02  0.86533846429E+02  0.00000000000E+00 0. -1.
<mgrwt>
<rscale>  2 0.60606407E+02</rscale>
<asrwt>0</asrwt>
<pdfrwt beam="1">  1        2 0.26023739E+00 0.60606407E+02</pdfrwt>
<pdfrwt beam="2">  1       -2 0.19926101E-02 0.60606407E+02</pdfrwt>
<totfact> 0.79578467E+03</totfact>
</mgrwt>
</event>
<event>
 4    1  0.7653521E+003  0.2199622E+02  0.7546771E-02  0.1708317E+00
          2   -1    0    0  501    0  0.00000000000E+00  0.00000000000E+00  0.20795974850E+03  0.20795974850E+03  0.00000000000E+00 0.  1.
         -2   -1    0    0    0  501 -0.00000000000E+00 -0.00000000000E+00 -0.43581349644E+01  0.43581349644E+01  0.00000000000E+00 0. -1.
          2    1    1    2  502    0 -0.81605276009E+01  0.20426439619E+02  0.17428131379E+03  0.17566391201E+03  0.00000000000E+00 0.  1.
         -2    1    1    2    0  502  0.81605276009E+01 -0.20426439619E+02  0.29320299745E+02  0.36653971454E+02  0.00000000000E+00 0. -1.
<mgrwt>
<rscale>  2 0.21996219E+02</rscale>
<asrwt>0</asrwt>
<pdfrwt beam="1">  1        2 0.31993800E-01 0.21996219E+02</pdfrwt>
<pdfrwt beam="2">  1       -2 0.67048246E-03 0.21996219E+02</pdfrwt>
<totfact> 0.36035050E+05</totfact>
</mgrwt>
</event>
<event>
 4    1  0.7653521E+003  0.2828338E+02  0.7546771E-02  0.1617877E+00
         -2   -1    0    0    0  501 -0.00000000000E+00  0.00000000000E+00  0.54623986436E+02  0.54623986436E+02  0.00000000000E+00 0.  1.
          2   -1    0    0  501    0  0.00000000000E+00 -0.00000000000E+00 -0.18547641953E+04  0.18547641953E+04  0.00000000000E+00 0. -1.
          2    1    1    2  502    0  0.26942088524E+02 -0.86065916255E+01 -0.18509877381E+04  0.18512038127E+04  0.00000000000E+00 0. -1.
         -2    1    1    2    0  502 -0.26942088524E+02  0.86065916255E+01  0.50847529316E+02  0.58184368958E+02  0.00000000000E+00 0.  1.
<mgrwt>
<rscale>  2 0.28283379E+02</rscale>
<asrwt>0</asrwt>
<pdfrwt beam="2">  1        2 0.28534827E+00 0.28283379E+02</pdfrwt>
<pdfrwt beam="1">  1       -2 0.84036921E-02 0.28283379E+02</pdfrwt>
<totfact> 0.82055078E+02</totfact>
</mgrwt>
</event>
<event>
 4    1  0.7653521E+003  0.2567718E+02  0.7546771E-02  0.1651462E+00
         -2   -1    0    0    0  501 -0.00000000000E+00  0.00000000000E+00  0.55724311108E+01  0.55724311108E+01  0.00000000000E+00 0.  1.
          2   -1    0    0  501    0  0.00000000000E+00 -0.00000000000E+00 -0.96159193628E+03  0.96159193628E+03  0.00000000000E+00 0. -1.
          2    1    1    2  502    0 -0.18263970044E+02 -0.18048408344E+02 -0.93086487290E+03  0.93121894807E+03  0.00000000000E+00 0. -1.
         -2    1    1    2    0  502  0.18263970044E+02  0.18048408344E+02 -0.25154632268E+02  0.35945419319E+02  0.00000000000E+00 0.  1.
<mgrwt>
<rscale>  2 0.25677181E+02</rscale>
<asrwt>0</asrwt>
<pdfrwt beam="2">  1        2 0.14793728E+00 0.25677181E+02</pdfrwt>
<pdfrwt beam="1">  1       -2 0.85729675E-03 0.25677181E+02</pdfrwt>
<totfact> 0.54830091E+04</totfact>
</mgrwt>
</event>
<event>
 4    1  0.7653521E+003  0.2260281E+02  0.7546771E-02  0.1698030E+00
          2   -1    0    0  501    0  0.00000000000E+00  0.00000000000E+00  0.77239773943E+03  0.77239773943E+03  0.00000000000E+00 0.  1.
         -2   -1    0    0    0  501 -0.00000000000E+00 -0.00000000000E+00 -0.38226504521E+01  0.38226504521E+01  0.00000000000E+00 0. -1.
          2    1    1    2  502    0 -0.10366832418E+02 -0.20085218756E+02  0.73722693544E+03  0.73757334656E+03  0.00000000000E+00 0.  1.
         -2    1    1    2    0  502  0.10366832418E+02  0.20085218756E+02  0.31348153540E+02  0.38647043318E+02  0.00000000000E+00 0. -1.
<mgrwt>
<rscale>  2 0.22602815E+02</rscale>
<asrwt>0</asrwt>
<pdfrwt beam="1">  1        2 0.11883030E+00 0.22602815E+02</pdfrwt>
<pdfrwt beam="2">  1       -2 0.58810068E-03 0.22602815E+02</pdfrwt>
<totfact> 0.11478138E+05</totfact>
</mgrwt>
</event>
<event>
 4    1  0.7653521E+003  0.2071657E+02  0.7546771E-02  0.1731443E+00
          2   -1    0    0  501    0  0.00000000000E+00  0.00000000000E+00  0.20416286888E+02  0.20416286888E+02  0.00000000000E+00 0. -1.
         -2   -1    0    0    0  501 -0.00000000000E+00 -0.00000000000E+00 -0.25403540606E+02  0.25403540606E+02  0.00000000000E+00 0. -1.
          2    1    1    2  502    0 -0.16421835124E+01  0.20651375338E+02  0.70217596152E+01  0.21874212628E+02  0.00000000000E+00 0. -1.
         -2    1    1    2    0  502  0.16421835124E+01 -0.20651375338E+02 -0.12009013333E+02  0.23945614865E+02  0.00000000000E+00 0. -1.
<mgrwt>
<rscale>  2 0.20716565E+02</rscale>
<asrwt>0</asrwt>
<pdfrwt beam="1">  1        2 0.31409672E-02 0.20716565E+02</pdfrwt>
<pdfrwt beam="2">  1       -2 0.39082370E-02 0.20716565E+02</pdfrwt>
<totfact> 0.44889610E+05</totfact>
</mgrwt>
</event>
<event>
 4    1  0.7653521E+003  0.3203378E+02  0.7546771E-02  0.1576638E+00
          2   -1    0    0  501    0  0.00000000000E+00  0.00000000000E+00  0.28786260666E+03  0.28786260666E+03  0.00000000000E+00 0.  1.
         -2   -1    0    0    0  501 -0.00000000000E+00 -0.00000000000E+00 -0.35815688584E+01  0.35815688584E+01  0.00000000000E+00 0.  1.
          2    1    1    2  502    0  0.31748472873E+02 -0.42657317182E+01  0.13215851248E+03  0.13598541987E+03  0.00000000000E+00 0.  1.
         -2    1    1    2    0  502 -0.31748472873E+02  0.42657317182E+01  0.15212252532E+03  0.15545875564E+03  0.00000000000E+00 0.  1.
<mgrwt>
<rscale>  2 0.32033779E+02</rscale>
<asrwt>0</asrwt>
<pdfrwt beam="1">  1        2 0.44286537E-01 0.32033779E+02</pdfrwt>
<pdfrwt beam="2">  1       -2 0.55101082E-03 0.32033779E+02</pdfrwt>
<totfact> 0.37621615E+05</totfact>
</mgrwt>
</event>
<event>
 4    1  0.7653521E+003  0.2147980E+02  0.7546771E-02  0.1717407E+00
         -2   -1    0    0    0  501 -0.00000000000E+00  0.00000000000E+00  0.18744223951E+03  0.18744223951E+03  0.00000000000E+00 0.  1.
          2   -1    0    0  501    0  0.00000000000E+00 -0.00000000000E+00 -0.27673592231E+01  0.27673592231E+01  0.00000000000E+00 0. -1.
          2    1    1    2  502    0 -0.20533155799E+02 -0.63064276381E+01  0.12395723680E+03  0.12580452326E+03  0.00000000000E+00 0. -1.
         -2    1    1    2    0  502  0.20533155799E+02  0.63064276381E+01  0.60717643486E+02  0.64405075476E+02  0.00000000000E+00 0.  1.
<mgrwt>
<rscale>  2 0.21479804E+02</rscale>
<asrwt>0</asrwt>
<pdfrwt beam="2">  1        2 0.42574772E-03 0.21479804E+02</pdfrwt>
<pdfrwt beam="1">  1       -2 0.28837258E-01 0.21479804E+02</pdfrwt>
<totfact> 0.29147706E+05</totfact>
</mgrwt>
</event>
<event>
 4    1  0.7653521E+003  0.2562836E+02  0.7546771E-02  0.1652137E+00
         -2   -1    0    0    0  501 -0.00000000000E+00  0.00000000000E+00  0.37919945390E+01  0.37919945390E+01  0.00000000000E+00 0.  1.
          2   -1    0    0  501    0  0.00000000000E+00 -0.00000000000E+00 -0.69051371671E+03  0.69051371671E+03  0.00000000000E+00 0.  1.
          2    1    1    2  502    0 -0.15346697278E+02  0.20525394947E+02 -0.64383507756E+03  0.64434495424E+03  0.00000000000E+00 0.  1.
         -2    1    1    2    0  502  0.15346697278E+02 -0.20525394947E+02 -0.42886644607E+02  0.49960757007E+02  0.00000000000E+00 0.  1.
<mgrwt>
<rscale>  2 0.25628362E+02</rscale>
<asrwt>0</asrwt>
<pdfrwt beam="2">  1        2 0.10623278E+00 0.25628362E+02</pdfrwt>
<pdfrwt beam="1">  1       -2 0.58338433E-03 0.25628362E+02</pdfrwt>
<totfact> 0.13504112E+05</totfact>
</mgrwt>
</event>
<event>
 4    1  0.7653521E+003  0.2168436E+02  0.7546771E-02  0.1713769E+00
         -2   -1    0    0    0  501 -0.00000000000E+00  0.00000000000E+00  0.60614396712E+01  0.60614396712E+01  0.00000000000E+00 0. -1.
          2   -1    0    0  501    0  0.00000000000E+00 -0.00000000000E+00 -0.93436938050E+02  0.93436938050E+02  0.00000000000E+00 0. -1.
          2    1    1    2  502    0  0.16268321219E+02  0.14337123992E+02 -0.64185944724E+02  0.67749884869E+02  0.00000000000E+00 0. -1.
         -2    1    1    2    0  502 -0.16268321219E+02 -0.14337123992E+02 -0.23189553654E+02  0.31748492852E+02  0.00000000000E+00 0. -1.
<mgrwt>
<rscale>  2 0.21684358E+02</rscale>
<asrwt>0</asrwt>
<pdfrwt beam="2">  1        2 0.14374912E-01 0.21684358E+02</pdfrwt>
<pdfrwt beam="1">  1       -2 0.93252930E-03 0.21684358E+02</pdfrwt>
<totfact> 0.53299414E+05</totfact>
</mgrwt>
</event>
<event>
 4    1  0.7653521E+003  0.3786697E+02  0.7546771E-02  0.1524522E+00
          2   -1    0    0  501    0  0.00000000000E+00  0.00000000000E+00  0.88328886080E+02  0.88328886080E+02  0.00000000000E+00 0. -1.
         -2   -1    0    0    0  501 -0.00000000000E+00 -0.00000000000E+00 -0.38952345675E+02  0.38952345675E+02  0.00000000000E+00 0. -1.
          2    1    1    2  502    0 -0.10737847726E+02  0.36312611321E+02  0.73290759931E+02  0.82495106557E+02  0.00000000000E+00 0. -1.
         -2    1    1    2    0  502  0.10737847726E+02 -0.36312611321E+02 -0.23914219526E+02  0.44786125198E+02  0.00000000000E+00 0. -1.
<mgrwt>
<rscale>  2 0.37866966E+02</rscale>
<asrwt>0</asrwt>
<pdfrwt beam="1">  1        2 0.13589059E-01 0.37866966E+02</pdfrwt>
<pdfrwt beam="2">  1       -2 0.59926686E-02 0.37866966E+02</pdfrwt>
<totfact> 0.48645039E+04</totfact>
</mgrwt>
</event>
<event>
 4    1  0.7653521E+003  0.2576965E+02  0.7546771E-02  0.1650187E+00
          2   -1    0    0  501    0  0.00000000000E+00  0.00000000000E+00  0.59404639864E+03  0.59404639864E+03  0.00000000000E+00 0.  1.
         -2   -1    0    0    0  501 -0.00000000000E+00 -0.00000000000E+00 -0.13584814358E+01  0.13584814358E+01  0.00000000000E+00 0.  1.
          2    1    1    2  502    0  0.25533049766E+02  0.34838669371E+01  0.17105795261E+03  0.17298814153E+03  0.00000000000E+00 0.  1.
         -2    1    1    2    0  502 -0.25533049766E+02 -0.34838669371E+01  0.42162996459E+03  0.42241673855E+03  0.00000000000E+00 0.  1.
<mgrwt>
<rscale>  2 0.25769645E+02</rscale>
<asrwt>0</asrwt>
<pdfrwt beam="1">  1        2 0.91391546E-01 0.25769645E+02</pdfrwt>
<pdfrwt beam="2">  1       -2 0.20899762E-03 0.25769645E+02</pdfrwt>
<totfact> 0.62798132E+05</totfact>
</mgrwt>
</event>
<event>
 4    1  0.7653521E+003  0.2178394E+02  0.7546771E-02  0.1712016E+00
         -2   -1    0    0    0  501 -0.00000000000E+00  0.00000000000E+00  0.14405144348E+02  0.14405144348E+02  0.00000000000E+00 0. -1.
          2   -1    0    0  501    0  0.00000000000E+00 -0.00000000000E+00 -0.38793818996E+02  0.38793818996E+02  0.00000000000E+00 0.  1.
          2    1    1    2  502    0  0.21152476706E+02  0.52070103750E+01 -0.22524852690E+02  0.31335430690E+02  0.00000000000E+00 0.  1.
         -2    1    1    2    0  502 -0.21152476706E+02 -0.52070103750E+01 -0.18638219571E+01  0.21863532654E+02  0.00000000000E+00 0. -1.
<mgrwt>
<rscale>  2 0.21783944E+02</rscale>
<asrwt>0</asrwt>
<pdfrwt beam="2">  1        2 0.59682798E-02 0.21783944E+02</pdfrwt>
<pdfrwt beam="1">  1       -2 0.22161761E-02 0.21783944E+02</pdfrwt>
<totfact> 0.45430318E+05</totfact>
</mgrwt>
</event>
<event>
 4    1  0.7653521E+003  0.4071777E+02  0.7546771E-02  0.1502995E+00
         -2   -1    0    0    0  501 -0.00000000000E+00  0.00000000000E+00  0.67232433576E+02  0.67232433576E+02  0.00000000000E+00 0. -1.
          2   -1    0    0  501    0  0.00000000000E+00 -0.00000000000E+00 -0.14458127905E+03  0.14458127905E+03  0.00000000000E+00 0.  1.
          2    1    1    2  502    0  0.40689406957E+02  0.15194080429E+01 -0.13512761051E+03  0.14112904578E+03  0.00000000000E+00 0.  1.
         -2    1    1    2    0  502 -0.40689406957E+02 -0.15194080429E+01  0.57778765034E+02  0.70684666854E+02  0.00000000000E+00 0. -1.
<mgrwt>
<rscale>  2 0.40717766E+02</rscale>
<asrwt>0</asrwt>
<pdfrwt beam="2">  1        2 0.22243273E-01 0.40717766E+02</pdfrwt>
<pdfrwt beam="1">  1       -2 0.10343451E-01 0.40717766E+02</pdfrwt>
<totfact> 0.12671567E+04</totfact>
</mgrwt>
</event>
<event>
 4    1  0.7653521E+003  0.2352723E+02  0.7546771E-02  0.1683104E+00
         -2   -1    0    0    0  501 -0.00000000000E+00  0.00000000000E+00  0.82544620609E+01  0.82544620609E+01  0.00000000000E+00 0. -1.
          2   -1    0    0  501    0  0.00000000000E+00 -0.00000000000E+00 -0.66190844713E+03  0.66190844713E+03  0.00000000000E+00 0.  1.
          2    1    1    2  502    0  0.22816543831E+02 -0.57389766007E+01 -0.64448163168E+03  0.64491092725E+03  0.00000000000E+00 0.  1.
         -2    1    1    2    0  502 -0.22816543831E+02  0.57389766007E+01 -0.91723533890E+01  0.25251981932E+02  0.00000000000E+00 0. -1.
<mgrwt>
<rscale>  2 0.23527229E+02</rscale>
<asrwt>0</asrwt>
<pdfrwt beam="2">  1        2 0.10183208E+00 0.23527229E+02</pdfrwt>
<pdfrwt beam="1">  1       -2 0.12699171E-02 0.23527229E+02</pdfrwt>
<totfact> 0.48474590E+04</totfact>
</mgrwt>
</event>
<event>
 4    1  0.7653521E+003  0.2710849E+02  0.7546771E-02  0.1632442E+00
         -2   -1    0    0    0  501 -0.00000000000E+00  0.00000000000E+00  0.67146649988E+02  0.67146649988E+02  0.00000000000E+00 0. -1.
          2   -1    0    0  501    0  0.00000000000E+00 -0.00000000000E+00 -0.75619330595E+03  0.75619330595E+03  0.00000000000E+00 0.  1.
          2    1    1    2  502    0 -0.95974360167E+01  0.25352704290E+02 -0.75320343298E+03  0.75369110506E+03  0.00000000000E+00 0.  1.
         -2    1    1    2    0  502  0.95974360167E+01 -0.25352704290E+02  0.64156777012E+02  0.69648850884E+02  0.00000000000E+00 0. -1.
<mgrwt>
<rscale>  2 0.27108493E+02</rscale>
<asrwt>0</asrwt>
<pdfrwt beam="2">  1        2 0.11633744E+00 0.27108493E+02</pdfrwt>
<pdfrwt beam="1">  1       -2 0.10330253E-01 0.27108493E+02</pdfrwt>
<totfact> 0.22065053E+03</totfact>
</mgrwt>
</event>
<event>
 4    1  0.7653521E+003  0.2859657E+02  0.7546771E-02  0.1614141E+00
          2   -1    0    0  501    0  0.00000000000E+00  0.00000000000E+00  0.27175937758E+03  0.27175937758E+03  0.00000000000E+00 0.  1.
         -2   -1    0    0    0  501 -0.00000000000E+00 -0.00000000000E+00 -0.96280200503E+03  0.96280200503E+03  0.00000000000E+00 0.  1.
          2    1    1    2  502    0  0.10474477475E+01  0.28577376476E+02  0.27079399673E+03  0.27229974708E+03  0.00000000000E+00 0.  1.
         -2    1    1    2    0  502 -0.10474477475E+01 -0.28577376476E+02 -0.96183662419E+03  0.96226163553E+03  0.00000000000E+00 0.  1.
<mgrwt>
<rscale>  2 0.28596566E+02</rscale>
<asrwt>0</asrwt>
<pdfrwt beam="1">  1        2 0.41809136E-01 0.28596566E+02</pdfrwt>
<pdfrwt beam="2">  1       -2 0.14812338E+00 0.28596566E+02</pdfrwt>
<totfact> 0.43413646E+01</totfact>
</mgrwt>
</event>
<event>
 4    1  0.7653521E+003  0.2463692E+02  0.7546771E-02  0.1666272E+00
         -2   -1    0    0    0  501 -0.00000000000E+00  0.00000000000E+00  0.12555588971E+02  0.12555588971E+02  0.00000000000E+00 0.  1.
          2   -1    0    0  501    0  0.00000000000E+00 -0.00000000000E+00 -0.60304490603E+03  0.60304490603E+03  0.00000000000E+00 0. -1.
          2    1    1    2  502    0 -0.22550574528E+02 -0.99221746236E+01 -0.59044976780E+03  0.59096354055E+03  0.00000000000E+00 0. -1.
         -2    1    1    2    0  502  0.22550574528E+02  0.99221746236E+01 -0.39549262919E-01  0.24636954458E+02  0.00000000000E+00 0.  1.
<mgrwt>
<rscale>  2 0.24636923E+02</rscale>
<asrwt>0</asrwt>
<pdfrwt beam="2">  1        2 0.92776120E-01 0.24636923E+02</pdfrwt>
<pdfrwt beam="1">  1       -2 0.19316295E-02 0.24636923E+02</pdfrwt>
<totfact> 0.30413771E+04</totfact>
</mgrwt>
</event>
<event>
 4    1  0.7653521E+003  0.4192476E+02  0.7546771E-02  0.1494507E+00
         -2   -1    0    0    0  501 -0.00000000000E+00  0.00000000000E+00  0.16826876123E+02  0.16826876123E+02  0.00000000000E+00 0.  1.
          2   -1    0    0  501    0  0.00000000000E+00 -0.00000000000E+00 -0.25764365156E+03  0.25764365156E+03  0.00000000000E+00 0.  1.
          2    1    1    2  502    0 -0.17913572954E+02 -0.37905003565E+02 -0.22622806369E+03  0.23008003432E+03  0.00000000000E+00 0.  1.
         -2    1    1    2    0  502  0.17913572954E+02  0.37905003565E+02 -0.14588711755E+02  0.44390493373E+02  0.00000000000E+00 0.  1.
<mgrwt>
<rscale>  2 0.41924759E+02</rscale>
<asrwt>0</asrwt>
<pdfrwt beam="2">  1        2 0.39637481E-01 0.41924759E+02</pdfrwt>
<pdfrwt beam="1">  1       -2 0.25887504E-02 0.41924759E+02</pdfrwt>
<totfact> 0.52545838E+04</totfact>
</mgrwt>
</event>
<event>
 4    1  0.7653521E+003  0.2425634E+02  0.7546771E-02  0.1671919E+00
         -2   -1    0    0    0  501 -0.00000000000E+00  0.00000000000E+00  0.35414368012E+02  0.35414368012E+02  0.00000000000E+00 0.  1.
          2   -1    0    0  501    0  0.00000000000E+00 -0.00000000000E+00 -0.19618721927E+02  0.19618721927E+02  0.00000000000E+00 0.  1.
          2    1    1    2  502    0 -0.20607840242E+02  0.12794026802E+02 -0.28710206710E+01  0.24425661935E+02  0.00000000000E+00 0.  1.
         -2    1    1    2    0  502  0.20607840242E+02 -0.12794026802E+02  0.18666666757E+02  0.30607428004E+02  0.00000000000E+00 0.  1.
<mgrwt>
<rscale>  2 0.24256344E+02</rscale>
<asrwt>0</asrwt>
<pdfrwt beam="2">  1        2 0.30182649E-02 0.24256344E+02</pdfrwt>
<pdfrwt beam="1">  1       -2 0.54483643E-02 0.24256344E+02</pdfrwt>
<totfact> 0.30997099E+05</totfact>
</mgrwt>
</event>
<event>
 4    1  0.7653521E+003  0.2091357E+02  0.7546771E-02  0.1727748E+00
          2   -1    0    0  501    0  0.00000000000E+00  0.00000000000E+00  0.41499523765E+03  0.41499523765E+03  0.00000000000E+00 0. -1.
         -2   -1    0    0    0  501 -0.00000000000E+00 -0.00000000000E+00 -0.35487234248E+01  0.35487234248E+01  0.00000000000E+00 0.  1.
          2    1    1    2  502    0  0.44074238880E+01 -0.20443870541E+02  0.38118887543E+03  0.38176214582E+03  0.00000000000E+00 0. -1.
         -2    1    1    2    0  502 -0.44074238880E+01  0.20443870541E+02  0.30257638789E+02  0.36781815250E+02  0.00000000000E+00 0.  1.
<mgrwt>
<rscale>  2 0.20913566E+02</rscale>
<asrwt>0</asrwt>
<pdfrwt beam="1">  1        2 0.63845383E-01 0.20913566E+02</pdfrwt>
<pdfrwt beam="2">  1       -2 0.54595778E-03 0.20913566E+02</pdfrwt>
<totfact> 0.23659121E+05</totfact>
</mgrwt>
</event>
<event>
 4    1  0.7653521E+003  0.2244609E+02  0.7546771E-02  0.1700649E+00
         -2   -1    0    0    0  501 -0.00000000000E+00  0.00000000000E+00  0.44297952562E+02  0.44297952562E+02  0.00000000000E+00 0. -1.
          2   -1    0    0  501    0  0.00000000000E+00 -0.00000000000E+00 -0.10758152923E+04  0.10758152923E+04  0.00000000000E+00 0. -1.
          2    1    1    2  502    0 -0.10040128022E+02 -0.20075430870E+02 -0.10728469463E+04  0.10730817291E+04  0.00000000000E+00 0. -1.
         -2    1    1    2    0  502  0.10040128022E+02  0.20075430870E+02  0.41329606580E+02  0.47031515767E+02  0.00000000000E+00 0. -1.
<mgrwt>
<rscale>  2 0.22446093E+02</rscale>
<asrwt>0</asrwt>
<pdfrwt beam="2">  1        2 0.16551003E+00 0.22446093E+02</pdfrwt>
<pdfrwt beam="1">  1       -2 0.68150701E-02 0.22446093E+02</pdfrwt>
<totfact> 0.26350570E+03</totfact>
</mgrwt>
</event>
<event>
 4    1  0.7653521E+003  0.2822933E+02  0.7546771E-02  0.1618528E+00
         -2   -1    0    0    0  501 -0.00000000000E+00  0.00000000000E+00  0.57932713533E+01  0.57932713533E+01  0.00000000000E+00 0.  1.
          2   -1    0    0  501    0  0.00000000000E+00 -0.00000000000E+00 -0.18660467505E+04  0.18660467505E+04  0.00000000000E+00 0. -1.
          2    1    1    2  502    0 -0.18977644372E+02  0.20898420323E+02 -0.18308908949E+04  0.18311085068E+04  0.00000000000E+00 0. -1.
         -2    1    1    2    0  502  0.18977644372E+02 -0.20898420323E+02 -0.29362584244E+02  0.40731514965E+02  0.00000000000E+00 0.  1.
<mgrwt>
<rscale>  2 0.28229328E+02</rscale>
<asrwt>0</asrwt>
<pdfrwt beam="2">  1        2 0.28708421E+00 0.28229328E+02</pdfrwt>
<pdfrwt beam="1">  1       -2 0.89127221E-03 0.28229328E+02</pdfrwt>
<totfact> 0.18905739E+04</totfact>
</mgrwt>
</event>
<event>
 4    1  0.7653521E+003  0.2041782E+02  0.7546771E-02  0.1737145E+00
          2   -1    0    0  501    0  0.00000000000E+00  0.00000000000E+00  0.80488357716E+03  0.80488357716E+03  0.00000000000E+00 0. -1.
         -2   -1    0    0    0  501 -0.00000000000E+00 -0.00000000000E+00 -0.62298880781E+00  0.62298880781E+00  0.00000000000E+00 0. -1.
          2    1    1    2  502    0 -0.15692322622E+02  0.13062867506E+02  0.56750872717E+03  0.56787590450E+03  0.00000000000E+00 0. -1.
         -2    1    1    2    0  502  0.15692322622E+02 -0.13062867506E+02  0.23675186118E+03  0.23763066147E+03  0.00000000000E+00 0. -1.
<mgrwt>
<rscale>  2 0.20417823E+02</rscale>
<asrwt>0</asrwt>
<pdfrwt beam="1">  1        2 0.12382741E+00 0.20417823E+02</pdfrwt>
<pdfrwt beam="2">  1       -2 0.95845076E-04 0.20417823E+02</pdfrwt>
<totfact> 0.11775530E+06</totfact>
</mgrwt>
</event>
<event>
 4    1  0.7653521E+003  0.2501793E+02  0.7546771E-02  0.1660745E+00
         -2   -1    0    0    0  501 -0.00000000000E+00  0.00000000000E+00  0.30500840429E+01  0.30500840429E+01  0.00000000000E+00 0.  1.
          2   -1    0    0  501    0  0.00000000000E+00 -0.00000000000E+00 -0.13579415846E+04  0.13579415846E+04  0.00000000000E+00 0.  1.
          2    1    1    2  502    0 -0.20192141306E+02 -0.14770721085E+02 -0.13044199954E+04  0.13046598871E+04  0.00000000000E+00 0.  1.
         -2    1    1    2    0  502  0.20192141306E+02  0.14770721085E+02 -0.50471505154E+02  0.56331781477E+02  0.00000000000E+00 0.  1.
<mgrwt>
<rscale>  2 0.25017929E+02</rscale>
<asrwt>0</asrwt>
<pdfrwt beam="2">  1        2 0.20891417E+00 0.25017929E+02</pdfrwt>
<pdfrwt beam="1">  1       -2 0.46924351E-03 0.25017929E+02</pdfrwt>
<totfact> 0.76929284E+04</totfact>
</mgrwt>
</event>
<event>
 4    1  0.7653521E+003  0.3924174E+02  0.7546771E-02  0.1513867E+00
          2   -1    0    0  501    0  0.00000000000E+00  0.00000000000E+00  0.43079691974E+02  0.43079691974E+02  0.00000000000E+00 0.  1.
         -2   -1    0    0    0  501 -0.00000000000E+00 -0.00000000000E+00 -0.38878875938E+02  0.38878875938E+02  0.00000000000E+00 0. -1.
          2    1    1    2  502    0 -0.32606014054E+02  0.21834885837E+02  0.13733599231E+02  0.41575547379E+02  0.00000000000E+00 0.  1.
         -2    1    1    2    0  502  0.32606014054E+02 -0.21834885837E+02 -0.95327831949E+01  0.40383020534E+02  0.00000000000E+00 0. -1.
<mgrwt>
<rscale>  2 0.39241743E+02</rscale>
<asrwt>0</asrwt>
<pdfrwt beam="1">  1        2 0.66276449E-02 0.39241743E+02</pdfrwt>
<pdfrwt beam="2">  1       -2 0.59813655E-02 0.39241743E+02</pdfrwt>
<totfact> 0.11471468E+05</totfact>
</mgrwt>
</event>
<event>
 4    1  0.7653521E+003  0.2213196E+02  0.7546771E-02  0.1705980E+00
          2   -1    0    0  501    0  0.00000000000E+00  0.00000000000E+00  0.16238369847E+04  0.16238369847E+04  0.00000000000E+00 0. -1.
         -2   -1    0    0    0  501 -0.00000000000E+00 -0.00000000000E+00 -0.13120950318E+01  0.13120950318E+01  0.00000000000E+00 0. -1.
          2    1    1    2  502    0  0.21956147195E+02 -0.27841453698E+01  0.15243416634E+04  0.15245023222E+04  0.00000000000E+00 0. -1.
         -2    1    1    2    0  502 -0.21956147195E+02  0.27841453698E+01  0.98183226324E+02  0.10064675751E+03  0.00000000000E+00 0. -1.
<mgrwt>
<rscale>  2 0.22131965E+02</rscale>
<asrwt>0</asrwt>
<pdfrwt beam="1">  1        2 0.24981947E+00 0.22131965E+02</pdfrwt>
<pdfrwt beam="2">  1       -2 0.20186207E-03 0.22131965E+02</pdfrwt>
<totfact> 0.17297069E+05</totfact>
</mgrwt>
</event>
<event>
 4    1  0.7653521E+003  0.2369037E+02  0.7546771E-02  0.1680558E+00
          2   -1    0    0  501    0  0.00000000000E+00  0.00000000000E+00  0.14583150765E+04  0.14583150765E+04  0.00000000000E+00 0. -1.
         -2   -1    0    0    0  501 -0.00000000000E+00 -0.00000000000E+00 -0.60058814464E+01  0.60058814464E+01  0.00000000000E+00 0. -1.
          2    1    1    2  502    0 -0.35447609283E+01 -0.23423666283E+02  0.14344686992E+04  0.14346643100E+04  0.00000000000E+00 0. -1.
         -2    1    1    2    0  502  0.35447609283E+01  0.23423666283E+02  0.17840495790E+02  0.29656647859E+02  0.00000000000E+00 0. -1.
<mgrwt>
<rscale>  2 0.23690367E+02</rscale>
<asrwt>0</asrwt>
<pdfrwt beam="1">  1        2 0.22435588E+00 0.23690367E+02</pdfrwt>
<pdfrwt beam="2">  1       -2 0.92398292E-03 0.23690367E+02</pdfrwt>
<totfact> 0.27395758E+04</totfact>
</mgrwt>
</event>
<event>
 4    1  0.7653521E+003  0.2505547E+02  0.7546771E-02  0.1660206E+00
         -2   -1    0    0    0  501 -0.00000000000E+00  0.00000000000E+00  0.40457546216E+02  0.40457546216E+02  0.00000000000E+00 0. -1.
          2   -1    0    0  501    0  0.00000000000E+00 -0.00000000000E+00 -0.19890636722E+03  0.19890636722E+03  0.00000000000E+00 0. -1.
          2    1    1    2  502    0 -0.23495387017E+02 -0.87030673261E+01 -0.19414332272E+03  0.19575343254E+03  0.00000000000E+00 0. -1.
         -2    1    1    2    0  502  0.23495387017E+02  0.87030673261E+01  0.35694501714E+02  0.43610480903E+02  0.00000000000E+00 0. -1.
<mgrwt>
<rscale>  2 0.25055470E+02</rscale>
<asrwt>0</asrwt>
<pdfrwt beam="2">  1        2 0.30600980E-01 0.25055470E+02</pdfrwt>
<pdfrwt beam="1">  1       -2 0.62242379E-02 0.25055470E+02</pdfrwt>
<totfact> 0.17944403E+04</totfact>
</mgrwt>
</event>
<event>
 4    1  0.7653521E+003  0.7189703E+02  0.7546771E-02  0.1353758E+00
         -2   -1    0    0    0  501 -0.00000000000E+00  0.00000000000E+00  0.67170385250E+01  0.67170385250E+01  0.00000000000E+00 0. -1.
          2   -1    0    0  501    0  0.00000000000E+00 -0.00000000000E+00 -0.14905084491E+04  0.14905084491E+04  0.00000000000E+00 0.  1.
          2    1    1    2  502    0  0.37246785352E+02  0.61496826528E+02 -0.12625401875E+04  0.12645856665E+04  0.00000000000E+00 0.  1.
         -2    1    1    2    0  502 -0.37246785352E+02 -0.61496826528E+02 -0.22125122305E+03  0.23263982117E+03  0.00000000000E+00 0. -1.
<mgrwt>
<rscale>  2 0.71897028E+02</rscale>
<asrwt>0</asrwt>
<pdfrwt beam="2">  1        2 0.22930904E+00 0.71897028E+02</pdfrwt>
<pdfrwt beam="1">  1       -2 0.10333903E-02 0.71897028E+02</pdfrwt>
<totfact> 0.25638531E+04</totfact>
</mgrwt>
</event>
<event>
 4    1  0.7653521E+003  0.2110544E+02  0.7546771E-02  0.1724198E+00
          2   -1    0    0  501    0  0.00000000000E+00  0.00000000000E+00  0.37450254486E+03  0.37450254486E+03  0.00000000000E+00 0.  1.
         -2   -1    0    0    0  501 -0.00000000000E+00 -0.00000000000E+00 -0.19312185437E+01  0.19312185437E+01  0.00000000000E+00 0. -1.
          2    1    1    2  502    0  0.33863727944E+01  0.20832000250E+02  0.30293618357E+03  0.30367049753E+03  0.00000000000E+00 0.  1.
         -2    1    1    2    0  502 -0.33863727944E+01 -0.20832000250E+02  0.69635142749E+02  0.72763265875E+02  0.00000000000E+00 0. -1.
<mgrwt>
<rscale>  2 0.21105444E+02</rscale>
<asrwt>0</asrwt>
<pdfrwt beam="1">  1        2 0.57615719E-01 0.21105444E+02</pdfrwt>
<pdfrwt beam="2">  1       -2 0.29711084E-03 0.21105444E+02</pdfrwt>
<totfact> 0.58979131E+05</totfact>
</mgrwt>
</event>
<event>
 4    1  0.7653521E+003  0.3862598E+02  0.7546771E-02  0.1518573E+00
          2   -1    0    0  501    0  0.00000000000E+00  0.00000000000E+00  0.11982635174E+04  0.11982635174E+04  0.00000000000E+00 0.  1.
         -2   -1    0    0    0  501 -0.00000000000E+00 -0.00000000000E+00 -0.82830850493E+02  0.82830850493E+02  0.00000000000E+00 0.  1.
          2    1    1    2  502    0 -0.28267242840E+02  0.26323546696E+02  0.11934309604E+04  0.11940558711E+04  0.00000000000E+00 0.  1.
         -2    1    1    2    0  502  0.28267242840E+02 -0.26323546696E+02 -0.77998293503E+02  0.87038496757E+02  0.00000000000E+00 0.  1.
<mgrwt>
<rscale>  2 0.38625977E+02</rscale>
<asrwt>0</asrwt>
<pdfrwt beam="1">  1        2 0.18434822E+00 0.38625977E+02</pdfrwt>
<pdfrwt beam="2">  1       -2 0.12743209E-01 0.38625977E+02</pdfrwt>
<totfact> 0.91021675E+02</totfact>
</mgrwt>
</event>
<event>
 4    1  0.7653521E+003  0.3333330E+02  0.7546771E-02  0.1563920E+00
         -2   -1    0    0    0  501 -0.00000000000E+00  0.00000000000E+00  0.95479556371E+02  0.95479556371E+02  0.00000000000E+00 0.  1.
          2   -1    0    0  501    0  0.00000000000E+00 -0.00000000000E+00 -0.80183840895E+03  0.80183840895E+03  0.00000000000E+00 0. -1.
          2    1    1    2  502    0 -0.32727164187E+02 -0.63278555947E+01 -0.79857079919E+03  0.79926618241E+03  0.00000000000E+00 0. -1.
         -2    1    1    2    0  502  0.32727164187E+02  0.63278555947E+01  0.92211946614E+02  0.98051782903E+02  0.00000000000E+00 0.  1.
<mgrwt>
<rscale>  2 0.33333302E+02</rscale>
<asrwt>0</asrwt>
<pdfrwt beam="2">  1        2 0.12335975E+00 0.33333302E+02</pdfrwt>
<pdfrwt beam="1">  1       -2 0.14689163E-01 0.33333302E+02</pdfrwt>
<totfact> 0.12150592E+03</totfact>
</mgrwt>
</event>
<event>
 4    1  0.7653521E+003  0.3178107E+02  0.7546771E-02  0.1579196E+00
         -2   -1    0    0    0  501 -0.00000000000E+00  0.00000000000E+00  0.99377597131E+02  0.99377597131E+02  0.00000000000E+00 0.  1.
          2   -1    0    0  501    0  0.00000000000E+00 -0.00000000000E+00 -0.13648703361E+02  0.13648703361E+02  0.00000000000E+00 0. -1.
          2    1    1    2  502    0  0.26678271047E+02  0.17271545902E+02  0.14307602794E+02  0.34853176923E+02  0.00000000000E+00 0. -1.
         -2    1    1    2    0  502 -0.26678271047E+02 -0.17271545902E+02  0.71421290976E+02  0.78173123570E+02  0.00000000000E+00 0.  1.
<mgrwt>
<rscale>  2 0.31781071E+02</rscale>
<asrwt>0</asrwt>
<pdfrwt beam="2">  1        2 0.20998006E-02 0.31781071E+02</pdfrwt>
<pdfrwt beam="1">  1       -2 0.15288861E-01 0.31781071E+02</pdfrwt>
<totfact> 0.11366387E+05</totfact>
</mgrwt>
</event>
<event>
 4    1  0.7653521E+003  0.2059675E+02  0.7546771E-02  0.1733715E+00
          2   -1    0    0  501    0  0.00000000000E+00  0.00000000000E+00  0.24918965580E+03  0.24918965580E+03  0.00000000000E+00 0.  1.
         -2   -1    0    0    0  501 -0.00000000000E+00 -0.00000000000E+00 -0.11884323946E+03  0.11884323946E+03  0.00000000000E+00 0. -1.
          2    1    1    2  502    0 -0.18969309018E+02  0.80244369776E+01  0.24786688850E+03  0.24872117057E+03  0.00000000000E+00 0.  1.
         -2    1    1    2    0  502  0.18969309018E+02 -0.80244369776E+01 -0.11752047216E+03  0.11931172469E+03  0.00000000000E+00 0. -1.
<mgrwt>
<rscale>  2 0.20596754E+02</rscale>
<asrwt>0</asrwt>
<pdfrwt beam="1">  1        2 0.38336870E-01 0.20596754E+02</pdfrwt>
<pdfrwt beam="2">  1       -2 0.18283575E-01 0.20596754E+02</pdfrwt>
<totfact> 0.27604433E+03</totfact>
</mgrwt>
</event>
<event>
 4    1  0.7653521E+003  0.2074642E+02  0.7546771E-02  0.1730879E+00
          2   -1    0    0  501    0  0.00000000000E+00  0.00000000000E+00  0.12645713911E+04  0.12645713911E+04  0.00000000000E+00 0. -1.
         -2   -1    0    0    0  501 -0.00000000000E+00 -0.00000000000E+00 -0.42690663169E+00  0.42690663169E+00  0.00000000000E+00 0.  1.
          2    1    1    2  502    0  0.12303677270E+02 -0.16704288754E+02  0.91685271715E+03  0.91708741060E+03  0.00000000000E+00 0. -1.
         -2    1    1    2    0  502 -0.12303677270E+02  0.16704288754E+02  0.34729176733E+03  0.34791088715E+03  0.00000000000E+00 0.  1.
<mgrwt>
<rscale>  2 0.20746415E+02</rscale>
<asrwt>0</asrwt>
<pdfrwt beam="1">  1        2 0.19454645E+00 0.20746415E+02</pdfrwt>
<pdfrwt beam="2">  1       -2 0.65678956E-04 0.20746415E+02</pdfrwt>
<totfact> 0.11011938E+06</totfact>
</mgrwt>
</event>
<event>
 4    1  0.7653521E+003  0.7735154E+02  0.7546771E-02  0.1336740E+00
         -2   -1    0    0    0  501 -0.00000000000E+00  0.00000000000E+00  0.11300028502E+03  0.11300028502E+03  0.00000000000E+00 0.  1.
          2   -1    0    0  501    0  0.00000000000E+00 -0.00000000000E+00 -0.14152621640E+03  0.14152621640E+03  0.00000000000E+00 0. -1.
          2    1    1    2  502    0  0.76971289735E+02  0.76603676453E+01 -0.11494347226E+03  0.13854696854E+03  0.00000000000E+00 0. -1.
         -2    1    1    2    0  502 -0.76971289735E+02 -0.76603676453E+01  0.86417540879E+02  0.11597953288E+03  0.00000000000E+00 0.  1.
<mgrwt>
<rscale>  2 0.77351540E+02</rscale>
<asrwt>0</asrwt>
<pdfrwt beam="2">  1        2 0.21773264E-01 0.77351540E+02</pdfrwt>
<pdfrwt beam="1">  1       -2 0.17384659E-01 0.77351540E+02</pdfrwt>
<totfact> 0.61181830E+03</totfact>
</mgrwt>
</event>
<event>
 4    1  0.7653521E+003  0.2806151E+02  0.7546771E-02  0.1620561E+00
         -2   -1    0    0    0  501 -0.00000000000E+00  0.00000000000E+00  0.53313181854E+01  0.53313181854E+01  0.00000000000E+00 0. -1.
          2   -1    0    0  501    0  0.00000000000E+00 -0.00000000000E+00 -0.14922324120E+03  0.14922324120E+03  0.00000000000E+00 0. -1.
          2    1    1    2  502    0 -0.17568850094E+02 -0.21881128470E+02 -0.79747518179E+02  0.84540611143E+02  0.00000000000E+00 0. -1.
         -2    1    1    2    0  502  0.17568850094E+02  0.21881128470E+02 -0.64144404833E+02  0.70013948240E+02  0.00000000000E+00 0. -1.
<mgrwt>
<rscale>  2 0.28061509E+02</rscale>
<asrwt>0</asrwt>
<pdfrwt beam="2">  1        2 0.22957419E-01 0.28061509E+02</pdfrwt>
<pdfrwt beam="1">  1       -2 0.82020289E-03 0.28061509E+02</pdfrwt>
<totfact> 0.41389663E+05</totfact>
</mgrwt>
</event>
<event>
 4    1  0.7653521E+003  0.2028536E+02  0.7546771E-02  0.1739712E+00
         -2   -1    0    0    0  501 -0.00000000000E+00  0.00000000000E+00  0.97849008612E+02  0.97849008612E+02  0.00000000000E+00 0. -1.
          2   -1    0    0  501    0  0.00000000000E+00 -0.00000000000E+00 -0.42151290457E+01  0.42151290457E+01  0.00000000000E+00 0.  1.
          2    1    1    2  502    0  0.35851661746E+01 -0.19966032421E+02  0.44367329435E+02  0.48784790543E+02  0.00000000000E+00 0.  1.
         -2    1    1    2    0  502 -0.35851661746E+01  0.19966032421E+02  0.49266550131E+02  0.53279347115E+02  0.00000000000E+00 0. -1.
<mgrwt>
<rscale>  2 0.20285361E+02</rscale>
<asrwt>0</asrwt>
<pdfrwt beam="2">  1        2 0.64848146E-03 0.20285361E+02</pdfrwt>
<pdfrwt beam="1">  1       -2 0.15053692E-01 0.20285361E+02</pdfrwt>
<totfact> 0.47223379E+05</totfact>
</mgrwt>
</event>
<event>
 4    1  0.7653521E+003  0.2284361E+02  0.7546771E-02  0.1694058E+00
         -2   -1    0    0    0  501 -0.00000000000E+00  0.00000000000E+00  0.35817116734E+02  0.35817116734E+02  0.00000000000E+00 0.  1.
          2   -1    0    0  501    0  0.00000000000E+00 -0.00000000000E+00 -0.94676492904E+03  0.94676492904E+03  0.00000000000E+00 0.  1.
          2    1    1    2  502    0  0.54575359136E+01 -0.22182104710E+02 -0.94297015438E+03  0.94324680891E+03  0.00000000000E+00 0.  1.
         -2    1    1    2    0  502 -0.54575359136E+01  0.22182104710E+02  0.32022342071E+02  0.39335236866E+02  0.00000000000E+00 0.  1.
<mgrwt>
<rscale>  2 0.22843609E+02</rscale>
<asrwt>0</asrwt>
<pdfrwt beam="2">  1        2 0.14565615E+00 0.22843609E+02</pdfrwt>
<pdfrwt beam="1">  1       -2 0.55103254E-02 0.22843609E+02</pdfrwt>
<totfact> 0.42021537E+03</totfact>
</mgrwt>
</event>
<event>
 4    1  0.7653521E+003  0.3282199E+02  0.7546771E-02  0.1568838E+00
         -2   -1    0    0    0  501 -0.00000000000E+00  0.00000000000E+00  0.93453758457E+03  0.93453758457E+03  0.00000000000E+00 0. -1.
          2   -1    0    0  501    0  0.00000000000E+00 -0.00000000000E+00 -0.18345499527E+01  0.18345499527E+01  0.00000000000E+00 0.  1.
          2    1    1    2  502    0 -0.71894503931E+01 -0.32024911325E+02  0.18093183274E+03  0.18388477708E+03  0.00000000000E+00 0.  1.
         -2    1    1    2    0  502  0.71894503931E+01  0.32024911325E+02  0.75177120188E+03  0.75248735744E+03  0.00000000000E+00 0. -1.
<mgrwt>
<rscale>  2 0.32821992E+02</rscale>
<asrwt>0</asrwt>
<pdfrwt beam="2">  1        2 0.28223920E-03 0.32821992E+02</pdfrwt>
<pdfrwt beam="1">  1       -2 0.14377463E+00 0.32821992E+02</pdfrwt>
<totfact> 0.21576678E+04</totfact>
</mgrwt>
</event>
<event>
 4    1  0.7653521E+003  0.3685971E+02  0.7546771E-02  0.1532680E+00
          2   -1    0    0  501    0  0.00000000000E+00  0.00000000000E+00  0.13539265086E+04  0.13539265086E+04  0.00000000000E+00 0.  1.
         -2   -1    0    0    0  501 -0.00000000000E+00 -0.00000000000E+00 -0.71326470844E+01  0.71326470844E+01  0.00000000000E+00 0. -1.
          2    1    1    2  502    0  0.35670409909E+02  0.92876252556E+01  0.13042415007E+04  0.13047622505E+04  0.00000000000E+00 0.  1.
         -2    1    1    2    0  502 -0.35670409909E+02 -0.92876252556E+01  0.42552360859E+02  0.56296905249E+02  0.00000000000E+00 0. -1.
<mgrwt>
<rscale>  2 0.36859709E+02</rscale>
<asrwt>0</asrwt>
<pdfrwt beam="1">  1        2 0.20829618E+00 0.36859709E+02</pdfrwt>
<pdfrwt beam="2">  1       -2 0.10973314E-02 0.36859709E+02</pdfrwt>
<totfact> 0.25788366E+04</totfact>
</mgrwt>
</event>
<event>
 4    1  0.7653521E+003  0.3014255E+02  0.7546771E-02  0.1596518E+00
         -2   -1    0    0    0  501 -0.00000000000E+00  0.00000000000E+00  0.21112673238E+01  0.21112673238E+01  0.00000000000E+00 0. -1.
          2   -1    0    0  501    0  0.00000000000E+00 -0.00000000000E+00 -0.14144366549E+04  0.14144366549E+04  0.00000000000E+00 0. -1.
          2    1    1    2  502    0  0.51698279666E+01 -0.29695897943E+02 -0.12969447342E+04  0.12972949615E+04  0.00000000000E+00 0. -1.
         -2    1    1    2    0  502 -0.51698279666E+01  0.29695897943E+02 -0.11538065336E+03  0.11925296074E+03  0.00000000000E+00 0. -1.
<mgrwt>
<rscale>  2 0.30142553E+02</rscale>
<asrwt>0</asrwt>
<pdfrwt beam="2">  1        2 0.21760613E+00 0.30142553E+02</pdfrwt>
<pdfrwt beam="1">  1       -2 0.32480963E-03 0.30142553E+02</pdfrwt>
<totfact> 0.12254849E+05</totfact>
</mgrwt>
</event>
<event>
 4    1  0.7653521E+003  0.5378709E+02  0.7546771E-02  0.1425923E+00
         -2   -1    0    0    0  501 -0.00000000000E+00  0.00000000000E+00  0.33767683741E+03  0.33767683741E+03  0.00000000000E+00 0. -1.
          2   -1    0    0  501    0  0.00000000000E+00 -0.00000000000E+00 -0.26505474545E+02  0.26505474545E+02  0.00000000000E+00 0. -1.
          2    1    1    2  502    0  0.44262190803E+02 -0.30559932382E+02  0.57871367230E+01  0.54097522617E+02  0.00000000000E+00 0. -1.
         -2    1    1    2    0  502 -0.44262190803E+02  0.30559932382E+02  0.30538422614E+03  0.31008478934E+03  0.00000000000E+00 0. -1.
<mgrwt>
<rscale>  2 0.53787090E+02</rscale>
<asrwt>0</asrwt>
<pdfrwt beam="2">  1        2 0.40777656E-02 0.53787090E+02</pdfrwt>
<pdfrwt beam="1">  1       -2 0.51950280E-01 0.53787090E+02</pdfrwt>
<totfact> 0.62974224E+03</totfact>
</mgrwt>
</event>
<event>
 4    1  0.7653521E+003  0.2638941E+02  0.7546771E-02  0.1641812E+00
          2   -1    0    0  501    0  0.00000000000E+00  0.00000000000E+00  0.86649250017E+03  0.86649250017E+03  0.00000000000E+00 0. -1.
         -2   -1    0    0    0  501 -0.00000000000E+00 -0.00000000000E+00 -0.46417139907E+02  0.46417139907E+02  0.00000000000E+00 0.  1.
          2    1    1    2  502    0 -0.16339888165E+02 -0.20722185858E+02  0.86252354485E+03  0.86292715008E+03  0.00000000000E+00 0. -1.
         -2    1    1    2    0  502  0.16339888165E+02  0.20722185858E+02 -0.42448184583E+02  0.49982489997E+02  0.00000000000E+00 0.  1.
<mgrwt>
<rscale>  2 0.26389409E+02</rscale>
<asrwt>0</asrwt>
<pdfrwt beam="1">  1        2 0.13330653E+00 0.26389409E+02</pdfrwt>
<pdfrwt beam="2">  1       -2 0.71410991E-02 0.26389409E+02</pdfrwt>
<totfact> 0.32520976E+03</totfact>
</mgrwt>
</event>
<event>
 4    1  0.7653521E+003  0.2168945E+02  0.7546771E-02  0.1713679E+00
         -2   -1    0    0    0  501 -0.00000000000E+00  0.00000000000E+00  0.28928950436E+02  0.28928950436E+02  0.00000000000E+00 0.  1.
          2   -1    0    0  501    0  0.00000000000E+00 -0.00000000000E+00 -0.17862938400E+02  0.17862938400E+02  0.00000000000E+00 0. -1.
          2    1    1    2  502    0 -0.11502266218E+02 -0.18388317185E+02 -0.14718549216E+01  0.21739335177E+02  0.00000000000E+00 0. -1.
         -2    1    1    2    0  502  0.11502266218E+02  0.18388317185E+02  0.12537866958E+02  0.25052553660E+02  0.00000000000E+00 0.  1.
<mgrwt>
<rscale>  2 0.21689452E+02</rscale>
<asrwt>0</asrwt>
<pdfrwt beam="2">  1        2 0.27481444E-02 0.21689452E+02</pdfrwt>
<pdfrwt beam="1">  1       -2 0.44506077E-02 0.21689452E+02</pdfrwt>
<totfact> 0.44905667E+05</totfact>
</mgrwt>
</event>
<event>
 4    1  0.7653521E+003  0.3094070E+02  0.7546771E-02  0.1587917E+00
          2   -1    0    0  501    0  0.00000000000E+00  0.00000000000E+00  0.24181851817E+02  0.24181851817E+02  0.00000000000E+00 0.  1.
         -2   -1    0    0    0  501 -0.00000000000E+00 -0.00000000000E+00 -0.47247792653E+02  0.47247792653E+02  0.00000000000E+00 0. -1.
          2    1    1    2  502    0  0.27097963607E+02 -0.14934093853E+02  0.28466658449E+01  0.31071374242E+02  0.00000000000E+00 0.  1.
         -2    1    1    2    0  502 -0.27097963607E+02  0.14934093853E+02 -0.25912606681E+02  0.40358270229E+02  0.00000000000E+00 0. -1.
<mgrwt>
<rscale>  2 0.30940698E+02</rscale>
<asrwt>0</asrwt>
<pdfrwt beam="1">  1        2 0.37202850E-02 0.30940698E+02</pdfrwt>
<pdfrwt beam="2">  1       -2 0.72688911E-02 0.30940698E+02</pdfrwt>
<totfact> 0.16748697E+05</totfact>
</mgrwt>
</event>
<event>
 4    1  0.7653521E+003  0.2153806E+02  0.7546771E-02  0.1716366E+00
          2   -1    0    0  501    0  0.00000000000E+00  0.00000000000E+00  0.10050401448E+04  0.10050401448E+04  0.00000000000E+00 0. -1.
         -2   -1    0    0    0  501 -0.00000000000E+00 -0.00000000000E+00 -0.25994113949E+01  0.25994113949E+01  0.00000000000E+00 0.  1.
          2    1    1    2  502    0 -0.13128389643E+02 -0.17074352648E+02  0.95812575266E+03  0.95836780311E+03  0.00000000000E+00 0. -1.
         -2    1    1    2    0  502  0.13128389643E+02  0.17074352648E+02  0.44314980706E+02  0.49271753043E+02  0.00000000000E+00 0.  1.
<mgrwt>
<rscale>  2 0.21538062E+02</rscale>
<asrwt>0</asrwt>
<pdfrwt beam="1">  1        2 0.15462125E+00 0.21538062E+02</pdfrwt>
<pdfrwt beam="2">  1       -2 0.39991025E-03 0.21538062E+02</pdfrwt>
<totfact> 0.13947787E+05</totfact>
</mgrwt>
</event>
<event>
 4    1  0.7653521E+003  0.3694114E+02  0.7546771E-02  0.1532009E+00
         -2   -1    0    0    0  501 -0.00000000000E+00  0.00000000000E+00  0.25914535369E+01  0.25914535369E+01  0.00000000000E+00 0.  1.
          2   -1    0    0  501    0  0.00000000000E+00 -0.00000000000E+00 -0.52722482474E+03  0.52722482474E+03  0.00000000000E+00 0.  1.
          2    1    1    2  502    0 -0.36941056628E+02  0.67328217860E-01 -0.25315987689E+03  0.25584090655E+03  0.00000000000E+00 0.  1.
         -2    1    1    2    0  502  0.36941056628E+02 -0.67328217860E-01 -0.27147349431E+03  0.27397537172E+03  0.00000000000E+00 0.  1.
<mgrwt>
<rscale>  2 0.36941136E+02</rscale>
<asrwt>0</asrwt>
<pdfrwt beam="2">  1        2 0.81111642E-01 0.36941136E+02</pdfrwt>
<pdfrwt beam="1">  1       -2 0.39868452E-03 0.36941136E+02</pdfrwt>
<totfact> 0.32754806E+05</totfact>
</mgrwt>
</event>
<event>
 4    1  0.7653521E+003  0.4329719E+02  0.7546771E-02  0.1485261E+00
          2   -1    0    0  501    0  0.00000000000E+00  0.00000000000E+00  0.38517480686E+03  0.38517480686E+03  0.00000000000E+00 0. -1.
         -2   -1    0    0    0  501 -0.00000000000E+00 -0.00000000000E+00 -0.71427156735E+01  0.71427156735E+01  0.00000000000E+00 0. -1.
          2    1    1    2  502    0 -0.29652641599E+02 -0.31549446974E+02  0.29973826644E+03  0.30284926139E+03  0.00000000000E+00 0. -1.
         -2    1    1    2    0  502  0.29652641599E+02  0.31549446974E+02  0.78293824754E+02  0.89468261147E+02  0.00000000000E+00 0. -1.
<mgrwt>
<rscale>  2 0.43297191E+02</rscale>
<asrwt>0</asrwt>
<pdfrwt beam="1">  1        2 0.59257646E-01 0.43297191E+02</pdfrwt>
<pdfrwt beam="2">  1       -2 0.10988796E-02 0.43297191E+02</pdfrwt>
<totfact> 0.11644493E+05</totfact>
</mgrwt>
</event>
<event>
 4    1  0.7653521E+003  0.2067424E+02  0.7546771E-02  0.1732243E+00
         -2   -1    0    0    0  501 -0.00000000000E+00  0.00000000000E+00  0.37473440120E+02  0.37473440120E+02  0.00000000000E+00 0. -1.
          2   -1    0    0  501    0  0.00000000000E+00 -0.00000000000E+00 -0.50860888300E+02  0.50860888300E+02  0.00000000000E+00 0. -1.
          2    1    1    2  502    0  0.39743289096E+01  0.20288641969E+02 -0.45594443024E+02  0.50062735821E+02  0.00000000000E+00 0. -1.
         -2    1    1    2    0  502 -0.39743289096E+01 -0.20288641969E+02  0.32206994844E+02  0.38271592600E+02  0.00000000000E+00 0. -1.
<mgrwt>
<rscale>  2 0.20674242E+02</rscale>
<asrwt>0</asrwt>
<pdfrwt beam="2">  1        2 0.78247520E-02 0.20674242E+02</pdfrwt>
<pdfrwt beam="1">  1       -2 0.57651447E-02 0.20674242E+02</pdfrwt>
<totfact> 0.85400725E+04</totfact>
</mgrwt>
</event>
<event>
 4    1  0.7653521E+003  0.2571236E+02  0.7546771E-02  0.1650976E+00
          2   -1    0    0  501    0  0.00000000000E+00  0.00000000000E+00  0.36124862154E+03  0.36124862154E+03  0.00000000000E+00 0.  1.
         -2   -1    0    0    0  501 -0.00000000000E+00 -0.00000000000E+00 -0.79494335800E+01  0.79494335800E+01  0.00000000000E+00 0.  1.
          2    1    1    2  502    0 -0.24407617474E+02 -0.80866288621E+01  0.33861153115E+03  0.33958635777E+03  0.00000000000E+00 0.  1.
         -2    1    1    2    0  502  0.24407617474E+02  0.80866288621E+01  0.14687656805E+02  0.29611697343E+02  0.00000000000E+00 0.  1.
<mgrwt>
<rscale>  2 0.25712358E+02</rscale>
<asrwt>0</asrwt>
<pdfrwt beam="1">  1        2 0.55576698E-01 0.25712358E+02</pdfrwt>
<pdfrwt beam="2">  1       -2 0.12229901E-02 0.25712358E+02</pdfrwt>
<totfact> 0.96234530E+04</totfact>
</mgrwt>
</event>
<event>
 4    1  0.7653521E+003  0.2268506E+02  0.7546771E-02  0.1696667E+00
          2   -1    0    0  501    0  0.00000000000E+00  0.00000000000E+00  0.89395013860E+03  0.89395013860E+03  0.00000000000E+00 0.  1.
         -2   -1    0    0    0  501 -0.00000000000E+00 -0.00000000000E+00 -0.21042600089E+02  0.21042600089E+02  0.00000000000E+00 0.  1.
          2    1    1    2  502    0  0.84183030505E+01 -0.21065235051E+02  0.88764889875E+03  0.88793872503E+03  0.00000000000E+00 0.  1.
         -2    1    1    2    0  502 -0.84183030505E+01  0.21065235051E+02 -0.14741360232E+02  0.27054013667E+02  0.00000000000E+00 0.  1.
<mgrwt>
<rscale>  2 0.22685060E+02</rscale>
<asrwt>0</asrwt>
<pdfrwt beam="1">  1        2 0.13753076E+00 0.22685060E+02</pdfrwt>
<pdfrwt beam="2">  1       -2 0.32373238E-02 0.22685060E+02</pdfrwt>
<totfact> 0.95157699E+03</totfact>
</mgrwt>
</event>
<event>
 4    1  0.7653521E+003  0.2506470E+02  0.7546771E-02  0.1660074E+00
          2   -1    0    0  501    0  0.00000000000E+00  0.00000000000E+00  0.11602489351E+04  0.11602489351E+04  0.00000000000E+00 0. -1.
         -2   -1    0    0    0  501 -0.00000000000E+00 -0.00000000000E+00 -0.13044175466E+03  0.13044175466E+03  0.00000000000E+00 0.  1.
          2    1    1    2  502    0  0.24988505283E+02 -0.19528490441E+01  0.11589081145E+04  0.11591791306E+04  0.00000000000E+00 0. -1.
         -2    1    1    2    0  502 -0.24988505283E+02  0.19528490441E+01 -0.12910093405E+03  0.13151155914E+03  0.00000000000E+00 0.  1.
<mgrwt>
<rscale>  2 0.25064697E+02</rscale>
<asrwt>0</asrwt>
<pdfrwt beam="1">  1        2 0.17849983E+00 0.25064697E+02</pdfrwt>
<pdfrwt beam="2">  1       -2 0.20067963E-01 0.25064697E+02</pdfrwt>
<totfact> 0.46379097E+02</totfact>
</mgrwt>
</event>
<event>
 4    1  0.7653521E+003  0.2994601E+02  0.7546771E-02  0.1598686E+00
          2   -1    0    0  501    0  0.00000000000E+00  0.00000000000E+00  0.12881503730E+03  0.12881503730E+03  0.00000000000E+00 0.  1.
         -2   -1    0    0    0  501 -0.00000000000E+00 -0.00000000000E+00 -0.53495584619E+02  0.53495584619E+02  0.00000000000E+00 0.  1.
          2    1    1    2  502    0  0.29945998803E+02 -0.24377079986E-01  0.12267715381E+03  0.12627924416E+03  0.00000000000E+00 0.  1.
         -2    1    1    2    0  502 -0.29945998803E+02  0.24377079986E-01 -0.47357701123E+02  0.56031377765E+02  0.00000000000E+00 0.  1.
<mgrwt>
<rscale>  2 0.29946009E+02</rscale>
<asrwt>0</asrwt>
<pdfrwt beam="1">  1        2 0.19817698E-01 0.29946009E+02</pdfrwt>
<pdfrwt beam="2">  1       -2 0.82300900E-02 0.29946009E+02</pdfrwt>
<totfact> 0.19326350E+04</totfact>
</mgrwt>
</event>
<event>
 4    1  0.7653521E+003  0.3245109E+02  0.7546771E-02  0.1572475E+00
          2   -1    0    0  501    0  0.00000000000E+00  0.00000000000E+00  0.10495826259E+04  0.10495826259E+04  0.00000000000E+00 0. -1.
         -2   -1    0    0    0  501 -0.00000000000E+00 -0.00000000000E+00 -0.19441125021E+03  0.19441125021E+03  0.00000000000E+00 0.  1.
          2    1    1    2  502    0  0.16612107337E+02  0.27876715692E+02  0.10479755356E+04  0.10484778475E+04  0.00000000000E+00 0. -1.
         -2    1    1    2    0  502 -0.16612107337E+02 -0.27876715692E+02 -0.19280415990E+03  0.19551602866E+03  0.00000000000E+00 0.  1.
<mgrwt>
<rscale>  2 0.32451092E+02</rscale>
<asrwt>0</asrwt>
<pdfrwt beam="1">  1        2 0.16147425E+00 0.32451092E+02</pdfrwt>
<pdfrwt beam="2">  1       -2 0.29909424E-01 0.32451092E+02</pdfrwt>
<totfact> 0.27119573E+02</totfact>
</mgrwt>
</event>
<event>
 4    1  0.7653521E+003  0.2964011E+02  0.7546771E-02  0.1602101E+00
          2   -1    0    0  501    0  0.00000000000E+00  0.00000000000E+00  0.11550495075E+03  0.11550495075E+03  0.00000000000E+00 0.  1.
         -2   -1    0    0    0  501 -0.00000000000E+00 -0.00000000000E+00 -0.20346832872E+02  0.20346832872E+02  0.00000000000E+00 0. -1.
          2    1    1    2  502    0  0.28692349342E+02  0.74353860492E+01  0.10132987710E+03  0.10557594361E+03  0.00000000000E+00 0.  1.
         -2    1    1    2    0  502 -0.28692349342E+02 -0.74353860492E+01 -0.61717592217E+01  0.30275840011E+02  0.00000000000E+00 0. -1.
<mgrwt>
<rscale>  2 0.29640106E+02</rscale>
<asrwt>0</asrwt>
<pdfrwt beam="1">  1        2 0.17769992E-01 0.29640106E+02</pdfrwt>
<pdfrwt beam="2">  1       -2 0.31302820E-02 0.29640106E+02</pdfrwt>
<totfact> 0.87102382E+04</totfact>
</mgrwt>
</event>
<event>
 4    1  0.7653521E+003  0.2089543E+02  0.7546771E-02  0.1728086E+00
          2   -1    0    0  501    0  0.00000000000E+00  0.00000000000E+00  0.97989112307E+03  0.97989112307E+03  0.00000000000E+00 0.  1.
         -2   -1    0    0    0  501 -0.00000000000E+00 -0.00000000000E+00 -0.22247268457E+02  0.22247268457E+02  0.00000000000E+00 0.  1.
          2    1    1    2  502    0 -0.14860353773E+01 -0.20842521553E+02  0.97484791475E+03  0.97507183114E+03  0.00000000000E+00 0.  1.
         -2    1    1    2    0  502  0.14860353773E+01  0.20842521553E+02 -0.17204060133E+02  0.27066560382E+02  0.00000000000E+00 0.  1.
<mgrwt>
<rscale>  2 0.20895430E+02</rscale>
<asrwt>0</asrwt>
<pdfrwt beam="1">  1        2 0.15075245E+00 0.20895430E+02</pdfrwt>
<pdfrwt beam="2">  1       -2 0.34226574E-02 0.20895430E+02</pdfrwt>
<totfact> 0.78085240E+03</totfact>
</mgrwt>
</event>
<event>
 4    1  0.7653521E+003  0.2530253E+02  0.7546771E-02  0.1656694E+00
         -2   -1    0    0    0  501 -0.00000000000E+00  0.00000000000E+00  0.17078348131E+01  0.17078348131E+01  0.00000000000E+00 0.  1.
          2   -1    0    0  501    0  0.00000000000E+00 -0.00000000000E+00 -0.18657203879E+04  0.18657203879E+04  0.00000000000E+00 0. -1.
          2    1    1    2  502    0  0.23424940580E+02  0.95650560574E+01 -0.17666622306E+04  0.17668434156E+04  0.00000000000E+00 0. -1.
         -2    1    1    2    0  502 -0.23424940580E+02 -0.95650560574E+01 -0.97350322521E+02  0.10058480717E+03  0.00000000000E+00 0.  1.
<mgrwt>
<rscale>  2 0.25302532E+02</rscale>
<asrwt>0</asrwt>
<pdfrwt beam="2">  1        2 0.28703475E+00 0.25302532E+02</pdfrwt>
<pdfrwt beam="1">  1       -2 0.26274305E-03 0.25302532E+02</pdfrwt>
<totfact> 0.96511736E+04</totfact>
</mgrwt>
</event>
<event>
 4    1  0.7653521E+003  0.2888563E+02  0.7546771E-02  0.1610744E+00
         -2   -1    0    0    0  501 -0.00000000000E+00  0.00000000000E+00  0.24281423904E+01  0.24281423904E+01  0.00000000000E+00 0. -1.
          2   -1    0    0  501    0  0.00000000000E+00 -0.00000000000E+00 -0.34480625563E+03  0.34480625563E+03  0.00000000000E+00 0. -1.
          2    1    1    2  502    0  0.11851458088E+02  0.26342405940E+02 -0.18133508708E+03  0.18362133105E+03  0.00000000000E+00 0. -1.
         -2    1    1    2    0  502 -0.11851458088E+02 -0.26342405940E+02 -0.16104302616E+03  0.16361306697E+03  0.00000000000E+00 0. -1.
<mgrwt>
<rscale>  2 0.28885626E+02</rscale>
<asrwt>0</asrwt>
<pdfrwt beam="2">  1        2 0.53047137E-01 0.28885626E+02</pdfrwt>
<pdfrwt beam="1">  1       -2 0.37356022E-03 0.28885626E+02</pdfrwt>
<totfact> 0.51688996E+05</totfact>
</mgrwt>
</event>
<event>
 4    1  0.7653521E+003  0.8525925E+02  0.7546771E-02  0.1314756E+00
         -2   -1    0    0    0  501 -0.00000000000E+00  0.00000000000E+00  0.32147865723E+03  0.32147865723E+03  0.00000000000E+00 0.  1.
          2   -1    0    0  501    0  0.00000000000E+00 -0.00000000000E+00 -0.20512488531E+03  0.20512488531E+03  0.00000000000E+00 0. -1.
          2    1    1    2  502    0 -0.33763318110E+02 -0.78289066415E+02 -0.19018895976E+03  0.20842499846E+03  0.00000000000E+00 0. -1.
         -2    1    1    2    0  502  0.33763318110E+02  0.78289066415E+02  0.30654273168E+03  0.31817854408E+03  0.00000000000E+00 0.  1.
<mgrwt>
<rscale>  2 0.85259249E+02</rscale>
<asrwt>0</asrwt>
<pdfrwt beam="2">  1        2 0.31557675E-01 0.85259249E+02</pdfrwt>
<pdfrwt beam="1">  1       -2 0.49458255E-01 0.85259249E+02</pdfrwt>
<totfact> 0.64101577E+02</totfact>
</mgrwt>
</event>
<event>
 4    1  0.7653521E+003  0.5037536E+02  0.7546771E-02  0.1443327E+00
          2   -1    0    0  501    0  0.00000000000E+00  0.00000000000E+00  0.59337972070E+02  0.59337972070E+02  0.00000000000E+00 0. -1.
         -2   -1    0    0    0  501 -0.00000000000E+00 -0.00000000000E+00 -0.12117134200E+03  0.12117134200E+03  0.00000000000E+00 0.  1.
          2    1    1    2  502    0 -0.47969136152E+02 -0.15383074942E+02  0.41684067233E+02  0.65385307822E+02  0.00000000000E+00 0. -1.
         -2    1    1    2    0  502  0.47969136152E+02  0.15383074942E+02 -0.10351743716E+03  0.11512400625E+03  0.00000000000E+00 0.  1.
<mgrwt>
<rscale>  2 0.50375361E+02</rscale>
<asrwt>0</asrwt>
<pdfrwt beam="1">  1        2 0.91289189E-02 0.50375361E+02</pdfrwt>
<pdfrwt beam="2">  1       -2 0.18641745E-01 0.50375361E+02</pdfrwt>
<totfact> 0.14165751E+04</totfact>
</mgrwt>
</event>
<event>
 4    1  0.7653521E+003  0.2386067E+02  0.7546771E-02  0.1677927E+00
         -2   -1    0    0    0  501 -0.00000000000E+00  0.00000000000E+00  0.18329520406E+02  0.18329520406E+02  0.00000000000E+00 0.  1.
          2   -1    0    0  501    0  0.00000000000E+00 -0.00000000000E+00 -0.68212398950E+03  0.68212398950E+03  0.00000000000E+00 0.  1.
          2    1    1    2  502    0 -0.15617698864E+02 -0.18039375544E+02 -0.67405719923E+03  0.67447938398E+03  0.00000000000E+00 0.  1.
         -2    1    1    2    0  502  0.15617698864E+02  0.18039375544E+02  0.10262730131E+02  0.25974125925E+02  0.00000000000E+00 0.  1.
<mgrwt>
<rscale>  2 0.23860670E+02</rscale>
<asrwt>0</asrwt>
<pdfrwt beam="2">  1        2 0.10494214E+00 0.23860670E+02</pdfrwt>
<pdfrwt beam="1">  1       -2 0.28199265E-02 0.23860670E+02</pdfrwt>
<totfact> 0.15741059E+04</totfact>
</mgrwt>
</event>
<event>
 4    1  0.7653521E+003  0.2358714E+02  0.7546771E-02  0.1682166E+00
         -2   -1    0    0    0  501 -0.00000000000E+00  0.00000000000E+00  0.12419230040E+03  0.12419230040E+03  0.00000000000E+00 0.  1.
          2   -1    0    0  501    0  0.00000000000E+00 -0.00000000000E+00 -0.51938922620E+03  0.51938922620E+03  0.00000000000E+00 0. -1.
          2    1    1    2  502    0  0.21691997817E+02 -0.92633863553E+01 -0.51799848610E+03  0.51853522994E+03  0.00000000000E+00 0. -1.
         -2    1    1    2    0  502 -0.21691997817E+02  0.92633863553E+01  0.12280156029E+03  0.12504629665E+03  0.00000000000E+00 0.  1.
<mgrwt>
<rscale>  2 0.23587138E+02</rscale>
<asrwt>0</asrwt>
<pdfrwt beam="2">  1        2 0.79906035E-01 0.23587138E+02</pdfrwt>
<pdfrwt beam="1">  1       -2 0.19106508E-01 0.23587138E+02</pdfrwt>
<totfact> 0.12587828E+03</totfact>
</mgrwt>
</event>
<event>
 4    1  0.7653521E+003  0.2073895E+02  0.7546771E-02  0.1731020E+00
         -2   -1    0    0    0  501 -0.00000000000E+00  0.00000000000E+00  0.49633827942E+01  0.49633827942E+01  0.00000000000E+00 0.  1.
          2   -1    0    0  501    0  0.00000000000E+00 -0.00000000000E+00 -0.55486277111E+03  0.55486277111E+03  0.00000000000E+00 0. -1.
          2    1    1    2  502    0  0.58653255721E+01 -0.19892261279E+02 -0.53207777087E+03  0.53248179158E+03  0.00000000000E+00 0. -1.
         -2    1    1    2    0  502 -0.58653255721E+01  0.19892261279E+02 -0.17821617443E+02  0.27344362328E+02  0.00000000000E+00 0.  1.
<mgrwt>
<rscale>  2 0.20738951E+02</rscale>
<asrwt>0</asrwt>
<pdfrwt beam="2">  1        2 0.85363471E-01 0.20738951E+02</pdfrwt>
<pdfrwt beam="1">  1       -2 0.76359764E-03 0.20738951E+02</pdfrwt>
<totfact> 0.11267576E+05</totfact>
</mgrwt>
</event>
<event>
 4    1  0.7653521E+003  0.2850711E+02  0.7546771E-02  0.1615202E+00
         -2   -1    0    0    0  501 -0.00000000000E+00  0.00000000000E+00  0.64327347426E+01  0.64327347426E+01  0.00000000000E+00 0. -1.
          2   -1    0    0  501    0  0.00000000000E+00 -0.00000000000E+00 -0.12301865605E+04  0.12301865605E+04  0.00000000000E+00 0. -1.
          2    1    1    2  502    0  0.24823402691E+02 -0.14016198899E+02 -0.11975787925E+04  0.11979180353E+04  0.00000000000E+00 0. -1.
         -2    1    1    2    0  502 -0.24823402691E+02  0.14016198899E+02 -0.26175033292E+02  0.38701259935E+02  0.00000000000E+00 0. -1.
<mgrwt>
<rscale>  2 0.28507107E+02</rscale>
<asrwt>0</asrwt>
<pdfrwt beam="2">  1        2 0.18925941E+00 0.28507107E+02</pdfrwt>
<pdfrwt beam="1">  1       -2 0.98965181E-03 0.28507107E+02</pdfrwt>
<totfact> 0.33122158E+04</totfact>
</mgrwt>
</event>
<event>
 4    1  0.7653521E+003  0.2001664E+02  0.7546771E-02  0.1744997E+00
          2   -1    0    0  501    0  0.00000000000E+00  0.00000000000E+00  0.69172301573E+03  0.69172301573E+03  0.00000000000E+00 0.  1.
         -2   -1    0    0    0  501 -0.00000000000E+00 -0.00000000000E+00 -0.13287650441E+01  0.13287650441E+01  0.00000000000E+00 0. -1.
          2    1    1    2  502    0  0.14799376157E+02 -0.13477552716E+02  0.60545739821E+03  0.60578818659E+03  0.00000000000E+00 0.  1.
         -2    1    1    2    0  502 -0.14799376157E+02  0.13477552716E+02  0.84936852478E+02  0.87263594188E+02  0.00000000000E+00 0. -1.
<mgrwt>
<rscale>  2 0.20016642E+02</rscale>
<asrwt>0</asrwt>
<pdfrwt beam="1">  1        2 0.10641864E+00 0.20016642E+02</pdfrwt>
<pdfrwt beam="2">  1       -2 0.20442594E-03 0.20016642E+02</pdfrwt>
<totfact> 0.51110434E+05</totfact>
</mgrwt>
</event>
<event>
 4    1  0.7653521E+003  0.3527427E+02  0.7546771E-02  0.1546178E+00
          2   -1    0    0  501    0  0.00000000000E+00  0.00000000000E+00  0.34517964996E+01  0.34517964996E+01  0.00000000000E+00 0.  1.
         -2   -1    0    0    0  501 -0.00000000000E+00 -0.00000000000E+00 -0.50636919726E+03  0.50636919726E+03  0.00000000000E+00 0.  1.
          2    1    1    2  502    0  0.27861907348E+02 -0.21633039239E+02 -0.11462965534E+03  0.11993428263E+03  0.00000000000E+00 0.  1.
         -2    1    1    2    0  502 -0.27861907348E+02  0.21633039239E+02 -0.38828774542E+03  0.38988671112E+03  0.00000000000E+00 0.  1.
<mgrwt>
<rscale>  2 0.35274272E+02</rscale>
<asrwt>0</asrwt>
<pdfrwt beam="1">  1        2 0.53104549E-03 0.35274272E+02</pdfrwt>
<pdfrwt beam="2">  1       -2 0.77902972E-01 0.35274272E+02</pdfrwt>
<totfact> 0.37931538E+04</totfact>
</mgrwt>
</event>
<event>
 4    1  0.7653521E+003  0.3174048E+02  0.7546771E-02  0.1579610E+00
         -2   -1    0    0    0  501 -0.00000000000E+00  0.00000000000E+00  0.51574010173E+00  0.51574010173E+00  0.00000000000E+00 0. -1.
          2   -1    0    0  501    0  0.00000000000E+00 -0.00000000000E+00 -0.27941203020E+04  0.27941203020E+04  0.00000000000E+00 0. -1.
          2    1    1    2  502    0 -0.21710302054E+02  0.23154286216E+02 -0.21632679949E+04  0.21635008379E+04  0.00000000000E+00 0. -1.
         -2    1    1    2    0  502  0.21710302054E+02 -0.23154286216E+02 -0.63033656701E+03  0.63113520413E+03  0.00000000000E+00 0. -1.
<mgrwt>
<rscale>  2 0.31740482E+02</rscale>
<asrwt>0</asrwt>
<pdfrwt beam="2">  1        2 0.42985595E+00 0.31740482E+02</pdfrwt>
<pdfrwt beam="1">  1       -2 0.79346239E-04 0.31740482E+02</pdfrwt>
<totfact> 0.17392967E+05</totfact>
</mgrwt>
</event>
<event>
 4    1  0.7653521E+003  0.2002092E+02  0.7546771E-02  0.1744912E+00
          2   -1    0    0  501    0  0.00000000000E+00  0.00000000000E+00  0.14740014902E+04  0.14740014902E+04  0.00000000000E+00 0. -1.
         -2   -1    0    0    0  501 -0.00000000000E+00 -0.00000000000E+00 -0.41535194717E+00  0.41535194717E+00  0.00000000000E+00 0.  1.
          2    1    1    2  502    0 -0.62906913434E+01  0.19006955429E+02  0.11699823663E+04  0.11701536543E+04  0.00000000000E+00 0. -1.
         -2    1    1    2    0  502  0.62906913434E+01 -0.19006955429E+02  0.30360377199E+03  0.30426318792E+03  0.00000000000E+00 0.  1.
<mgrwt>
<rscale>  2 0.20020918E+02</rscale>
<asrwt>0</asrwt>
<pdfrwt beam="1">  1        2 0.22676527E+00 0.20020918E+02</pdfrwt>
<pdfrwt beam="2">  1       -2 0.63901480E-04 0.20020918E+02</pdfrwt>
<totfact> 0.89685445E+05</totfact>
</mgrwt>
</event>
<event>
 4    1  0.7653521E+003  0.2389045E+02  0.7546771E-02  0.1677470E+00
         -2   -1    0    0    0  501 -0.00000000000E+00  0.00000000000E+00  0.19841044693E+01  0.19841044693E+01  0.00000000000E+00 0. -1.
          2   -1    0    0  501    0  0.00000000000E+00 -0.00000000000E+00 -0.59116457300E+03  0.59116457300E+03  0.00000000000E+00 0. -1.
          2    1    1    2  502    0 -0.68897004714E+01  0.22875434232E+02 -0.50709067577E+03  0.50765313642E+03  0.00000000000E+00 0. -1.
         -2    1    1    2    0  502  0.68897004714E+01 -0.22875434232E+02 -0.82089792762E+02  0.85495541051E+02  0.00000000000E+00 0. -1.
<mgrwt>
<rscale>  2 0.23890447E+02</rscale>
<asrwt>0</asrwt>
<pdfrwt beam="2">  1        2 0.90948360E-01 0.23890447E+02</pdfrwt>
<pdfrwt beam="1">  1       -2 0.30524696E-03 0.23890447E+02</pdfrwt>
<totfact> 0.37300153E+05</totfact>
</mgrwt>
</event>
<event>
 4    1  0.7653521E+003  0.2207264E+02  0.7546771E-02  0.1706999E+00
          2   -1    0    0  501    0  0.00000000000E+00  0.00000000000E+00  0.29090900501E+03  0.29090900501E+03  0.00000000000E+00 0.  1.
         -2   -1    0    0    0  501 -0.00000000000E+00 -0.00000000000E+00 -0.21346195697E+01  0.21346195697E+01  0.00000000000E+00 0.  1.
          2    1    1    2  502    0 -0.13719340897E+02  0.17291066423E+02  0.21239472916E+03  0.21353857326E+03  0.00000000000E+00 0.  1.
         -2    1    1    2    0  502  0.13719340897E+02 -0.17291066423E+02  0.76379656280E+02  0.79505051325E+02  0.00000000000E+00 0.  1.
<mgrwt>
<rscale>  2 0.22072637E+02</rscale>
<asrwt>0</asrwt>
<pdfrwt beam="1">  1        2 0.44755200E-01 0.22072637E+02</pdfrwt>
<pdfrwt beam="2">  1       -2 0.32840324E-03 0.22072637E+02</pdfrwt>
<totfact> 0.67098018E+05</totfact>
</mgrwt>
</event>
<event>
 4    1  0.7653521E+003  0.2282446E+02  0.7546771E-02  0.1694371E+00
         -2   -1    0    0    0  501 -0.00000000000E+00  0.00000000000E+00  0.26099605385E+01  0.26099605385E+01  0.00000000000E+00 0. -1.
          2   -1    0    0  501    0  0.00000000000E+00 -0.00000000000E+00 -0.90105556193E+03  0.90105556193E+03  0.00000000000E+00 0. -1.
          2    1    1    2  502    0 -0.22581332148E+02  0.33225617851E+01 -0.84788134932E+03  0.84818850411E+03  0.00000000000E+00 0. -1.
         -2    1    1    2    0  502  0.22581332148E+02 -0.33225617851E+01 -0.50564252064E+02  0.55477018352E+02  0.00000000000E+00 0. -1.
<mgrwt>
<rscale>  2 0.22824460E+02</rscale>
<asrwt>0</asrwt>
<pdfrwt beam="2">  1        2 0.13862387E+00 0.22824460E+02</pdfrwt>
<pdfrwt beam="1">  1       -2 0.40153257E-03 0.22824460E+02</pdfrwt>
<totfact> 0.16055888E+05</totfact>
</mgrwt>
</event>
<event>
 4    1  0.7653521E+003  0.2049570E+02  0.7546771E-02  0.1735646E+00
         -2   -1    0    0    0  501 -0.00000000000E+00  0.00000000000E+00  0.18462840976E+02  0.18462840976E+02  0.00000000000E+00 0. -1.
          2   -1    0    0  501    0  0.00000000000E+00 -0.00000000000E+00 -0.46723223164E+03  0.46723223164E+03  0.00000000000E+00 0. -1.
          2    1    1    2  502    0 -0.15520194824E+02 -0.13386455591E+02 -0.46124557747E+03  0.46170072166E+03  0.00000000000E+00 0. -1.
         -2    1    1    2    0  502  0.15520194824E+02  0.13386455591E+02  0.12476186809E+02  0.23994350959E+02  0.00000000000E+00 0. -1.
<mgrwt>
<rscale>  2 0.20495698E+02</rscale>
<asrwt>0</asrwt>
<pdfrwt beam="2">  1        2 0.71881880E-01 0.20495698E+02</pdfrwt>
<pdfrwt beam="1">  1       -2 0.28404371E-02 0.20495698E+02</pdfrwt>
<totfact> 0.22459012E+04</totfact>
</mgrwt>
</event>
<event>
 4    1  0.7653521E+003  0.2447035E+02  0.7546771E-02  0.1668728E+00
          2   -1    0    0  501    0  0.00000000000E+00  0.00000000000E+00  0.28370404742E+03  0.28370404742E+03  0.00000000000E+00 0. -1.
         -2   -1    0    0    0  501 -0.00000000000E+00 -0.00000000000E+00 -0.96588130603E+01  0.96588130603E+01  0.00000000000E+00 0.  1.
          2    1    1    2  502    0  0.23649639653E+02 -0.62843076739E+01  0.26669099927E+03  0.26781129003E+03  0.00000000000E+00 0. -1.
         -2    1    1    2    0  502 -0.23649639653E+02  0.62843076739E+01  0.73542350945E+01  0.25551570450E+02  0.00000000000E+00 0.  1.
<mgrwt>
<rscale>  2 0.24470349E+02</rscale>
<asrwt>0</asrwt>
<pdfrwt beam="1">  1        2 0.43646770E-01 0.24470349E+02</pdfrwt>
<pdfrwt beam="2">  1       -2 0.14859715E-02 0.24470349E+02</pdfrwt>
<totfact> 0.92666341E+04</totfact>
</mgrwt>
</event>
<event>
 4    1  0.7653521E+003  0.2310510E+02  0.7546771E-02  0.1689812E+00
          2   -1    0    0  501    0  0.00000000000E+00  0.00000000000E+00  0.55893983998E+03  0.55893983998E+03  0.00000000000E+00 0. -1.
         -2   -1    0    0    0  501 -0.00000000000E+00 -0.00000000000E+00 -0.16502351352E+02  0.16502351352E+02  0.00000000000E+00 0. -1.
          2    1    1    2  502    0  0.15269940506E+02  0.17339964412E+02  0.55048955807E+03  0.55097422715E+03  0.00000000000E+00 0. -1.
         -2    1    1    2    0  502 -0.15269940506E+02 -0.17339964412E+02 -0.80520694354E+01  0.24467964179E+02  0.00000000000E+00 0. -1.
<mgrwt>
<rscale>  2 0.23105096E+02</rscale>
<asrwt>0</asrwt>
<pdfrwt beam="1">  1        2 0.85990730E-01 0.23105096E+02</pdfrwt>
<pdfrwt beam="2">  1       -2 0.25388237E-02 0.23105096E+02</pdfrwt>
<totfact> 0.22333876E+04</totfact>
</mgrwt>
</event>
<event>
 4    1  0.7653521E+003  0.2012573E+02  0.7546771E-02  0.1742839E+00
          2   -1    0    0  501    0  0.00000000000E+00  0.00000000000E+00  0.88359421256E+01  0.88359421256E+01  0.00000000000E+00 0.  1.
         -2   -1    0    0    0  501 -0.00000000000E+00 -0.00000000000E+00 -0.56756361347E+02  0.56756361347E+02  0.00000000000E+00 0.  1.
          2    1    1    2  502    0  0.99268590652E+01 -0.17507215566E+02 -0.95774542966E+01  0.22288399642E+02  0.00000000000E+00 0.  1.
         -2    1    1    2    0  502 -0.99268590652E+01  0.17507215566E+02 -0.38342964924E+02  0.43303903831E+02  0.00000000000E+00 0.  1.
<mgrwt>
<rscale>  2 0.20125733E+02</rscale>
<asrwt>0</asrwt>
<pdfrwt beam="1">  1        2 0.13593757E-02 0.20125733E+02</pdfrwt>
<pdfrwt beam="2">  1       -2 0.87317477E-02 0.20125733E+02</pdfrwt>
<totfact> 0.40916336E+05</totfact>
</mgrwt>
</event>
<event>
 4    1  0.7653521E+003  0.2608261E+02  0.7546771E-02  0.1645922E+00
          2   -1    0    0  501    0  0.00000000000E+00  0.00000000000E+00  0.52448125261E+03  0.52448125261E+03  0.00000000000E+00 0. -1.
         -2   -1    0    0    0  501 -0.00000000000E+00 -0.00000000000E+00 -0.16958973840E+01  0.16958973840E+01  0.00000000000E+00 0. -1.
          2    1    1    2  502    0 -0.98193535158E+01 -0.24163669918E+02  0.38897203640E+03  0.38984554345E+03  0.00000000000E+00 0. -1.
         -2    1    1    2    0  502  0.98193535158E+01  0.24163669918E+02  0.13381331883E+03  0.13633160654E+03  0.00000000000E+00 0. -1.
<mgrwt>
<rscale>  2 0.26082612E+02</rscale>
<asrwt>0</asrwt>
<pdfrwt beam="1">  1        2 0.80689294E-01 0.26082612E+02</pdfrwt>
<pdfrwt beam="2">  1       -2 0.26090771E-03 0.26082612E+02</pdfrwt>
<totfact> 0.53326266E+05</totfact>
</mgrwt>
</event>
<event>
 4    1  0.7653521E+003  0.2222169E+02  0.7546771E-02  0.1704446E+00
          2   -1    0    0  501    0  0.00000000000E+00  0.00000000000E+00  0.23274302535E+03  0.23274302535E+03  0.00000000000E+00 0. -1.
         -2   -1    0    0    0  501 -0.00000000000E+00 -0.00000000000E+00 -0.39006245799E+01  0.39006245799E+01  0.00000000000E+00 0.  1.
          2    1    1    2  502    0  0.20805429675E+02  0.78062467554E+01  0.19432740006E+03  0.19559381843E+03  0.00000000000E+00 0. -1.
         -2    1    1    2    0  502 -0.20805429675E+02 -0.78062467554E+01  0.34515000703E+02  0.41049831496E+02  0.00000000000E+00 0.  1.
<mgrwt>
<rscale>  2 0.22221687E+02</rscale>
<asrwt>0</asrwt>
<pdfrwt beam="1">  1        2 0.35806608E-01 0.22221687E+02</pdfrwt>
<pdfrwt beam="2">  1       -2 0.60009627E-03 0.22221687E+02</pdfrwt>
<totfact> 0.37474263E+05</totfact>
</mgrwt>
</event>
<event>
 4    1  0.7653521E+003  0.2982311E+02  0.7546771E-02  0.1600052E+00
         -2   -1    0    0    0  501 -0.00000000000E+00  0.00000000000E+00  0.12867898134E+03  0.12867898134E+03  0.00000000000E+00 0.  1.
          2   -1    0    0  501    0  0.00000000000E+00 -0.00000000000E+00 -0.11398978789E+02  0.11398978789E+02  0.00000000000E+00 0.  1.
          2    1    1    2  502    0  0.23027528646E+02 -0.18951268762E+02  0.14697157707E+02  0.33247918850E+02  0.00000000000E+00 0.  1.
         -2    1    1    2    0  502 -0.23027528646E+02  0.18951268762E+02  0.10258284484E+03  0.10683004128E+03  0.00000000000E+00 0.  1.
<mgrwt>
<rscale>  2 0.29823106E+02</rscale>
<asrwt>0</asrwt>
<pdfrwt beam="2">  1        2 0.17536891E-02 0.29823106E+02</pdfrwt>
<pdfrwt beam="1">  1       -2 0.19796765E-01 0.29823106E+02</pdfrwt>
<totfact> 0.93640271E+04</totfact>
</mgrwt>
</event>
<event>
 4    1  0.7653521E+003  0.2742946E+02  0.7546771E-02  0.1628374E+00
          2   -1    0    0  501    0  0.00000000000E+00  0.00000000000E+00  0.17487854009E+04  0.17487854009E+04  0.00000000000E+00 0. -1.
         -2   -1    0    0    0  501 -0.00000000000E+00 -0.00000000000E+00 -0.35134106736E+03  0.35134106736E+03  0.00000000000E+00 0. -1.
          2    1    1    2  502    0 -0.26707191701E+02 -0.62531084661E+01  0.17481422874E+04  0.17483574670E+04  0.00000000000E+00 0. -1.
         -2    1    1    2    0  502  0.26707191701E+02  0.62531084661E+01 -0.35069795382E+03  0.35176900128E+03  0.00000000000E+00 0. -1.
<mgrwt>
<rscale>  2 0.27429463E+02</rscale>
<asrwt>0</asrwt>
<pdfrwt beam="1">  1        2 0.26904390E+00 0.27429463E+02</pdfrwt>
<pdfrwt beam="2">  1       -2 0.54052473E-01 0.27429463E+02</pdfrwt>
<totfact> 0.41902233E+01</totfact>
</mgrwt>
</event>
<event>
 4    1  0.7653521E+003  0.2430573E+02  0.7546771E-02  0.1671179E+00
          2   -1    0    0  501    0  0.00000000000E+00  0.00000000000E+00  0.28625259130E+02  0.28625259130E+02  0.00000000000E+00 0. -1.
         -2   -1    0    0    0  501 -0.00000000000E+00 -0.00000000000E+00 -0.46431857829E+02  0.46431857829E+02  0.00000000000E+00 0. -1.
          2    1    1    2  502    0  0.15342848652E+02  0.18851135914E+02  0.19067954526E+02  0.30892640221E+02  0.00000000000E+00 0. -1.
         -2    1    1    2    0  502 -0.15342848652E+02 -0.18851135914E+02 -0.36874553225E+02  0.44164476738E+02  0.00000000000E+00 0. -1.
<mgrwt>
<rscale>  2 0.24305726E+02</rscale>
<asrwt>0</asrwt>
<pdfrwt beam="1">  1        2 0.44038860E-02 0.24305726E+02</pdfrwt>
<pdfrwt beam="2">  1       -2 0.71433627E-02 0.24305726E+02</pdfrwt>
<totfact> 0.13084940E+05</totfact>
</mgrwt>
</event>
<event>
 4    1  0.7653521E+003  0.2512854E+02  0.7546771E-02  0.1659163E+00
          2   -1    0    0  501    0  0.00000000000E+00  0.00000000000E+00  0.12037864327E+03  0.12037864327E+03  0.00000000000E+00 0.  1.
         -2   -1    0    0    0  501 -0.00000000000E+00 -0.00000000000E+00 -0.78383729246E+01  0.78383729246E+01  0.00000000000E+00 0. -1.
          2    1    1    2  502    0 -0.20604051632E+02 -0.14384588091E+02  0.93142017743E+02  0.96472165869E+02  0.00000000000E+00 0.  1.
         -2    1    1    2    0  502  0.20604051632E+02  0.14384588091E+02  0.19398252603E+02  0.31744850326E+02  0.00000000000E+00 0. -1.
<mgrwt>
<rscale>  2 0.25128536E+02</rscale>
<asrwt>0</asrwt>
<pdfrwt beam="1">  1        2 0.18519790E-01 0.25128536E+02</pdfrwt>
<pdfrwt beam="2">  1       -2 0.12059036E-02 0.25128536E+02</pdfrwt>
<totfact> 0.29853701E+05</totfact>
</mgrwt>
</event>
<event>
 4    1  0.7653521E+003  0.4442927E+02  0.7546771E-02  0.1477936E+00
         -2   -1    0    0    0  501 -0.00000000000E+00  0.00000000000E+00  0.17810333325E+01  0.17810333325E+01  0.00000000000E+00 0. -1.
          2   -1    0    0  501    0  0.00000000000E+00 -0.00000000000E+00 -0.11971791144E+04  0.11971791144E+04  0.00000000000E+00 0. -1.
          2    1    1    2  502    0  0.36737353623E+02 -0.24986536398E+02 -0.76101887053E+03  0.76231468663E+03  0.00000000000E+00 0. -1.
         -2    1    1    2    0  502 -0.36737353623E+02  0.24986536398E+02 -0.43437921053E+03  0.43664546109E+03  0.00000000000E+00 0. -1.
<mgrwt>
<rscale>  2 0.44429271E+02</rscale>
<asrwt>0</asrwt>
<pdfrwt beam="2">  1        2 0.18418219E+00 0.44429271E+02</pdfrwt>
<pdfrwt beam="1">  1       -2 0.27400395E-03 0.44429271E+02</pdfrwt>
<totfact> 0.21317285E+05</totfact>
</mgrwt>
</event>
<event>
 4    1  0.7653521E+003  0.2211461E+02  0.7546771E-02  0.1706277E+00
          2   -1    0    0  501    0  0.00000000000E+00  0.00000000000E+00  0.19784130572E+04  0.19784130572E+04  0.00000000000E+00 0.  1.
         -2   -1    0    0    0  501 -0.00000000000E+00 -0.00000000000E+00 -0.25154236079E+00  0.25154236079E+00  0.00000000000E+00 0.  1.
          2    1    1    2  502    0 -0.21767378866E+02  0.39034237821E+01  0.85903178135E+03  0.85931638927E+03  0.00000000000E+00 0.  1.
         -2    1    1    2    0  502  0.21767378866E+02 -0.39034237821E+01  0.11191297335E+04  0.11193482103E+04  0.00000000000E+00 0.  1.
<mgrwt>
<rscale>  2 0.22114610E+02</rscale>
<asrwt>0</asrwt>
<pdfrwt beam="1">  1        2 0.30435878E+00 0.22114610E+02</pdfrwt>
<pdfrwt beam="2">  1       -2 0.38700409E-04 0.22114610E+02</pdfrwt>
<totfact> 0.10389291E+06</totfact>
</mgrwt>
</event>
<event>
 4    1  0.7653521E+003  0.2606786E+02  0.7546771E-02  0.1646121E+00
         -2   -1    0    0    0  501 -0.00000000000E+00  0.00000000000E+00  0.20676149857E+03  0.20676149857E+03  0.00000000000E+00 0. -1.
          2   -1    0    0  501    0  0.00000000000E+00 -0.00000000000E+00 -0.10062394952E+02  0.10062394952E+02  0.00000000000E+00 0.  1.
          2    1    1    2  502    0 -0.11437659830E+02 -0.23424633052E+02  0.93868504416E+01  0.27706433499E+02  0.00000000000E+00 0.  1.
         -2    1    1    2    0  502  0.11437659830E+02  0.23424633052E+02  0.18731225317E+03  0.18911746002E+03  0.00000000000E+00 0. -1.
<mgrwt>
<rscale>  2 0.26067863E+02</rscale>
<asrwt>0</asrwt>
<pdfrwt beam="2">  1        2 0.15480609E-02 0.26067863E+02</pdfrwt>
<pdfrwt beam="1">  1       -2 0.31809458E-01 0.26067863E+02</pdfrwt>
<totfact> 0.48104790E+04</totfact>
</mgrwt>
</event>
<event>
 4    1  0.7653521E+003  0.2082513E+02  0.7546771E-02  0.1729400E+00
         -2   -1    0    0    0  501 -0.00000000000E+00  0.00000000000E+00  0.25486998261E+01  0.25486998261E+01  0.00000000000E+00 0. -1.
          2   -1    0    0  501    0  0.00000000000E+00 -0.00000000000E+00 -0.47445259628E+03  0.47445259628E+03  0.00000000000E+00 0.  1.
          2    1    1    2  502    0  0.20074796001E+02 -0.55397361245E+01 -0.42695443648E+03  0.42746201812E+03  0.00000000000E+00 0.  1.
         -2    1    1    2    0  502 -0.20074796001E+02  0.55397361245E+01 -0.44949459977E+02  0.49539277983E+02  0.00000000000E+00 0. -1.
<mgrwt>
<rscale>  2 0.20825132E+02</rscale>
<asrwt>0</asrwt>
<pdfrwt beam="2">  1        2 0.72992744E-01 0.20825132E+02</pdfrwt>
<pdfrwt beam="1">  1       -2 0.39210747E-03 0.20825132E+02</pdfrwt>
<totfact> 0.32169642E+05</totfact>
</mgrwt>
</event>
<event>
 4    1  0.7653521E+003  0.2096515E+02  0.7546771E-02  0.1726789E+00
         -2   -1    0    0    0  501 -0.00000000000E+00  0.00000000000E+00  0.60735343353E+02  0.60735343353E+02  0.00000000000E+00 0.  1.
          2   -1    0    0  501    0  0.00000000000E+00 -0.00000000000E+00 -0.33460053105E+02  0.33460053105E+02  0.00000000000E+00 0. -1.
          2    1    1    2  502    0  0.16556023672E+02  0.12862179611E+02 -0.28056834257E+02  0.35024613241E+02  0.00000000000E+00 0. -1.
         -2    1    1    2    0  502 -0.16556023672E+02 -0.12862179611E+02  0.55332124506E+02  0.59170783217E+02  0.00000000000E+00 0.  1.
<mgrwt>
<rscale>  2 0.20965152E+02</rscale>
<asrwt>0</asrwt>
<pdfrwt beam="2">  1        2 0.51477005E-02 0.20965152E+02</pdfrwt>
<pdfrwt beam="1">  1       -2 0.93438989E-02 0.20965152E+02</pdfrwt>
<totfact> 0.70220020E+04</totfact>
</mgrwt>
</event>
<event>
 4    1  0.7653521E+003  0.2335049E+02  0.7546771E-02  0.1685891E+00
          2   -1    0    0  501    0  0.00000000000E+00  0.00000000000E+00  0.73665561561E+03  0.73665561561E+03  0.00000000000E+00 0. -1.
         -2   -1    0    0    0  501 -0.00000000000E+00 -0.00000000000E+00 -0.75022906197E+00  0.75022906197E+00  0.00000000000E+00 0.  1.
          2    1    1    2  502    0  0.21090752627E+02  0.10021243142E+02  0.41066091471E+03  0.41132424197E+03  0.00000000000E+00 0. -1.
         -2    1    1    2    0  502 -0.21090752627E+02 -0.10021243142E+02  0.32524447184E+03  0.32608160270E+03  0.00000000000E+00 0.  1.
<mgrwt>
<rscale>  2 0.23350485E+02</rscale>
<asrwt>0</asrwt>
<pdfrwt beam="1">  1        2 0.11333105E+00 0.23350485E+02</pdfrwt>
<pdfrwt beam="2">  1       -2 0.11542045E-03 0.23350485E+02</pdfrwt>
<totfact> 0.10628941E+06</totfact>
</mgrwt>
</event>
<event>
 4    1  0.7653521E+003  0.3128175E+02  0.7546771E-02  0.1584338E+00
          2   -1    0    0  501    0  0.00000000000E+00  0.00000000000E+00  0.42349944156E+03  0.42349944156E+03  0.00000000000E+00 0.  1.
         -2   -1    0    0    0  501 -0.00000000000E+00 -0.00000000000E+00 -0.37166701569E+01  0.37166701569E+01  0.00000000000E+00 0.  1.
          2    1    1    2  502    0 -0.25554888585E+02 -0.18041488377E+02  0.34127479582E+03  0.34270546230E+03  0.00000000000E+00 0.  1.
         -2    1    1    2    0  502  0.25554888585E+02  0.18041488377E+02  0.78507975585E+02  0.84510649412E+02  0.00000000000E+00 0.  1.
<mgrwt>
<rscale>  2 0.31281746E+02</rscale>
<asrwt>0</asrwt>
<pdfrwt beam="1">  1        2 0.65153722E-01 0.31281746E+02</pdfrwt>
<pdfrwt beam="2">  1       -2 0.57179574E-03 0.31281746E+02</pdfrwt>
<totfact> 0.24156221E+05</totfact>
</mgrwt>
</event>
<event>
 4    1  0.7653521E+003  0.2016388E+02  0.7546771E-02  0.1742089E+00
         -2   -1    0    0    0  501 -0.00000000000E+00  0.00000000000E+00  0.11487405571E+01  0.11487405571E+01  0.00000000000E+00 0. -1.
          2   -1    0    0  501    0  0.00000000000E+00 -0.00000000000E+00 -0.14343652237E+04  0.14343652237E+04  0.00000000000E+00 0.  1.
          2    1    1    2  502    0  0.20152985240E+02  0.66272040986E+00 -0.13395471723E+04  0.13396989247E+04  0.00000000000E+00 0.  1.
         -2    1    1    2    0  502 -0.20152985240E+02 -0.66272040986E+00 -0.93669310838E+02  0.95815039557E+02  0.00000000000E+00 0. -1.
<mgrwt>
<rscale>  2 0.20163879E+02</rscale>
<asrwt>0</asrwt>
<pdfrwt beam="2">  1        2 0.22067337E+00 0.20163879E+02</pdfrwt>
<pdfrwt beam="1">  1       -2 0.17672788E-03 0.20163879E+02</pdfrwt>
<totfact> 0.24743697E+05</totfact>
</mgrwt>
</event>
<event>
 4    1  0.7653521E+003  0.2167377E+02  0.7546771E-02  0.1713956E+00
          2   -1    0    0  501    0  0.00000000000E+00  0.00000000000E+00  0.26446513716E+03  0.26446513716E+03  0.00000000000E+00 0. -1.
         -2   -1    0    0    0  501 -0.00000000000E+00 -0.00000000000E+00 -0.33555700880E+01  0.33555700880E+01  0.00000000000E+00 0. -1.
          2    1    1    2  502    0  0.18797868303E+02 -0.10788542072E+02  0.22242357572E+03  0.22347706712E+03  0.00000000000E+00 0. -1.
         -2    1    1    2    0  502 -0.18797868303E+02  0.10788542072E+02  0.38685991344E+02  0.44343640119E+02  0.00000000000E+00 0. -1.
<mgrwt>
<rscale>  2 0.21673774E+02</rscale>
<asrwt>0</asrwt>
<pdfrwt beam="1">  1        2 0.40686928E-01 0.21673774E+02</pdfrwt>
<pdfrwt beam="2">  1       -2 0.51624176E-03 0.21673774E+02</pdfrwt>
<totfact> 0.40088982E+05</totfact>
</mgrwt>
</event>
<event>
 4    1  0.7653521E+003  0.2765932E+02  0.7546771E-02  0.1625503E+00
          2   -1    0    0  501    0  0.00000000000E+00  0.00000000000E+00  0.29917268117E+03  0.29917268117E+03  0.00000000000E+00 0.  1.
         -2   -1    0    0    0  501 -0.00000000000E+00 -0.00000000000E+00 -0.47313160155E+01  0.47313160155E+01  0.00000000000E+00 0.  1.
          2    1    1    2  502    0  0.13153880128E+02 -0.24331322990E+02  0.25022584213E+03  0.25174989556E+03  0.00000000000E+00 0.  1.
         -2    1    1    2    0  502 -0.13153880128E+02  0.24331322990E+02  0.44215523025E+02  0.52154101634E+02  0.00000000000E+00 0.  1.
<mgrwt>
<rscale>  2 0.27659317E+02</rscale>
<asrwt>0</asrwt>
<pdfrwt beam="1">  1        2 0.46026552E-01 0.27659317E+02</pdfrwt>
<pdfrwt beam="2">  1       -2 0.72789501E-03 0.27659317E+02</pdfrwt>
<totfact> 0.23898939E+05</totfact>
</mgrwt>
</event>
<event>
 4    1  0.7653521E+003  0.2547695E+02  0.7546771E-02  0.1654244E+00
          2   -1    0    0  501    0  0.00000000000E+00  0.00000000000E+00  0.18252205876E+01  0.18252205876E+01  0.00000000000E+00 0.  1.
         -2   -1    0    0    0  501 -0.00000000000E+00 -0.00000000000E+00 -0.35713216010E+03  0.35713216010E+03  0.00000000000E+00 0.  1.
          2    1    1    2  502    0 -0.10298090541E+02 -0.23302871481E+02 -0.18935434848E+03  0.19106057619E+03  0.00000000000E+00 0.  1.
         -2    1    1    2    0  502  0.10298090541E+02  0.23302871481E+02 -0.16595259103E+03  0.16789680449E+03  0.00000000000E+00 0.  1.
<mgrwt>
<rscale>  2 0.25476953E+02</rscale>
<asrwt>0</asrwt>
<pdfrwt beam="1">  1        2 0.28080279E-03 0.25476953E+02</pdfrwt>
<pdfrwt beam="2">  1       -2 0.54943482E-01 0.25476953E+02</pdfrwt>
<totfact> 0.16490762E+05</totfact>
</mgrwt>
</event>
<event>
 4    1  0.7653521E+003  0.2257900E+02  0.7546771E-02  0.1698427E+00
          2   -1    0    0  501    0  0.00000000000E+00  0.00000000000E+00  0.11466663649E+04  0.11466663649E+04  0.00000000000E+00 0.  1.
         -2   -1    0    0    0  501 -0.00000000000E+00 -0.00000000000E+00 -0.26710676508E+02  0.26710676508E+02  0.00000000000E+00 0.  1.
          2    1    1    2  502    0  0.16305523965E+02  0.15618611220E+02  0.11417631204E+04  0.11419863546E+04  0.00000000000E+00 0.  1.
         -2    1    1    2    0  502 -0.16305523965E+02 -0.15618611220E+02 -0.21807431964E+02  0.31390686789E+02  0.00000000000E+00 0.  1.
<mgrwt>
<rscale>  2 0.22578998E+02</rscale>
<asrwt>0</asrwt>
<pdfrwt beam="1">  1        2 0.17641017E+00 0.22578998E+02</pdfrwt>
<pdfrwt beam="2">  1       -2 0.41093357E-02 0.22578998E+02</pdfrwt>
<totfact> 0.49812802E+03</totfact>
</mgrwt>
</event>
<event>
 4    1  0.7653521E+003  0.2440497E+02  0.7546771E-02  0.1669699E+00
         -2   -1    0    0    0  501 -0.00000000000E+00  0.00000000000E+00  0.23894196116E+01  0.23894196116E+01  0.00000000000E+00 0.  1.
          2   -1    0    0  501    0  0.00000000000E+00 -0.00000000000E+00 -0.14830084311E+04  0.14830084311E+04  0.00000000000E+00 0. -1.
          2    1    1    2  502    0  0.21983711229E+02  0.10598065468E+02 -0.14177218821E+04  0.14179319227E+04  0.00000000000E+00 0. -1.
         -2    1    1    2    0  502 -0.21983711229E+02 -0.10598065468E+02 -0.62897129370E+02  0.67465927949E+02  0.00000000000E+00 0.  1.
<mgrwt>
<rscale>  2 0.24404970E+02</rscale>
<asrwt>0</asrwt>
<pdfrwt beam="2">  1        2 0.22815520E+00 0.24404970E+02</pdfrwt>
<pdfrwt beam="1">  1       -2 0.36760293E-03 0.24404970E+02</pdfrwt>
<totfact> 0.92514510E+04</totfact>
</mgrwt>
</event>
<event>
 4    1  0.7653521E+003  0.2062802E+02  0.7546771E-02  0.1733120E+00
          2   -1    0    0  501    0  0.00000000000E+00  0.00000000000E+00  0.13940575783E+04  0.13940575783E+04  0.00000000000E+00 0.  1.
         -2   -1    0    0    0  501 -0.00000000000E+00 -0.00000000000E+00 -0.63694751976E+00  0.63694751976E+00  0.00000000000E+00 0. -1.
          2    1    1    2  502    0  0.20120410786E+02  0.45480023315E+01  0.11999538041E+04  0.12001310958E+04  0.00000000000E+00 0.  1.
         -2    1    1    2    0  502 -0.20120410786E+02 -0.45480023315E+01  0.19346682672E+03  0.19456343001E+03  0.00000000000E+00 0. -1.
<mgrwt>
<rscale>  2 0.20628021E+02</rscale>
<asrwt>0</asrwt>
<pdfrwt beam="1">  1        2 0.21446795E+00 0.20628021E+02</pdfrwt>
<pdfrwt beam="2">  1       -2 0.97993042E-04 0.20628021E+02</pdfrwt>
<totfact> 0.56409891E+05</totfact>
</mgrwt>
</event>
<event>
 4    1  0.7653521E+003  0.2062541E+02  0.7546771E-02  0.1733169E+00
          2   -1    0    0  501    0  0.00000000000E+00  0.00000000000E+00  0.72290845919E+02  0.72290845919E+02  0.00000000000E+00 0.  1.
         -2   -1    0    0    0  501 -0.00000000000E+00 -0.00000000000E+00 -0.33607356249E+03  0.33607356249E+03  0.00000000000E+00 0. -1.
          2    1    1    2  502    0  0.19440798518E+02  0.68893451116E+01  0.70495329657E+02  0.73450658448E+02  0.00000000000E+00 0.  1.
         -2    1    1    2    0  502 -0.19440798518E+02 -0.68893451116E+01 -0.33427804623E+03  0.33491374997E+03  0.00000000000E+00 0. -1.
<mgrwt>
<rscale>  2 0.20625414E+02</rscale>
<asrwt>0</asrwt>
<pdfrwt beam="1">  1        2 0.11121669E-01 0.20625414E+02</pdfrwt>
<pdfrwt beam="2">  1       -2 0.51703625E-01 0.20625414E+02</pdfrwt>
<totfact> 0.16851205E+03</totfact>
</mgrwt>
</event>
<event>
 4    1  0.7653521E+003  0.2327996E+02  0.7546771E-02  0.1687012E+00
          2   -1    0    0  501    0  0.00000000000E+00  0.00000000000E+00  0.72455498705E+02  0.72455498705E+02  0.00000000000E+00 0.  1.
         -2   -1    0    0    0  501 -0.00000000000E+00 -0.00000000000E+00 -0.11548715453E+02  0.11548715453E+02  0.00000000000E+00 0.  1.
          2    1    1    2  502    0  0.41141868679E+01  0.22913536395E+02  0.55384442861E+02  0.60078225629E+02  0.00000000000E+00 0.  1.
         -2    1    1    2    0  502 -0.41141868679E+01 -0.22913536395E+02  0.55223403917E+01  0.23925988529E+02  0.00000000000E+00 0.  1.
<mgrwt>
<rscale>  2 0.23279963E+02</rscale>
<asrwt>0</asrwt>
<pdfrwt beam="1">  1        2 0.11147000E-01 0.23279963E+02</pdfrwt>
<pdfrwt beam="2">  1       -2 0.17767255E-02 0.23279963E+02</pdfrwt>
<totfact> 0.30170933E+05</totfact>
</mgrwt>
</event>
<event>
 4    1  0.7653521E+003  0.2837136E+02  0.7546771E-02  0.1616822E+00
         -2   -1    0    0    0  501 -0.00000000000E+00  0.00000000000E+00  0.10408169954E+02  0.10408169954E+02  0.00000000000E+00 0.  1.
          2   -1    0    0  501    0  0.00000000000E+00 -0.00000000000E+00 -0.13018414208E+04  0.13018414208E+04  0.00000000000E+00 0. -1.
          2    1    1    2  502    0  0.28015928702E+02 -0.44768391380E+01 -0.12820542836E+04  0.12823681688E+04  0.00000000000E+00 0. -1.
         -2    1    1    2    0  502 -0.28015928702E+02  0.44768391380E+01 -0.93789672580E+01  0.29881421930E+02  0.00000000000E+00 0.  1.
<mgrwt>
<rscale>  2 0.28371365E+02</rscale>
<asrwt>0</asrwt>
<pdfrwt beam="2">  1        2 0.20028333E+00 0.28371365E+02</pdfrwt>
<pdfrwt beam="1">  1       -2 0.16012567E-02 0.28371365E+02</pdfrwt>
<totfact> 0.15773948E+04</totfact>
</mgrwt>
</event>
<event>
 4    1  0.7653521E+003  0.2199757E+02  0.7546771E-02  0.1708294E+00
          2   -1    0    0  501    0  0.00000000000E+00  0.00000000000E+00  0.56352773381E+02  0.56352773381E+02  0.00000000000E+00 0. -1.
         -2   -1    0    0    0  501 -0.00000000000E+00 -0.00000000000E+00 -0.90823015900E+01  0.90823015900E+01  0.00000000000E+00 0.  1.
          2    1    1    2  502    0  0.19680829779E+02  0.98263875890E+01  0.31276798228E+02  0.38237822392E+02  0.00000000000E+00 0. -1.
         -2    1    1    2    0  502 -0.19680829779E+02 -0.98263875890E+01  0.15993673563E+02  0.27197252579E+02  0.00000000000E+00 0.  1.
<mgrwt>
<rscale>  2 0.21997567E+02</rscale>
<asrwt>0</asrwt>
<pdfrwt beam="1">  1        2 0.86696572E-02 0.21997567E+02</pdfrwt>
<pdfrwt beam="2">  1       -2 0.13972772E-02 0.21997567E+02</pdfrwt>
<totfact> 0.54950031E+05</totfact>
</mgrwt>
</event>
<event>
 4    1  0.7653521E+003  0.3499289E+02  0.7546771E-02  0.1548664E+00
          2   -1    0    0  501    0  0.00000000000E+00  0.00000000000E+00  0.13045993452E+04  0.13045993452E+04  0.00000000000E+00 0. -1.
         -2   -1    0    0    0  501 -0.00000000000E+00 -0.00000000000E+00 -0.63356033731E+01  0.63356033731E+01  0.00000000000E+00 0.  1.
          2    1    1    2  502    0 -0.30803507447E+02  0.16602606154E+02  0.12541011558E+04  0.12545892601E+04  0.00000000000E+00 0. -1.
         -2    1    1    2    0  502  0.30803507447E+02 -0.16602606154E+02  0.44162585954E+02  0.56345688392E+02  0.00000000000E+00 0.  1.
<mgrwt>
<rscale>  2 0.34992894E+02</rscale>
<asrwt>0</asrwt>
<pdfrwt beam="1">  1        2 0.20070738E+00 0.34992894E+02</pdfrwt>
<pdfrwt beam="2">  1       -2 0.97470925E-03 0.34992894E+02</pdfrwt>
<totfact> 0.31918588E+04</totfact>
</mgrwt>
</event>
<event>
 4    1  0.7653521E+003  0.2846523E+02  0.7546771E-02  0.1615701E+00
         -2   -1    0    0    0  501 -0.00000000000E+00  0.00000000000E+00  0.35091085835E+02  0.35091085835E+02  0.00000000000E+00 0. -1.
          2   -1    0    0  501    0  0.00000000000E+00 -0.00000000000E+00 -0.26547809699E+02  0.26547809699E+02  0.00000000000E+00 0. -1.
          2    1    1    2  502    0 -0.11291237235E+02 -0.26130006869E+02 -0.68503439598E+01  0.29277918465E+02  0.00000000000E+00 0. -1.
         -2    1    1    2    0  502  0.11291237235E+02  0.26130006869E+02  0.15393620095E+02  0.32360977069E+02  0.00000000000E+00 0. -1.
<mgrwt>
<rscale>  2 0.28465230E+02</rscale>
<asrwt>0</asrwt>
<pdfrwt beam="2">  1        2 0.40842784E-02 0.28465230E+02</pdfrwt>
<pdfrwt beam="1">  1       -2 0.53986286E-02 0.28465230E+02</pdfrwt>
<totfact> 0.22455755E+05</totfact>
</mgrwt>
</event>
<event>
 4    1  0.7653521E+003  0.3578040E+02  0.7546771E-02  0.1541778E+00
         -2   -1    0    0    0  501 -0.00000000000E+00  0.00000000000E+00  0.12034188126E+01  0.12034188126E+01  0.00000000000E+00 0.  1.
          2   -1    0    0  501    0  0.00000000000E+00 -0.00000000000E+00 -0.14178065186E+04  0.14178065186E+04  0.00000000000E+00 0.  1.
          2    1    1    2  502    0 -0.35739744730E+02 -0.17052086701E+01 -0.10628145102E+04  0.10634166259E+04  0.00000000000E+00 0.  1.
         -2    1    1    2    0  502  0.35739744730E+02  0.17052086701E+01 -0.35378858959E+03  0.35559331154E+03  0.00000000000E+00 0.  1.
<mgrwt>
<rscale>  2 0.35780401E+02</rscale>
<asrwt>0</asrwt>
<pdfrwt beam="2">  1        2 0.21812384E+00 0.35780401E+02</pdfrwt>
<pdfrwt beam="1">  1       -2 0.18514156E-03 0.35780401E+02</pdfrwt>
<totfact> 0.26890721E+05</totfact>
</mgrwt>
</event>
<event>
 4    1  0.7653521E+003  0.2480870E+02  0.7546771E-02  0.1663765E+00
         -2   -1    0    0    0  501 -0.00000000000E+00  0.00000000000E+00  0.18742333414E+01  0.18742333414E+01  0.00000000000E+00 0. -1.
          2   -1    0    0  501    0  0.00000000000E+00 -0.00000000000E+00 -0.99119127769E+03  0.99119127769E+03  0.00000000000E+00 0.  1.
          2    1    1    2  502    0 -0.23358776546E+02 -0.83569904028E+01 -0.90069232630E+03  0.90103392744E+03  0.00000000000E+00 0.  1.
         -2    1    1    2    0  502  0.23358776546E+02  0.83569904028E+01 -0.88624718042E+02  0.92031583591E+02  0.00000000000E+00 0. -1.
<mgrwt>
<rscale>  2 0.24808703E+02</rscale>
<asrwt>0</asrwt>
<pdfrwt beam="2">  1        2 0.15249070E+00 0.24808703E+02</pdfrwt>
<pdfrwt beam="1">  1       -2 0.28834410E-03 0.24808703E+02</pdfrwt>
<totfact> 0.22684263E+05</totfact>
</mgrwt>
</event>
<event>
 4    1  0.7653521E+003  0.2345335E+02  0.7546771E-02  0.1684265E+00
         -2   -1    0    0    0  501 -0.00000000000E+00  0.00000000000E+00  0.11720398356E+02  0.11720398356E+02  0.00000000000E+00 0.  1.
          2   -1    0    0  501    0  0.00000000000E+00 -0.00000000000E+00 -0.25481442148E+03  0.25481442148E+03  0.00000000000E+00 0.  1.
          2    1    1    2  502    0  0.19221057192E+02  0.13439140827E+02 -0.24191778027E+03  0.24305199435E+03  0.00000000000E+00 0.  1.
         -2    1    1    2    0  502 -0.19221057192E+02 -0.13439140827E+02 -0.11762428564E+01  0.23482825491E+02  0.00000000000E+00 0.  1.
<mgrwt>
<rscale>  2 0.23453348E+02</rscale>
<asrwt>0</asrwt>
<pdfrwt beam="2">  1        2 0.39202220E-01 0.23453348E+02</pdfrwt>
<pdfrwt beam="1">  1       -2 0.18031381E-02 0.23453348E+02</pdfrwt>
<totfact> 0.78337475E+04</totfact>
</mgrwt>
</event>
<event>
 4    1  0.7653521E+003  0.2671011E+02  0.7546771E-02  0.1637588E+00
         -2   -1    0    0    0  501 -0.00000000000E+00  0.00000000000E+00  0.20633814134E+02  0.20633814134E+02  0.00000000000E+00 0. -1.
          2   -1    0    0  501    0  0.00000000000E+00 -0.00000000000E+00 -0.34646393551E+02  0.34646393551E+02  0.00000000000E+00 0. -1.
          2    1    1    2  502    0  0.48828137243E+01 -0.26260014297E+02 -0.82541164041E+01  0.27956406392E+02  0.00000000000E+00 0. -1.
         -2    1    1    2    0  502 -0.48828137243E+01  0.26260014297E+02 -0.57584630129E+01  0.27323801292E+02  0.00000000000E+00 0. -1.
<mgrwt>
<rscale>  2 0.26710115E+02</rscale>
<asrwt>0</asrwt>
<pdfrwt beam="2">  1        2 0.53302143E-02 0.26710115E+02</pdfrwt>
<pdfrwt beam="1">  1       -2 0.31744330E-02 0.26710115E+02</pdfrwt>
<totfact> 0.33676718E+05</totfact>
</mgrwt>
</event>
<event>
 4    1  0.7653521E+003  0.2891633E+02  0.7546771E-02  0.1610386E+00
          2   -1    0    0  501    0  0.00000000000E+00  0.00000000000E+00  0.84420773867E+03  0.84420773867E+03  0.00000000000E+00 0. -1.
         -2   -1    0    0    0  501 -0.00000000000E+00 -0.00000000000E+00 -0.59729461270E+01  0.59729461270E+01  0.00000000000E+00 0. -1.
          2    1    1    2  502    0 -0.28113461565E+02  0.67666533891E+01  0.80736606208E+03  0.80788372463E+03  0.00000000000E+00 0. -1.
         -2    1    1    2    0  502  0.28113461565E+02 -0.67666533891E+01  0.30868730467E+02  0.42296960173E+02  0.00000000000E+00 0. -1.
<mgrwt>
<rscale>  2 0.28916333E+02</rscale>
<asrwt>0</asrwt>
<pdfrwt beam="1">  1        2 0.12987802E+00 0.28916333E+02</pdfrwt>
<pdfrwt beam="2">  1       -2 0.91891546E-03 0.28916333E+02</pdfrwt>
<totfact> 0.59608167E+04</totfact>
</mgrwt>
</event>
<event>
 4    1  0.7653521E+003  0.2083182E+02  0.7546771E-02  0.1729275E+00
          2   -1    0    0  501    0  0.00000000000E+00  0.00000000000E+00  0.90627650877E+03  0.90627650877E+03  0.00000000000E+00 0. -1.
         -2   -1    0    0    0  501 -0.00000000000E+00 -0.00000000000E+00 -0.30483451324E+02  0.30483451324E+02  0.00000000000E+00 0. -1.
          2    1    1    2  502    0  0.44071623457E+01 -0.20360299962E+02  0.90258321621E+03  0.90282358580E+03  0.00000000000E+00 0. -1.
         -2    1    1    2    0  502 -0.44071623457E+01  0.20360299962E+02 -0.26790158757E+02  0.33936374301E+02  0.00000000000E+00 0. -1.
<mgrwt>
<rscale>  2 0.20831824E+02</rscale>
<asrwt>0</asrwt>
<pdfrwt beam="1">  1        2 0.13942714E+00 0.20831824E+02</pdfrwt>
<pdfrwt beam="2">  1       -2 0.46897624E-02 0.20831824E+02</pdfrwt>
<totfact> 0.55176906E+03</totfact>
</mgrwt>
</event>
<event>
 4    1  0.7653521E+003  0.3433252E+02  0.7546771E-02  0.1554609E+00
          2   -1    0    0  501    0  0.00000000000E+00  0.00000000000E+00  0.26664790757E+02  0.26664790757E+02  0.00000000000E+00 0.  1.
         -2   -1    0    0    0  501 -0.00000000000E+00 -0.00000000000E+00 -0.22578751980E+03  0.22578751980E+03  0.00000000000E+00 0.  1.
          2    1    1    2  502    0 -0.23636475313E+02  0.24900577224E+02  0.13635969607E+02  0.36941323453E+02  0.00000000000E+00 0.  1.
         -2    1    1    2    0  502  0.23636475313E+02 -0.24900577224E+02 -0.21275869865E+03  0.21551098710E+03  0.00000000000E+00 0.  1.
<mgrwt>
<rscale>  2 0.34332517E+02</rscale>
<asrwt>0</asrwt>
<pdfrwt beam="1">  1        2 0.41022755E-02 0.34332517E+02</pdfrwt>
<pdfrwt beam="2">  1       -2 0.34736542E-01 0.34332517E+02</pdfrwt>
<totfact> 0.12452041E+04</totfact>
</mgrwt>
</event>
<event>
 4    1  0.7653521E+003  0.2141438E+02  0.7546771E-02  0.1718581E+00
          2   -1    0    0  501    0  0.00000000000E+00  0.00000000000E+00  0.10477628764E+04  0.10477628764E+04  0.00000000000E+00 0. -1.
         -2   -1    0    0    0  501 -0.00000000000E+00 -0.00000000000E+00 -0.46723920928E+00  0.46723920928E+00  0.00000000000E+00 0. -1.
          2    1    1    2  502    0  0.16428613969E+02  0.13735942341E+02  0.65549450115E+03  0.65584420139E+03  0.00000000000E+00 0. -1.
         -2    1    1    2    0  502 -0.16428613969E+02 -0.13735942341E+02  0.39180113603E+03  0.39238591420E+03  0.00000000000E+00 0. -1.
<mgrwt>
<rscale>  2 0.21414375E+02</rscale>
<asrwt>0</asrwt>
<pdfrwt beam="1">  1        2 0.16119241E+00 0.21414375E+02</pdfrwt>
<pdfrwt beam="2">  1       -2 0.71883794E-04 0.21414375E+02</pdfrwt>
<totfact> 0.12724276E+06</totfact>
</mgrwt>
</event>
<event>
 4    1  0.7653521E+003  0.2045969E+02  0.7546771E-02  0.1736338E+00
          2   -1    0    0  501    0  0.00000000000E+00  0.00000000000E+00  0.58639006266E+03  0.58639006266E+03  0.00000000000E+00 0. -1.
         -2   -1    0    0    0  501 -0.00000000000E+00 -0.00000000000E+00 -0.53522539646E+01  0.53522539646E+01  0.00000000000E+00 0. -1.
          2    1    1    2  502    0 -0.18286367073E+02 -0.91764811729E+01  0.56595331869E+03  0.56632301557E+03  0.00000000000E+00 0. -1.
         -2    1    1    2    0  502  0.18286367073E+02  0.91764811729E+01  0.15084490007E+02  0.25419301057E+02  0.00000000000E+00 0. -1.
<mgrwt>
<rscale>  2 0.20459693E+02</rscale>
<asrwt>0</asrwt>
<pdfrwt beam="1">  1        2 0.90213805E-01 0.20459693E+02</pdfrwt>
<pdfrwt beam="2">  1       -2 0.82342415E-03 0.20459693E+02</pdfrwt>
<totfact> 0.95918025E+04</totfact>
</mgrwt>
</event>
<event>
 4    1  0.7653521E+003  0.3301675E+02  0.7546771E-02  0.1566952E+00
          2   -1    0    0  501    0  0.00000000000E+00  0.00000000000E+00  0.50398349858E+02  0.50398349858E+02  0.00000000000E+00 0.  1.
         -2   -1    0    0    0  501 -0.00000000000E+00 -0.00000000000E+00 -0.24603892908E+02  0.24603892908E+02  0.00000000000E+00 0. -1.
          2    1    1    2  502    0  0.13013896767E+02 -0.30343768651E+02  0.25935505928E+02  0.41985191113E+02  0.00000000000E+00 0.  1.
         -2    1    1    2    0  502 -0.13013896767E+02  0.30343768651E+02 -0.14104897805E+00  0.33017051653E+02  0.00000000000E+00 0. -1.
<mgrwt>
<rscale>  2 0.33016750E+02</rscale>
<asrwt>0</asrwt>
<pdfrwt beam="1">  1        2 0.77535923E-02 0.33016750E+02</pdfrwt>
<pdfrwt beam="2">  1       -2 0.37852143E-02 0.33016750E+02</pdfrwt>
<totfact> 0.17630579E+05</totfact>
</mgrwt>
</event>
<event>
 4    1  0.7653521E+003  0.2888161E+02  0.7546771E-02  0.1610790E+00
          2   -1    0    0  501    0  0.00000000000E+00  0.00000000000E+00  0.88043180412E+03  0.88043180412E+03  0.00000000000E+00 0. -1.
         -2   -1    0    0    0  501 -0.00000000000E+00 -0.00000000000E+00 -0.28844630267E+01  0.28844630267E+01  0.00000000000E+00 0.  1.
          2    1    1    2  502    0 -0.27142648808E+02  0.98703630143E+01  0.80070173827E+03  0.80122245420E+03  0.00000000000E+00 0. -1.
         -2    1    1    2    0  502  0.27142648808E+02 -0.98703630143E+01  0.76845602821E+02  0.82093812942E+02  0.00000000000E+00 0.  1.
<mgrwt>
<rscale>  2 0.28881611E+02</rscale>
<asrwt>0</asrwt>
<pdfrwt beam="1">  1        2 0.13545083E+00 0.28881611E+02</pdfrwt>
<pdfrwt beam="2">  1       -2 0.44376424E-03 0.28881611E+02</pdfrwt>
<totfact> 0.15208717E+05</totfact>
</mgrwt>
</event>
<event>
 4    1  0.7653521E+003  0.4421219E+02  0.7546771E-02  0.1479321E+00
          2   -1    0    0  501    0  0.00000000000E+00  0.00000000000E+00  0.15484524984E+04  0.15484524984E+04  0.00000000000E+00 0.  1.
         -2   -1    0    0    0  501 -0.00000000000E+00 -0.00000000000E+00 -0.43209272587E+03  0.43209272587E+03  0.00000000000E+00 0. -1.
          2    1    1    2  502    0  0.18797163085E+02  0.40017305990E+02  0.15470048882E+04  0.15476365343E+04  0.00000000000E+00 0.  1.
         -2    1    1    2    0  502 -0.18797163085E+02 -0.40017305990E+02 -0.43064511573E+03  0.43290868994E+03  0.00000000000E+00 0. -1.
<mgrwt>
<rscale>  2 0.44212194E+02</rscale>
<asrwt>0</asrwt>
<pdfrwt beam="1">  1        2 0.23822346E+00 0.44212194E+02</pdfrwt>
<pdfrwt beam="2">  1       -2 0.66475805E-01 0.44212194E+02</pdfrwt>
<totfact> 0.33012088E+01</totfact>
</mgrwt>
</event>
<event>
 4    1  0.7653521E+003  0.2110493E+02  0.7546771E-02  0.1724208E+00
         -2   -1    0    0    0  501 -0.00000000000E+00  0.00000000000E+00  0.56856147493E+01  0.56856147493E+01  0.00000000000E+00 0. -1.
          2   -1    0    0  501    0  0.00000000000E+00 -0.00000000000E+00 -0.13967844567E+03  0.13967844567E+03  0.00000000000E+00 0. -1.
          2    1    1    2  502    0  0.17817638650E+02 -0.11311498863E+02 -0.11516060501E+03  0.11707853433E+03  0.00000000000E+00 0. -1.
         -2    1    1    2    0  502 -0.17817638650E+02  0.11311498863E+02 -0.18832225906E+02  0.28285526089E+02  0.00000000000E+00 0. -1.
<mgrwt>
<rscale>  2 0.21104934E+02</rscale>
<asrwt>0</asrwt>
<pdfrwt beam="2">  1        2 0.21488990E-01 0.21104934E+02</pdfrwt>
<pdfrwt beam="1">  1       -2 0.87471003E-03 0.21104934E+02</pdfrwt>
<totfact> 0.37429759E+05</totfact>
</mgrwt>
</event>
<event>
 4    1  0.7653521E+003  0.2382653E+02  0.7546771E-02  0.1678452E+00
         -2   -1    0    0    0  501 -0.00000000000E+00  0.00000000000E+00  0.20007675713E+01  0.20007675713E+01  0.00000000000E+00 0.  1.
          2   -1    0    0  501    0  0.00000000000E+00 -0.00000000000E+00 -0.60811804082E+03  0.60811804082E+03  0.00000000000E+00 0.  1.
          2    1    1    2  502    0  0.20518027114E+02 -0.12112558613E+02 -0.52585817288E+03  0.52639768379E+03  0.00000000000E+00 0.  1.
         -2    1    1    2    0  502 -0.20518027114E+02  0.12112558613E+02 -0.80259100366E+02  0.83721124600E+02  0.00000000000E+00 0.  1.
<mgrwt>
<rscale>  2 0.23826530E+02</rscale>
<asrwt>0</asrwt>
<pdfrwt beam="2">  1        2 0.93556758E-01 0.23826530E+02</pdfrwt>
<pdfrwt beam="1">  1       -2 0.30780995E-03 0.23826530E+02</pdfrwt>
<totfact> 0.35786500E+05</totfact>
</mgrwt>
</event>
<event>
 4    1  0.7653521E+003  0.2070230E+02  0.7546771E-02  0.1731712E+00
         -2   -1    0    0    0  501 -0.00000000000E+00  0.00000000000E+00  0.39395749597E+02  0.39395749597E+02  0.00000000000E+00 0.  1.
          2   -1    0    0  501    0  0.00000000000E+00 -0.00000000000E+00 -0.14081682765E+04  0.14081682765E+04  0.00000000000E+00 0.  1.
          2    1    1    2  502    0  0.14242079549E+02  0.15024931435E+02 -0.14053670226E+04  0.14055194960E+04  0.00000000000E+00 0.  1.
         -2    1    1    2    0  502 -0.14242079549E+02 -0.15024931435E+02  0.36594495710E+02  0.42044530094E+02  0.00000000000E+00 0.  1.
<mgrwt>
<rscale>  2 0.20702304E+02</rscale>
<asrwt>0</asrwt>
<pdfrwt beam="2">  1        2 0.21664129E+00 0.20702304E+02</pdfrwt>
<pdfrwt beam="1">  1       -2 0.60608840E-02 0.20702304E+02</pdfrwt>
<totfact> 0.21259456E+03</totfact>
</mgrwt>
</event>
<event>
 4    1  0.7653521E+003  0.2855753E+02  0.7546771E-02  0.1614603E+00
          2   -1    0    0  501    0  0.00000000000E+00  0.00000000000E+00  0.51526137568E+03  0.51526137568E+03  0.00000000000E+00 0. -1.
         -2   -1    0    0    0  501 -0.00000000000E+00 -0.00000000000E+00 -0.16006622171E+01  0.16006622171E+01  0.00000000000E+00 0. -1.
          2    1    1    2  502    0 -0.27646275710E+02 -0.71564777291E+01  0.22949483890E+03  0.23126481102E+03  0.00000000000E+00 0. -1.
         -2    1    1    2    0  502  0.27646275710E+02  0.71564777291E+01  0.28416587456E+03  0.28559722688E+03  0.00000000000E+00 0. -1.
<mgrwt>
<rscale>  2 0.28557531E+02</rscale>
<asrwt>0</asrwt>
<pdfrwt beam="1">  1        2 0.79270849E-01 0.28557531E+02</pdfrwt>
<pdfrwt beam="2">  1       -2 0.24625614E-03 0.28557531E+02</pdfrwt>
<totfact> 0.60176478E+05</totfact>
</mgrwt>
</event>
<event>
 4    1  0.7653521E+003  0.2160129E+02  0.7546771E-02  0.1715240E+00
         -2   -1    0    0    0  501 -0.00000000000E+00  0.00000000000E+00  0.68825410888E+00  0.68825410888E+00  0.00000000000E+00 0. -1.
          2   -1    0    0  501    0  0.00000000000E+00 -0.00000000000E+00 -0.14154952833E+04  0.14154952833E+04  0.00000000000E+00 0. -1.
          2    1    1    2  502    0  0.11858480320E+02  0.18055250659E+02 -0.12185245935E+04  0.12187160459E+04  0.00000000000E+00 0. -1.
         -2    1    1    2    0  502 -0.11858480320E+02 -0.18055250659E+02 -0.19628243567E+03  0.19746749147E+03  0.00000000000E+00 0. -1.
<mgrwt>
<rscale>  2 0.21601288E+02</rscale>
<asrwt>0</asrwt>
<pdfrwt beam="2">  1        2 0.21776845E+00 0.21601288E+02</pdfrwt>
<pdfrwt beam="1">  1       -2 0.10588527E-03 0.21601288E+02</pdfrwt>
<totfact> 0.50410804E+05</totfact>
</mgrwt>
</event>
<event>
 4    1  0.7653521E+003  0.2247187E+02  0.7546771E-02  0.1700217E+00
          2   -1    0    0  501    0  0.00000000000E+00  0.00000000000E+00  0.66470511095E+02  0.66470511095E+02  0.00000000000E+00 0. -1.
         -2   -1    0    0    0  501 -0.00000000000E+00 -0.00000000000E+00 -0.96333460278E+01  0.96333460278E+01  0.00000000000E+00 0.  1.
          2    1    1    2  502    0 -0.78741398036E+01  0.21047149221E+02  0.10924108328E+02  0.24986410521E+02  0.00000000000E+00 0. -1.
         -2    1    1    2    0  502  0.78741398036E+01 -0.21047149221E+02  0.45913056739E+02  0.51117446602E+02  0.00000000000E+00 0.  1.
<mgrwt>
<rscale>  2 0.22471873E+02</rscale>
<asrwt>0</asrwt>
<pdfrwt beam="1">  1        2 0.10226232E-01 0.22471873E+02</pdfrwt>
<pdfrwt beam="2">  1       -2 0.14820533E-02 0.22471873E+02</pdfrwt>
<totfact> 0.42191693E+05</totfact>
</mgrwt>
</event>
<event>
 4    1  0.7653521E+003  0.5411805E+02  0.7546771E-02  0.1424316E+00
         -2   -1    0    0    0  501 -0.00000000000E+00  0.00000000000E+00  0.33455844507E+03  0.33455844507E+03  0.00000000000E+00 0. -1.
          2   -1    0    0  501    0  0.00000000000E+00 -0.00000000000E+00 -0.72028462042E+02  0.72028462042E+02  0.00000000000E+00 0.  1.
          2    1    1    2  502    0 -0.46034781972E+02 -0.28452807701E+02 -0.59274567477E+02  0.80263551921E+02  0.00000000000E+00 0.  1.
         -2    1    1    2    0  502  0.46034781972E+02  0.28452807701E+02  0.32180455051E+03  0.32632335520E+03  0.00000000000E+00 0. -1.
<mgrwt>
<rscale>  2 0.54118051E+02</rscale>
<asrwt>0</asrwt>
<pdfrwt beam="2">  1        2 0.11081302E-01 0.54118051E+02</pdfrwt>
<pdfrwt beam="1">  1       -2 0.51470529E-01 0.54118051E+02</pdfrwt>
<totfact> 0.18662952E+03</totfact>
</mgrwt>
</event>
<event>
 4    1  0.7653521E+003  0.2523406E+02  0.7546771E-02  0.1657663E+00
          2   -1    0    0  501    0  0.00000000000E+00  0.00000000000E+00  0.87508370249E+03  0.87508370249E+03  0.00000000000E+00 0. -1.
         -2   -1    0    0    0  501 -0.00000000000E+00 -0.00000000000E+00 -0.16500700619E+03  0.16500700619E+03  0.00000000000E+00 0. -1.
          2    1    1    2  502    0 -0.25093606967E+02 -0.26586805994E+01  0.87393577877E+03  0.87430000749E+03  0.00000000000E+00 0. -1.
         -2    1    1    2    0  502  0.25093606967E+02  0.26586805994E+01 -0.16385908247E+03  0.16579070119E+03  0.00000000000E+00 0. -1.
<mgrwt>
<rscale>  2 0.25234058E+02</rscale>
<asrwt>0</asrwt>
<pdfrwt beam="1">  1        2 0.13462826E+00 0.25234058E+02</pdfrwt>
<pdfrwt beam="2">  1       -2 0.25385694E-01 0.25234058E+02</pdfrwt>
<totfact> 0.45013387E+02</totfact>
</mgrwt>
</event>
<event>
 4    1  0.7653521E+003  0.2163823E+02  0.7546771E-02  0.1714585E+00
         -2   -1    0    0    0  501 -0.00000000000E+00  0.00000000000E+00  0.22221033927E+03  0.22221033927E+03  0.00000000000E+00 0. -1.
          2   -1    0    0  501    0  0.00000000000E+00 -0.00000000000E+00 -0.14148139524E+04  0.14148139524E+04  0.00000000000E+00 0.  1.
          2    1    1    2  502    0  0.14942993907E+02  0.15649915009E+02 -0.14142042236E+04  0.14143697533E+04  0.00000000000E+00 0.  1.
         -2    1    1    2    0  502 -0.14942993907E+02 -0.15649915009E+02  0.22160061047E+03  0.22265453840E+03  0.00000000000E+00 0. -1.
<mgrwt>
<rscale>  2 0.21638228E+02</rscale>
<asrwt>0</asrwt>
<pdfrwt beam="2">  1        2 0.21766368E+00 0.21638228E+02</pdfrwt>
<pdfrwt beam="1">  1       -2 0.34186206E-01 0.21638228E+02</pdfrwt>
<totfact> 0.14257938E+02</totfact>
</mgrwt>
</event>
<event>
 4    1  0.7653521E+003  0.3605399E+02  0.7546771E-02  0.1539435E+00
         -2   -1    0    0    0  501 -0.00000000000E+00  0.00000000000E+00  0.26674994912E+03  0.26674994912E+03  0.00000000000E+00 0. -1.
          2   -1    0    0  501    0  0.00000000000E+00 -0.00000000000E+00 -0.55553098500E+02  0.55553098500E+02  0.00000000000E+00 0. -1.
          2    1    1    2  502    0  0.35867485169E+02 -0.36624764165E+01 -0.48322871408E+02  0.60290879301E+02  0.00000000000E+00 0. -1.
         -2    1    1    2    0  502 -0.35867485169E+02  0.36624764165E+01  0.25951972203E+03  0.26201216832E+03  0.00000000000E+00 0. -1.
<mgrwt>
<rscale>  2 0.36053990E+02</rscale>
<asrwt>0</asrwt>
<pdfrwt beam="2">  1        2 0.85466307E-02 0.36053990E+02</pdfrwt>
<pdfrwt beam="1">  1       -2 0.41038453E-01 0.36053990E+02</pdfrwt>
<totfact> 0.37581942E+03</totfact>
</mgrwt>
</event>
<event>
 4    1  0.7653521E+003  0.4960195E+02  0.7546771E-02  0.1447500E+00
         -2   -1    0    0    0  501 -0.00000000000E+00  0.00000000000E+00  0.43851422654E+01  0.43851422654E+01  0.00000000000E+00 0. -1.
          2   -1    0    0  501    0  0.00000000000E+00 -0.00000000000E+00 -0.78277191494E+03  0.78277191494E+03  0.00000000000E+00 0. -1.
          2    1    1    2  502    0  0.17958104881E+02 -0.46237002041E+02 -0.59865406023E+03  0.60070545005E+03  0.00000000000E+00 0. -1.
         -2    1    1    2    0  502 -0.17958104881E+02  0.46237002041E+02 -0.17973271245E+03  0.18645160716E+03  0.00000000000E+00 0. -1.
<mgrwt>
<rscale>  2 0.49601954E+02</rscale>
<asrwt>0</asrwt>
<pdfrwt beam="2">  1        2 0.12042633E+00 0.49601954E+02</pdfrwt>
<pdfrwt beam="1">  1       -2 0.67463792E-03 0.49601954E+02</pdfrwt>
<totfact> 0.10935079E+05</totfact>
</mgrwt>
</event>
<event>
 4    1  0.7653521E+003  0.3213398E+02  0.7546771E-02  0.1575631E+00
         -2   -1    0    0    0  501 -0.00000000000E+00  0.00000000000E+00  0.22497680157E+01  0.22497680157E+01  0.00000000000E+00 0. -1.
          2   -1    0    0  501    0  0.00000000000E+00 -0.00000000000E+00 -0.81491055039E+03  0.81491055039E+03  0.00000000000E+00 0. -1.
          2    1    1    2  502    0 -0.18143628605E+02 -0.26521715876E+02 -0.67635697559E+03  0.67711989419E+03  0.00000000000E+00 0. -1.
         -2    1    1    2    0  502  0.18143628605E+02  0.26521715876E+02 -0.13630380678E+03  0.14004042422E+03  0.00000000000E+00 0. -1.
<mgrwt>
<rscale>  2 0.32133980E+02</rscale>
<asrwt>0</asrwt>
<pdfrwt beam="2">  1        2 0.12537102E+00 0.32133980E+02</pdfrwt>
<pdfrwt beam="1">  1       -2 0.34611770E-03 0.32133980E+02</pdfrwt>
<totfact> 0.23849733E+05</totfact>
</mgrwt>
</event>
<event>
 4    1  0.7653521E+003  0.2028403E+02  0.7546771E-02  0.1739738E+00
          2   -1    0    0  501    0  0.00000000000E+00  0.00000000000E+00  0.63509302684E+03  0.63509302684E+03  0.00000000000E+00 0.  1.
         -2   -1    0    0    0  501 -0.00000000000E+00 -0.00000000000E+00 -0.18301022505E+01  0.18301022505E+01  0.00000000000E+00 0. -1.
          2    1    1    2  502    0 -0.10569559721E+02  0.17312605014E+02  0.57259336358E+03  0.57295253023E+03  0.00000000000E+00 0.  1.
         -2    1    1    2    0  502  0.10569559721E+02 -0.17312605014E+02  0.60669561011E+02  0.63970598858E+02  0.00000000000E+00 0. -1.
<mgrwt>
<rscale>  2 0.20284030E+02</rscale>
<asrwt>0</asrwt>
<pdfrwt beam="1">  1        2 0.97706444E-01 0.20284030E+02</pdfrwt>
<pdfrwt beam="2">  1       -2 0.28155470E-03 0.20284030E+02</pdfrwt>
<totfact> 0.36802263E+05</totfact>
</mgrwt>
</event>
<event>
 4    1  0.7653521E+003  0.2758752E+02  0.7546771E-02  0.1626396E+00
          2   -1    0    0  501    0  0.00000000000E+00  0.00000000000E+00  0.20118810473E+03  0.20118810473E+03  0.00000000000E+00 0. -1.
         -2   -1    0    0    0  501 -0.00000000000E+00 -0.00000000000E+00 -0.26302387581E+02  0.26302387581E+02  0.00000000000E+00 0.  1.
          2    1    1    2  502    0 -0.19048215682E+01 -0.27521681866E+02  0.19269115430E+03  0.19465598440E+03  0.00000000000E+00 0. -1.
         -2    1    1    2    0  502  0.19048215682E+01  0.27521681866E+02 -0.17805437146E+02  0.32834507913E+02  0.00000000000E+00 0.  1.
<mgrwt>
<rscale>  2 0.27587521E+02</rscale>
<asrwt>0</asrwt>
<pdfrwt beam="1">  1        2 0.30952015E-01 0.27587521E+02</pdfrwt>
<pdfrwt beam="2">  1       -2 0.40465213E-02 0.27587521E+02</pdfrwt>
<totfact> 0.33366363E+04</totfact>
</mgrwt>
</event>
<event>
 4    1  0.7653521E+003  0.2153079E+02  0.7546771E-02  0.1716495E+00
         -2   -1    0    0    0  501 -0.00000000000E+00  0.00000000000E+00  0.23685871155E+03  0.23685871155E+03  0.00000000000E+00 0. -1.
          2   -1    0    0  501    0  0.00000000000E+00 -0.00000000000E+00 -0.25179867695E+01  0.25179867695E+01  0.00000000000E+00 0.  1.
          2    1    1    2  502    0  0.46813061780E+01 -0.21015717733E+02  0.60685514379E+02  0.64391821491E+02  0.00000000000E+00 0.  1.
         -2    1    1    2    0  502 -0.46813061780E+01  0.21015717733E+02  0.17365521040E+03  0.17498487683E+03  0.00000000000E+00 0. -1.
<mgrwt>
<rscale>  2 0.21530792E+02</rscale>
<asrwt>0</asrwt>
<pdfrwt beam="2">  1        2 0.38738277E-03 0.21530792E+02</pdfrwt>
<pdfrwt beam="1">  1       -2 0.36439784E-01 0.21530792E+02</pdfrwt>
<totfact> 0.21978926E+05</totfact>
</mgrwt>
</event>
<event>
 4    1  0.7653521E+003  0.2485346E+02  0.7546771E-02  0.1663116E+00
         -2   -1    0    0    0  501 -0.00000000000E+00  0.00000000000E+00  0.18583755919E+01  0.18583755919E+01  0.00000000000E+00 0. -1.
          2   -1    0    0  501    0  0.00000000000E+00 -0.00000000000E+00 -0.12037991507E+04  0.12037991507E+04  0.00000000000E+00 0.  1.
          2    1    1    2  502    0 -0.18345607625E+02 -0.16767024062E+02 -0.11138665967E+04  0.11141438370E+04  0.00000000000E+00 0.  1.
         -2    1    1    2    0  502  0.18345607625E+02  0.16767024062E+02 -0.88074178475E+02  0.91513689299E+02  0.00000000000E+00 0. -1.
<mgrwt>
<rscale>  2 0.24853459E+02</rscale>
<asrwt>0</asrwt>
<pdfrwt beam="2">  1        2 0.18520017E+00 0.24853459E+02</pdfrwt>
<pdfrwt beam="1">  1       -2 0.28590347E-03 0.24853459E+02</pdfrwt>
<totfact> 0.17767391E+05</totfact>
</mgrwt>
</event>
<event>
 4    1  0.7653521E+003  0.2627338E+02  0.7546771E-02  0.1643358E+00
          2   -1    0    0  501    0  0.00000000000E+00  0.00000000000E+00  0.29170461377E+02  0.29170461377E+02  0.00000000000E+00 0. -1.
         -2   -1    0    0    0  501 -0.00000000000E+00 -0.00000000000E+00 -0.23892978728E+02  0.23892978728E+02  0.00000000000E+00 0. -1.
          2    1    1    2  502    0  0.19276205949E+02 -0.17852681240E+02  0.52359694760E+01  0.26790030228E+02  0.00000000000E+00 0. -1.
         -2    1    1    2    0  502 -0.19276205949E+02  0.17852681240E+02  0.41513173453E-01  0.26273409877E+02  0.00000000000E+00 0. -1.
<mgrwt>
<rscale>  2 0.26273377E+02</rscale>
<asrwt>0</asrwt>
<pdfrwt beam="1">  1        2 0.44877633E-02 0.26273377E+02</pdfrwt>
<pdfrwt beam="2">  1       -2 0.36758429E-02 0.26273377E+02</pdfrwt>
<totfact> 0.33729795E+05</totfact>
</mgrwt>
</event>
<event>
 4    1  0.7653521E+003  0.2176142E+02  0.7546771E-02  0.1712411E+00
          2   -1    0    0  501    0  0.00000000000E+00  0.00000000000E+00  0.10301891497E+04  0.10301891497E+04  0.00000000000E+00 0. -1.
         -2   -1    0    0    0  501 -0.00000000000E+00 -0.00000000000E+00 -0.46170380372E+00  0.46170380372E+00  0.00000000000E+00 0. -1.
          2    1    1    2  502    0 -0.21731595525E+02  0.11387937466E+01  0.48075998223E+03  0.48125224115E+03  0.00000000000E+00 0. -1.
         -2    1    1    2    0  502  0.21731595525E+02 -0.11387937466E+01  0.54896746363E+03  0.54939861232E+03  0.00000000000E+00 0. -1.
<mgrwt>
<rscale>  2 0.21761424E+02</rscale>
<asrwt>0</asrwt>
<pdfrwt beam="1">  1        2 0.15848880E+00 0.21761424E+02</pdfrwt>
<pdfrwt beam="2">  1       -2 0.71032179E-04 0.21761424E+02</pdfrwt>
<totfact> 0.13272478E+06</totfact>
</mgrwt>
</event>
<event>
 4    1  0.7653521E+003  0.2192705E+02  0.7546771E-02  0.1709517E+00
         -2   -1    0    0    0  501 -0.00000000000E+00  0.00000000000E+00  0.21575533283E+01  0.21575533283E+01  0.00000000000E+00 0. -1.
          2   -1    0    0  501    0  0.00000000000E+00 -0.00000000000E+00 -0.76118938692E+03  0.76118938692E+03  0.00000000000E+00 0. -1.
          2    1    1    2  502    0 -0.21361229192E+02 -0.49491015730E+01 -0.70049482900E+03  0.70083792790E+03  0.00000000000E+00 0. -1.
         -2    1    1    2    0  502  0.21361229192E+02  0.49491015730E+01 -0.58537004593E+02  0.62509012355E+02  0.00000000000E+00 0. -1.
<mgrwt>
<rscale>  2 0.21927054E+02</rscale>
<asrwt>0</asrwt>
<pdfrwt beam="2">  1        2 0.11710624E+00 0.21927054E+02</pdfrwt>
<pdfrwt beam="1">  1       -2 0.33193076E-03 0.21927054E+02</pdfrwt>
<totfact> 0.24862112E+05</totfact>
</mgrwt>
</event>
<event>
 4    1  0.7653521E+003  0.2258358E+02  0.7546771E-02  0.1698350E+00
          2   -1    0    0  501    0  0.00000000000E+00  0.00000000000E+00  0.15343516248E+04  0.15343516248E+04  0.00000000000E+00 0. -1.
         -2   -1    0    0    0  501 -0.00000000000E+00 -0.00000000000E+00 -0.16411747626E+02  0.16411747626E+02  0.00000000000E+00 0.  1.
          2    1    1    2  502    0 -0.15020559755E+02  0.16864189953E+02  0.15264592566E+04  0.15266263066E+04  0.00000000000E+00 0. -1.
         -2    1    1    2    0  502  0.15020559755E+02 -0.16864189953E+02 -0.85193794260E+01  0.24137065769E+02  0.00000000000E+00 0.  1.
<mgrwt>
<rscale>  2 0.22583581E+02</rscale>
<asrwt>0</asrwt>
<pdfrwt beam="1">  1        2 0.23605398E+00 0.22583581E+02</pdfrwt>
<pdfrwt beam="2">  1       -2 0.25248855E-02 0.22583581E+02</pdfrwt>
<totfact> 0.63643706E+03</totfact>
</mgrwt>
</event>
<event>
 4    1  0.7653521E+003  0.4009348E+02  0.7546771E-02  0.1507525E+00
         -2   -1    0    0    0  501 -0.00000000000E+00  0.00000000000E+00  0.17676664635E+03  0.17676664635E+03  0.00000000000E+00 0.  1.
          2   -1    0    0  501    0  0.00000000000E+00 -0.00000000000E+00 -0.81724053581E+02  0.81724053581E+02  0.00000000000E+00 0.  1.
          2    1    1    2  502    0  0.40019975923E+02 -0.24265978417E+01 -0.74321161204E+02  0.84445970020E+02  0.00000000000E+00 0.  1.
         -2    1    1    2    0  502 -0.40019975923E+02  0.24265978417E+01  0.16936375397E+03  0.17404472991E+03  0.00000000000E+00 0.  1.
<mgrwt>
<rscale>  2 0.40093476E+02</rscale>
<asrwt>0</asrwt>
<pdfrwt beam="2">  1        2 0.12572931E-01 0.40093476E+02</pdfrwt>
<pdfrwt beam="1">  1       -2 0.27194869E-01 0.40093476E+02</pdfrwt>
<totfact> 0.50308990E+03</totfact>
</mgrwt>
</event>
<event>
 4    1  0.7653521E+003  0.3332339E+02  0.7546771E-02  0.1564014E+00
         -2   -1    0    0    0  501 -0.00000000000E+00  0.00000000000E+00  0.37981449411E+01  0.37981449411E+01  0.00000000000E+00 0. -1.
          2   -1    0    0  501    0  0.00000000000E+00 -0.00000000000E+00 -0.62317019367E+03  0.62317019367E+03  0.00000000000E+00 0. -1.
          2    1    1    2  502    0 -0.21455048942E+02 -0.25497624695E+02 -0.53808694993E+03  0.53911781057E+03  0.00000000000E+00 0. -1.
         -2    1    1    2    0  502  0.21455048942E+02  0.25497624695E+02 -0.81285098802E+02  0.87850528043E+02  0.00000000000E+00 0. -1.
<mgrwt>
<rscale>  2 0.33323385E+02</rscale>
<asrwt>0</asrwt>
<pdfrwt beam="2">  1        2 0.95872285E-01 0.33323385E+02</pdfrwt>
<pdfrwt beam="1">  1       -2 0.58433031E-03 0.33323385E+02</pdfrwt>
<totfact> 0.15944151E+05</totfact>
</mgrwt>
</event>
<event>
 4    1  0.7653521E+003  0.2124669E+02  0.7546771E-02  0.1721615E+00
         -2   -1    0    0    0  501 -0.00000000000E+00  0.00000000000E+00  0.18141366259E+01  0.18141366259E+01  0.00000000000E+00 0.  1.
          2   -1    0    0  501    0  0.00000000000E+00 -0.00000000000E+00 -0.13632448815E+04  0.13632448815E+04  0.00000000000E+00 0.  1.
          2    1    1    2  502    0  0.17666986835E+02 -0.11802523653E+02 -0.12978171996E+04  0.12979911038E+04  0.00000000000E+00 0.  1.
         -2    1    1    2    0  502 -0.17666986835E+02  0.11802523653E+02 -0.63613545255E+02  0.67067914299E+02  0.00000000000E+00 0.  1.
<mgrwt>
<rscale>  2 0.21246694E+02</rscale>
<asrwt>0</asrwt>
<pdfrwt beam="2">  1        2 0.20973114E+00 0.21246694E+02</pdfrwt>
<pdfrwt beam="1">  1       -2 0.27909641E-03 0.21246694E+02</pdfrwt>
<totfact> 0.14804779E+05</totfact>
</mgrwt>
</event>
<event>
 4    1  0.7653521E+003  0.4557475E+02  0.7546771E-02  0.1470785E+00
          2   -1    0    0  501    0  0.00000000000E+00  0.00000000000E+00  0.66187395431E+03  0.66187395431E+03  0.00000000000E+00 0. -1.
         -2   -1    0    0    0  501 -0.00000000000E+00 -0.00000000000E+00 -0.53188260970E+01  0.53188260970E+01  0.00000000000E+00 0. -1.
          2    1    1    2  502    0  0.43768666080E+02  0.12702817190E+02  0.54188154279E+03  0.54379468930E+03  0.00000000000E+00 0. -1.
         -2    1    1    2    0  502 -0.43768666080E+02 -0.12702817190E+02  0.11467358542E+03  0.12339809110E+03  0.00000000000E+00 0. -1.
<mgrwt>
<rscale>  2 0.45574748E+02</rscale>
<asrwt>0</asrwt>
<pdfrwt beam="1">  1        2 0.10182670E+00 0.45574748E+02</pdfrwt>
<pdfrwt beam="2">  1       -2 0.81828146E-03 0.45574748E+02</pdfrwt>
<totfact> 0.99951765E+04</totfact>
</mgrwt>
</event>
<event>
 4    1  0.7653521E+003  0.2393106E+02  0.7546771E-02  0.1676848E+00
          2   -1    0    0  501    0  0.00000000000E+00  0.00000000000E+00  0.74761768317E+03  0.74761768317E+03  0.00000000000E+00 0. -1.
         -2   -1    0    0    0  501 -0.00000000000E+00 -0.00000000000E+00 -0.87168101299E+00  0.87168101299E+00  0.00000000000E+00 0.  1.
          2    1    1    2  502    0 -0.17999101534E+02 -0.15771086611E+02  0.24307995916E+03  0.24425511535E+03  0.00000000000E+00 0. -1.
         -2    1    1    2    0  502  0.17999101534E+02  0.15771086611E+02  0.50366604299E+03  0.50423424883E+03  0.00000000000E+00 0.  1.
<mgrwt>
<rscale>  2 0.23931055E+02</rscale>
<asrwt>0</asrwt>
<pdfrwt beam="1">  1        2 0.11501759E+00 0.23931055E+02</pdfrwt>
<pdfrwt beam="2">  1       -2 0.13410537E-03 0.23931055E+02</pdfrwt>
<totfact> 0.86426683E+05</totfact>
</mgrwt>
</event>
<event>
 4    1  0.7653521E+003  0.2449394E+02  0.7546771E-02  0.1668379E+00
         -2   -1    0    0    0  501 -0.00000000000E+00  0.00000000000E+00  0.49328245976E+01  0.49328245976E+01  0.00000000000E+00 0.  1.
          2   -1    0    0  501    0  0.00000000000E+00 -0.00000000000E+00 -0.13173778298E+04  0.13173778298E+04  0.00000000000E+00 0.  1.
          2    1    1    2  502    0 -0.24476926708E+02  0.91271348525E+00 -0.12861188667E+04  0.12863520872E+04  0.00000000000E+00 0.  1.
         -2    1    1    2    0  502  0.24476926708E+02 -0.91271348525E+00 -0.26326138566E+02  0.35958567252E+02  0.00000000000E+00 0.  1.
<mgrwt>
<rscale>  2 0.24493938E+02</rscale>
<asrwt>0</asrwt>
<pdfrwt beam="2">  1        2 0.20267321E+00 0.24493938E+02</pdfrwt>
<pdfrwt beam="1">  1       -2 0.75889723E-03 0.24493938E+02</pdfrwt>
<totfact> 0.41993888E+04</totfact>
</mgrwt>
</event>
<event>
 4    1  0.7653521E+003  0.3272047E+02  0.7546771E-02  0.1569828E+00
         -2   -1    0    0    0  501 -0.00000000000E+00  0.00000000000E+00  0.24758524881E+03  0.24758524881E+03  0.00000000000E+00 0. -1.
          2   -1    0    0  501    0  0.00000000000E+00 -0.00000000000E+00 -0.46180434479E+02  0.46180434479E+02  0.00000000000E+00 0. -1.
          2    1    1    2  502    0  0.24568517391E+02 -0.21610573435E+02 -0.39134464761E+02  0.51011128816E+02  0.00000000000E+00 0. -1.
         -2    1    1    2    0  502 -0.24568517391E+02  0.21610573435E+02  0.24053927909E+03  0.24275455447E+03  0.00000000000E+00 0. -1.
<mgrwt>
<rscale>  2 0.32720467E+02</rscale>
<asrwt>0</asrwt>
<pdfrwt beam="2">  1        2 0.71046824E-02 0.32720467E+02</pdfrwt>
<pdfrwt beam="1">  1       -2 0.38090037E-01 0.32720467E+02</pdfrwt>
<totfact> 0.53135678E+03</totfact>
</mgrwt>
</event>
<event>
 4    1  0.7653521E+003  0.2172243E+02  0.7546771E-02  0.1713097E+00
         -2   -1    0    0    0  501 -0.00000000000E+00  0.00000000000E+00  0.13809880849E+02  0.13809880849E+02  0.00000000000E+00 0.  1.
          2   -1    0    0  501    0  0.00000000000E+00 -0.00000000000E+00 -0.19046921654E+03  0.19046921654E+03  0.00000000000E+00 0. -1.
          2    1    1    2  502    0 -0.38384973949E+01 -0.21380594553E+02 -0.18085527073E+03  0.18215513399E+03  0.00000000000E+00 0. -1.
         -2    1    1    2    0  502  0.38384973949E+01  0.21380594553E+02  0.41959350428E+01  0.22123963401E+02  0.00000000000E+00 0.  1.
<mgrwt>
<rscale>  2 0.21722428E+02</rscale>
<asrwt>0</asrwt>
<pdfrwt beam="2">  1        2 0.29302955E-01 0.21722428E+02</pdfrwt>
<pdfrwt beam="1">  1       -2 0.21245971E-02 0.21722428E+02</pdfrwt>
<totfact> 0.82258802E+04</totfact>
</mgrwt>
</event>
<event>
 4    1  0.7653521E+003  0.2165341E+02  0.7546771E-02  0.1714316E+00
          2   -1    0    0  501    0  0.00000000000E+00  0.00000000000E+00  0.88342427383E+02  0.88342427383E+02  0.00000000000E+00 0.  1.
         -2   -1    0    0    0  501 -0.00000000000E+00 -0.00000000000E+00 -0.37645996159E+02  0.37645996159E+02  0.00000000000E+00 0.  1.
          2    1    1    2  502    0 -0.10036849220E+02  0.19186762602E+02  0.83733272673E+02  0.86487751468E+02  0.00000000000E+00 0.  1.
         -2    1    1    2    0  502  0.10036849220E+02 -0.19186762602E+02 -0.33036841449E+02  0.39500672075E+02  0.00000000000E+00 0.  1.
<mgrwt>
<rscale>  2 0.21653411E+02</rscale>
<asrwt>0</asrwt>
<pdfrwt beam="1">  1        2 0.13591143E-01 0.21653411E+02</pdfrwt>
<pdfrwt beam="2">  1       -2 0.57916917E-02 0.21653411E+02</pdfrwt>
<totfact> 0.45672719E+04</totfact>
</mgrwt>
</event>
<event>
 4    1  0.7653521E+003  0.2343032E+02  0.7546771E-02  0.1684628E+00
         -2   -1    0    0    0  501 -0.00000000000E+00  0.00000000000E+00  0.91344288947E+03  0.91344288947E+03  0.00000000000E+00 0.  1.
          2   -1    0    0  501    0  0.00000000000E+00 -0.00000000000E+00 -0.95474007878E+02  0.95474007878E+02  0.00000000000E+00 0.  1.
          2    1    1    2  502    0 -0.20628260228E+01  0.23339333503E+02 -0.93883740141E+02  0.96763300907E+02  0.00000000000E+00 0.  1.
         -2    1    1    2    0  502  0.20628260228E+01 -0.23339333503E+02  0.91185262173E+03  0.91215359644E+03  0.00000000000E+00 0.  1.
<mgrwt>
<rscale>  2 0.23430317E+02</rscale>
<asrwt>0</asrwt>
<pdfrwt beam="2">  1        2 0.14688309E-01 0.23430317E+02</pdfrwt>
<pdfrwt beam="1">  1       -2 0.14052967E+00 0.23430317E+02</pdfrwt>
<totfact> 0.14640345E+02</totfact>
</mgrwt>
</event>
<event>
 4    1  0.7653521E+003  0.3216149E+02  0.7546771E-02  0.1575356E+00
         -2   -1    0    0    0  501 -0.00000000000E+00  0.00000000000E+00  0.67300831209E+02  0.67300831209E+02  0.00000000000E+00 0. -1.
          2   -1    0    0  501    0  0.00000000000E+00 -0.00000000000E+00 -0.12074640469E+04  0.12074640469E+04  0.00000000000E+00 0.  1.
          2    1    1    2  502    0 -0.20950083567E+02 -0.24401953604E+02 -0.12033945908E+04  0.12038242823E+04  0.00000000000E+00 0.  1.
         -2    1    1    2    0  502  0.20950083567E+02  0.24401953604E+02  0.63231375121E+02  0.70940595859E+02  0.00000000000E+00 0. -1.
<mgrwt>
<rscale>  2 0.32161488E+02</rscale>
<asrwt>0</asrwt>
<pdfrwt beam="2">  1        2 0.18576369E+00 0.32161488E+02</pdfrwt>
<pdfrwt beam="1">  1       -2 0.10353974E-01 0.32161488E+02</pdfrwt>
<totfact> 0.12338092E+03</totfact>
</mgrwt>
</event>
<event>
 4    1  0.7653521E+003  0.2556834E+02  0.7546771E-02  0.1652970E+00
         -2   -1    0    0    0  501 -0.00000000000E+00  0.00000000000E+00  0.26725229746E+02  0.26725229746E+02  0.00000000000E+00 0. -1.
          2   -1    0    0  501    0  0.00000000000E+00 -0.00000000000E+00 -0.13592429220E+03  0.13592429220E+03  0.00000000000E+00 0.  1.
          2    1    1    2  502    0  0.25080001821E+02  0.49732925500E+01 -0.12824383271E+03  0.13076781239E+03  0.00000000000E+00 0.  1.
         -2    1    1    2    0  502 -0.25080001821E+02 -0.49732925500E+01  0.19044770253E+02  0.31881709554E+02  0.00000000000E+00 0. -1.
<mgrwt>
<rscale>  2 0.25568342E+02</rscale>
<asrwt>0</asrwt>
<pdfrwt beam="2">  1        2 0.20911429E-01 0.25568342E+02</pdfrwt>
<pdfrwt beam="1">  1       -2 0.41115739E-02 0.25568342E+02</pdfrwt>
<totfact> 0.48276726E+04</totfact>
</mgrwt>
</event>
<event>
 4    1  0.7653521E+003  0.2321122E+02  0.7546771E-02  0.1688109E+00
         -2   -1    0    0    0  501 -0.00000000000E+00  0.00000000000E+00  0.52484054411E+01  0.52484054411E+01  0.00000000000E+00 0. -1.
          2   -1    0    0  501    0  0.00000000000E+00 -0.00000000000E+00 -0.78746880579E+03  0.78746880579E+03  0.00000000000E+00 0.  1.
          2    1    1    2  502    0 -0.18437449557E+02 -0.14100398646E+02 -0.76073297943E+03  0.76108700343E+03  0.00000000000E+00 0.  1.
         -2    1    1    2    0  502  0.18437449557E+02  0.14100398646E+02 -0.21487420917E+02  0.31630207805E+02  0.00000000000E+00 0. -1.
<mgrwt>
<rscale>  2 0.23211221E+02</rscale>
<asrwt>0</asrwt>
<pdfrwt beam="2">  1        2 0.12114909E+00 0.23211221E+02</pdfrwt>
<pdfrwt beam="1">  1       -2 0.80744673E-03 0.23211221E+02</pdfrwt>
<totfact> 0.73761535E+04</totfact>
</mgrwt>
</event>
<event>
 4    1  0.7653521E+003  0.6695143E+02  0.7546771E-02  0.1370778E+00
         -2   -1    0    0    0  501 -0.00000000000E+00  0.00000000000E+00  0.27082165329E+03  0.27082165329E+03  0.00000000000E+00 0. -1.
          2   -1    0    0  501    0  0.00000000000E+00 -0.00000000000E+00 -0.30702429927E+02  0.30702429927E+02  0.00000000000E+00 0.  1.
          2    1    1    2  502    0 -0.61292428047E+02 -0.26939425527E+02  0.17707052904E+02  0.69253405015E+02  0.00000000000E+00 0.  1.
         -2    1    1    2    0  502  0.61292428047E+02  0.26939425527E+02  0.22241217045E+03  0.23227067820E+03  0.00000000000E+00 0. -1.
<mgrwt>
<rscale>  2 0.66951433E+02</rscale>
<asrwt>0</asrwt>
<pdfrwt beam="2">  1        2 0.47234509E-02 0.66951433E+02</pdfrwt>
<pdfrwt beam="1">  1       -2 0.41664868E-01 0.66951433E+02</pdfrwt>
<totfact> 0.81644771E+03</totfact>
</mgrwt>
</event>
<event>
 4    1  0.7653521E+003  0.2161209E+02  0.7546771E-02  0.1715048E+00
         -2   -1    0    0    0  501 -0.00000000000E+00  0.00000000000E+00  0.14833593531E+03  0.14833593531E+03  0.00000000000E+00 0.  1.
          2   -1    0    0  501    0  0.00000000000E+00 -0.00000000000E+00 -0.94702099499E+01  0.94702099499E+01  0.00000000000E+00 0.  1.
          2    1    1    2  502    0  0.19546565956E+02  0.92203027091E+01  0.49683624638E+01  0.22175816744E+02  0.00000000000E+00 0.  1.
         -2    1    1    2    0  502 -0.19546565956E+02 -0.92203027091E+01  0.13389736290E+03  0.13563032852E+03  0.00000000000E+00 0.  1.
<mgrwt>
<rscale>  2 0.21612085E+02</rscale>
<asrwt>0</asrwt>
<pdfrwt beam="2">  1        2 0.14569555E-02 0.21612085E+02</pdfrwt>
<pdfrwt beam="1">  1       -2 0.22820911E-01 0.21612085E+02</pdfrwt>
<totfact> 0.86960036E+04</totfact>
</mgrwt>
</event>
<event>
 4    1  0.7653521E+003  0.3832439E+02  0.7546771E-02  0.1520917E+00
         -2   -1    0    0    0  501 -0.00000000000E+00  0.00000000000E+00  0.51003488193E+02  0.51003488193E+02  0.00000000000E+00 0. -1.
          2   -1    0    0  501    0  0.00000000000E+00 -0.00000000000E+00 -0.22271411614E+03  0.22271411614E+03  0.00000000000E+00 0.  1.
          2    1    1    2  502    0 -0.26442338098E+02  0.27740970741E+02 -0.21355995694E+03  0.21697145874E+03  0.00000000000E+00 0.  1.
         -2    1    1    2    0  502  0.26442338098E+02 -0.27740970741E+02  0.41849328994E+02  0.56746145587E+02  0.00000000000E+00 0. -1.
<mgrwt>
<rscale>  2 0.38324388E+02</rscale>
<asrwt>0</asrwt>
<pdfrwt beam="2">  1        2 0.34263710E-01 0.38324388E+02</pdfrwt>
<pdfrwt beam="1">  1       -2 0.78466905E-02 0.38324388E+02</pdfrwt>
<totfact> 0.12123859E+04</totfact>
</mgrwt>
</event>
<event>
 4    1  0.7653521E+003  0.2233893E+02  0.7546771E-02  0.1702456E+00
         -2   -1    0    0    0  501 -0.00000000000E+00  0.00000000000E+00  0.46721536663E+02  0.46721536663E+02  0.00000000000E+00 0.  1.
          2   -1    0    0  501    0  0.00000000000E+00 -0.00000000000E+00 -0.39265435330E+03  0.39265435330E+03  0.00000000000E+00 0.  1.
          2    1    1    2  502    0 -0.20719167861E+02 -0.83512665961E+01 -0.38964580339E+03  0.39028563857E+03  0.00000000000E+00 0.  1.
         -2    1    1    2    0  502  0.20719167861E+02  0.83512665961E+01  0.43712986758E+02  0.49090251394E+02  0.00000000000E+00 0.  1.
<mgrwt>
<rscale>  2 0.22338925E+02</rscale>
<asrwt>0</asrwt>
<pdfrwt beam="2">  1        2 0.60408362E-01 0.22338925E+02</pdfrwt>
<pdfrwt beam="1">  1       -2 0.71879287E-02 0.22338925E+02</pdfrwt>
<totfact> 0.72919206E+03</totfact>
</mgrwt>
</event>
<event>
 4    1  0.7653521E+003  0.4687309E+02  0.7546771E-02  0.1462976E+00
          2   -1    0    0  501    0  0.00000000000E+00  0.00000000000E+00  0.47220100484E+03  0.47220100484E+03  0.00000000000E+00 0.  1.
         -2   -1    0    0    0  501 -0.00000000000E+00 -0.00000000000E+00 -0.54408298777E+01  0.54408298777E+01  0.00000000000E+00 0.  1.
          2    1    1    2  502    0 -0.18299301087E+02  0.43153475698E+02  0.32426537684E+03  0.32763565359E+03  0.00000000000E+00 0.  1.
         -2    1    1    2    0  502  0.18299301087E+02 -0.43153475698E+02  0.14249479812E+03  0.15000618113E+03  0.00000000000E+00 0.  1.
<mgrwt>
<rscale>  2 0.46873093E+02</rscale>
<asrwt>0</asrwt>
<pdfrwt beam="1">  1        2 0.72646276E-01 0.46873093E+02</pdfrwt>
<pdfrwt beam="2">  1       -2 0.83705112E-03 0.46873093E+02</pdfrwt>
<totfact> 0.13976773E+05</totfact>
</mgrwt>
</event>
<event>
 4    1  0.7653521E+003  0.2143246E+02  0.7546771E-02  0.1718256E+00
          2   -1    0    0  501    0  0.00000000000E+00  0.00000000000E+00  0.69423412575E+02  0.69423412575E+02  0.00000000000E+00 0.  1.
         -2   -1    0    0    0  501 -0.00000000000E+00 -0.00000000000E+00 -0.30731974696E+02  0.30731974696E+02  0.00000000000E+00 0.  1.
          2    1    1    2  502    0  0.11188645637E+02  0.18280172945E+02  0.63706137013E+02  0.67214748435E+02  0.00000000000E+00 0.  1.
         -2    1    1    2    0  502 -0.11188645637E+02 -0.18280172945E+02 -0.25014699135E+02  0.32940638836E+02  0.00000000000E+00 0.  1.
<mgrwt>
<rscale>  2 0.21432464E+02</rscale>
<asrwt>0</asrwt>
<pdfrwt beam="1">  1        2 0.10680525E-01 0.21432464E+02</pdfrwt>
<pdfrwt beam="2">  1       -2 0.47279961E-02 0.21432464E+02</pdfrwt>
<totfact> 0.79674659E+04</totfact>
</mgrwt>
</event>
<event>
 4    1  0.7653521E+003  0.2222467E+02  0.7546771E-02  0.1704395E+00
         -2   -1    0    0    0  501 -0.00000000000E+00  0.00000000000E+00  0.66959331580E+00  0.66959331580E+00  0.00000000000E+00 0.  1.
          2   -1    0    0  501    0  0.00000000000E+00 -0.00000000000E+00 -0.74401430527E+03  0.74401430527E+03  0.00000000000E+00 0.  1.
          2    1    1    2  502    0 -0.13107670538E+02  0.17947844865E+02 -0.40606640656E+03  0.40667414806E+03  0.00000000000E+00 0.  1.
         -2    1    1    2    0  502  0.13107670538E+02 -0.17947844865E+02 -0.33727830539E+03  0.33800975052E+03  0.00000000000E+00 0.  1.
<mgrwt>
<rscale>  2 0.22224675E+02</rscale>
<asrwt>0</asrwt>
<pdfrwt beam="2">  1        2 0.11446335E+00 0.22224675E+02</pdfrwt>
<pdfrwt beam="1">  1       -2 0.10301471E-03 0.22224675E+02</pdfrwt>
<totfact> 0.12021374E+06</totfact>
</mgrwt>
</event>
<event>
 4    1  0.7653521E+003  0.2100820E+02  0.7546771E-02  0.1725991E+00
          2   -1    0    0  501    0  0.00000000000E+00  0.00000000000E+00  0.92559674383E+03  0.92559674383E+03  0.00000000000E+00 0. -1.
         -2   -1    0    0    0  501 -0.00000000000E+00 -0.00000000000E+00 -0.20907080455E+03  0.20907080455E+03  0.00000000000E+00 0. -1.
          2    1    1    2  502    0 -0.20890895292E+02  0.22169766072E+01  0.92494942390E+03  0.92518797078E+03  0.00000000000E+00 0. -1.
         -2    1    1    2    0  502  0.20890895292E+02 -0.22169766072E+01 -0.20842348463E+03  0.20947957761E+03  0.00000000000E+00 0. -1.
<mgrwt>
<rscale>  2 0.21008201E+02</rscale>
<asrwt>0</asrwt>
<pdfrwt beam="1">  1        2 0.14239950E+00 0.21008201E+02</pdfrwt>
<pdfrwt beam="2">  1       -2 0.32164740E-01 0.21008201E+02</pdfrwt>
<totfact> 0.28129945E+02</totfact>
</mgrwt>
</event>
<event>
 4    1  0.7653521E+003  0.2077556E+02  0.7546771E-02  0.1730331E+00
          2   -1    0    0  501    0  0.00000000000E+00  0.00000000000E+00  0.64963400683E+03  0.64963400683E+03  0.00000000000E+00 0.  1.
         -2   -1    0    0    0  501 -0.00000000000E+00 -0.00000000000E+00 -0.32764573021E+02  0.32764573021E+02  0.00000000000E+00 0.  1.
          2    1    1    2  502    0 -0.20200906749E+02  0.48525320836E+01  0.64615681406E+03  0.64649072079E+03  0.00000000000E+00 0.  1.
         -2    1    1    2    0  502  0.20200906749E+02 -0.48525320836E+01 -0.29287380250E+02  0.35907859070E+02  0.00000000000E+00 0.  1.
<mgrwt>
<rscale>  2 0.20775555E+02</rscale>
<asrwt>0</asrwt>
<pdfrwt beam="1">  1        2 0.99943683E-01 0.20775555E+02</pdfrwt>
<pdfrwt beam="2">  1       -2 0.50407040E-02 0.20775555E+02</pdfrwt>
<totfact> 0.72144117E+03</totfact>
</mgrwt>
</event>
<event>
 4    1  0.7653521E+003  0.2774105E+02  0.7546771E-02  0.1624490E+00
         -2   -1    0    0    0  501 -0.00000000000E+00  0.00000000000E+00  0.22617463862E+03  0.22617463862E+03  0.00000000000E+00 0.  1.
          2   -1    0    0  501    0  0.00000000000E+00 -0.00000000000E+00 -0.10766145633E+02  0.10766145633E+02  0.00000000000E+00 0.  1.
          2    1    1    2  502    0 -0.27458220094E+02 -0.39511900661E+01  0.97269870251E+01  0.29396939131E+02  0.00000000000E+00 0.  1.
         -2    1    1    2    0  502  0.27458220094E+02  0.39511900661E+01  0.20568150596E+03  0.20754384512E+03  0.00000000000E+00 0.  1.
<mgrwt>
<rscale>  2 0.27741048E+02</rscale>
<asrwt>0</asrwt>
<pdfrwt beam="2">  1        2 0.16563303E-02 0.27741048E+02</pdfrwt>
<pdfrwt beam="1">  1       -2 0.34796095E-01 0.27741048E+02</pdfrwt>
<totfact> 0.38167550E+04</totfact>
</mgrwt>
</event>
<event>
 4    1  0.7653521E+003  0.2358658E+02  0.7546771E-02  0.1682175E+00
          2   -1    0    0  501    0  0.00000000000E+00  0.00000000000E+00  0.58744364999E+02  0.58744364999E+02  0.00000000000E+00 0.  1.
         -2   -1    0    0    0  501 -0.00000000000E+00 -0.00000000000E+00 -0.72700743850E+03  0.72700743850E+03  0.00000000000E+00 0. -1.
          2    1    1    2  502    0 -0.20899318263E+02 -0.10933665806E+02  0.56177095869E+02  0.60927765855E+02  0.00000000000E+00 0.  1.
         -2    1    1    2    0  502  0.20899318263E+02  0.10933665806E+02 -0.72444016937E+03  0.72482403764E+03  0.00000000000E+00 0. -1.
<mgrwt>
<rscale>  2 0.23586576E+02</rscale>
<asrwt>0</asrwt>
<pdfrwt beam="1">  1        2 0.90375935E-02 0.23586576E+02</pdfrwt>
<pdfrwt beam="2">  1       -2 0.11184731E+00 0.23586576E+02</pdfrwt>
<totfact> 0.43287226E+02</totfact>
</mgrwt>
</event>
<event>
 4    1  0.7653521E+003  0.2782396E+02  0.7546771E-02  0.1623467E+00
          2   -1    0    0  501    0  0.00000000000E+00  0.00000000000E+00  0.10578131984E+02  0.10578131984E+02  0.00000000000E+00 0.  1.
         -2   -1    0    0    0  501 -0.00000000000E+00 -0.00000000000E+00 -0.11447673600E+03  0.11447673600E+03  0.00000000000E+00 0. -1.
          2    1    1    2  502    0  0.21805961652E+02 -0.17282151608E+02 -0.14396917108E+02  0.31328005842E+02  0.00000000000E+00 0.  1.
         -2    1    1    2    0  502 -0.21805961652E+02  0.17282151608E+02 -0.89501686907E+02  0.93726862142E+02  0.00000000000E+00 0. -1.
<mgrwt>
<rscale>  2 0.27823960E+02</rscale>
<asrwt>0</asrwt>
<pdfrwt beam="1">  1        2 0.16274049E-02 0.27823960E+02</pdfrwt>
<pdfrwt beam="2">  1       -2 0.17611806E-01 0.27823960E+02</pdfrwt>
<totfact> 0.12239008E+05</totfact>
</mgrwt>
</event>
<event>
 4    1  0.7653521E+003  0.2456861E+02  0.7546771E-02  0.1667277E+00
          2   -1    0    0  501    0  0.00000000000E+00  0.00000000000E+00  0.20691923616E+03  0.20691923616E+03  0.00000000000E+00 0.  1.
         -2   -1    0    0    0  501 -0.00000000000E+00 -0.00000000000E+00 -0.44783828177E+01  0.44783828177E+01  0.00000000000E+00 0. -1.
          2    1    1    2  502    0  0.17346539477E+02  0.17398677123E+02  0.16362867817E+03  0.16546286809E+03  0.00000000000E+00 0.  1.
         -2    1    1    2    0  502 -0.17346539477E+02 -0.17398677123E+02  0.38812175178E+02  0.45934750892E+02  0.00000000000E+00 0. -1.
<mgrwt>
<rscale>  2 0.24568606E+02</rscale>
<asrwt>0</asrwt>
<pdfrwt beam="1">  1        2 0.31833721E-01 0.24568606E+02</pdfrwt>
<pdfrwt beam="2">  1       -2 0.68898213E-03 0.24568606E+02</pdfrwt>
<totfact> 0.36053370E+05</totfact>
</mgrwt>
</event>
<event>
 4    1  0.7653521E+003  0.3361901E+02  0.7546771E-02  0.1561218E+00
          2   -1    0    0  501    0  0.00000000000E+00  0.00000000000E+00  0.63215299354E+03  0.63215299354E+03  0.00000000000E+00 0.  1.
         -2   -1    0    0    0  501 -0.00000000000E+00 -0.00000000000E+00 -0.55204801887E+01  0.55204801887E+01  0.00000000000E+00 0.  1.
          2    1    1    2  502    0 -0.63471665177E+01  0.33014411398E+02  0.57548652506E+03  0.57646767334E+03  0.00000000000E+00 0.  1.
         -2    1    1    2    0  502  0.63471665177E+01 -0.33014411398E+02  0.51145988293E+02  0.61205800389E+02  0.00000000000E+00 0.  1.
<mgrwt>
<rscale>  2 0.33619011E+02</rscale>
<asrwt>0</asrwt>
<pdfrwt beam="1">  1        2 0.97254249E-01 0.33619011E+02</pdfrwt>
<pdfrwt beam="2">  1       -2 0.84930515E-03 0.33619011E+02</pdfrwt>
<totfact> 0.94428075E+04</totfact>
</mgrwt>
</event>
<event>
 4    1  0.7653521E+003  0.4409433E+02  0.7546771E-02  0.1480076E+00
         -2   -1    0    0    0  501 -0.00000000000E+00  0.00000000000E+00  0.10027833336E+03  0.10027833336E+03  0.00000000000E+00 0.  1.
          2   -1    0    0  501    0  0.00000000000E+00 -0.00000000000E+00 -0.31313922707E+04  0.31313922707E+04  0.00000000000E+00 0.  1.
          2    1    1    2  502    0  0.14722707825E+02  0.41563831702E+02 -0.31263819916E+04  0.31266929283E+04  0.00000000000E+00 0.  1.
         -2    1    1    2    0  502 -0.14722707825E+02 -0.41563831702E+02  0.95268054321E+02  0.10497767575E+03  0.00000000000E+00 0.  1.
<mgrwt>
<rscale>  2 0.44094333E+02</rscale>
<asrwt>0</asrwt>
<pdfrwt beam="2">  1        2 0.48175275E+00 0.44094333E+02</pdfrwt>
<pdfrwt beam="1">  1       -2 0.15427433E-01 0.44094333E+02</pdfrwt>
<totfact> 0.70814266E+01</totfact>
</mgrwt>
</event>
<event>
 4    1  0.7653521E+003  0.3284068E+02  0.7546771E-02  0.1568657E+00
         -2   -1    0    0    0  501 -0.00000000000E+00  0.00000000000E+00  0.11378512910E+03  0.11378512910E+03  0.00000000000E+00 0.  1.
          2   -1    0    0  501    0  0.00000000000E+00 -0.00000000000E+00 -0.71853815308E+02  0.71853815308E+02  0.00000000000E+00 0.  1.
          2    1    1    2  502    0  0.19663336315E+02  0.26303297337E+02 -0.65515326446E+02  0.73285525482E+02  0.00000000000E+00 0.  1.
         -2    1    1    2    0  502 -0.19663336315E+02 -0.26303297337E+02  0.10744664024E+03  0.11235341892E+03  0.00000000000E+00 0.  1.
<mgrwt>
<rscale>  2 0.32840680E+02</rscale>
<asrwt>0</asrwt>
<pdfrwt beam="2">  1        2 0.11054433E-01 0.32840680E+02</pdfrwt>
<pdfrwt beam="1">  1       -2 0.17505404E-01 0.32840680E+02</pdfrwt>
<totfact> 0.11796066E+04</totfact>
</mgrwt>
</event>
<event>
 4    1  0.7653521E+003  0.2464958E+02  0.7546771E-02  0.1666087E+00
          2   -1    0    0  501    0  0.00000000000E+00  0.00000000000E+00  0.13397012325E+04  0.13397012325E+04  0.00000000000E+00 0.  1.
         -2   -1    0    0    0  501 -0.00000000000E+00 -0.00000000000E+00 -0.92770570531E+00  0.92770570531E+00  0.00000000000E+00 0.  1.
          2    1    1    2  502    0 -0.59651040847E+01 -0.23916922693E+02  0.11486131816E+04  0.11488776448E+04  0.00000000000E+00 0.  1.
         -2    1    1    2    0  502  0.59651040847E+01  0.23916922693E+02  0.19016034523E+03  0.19175129349E+03  0.00000000000E+00 0.  1.
<mgrwt>
<rscale>  2 0.24649577E+02</rscale>
<asrwt>0</asrwt>
<pdfrwt beam="1">  1        2 0.20610633E+00 0.24649577E+02</pdfrwt>
<pdfrwt beam="2">  1       -2 0.14272503E-03 0.24649577E+02</pdfrwt>
<totfact> 0.38249802E+05</totfact>
</mgrwt>
</event>
<event>
 4    1  0.7653521E+003  0.2107053E+02  0.7546771E-02  0.1724841E+00
          2   -1    0    0  501    0  0.00000000000E+00  0.00000000000E+00  0.28140764449E+03  0.28140764449E+03  0.00000000000E+00 0. -1.
         -2   -1    0    0    0  501 -0.00000000000E+00 -0.00000000000E+00 -0.10125327811E+02  0.10125327811E+02  0.00000000000E+00 0.  1.
          2    1    1    2  502    0 -0.20067531180E+02 -0.64235096732E+01  0.26957082965E+03  0.27039304629E+03  0.00000000000E+00 0. -1.
         -2    1    1    2    0  502  0.20067531180E+02  0.64235096732E+01  0.17114870364E+01  0.21139926018E+02  0.00000000000E+00 0.  1.
<mgrwt>
<rscale>  2 0.21070531E+02</rscale>
<asrwt>0</asrwt>
<pdfrwt beam="1">  1        2 0.43293478E-01 0.21070531E+02</pdfrwt>
<pdfrwt beam="2">  1       -2 0.15577430E-02 0.21070531E+02</pdfrwt>
<totfact> 0.84595062E+04</totfact>
</mgrwt>
</event>
<event>
 4    1  0.7653521E+003  0.2338342E+02  0.7546771E-02  0.1685369E+00
          2   -1    0    0  501    0  0.00000000000E+00  0.00000000000E+00  0.37077346057E+03  0.37077346057E+03  0.00000000000E+00 0.  1.
         -2   -1    0    0    0  501 -0.00000000000E+00 -0.00000000000E+00 -0.61047127762E+01  0.61047127762E+01  0.00000000000E+00 0. -1.
          2    1    1    2  502    0 -0.16925215014E+02 -0.16134481533E+02  0.34644203792E+03  0.34723028387E+03  0.00000000000E+00 0.  1.
         -2    1    1    2    0  502  0.16925215014E+02  0.16134481533E+02  0.18226709873E+02  0.29647889477E+02  0.00000000000E+00 0. -1.
<mgrwt>
<rscale>  2 0.23383421E+02</rscale>
<asrwt>0</asrwt>
<pdfrwt beam="1">  1        2 0.57042053E-01 0.23383421E+02</pdfrwt>
<pdfrwt beam="2">  1       -2 0.93918687E-03 0.23383421E+02</pdfrwt>
<totfact> 0.13128136E+05</totfact>
</mgrwt>
</event>
<event>
 4    1  0.7653521E+003  0.2194490E+02  0.7546771E-02  0.1709207E+00
         -2   -1    0    0    0  501 -0.00000000000E+00  0.00000000000E+00  0.30417269773E+02  0.30417269773E+02  0.00000000000E+00 0. -1.
          2   -1    0    0  501    0  0.00000000000E+00 -0.00000000000E+00 -0.54140490140E+03  0.54140490140E+03  0.00000000000E+00 0.  1.
          2    1    1    2  502    0 -0.20249659907E+02 -0.84575455925E+01 -0.53719340547E+03  0.53764145458E+03  0.00000000000E+00 0.  1.
         -2    1    1    2    0  502  0.20249659907E+02  0.84575455925E+01  0.26205773845E+02  0.34180716590E+02  0.00000000000E+00 0. -1.
<mgrwt>
<rscale>  2 0.21944904E+02</rscale>
<asrwt>0</asrwt>
<pdfrwt beam="2">  1        2 0.83293059E-01 0.21944904E+02</pdfrwt>
<pdfrwt beam="1">  1       -2 0.46795801E-02 0.21944904E+02</pdfrwt>
<totfact> 0.97488197E+03</totfact>
</mgrwt>
</event>
<event>
 4    1  0.7653521E+003  0.2408833E+02  0.7546771E-02  0.1674453E+00
         -2   -1    0    0    0  501 -0.00000000000E+00  0.00000000000E+00  0.12986053108E+03  0.12986053108E+03  0.00000000000E+00 0. -1.
          2   -1    0    0  501    0  0.00000000000E+00 -0.00000000000E+00 -0.55390551469E+03  0.55390551469E+03  0.00000000000E+00 0. -1.
          2    1    1    2  502    0  0.23202453378E+02  0.64725243868E+01 -0.55252377449E+03  0.55304861341E+03  0.00000000000E+00 0. -1.
         -2    1    1    2    0  502 -0.23202453378E+02 -0.64725243868E+01  0.12847879088E+03  0.13071743236E+03  0.00000000000E+00 0. -1.
<mgrwt>
<rscale>  2 0.24088325E+02</rscale>
<asrwt>0</asrwt>
<pdfrwt beam="2">  1        2 0.85216233E-01 0.24088325E+02</pdfrwt>
<pdfrwt beam="1">  1       -2 0.19978543E-01 0.24088325E+02</pdfrwt>
<totfact> 0.10983229E+03</totfact>
</mgrwt>
</event>
<event>
 4    1  0.7653521E+003  0.2306153E+02  0.7546771E-02  0.1690515E+00
          2   -1    0    0  501    0  0.00000000000E+00  0.00000000000E+00  0.45124120058E+03  0.45124120058E+03  0.00000000000E+00 0. -1.
         -2   -1    0    0    0  501 -0.00000000000E+00 -0.00000000000E+00 -0.36619791777E+01  0.36619791777E+01  0.00000000000E+00 0. -1.
          2    1    1    2  502    0 -0.11909865305E+02  0.19748145339E+02  0.41109588083E+03  0.41174222199E+03  0.00000000000E+00 0. -1.
         -2    1    1    2    0  502  0.11909865305E+02 -0.19748145339E+02  0.36483340575E+02  0.43160957768E+02  0.00000000000E+00 0. -1.
<mgrwt>
<rscale>  2 0.23061529E+02</rscale>
<asrwt>0</asrwt>
<pdfrwt beam="1">  1        2 0.69421679E-01 0.23061529E+02</pdfrwt>
<pdfrwt beam="2">  1       -2 0.56338177E-03 0.23061529E+02</pdfrwt>
<totfact> 0.21429514E+05</totfact>
</mgrwt>
</event>
<event>
 4    1  0.7653521E+003  0.2369476E+02  0.7546771E-02  0.1680490E+00
         -2   -1    0    0    0  501 -0.00000000000E+00  0.00000000000E+00  0.22842266170E+02  0.22842266170E+02  0.00000000000E+00 0.  1.
          2   -1    0    0  501    0  0.00000000000E+00 -0.00000000000E+00 -0.23800351600E+03  0.23800351600E+03  0.00000000000E+00 0.  1.
          2    1    1    2  502    0 -0.91229301715E+01  0.21868100003E+02 -0.23108553340E+03  0.23229714893E+03  0.00000000000E+00 0.  1.
         -2    1    1    2    0  502  0.91229301715E+01 -0.21868100003E+02  0.15924283572E+02  0.28548633242E+02  0.00000000000E+00 0.  1.
<mgrwt>
<rscale>  2 0.23694760E+02</rscale>
<asrwt>0</asrwt>
<pdfrwt beam="2">  1        2 0.36615925E-01 0.23694760E+02</pdfrwt>
<pdfrwt beam="1">  1       -2 0.35141948E-02 0.23694760E+02</pdfrwt>
<totfact> 0.33387573E+04</totfact>
</mgrwt>
</event>
<event>
 4    1  0.7653521E+003  0.4007816E+02  0.7546771E-02  0.1507637E+00
         -2   -1    0    0    0  501 -0.00000000000E+00  0.00000000000E+00  0.20675500539E+02  0.20675500539E+02  0.00000000000E+00 0. -1.
          2   -1    0    0  501    0  0.00000000000E+00 -0.00000000000E+00 -0.14475215413E+03  0.14475215413E+03  0.00000000000E+00 0.  1.
          2    1    1    2  502    0  0.37911859465E+02  0.12998065896E+02 -0.11833822524E+03  0.12494076339E+03  0.00000000000E+00 0.  1.
         -2    1    1    2    0  502 -0.37911859465E+02 -0.12998065896E+02 -0.57384283547E+01  0.40486891275E+02  0.00000000000E+00 0. -1.
<mgrwt>
<rscale>  2 0.40078159E+02</rscale>
<asrwt>0</asrwt>
<pdfrwt beam="2">  1        2 0.22269562E-01 0.40078159E+02</pdfrwt>
<pdfrwt beam="1">  1       -2 0.31808463E-02 0.40078159E+02</pdfrwt>
<totfact> 0.70959781E+04</totfact>
</mgrwt>
</event>
<event>
 4    1  0.7653521E+003  0.2081546E+02  0.7546771E-02  0.1729582E+00
         -2   -1    0    0    0  501 -0.00000000000E+00  0.00000000000E+00  0.16934302445E+02  0.16934302445E+02  0.00000000000E+00 0.  1.
          2   -1    0    0  501    0  0.00000000000E+00 -0.00000000000E+00 -0.12839675071E+03  0.12839675071E+03  0.00000000000E+00 0.  1.
          2    1    1    2  502    0 -0.19267620988E+02  0.78766759548E+01 -0.12075473299E+03  0.12253566331E+03  0.00000000000E+00 0.  1.
         -2    1    1    2    0  502  0.19267620988E+02 -0.78766759548E+01  0.92922847295E+01  0.22795389844E+02  0.00000000000E+00 0.  1.
<mgrwt>
<rscale>  2 0.20815457E+02</rscale>
<asrwt>0</asrwt>
<pdfrwt beam="2">  1        2 0.19753345E-01 0.20815457E+02</pdfrwt>
<pdfrwt beam="1">  1       -2 0.26052774E-02 0.20815457E+02</pdfrwt>
<totfact> 0.92451667E+04</totfact>
</mgrwt>
</event>
<event>
 4    1  0.7653521E+003  0.2471993E+02  0.7546771E-02  0.1665057E+00
         -2   -1    0    0    0  501 -0.00000000000E+00  0.00000000000E+00  0.99558094602E+02  0.99558094602E+02  0.00000000000E+00 0. -1.
          2   -1    0    0  501    0  0.00000000000E+00 -0.00000000000E+00 -0.23943626516E+02  0.23943626516E+02  0.00000000000E+00 0. -1.
          2    1    1    2  502    0  0.75666936343E+00  0.24708350781E+02 -0.15443819302E+02  0.29147670602E+02  0.00000000000E+00 0. -1.
         -2    1    1    2    0  502 -0.75666936343E+00 -0.24708350781E+02  0.91058287388E+02  0.94354050517E+02  0.00000000000E+00 0. -1.
<mgrwt>
<rscale>  2 0.24719934E+02</rscale>
<asrwt>0</asrwt>
<pdfrwt beam="2">  1        2 0.36836349E-02 0.24719934E+02</pdfrwt>
<pdfrwt beam="1">  1       -2 0.15316630E-01 0.24719934E+02</pdfrwt>
<totfact> 0.52195608E+04</totfact>
</mgrwt>
</event>
<event>
 4    1  0.7653521E+003  0.3030800E+02  0.7546771E-02  0.1594709E+00
         -2   -1    0    0    0  501 -0.00000000000E+00  0.00000000000E+00  0.16890553896E+02  0.16890553896E+02  0.00000000000E+00 0.  1.
          2   -1    0    0  501    0  0.00000000000E+00 -0.00000000000E+00 -0.44676162180E+03  0.44676162180E+03  0.00000000000E+00 0. -1.
          2    1    1    2  502    0 -0.17795871202E+02  0.24533283992E+02 -0.43219390522E+03  0.43325529052E+03  0.00000000000E+00 0. -1.
         -2    1    1    2    0  502  0.17795871202E+02 -0.24533283992E+02  0.23228373129E+01  0.30396885177E+02  0.00000000000E+00 0.  1.
<mgrwt>
<rscale>  2 0.30308003E+02</rscale>
<asrwt>0</asrwt>
<pdfrwt beam="2">  1        2 0.68732557E-01 0.30308003E+02</pdfrwt>
<pdfrwt beam="1">  1       -2 0.25985468E-02 0.30308003E+02</pdfrwt>
<totfact> 0.28412635E+04</totfact>
</mgrwt>
</event>
<event>
 4    1  0.7653521E+003  0.2587317E+02  0.7546771E-02  0.1648768E+00
         -2   -1    0    0    0  501 -0.00000000000E+00  0.00000000000E+00  0.46359415150E+00  0.46359415150E+00  0.00000000000E+00 0. -1.
          2   -1    0    0  501    0  0.00000000000E+00 -0.00000000000E+00 -0.19349748841E+04  0.19349748841E+04  0.00000000000E+00 0.  1.
          2    1    1    2  502    0  0.67795359540E+01 -0.24969152467E+02 -0.14547282260E+04  0.14549582922E+04  0.00000000000E+00 0.  1.
         -2    1    1    2    0  502 -0.67795359540E+01  0.24969152467E+02 -0.47978306395E+03  0.48048018600E+03  0.00000000000E+00 0. -1.
<mgrwt>
<rscale>  2 0.25873165E+02</rscale>
<asrwt>0</asrwt>
<pdfrwt beam="2">  1        2 0.29768248E+00 0.25873165E+02</pdfrwt>
<pdfrwt beam="1">  1       -2 0.71323605E-04 0.25873165E+02</pdfrwt>
<totfact> 0.50694788E+05</totfact>
</mgrwt>
</event>
<event>
 4    1  0.7653521E+003  0.3062946E+02  0.7546771E-02  0.1591233E+00
         -2   -1    0    0    0  501 -0.00000000000E+00  0.00000000000E+00  0.27619734870E+02  0.27619734870E+02  0.00000000000E+00 0.  1.
          2   -1    0    0  501    0  0.00000000000E+00 -0.00000000000E+00 -0.82850589258E+03  0.82850589258E+03  0.00000000000E+00 0. -1.
          2    1    1    2  502    0 -0.22234116619E+02  0.21066748129E+02 -0.81963918416E+03  0.82021128743E+03  0.00000000000E+00 0. -1.
         -2    1    1    2    0  502  0.22234116619E+02 -0.21066748129E+02  0.18753026445E+02  0.35914340025E+02  0.00000000000E+00 0.  1.
<mgrwt>
<rscale>  2 0.30629460E+02</rscale>
<asrwt>0</asrwt>
<pdfrwt beam="2">  1        2 0.12746242E+00 0.30629460E+02</pdfrwt>
<pdfrwt beam="1">  1       -2 0.42491907E-02 0.30629460E+02</pdfrwt>
<totfact> 0.73339360E+03</totfact>
</mgrwt>
</event>
<event>
 4    1  0.7653521E+003  0.2440630E+02  0.7546771E-02  0.1669679E+00
          2   -1    0    0  501    0  0.00000000000E+00  0.00000000000E+00  0.47392953185E+03  0.47392953185E+03  0.00000000000E+00 0. -1.
         -2   -1    0    0    0  501 -0.00000000000E+00 -0.00000000000E+00 -0.40733093641E+02  0.40733093641E+02  0.00000000000E+00 0.  1.
          2    1    1    2  502    0  0.17797953685E+02  0.16700303201E+02  0.46992828971E+03  0.47056164820E+03  0.00000000000E+00 0. -1.
         -2    1    1    2    0  502 -0.17797953685E+02 -0.16700303201E+02 -0.36731851509E+02  0.44100977287E+02  0.00000000000E+00 0.  1.
<mgrwt>
<rscale>  2 0.24406296E+02</rscale>
<asrwt>0</asrwt>
<pdfrwt beam="1">  1        2 0.72912232E-01 0.24406296E+02</pdfrwt>
<pdfrwt beam="2">  1       -2 0.62666301E-02 0.24406296E+02</pdfrwt>
<totfact> 0.74583142E+03</totfact>
</mgrwt>
</event>
<event>
 4    1  0.7653521E+003  0.3661665E+02  0.7546771E-02  0.1534696E+00
         -2   -1    0    0    0  501 -0.00000000000E+00  0.00000000000E+00  0.81881589167E+01  0.81881589167E+01  0.00000000000E+00 0.  1.
          2   -1    0    0  501    0  0.00000000000E+00 -0.00000000000E+00 -0.30461684992E+03  0.30461684992E+03  0.00000000000E+00 0.  1.
          2    1    1    2  502    0 -0.30198006351E+02 -0.20708897473E+02 -0.41854583779E+02  0.55611007952E+02  0.00000000000E+00 0.  1.
         -2    1    1    2    0  502  0.30198006351E+02  0.20708897473E+02 -0.25457410723E+03  0.25719400089E+03  0.00000000000E+00 0.  1.
<mgrwt>
<rscale>  2 0.36616654E+02</rscale>
<asrwt>0</asrwt>
<pdfrwt beam="2">  1        2 0.46864131E-01 0.36616654E+02</pdfrwt>
<pdfrwt beam="1">  1       -2 0.12597168E-02 0.36616654E+02</pdfrwt>
<totfact> 0.11820096E+05</totfact>
</mgrwt>
</event>
<event>
 4    1  0.7653521E+003  0.2199145E+02  0.7546771E-02  0.1708400E+00
          2   -1    0    0  501    0  0.00000000000E+00  0.00000000000E+00  0.16206698662E+01  0.16206698662E+01  0.00000000000E+00 0.  1.
         -2   -1    0    0    0  501 -0.00000000000E+00 -0.00000000000E+00 -0.45543623743E+03  0.45543623743E+03  0.00000000000E+00 0. -1.
          2    1    1    2  502    0  0.21922377461E+02 -0.17416690406E+01 -0.92720103714E+02  0.95292400942E+02  0.00000000000E+00 0.  1.
         -2    1    1    2    0  502 -0.21922377461E+02  0.17416690406E+01 -0.36109546385E+03  0.36176450635E+03  0.00000000000E+00 0. -1.
<mgrwt>
<rscale>  2 0.21991454E+02</rscale>
<asrwt>0</asrwt>
<pdfrwt beam="1">  1        2 0.24933389E-03 0.21991454E+02</pdfrwt>
<pdfrwt beam="2">  1       -2 0.70067095E-01 0.21991454E+02</pdfrwt>
<totfact> 0.11354930E+05</totfact>
</mgrwt>
</event>
<event>
 4    1  0.7653521E+003  0.2308387E+02  0.7546771E-02  0.1690154E+00
         -2   -1    0    0    0  501 -0.00000000000E+00  0.00000000000E+00  0.51317750211E+02  0.51317750211E+02  0.00000000000E+00 0.  1.
          2   -1    0    0  501    0  0.00000000000E+00 -0.00000000000E+00 -0.65837242744E+03  0.65837242744E+03  0.00000000000E+00 0.  1.
          2    1    1    2  502    0 -0.20225228681E+02  0.11126783829E+02 -0.65556305369E+03  0.65596934574E+03  0.00000000000E+00 0.  1.
         -2    1    1    2    0  502  0.20225228681E+02 -0.11126783829E+02  0.48508376462E+02  0.53720831905E+02  0.00000000000E+00 0.  1.
<mgrwt>
<rscale>  2 0.23083873E+02</rscale>
<asrwt>0</asrwt>
<pdfrwt beam="2">  1        2 0.10128807E+00 0.23083873E+02</pdfrwt>
<pdfrwt beam="1">  1       -2 0.78950381E-02 0.23083873E+02</pdfrwt>
<totfact> 0.37752785E+03</totfact>
</mgrwt>
</event>
<event>
 4    1  0.7653521E+003  0.2937891E+02  0.7546771E-02  0.1605057E+00
          2   -1    0    0  501    0  0.00000000000E+00  0.00000000000E+00  0.23831867841E+02  0.23831867841E+02  0.00000000000E+00 0.  1.
         -2   -1    0    0    0  501 -0.00000000000E+00 -0.00000000000E+00 -0.54979304085E+03  0.54979304085E+03  0.00000000000E+00 0.  1.
          2    1    1    2  502    0 -0.24324485168E+02  0.16475420997E+02  0.14224210127E+02  0.32641204473E+02  0.00000000000E+00 0.  1.
         -2    1    1    2    0  502  0.24324485168E+02 -0.16475420997E+02 -0.54018538314E+03  0.54098370422E+03  0.00000000000E+00 0.  1.
<mgrwt>
<rscale>  2 0.29378905E+02</rscale>
<asrwt>0</asrwt>
<pdfrwt beam="1">  1        2 0.36664410E-02 0.29378905E+02</pdfrwt>
<pdfrwt beam="2">  1       -2 0.84583550E-01 0.29378905E+02</pdfrwt>
<totfact> 0.24629261E+03</totfact>
</mgrwt>
</event>
<event>
 4    1  0.7653521E+003  0.2931466E+02  0.7546771E-02  0.1605790E+00
          2   -1    0    0  501    0  0.00000000000E+00  0.00000000000E+00  0.70103656607E+03  0.70103656607E+03  0.00000000000E+00 0. -1.
         -2   -1    0    0    0  501 -0.00000000000E+00 -0.00000000000E+00 -0.45979925444E+02  0.45979925444E+02  0.00000000000E+00 0. -1.
          2    1    1    2  502    0 -0.27228216271E+02 -0.10861561318E+02  0.69602405977E+03  0.69664111353E+03  0.00000000000E+00 0. -1.
         -2    1    1    2    0  502  0.27228216271E+02  0.10861561318E+02 -0.40967419147E+02  0.50375377985E+02  0.00000000000E+00 0. -1.
<mgrwt>
<rscale>  2 0.29314660E+02</rscale>
<asrwt>0</asrwt>
<pdfrwt beam="1">  1        2 0.10785177E+00 0.29314660E+02</pdfrwt>
<pdfrwt beam="2">  1       -2 0.70738352E-02 0.29314660E+02</pdfrwt>
<totfact> 0.42319684E+03</totfact>
</mgrwt>
</event>
<event>
 4    1  0.7653521E+003  0.4101753E+02  0.7546771E-02  0.1500854E+00
          2   -1    0    0  501    0  0.00000000000E+00  0.00000000000E+00  0.77901416339E+03  0.77901416339E+03  0.00000000000E+00 0. -1.
         -2   -1    0    0    0  501 -0.00000000000E+00 -0.00000000000E+00 -0.18568013025E+02  0.18568013025E+02  0.00000000000E+00 0.  1.
          2    1    1    2  502    0  0.27849670894E+02  0.30113681500E+02  0.75510515114E+03  0.75621837273E+03  0.00000000000E+00 0. -1.
         -2    1    1    2    0  502 -0.27849670894E+02 -0.30113681500E+02  0.53409992279E+01  0.41363803683E+02  0.00000000000E+00 0.  1.
<mgrwt>
<rscale>  2 0.41017533E+02</rscale>
<asrwt>0</asrwt>
<pdfrwt beam="1">  1        2 0.11984831E+00 0.41017533E+02</pdfrwt>
<pdfrwt beam="2">  1       -2 0.28566180E-02 0.41017533E+02</pdfrwt>
<totfact> 0.14281506E+04</totfact>
</mgrwt>
</event>
<event>
 4    1  0.7653521E+003  0.2092374E+02  0.7546771E-02  0.1727559E+00
          2   -1    0    0  501    0  0.00000000000E+00  0.00000000000E+00  0.34861104168E+03  0.34861104168E+03  0.00000000000E+00 0. -1.
         -2   -1    0    0    0  501 -0.00000000000E+00 -0.00000000000E+00 -0.10843395549E+02  0.10843395549E+02  0.00000000000E+00 0.  1.
          2    1    1    2  502    0  0.54048305384E+01  0.20213630491E+02  0.33788313308E+03  0.33853037481E+03  0.00000000000E+00 0. -1.
         -2    1    1    2    0  502 -0.54048305384E+01 -0.20213630491E+02 -0.11548694987E+00  0.20924062416E+02  0.00000000000E+00 0.  1.
<mgrwt>
<rscale>  2 0.20923744E+02</rscale>
<asrwt>0</asrwt>
<pdfrwt beam="1">  1        2 0.53632459E-01 0.20923744E+02</pdfrwt>
<pdfrwt beam="2">  1       -2 0.16682150E-02 0.20923744E+02</pdfrwt>
<totfact> 0.62379280E+04</totfact>
</mgrwt>
</event>
<event>
 4    1  0.7653521E+003  0.2168943E+02  0.7546771E-02  0.1713679E+00
          2   -1    0    0  501    0  0.00000000000E+00  0.00000000000E+00  0.12596286708E+04  0.12596286708E+04  0.00000000000E+00 0. -1.
         -2   -1    0    0    0  501 -0.00000000000E+00 -0.00000000000E+00 -0.61559137577E+00  0.61559137577E+00  0.00000000000E+00 0. -1.
          2    1    1    2  502    0  0.18670224522E+02 -0.11038755913E+02  0.10246879749E+04  0.10249174978E+04  0.00000000000E+00 0. -1.
         -2    1    1    2    0  502 -0.18670224522E+02  0.11038755913E+02  0.23432510453E+03  0.23532676437E+03  0.00000000000E+00 0. -1.
<mgrwt>
<rscale>  2 0.21689431E+02</rscale>
<asrwt>0</asrwt>
<pdfrwt beam="1">  1        2 0.19378696E+00 0.21689431E+02</pdfrwt>
<pdfrwt beam="2">  1       -2 0.94707374E-04 0.21689431E+02</pdfrwt>
<totfact> 0.69472950E+05</totfact>
</mgrwt>
</event>
<event>
 4    1  0.7653521E+003  0.2310760E+02  0.7546771E-02  0.1689772E+00
         -2   -1    0    0    0  501 -0.00000000000E+00  0.00000000000E+00  0.13529916444E+01  0.13529916444E+01  0.00000000000E+00 0. -1.
          2   -1    0    0  501    0  0.00000000000E+00 -0.00000000000E+00 -0.77915016232E+03  0.77915016232E+03  0.00000000000E+00 0. -1.
          2    1    1    2  502    0 -0.21370068063E+02  0.87909702414E+01 -0.66304411782E+03  0.66344665433E+03  0.00000000000E+00 0. -1.
         -2    1    1    2    0  502  0.21370068063E+02 -0.87909702414E+01 -0.11475305285E+03  0.11705649963E+03  0.00000000000E+00 0. -1.
<mgrwt>
<rscale>  2 0.23107595E+02</rscale>
<asrwt>0</asrwt>
<pdfrwt beam="2">  1        2 0.11986929E+00 0.23107595E+02</pdfrwt>
<pdfrwt beam="1">  1       -2 0.20815250E-03 0.23107595E+02</pdfrwt>
<totfact> 0.45659195E+05</totfact>
</mgrwt>
</event>
<event>
 4    1  0.7653521E+003  0.2275061E+02  0.7546771E-02  0.1695585E+00
          2   -1    0    0  501    0  0.00000000000E+00  0.00000000000E+00  0.72782717163E+02  0.72782717163E+02  0.00000000000E+00 0.  1.
         -2   -1    0    0    0  501 -0.00000000000E+00 -0.00000000000E+00 -0.66193702120E+02  0.66193702120E+02  0.00000000000E+00 0. -1.
          2    1    1    2  502    0  0.14959174856E+02  0.17140977772E+02  0.68943994838E+02  0.72600719387E+02  0.00000000000E+00 0.  1.
         -2    1    1    2    0  502 -0.14959174856E+02 -0.17140977772E+02 -0.62354979795E+02  0.66375699896E+02  0.00000000000E+00 0. -1.
<mgrwt>
<rscale>  2 0.22750605E+02</rscale>
<asrwt>0</asrwt>
<pdfrwt beam="1">  1        2 0.11197341E-01 0.22750605E+02</pdfrwt>
<pdfrwt beam="2">  1       -2 0.10183646E-01 0.22750605E+02</pdfrwt>
<totfact> 0.25187595E+04</totfact>
</mgrwt>
</event>
<event>
 4    1  0.7653521E+003  0.2009461E+02  0.7546771E-02  0.1743453E+00
          2   -1    0    0  501    0  0.00000000000E+00  0.00000000000E+00  0.16742561763E+02  0.16742561763E+02  0.00000000000E+00 0. -1.
         -2   -1    0    0    0  501 -0.00000000000E+00 -0.00000000000E+00 -0.57630527573E+02  0.57630527573E+02  0.00000000000E+00 0. -1.
          2    1    1    2  502    0  0.10017914418E+02  0.17419375567E+02  0.79132996545E+01  0.21596610054E+02  0.00000000000E+00 0. -1.
         -2    1    1    2    0  502 -0.10017914418E+02 -0.17419375567E+02 -0.48801265465E+02  0.52776479282E+02  0.00000000000E+00 0. -1.
<mgrwt>
<rscale>  2 0.20094608E+02</rscale>
<asrwt>0</asrwt>
<pdfrwt beam="1">  1        2 0.25757787E-02 0.20094608E+02</pdfrwt>
<pdfrwt beam="2">  1       -2 0.88662350E-02 0.20094608E+02</pdfrwt>
<totfact> 0.17703101E+05</totfact>
</mgrwt>
</event>
<event>
 4    1  0.7653521E+003  0.2014646E+02  0.7546771E-02  0.1742431E+00
         -2   -1    0    0    0  501 -0.00000000000E+00  0.00000000000E+00  0.41022638628E+00  0.41022638628E+00  0.00000000000E+00 0.  1.
          2   -1    0    0  501    0  0.00000000000E+00 -0.00000000000E+00 -0.10901700830E+04  0.10901700830E+04  0.00000000000E+00 0. -1.
          2    1    1    2  502    0 -0.20087613015E+02 -0.15387588969E+01 -0.71066136024E+03  0.71094686786E+03  0.00000000000E+00 0. -1.
         -2    1    1    2    0  502  0.20087613015E+02  0.15387588969E+01 -0.37909849636E+03  0.37963344151E+03  0.00000000000E+00 0.  1.
<mgrwt>
<rscale>  2 0.20146463E+02</rscale>
<asrwt>0</asrwt>
<pdfrwt beam="2">  1        2 0.16771764E+00 0.20146463E+02</pdfrwt>
<pdfrwt beam="1">  1       -2 0.63112065E-04 0.20146463E+02</pdfrwt>
<totfact> 0.14054734E+06</totfact>
</mgrwt>
</event>
<event>
 4    1  0.7653521E+003  0.5016985E+02  0.7546771E-02  0.1444428E+00
         -2   -1    0    0    0  501 -0.00000000000E+00  0.00000000000E+00  0.19403145447E+01  0.19403145447E+01  0.00000000000E+00 0. -1.
          2   -1    0    0  501    0  0.00000000000E+00 -0.00000000000E+00 -0.15067542281E+04  0.15067542281E+04  0.00000000000E+00 0. -1.
          2    1    1    2  502    0 -0.47399985596E+02 -0.16439438228E+02 -0.10337124248E+04  0.10349291720E+04  0.00000000000E+00 0. -1.
         -2    1    1    2    0  502  0.47399985596E+02  0.16439438228E+02 -0.47110148879E+03  0.47376537073E+03  0.00000000000E+00 0. -1.
<mgrwt>
<rscale>  2 0.50169849E+02</rscale>
<asrwt>0</asrwt>
<pdfrwt beam="2">  1        2 0.23180801E+00 0.50169849E+02</pdfrwt>
<pdfrwt beam="1">  1       -2 0.29851036E-03 0.50169849E+02</pdfrwt>
<totfact> 0.13492001E+05</totfact>
</mgrwt>
</event>
<event>
 4    1  0.7653521E+003  0.4076302E+02  0.7546771E-02  0.1502670E+00
          2   -1    0    0  501    0  0.00000000000E+00  0.00000000000E+00  0.23341000855E+03  0.23341000855E+03  0.00000000000E+00 0. -1.
         -2   -1    0    0    0  501 -0.00000000000E+00 -0.00000000000E+00 -0.27773640229E+03  0.27773640229E+03  0.00000000000E+00 0.  1.
          2    1    1    2  502    0  0.34437155888E+02  0.21810682870E+02  0.23011333627E+03  0.23369589454E+03  0.00000000000E+00 0. -1.
         -2    1    1    2    0  502 -0.34437155888E+02 -0.21810682870E+02 -0.27443973000E+03  0.27745051630E+03  0.00000000000E+00 0.  1.
<mgrwt>
<rscale>  2 0.40763017E+02</rscale>
<asrwt>0</asrwt>
<pdfrwt beam="1">  1        2 0.35909232E-01 0.40763017E+02</pdfrwt>
<pdfrwt beam="2">  1       -2 0.42728677E-01 0.40763017E+02</pdfrwt>
<totfact> 0.72306932E+02</totfact>
</mgrwt>
</event>
<event>
 4    1  0.7653521E+003  0.2927034E+02  0.7546771E-02  0.1606297E+00
          2   -1    0    0  501    0  0.00000000000E+00  0.00000000000E+00  0.23177057971E+03  0.23177057971E+03  0.00000000000E+00 0. -1.
         -2   -1    0    0    0  501 -0.00000000000E+00 -0.00000000000E+00 -0.41944758200E+01  0.41944758200E+01  0.00000000000E+00 0.  1.
          2    1    1    2  502    0  0.16832121880E+02 -0.23946444742E+02  0.15443793299E+03  0.15718723768E+03  0.00000000000E+00 0. -1.
         -2    1    1    2    0  502 -0.16832121880E+02  0.23946444742E+02  0.73138170890E+02  0.78777817842E+02  0.00000000000E+00 0.  1.
<mgrwt>
<rscale>  2 0.29270336E+02</rscale>
<asrwt>0</asrwt>
<pdfrwt beam="1">  1        2 0.35657002E-01 0.29270336E+02</pdfrwt>
<pdfrwt beam="2">  1       -2 0.64530415E-03 0.29270336E+02</pdfrwt>
<totfact> 0.36866771E+05</totfact>
</mgrwt>
</event>
<event>
 4    1  0.7653521E+003  0.2277477E+02  0.7546771E-02  0.1695187E+00
         -2   -1    0    0    0  501 -0.00000000000E+00  0.00000000000E+00  0.57809700113E+00  0.57809700113E+00  0.00000000000E+00 0.  1.
          2   -1    0    0  501    0  0.00000000000E+00 -0.00000000000E+00 -0.13631456238E+04  0.13631456238E+04  0.00000000000E+00 0. -1.
          2    1    1    2  502    0 -0.12654423392E+02  0.18935563740E+02 -0.10799189752E+04  0.10801591008E+04  0.00000000000E+00 0. -1.
         -2    1    1    2    0  502  0.12654423392E+02 -0.18935563740E+02 -0.28264855159E+03  0.28356462001E+03  0.00000000000E+00 0.  1.
<mgrwt>
<rscale>  2 0.22774767E+02</rscale>
<asrwt>0</asrwt>
<pdfrwt beam="2">  1        2 0.20971274E+00 0.22774767E+02</pdfrwt>
<pdfrwt beam="1">  1       -2 0.88938836E-04 0.22774767E+02</pdfrwt>
<totfact> 0.68123483E+05</totfact>
</mgrwt>
</event>
<event>
 4    1  0.7653521E+003  0.2466099E+02  0.7546771E-02  0.1665920E+00
         -2   -1    0    0    0  501 -0.00000000000E+00  0.00000000000E+00  0.56170111507E+02  0.56170111507E+02  0.00000000000E+00 0. -1.
          2   -1    0    0  501    0  0.00000000000E+00 -0.00000000000E+00 -0.13258244192E+02  0.13258244192E+02  0.00000000000E+00 0.  1.
          2    1    1    2  502    0 -0.16346115545E+02  0.18465326638E+02  0.36320843925E+02  0.43901793638E+02  0.00000000000E+00 0. -1.
         -2    1    1    2    0  502  0.16346115545E+02 -0.18465326638E+02  0.65910233907E+01  0.25526562060E+02  0.00000000000E+00 0.  1.
<mgrwt>
<rscale>  2 0.24660989E+02</rscale>
<asrwt>0</asrwt>
<pdfrwt beam="2">  1        2 0.20397299E-02 0.24660989E+02</pdfrwt>
<pdfrwt beam="1">  1       -2 0.86415555E-02 0.24660989E+02</pdfrwt>
<totfact> 0.26273985E+05</totfact>
</mgrwt>
</event>
<event>
 4    1  0.7653521E+003  0.2700411E+02  0.7546771E-02  0.1633780E+00
          2   -1    0    0  501    0  0.00000000000E+00  0.00000000000E+00  0.86122174064E+03  0.86122174064E+03  0.00000000000E+00 0.  1.
         -2   -1    0    0    0  501 -0.00000000000E+00 -0.00000000000E+00 -0.58582256452E+02  0.58582256452E+02  0.00000000000E+00 0.  1.
          2    1    1    2  502    0  0.23025464144E+02 -0.14108498364E+02  0.85788600456E+03  0.85831091018E+03  0.00000000000E+00 0.  1.
         -2    1    1    2    0  502 -0.23025464144E+02  0.14108498364E+02 -0.55246520367E+02  0.61493086910E+02  0.00000000000E+00 0.  1.
<mgrwt>
<rscale>  2 0.27004106E+02</rscale>
<asrwt>0</asrwt>
<pdfrwt beam="1">  1        2 0.13249564E+00 0.27004106E+02</pdfrwt>
<pdfrwt beam="2">  1       -2 0.90126554E-02 0.27004106E+02</pdfrwt>
<totfact> 0.23293493E+03</totfact>
</mgrwt>
</event>
<event>
 4    1  0.7653521E+003  0.2402352E+02  0.7546771E-02  0.1675437E+00
         -2   -1    0    0    0  501 -0.00000000000E+00  0.00000000000E+00  0.81664477875E+00  0.81664477875E+00  0.00000000000E+00 0. -1.
          2   -1    0    0  501    0  0.00000000000E+00 -0.00000000000E+00 -0.10916469912E+04  0.10916469912E+04  0.00000000000E+00 0. -1.
          2    1    1    2  502    0 -0.16606807391E+01 -0.23966054562E+02 -0.86977844603E+03  0.87011015097E+03  0.00000000000E+00 0. -1.
         -2    1    1    2    0  502  0.16606807391E+01  0.23966054562E+02 -0.22105190042E+03  0.22235348504E+03  0.00000000000E+00 0. -1.
<mgrwt>
<rscale>  2 0.24023522E+02</rscale>
<asrwt>0</asrwt>
<pdfrwt beam="2">  1        2 0.16794430E+00 0.24023522E+02</pdfrwt>
<pdfrwt beam="1">  1       -2 0.12563870E-03 0.24023522E+02</pdfrwt>
<totfact> 0.59904851E+05</totfact>
</mgrwt>
</event>
<event>
 4    1  0.7653521E+003  0.2082465E+02  0.7546771E-02  0.1729409E+00
          2   -1    0    0  501    0  0.00000000000E+00  0.00000000000E+00  0.47743586426E+03  0.47743586426E+03  0.00000000000E+00 0.  1.
         -2   -1    0    0    0  501 -0.00000000000E+00 -0.00000000000E+00 -0.49818357051E+01  0.49818357051E+01  0.00000000000E+00 0.  1.
          2    1    1    2  502    0  0.25964403648E+01  0.20662151091E+02  0.45434077889E+03  0.45481777599E+03  0.00000000000E+00 0.  1.
         -2    1    1    2    0  502 -0.25964403648E+01 -0.20662151091E+02  0.18113249667E+02  0.27599923981E+02  0.00000000000E+00 0.  1.
<mgrwt>
<rscale>  2 0.20824649E+02</rscale>
<asrwt>0</asrwt>
<pdfrwt beam="1">  1        2 0.73451635E-01 0.20824649E+02</pdfrwt>
<pdfrwt beam="2">  1       -2 0.76643664E-03 0.20824649E+02</pdfrwt>
<totfact> 0.13060887E+05</totfact>
</mgrwt>
</event>
<event>
 4    1  0.7653521E+003  0.5182959E+02  0.7546771E-02  0.1435716E+00
          2   -1    0    0  501    0  0.00000000000E+00  0.00000000000E+00  0.25691838420E+04  0.25691838420E+04  0.00000000000E+00 0. -1.
         -2   -1    0    0    0  501 -0.00000000000E+00 -0.00000000000E+00 -0.54757475628E+01  0.54757475628E+01  0.00000000000E+00 0. -1.
          2    1    1    2  502    0  0.51137751078E+02 -0.84401842094E+01  0.24397720992E+04  0.24403225611E+04  0.00000000000E+00 0. -1.
         -2    1    1    2    0  502 -0.51137751078E+02  0.84401842094E+01  0.12393599526E+03  0.13433702846E+03  0.00000000000E+00 0. -1.
<mgrwt>
<rscale>  2 0.51829589E+02</rscale>
<asrwt>0</asrwt>
<pdfrwt beam="1">  1        2 0.39525809E+00 0.51829589E+02</pdfrwt>
<pdfrwt beam="2">  1       -2 0.84242475E-03 0.51829589E+02</pdfrwt>
<totfact> 0.96658318E+03</totfact>
</mgrwt>
</event>
<event>
 4    1  0.7653521E+003  0.2000519E+02  0.7546771E-02  0.1745225E+00
          2   -1    0    0  501    0  0.00000000000E+00  0.00000000000E+00  0.15549918778E+04  0.15549918778E+04  0.00000000000E+00 0. -1.
         -2   -1    0    0    0  501 -0.00000000000E+00 -0.00000000000E+00 -0.35729126642E+00  0.35729126642E+00  0.00000000000E+00 0. -1.
          2    1    1    2  502    0  0.10680072559E+02 -0.16915785134E+02  0.11885772271E+04  0.11887455710E+04  0.00000000000E+00 0. -1.
         -2    1    1    2    0  502 -0.10680072559E+02  0.16915785134E+02  0.36605735936E+03  0.36660359801E+03  0.00000000000E+00 0. -1.
<mgrwt>
<rscale>  2 0.20005193E+02</rscale>
<asrwt>0</asrwt>
<pdfrwt beam="1">  1        2 0.23922410E+00 0.20005193E+02</pdfrwt>
<pdfrwt beam="2">  1       -2 0.54969132E-04 0.20005193E+02</pdfrwt>
<totfact> 0.10005324E+06</totfact>
</mgrwt>
</event>
<event>
 4    1  0.7653521E+003  0.2391030E+02  0.7546771E-02  0.1677166E+00
          2   -1    0    0  501    0  0.00000000000E+00  0.00000000000E+00  0.37318544048E+03  0.37318544048E+03  0.00000000000E+00 0.  1.
         -2   -1    0    0    0  501 -0.00000000000E+00 -0.00000000000E+00 -0.45052994010E+02  0.45052994010E+02  0.00000000000E+00 0.  1.
          2    1    1    2  502    0  0.72491052295E+00  0.23899309562E+02  0.36959931453E+03  0.37037191550E+03  0.00000000000E+00 0.  1.
         -2    1    1    2    0  502 -0.72491052295E+00 -0.23899309562E+02 -0.41466868062E+02  0.47866518984E+02  0.00000000000E+00 0.  1.
<mgrwt>
<rscale>  2 0.23910301E+02</rscale>
<asrwt>0</asrwt>
<pdfrwt beam="1">  1        2 0.57413143E-01 0.23910301E+02</pdfrwt>
<pdfrwt beam="2">  1       -2 0.69312301E-02 0.23910301E+02</pdfrwt>
<totfact> 0.81557374E+03</totfact>
</mgrwt>
</event>
<event>
 4    1  0.7653521E+003  0.3628533E+02  0.7546771E-02  0.1537474E+00
         -2   -1    0    0    0  501 -0.00000000000E+00  0.00000000000E+00  0.84298112423E+01  0.84298112423E+01  0.00000000000E+00 0. -1.
          2   -1    0    0  501    0  0.00000000000E+00 -0.00000000000E+00 -0.10638845339E+04  0.10638845339E+04  0.00000000000E+00 0. -1.
          2    1    1    2  502    0 -0.33279855136E+02 -0.14459464856E+02 -0.10229671258E+04  0.10236104559E+04  0.00000000000E+00 0. -1.
         -2    1    1    2    0  502  0.33279855136E+02  0.14459464856E+02 -0.32487596868E+02  0.48703889291E+02  0.00000000000E+00 0. -1.
<mgrwt>
<rscale>  2 0.36285326E+02</rscale>
<asrwt>0</asrwt>
<pdfrwt beam="2">  1        2 0.16367449E+00 0.36285326E+02</pdfrwt>
<pdfrwt beam="1">  1       -2 0.12968945E-02 0.36285326E+02</pdfrwt>
<totfact> 0.28859316E+04</totfact>
</mgrwt>
</event>
<event>
 4    1  0.7653521E+003  0.2178490E+02  0.7546771E-02  0.1711999E+00
         -2   -1    0    0    0  501 -0.00000000000E+00  0.00000000000E+00  0.99862599710E+02  0.99862599710E+02  0.00000000000E+00 0.  1.
          2   -1    0    0  501    0  0.00000000000E+00 -0.00000000000E+00 -0.33222351011E+03  0.33222351011E+03  0.00000000000E+00 0. -1.
          2    1    1    2  502    0  0.13167363504E+02  0.17355185032E+02 -0.33067273162E+03  0.33138955527E+03  0.00000000000E+00 0. -1.
         -2    1    1    2    0  502 -0.13167363504E+02 -0.17355185032E+02  0.98311821210E+02  0.10069655455E+03  0.00000000000E+00 0.  1.
<mgrwt>
<rscale>  2 0.21784901E+02</rscale>
<asrwt>0</asrwt>
<pdfrwt beam="2">  1        2 0.51111308E-01 0.21784901E+02</pdfrwt>
<pdfrwt beam="1">  1       -2 0.15363477E-01 0.21784901E+02</pdfrwt>
<totfact> 0.27497478E+03</totfact>
</mgrwt>
</event>
<event>
 4    1  0.7653521E+003  0.3346940E+02  0.7546771E-02  0.1562628E+00
          2   -1    0    0  501    0  0.00000000000E+00  0.00000000000E+00  0.83000849983E+02  0.83000849983E+02  0.00000000000E+00 0. -1.
         -2   -1    0    0    0  501 -0.00000000000E+00 -0.00000000000E+00 -0.75469560457E+02  0.75469560457E+02  0.00000000000E+00 0.  1.
          2    1    1    2  502    0 -0.28392183070E+02  0.17722441180E+02  0.75567322561E+02  0.82647572377E+02  0.00000000000E+00 0. -1.
         -2    1    1    2    0  502  0.28392183070E+02 -0.17722441180E+02 -0.68036033034E+02  0.75822838063E+02  0.00000000000E+00 0.  1.
<mgrwt>
<rscale>  2 0.33469404E+02</rscale>
<asrwt>0</asrwt>
<pdfrwt beam="1">  1        2 0.12769362E-01 0.33469404E+02</pdfrwt>
<pdfrwt beam="2">  1       -2 0.11610702E-01 0.33469404E+02</pdfrwt>
<totfact> 0.19053491E+04</totfact>
</mgrwt>
</event>
<event>
 4    1  0.7653521E+003  0.2064830E+02  0.7546771E-02  0.1732735E+00
         -2   -1    0    0    0  501 -0.00000000000E+00  0.00000000000E+00  0.20438372300E+01  0.20438372300E+01  0.00000000000E+00 0.  1.
          2   -1    0    0  501    0  0.00000000000E+00 -0.00000000000E+00 -0.13625098634E+04  0.13625098634E+04  0.00000000000E+00 0.  1.
          2    1    1    2  502    0  0.20556365018E+02  0.19463087081E+01 -0.13081121199E+04  0.13082750744E+04  0.00000000000E+00 0.  1.
         -2    1    1    2    0  502 -0.20556365018E+02 -0.19463087081E+01 -0.52353906273E+02  0.56278626159E+02  0.00000000000E+00 0.  1.
<mgrwt>
<rscale>  2 0.20648299E+02</rscale>
<asrwt>0</asrwt>
<pdfrwt beam="2">  1        2 0.20961760E+00 0.20648299E+02</pdfrwt>
<pdfrwt beam="1">  1       -2 0.31443545E-03 0.20648299E+02</pdfrwt>
<totfact> 0.12570972E+05</totfact>
</mgrwt>
</event>
<event>
 4    1  0.7653521E+003  0.2325928E+02  0.7546771E-02  0.1687341E+00
          2   -1    0    0  501    0  0.00000000000E+00  0.00000000000E+00  0.10503119357E+04  0.10503119357E+04  0.00000000000E+00 0.  1.
         -2   -1    0    0    0  501 -0.00000000000E+00 -0.00000000000E+00 -0.46135184021E+01  0.46135184021E+01  0.00000000000E+00 0. -1.
          2    1    1    2  502    0  0.18631319003E+02  0.13923644127E+02  0.10199962870E+04  0.10202614466E+04  0.00000000000E+00 0.  1.
         -2    1    1    2    0  502 -0.18631319003E+02 -0.13923644127E+02  0.25702130240E+02  0.34664007450E+02  0.00000000000E+00 0. -1.
<mgrwt>
<rscale>  2 0.23259276E+02</rscale>
<asrwt>0</asrwt>
<pdfrwt beam="1">  1        2 0.16158626E+00 0.23259276E+02</pdfrwt>
<pdfrwt beam="2">  1       -2 0.70977290E-03 0.23259276E+02</pdfrwt>
<totfact> 0.62184191E+04</totfact>
</mgrwt>
</event>
<event>
 4    1  0.7653521E+003  0.2072919E+02  0.7546771E-02  0.1731204E+00
         -2   -1    0    0    0  501 -0.00000000000E+00  0.00000000000E+00  0.10503683043E+01  0.10503683043E+01  0.00000000000E+00 0.  1.
          2   -1    0    0  501    0  0.00000000000E+00 -0.00000000000E+00 -0.13047007627E+04  0.13047007627E+04  0.00000000000E+00 0.  1.
          2    1    1    2  502    0 -0.92984549588E+01 -0.18526689292E+02 -0.11927459126E+04  0.11929260293E+04  0.00000000000E+00 0.  1.
         -2    1    1    2    0  502  0.92984549588E+01  0.18526689292E+02 -0.11090448184E+03  0.11282510170E+03  0.00000000000E+00 0.  1.
<mgrwt>
<rscale>  2 0.20729194E+02</rscale>
<asrwt>0</asrwt>
<pdfrwt beam="2">  1        2 0.20072270E+00 0.20729194E+02</pdfrwt>
<pdfrwt beam="1">  1       -2 0.16159552E-03 0.20729194E+02</pdfrwt>
<totfact> 0.32326841E+05</totfact>
</mgrwt>
</event>
<event>
 4    1  0.7653521E+003  0.2021483E+02  0.7546771E-02  0.1741089E+00
         -2   -1    0    0    0  501 -0.00000000000E+00  0.00000000000E+00  0.66592164373E+02  0.66592164373E+02  0.00000000000E+00 0.  1.
          2   -1    0    0  501    0  0.00000000000E+00 -0.00000000000E+00 -0.11902246352E+02  0.11902246352E+02  0.00000000000E+00 0.  1.
          2    1    1    2  502    0 -0.72301333959E+01 -0.18877618134E+02  0.28523492467E-01  0.20214848724E+02  0.00000000000E+00 0.  1.
         -2    1    1    2    0  502  0.72301333959E+01  0.18877618134E+02  0.54661394528E+02  0.58279562002E+02  0.00000000000E+00 0.  1.
<mgrwt>
<rscale>  2 0.20214829E+02</rscale>
<asrwt>0</asrwt>
<pdfrwt beam="2">  1        2 0.18311149E-02 0.20214829E+02</pdfrwt>
<pdfrwt beam="1">  1       -2 0.10244948E-01 0.20214829E+02</pdfrwt>
<totfact> 0.22093497E+05</totfact>
</mgrwt>
</event>
<event>
 4    1  0.7653521E+003  0.2354725E+02  0.7546771E-02  0.1682790E+00
          2   -1    0    0  501    0  0.00000000000E+00  0.00000000000E+00  0.17115843661E+04  0.17115843661E+04  0.00000000000E+00 0.  1.
         -2   -1    0    0    0  501 -0.00000000000E+00 -0.00000000000E+00 -0.12535028635E+02  0.12535028635E+02  0.00000000000E+00 0.  1.
          2    1    1    2  502    0  0.23260565241E+02  0.36631991545E+01  0.17003719915E+04  0.17005350283E+04  0.00000000000E+00 0.  1.
         -2    1    1    2    0  502 -0.23260565241E+02 -0.36631991545E+01 -0.13226541160E+01  0.23584366375E+02  0.00000000000E+00 0.  1.
<mgrwt>
<rscale>  2 0.23547249E+02</rscale>
<asrwt>0</asrwt>
<pdfrwt beam="1">  1        2 0.26332049E+00 0.23547249E+02</pdfrwt>
<pdfrwt beam="2">  1       -2 0.19284673E-02 0.23547249E+02</pdfrwt>
<totfact> 0.76487793E+03</totfact>
</mgrwt>
</event>
<event>
 4    1  0.7653521E+003  0.4582907E+02  0.7546771E-02  0.1469231E+00
         -2   -1    0    0    0  501 -0.00000000000E+00  0.00000000000E+00  0.15203239963E+02  0.15203239963E+02  0.00000000000E+00 0. -1.
          2   -1    0    0  501    0  0.00000000000E+00 -0.00000000000E+00 -0.21960057160E+03  0.21960057160E+03  0.00000000000E+00 0.  1.
          2    1    1    2  502    0  0.30585320374E+02  0.34129777086E+02 -0.17369926926E+03  0.17964336795E+03  0.00000000000E+00 0.  1.
         -2    1    1    2    0  502 -0.30585320374E+02 -0.34129777086E+02 -0.30698062382E+02  0.55160443620E+02  0.00000000000E+00 0. -1.
<mgrwt>
<rscale>  2 0.45829068E+02</rscale>
<asrwt>0</asrwt>
<pdfrwt beam="2">  1        2 0.33784704E-01 0.45829068E+02</pdfrwt>
<pdfrwt beam="1">  1       -2 0.23389599E-02 0.45829068E+02</pdfrwt>
<totfact> 0.72564616E+04</totfact>
</mgrwt>
</event>
<event>
 4    1  0.7653521E+003  0.2615022E+02  0.7546771E-02  0.1645010E+00
          2   -1    0    0  501    0  0.00000000000E+00  0.00000000000E+00  0.10611702401E+04  0.10611702401E+04  0.00000000000E+00 0.  1.
         -2   -1    0    0    0  501 -0.00000000000E+00 -0.00000000000E+00 -0.60508610621E+02  0.60508610621E+02  0.00000000000E+00 0.  1.
          2    1    1    2  502    0 -0.12360803449E+02  0.23044398797E+02  0.10581757851E+04  0.10584988549E+04  0.00000000000E+00 0.  1.
         -2    1    1    2    0  502  0.12360803449E+02 -0.23044398797E+02 -0.57514155578E+02  0.63179995803E+02  0.00000000000E+00 0.  1.
<mgrwt>
<rscale>  2 0.26150216E+02</rscale>
<asrwt>0</asrwt>
<pdfrwt beam="1">  1        2 0.16325695E+00 0.26150216E+02</pdfrwt>
<pdfrwt beam="2">  1       -2 0.93090178E-02 0.26150216E+02</pdfrwt>
<totfact> 0.17127298E+03</totfact>
</mgrwt>
</event>
<event>
 4    1  0.7653521E+003  0.2152108E+02  0.7546771E-02  0.1716669E+00
         -2   -1    0    0    0  501 -0.00000000000E+00  0.00000000000E+00  0.67792904020E+02  0.67792904020E+02  0.00000000000E+00 0. -1.
          2   -1    0    0  501    0  0.00000000000E+00 -0.00000000000E+00 -0.21999820939E+02  0.21999820939E+02  0.00000000000E+00 0. -1.
          2    1    1    2  502    0 -0.21427864947E+02  0.20008390500E+01 -0.14382445368E+02  0.25884580117E+02  0.00000000000E+00 0. -1.
         -2    1    1    2    0  502  0.21427864947E+02 -0.20008390500E+01  0.60175528449E+02  0.63908144842E+02  0.00000000000E+00 0. -1.
<mgrwt>
<rscale>  2 0.21521077E+02</rscale>
<asrwt>0</asrwt>
<pdfrwt beam="2">  1        2 0.33845879E-02 0.21521077E+02</pdfrwt>
<pdfrwt beam="1">  1       -2 0.10429677E-01 0.21521077E+02</pdfrwt>
<totfact> 0.10071993E+05</totfact>
</mgrwt>
</event>
<event>
 4    1  0.7653521E+003  0.2385894E+02  0.7546771E-02  0.1677954E+00
         -2   -1    0    0    0  501 -0.00000000000E+00  0.00000000000E+00  0.10305085914E+03  0.10305085914E+03  0.00000000000E+00 0.  1.
          2   -1    0    0  501    0  0.00000000000E+00 -0.00000000000E+00 -0.11982586091E+03  0.11982586091E+03  0.00000000000E+00 0. -1.
          2    1    1    2  502    0  0.23071270826E+02 -0.60799398603E+01 -0.11722690432E+03  0.11963024828E+03  0.00000000000E+00 0. -1.
         -2    1    1    2    0  502 -0.23071270826E+02  0.60799398603E+01  0.10045190256E+03  0.10324647177E+03  0.00000000000E+00 0.  1.
<mgrwt>
<rscale>  2 0.23858944E+02</rscale>
<asrwt>0</asrwt>
<pdfrwt beam="2">  1        2 0.18434748E-01 0.23858944E+02</pdfrwt>
<pdfrwt beam="1">  1       -2 0.15853978E-01 0.23858944E+02</pdfrwt>
<totfact> 0.74554245E+03</totfact>
</mgrwt>
</event>
<event>
 4    1  0.7653521E+003  0.2314320E+02  0.7546771E-02  0.1689199E+00
          2   -1    0    0  501    0  0.00000000000E+00  0.00000000000E+00  0.73339034838E+03  0.73339034838E+03  0.00000000000E+00 0.  1.
         -2   -1    0    0    0  501 -0.00000000000E+00 -0.00000000000E+00 -0.21864579145E+02  0.21864579145E+02  0.00000000000E+00 0. -1.
          2    1    1    2  502    0 -0.10230306424E+02 -0.20759297922E+02  0.72703005928E+03  0.72739831916E+03  0.00000000000E+00 0.  1.
         -2    1    1    2    0  502  0.10230306424E+02  0.20759297922E+02 -0.15504290047E+02  0.27856608365E+02  0.00000000000E+00 0. -1.
<mgrwt>
<rscale>  2 0.23143198E+02</rscale>
<asrwt>0</asrwt>
<pdfrwt beam="1">  1        2 0.11282927E+00 0.23143198E+02</pdfrwt>
<pdfrwt beam="2">  1       -2 0.33637820E-02 0.23143198E+02</pdfrwt>
<totfact> 0.11331284E+04</totfact>
</mgrwt>
</event>
<event>
 4    1  0.7653521E+003  0.2038914E+02  0.7546771E-02  0.1737698E+00
          2   -1    0    0  501    0  0.00000000000E+00  0.00000000000E+00  0.18690362294E+03  0.18690362294E+03  0.00000000000E+00 0.  1.
         -2   -1    0    0    0  501 -0.00000000000E+00 -0.00000000000E+00 -0.33413056182E+02  0.33413056182E+02  0.00000000000E+00 0.  1.
          2    1    1    2  502    0 -0.15323431453E+02  0.13450257105E+02  0.18317398981E+03  0.18430525633E+03  0.00000000000E+00 0.  1.
         -2    1    1    2    0  502  0.15323431453E+02 -0.13450257105E+02 -0.29683423051E+02  0.36011422795E+02  0.00000000000E+00 0.  1.
<mgrwt>
<rscale>  2 0.20389138E+02</rscale>
<asrwt>0</asrwt>
<pdfrwt beam="1">  1        2 0.28754403E-01 0.20389138E+02</pdfrwt>
<pdfrwt beam="2">  1       -2 0.51404703E-02 0.20389138E+02</pdfrwt>
<totfact> 0.24206952E+04</totfact>
</mgrwt>
</event>
<event>
 4    1  0.7653521E+003  0.2750136E+02  0.7546771E-02  0.1627472E+00
         -2   -1    0    0    0  501 -0.00000000000E+00  0.00000000000E+00  0.40330363288E+02  0.40330363288E+02  0.00000000000E+00 0. -1.
          2   -1    0    0  501    0  0.00000000000E+00 -0.00000000000E+00 -0.34136226890E+03  0.34136226890E+03  0.00000000000E+00 0.  1.
          2    1    1    2  502    0  0.11945243582E+02  0.24771680755E+02 -0.33604601126E+03  0.33716946287E+03  0.00000000000E+00 0.  1.
         -2    1    1    2    0  502 -0.11945243582E+02 -0.24771680755E+02  0.35014105646E+02  0.44523169315E+02  0.00000000000E+00 0. -1.
<mgrwt>
<rscale>  2 0.27501364E+02</rscale>
<asrwt>0</asrwt>
<pdfrwt beam="2">  1        2 0.52517271E-01 0.27501364E+02</pdfrwt>
<pdfrwt beam="1">  1       -2 0.62046714E-02 0.27501364E+02</pdfrwt>
<totfact> 0.10657575E+04</totfact>
</mgrwt>
</event>
<event>
 4    1  0.7653521E+003  0.2019559E+02  0.7546771E-02  0.1741466E+00
         -2   -1    0    0    0  501 -0.00000000000E+00  0.00000000000E+00  0.11094700998E+03  0.11094700998E+03  0.00000000000E+00 0. -1.
          2   -1    0    0  501    0  0.00000000000E+00 -0.00000000000E+00 -0.31087889605E+02  0.31087889605E+02  0.00000000000E+00 0.  1.
          2    1    1    2  502    0 -0.17408756558E+02  0.10237052184E+02 -0.26756867272E+02  0.33523006854E+02  0.00000000000E+00 0.  1.
         -2    1    1    2    0  502  0.17408756558E+02 -0.10237052184E+02  0.10661598765E+03  0.10851189274E+03  0.00000000000E+00 0. -1.
<mgrwt>
<rscale>  2 0.20195595E+02</rscale>
<asrwt>0</asrwt>
<pdfrwt beam="2">  1        2 0.47827523E-02 0.20195595E+02</pdfrwt>
<pdfrwt beam="1">  1       -2 0.17068771E-01 0.20195595E+02</pdfrwt>
<totfact> 0.30490517E+04</totfact>
</mgrwt>
</event>
<event>
 4    1  0.7653521E+003  0.2047815E+02  0.7546771E-02  0.1735983E+00
          2   -1    0    0  501    0  0.00000000000E+00  0.00000000000E+00  0.93714617519E+03  0.93714617519E+03  0.00000000000E+00 0. -1.
         -2   -1    0    0    0  501 -0.00000000000E+00 -0.00000000000E+00 -0.15357980189E+02  0.15357980189E+02  0.00000000000E+00 0.  1.
          2    1    1    2  502    0  0.13859236653E+02 -0.15075678545E+02  0.93015668678E+03  0.93038208091E+03  0.00000000000E+00 0. -1.
         -2    1    1    2    0  502 -0.13859236653E+02  0.15075678545E+02 -0.83684917755E+01  0.22122074469E+02  0.00000000000E+00 0.  1.
<mgrwt>
<rscale>  2 0.20478147E+02</rscale>
<asrwt>0</asrwt>
<pdfrwt beam="1">  1        2 0.14417629E+00 0.20478147E+02</pdfrwt>
<pdfrwt beam="2">  1       -2 0.23627669E-02 0.20478147E+02</pdfrwt>
<totfact> 0.13716374E+04</totfact>
</mgrwt>
</event>
<event>
 4    1  0.7653521E+003  0.4410392E+02  0.7546771E-02  0.1480014E+00
         -2   -1    0    0    0  501 -0.00000000000E+00  0.00000000000E+00  0.41532198560E+02  0.41532198560E+02  0.00000000000E+00 0.  1.
          2   -1    0    0  501    0  0.00000000000E+00 -0.00000000000E+00 -0.73448493788E+02  0.73448493788E+02  0.00000000000E+00 0.  1.
          2    1    1    2  502    0  0.40098614530E+02  0.18364554017E+02 -0.50564463149E+02  0.67096353589E+02  0.00000000000E+00 0.  1.
         -2    1    1    2    0  502 -0.40098614530E+02 -0.18364554017E+02  0.18648167921E+02  0.47884338758E+02  0.00000000000E+00 0.  1.
<mgrwt>
<rscale>  2 0.44103920E+02</rscale>
<asrwt>0</asrwt>
<pdfrwt beam="2">  1        2 0.11299768E-01 0.44103920E+02</pdfrwt>
<pdfrwt beam="1">  1       -2 0.63895691E-02 0.44103920E+02</pdfrwt>
<totfact> 0.56277199E+04</totfact>
</mgrwt>
</event>
<event>
 4    1  0.7653521E+003  0.2144551E+02  0.7546771E-02  0.1718022E+00
         -2   -1    0    0    0  501 -0.00000000000E+00  0.00000000000E+00  0.38805505685E+02  0.38805505685E+02  0.00000000000E+00 0.  1.
          2   -1    0    0  501    0  0.00000000000E+00 -0.00000000000E+00 -0.10873526290E+03  0.10873526290E+03  0.00000000000E+00 0.  1.
          2    1    1    2  502    0 -0.16443542379E+02 -0.13766621084E+02 -0.10459897840E+03  0.10677479208E+03  0.00000000000E+00 0.  1.
         -2    1    1    2    0  502  0.16443542379E+02  0.13766621084E+02  0.34669221188E+02  0.40765976498E+02  0.00000000000E+00 0.  1.
<mgrwt>
<rscale>  2 0.21445511E+02</rscale>
<asrwt>0</asrwt>
<pdfrwt beam="2">  1        2 0.16728502E-01 0.21445511E+02</pdfrwt>
<pdfrwt beam="1">  1       -2 0.59700779E-02 0.21445511E+02</pdfrwt>
<totfact> 0.34779452E+04</totfact>
</mgrwt>
</event>
<event>
 4    1  0.7653521E+003  0.2734157E+02  0.7546771E-02  0.1629481E+00
          2   -1    0    0  501    0  0.00000000000E+00  0.00000000000E+00  0.19998815622E+03  0.19998815622E+03  0.00000000000E+00 0. -1.
         -2   -1    0    0    0  501 -0.00000000000E+00 -0.00000000000E+00 -0.59592169230E+02  0.59592169230E+02  0.00000000000E+00 0. -1.
          2    1    1    2  502    0  0.10835360138E+02 -0.25102915467E+02  0.19585157383E+03  0.19775085428E+03  0.00000000000E+00 0. -1.
         -2    1    1    2    0  502 -0.10835360138E+02  0.25102915467E+02 -0.55455586839E+02  0.61829471177E+02  0.00000000000E+00 0. -1.
<mgrwt>
<rscale>  2 0.27341569E+02</rscale>
<asrwt>0</asrwt>
<pdfrwt beam="1">  1        2 0.30767408E-01 0.27341569E+02</pdfrwt>
<pdfrwt beam="2">  1       -2 0.91680261E-02 0.27341569E+02</pdfrwt>
<totfact> 0.10258083E+04</totfact>
</mgrwt>
</event>
<event>
 4    1  0.7653521E+003  0.2498721E+02  0.7546771E-02  0.1661186E+00
         -2   -1    0    0    0  501 -0.00000000000E+00  0.00000000000E+00  0.12446797128E+03  0.12446797128E+03  0.00000000000E+00 0. -1.
          2   -1    0    0  501    0  0.00000000000E+00 -0.00000000000E+00 -0.73393544430E+01  0.73393544430E+01  0.00000000000E+00 0.  1.
          2    1    1    2  502    0  0.94379118197E+01  0.23136263447E+02  0.21486318021E+02  0.32954858942E+02  0.00000000000E+00 0.  1.
         -2    1    1    2    0  502 -0.94379118197E+01 -0.23136263447E+02  0.95642298815E+02  0.98852466780E+02  0.00000000000E+00 0. -1.
<mgrwt>
<rscale>  2 0.24987214E+02</rscale>
<asrwt>0</asrwt>
<pdfrwt beam="2">  1        2 0.11291315E-02 0.24987214E+02</pdfrwt>
<pdfrwt beam="1">  1       -2 0.19148917E-01 0.24987214E+02</pdfrwt>
<totfact> 0.16742685E+05</totfact>
</mgrwt>
</event>
<event>
 4    1  0.7653521E+003  0.2421470E+02  0.7546771E-02  0.1672545E+00
         -2   -1    0    0    0  501 -0.00000000000E+00  0.00000000000E+00  0.47847253459E+03  0.47847253459E+03  0.00000000000E+00 0. -1.
          2   -1    0    0  501    0  0.00000000000E+00 -0.00000000000E+00 -0.26835104436E+01  0.26835104436E+01  0.00000000000E+00 0.  1.
          2    1    1    2  502    0  0.17512142522E+02 -0.16723533456E+02  0.60561445969E+02  0.65223005488E+02  0.00000000000E+00 0.  1.
         -2    1    1    2    0  502 -0.17512142522E+02  0.16723533456E+02  0.41522757817E+03  0.41593303954E+03  0.00000000000E+00 0. -1.
<mgrwt>
<rscale>  2 0.24214700E+02</rscale>
<asrwt>0</asrwt>
<pdfrwt beam="2">  1        2 0.41284814E-03 0.24214700E+02</pdfrwt>
<pdfrwt beam="1">  1       -2 0.73611091E-01 0.24214700E+02</pdfrwt>
<totfact> 0.54354964E+04</totfact>
</mgrwt>
</event>
<event>
 4    1  0.7653521E+003  0.2033114E+02  0.7546771E-02  0.1738822E+00
         -2   -1    0    0    0  501 -0.00000000000E+00  0.00000000000E+00  0.10171666765E+03  0.10171666765E+03  0.00000000000E+00 0.  1.
          2   -1    0    0  501    0  0.00000000000E+00 -0.00000000000E+00 -0.70071604600E+01  0.70071604600E+01  0.00000000000E+00 0. -1.
          2    1    1    2  502    0 -0.92873076024E+01 -0.18085937226E+02  0.12122035477E+02  0.23670634802E+02  0.00000000000E+00 0. -1.
         -2    1    1    2    0  502  0.92873076024E+01  0.18085937226E+02  0.82587471711E+02  0.85053193305E+02  0.00000000000E+00 0.  1.
<mgrwt>
<rscale>  2 0.20331139E+02</rscale>
<asrwt>0</asrwt>
<pdfrwt beam="2">  1        2 0.10780248E-02 0.20331139E+02</pdfrwt>
<pdfrwt beam="1">  1       -2 0.15648717E-01 0.20331139E+02</pdfrwt>
<totfact> 0.23000288E+05</totfact>
</mgrwt>
</event>
<event>
 4    1  0.7653521E+003  0.2170852E+02  0.7546771E-02  0.1713342E+00
          2   -1    0    0  501    0  0.00000000000E+00  0.00000000000E+00  0.79997992066E+03  0.79997992066E+03  0.00000000000E+00 0. -1.
         -2   -1    0    0    0  501 -0.00000000000E+00 -0.00000000000E+00 -0.27236685293E+01  0.27236685293E+01  0.00000000000E+00 0.  1.
          2    1    1    2  502    0 -0.16864032802E+01 -0.21642916313E+02  0.75393548353E+03  0.75424795201E+03  0.00000000000E+00 0. -1.
         -2    1    1    2    0  502  0.16864032802E+01  0.21642916313E+02  0.43320768607E+02  0.48455637187E+02  0.00000000000E+00 0.  1.
<mgrwt>
<rscale>  2 0.21708519E+02</rscale>
<asrwt>0</asrwt>
<pdfrwt beam="1">  1        2 0.12307365E+00 0.21708519E+02</pdfrwt>
<pdfrwt beam="2">  1       -2 0.41902657E-03 0.21708519E+02</pdfrwt>
<totfact> 0.17199097E+05</totfact>
</mgrwt>
</event>
<event>
 4    1  0.7653521E+003  0.2048829E+02  0.7546771E-02  0.1735789E+00
          2   -1    0    0  501    0  0.00000000000E+00  0.00000000000E+00  0.10288625970E+03  0.10288625970E+03  0.00000000000E+00 0. -1.
         -2   -1    0    0    0  501 -0.00000000000E+00 -0.00000000000E+00 -0.58188362430E+01  0.58188362430E+01  0.00000000000E+00 0.  1.
          2    1    1    2  502    0 -0.26032745502E+01 -0.20322232851E+02  0.78246141291E+02  0.80884045481E+02  0.00000000000E+00 0. -1.
         -2    1    1    2    0  502  0.26032745502E+01  0.20322232851E+02  0.18821282165E+02  0.27821050461E+02  0.00000000000E+00 0.  1.
<mgrwt>
<rscale>  2 0.20488294E+02</rscale>
<asrwt>0</asrwt>
<pdfrwt beam="1">  1        2 0.15828654E-01 0.20488294E+02</pdfrwt>
<pdfrwt beam="2">  1       -2 0.89520565E-03 0.20488294E+02</pdfrwt>
<totfact> 0.49783202E+05</totfact>
</mgrwt>
</event>
<event>
 4    1  0.7653521E+003  0.5567118E+02  0.7546771E-02  0.1416951E+00
          2   -1    0    0  501    0  0.00000000000E+00  0.00000000000E+00  0.33509937902E+02  0.33509937902E+02  0.00000000000E+00 0.  1.
         -2   -1    0    0    0  501 -0.00000000000E+00 -0.00000000000E+00 -0.18264899310E+03  0.18264899310E+03  0.00000000000E+00 0.  1.
          2    1    1    2  502    0  0.28475320758E+02 -0.47837606506E+02  0.13656356186E+01  0.55687929115E+02  0.00000000000E+00 0.  1.
         -2    1    1    2    0  502 -0.28475320758E+02  0.47837606506E+02 -0.15050469081E+03  0.16047100188E+03  0.00000000000E+00 0.  1.
<mgrwt>
<rscale>  2 0.55671182E+02</rscale>
<asrwt>0</asrwt>
<pdfrwt beam="1">  1        2 0.51553752E-02 0.55671182E+02</pdfrwt>
<pdfrwt beam="2">  1       -2 0.28099845E-01 0.55671182E+02</pdfrwt>
<totfact> 0.14548166E+04</totfact>
</mgrwt>
</event>
<event>
 4    1  0.7653521E+003  0.3905267E+02  0.7546771E-02  0.1515301E+00
         -2   -1    0    0    0  501 -0.00000000000E+00  0.00000000000E+00  0.18888422532E+02  0.18888422532E+02  0.00000000000E+00 0. -1.
          2   -1    0    0  501    0  0.00000000000E+00 -0.00000000000E+00 -0.56322487935E+03  0.56322487935E+03  0.00000000000E+00 0. -1.
          2    1    1    2  502    0 -0.22694748913E+02 -0.31781435545E+02 -0.54155547766E+03  0.54296173590E+03  0.00000000000E+00 0. -1.
         -2    1    1    2    0  502  0.22694748913E+02  0.31781435545E+02 -0.27809791601E+01  0.39151565979E+02  0.00000000000E+00 0. -1.
<mgrwt>
<rscale>  2 0.39052673E+02</rscale>
<asrwt>0</asrwt>
<pdfrwt beam="2">  1        2 0.86649983E-01 0.39052673E+02</pdfrwt>
<pdfrwt beam="1">  1       -2 0.29059111E-02 0.39052673E+02</pdfrwt>
<totfact> 0.19831171E+04</totfact>
</mgrwt>
</event>
<event>
 4    1  0.7653521E+003  0.5981302E+02  0.7546771E-02  0.1398618E+00
          2   -1    0    0  501    0  0.00000000000E+00  0.00000000000E+00  0.14265273365E+03  0.14265273365E+03  0.00000000000E+00 0. -1.
         -2   -1    0    0    0  501 -0.00000000000E+00 -0.00000000000E+00 -0.11159090973E+03  0.11159090973E+03  0.00000000000E+00 0.  1.
          2    1    1    2  502    0 -0.43531312801E+02 -0.41019778174E+02  0.12746013300E+03  0.14079660116E+03  0.00000000000E+00 0. -1.
         -2    1    1    2    0  502  0.43531312801E+02  0.41019778174E+02 -0.96398309079E+02  0.11344704222E+03  0.00000000000E+00 0.  1.
<mgrwt>
<rscale>  2 0.59813020E+02</rscale>
<asrwt>0</asrwt>
<pdfrwt beam="1">  1        2 0.21946574E-01 0.59813020E+02</pdfrwt>
<pdfrwt beam="2">  1       -2 0.17167832E-01 0.59813020E+02</pdfrwt>
<totfact> 0.60515021E+03</totfact>
</mgrwt>
</event>
<event>
 4    1  0.7653521E+003  0.2702152E+02  0.7546771E-02  0.1633556E+00
         -2   -1    0    0    0  501 -0.00000000000E+00  0.00000000000E+00  0.15975321695E+02  0.15975321695E+02  0.00000000000E+00 0.  1.
          2   -1    0    0  501    0  0.00000000000E+00 -0.00000000000E+00 -0.91289227858E+02  0.91289227858E+02  0.00000000000E+00 0. -1.
          2    1    1    2  502    0 -0.17330509093E+02  0.20732009075E+02 -0.75555326548E+02  0.80241947356E+02  0.00000000000E+00 0. -1.
         -2    1    1    2    0  502  0.17330509093E+02 -0.20732009075E+02  0.24142038417E+00  0.27022602198E+02  0.00000000000E+00 0.  1.
<mgrwt>
<rscale>  2 0.27021524E+02</rscale>
<asrwt>0</asrwt>
<pdfrwt beam="2">  1        2 0.14044497E-01 0.27021524E+02</pdfrwt>
<pdfrwt beam="1">  1       -2 0.24577418E-02 0.27021524E+02</pdfrwt>
<totfact> 0.15479554E+05</totfact>
</mgrwt>
</event>
<event>
 4    1  0.7653521E+003  0.3498628E+02  0.7546771E-02  0.1548722E+00
         -2   -1    0    0    0  501 -0.00000000000E+00  0.00000000000E+00  0.24268313064E+02  0.24268313064E+02  0.00000000000E+00 0.  1.
          2   -1    0    0  501    0  0.00000000000E+00 -0.00000000000E+00 -0.39970879806E+03  0.39970879806E+03  0.00000000000E+00 0. -1.
          2    1    1    2  502    0  0.18497979964E+02  0.29696202072E+02 -0.38588291052E+03  0.38746568920E+03  0.00000000000E+00 0. -1.
         -2    1    1    2    0  502 -0.18497979964E+02 -0.29696202072E+02  0.10442425518E+02  0.36511421925E+02  0.00000000000E+00 0.  1.
<mgrwt>
<rscale>  2 0.34986278E+02</rscale>
<asrwt>0</asrwt>
<pdfrwt beam="2">  1        2 0.61493661E-01 0.34986278E+02</pdfrwt>
<pdfrwt beam="1">  1       -2 0.37335867E-02 0.34986278E+02</pdfrwt>
<totfact> 0.19498984E+04</totfact>
</mgrwt>
</event>
<event>
 4    1  0.7653521E+003  0.2298102E+02  0.7546771E-02  0.1691818E+00
          2   -1    0    0  501    0  0.00000000000E+00  0.00000000000E+00  0.15788853429E+02  0.15788853429E+02  0.00000000000E+00 0.  1.
         -2   -1    0    0    0  501 -0.00000000000E+00 -0.00000000000E+00 -0.44998974448E+02  0.44998974448E+02  0.00000000000E+00 0.  1.
          2    1    1    2  502    0  0.15589285297E+02 -0.16884936016E+02 -0.30003235743E+02  0.37793134765E+02  0.00000000000E+00 0.  1.
         -2    1    1    2    0  502 -0.15589285297E+02  0.16884936016E+02  0.79311472415E+00  0.22994693112E+02  0.00000000000E+00 0.  1.
<mgrwt>
<rscale>  2 0.22981023E+02</rscale>
<asrwt>0</asrwt>
<pdfrwt beam="1">  1        2 0.24290544E-02 0.22981023E+02</pdfrwt>
<pdfrwt beam="2">  1       -2 0.69229190E-02 0.22981023E+02</pdfrwt>
<totfact> 0.28455497E+05</totfact>
</mgrwt>
</event>
<event>
 4    1  0.7653521E+003  0.2121743E+02  0.7546771E-02  0.1722148E+00
         -2   -1    0    0    0  501 -0.00000000000E+00  0.00000000000E+00  0.62922089711E+03  0.62922089711E+03  0.00000000000E+00 0.  1.
          2   -1    0    0  501    0  0.00000000000E+00 -0.00000000000E+00 -0.16997973790E+01  0.16997973790E+01  0.00000000000E+00 0.  1.
          2    1    1    2  502    0 -0.15499033739E+02 -0.14489972143E+02  0.73700852059E+02  0.76694164926E+02  0.00000000000E+00 0.  1.
         -2    1    1    2    0  502  0.15499033739E+02  0.14489972143E+02  0.55382024767E+03  0.55422652956E+03  0.00000000000E+00 0.  1.
<mgrwt>
<rscale>  2 0.21217430E+02</rscale>
<asrwt>0</asrwt>
<pdfrwt beam="2">  1        2 0.26150779E-03 0.21217430E+02</pdfrwt>
<pdfrwt beam="1">  1       -2 0.96803029E-01 0.21217430E+02</pdfrwt>
<totfact> 0.53166597E+04</totfact>
</mgrwt>
</event>
<event>
 4    1  0.7653521E+003  0.2626731E+02  0.7546771E-02  0.1643439E+00
          2   -1    0    0  501    0  0.00000000000E+00  0.00000000000E+00  0.38262988383E+03  0.38262988383E+03  0.00000000000E+00 0.  1.
         -2   -1    0    0    0  501 -0.00000000000E+00 -0.00000000000E+00 -0.41448175613E+01  0.41448175613E+01  0.00000000000E+00 0. -1.
          2    1    1    2  502    0  0.24717484778E+02  0.88891778772E+01  0.33459757703E+03  0.33562704017E+03  0.00000000000E+00 0.  1.
         -2    1    1    2    0  502 -0.24717484778E+02 -0.88891778772E+01  0.43887489243E+02  0.51147661228E+02  0.00000000000E+00 0. -1.
<mgrwt>
<rscale>  2 0.26267309E+02</rscale>
<asrwt>0</asrwt>
<pdfrwt beam="1">  1        2 0.58866108E-01 0.26267309E+02</pdfrwt>
<pdfrwt beam="2">  1       -2 0.63766454E-03 0.26267309E+02</pdfrwt>
<totfact> 0.22097968E+05</totfact>
</mgrwt>
</event>
<event>
 4    1  0.7653521E+003  0.2455219E+02  0.7546771E-02  0.1667518E+00
         -2   -1    0    0    0  501 -0.00000000000E+00  0.00000000000E+00  0.36888215751E+00  0.36888215751E+00  0.00000000000E+00 0. -1.
          2   -1    0    0  501    0  0.00000000000E+00 -0.00000000000E+00 -0.19402860470E+04  0.19402860470E+04  0.00000000000E+00 0. -1.
          2    1    1    2  502    0 -0.24336766869E+02 -0.32452846541E+01 -0.13553838188E+04  0.13556061767E+04  0.00000000000E+00 0. -1.
         -2    1    1    2    0  502  0.24336766869E+02  0.32452846541E+01 -0.58453334604E+03  0.58504875243E+03  0.00000000000E+00 0. -1.
<mgrwt>
<rscale>  2 0.24552191E+02</rscale>
<asrwt>0</asrwt>
<pdfrwt beam="2">  1        2 0.29850879E+00 0.24552191E+02</pdfrwt>
<pdfrwt beam="1">  1       -2 0.56750485E-04 0.24552191E+02</pdfrwt>
<totfact> 0.67241636E+05</totfact>
</mgrwt>
</event>
<event>
 4    1  0.7653521E+003  0.3096650E+02  0.7546771E-02  0.1587645E+00
          2   -1    0    0  501    0  0.00000000000E+00  0.00000000000E+00  0.95954482785E+00  0.95954482785E+00  0.00000000000E+00 0. -1.
         -2   -1    0    0    0  501 -0.00000000000E+00 -0.00000000000E+00 -0.11092580090E+04  0.11092580090E+04  0.00000000000E+00 0. -1.
          2    1    1    2  502    0  0.29859917108E+02  0.82042525904E+01 -0.37941833339E+03  0.38067991295E+03  0.00000000000E+00 0. -1.
         -2    1    1    2    0  502 -0.29859917108E+02 -0.82042525904E+01 -0.72888013076E+03  0.72953764085E+03  0.00000000000E+00 0. -1.
<mgrwt>
<rscale>  2 0.30966505E+02</rscale>
<asrwt>0</asrwt>
<pdfrwt beam="1">  1        2 0.14762232E-03 0.30966505E+02</pdfrwt>
<pdfrwt beam="2">  1       -2 0.17065503E+00 0.30966505E+02</pdfrwt>
<totfact> 0.32849704E+04</totfact>
</mgrwt>
</event>
<event>
 4    1  0.7653521E+003  0.2180739E+02  0.7546771E-02  0.1711604E+00
         -2   -1    0    0    0  501 -0.00000000000E+00  0.00000000000E+00  0.57174806725E+01  0.57174806725E+01  0.00000000000E+00 0.  1.
          2   -1    0    0  501    0  0.00000000000E+00 -0.00000000000E+00 -0.64170251952E+03  0.64170251952E+03  0.00000000000E+00 0. -1.
          2    1    1    2  502    0  0.17660967224E+02  0.12792677577E+02 -0.61999519466E+03  0.62037859712E+03  0.00000000000E+00 0. -1.
         -2    1    1    2    0  502 -0.17660967224E+02 -0.12792677577E+02 -0.15989844182E+02  0.27041403067E+02  0.00000000000E+00 0.  1.
<mgrwt>
<rscale>  2 0.21807392E+02</rscale>
<asrwt>0</asrwt>
<pdfrwt beam="2">  1        2 0.98723416E-01 0.21807392E+02</pdfrwt>
<pdfrwt beam="1">  1       -2 0.87961284E-03 0.21807392E+02</pdfrwt>
<totfact> 0.81057163E+04</totfact>
</mgrwt>
</event>
<event>
 4    1  0.7653521E+003  0.2691870E+02  0.7546771E-02  0.1634880E+00
          2   -1    0    0  501    0  0.00000000000E+00  0.00000000000E+00  0.58794198638E+03  0.58794198638E+03  0.00000000000E+00 0. -1.
         -2   -1    0    0    0  501 -0.00000000000E+00 -0.00000000000E+00 -0.13541150484E+02  0.13541150484E+02  0.00000000000E+00 0.  1.
          2    1    1    2  502    0  0.25505114359E+02  0.86084727534E+01  0.57392937378E+03  0.57456030384E+03  0.00000000000E+00 0. -1.
         -2    1    1    2    0  502 -0.25505114359E+02 -0.86084727534E+01  0.47146211933E+00  0.26922833026E+02  0.00000000000E+00 0.  1.
<mgrwt>
<rscale>  2 0.26918705E+02</rscale>
<asrwt>0</asrwt>
<pdfrwt beam="1">  1        2 0.90452593E-01 0.26918705E+02</pdfrwt>
<pdfrwt beam="2">  1       -2 0.20832544E-02 0.26918705E+02</pdfrwt>
<totfact> 0.28565740E+04</totfact>
</mgrwt>
</event>
<event>
 4    1  0.7653521E+003  0.2907503E+02  0.7546771E-02  0.1608544E+00
         -2   -1    0    0    0  501 -0.00000000000E+00  0.00000000000E+00  0.13593448309E+01  0.13593448309E+01  0.00000000000E+00 0.  1.
          2   -1    0    0  501    0  0.00000000000E+00 -0.00000000000E+00 -0.13568455338E+04  0.13568455338E+04  0.00000000000E+00 0.  1.
          2    1    1    2  502    0  0.17316068211E+02  0.23356175534E+02 -0.11775495707E+04  0.11779084636E+04  0.00000000000E+00 0.  1.
         -2    1    1    2    0  502 -0.17316068211E+02 -0.23356175534E+02 -0.17793661832E+03  0.18029641508E+03  0.00000000000E+00 0.  1.
<mgrwt>
<rscale>  2 0.29075026E+02</rscale>
<asrwt>0</asrwt>
<pdfrwt beam="2">  1        2 0.20874544E+00 0.29075026E+02</pdfrwt>
<pdfrwt beam="1">  1       -2 0.20913000E-03 0.29075026E+02</pdfrwt>
<totfact> 0.23437278E+05</totfact>
</mgrwt>
</event>
<event>
 4    1  0.7653521E+003  0.2782886E+02  0.7546771E-02  0.1623407E+00
          2   -1    0    0  501    0  0.00000000000E+00  0.00000000000E+00  0.59273747868E+03  0.59273747868E+03  0.00000000000E+00 0. -1.
         -2   -1    0    0    0  501 -0.00000000000E+00 -0.00000000000E+00 -0.32587266990E+01  0.32587266990E+01  0.00000000000E+00 0.  1.
          2    1    1    2  502    0  0.27772710823E+02 -0.17669024878E+01  0.52538663235E+03  0.52612314040E+03  0.00000000000E+00 0. -1.
         -2    1    1    2    0  502 -0.27772710823E+02  0.17669024878E+01  0.64092119624E+02  0.69873064974E+02  0.00000000000E+00 0.  1.
<mgrwt>
<rscale>  2 0.27828859E+02</rscale>
<asrwt>0</asrwt>
<pdfrwt beam="1">  1        2 0.91190296E-01 0.27828859E+02</pdfrwt>
<pdfrwt beam="2">  1       -2 0.50134304E-03 0.27828859E+02</pdfrwt>
<totfact> 0.19875197E+05</totfact>
</mgrwt>
</event>
<event>
 4    1  0.7653521E+003  0.3329783E+02  0.7546771E-02  0.1564257E+00
          2   -1    0    0  501    0  0.00000000000E+00  0.00000000000E+00  0.34171284040E+03  0.34171284040E+03  0.00000000000E+00 0. -1.
         -2   -1    0    0    0  501 -0.00000000000E+00 -0.00000000000E+00 -0.13259932175E+02  0.13259932175E+02  0.00000000000E+00 0.  1.
          2    1    1    2  502    0  0.32954942729E+02  0.47662441001E+01  0.31847659215E+03  0.32021256234E+03  0.00000000000E+00 0. -1.
         -2    1    1    2    0  502 -0.32954942729E+02 -0.47662441001E+01  0.99763160728E+01  0.34760210233E+02  0.00000000000E+00 0.  1.
<mgrwt>
<rscale>  2 0.33297828E+02</rscale>
<asrwt>0</asrwt>
<pdfrwt beam="1">  1        2 0.52571199E-01 0.33297828E+02</pdfrwt>
<pdfrwt beam="2">  1       -2 0.20399898E-02 0.33297828E+02</pdfrwt>
<totfact> 0.52985978E+04</totfact>
</mgrwt>
</event>
<event>
 4    1  0.7653521E+003  0.2196406E+02  0.7546771E-02  0.1708874E+00
         -2   -1    0    0    0  501 -0.00000000000E+00  0.00000000000E+00  0.42250220477E+01  0.42250220477E+01  0.00000000000E+00 0.  1.
          2   -1    0    0  501    0  0.00000000000E+00 -0.00000000000E+00 -0.15283044149E+03  0.15283044149E+03  0.00000000000E+00 0. -1.
          2    1    1    2  502    0 -0.21465870862E+02 -0.46515045802E+01 -0.11379259951E+03  0.11589294979E+03  0.00000000000E+00 0. -1.
         -2    1    1    2    0  502  0.21465870862E+02  0.46515045802E+01 -0.34812819927E+02  0.41162513747E+02  0.00000000000E+00 0.  1.
<mgrwt>
<rscale>  2 0.21964064E+02</rscale>
<asrwt>0</asrwt>
<pdfrwt beam="2">  1        2 0.23512373E-01 0.21964064E+02</pdfrwt>
<pdfrwt beam="1">  1       -2 0.65000347E-03 0.21964064E+02</pdfrwt>
<totfact> 0.51405525E+05</totfact>
</mgrwt>
</event>
<event>
 4    1  0.7653521E+003  0.2192966E+02  0.7546771E-02  0.1709471E+00
         -2   -1    0    0    0  501 -0.00000000000E+00  0.00000000000E+00  0.80629687982E+00  0.80629687982E+00  0.00000000000E+00 0. -1.
          2   -1    0    0  501    0  0.00000000000E+00 -0.00000000000E+00 -0.69850447889E+03  0.69850447889E+03  0.00000000000E+00 0. -1.
          2    1    1    2  502    0 -0.21644228777E+02 -0.35266369619E+01 -0.48250476679E+03  0.48300285691E+03  0.00000000000E+00 0. -1.
         -2    1    1    2    0  502  0.21644228777E+02  0.35266369619E+01 -0.21519341522E+03  0.21630791886E+03  0.00000000000E+00 0. -1.
<mgrwt>
<rscale>  2 0.21929656E+02</rscale>
<asrwt>0</asrwt>
<pdfrwt beam="2">  1        2 0.10746217E+00 0.21929656E+02</pdfrwt>
<pdfrwt beam="1">  1       -2 0.12404573E-03 0.21929656E+02</pdfrwt>
<totfact> 0.10043765E+06</totfact>
</mgrwt>
</event>
<event>
 4    1  0.7653521E+003  0.2233859E+02  0.7546771E-02  0.1702461E+00
         -2   -1    0    0    0  501 -0.00000000000E+00  0.00000000000E+00  0.21093861375E+01  0.21093861375E+01  0.00000000000E+00 0. -1.
          2   -1    0    0  501    0  0.00000000000E+00 -0.00000000000E+00 -0.64039052120E+03  0.64039052120E+03  0.00000000000E+00 0.  1.
          2    1    1    2  502    0 -0.19479004029E+02 -0.10935305137E+02 -0.57424387464E+03  0.57467820565E+03  0.00000000000E+00 0.  1.
         -2    1    1    2    0  502  0.19479004029E+02  0.10935305137E+02 -0.64037260431E+02  0.67821701688E+02  0.00000000000E+00 0. -1.
<mgrwt>
<rscale>  2 0.22338588E+02</rscale>
<asrwt>0</asrwt>
<pdfrwt beam="2">  1        2 0.98521771E-01 0.22338588E+02</pdfrwt>
<pdfrwt beam="1">  1       -2 0.32452044E-03 0.22338588E+02</pdfrwt>
<totfact> 0.31038786E+05</totfact>
</mgrwt>
</event>
<event>
 4    1  0.7653521E+003  0.2075880E+02  0.7546771E-02  0.1730646E+00
         -2   -1    0    0    0  501 -0.00000000000E+00  0.00000000000E+00  0.94565365729E+02  0.94565365729E+02  0.00000000000E+00 0. -1.
          2   -1    0    0  501    0  0.00000000000E+00 -0.00000000000E+00 -0.45076550819E+03  0.45076550819E+03  0.00000000000E+00 0. -1.
          2    1    1    2  502    0  0.10749758974E+01  0.20730952432E+02 -0.44938377632E+03  0.44986298623E+03  0.00000000000E+00 0. -1.
         -2    1    1    2    0  502 -0.10749758974E+01 -0.20730952432E+02  0.93183633854E+02  0.95467887691E+02  0.00000000000E+00 0. -1.
<mgrwt>
<rscale>  2 0.20758804E+02</rscale>
<asrwt>0</asrwt>
<pdfrwt beam="2">  1        2 0.69348538E-01 0.20758804E+02</pdfrwt>
<pdfrwt beam="1">  1       -2 0.14548518E-01 0.20758804E+02</pdfrwt>
<totfact> 0.22057317E+03</totfact>
</mgrwt>
</event>
<event>
 4    1  0.7653521E+003  0.2089500E+02  0.7546771E-02  0.1728094E+00
         -2   -1    0    0    0  501 -0.00000000000E+00  0.00000000000E+00  0.10484160361E+02  0.10484160361E+02  0.00000000000E+00 0. -1.
          2   -1    0    0  501    0  0.00000000000E+00 -0.00000000000E+00 -0.22333075118E+03  0.22333075118E+03  0.00000000000E+00 0. -1.
          2    1    1    2  502    0  0.19427215849E+02  0.76931416823E+01 -0.21186919969E+03  0.21289706180E+03  0.00000000000E+00 0. -1.
         -2    1    1    2    0  502 -0.19427215849E+02 -0.76931416823E+01 -0.97739113006E+00  0.20917849746E+02  0.00000000000E+00 0. -1.
<mgrwt>
<rscale>  2 0.20895003E+02</rscale>
<asrwt>0</asrwt>
<pdfrwt beam="2">  1        2 0.34358575E-01 0.20895003E+02</pdfrwt>
<pdfrwt beam="1">  1       -2 0.16129479E-02 0.20895003E+02</pdfrwt>
<totfact> 0.10118634E+05</totfact>
</mgrwt>
</event>
<event>
 4    1  0.7653521E+003  0.2067627E+02  0.7546771E-02  0.1732205E+00
          2   -1    0    0  501    0  0.00000000000E+00  0.00000000000E+00  0.36747190100E+03  0.36747190100E+03  0.00000000000E+00 0.  1.
         -2   -1    0    0    0  501 -0.00000000000E+00 -0.00000000000E+00 -0.37438031519E+02  0.37438031519E+02  0.00000000000E+00 0.  1.
          2    1    1    2  502    0  0.15777511116E+02 -0.13363319022E+02  0.36430146054E+03  0.36488773932E+03  0.00000000000E+00 0.  1.
         -2    1    1    2    0  502 -0.15777511116E+02  0.13363319022E+02 -0.34267591055E+02  0.40022193206E+02  0.00000000000E+00 0.  1.
<mgrwt>
<rscale>  2 0.20676270E+02</rscale>
<asrwt>0</asrwt>
<pdfrwt beam="1">  1        2 0.56534136E-01 0.20676270E+02</pdfrwt>
<pdfrwt beam="2">  1       -2 0.57596974E-02 0.20676270E+02</pdfrwt>
<totfact> 0.10585495E+04</totfact>
</mgrwt>
</event>
<event>
 4    1  0.7653521E+003  0.2146254E+02  0.7546771E-02  0.1717716E+00
          2   -1    0    0  501    0  0.00000000000E+00  0.00000000000E+00  0.27200711194E+01  0.27200711194E+01  0.00000000000E+00 0.  1.
         -2   -1    0    0    0  501 -0.00000000000E+00 -0.00000000000E+00 -0.19357468979E+03  0.19357468979E+03  0.00000000000E+00 0. -1.
          2    1    1    2  502    0  0.20675729310E+02  0.57580205703E+01 -0.60706092001E+02  0.64388432109E+02  0.00000000000E+00 0.  1.
         -2    1    1    2    0  502 -0.20675729310E+02 -0.57580205703E+01 -0.13014852667E+03  0.13190632880E+03  0.00000000000E+00 0. -1.
<mgrwt>
<rscale>  2 0.21462539E+02</rscale>
<asrwt>0</asrwt>
<pdfrwt beam="1">  1        2 0.41847251E-03 0.21462539E+02</pdfrwt>
<pdfrwt beam="2">  1       -2 0.29780720E-01 0.21462539E+02</pdfrwt>
<totfact> 0.28211721E+05</totfact>
</mgrwt>
</event>
<event>
 4    1  0.7653521E+003  0.2260987E+02  0.7546771E-02  0.1697913E+00
         -2   -1    0    0    0  501 -0.00000000000E+00  0.00000000000E+00  0.10544236202E+01  0.10544236202E+01  0.00000000000E+00 0.  1.
          2   -1    0    0  501    0  0.00000000000E+00 -0.00000000000E+00 -0.10586594308E+04  0.10586594308E+04  0.00000000000E+00 0. -1.
          2    1    1    2  502    0 -0.22122570705E+02  0.46688219903E+01 -0.91890213559E+03  0.91918025481E+03  0.00000000000E+00 0. -1.
         -2    1    1    2    0  502  0.22122570705E+02 -0.46688219903E+01 -0.13870287163E+03  0.14053359965E+03  0.00000000000E+00 0.  1.
<mgrwt>
<rscale>  2 0.22609866E+02</rscale>
<asrwt>0</asrwt>
<pdfrwt beam="2">  1        2 0.16287084E+00 0.22609866E+02</pdfrwt>
<pdfrwt beam="1">  1       -2 0.16221886E-03 0.22609866E+02</pdfrwt>
<totfact> 0.43759193E+05</totfact>
</mgrwt>
</event>
<event>
 4    1  0.7653521E+003  0.2500315E+02  0.7546771E-02  0.1660957E+00
          2   -1    0    0  501    0  0.00000000000E+00  0.00000000000E+00  0.45046040627E+01  0.45046040627E+01  0.00000000000E+00 0. -1.
         -2   -1    0    0    0  501 -0.00000000000E+00 -0.00000000000E+00 -0.19393221902E+03  0.19393221902E+03  0.00000000000E+00 0. -1.
          2    1    1    2  502    0 -0.68535815571E+01  0.24045494557E+02 -0.41803363291E+02  0.48710148543E+02  0.00000000000E+00 0. -1.
         -2    1    1    2    0  502  0.68535815571E+01 -0.24045494557E+02 -0.14762425167E+03  0.14972667454E+03  0.00000000000E+00 0. -1.
<mgrwt>
<rscale>  2 0.25003148E+02</rscale>
<asrwt>0</asrwt>
<pdfrwt beam="1">  1        2 0.69301609E-03 0.25003148E+02</pdfrwt>
<pdfrwt beam="2">  1       -2 0.29835723E-01 0.25003148E+02</pdfrwt>
<totfact> 0.15200467E+05</totfact>
</mgrwt>
</event>
<event>
 4    1  0.7653521E+003  0.2210592E+02  0.7546771E-02  0.1706427E+00
         -2   -1    0    0    0  501 -0.00000000000E+00  0.00000000000E+00  0.20894095225E+02  0.20894095225E+02  0.00000000000E+00 0.  1.
          2   -1    0    0  501    0  0.00000000000E+00 -0.00000000000E+00 -0.48731805049E+03  0.48731805049E+03  0.00000000000E+00 0.  1.
          2    1    1    2  502    0 -0.13649725414E+02  0.17388402949E+02 -0.48114537819E+03  0.48165293160E+03  0.00000000000E+00 0.  1.
         -2    1    1    2    0  502  0.13649725414E+02 -0.17388402949E+02  0.14721422934E+02  0.26559214111E+02  0.00000000000E+00 0.  1.
<mgrwt>
<rscale>  2 0.22105917E+02</rscale>
<asrwt>0</asrwt>
<pdfrwt beam="2">  1        2 0.74972002E-01 0.22105917E+02</pdfrwt>
<pdfrwt beam="1">  1       -2 0.32144764E-02 0.22105917E+02</pdfrwt>
<totfact> 0.18376072E+04</totfact>
</mgrwt>
</event>
<event>
 4    1  0.7653521E+003  0.3591877E+02  0.7546771E-02  0.1540590E+00
          2   -1    0    0  501    0  0.00000000000E+00  0.00000000000E+00  0.39896168725E+03  0.39896168725E+03  0.00000000000E+00 0. -1.
         -2   -1    0    0    0  501 -0.00000000000E+00 -0.00000000000E+00 -0.45054289654E+02  0.45054289654E+02  0.00000000000E+00 0. -1.
          2    1    1    2  502    0 -0.14153918882E+02  0.33012489203E+02  0.39084599508E+03  0.39249299323E+03  0.00000000000E+00 0. -1.
         -2    1    1    2    0  502  0.14153918882E+02 -0.33012489203E+02 -0.36938597482E+02  0.51522983677E+02  0.00000000000E+00 0. -1.
<mgrwt>
<rscale>  2 0.35918768E+02</rscale>
<asrwt>0</asrwt>
<pdfrwt beam="1">  1        2 0.61378719E-01 0.35918768E+02</pdfrwt>
<pdfrwt beam="2">  1       -2 0.69314294E-02 0.35918768E+02</pdfrwt>
<totfact> 0.80158021E+03</totfact>
</mgrwt>
</event>
<event>
 4    1  0.7653521E+003  0.3761592E+02  0.7546771E-02  0.1526526E+00
         -2   -1    0    0    0  501 -0.00000000000E+00  0.00000000000E+00  0.16943785493E+03  0.16943785493E+03  0.00000000000E+00 0. -1.
          2   -1    0    0  501    0  0.00000000000E+00 -0.00000000000E+00 -0.73373763173E+02  0.73373763173E+02  0.00000000000E+00 0.  1.
          2    1    1    2  502    0  0.28848615251E+02  0.24139483555E+02 -0.66256351037E+02  0.76189640509E+02  0.00000000000E+00 0.  1.
         -2    1    1    2    0  502 -0.28848615251E+02 -0.24139483555E+02  0.16232044280E+03  0.16662197760E+03  0.00000000000E+00 0. -1.
<mgrwt>
<rscale>  2 0.37615918E+02</rscale>
<asrwt>0</asrwt>
<pdfrwt beam="2">  1        2 0.11288271E-01 0.37615918E+02</pdfrwt>
<pdfrwt beam="1">  1       -2 0.26067362E-01 0.37615918E+02</pdfrwt>
<totfact> 0.60798864E+03</totfact>
</mgrwt>
</event>
<event>
 4    1  0.7653521E+003  0.3383749E+02  0.7546771E-02  0.1559173E+00
         -2   -1    0    0    0  501 -0.00000000000E+00  0.00000000000E+00  0.16912994853E+02  0.16912994853E+02  0.00000000000E+00 0. -1.
          2   -1    0    0  501    0  0.00000000000E+00 -0.00000000000E+00 -0.44918500277E+03  0.44918500277E+03  0.00000000000E+00 0. -1.
          2    1    1    2  502    0 -0.90864441974E+01  0.32594665272E+02 -0.43090644019E+03  0.43223296481E+03  0.00000000000E+00 0. -1.
         -2    1    1    2    0  502  0.90864441974E+01 -0.32594665272E+02 -0.13655677311E+01  0.33865032815E+02  0.00000000000E+00 0. -1.
<mgrwt>
<rscale>  2 0.33837489E+02</rscale>
<asrwt>0</asrwt>
<pdfrwt beam="2">  1        2 0.69105384E-01 0.33837489E+02</pdfrwt>
<pdfrwt beam="1">  1       -2 0.26019993E-02 0.33837489E+02</pdfrwt>
<totfact> 0.28703745E+04</totfact>
</mgrwt>
</event>
<event>
 4    1  0.7653521E+003  0.2036592E+02  0.7546771E-02  0.1738148E+00
          2   -1    0    0  501    0  0.00000000000E+00  0.00000000000E+00  0.35913730317E+03  0.35913730317E+03  0.00000000000E+00 0. -1.
         -2   -1    0    0    0  501 -0.00000000000E+00 -0.00000000000E+00 -0.15272092319E+01  0.15272092319E+01  0.00000000000E+00 0. -1.
          2    1    1    2  502    0 -0.17210715596E+02 -0.10888623855E+02  0.26784211883E+03  0.26861528527E+03  0.00000000000E+00 0. -1.
         -2    1    1    2    0  502  0.17210715596E+02  0.10888623855E+02  0.89767975108E+02  0.92049227133E+02  0.00000000000E+00 0. -1.
<mgrwt>
<rscale>  2 0.20365924E+02</rscale>
<asrwt>0</asrwt>
<pdfrwt beam="1">  1        2 0.55251825E-01 0.20365924E+02</pdfrwt>
<pdfrwt beam="2">  1       -2 0.23495555E-03 0.20365924E+02</pdfrwt>
<totfact> 0.82890452E+05</totfact>
</mgrwt>
</event>
<event>
 4    1  0.7653521E+003  0.2088430E+02  0.7546771E-02  0.1728294E+00
          2   -1    0    0  501    0  0.00000000000E+00  0.00000000000E+00  0.33037454698E+03  0.33037454698E+03  0.00000000000E+00 0. -1.
         -2   -1    0    0    0  501 -0.00000000000E+00 -0.00000000000E+00 -0.21599645145E+02  0.21599645145E+02  0.00000000000E+00 0. -1.
          2    1    1    2  502    0 -0.15690976701E+02 -0.13782128902E+02  0.32491155116E+03  0.32558204788E+03  0.00000000000E+00 0. -1.
         -2    1    1    2    0  502  0.15690976701E+02  0.13782128902E+02 -0.16136649318E+02  0.26392144250E+02  0.00000000000E+00 0. -1.
<mgrwt>
<rscale>  2 0.20884296E+02</rscale>
<asrwt>0</asrwt>
<pdfrwt beam="1">  1        2 0.50826850E-01 0.20884296E+02</pdfrwt>
<pdfrwt beam="2">  1       -2 0.33230226E-02 0.20884296E+02</pdfrwt>
<totfact> 0.25503254E+04</totfact>
</mgrwt>
</event>
<event>
 4    1  0.7653521E+003  0.2986943E+02  0.7546771E-02  0.1599536E+00
          2   -1    0    0  501    0  0.00000000000E+00  0.00000000000E+00  0.38235390784E+01  0.38235390784E+01  0.00000000000E+00 0.  1.
         -2   -1    0    0    0  501 -0.00000000000E+00 -0.00000000000E+00 -0.31432689935E+03  0.31432689935E+03  0.00000000000E+00 0. -1.
          2    1    1    2  502    0 -0.11790483424E+02 -0.27443879790E+02 -0.23599766671E+03  0.23788039164E+03  0.00000000000E+00 0.  1.
         -2    1    1    2    0  502  0.11790483424E+02  0.27443879790E+02 -0.74505693563E+02  0.80270046784E+02  0.00000000000E+00 0. -1.
<mgrwt>
<rscale>  2 0.29869431E+02</rscale>
<asrwt>0</asrwt>
<pdfrwt beam="1">  1        2 0.58823655E-03 0.29869431E+02</pdfrwt>
<pdfrwt beam="2">  1       -2 0.48358004E-01 0.29869431E+02</pdfrwt>
<totfact> 0.82776426E+04</totfact>
</mgrwt>
</event>
<event>
 4    1  0.7653521E+003  0.2399479E+02  0.7546771E-02  0.1675874E+00
          2   -1    0    0  501    0  0.00000000000E+00  0.00000000000E+00  0.88935136105E+03  0.88935136105E+03  0.00000000000E+00 0. -1.
         -2   -1    0    0    0  501 -0.00000000000E+00 -0.00000000000E+00 -0.21682257544E+02  0.21682257544E+02  0.00000000000E+00 0. -1.
          2    1    1    2  502    0 -0.11002181744E+02 -0.21323745142E+02  0.88249948912E+03  0.88282563307E+03  0.00000000000E+00 0. -1.
         -2    1    1    2    0  502  0.11002181744E+02  0.21323745142E+02 -0.14830385612E+02  0.28207985525E+02  0.00000000000E+00 0. -1.
<mgrwt>
<rscale>  2 0.23994793E+02</rscale>
<asrwt>0</asrwt>
<pdfrwt beam="1">  1        2 0.13682326E+00 0.23994793E+02</pdfrwt>
<pdfrwt beam="2">  1       -2 0.33357326E-02 0.23994793E+02</pdfrwt>
<totfact> 0.92447588E+03</totfact>
</mgrwt>
</event>
<event>
 4    1  0.7653521E+003  0.2811732E+02  0.7546771E-02  0.1619883E+00
          2   -1    0    0  501    0  0.00000000000E+00  0.00000000000E+00  0.10166274803E+04  0.10166274803E+04  0.00000000000E+00 0. -1.
         -2   -1    0    0    0  501 -0.00000000000E+00 -0.00000000000E+00 -0.12890095131E+01  0.12890095131E+01  0.00000000000E+00 0. -1.
          2    1    1    2  502    0  0.27278194512E+02 -0.68178821399E+01  0.82823415000E+03  0.82871128304E+03  0.00000000000E+00 0. -1.
         -2    1    1    2    0  502 -0.27278194512E+02  0.68178821399E+01  0.18710432081E+03  0.18920520680E+03  0.00000000000E+00 0. -1.
<mgrwt>
<rscale>  2 0.28117315E+02</rscale>
<asrwt>0</asrwt>
<pdfrwt beam="1">  1        2 0.15640359E+00 0.28117315E+02</pdfrwt>
<pdfrwt beam="2">  1       -2 0.19830997E-03 0.28117315E+02</pdfrwt>
<totfact> 0.37319682E+05</totfact>
</mgrwt>
</event>
<event>
 4    1  0.7653521E+003  0.2253052E+02  0.7546771E-02  0.1699235E+00
          2   -1    0    0  501    0  0.00000000000E+00  0.00000000000E+00  0.35816010663E+01  0.35816010663E+01  0.00000000000E+00 0. -1.
         -2   -1    0    0    0  501 -0.00000000000E+00 -0.00000000000E+00 -0.72366512455E+03  0.72366512455E+03  0.00000000000E+00 0.  1.
          2    1    1    2  502    0  0.55689625396E+01  0.21831419286E+02 -0.33965009075E+02  0.40758386294E+02  0.00000000000E+00 0. -1.
         -2    1    1    2    0  502 -0.55689625396E+01 -0.21831419286E+02 -0.68611851440E+03  0.68648833932E+03  0.00000000000E+00 0.  1.
<mgrwt>
<rscale>  2 0.22530517E+02</rscale>
<asrwt>0</asrwt>
<pdfrwt beam="1">  1        2 0.55101521E-03 0.22530517E+02</pdfrwt>
<pdfrwt beam="2">  1       -2 0.11133317E+00 0.22530517E+02</pdfrwt>
<totfact> 0.14869266E+04</totfact>
</mgrwt>
</event>
<event>
 4    1  0.7653521E+003  0.3228984E+02  0.7546771E-02  0.1574074E+00
         -2   -1    0    0    0  501 -0.00000000000E+00  0.00000000000E+00  0.89051015938E+01  0.89051015938E+01  0.00000000000E+00 0. -1.
          2   -1    0    0  501    0  0.00000000000E+00 -0.00000000000E+00 -0.14942993540E+04  0.14942993540E+04  0.00000000000E+00 0.  1.
          2    1    1    2  502    0 -0.16118882560E+02  0.27978841748E+02 -0.14642536809E+04  0.14646096668E+04  0.00000000000E+00 0.  1.
         -2    1    1    2    0  502  0.16118882560E+02 -0.27978841748E+02 -0.21140571495E+02  0.38594788815E+02  0.00000000000E+00 0. -1.
<mgrwt>
<rscale>  2 0.32289843E+02</rscale>
<asrwt>0</asrwt>
<pdfrwt beam="2">  1        2 0.22989237E+00 0.32289843E+02</pdfrwt>
<pdfrwt beam="1">  1       -2 0.13700146E-02 0.32289843E+02</pdfrwt>
<totfact> 0.15975489E+04</totfact>
</mgrwt>
</event>
<event>
 4    1  0.7653521E+003  0.2067739E+02  0.7546771E-02  0.1732184E+00
          2   -1    0    0  501    0  0.00000000000E+00  0.00000000000E+00  0.16630937012E+03  0.16630937012E+03  0.00000000000E+00 0. -1.
         -2   -1    0    0    0  501 -0.00000000000E+00 -0.00000000000E+00 -0.27820690868E+01  0.27820690868E+01  0.00000000000E+00 0. -1.
          2    1    1    2  502    0 -0.13723685395E+02  0.15466554464E+02  0.58467170883E+02  0.62015836033E+02  0.00000000000E+00 0. -1.
         -2    1    1    2    0  502  0.13723685395E+02 -0.15466554464E+02  0.10506013015E+03  0.10707560317E+03  0.00000000000E+00 0. -1.
<mgrwt>
<rscale>  2 0.20677386E+02</rscale>
<asrwt>0</asrwt>
<pdfrwt beam="1">  1        2 0.25586049E-01 0.20677386E+02</pdfrwt>
<pdfrwt beam="2">  1       -2 0.42801076E-03 0.20677386E+02</pdfrwt>
<totfact> 0.80756039E+05</totfact>
</mgrwt>
</event>
<event>
 4    1  0.7653521E+003  0.2378815E+02  0.7546771E-02  0.1679044E+00
          2   -1    0    0  501    0  0.00000000000E+00  0.00000000000E+00  0.99011470966E+03  0.99011470966E+03  0.00000000000E+00 0. -1.
         -2   -1    0    0    0  501 -0.00000000000E+00 -0.00000000000E+00 -0.53185860445E+02  0.53185860445E+02  0.00000000000E+00 0. -1.
          2    1    1    2  502    0 -0.23785859768E+02  0.32997172430E+00  0.98730435925E+03  0.98759089395E+03  0.00000000000E+00 0. -1.
         -2    1    1    2    0  502  0.23785859768E+02 -0.32997172430E+00 -0.50375510037E+02  0.55709676159E+02  0.00000000000E+00 0. -1.
<mgrwt>
<rscale>  2 0.23788148E+02</rscale>
<asrwt>0</asrwt>
<pdfrwt beam="1">  1        2 0.15232533E+00 0.23788148E+02</pdfrwt>
<pdfrwt beam="2">  1       -2 0.81824408E-02 0.23788148E+02</pdfrwt>
<totfact> 0.22518664E+03</totfact>
</mgrwt>
</event>
<event>
 4    1  0.7653521E+003  0.5636698E+02  0.7546771E-02  0.1413743E+00
         -2   -1    0    0    0  501 -0.00000000000E+00  0.00000000000E+00  0.43776896016E+02  0.43776896016E+02  0.00000000000E+00 0. -1.
          2   -1    0    0  501    0  0.00000000000E+00 -0.00000000000E+00 -0.13013804254E+03  0.13013804254E+03  0.00000000000E+00 0. -1.
          2    1    1    2  502    0  0.30059718051E+02  0.47682800622E+02 -0.10101222628E+03  0.11567500155E+03  0.00000000000E+00 0. -1.
         -2    1    1    2    0  502 -0.30059718051E+02 -0.47682800622E+02  0.14651079759E+02  0.58239937007E+02  0.00000000000E+00 0. -1.
<mgrwt>
<rscale>  2 0.56366977E+02</rscale>
<asrwt>0</asrwt>
<pdfrwt beam="2">  1        2 0.20021238E-01 0.56366977E+02</pdfrwt>
<pdfrwt beam="1">  1       -2 0.67349070E-02 0.56366977E+02</pdfrwt>
<totfact> 0.28323146E+04</totfact>
</mgrwt>
</event>
<event>
 4    1  0.7653521E+003  0.4399140E+02  0.7546771E-02  0.1480738E+00
         -2   -1    0    0    0  501 -0.00000000000E+00  0.00000000000E+00  0.14454677175E+03  0.14454677175E+03  0.00000000000E+00 0.  1.
          2   -1    0    0  501    0  0.00000000000E+00 -0.00000000000E+00 -0.75017732449E+03  0.75017732449E+03  0.00000000000E+00 0. -1.
          2    1    1    2  502    0 -0.43802665133E+02 -0.40706017485E+01 -0.74616733548E+03  0.74746299962E+03  0.00000000000E+00 0. -1.
         -2    1    1    2    0  502  0.43802665133E+02  0.40706017485E+01  0.14053678275E+03  0.14726109661E+03  0.00000000000E+00 0.  1.
<mgrwt>
<rscale>  2 0.43991400E+02</rscale>
<asrwt>0</asrwt>
<pdfrwt beam="2">  1        2 0.11541190E+00 0.43991400E+02</pdfrwt>
<pdfrwt beam="1">  1       -2 0.22237965E-01 0.43991400E+02</pdfrwt>
<totfact> 0.67595450E+02</totfact>
</mgrwt>
</event>
<event>
 4    1  0.7653521E+003  0.2196682E+02  0.7546771E-02  0.1708826E+00
         -2   -1    0    0    0  501 -0.00000000000E+00  0.00000000000E+00  0.87159476922E+00  0.87159476922E+00  0.00000000000E+00 0.  1.
          2   -1    0    0  501    0  0.00000000000E+00 -0.00000000000E+00 -0.61559076456E+03  0.61559076456E+03  0.00000000000E+00 0. -1.
          2    1    1    2  502    0 -0.15179016959E+01  0.21914314013E+02 -0.40514818129E+03  0.40574325624E+03  0.00000000000E+00 0. -1.
         -2    1    1    2    0  502  0.15179016959E+01 -0.21914314013E+02 -0.20957098850E+03  0.21071910309E+03  0.00000000000E+00 0.  1.
<mgrwt>
<rscale>  2 0.21966820E+02</rscale>
<asrwt>0</asrwt>
<pdfrwt beam="2">  1        2 0.94706340E-01 0.21966820E+02</pdfrwt>
<pdfrwt beam="1">  1       -2 0.13409141E-03 0.21966820E+02</pdfrwt>
<totfact> 0.10373230E+06</totfact>
</mgrwt>
</event>
<event>
 4    1  0.7653521E+003  0.2323194E+02  0.7546771E-02  0.1687778E+00
          2   -1    0    0  501    0  0.00000000000E+00  0.00000000000E+00  0.59901568159E+02  0.59901568159E+02  0.00000000000E+00 0.  1.
         -2   -1    0    0    0  501 -0.00000000000E+00 -0.00000000000E+00 -0.48497337378E+02  0.48497337378E+02  0.00000000000E+00 0. -1.
          2    1    1    2  502    0  0.20330239862E+02 -0.11242975027E+02  0.54608319950E+02  0.59344685930E+02  0.00000000000E+00 0.  1.
         -2    1    1    2    0  502 -0.20330239862E+02  0.11242975027E+02 -0.43204089169E+02  0.49054219607E+02  0.00000000000E+00 0. -1.
<mgrwt>
<rscale>  2 0.23231942E+02</rscale>
<asrwt>0</asrwt>
<pdfrwt beam="1">  1        2 0.92156259E-02 0.23231942E+02</pdfrwt>
<pdfrwt beam="2">  1       -2 0.74611288E-02 0.23231942E+02</pdfrwt>
<totfact> 0.50025086E+04</totfact>
</mgrwt>
</event>
<event>
 4    1  0.7653521E+003  0.2280638E+02  0.7546771E-02  0.1694668E+00
          2   -1    0    0  501    0  0.00000000000E+00  0.00000000000E+00  0.18408748527E+02  0.18408748527E+02  0.00000000000E+00 0.  1.
         -2   -1    0    0    0  501 -0.00000000000E+00 -0.00000000000E+00 -0.28319361035E+02  0.28319361035E+02  0.00000000000E+00 0.  1.
          2    1    1    2  502    0  0.14965806722E+02  0.17209169955E+02 -0.38375895116E+01  0.23126997095E+02  0.00000000000E+00 0.  1.
         -2    1    1    2    0  502 -0.14965806722E+02 -0.17209169955E+02 -0.60730229961E+01  0.23601112467E+02  0.00000000000E+00 0.  1.
<mgrwt>
<rscale>  2 0.22806379E+02</rscale>
<asrwt>0</asrwt>
<pdfrwt beam="1">  1        2 0.28321152E-02 0.22806379E+02</pdfrwt>
<pdfrwt beam="2">  1       -2 0.43568248E-02 0.22806379E+02</pdfrwt>
<totfact> 0.45271392E+05</totfact>
</mgrwt>
</event>
<event>
 4    1  0.7653521E+003  0.5463982E+02  0.7546771E-02  0.1421810E+00
          2   -1    0    0  501    0  0.00000000000E+00  0.00000000000E+00  0.74612884484E+03  0.74612884484E+03  0.00000000000E+00 0.  1.
         -2   -1    0    0    0  501 -0.00000000000E+00 -0.00000000000E+00 -0.51330975824E+03  0.51330975824E+03  0.00000000000E+00 0.  1.
          2    1    1    2  502    0  0.54341942546E+02 -0.56976703909E+01  0.74366966071E+03  0.74567424149E+03  0.00000000000E+00 0.  1.
         -2    1    1    2    0  502 -0.54341942546E+02  0.56976703909E+01 -0.51085057411E+03  0.51376436159E+03  0.00000000000E+00 0.  1.
<mgrwt>
<rscale>  2 0.54639822E+02</rscale>
<asrwt>0</asrwt>
<pdfrwt beam="1">  1        2 0.11478905E+00 0.54639822E+02</pdfrwt>
<pdfrwt beam="2">  1       -2 0.78970732E-01 0.54639822E+02</pdfrwt>
<totfact> 0.62533756E+01</totfact>
</mgrwt>
</event>
<event>
 4    1  0.7653521E+003  0.3120786E+02  0.7546771E-02  0.1585109E+00
         -2   -1    0    0    0  501 -0.00000000000E+00  0.00000000000E+00  0.48178391841E+01  0.48178391841E+01  0.00000000000E+00 0. -1.
          2   -1    0    0  501    0  0.00000000000E+00 -0.00000000000E+00 -0.14445150427E+04  0.14445150427E+04  0.00000000000E+00 0.  1.
          2    1    1    2  502    0 -0.31157291895E+02  0.17758638217E+01 -0.13918985769E+04  0.13922483898E+04  0.00000000000E+00 0.  1.
         -2    1    1    2    0  502  0.31157291895E+02 -0.17758638217E+01 -0.47798626652E+02  0.57084492118E+02  0.00000000000E+00 0. -1.
<mgrwt>
<rscale>  2 0.31207860E+02</rscale>
<asrwt>0</asrwt>
<pdfrwt beam="2">  1        2 0.22223289E+00 0.31207860E+02</pdfrwt>
<pdfrwt beam="1">  1       -2 0.74120667E-03 0.31207860E+02</pdfrwt>
<totfact> 0.38999382E+04</totfact>
</mgrwt>
</event>
<event>
 4    1  0.7653521E+003  0.2597075E+02  0.7546771E-02  0.1647438E+00
         -2   -1    0    0    0  501 -0.00000000000E+00  0.00000000000E+00  0.20904187846E+02  0.20904187846E+02  0.00000000000E+00 0. -1.
          2   -1    0    0  501    0  0.00000000000E+00 -0.00000000000E+00 -0.16161899665E+03  0.16161899665E+03  0.00000000000E+00 0. -1.
          2    1    1    2  502    0  0.22424871694E+02  0.13099815809E+02 -0.15200271556E+03  0.15420540063E+03  0.00000000000E+00 0. -1.
         -2    1    1    2    0  502 -0.22424871694E+02 -0.13099815809E+02  0.11287906751E+02  0.28317783874E+02  0.00000000000E+00 0. -1.
<mgrwt>
<rscale>  2 0.25970754E+02</rscale>
<asrwt>0</asrwt>
<pdfrwt beam="2">  1        2 0.24864462E-01 0.25970754E+02</pdfrwt>
<pdfrwt beam="1">  1       -2 0.32160288E-02 0.25970754E+02</pdfrwt>
<totfact> 0.57054349E+04</totfact>
</mgrwt>
</event>
<event>
 4    1  0.7653521E+003  0.2469446E+02  0.7546771E-02  0.1665430E+00
         -2   -1    0    0    0  501 -0.00000000000E+00  0.00000000000E+00  0.21574606550E+01  0.21574606550E+01  0.00000000000E+00 0. -1.
          2   -1    0    0  501    0  0.00000000000E+00 -0.00000000000E+00 -0.44788250432E+03  0.44788250432E+03  0.00000000000E+00 0.  1.
          2    1    1    2  502    0 -0.12060858606E+02  0.21548827091E+02 -0.35953487929E+03  0.36038194417E+03  0.00000000000E+00 0.  1.
         -2    1    1    2    0  502  0.12060858606E+02 -0.21548827091E+02 -0.86190164378E+02  0.89658020806E+02  0.00000000000E+00 0. -1.
<mgrwt>
<rscale>  2 0.24694458E+02</rscale>
<asrwt>0</asrwt>
<pdfrwt beam="2">  1        2 0.68905062E-01 0.24694458E+02</pdfrwt>
<pdfrwt beam="1">  1       -2 0.33191673E-03 0.24694458E+02</pdfrwt>
<totfact> 0.44667533E+05</totfact>
</mgrwt>
</event>
<event>
 4    1  0.7653521E+003  0.2040397E+02  0.7546771E-02  0.1737412E+00
          2   -1    0    0  501    0  0.00000000000E+00  0.00000000000E+00  0.11461727862E+03  0.11461727862E+03  0.00000000000E+00 0. -1.
         -2   -1    0    0    0  501 -0.00000000000E+00 -0.00000000000E+00 -0.53760562235E+02  0.53760562235E+02  0.00000000000E+00 0. -1.
          2    1    1    2  502    0 -0.20222902264E+02  0.27122406026E+01  0.11172347357E+03  0.11357137215E+03  0.00000000000E+00 0. -1.
         -2    1    1    2    0  502  0.20222902264E+02 -0.27122406026E+01 -0.50866757188E+02  0.54806468705E+02  0.00000000000E+00 0. -1.
<mgrwt>
<rscale>  2 0.20403971E+02</rscale>
<asrwt>0</asrwt>
<pdfrwt beam="1">  1        2 0.17633427E-01 0.20403971E+02</pdfrwt>
<pdfrwt beam="2">  1       -2 0.82708558E-02 0.20403971E+02</pdfrwt>
<totfact> 0.20321888E+04</totfact>
</mgrwt>
</event>
<event>
 4    1  0.7653521E+003  0.2159506E+02  0.7546771E-02  0.1715351E+00
         -2   -1    0    0    0  501 -0.00000000000E+00  0.00000000000E+00  0.26541552311E+01  0.26541552311E+01  0.00000000000E+00 0. -1.
          2   -1    0    0  501    0  0.00000000000E+00 -0.00000000000E+00 -0.26907326955E+03  0.26907326955E+03  0.00000000000E+00 0. -1.
          2    1    1    2  502    0  0.55959951238E+01 -0.20857403410E+02 -0.21324263607E+03  0.21433331117E+03  0.00000000000E+00 0. -1.
         -2    1    1    2    0  502 -0.55959951238E+01  0.20857403410E+02 -0.53176478252E+02  0.57394113615E+02  0.00000000000E+00 0. -1.
<mgrwt>
<rscale>  2 0.21595056E+02</rscale>
<asrwt>0</asrwt>
<pdfrwt beam="2">  1        2 0.41395893E-01 0.21595056E+02</pdfrwt>
<pdfrwt beam="1">  1       -2 0.40833152E-03 0.21595056E+02</pdfrwt>
<totfact> 0.53837499E+05</totfact>
</mgrwt>
</event>
<event>
 4    1  0.7653521E+003  0.2027431E+02  0.7546771E-02  0.1739927E+00
          2   -1    0    0  501    0  0.00000000000E+00  0.00000000000E+00  0.57286372111E+03  0.57286372111E+03  0.00000000000E+00 0.  1.
         -2   -1    0    0    0  501 -0.00000000000E+00 -0.00000000000E+00 -0.31906509212E+03  0.31906509212E+03  0.00000000000E+00 0.  1.
          2    1    1    2  502    0  0.20147849273E+02  0.22609620479E+01  0.57236198394E+03  0.57272095164E+03  0.00000000000E+00 0.  1.
         -2    1    1    2    0  502 -0.20147849273E+02 -0.22609620479E+01 -0.31856335496E+03  0.31920786159E+03  0.00000000000E+00 0.  1.
<mgrwt>
<rscale>  2 0.20274313E+02</rscale>
<asrwt>0</asrwt>
<pdfrwt beam="1">  1        2 0.88132880E-01 0.20274313E+02</pdfrwt>
<pdfrwt beam="2">  1       -2 0.49086937E-01 0.20274313E+02</pdfrwt>
<totfact> 0.22179295E+02</totfact>
</mgrwt>
</event>
<event>
 4    1  0.7653521E+003  0.2151483E+02  0.7546771E-02  0.1716780E+00
         -2   -1    0    0    0  501 -0.00000000000E+00  0.00000000000E+00  0.25029247365E+03  0.25029247365E+03  0.00000000000E+00 0.  1.
          2   -1    0    0  501    0  0.00000000000E+00 -0.00000000000E+00 -0.54700513107E+01  0.54700513107E+01  0.00000000000E+00 0.  1.
          2    1    1    2  502    0 -0.66698620022E+01  0.20454848191E+02  0.18370025875E+02  0.28290382187E+02  0.00000000000E+00 0.  1.
         -2    1    1    2    0  502  0.66698620022E+01 -0.20454848191E+02  0.22645239647E+03  0.22747214278E+03  0.00000000000E+00 0.  1.
<mgrwt>
<rscale>  2 0.21514829E+02</rscale>
<asrwt>0</asrwt>
<pdfrwt beam="2">  1        2 0.84154655E-03 0.21514829E+02</pdfrwt>
<pdfrwt beam="1">  1       -2 0.38506525E-01 0.21514829E+02</pdfrwt>
<totfact> 0.72215797E+04</totfact>
</mgrwt>
</event>
<event>
 4    1  0.7653521E+003  0.2429794E+02  0.7546771E-02  0.1671295E+00
         -2   -1    0    0    0  501 -0.00000000000E+00  0.00000000000E+00  0.51201064619E+02  0.51201064619E+02  0.00000000000E+00 0.  1.
          2   -1    0    0  501    0  0.00000000000E+00 -0.00000000000E+00 -0.41596387563E+02  0.41596387563E+02  0.00000000000E+00 0.  1.
          2    1    1    2  502    0 -0.84829725041E+01 -0.22769036319E+02 -0.34644573523E+02  0.42315910860E+02  0.00000000000E+00 0.  1.
         -2    1    1    2    0  502  0.84829725041E+01  0.22769036319E+02  0.44249250579E+02  0.50481541321E+02  0.00000000000E+00 0.  1.
<mgrwt>
<rscale>  2 0.24297939E+02</rscale>
<asrwt>0</asrwt>
<pdfrwt beam="2">  1        2 0.63994442E-02 0.24297939E+02</pdfrwt>
<pdfrwt beam="1">  1       -2 0.78770869E-02 0.24297939E+02</pdfrwt>
<totfact> 0.71878266E+04</totfact>
</mgrwt>
</event>
<event>
 4    1  0.7653521E+003  0.2149237E+02  0.7546771E-02  0.1717182E+00
          2   -1    0    0  501    0  0.00000000000E+00  0.00000000000E+00  0.30657182964E+03  0.30657182964E+03  0.00000000000E+00 0. -1.
         -2   -1    0    0    0  501 -0.00000000000E+00 -0.00000000000E+00 -0.10016179389E+03  0.10016179389E+03  0.00000000000E+00 0.  1.
          2    1    1    2  502    0  0.14710228328E+02 -0.15669432988E+02  0.30503641066E+03  0.30579263198E+03  0.00000000000E+00 0. -1.
         -2    1    1    2    0  502 -0.14710228328E+02  0.15669432988E+02 -0.98626374908E+02  0.10094099155E+03  0.00000000000E+00 0.  1.
<mgrwt>
<rscale>  2 0.21492370E+02</rscale>
<asrwt>0</asrwt>
<pdfrwt beam="1">  1        2 0.47164897E-01 0.21492370E+02</pdfrwt>
<pdfrwt beam="2">  1       -2 0.15409507E-01 0.21492370E+02</pdfrwt>
<totfact> 0.29574841E+03</totfact>
</mgrwt>
</event>
<event>
 4    1  0.7653521E+003  0.2226591E+02  0.7546771E-02  0.1703693E+00
         -2   -1    0    0    0  501 -0.00000000000E+00  0.00000000000E+00  0.24913755745E+02  0.24913755745E+02  0.00000000000E+00 0.  1.
          2   -1    0    0  501    0  0.00000000000E+00 -0.00000000000E+00 -0.18883690797E+03  0.18883690797E+03  0.00000000000E+00 0.  1.
          2    1    1    2  502    0  0.80000362435E+00 -0.22251535088E+02 -0.18304896367E+03  0.18439819392E+03  0.00000000000E+00 0.  1.
         -2    1    1    2    0  502 -0.80000362435E+00  0.22251535088E+02  0.19125811447E+02  0.29352469795E+02  0.00000000000E+00 0.  1.
<mgrwt>
<rscale>  2 0.22265912E+02</rscale>
<asrwt>0</asrwt>
<pdfrwt beam="2">  1        2 0.29051832E-01 0.22265912E+02</pdfrwt>
<pdfrwt beam="1">  1       -2 0.38328855E-02 0.22265912E+02</pdfrwt>
<totfact> 0.36848712E+04</totfact>
</mgrwt>
</event>
<event>
 4    1  0.7653521E+003  0.2302841E+02  0.7546771E-02  0.1691050E+00
          2   -1    0    0  501    0  0.00000000000E+00  0.00000000000E+00  0.24268098331E+03  0.24268098331E+03  0.00000000000E+00 0. -1.
         -2   -1    0    0    0  501 -0.00000000000E+00 -0.00000000000E+00 -0.25244651523E+01  0.25244651523E+01  0.00000000000E+00 0. -1.
          2    1    1    2  502    0 -0.85835249038E+01  0.21368915636E+02  0.16502337422E+03  0.16662239193E+03  0.00000000000E+00 0. -1.
         -2    1    1    2    0  502  0.85835249038E+01 -0.21368915636E+02  0.75133143944E+02  0.78583056533E+02  0.00000000000E+00 0. -1.
<mgrwt>
<rscale>  2 0.23028405E+02</rscale>
<asrwt>0</asrwt>
<pdfrwt beam="1">  1        2 0.37335517E-01 0.23028405E+02</pdfrwt>
<pdfrwt beam="2">  1       -2 0.38837945E-03 0.23028405E+02</pdfrwt>
<totfact> 0.65038978E+05</totfact>
</mgrwt>
</event>
<event>
 4    1  0.7653521E+003  0.2116147E+02  0.7546771E-02  0.1723171E+00
          2   -1    0    0  501    0  0.00000000000E+00  0.00000000000E+00  0.77780636377E+02  0.77780636377E+02  0.00000000000E+00 0. -1.
         -2   -1    0    0    0  501 -0.00000000000E+00 -0.00000000000E+00 -0.57596356707E+01  0.57596356707E+01  0.00000000000E+00 0. -1.
          2    1    1    2  502    0 -0.81075903179E+01 -0.19546727255E+02  0.35171920985E+02  0.41047187394E+02  0.00000000000E+00 0. -1.
         -2    1    1    2    0  502  0.81075903179E+01  0.19546727255E+02  0.36849079721E+02  0.42493084654E+02  0.00000000000E+00 0. -1.
<mgrwt>
<rscale>  2 0.21161475E+02</rscale>
<asrwt>0</asrwt>
<pdfrwt beam="1">  1        2 0.11966251E-01 0.21161475E+02</pdfrwt>
<pdfrwt beam="2">  1       -2 0.88609785E-03 0.21161475E+02</pdfrwt>
<totfact> 0.69449847E+05</totfact>
</mgrwt>
</event>
<event>
 4    1  0.7653521E+003  0.2878471E+02  0.7546771E-02  0.1611924E+00
         -2   -1    0    0    0  501 -0.00000000000E+00  0.00000000000E+00  0.75535776619E+01  0.75535776619E+01  0.00000000000E+00 0.  1.
          2   -1    0    0  501    0  0.00000000000E+00 -0.00000000000E+00 -0.11112668237E+03  0.11112668237E+03  0.00000000000E+00 0.  1.
          2    1    1    2  502    0 -0.18157193750E+02 -0.22335508104E+02 -0.45041487549E+02  0.53453664119E+02  0.00000000000E+00 0.  1.
         -2    1    1    2    0  502  0.18157193750E+02  0.22335508104E+02 -0.58531617163E+02  0.65226595917E+02  0.00000000000E+00 0.  1.
<mgrwt>
<rscale>  2 0.28784708E+02</rscale>
<asrwt>0</asrwt>
<pdfrwt beam="2">  1        2 0.17096412E-01 0.28784708E+02</pdfrwt>
<pdfrwt beam="1">  1       -2 0.11620889E-02 0.28784708E+02</pdfrwt>
<totfact> 0.35545703E+05</totfact>
</mgrwt>
</event>
<event>
 4    1  0.7653521E+003  0.2287069E+02  0.7546771E-02  0.1693615E+00
          2   -1    0    0  501    0  0.00000000000E+00  0.00000000000E+00  0.12352534908E+04  0.12352534908E+04  0.00000000000E+00 0. -1.
         -2   -1    0    0    0  501 -0.00000000000E+00 -0.00000000000E+00 -0.19599972488E+01  0.19599972488E+01  0.00000000000E+00 0. -1.
          2    1    1    2  502    0 -0.81927960970E+01 -0.21352908155E+02  0.11643682880E+04  0.11645928811E+04  0.00000000000E+00 0. -1.
         -2    1    1    2    0  502  0.81927960970E+01  0.21352908155E+02  0.68925205602E+02  0.72620607005E+02  0.00000000000E+00 0. -1.
<mgrwt>
<rscale>  2 0.22870693E+02</rscale>
<asrwt>0</asrwt>
<pdfrwt beam="1">  1        2 0.19003838E+00 0.22870693E+02</pdfrwt>
<pdfrwt beam="2">  1       -2 0.30153902E-03 0.22870693E+02</pdfrwt>
<totfact> 0.15673441E+05</totfact>
</mgrwt>
</event>
<event>
 4    1  0.7653521E+003  0.2801358E+02  0.7546771E-02  0.1621144E+00
         -2   -1    0    0    0  501 -0.00000000000E+00  0.00000000000E+00  0.44103881594E+02  0.44103881594E+02  0.00000000000E+00 0. -1.
          2   -1    0    0  501    0  0.00000000000E+00 -0.00000000000E+00 -0.31666392680E+02  0.31666392680E+02  0.00000000000E+00 0.  1.
          2    1    1    2  502    0 -0.21947870620E+02 -0.17408372795E+02 -0.18856996352E+02  0.33769021004E+02  0.00000000000E+00 0.  1.
         -2    1    1    2    0  502  0.21947870620E+02  0.17408372795E+02  0.31294485266E+02  0.42001253270E+02  0.00000000000E+00 0. -1.
<mgrwt>
<rscale>  2 0.28013576E+02</rscale>
<asrwt>0</asrwt>
<pdfrwt beam="2">  1        2 0.48717527E-02 0.28013576E+02</pdfrwt>
<pdfrwt beam="1">  1       -2 0.67852126E-02 0.28013576E+02</pdfrwt>
<totfact> 0.12900550E+05</totfact>
</mgrwt>
</event>
<event>
 4    1  0.7653521E+003  0.2000143E+02  0.7546771E-02  0.1745300E+00
         -2   -1    0    0    0  501 -0.00000000000E+00  0.00000000000E+00  0.16420365231E+01  0.16420365231E+01  0.00000000000E+00 0. -1.
          2   -1    0    0  501    0  0.00000000000E+00 -0.00000000000E+00 -0.55360981020E+03  0.55360981020E+03  0.00000000000E+00 0.  1.
          2    1    1    2  502    0  0.17482892262E+02 -0.97162592041E+01 -0.48372453365E+03  0.48413787465E+03  0.00000000000E+00 0.  1.
         -2    1    1    2    0  502 -0.17482892262E+02  0.97162592041E+01 -0.68243240025E+02  0.71113972072E+02  0.00000000000E+00 0. -1.
<mgrwt>
<rscale>  2 0.20001430E+02</rscale>
<asrwt>0</asrwt>
<pdfrwt beam="2">  1        2 0.85170721E-01 0.20001430E+02</pdfrwt>
<pdfrwt beam="1">  1       -2 0.25262106E-03 0.20001430E+02</pdfrwt>
<totfact> 0.48741001E+05</totfact>
</mgrwt>
</event>
<event>
 4    1  0.7653521E+003  0.2023404E+02  0.7546771E-02  0.1740714E+00
          2   -1    0    0  501    0  0.00000000000E+00  0.00000000000E+00  0.12682756761E+04  0.12682756761E+04  0.00000000000E+00 0. -1.
         -2   -1    0    0    0  501 -0.00000000000E+00 -0.00000000000E+00 -0.43916853850E+00  0.43916853850E+00  0.00000000000E+00 0. -1.
          2    1    1    2  502    0 -0.19435798965E+02 -0.56272686401E+01  0.96043925900E+03  0.96065237556E+03  0.00000000000E+00 0. -1.
         -2    1    1    2    0  502  0.19435798965E+02  0.56272686401E+01  0.30739724856E+03  0.30806246908E+03  0.00000000000E+00 0. -1.
<mgrwt>
<rscale>  2 0.20234041E+02</rscale>
<asrwt>0</asrwt>
<pdfrwt beam="1">  1        2 0.19511640E+00 0.20234041E+02</pdfrwt>
<pdfrwt beam="2">  1       -2 0.67565406E-04 0.20234041E+02</pdfrwt>
<totfact> 0.10485563E+06</totfact>
</mgrwt>
</event>
<event>
 4    1  0.7653521E+003  0.2738364E+02  0.7546771E-02  0.1628951E+00
          2   -1    0    0  501    0  0.00000000000E+00  0.00000000000E+00  0.43661582925E+03  0.43661582925E+03  0.00000000000E+00 0. -1.
         -2   -1    0    0    0  501 -0.00000000000E+00 -0.00000000000E+00 -0.13957212767E+02  0.13957212767E+02  0.00000000000E+00 0. -1.
          2    1    1    2  502    0  0.27267894796E+02 -0.25150883058E+01  0.42230015426E+03  0.42318705562E+03  0.00000000000E+00 0. -1.
         -2    1    1    2    0  502 -0.27267894796E+02  0.25150883058E+01  0.35846222365E+00  0.27385986398E+02  0.00000000000E+00 0. -1.
<mgrwt>
<rscale>  2 0.27383640E+02</rscale>
<asrwt>0</asrwt>
<pdfrwt beam="1">  1        2 0.67171656E-01 0.27383640E+02</pdfrwt>
<pdfrwt beam="2">  1       -2 0.21472638E-02 0.27383640E+02</pdfrwt>
<totfact> 0.37257112E+04</totfact>
</mgrwt>
</event>
<event>
 4    1  0.7653521E+003  0.2221119E+02  0.7546771E-02  0.1704625E+00
          2   -1    0    0  501    0  0.00000000000E+00  0.00000000000E+00  0.63582563839E+03  0.63582563839E+03  0.00000000000E+00 0. -1.
         -2   -1    0    0    0  501 -0.00000000000E+00 -0.00000000000E+00 -0.97012425359E+00  0.97012425359E+00  0.00000000000E+00 0.  1.
          2    1    1    2  502    0  0.15722928317E+02  0.15688416335E+02  0.45989290211E+03  0.46042895032E+03  0.00000000000E+00 0. -1.
         -2    1    1    2    0  502 -0.15722928317E+02 -0.15688416335E+02  0.17496261203E+03  0.17636681232E+03  0.00000000000E+00 0.  1.
<mgrwt>
<rscale>  2 0.22211188E+02</rscale>
<asrwt>0</asrwt>
<pdfrwt beam="1">  1        2 0.97818996E-01 0.22211188E+02</pdfrwt>
<pdfrwt beam="2">  1       -2 0.14925039E-03 0.22211188E+02</pdfrwt>
<totfact> 0.87376566E+05</totfact>
</mgrwt>
</event>
<event>
 4    1  0.7653521E+003  0.2653544E+02  0.7546771E-02  0.1639879E+00
          2   -1    0    0  501    0  0.00000000000E+00  0.00000000000E+00  0.26113594063E+03  0.26113594063E+03  0.00000000000E+00 0. -1.
         -2   -1    0    0    0  501 -0.00000000000E+00 -0.00000000000E+00 -0.99236418799E+01  0.99236418799E+01  0.00000000000E+00 0.  1.
          2    1    1    2  502    0  0.24548234831E+02  0.10075394547E+02  0.24126669583E+03  0.24272154401E+03  0.00000000000E+00 0. -1.
         -2    1    1    2    0  502 -0.24548234831E+02 -0.10075394547E+02  0.99456029165E+01  0.28338038499E+02  0.00000000000E+00 0.  1.
<mgrwt>
<rscale>  2 0.26535437E+02</rscale>
<asrwt>0</asrwt>
<pdfrwt beam="1">  1        2 0.40174755E-01 0.26535437E+02</pdfrwt>
<pdfrwt beam="2">  1       -2 0.15267143E-02 0.26535437E+02</pdfrwt>
<totfact> 0.98740115E+04</totfact>
</mgrwt>
</event>
<event>
 4    1  0.7653521E+003  0.2166390E+02  0.7546771E-02  0.1714130E+00
         -2   -1    0    0    0  501 -0.00000000000E+00  0.00000000000E+00  0.13414132453E+03  0.13414132453E+03  0.00000000000E+00 0. -1.
          2   -1    0    0  501    0  0.00000000000E+00 -0.00000000000E+00 -0.50093515545E+01  0.50093515545E+01  0.00000000000E+00 0. -1.
          2    1    1    2  502    0  0.16097910306E+02 -0.14497651447E+02  0.26359064951E+02  0.34119274887E+02  0.00000000000E+00 0. -1.
         -2    1    1    2    0  502 -0.16097910306E+02  0.14497651447E+02  0.10277290802E+03  0.10503140119E+03  0.00000000000E+00 0. -1.
<mgrwt>
<rscale>  2 0.21663901E+02</rscale>
<asrwt>0</asrwt>
<pdfrwt beam="2">  1        2 0.77066957E-03 0.21663901E+02</pdfrwt>
<pdfrwt beam="1">  1       -2 0.20637124E-01 0.21663901E+02</pdfrwt>
<totfact> 0.23413511E+05</totfact>
</mgrwt>
</event>
<event>
 4    1  0.7653521E+003  0.2037856E+02  0.7546771E-02  0.1737903E+00
         -2   -1    0    0    0  501 -0.00000000000E+00  0.00000000000E+00  0.59114968580E+03  0.59114968580E+03  0.00000000000E+00 0. -1.
          2   -1    0    0  501    0  0.00000000000E+00 -0.00000000000E+00 -0.55032520419E+01  0.55032520419E+01  0.00000000000E+00 0. -1.
          2    1    1    2  502    0  0.20091040940E+02 -0.34111456269E+01  0.14187696174E+02  0.24830959773E+02  0.00000000000E+00 0. -1.
         -2    1    1    2    0  502 -0.20091040940E+02  0.34111456269E+01  0.57145873759E+03  0.57182197807E+03  0.00000000000E+00 0. -1.
<mgrwt>
<rscale>  2 0.20378563E+02</rscale>
<asrwt>0</asrwt>
<pdfrwt beam="2">  1        2 0.84665463E-03 0.20378563E+02</pdfrwt>
<pdfrwt beam="1">  1       -2 0.90946055E-01 0.20378563E+02</pdfrwt>
<totfact> 0.12987474E+04</totfact>
</mgrwt>
</event>
<event>
 4    1  0.7653521E+003  0.2933264E+02  0.7546771E-02  0.1605585E+00
         -2   -1    0    0    0  501 -0.00000000000E+00  0.00000000000E+00  0.92012604532E+01  0.92012604532E+01  0.00000000000E+00 0.  1.
          2   -1    0    0  501    0  0.00000000000E+00 -0.00000000000E+00 -0.36814271939E+03  0.36814271939E+03  0.00000000000E+00 0.  1.
          2    1    1    2  502    0 -0.20938162953E+02 -0.20542567453E+02 -0.34242884225E+03  0.34368287090E+03  0.00000000000E+00 0.  1.
         -2    1    1    2    0  502  0.20938162953E+02  0.20542567453E+02 -0.16512616686E+02  0.33661108943E+02  0.00000000000E+00 0.  1.
<mgrwt>
<rscale>  2 0.29332640E+02</rscale>
<asrwt>0</asrwt>
<pdfrwt beam="2">  1        2 0.56637340E-01 0.29332640E+02</pdfrwt>
<pdfrwt beam="1">  1       -2 0.14155786E-02 0.29332640E+02</pdfrwt>
<totfact> 0.79531016E+04</totfact>
</mgrwt>
</event>
<event>
 4    1  0.7653521E+003  0.3735890E+02  0.7546771E-02  0.1528598E+00
         -2   -1    0    0    0  501 -0.00000000000E+00  0.00000000000E+00  0.11725836350E+01  0.11725836350E+01  0.00000000000E+00 0. -1.
          2   -1    0    0  501    0  0.00000000000E+00 -0.00000000000E+00 -0.21107927717E+04  0.21107927717E+04  0.00000000000E+00 0.  1.
          2    1    1    2  502    0 -0.33235976328E+02 -0.17060410310E+02 -0.17521619279E+04  0.17525601585E+04  0.00000000000E+00 0.  1.
         -2    1    1    2    0  502  0.33235976328E+02  0.17060410310E+02 -0.35745826014E+03  0.35940519677E+03  0.00000000000E+00 0. -1.
<mgrwt>
<rscale>  2 0.37358904E+02</rscale>
<asrwt>0</asrwt>
<pdfrwt beam="2">  1        2 0.32473340E+00 0.37358904E+02</pdfrwt>
<pdfrwt beam="1">  1       -2 0.18039968E-03 0.37358904E+02</pdfrwt>
<totfact> 0.13031244E+05</totfact>
</mgrwt>
</event>
<event>
 4    1  0.7653521E+003  0.2042584E+02  0.7546771E-02  0.1736990E+00
          2   -1    0    0  501    0  0.00000000000E+00  0.00000000000E+00  0.87044302703E+02  0.87044302703E+02  0.00000000000E+00 0. -1.
         -2   -1    0    0    0  501 -0.00000000000E+00 -0.00000000000E+00 -0.53739646771E+01  0.53739646771E+01  0.00000000000E+00 0.  1.
          2    1    1    2  502    0 -0.20354651612E+02 -0.17037158268E+01  0.25643432615E+02  0.32784144432E+02  0.00000000000E+00 0.  1.
         -2    1    1    2    0  502  0.20354651612E+02  0.17037158268E+01  0.56026905411E+02  0.59634122948E+02  0.00000000000E+00 0. -1.
<mgrwt>
<rscale>  2 0.20425839E+02</rscale>
<asrwt>0</asrwt>
<pdfrwt beam="1">  1        2 0.13391430E-01 0.20425839E+02</pdfrwt>
<pdfrwt beam="2">  1       -2 0.82676386E-03 0.20425839E+02</pdfrwt>
<totfact> 0.66459408E+05</totfact>
</mgrwt>
</event>
<event>
 4    1  0.7653521E+003  0.3503921E+02  0.7546771E-02  0.1548253E+00
         -2   -1    0    0    0  501 -0.00000000000E+00  0.00000000000E+00  0.10256728368E+01  0.10256728368E+01  0.00000000000E+00 0. -1.
          2   -1    0    0  501    0  0.00000000000E+00 -0.00000000000E+00 -0.16032762203E+04  0.16032762203E+04  0.00000000000E+00 0. -1.
          2    1    1    2  502    0 -0.26248212129E+02 -0.23211580300E+02 -0.12049142307E+04  0.12054235975E+04  0.00000000000E+00 0. -1.
         -2    1    1    2    0  502  0.26248212129E+02  0.23211580300E+02 -0.39733631673E+03  0.39887829559E+03  0.00000000000E+00 0. -1.
<mgrwt>
<rscale>  2 0.35039208E+02</rscale>
<asrwt>0</asrwt>
<pdfrwt beam="2">  1        2 0.24665899E+00 0.35039208E+02</pdfrwt>
<pdfrwt beam="1">  1       -2 0.15779511E-03 0.35039208E+02</pdfrwt>
<totfact> 0.26987808E+05</totfact>
</mgrwt>
</event>
<event>
 4    1  0.7653521E+003  0.2418355E+02  0.7546771E-02  0.1673013E+00
          2   -1    0    0  501    0  0.00000000000E+00  0.00000000000E+00  0.15265195205E+01  0.15265195205E+01  0.00000000000E+00 0.  1.
         -2   -1    0    0    0  501 -0.00000000000E+00 -0.00000000000E+00 -0.38340165809E+03  0.38340165809E+03  0.00000000000E+00 0.  1.
          2    1    1    2  502    0 -0.63193282486E+01  0.23343302307E+02 -0.19613276719E+03  0.19761808126E+03  0.00000000000E+00 0.  1.
         -2    1    1    2    0  502  0.63193282486E+01 -0.23343302307E+02 -0.18574237138E+03  0.18731009636E+03  0.00000000000E+00 0.  1.
<mgrwt>
<rscale>  2 0.24183553E+02</rscale>
<asrwt>0</asrwt>
<pdfrwt beam="1">  1        2 0.23484942E-03 0.24183553E+02</pdfrwt>
<pdfrwt beam="2">  1       -2 0.58984805E-01 0.24183553E+02</pdfrwt>
<totfact> 0.17878042E+05</totfact>
</mgrwt>
</event>
<event>
 4    1  0.7653521E+003  0.2215007E+02  0.7546771E-02  0.1705669E+00
         -2   -1    0    0    0  501 -0.00000000000E+00  0.00000000000E+00  0.17039752230E+01  0.17039752230E+01  0.00000000000E+00 0.  1.
          2   -1    0    0  501    0  0.00000000000E+00 -0.00000000000E+00 -0.15824106380E+04  0.15824106380E+04  0.00000000000E+00 0. -1.
          2    1    1    2  502    0  0.40817965641E+01  0.21770726634E+02 -0.15067355302E+04  0.15068983322E+04  0.00000000000E+00 0. -1.
         -2    1    1    2    0  502 -0.40817965641E+01 -0.21770726634E+02 -0.73971132591E+02  0.77216281043E+02  0.00000000000E+00 0.  1.
<mgrwt>
<rscale>  2 0.22150070E+02</rscale>
<asrwt>0</asrwt>
<pdfrwt beam="2">  1        2 0.24344742E+00 0.22150070E+02</pdfrwt>
<pdfrwt beam="1">  1       -2 0.26215043E-03 0.22150070E+02</pdfrwt>
<totfact> 0.12791743E+05</totfact>
</mgrwt>
</event>
<event>
 4    1  0.7653521E+003  0.2292082E+02  0.7546771E-02  0.1692797E+00
         -2   -1    0    0    0  501 -0.00000000000E+00  0.00000000000E+00  0.20609713292E+02  0.20609713292E+02  0.00000000000E+00 0.  1.
          2   -1    0    0  501    0  0.00000000000E+00 -0.00000000000E+00 -0.28847083769E+02  0.28847083769E+02  0.00000000000E+00 0.  1.
          2    1    1    2  502    0 -0.18819211735E+02  0.13084375255E+02  0.43157696541E+01  0.23323581926E+02  0.00000000000E+00 0.  1.
         -2    1    1    2    0  502  0.18819211735E+02 -0.13084375255E+02 -0.12553140131E+02  0.26133215135E+02  0.00000000000E+00 0.  1.
<mgrwt>
<rscale>  2 0.22920823E+02</rscale>
<asrwt>0</asrwt>
<pdfrwt beam="2">  1        2 0.44380129E-02 0.22920823E+02</pdfrwt>
<pdfrwt beam="1">  1       -2 0.31707251E-02 0.22920823E+02</pdfrwt>
<totfact> 0.40378355E+05</totfact>
</mgrwt>
</event>
<event>
 4    1  0.7653521E+003  0.2131290E+02  0.7546771E-02  0.1720413E+00
         -2   -1    0    0    0  501 -0.00000000000E+00  0.00000000000E+00  0.22481691311E+02  0.22481691311E+02  0.00000000000E+00 0. -1.
          2   -1    0    0  501    0  0.00000000000E+00 -0.00000000000E+00 -0.44319501978E+03  0.44319501978E+03  0.00000000000E+00 0.  1.
          2    1    1    2  502    0 -0.11298465906E+02 -0.18071640771E+02 -0.43782566367E+03  0.43834410148E+03  0.00000000000E+00 0.  1.
         -2    1    1    2    0  502  0.11298465906E+02  0.18071640771E+02  0.17112335203E+02  0.27332609610E+02  0.00000000000E+00 0. -1.
<mgrwt>
<rscale>  2 0.21312896E+02</rscale>
<asrwt>0</asrwt>
<pdfrwt beam="2">  1        2 0.68183855E-01 0.21312896E+02</pdfrwt>
<pdfrwt beam="1">  1       -2 0.34587215E-02 0.21312896E+02</pdfrwt>
<totfact> 0.18134979E+04</totfact>
</mgrwt>
</event>
<event>
 4    1  0.7653521E+003  0.4873701E+02  0.7546771E-02  0.1452275E+00
          2   -1    0    0  501    0  0.00000000000E+00  0.00000000000E+00  0.67725987511E+02  0.67725987511E+02  0.00000000000E+00 0. -1.
         -2   -1    0    0    0  501 -0.00000000000E+00 -0.00000000000E+00 -0.36765213078E+02  0.36765213078E+02  0.00000000000E+00 0. -1.
          2    1    1    2  502    0  0.26529261607E+02 -0.40883918438E+02  0.26691966004E+02  0.55567594491E+02  0.00000000000E+00 0. -1.
         -2    1    1    2    0  502 -0.26529261607E+02  0.40883918438E+02  0.42688084282E+01  0.48923606098E+02  0.00000000000E+00 0. -1.
<mgrwt>
<rscale>  2 0.48737014E+02</rscale>
<asrwt>0</asrwt>
<pdfrwt beam="1">  1        2 0.10419383E-01 0.48737014E+02</pdfrwt>
<pdfrwt beam="2">  1       -2 0.56561866E-02 0.48737014E+02</pdfrwt>
<totfact> 0.75402241E+04</totfact>
</mgrwt>
</event>
<event>
 4    1  0.7653521E+003  0.2010589E+02  0.7546771E-02  0.1743230E+00
          2   -1    0    0  501    0  0.00000000000E+00  0.00000000000E+00  0.67585421760E+03  0.67585421760E+03  0.00000000000E+00 0. -1.
         -2   -1    0    0    0  501 -0.00000000000E+00 -0.00000000000E+00 -0.12628833091E+04  0.12628833091E+04  0.00000000000E+00 0.  1.
          2    1    1    2  502    0  0.19325107131E+02  0.55486048291E+01  0.67562463405E+03  0.67592373306E+03  0.00000000000E+00 0. -1.
         -2    1    1    2    0  502 -0.19325107131E+02 -0.55486048291E+01 -0.12626537256E+04  0.12628137937E+04  0.00000000000E+00 0.  1.
<mgrwt>
<rscale>  2 0.20105889E+02</rscale>
<asrwt>0</asrwt>
<pdfrwt beam="1">  1        2 0.10397757E+00 0.20105889E+02</pdfrwt>
<pdfrwt beam="2">  1       -2 0.19428974E+00 0.20105889E+02</pdfrwt>
<totfact> 0.88486371E+00</totfact>
</mgrwt>
</event>
<event>
 4    1  0.7653521E+003  0.2462467E+02  0.7546771E-02  0.1666452E+00
         -2   -1    0    0    0  501 -0.00000000000E+00  0.00000000000E+00  0.13572088954E+02  0.13572088954E+02  0.00000000000E+00 0. -1.
          2   -1    0    0  501    0  0.00000000000E+00 -0.00000000000E+00 -0.12165040721E+03  0.12165040721E+03  0.00000000000E+00 0. -1.
          2    1    1    2  502    0  0.24125679652E+02 -0.49321099763E+01 -0.10782025331E+03  0.11059647893E+03  0.00000000000E+00 0. -1.
         -2    1    1    2    0  502 -0.24125679652E+02  0.49321099763E+01 -0.25806494695E+00  0.24626017238E+02  0.00000000000E+00 0. -1.
<mgrwt>
<rscale>  2 0.24624665E+02</rscale>
<asrwt>0</asrwt>
<pdfrwt beam="2">  1        2 0.18715448E-01 0.24624665E+02</pdfrwt>
<pdfrwt beam="1">  1       -2 0.20880136E-02 0.24624665E+02</pdfrwt>
<totfact> 0.13849720E+05</totfact>
</mgrwt>
</event>
<event>
 4    1  0.7653521E+003  0.2109714E+02  0.7546771E-02  0.1724351E+00
         -2   -1    0    0    0  501 -0.00000000000E+00  0.00000000000E+00  0.26692498882E+02  0.26692498882E+02  0.00000000000E+00 0.  1.
          2   -1    0    0  501    0  0.00000000000E+00 -0.00000000000E+00 -0.36246008155E+02  0.36246008155E+02  0.00000000000E+00 0.  1.
          2    1    1    2  502    0  0.20732082980E+02 -0.39077010679E+01 -0.27900931616E+02  0.34979299269E+02  0.00000000000E+00 0.  1.
         -2    1    1    2    0  502 -0.20732082980E+02  0.39077010679E+01  0.18347422343E+02  0.27959207767E+02  0.00000000000E+00 0.  1.
<mgrwt>
<rscale>  2 0.21097142E+02</rscale>
<asrwt>0</asrwt>
<pdfrwt beam="2">  1        2 0.55763089E-02 0.21097142E+02</pdfrwt>
<pdfrwt beam="1">  1       -2 0.41065383E-02 0.21097142E+02</pdfrwt>
<totfact> 0.20767730E+05</totfact>
</mgrwt>
</event>
<event>
 4    1  0.7653521E+003  0.5816954E+02  0.7546771E-02  0.1405678E+00
          2   -1    0    0  501    0  0.00000000000E+00  0.00000000000E+00  0.41740263324E+01  0.41740263324E+01  0.00000000000E+00 0.  1.
         -2   -1    0    0    0  501 -0.00000000000E+00 -0.00000000000E+00 -0.82851285824E+03  0.82851285824E+03  0.00000000000E+00 0.  1.
          2    1    1    2  502    0  0.57753279458E+02  0.69464778094E+01 -0.35104451484E+03  0.35583134522E+03  0.00000000000E+00 0.  1.
         -2    1    1    2    0  502 -0.57753279458E+02 -0.69464778094E+01 -0.47329431706E+03  0.47685553934E+03  0.00000000000E+00 0.  1.
<mgrwt>
<rscale>  2 0.58169535E+02</rscale>
<asrwt>0</asrwt>
<pdfrwt beam="1">  1        2 0.64215792E-03 0.58169535E+02</pdfrwt>
<pdfrwt beam="2">  1       -2 0.12746351E+00 0.58169535E+02</pdfrwt>
<totfact> 0.10665926E+04</totfact>
</mgrwt>
</event>
<event>
 4    1  0.7653521E+003  0.3287213E+02  0.7546771E-02  0.1568351E+00
         -2   -1    0    0    0  501 -0.00000000000E+00  0.00000000000E+00  0.17337341188E+03  0.17337341188E+03  0.00000000000E+00 0.  1.
          2   -1    0    0  501    0  0.00000000000E+00 -0.00000000000E+00 -0.40144415797E+03  0.40144415797E+03  0.00000000000E+00 0.  1.
          2    1    1    2  502    0  0.29903433019E+02  0.13651426497E+02 -0.39920433552E+03  0.40055546214E+03  0.00000000000E+00 0.  1.
         -2    1    1    2    0  502 -0.29903433019E+02 -0.13651426497E+02  0.17113358943E+03  0.17426210771E+03  0.00000000000E+00 0.  1.
<mgrwt>
<rscale>  2 0.32872127E+02</rscale>
<asrwt>0</asrwt>
<pdfrwt beam="2">  1        2 0.61760639E-01 0.32872127E+02</pdfrwt>
<pdfrwt beam="1">  1       -2 0.26672833E-01 0.32872127E+02</pdfrwt>
<totfact> 0.95839026E+02</totfact>
</mgrwt>
</event>
<event>
 4    1  0.7653521E+003  0.2015859E+02  0.7546771E-02  0.1742193E+00
         -2   -1    0    0    0  501 -0.00000000000E+00  0.00000000000E+00  0.29053664217E+03  0.29053664217E+03  0.00000000000E+00 0. -1.
          2   -1    0    0  501    0  0.00000000000E+00 -0.00000000000E+00 -0.17121958817E+01  0.17121958817E+01  0.00000000000E+00 0. -1.
          2    1    1    2  502    0 -0.17146704915E+02  0.10599956780E+02  0.81884303331E+02  0.84329162840E+02  0.00000000000E+00 0. -1.
         -2    1    1    2    0  502  0.17146704915E+02 -0.10599956780E+02  0.20694014296E+03  0.20791967521E+03  0.00000000000E+00 0. -1.
<mgrwt>
<rscale>  2 0.20158586E+02</rscale>
<asrwt>0</asrwt>
<pdfrwt beam="2">  1        2 0.26341498E-03 0.20158586E+02</pdfrwt>
<pdfrwt beam="1">  1       -2 0.44697906E-01 0.20158586E+02</pdfrwt>
<totfact> 0.24614224E+05</totfact>
</mgrwt>
</event>
<event>
 4    1  0.7653521E+003  0.2117232E+02  0.7546771E-02  0.1722972E+00
          2   -1    0    0  501    0  0.00000000000E+00  0.00000000000E+00  0.65298955405E+03  0.65298955405E+03  0.00000000000E+00 0. -1.
         -2   -1    0    0    0  501 -0.00000000000E+00 -0.00000000000E+00 -0.68717786555E+01  0.68717786555E+01  0.00000000000E+00 0.  1.
          2    1    1    2  502    0 -0.18259605652E+02  0.10716984214E+02  0.63607615535E+03  0.63642842673E+03  0.00000000000E+00 0. -1.
         -2    1    1    2    0  502  0.18259605652E+02 -0.10716984214E+02  0.10041620045E+02  0.23432905973E+02  0.00000000000E+00 0.  1.
<mgrwt>
<rscale>  2 0.21172316E+02</rscale>
<asrwt>0</asrwt>
<pdfrwt beam="1">  1        2 0.10045988E+00 0.21172316E+02</pdfrwt>
<pdfrwt beam="2">  1       -2 0.10571972E-02 0.21172316E+02</pdfrwt>
<totfact> 0.61715567E+04</totfact>
</mgrwt>
</event>
<event>
 4    1  0.7653521E+003  0.3417602E+02  0.7546771E-02  0.1556042E+00
         -2   -1    0    0    0  501 -0.00000000000E+00  0.00000000000E+00  0.23135285064E+02  0.23135285064E+02  0.00000000000E+00 0. -1.
          2   -1    0    0  501    0  0.00000000000E+00 -0.00000000000E+00 -0.73599918858E+03  0.73599918858E+03  0.00000000000E+00 0.  1.
          2    1    1    2  502    0 -0.27041788552E+02  0.20898368734E+02 -0.72274978814E+03  0.72355736220E+03  0.00000000000E+00 0.  1.
         -2    1    1    2    0  502  0.27041788552E+02 -0.20898368734E+02  0.98858846214E+01  0.35577111442E+02  0.00000000000E+00 0. -1.
<mgrwt>
<rscale>  2 0.34176017E+02</rscale>
<asrwt>0</asrwt>
<pdfrwt beam="2">  1        2 0.11323066E+00 0.34176017E+02</pdfrwt>
<pdfrwt beam="1">  1       -2 0.35592742E-02 0.34176017E+02</pdfrwt>
<totfact> 0.10933207E+04</totfact>
</mgrwt>
</event>
<event>
 4    1  0.7653521E+003  0.3115904E+02  0.7546771E-02  0.1585619E+00
          2   -1    0    0  501    0  0.00000000000E+00  0.00000000000E+00  0.25349040727E+04  0.25349040727E+04  0.00000000000E+00 0.  1.
         -2   -1    0    0    0  501 -0.00000000000E+00 -0.00000000000E+00 -0.66358859782E+00  0.66358859782E+00  0.00000000000E+00 0.  1.
          2    1    1    2  502    0 -0.10662896344E+02 -0.29277780812E+02  0.20914963620E+04  0.20917284523E+04  0.00000000000E+00 0.  1.
         -2    1    1    2    0  502  0.10662896344E+02  0.29277780812E+02  0.44274412206E+03  0.44383920898E+03  0.00000000000E+00 0.  1.
<mgrwt>
<rscale>  2 0.31159041E+02</rscale>
<asrwt>0</asrwt>
<pdfrwt beam="1">  1        2 0.38997749E+00 0.31159041E+02</pdfrwt>
<pdfrwt beam="2">  1       -2 0.10209258E-03 0.31159041E+02</pdfrwt>
<totfact> 0.16817099E+05</totfact>
</mgrwt>
</event>
<event>
 4    1  0.7653521E+003  0.2015110E+02  0.7546771E-02  0.1742340E+00
         -2   -1    0    0    0  501 -0.00000000000E+00  0.00000000000E+00  0.51300051677E+02  0.51300051677E+02  0.00000000000E+00 0.  1.
          2   -1    0    0  501    0  0.00000000000E+00 -0.00000000000E+00 -0.79953045531E+01  0.79953045531E+01  0.00000000000E+00 0. -1.
          2    1    1    2  502    0  0.15509476808E+02 -0.12865576662E+02  0.18690857514E+02  0.27484815596E+02  0.00000000000E+00 0. -1.
         -2    1    1    2    0  502 -0.15509476808E+02  0.12865576662E+02  0.24613889609E+02  0.31810540634E+02  0.00000000000E+00 0.  1.
<mgrwt>
<rscale>  2 0.20151103E+02</rscale>
<asrwt>0</asrwt>
<pdfrwt beam="2">  1        2 0.12300469E-02 0.20151103E+02</pdfrwt>
<pdfrwt beam="1">  1       -2 0.78923154E-02 0.20151103E+02</pdfrwt>
<totfact> 0.53961337E+05</totfact>
</mgrwt>
</event>
<event>
 4    1  0.7653521E+003  0.2107799E+02  0.7546771E-02  0.1724703E+00
         -2   -1    0    0    0  501 -0.00000000000E+00  0.00000000000E+00  0.36676215373E+01  0.36676215373E+01  0.00000000000E+00 0. -1.
          2   -1    0    0  501    0  0.00000000000E+00 -0.00000000000E+00 -0.79262631422E+03  0.79262631422E+03  0.00000000000E+00 0.  1.
          2    1    1    2  502    0 -0.13326765644E+02 -0.16330313573E+02 -0.76094136825E+03  0.76123324135E+03  0.00000000000E+00 0.  1.
         -2    1    1    2    0  502  0.13326765644E+02  0.16330313573E+02 -0.28017324435E+02  0.35060694408E+02  0.00000000000E+00 0. -1.
<mgrwt>
<rscale>  2 0.21077994E+02</rscale>
<asrwt>0</asrwt>
<pdfrwt beam="2">  1        2 0.12194259E+00 0.21077994E+02</pdfrwt>
<pdfrwt beam="1">  1       -2 0.56424907E-03 0.21077994E+02</pdfrwt>
<totfact> 0.11599923E+05</totfact>
</mgrwt>
</event>
<event>
 4    1  0.7653521E+003  0.2736288E+02  0.7546771E-02  0.1629212E+00
          2   -1    0    0  501    0  0.00000000000E+00  0.00000000000E+00  0.50388429795E+03  0.50388429795E+03  0.00000000000E+00 0. -1.
         -2   -1    0    0    0  501 -0.00000000000E+00 -0.00000000000E+00 -0.19947724283E+02  0.19947724283E+02  0.00000000000E+00 0. -1.
          2    1    1    2  502    0 -0.21130355784E+02  0.17384917850E+02  0.49394043864E+03  0.49469777060E+03  0.00000000000E+00 0. -1.
         -2    1    1    2    0  502  0.21130355784E+02 -0.17384917850E+02 -0.10003864974E+02  0.29134251641E+02  0.00000000000E+00 0. -1.
<mgrwt>
<rscale>  2 0.27362882E+02</rscale>
<asrwt>0</asrwt>
<pdfrwt beam="1">  1        2 0.77520652E-01 0.27362882E+02</pdfrwt>
<pdfrwt beam="2">  1       -2 0.30688810E-02 0.27362882E+02</pdfrwt>
<totfact> 0.19602848E+04</totfact>
</mgrwt>
</event>
<event>
 4    1  0.7653521E+003  0.3725688E+02  0.7546771E-02  0.1529426E+00
         -2   -1    0    0    0  501 -0.00000000000E+00  0.00000000000E+00  0.23361037584E+01  0.23361037584E+01  0.00000000000E+00 0.  1.
          2   -1    0    0  501    0  0.00000000000E+00 -0.00000000000E+00 -0.12488280596E+04  0.12488280596E+04  0.00000000000E+00 0. -1.
          2    1    1    2  502    0  0.28503016968E+02  0.23992765776E+02 -0.10761807785E+04  0.10768254932E+04  0.00000000000E+00 0. -1.
         -2    1    1    2    0  502 -0.28503016968E+02 -0.23992765776E+02 -0.17031117730E+03  0.17433867012E+03  0.00000000000E+00 0.  1.
<mgrwt>
<rscale>  2 0.37256876E+02</rscale>
<asrwt>0</asrwt>
<pdfrwt beam="2">  1        2 0.19212789E+00 0.37256876E+02</pdfrwt>
<pdfrwt beam="1">  1       -2 0.35939964E-03 0.37256876E+02</pdfrwt>
<totfact> 0.13425904E+05</totfact>
</mgrwt>
</event>
<event>
 4    1  0.7653521E+003  0.4327454E+02  0.7546771E-02  0.1485410E+00
          2   -1    0    0  501    0  0.00000000000E+00  0.00000000000E+00  0.24952605386E+03  0.24952605386E+03  0.00000000000E+00 0. -1.
         -2   -1    0    0    0  501 -0.00000000000E+00 -0.00000000000E+00 -0.24314522397E+03  0.24314522397E+03  0.00000000000E+00 0.  1.
          2    1    1    2  502    0  0.42964063608E+02  0.51744256377E+01  0.24569453321E+03  0.24947642993E+03  0.00000000000E+00 0. -1.
         -2    1    1    2    0  502 -0.42964063608E+02 -0.51744256377E+01 -0.23931370332E+03  0.24319484789E+03  0.00000000000E+00 0.  1.
<mgrwt>
<rscale>  2 0.43274536E+02</rscale>
<asrwt>0</asrwt>
<pdfrwt beam="1">  1        2 0.38388624E-01 0.43274536E+02</pdfrwt>
<pdfrwt beam="2">  1       -2 0.37406957E-01 0.43274536E+02</pdfrwt>
<totfact> 0.86519482E+02</totfact>
</mgrwt>
</event>
<event>
 4    1  0.7653521E+003  0.2188487E+02  0.7546771E-02  0.1710251E+00
          2   -1    0    0  501    0  0.00000000000E+00  0.00000000000E+00  0.37634440369E+03  0.37634440369E+03  0.00000000000E+00 0.  1.
         -2   -1    0    0    0  501 -0.00000000000E+00 -0.00000000000E+00 -0.25304447994E+02  0.25304447994E+02  0.00000000000E+00 0. -1.
          2    1    1    2  502    0  0.20936288522E+02  0.63733340638E+01  0.37122925097E+03  0.37187377474E+03  0.00000000000E+00 0.  1.
         -2    1    1    2    0  502 -0.20936288522E+02 -0.63733340638E+01 -0.20189295266E+02  0.29775076952E+02  0.00000000000E+00 0. -1.
<mgrwt>
<rscale>  2 0.21884871E+02</rscale>
<asrwt>0</asrwt>
<pdfrwt beam="1">  1        2 0.57899135E-01 0.21884871E+02</pdfrwt>
<pdfrwt beam="2">  1       -2 0.38929923E-02 0.21884871E+02</pdfrwt>
<totfact> 0.18144567E+04</totfact>
</mgrwt>
</event>
<event>
 4    1  0.7653521E+003  0.2521120E+02  0.7546771E-02  0.1657987E+00
         -2   -1    0    0    0  501 -0.00000000000E+00  0.00000000000E+00  0.91227784520E+01  0.91227784520E+01  0.00000000000E+00 0. -1.
          2   -1    0    0  501    0  0.00000000000E+00 -0.00000000000E+00 -0.17081978450E+03  0.17081978450E+03  0.00000000000E+00 0. -1.
          2    1    1    2  502    0 -0.22517632931E+02 -0.11338458195E+02 -0.15008139759E+03  0.15218419868E+03  0.00000000000E+00 0. -1.
         -2    1    1    2    0  502  0.22517632931E+02  0.11338458195E+02 -0.11615608463E+02  0.27758364271E+02  0.00000000000E+00 0. -1.
<mgrwt>
<rscale>  2 0.25211196E+02</rscale>
<asrwt>0</asrwt>
<pdfrwt beam="2">  1        2 0.26279966E-01 0.25211196E+02</pdfrwt>
<pdfrwt beam="1">  1       -2 0.14035044E-02 0.25211196E+02</pdfrwt>
<totfact> 0.16815260E+05</totfact>
</mgrwt>
</event>
<event>
 4    1  0.7653521E+003  0.2034264E+02  0.7546771E-02  0.1738599E+00
         -2   -1    0    0    0  501 -0.00000000000E+00  0.00000000000E+00  0.28964116158E+03  0.28964116158E+03  0.00000000000E+00 0. -1.
          2   -1    0    0  501    0  0.00000000000E+00 -0.00000000000E+00 -0.47937544176E+03  0.47937544176E+03  0.00000000000E+00 0. -1.
          2    1    1    2  502    0 -0.20255513213E+02 -0.18807022547E+01 -0.47880201482E+03  0.47923396400E+03  0.00000000000E+00 0. -1.
         -2    1    1    2    0  502  0.20255513213E+02  0.18807022547E+01  0.28906773463E+03  0.28978263934E+03  0.00000000000E+00 0. -1.
<mgrwt>
<rscale>  2 0.20342636E+02</rscale>
<asrwt>0</asrwt>
<pdfrwt beam="2">  1        2 0.73750067E-01 0.20342636E+02</pdfrwt>
<pdfrwt beam="1">  1       -2 0.44560179E-01 0.20342636E+02</pdfrwt>
<totfact> 0.31810978E+02</totfact>
</mgrwt>
</event>
<event>
 4    1  0.7653521E+003  0.2407148E+02  0.7546771E-02  0.1674708E+00
         -2   -1    0    0    0  501 -0.00000000000E+00  0.00000000000E+00  0.74737459318E+02  0.74737459318E+02  0.00000000000E+00 0. -1.
          2   -1    0    0  501    0  0.00000000000E+00 -0.00000000000E+00 -0.10128911207E+02  0.10128911207E+02  0.00000000000E+00 0. -1.
          2    1    1    2  502    0  0.28337915517E+01 -0.23904095064E+02  0.11752775448E+02  0.26787382592E+02  0.00000000000E+00 0. -1.
         -2    1    1    2    0  502 -0.28337915517E+01  0.23904095064E+02  0.52855772664E+02  0.58078987933E+02  0.00000000000E+00 0. -1.
<mgrwt>
<rscale>  2 0.24071480E+02</rscale>
<asrwt>0</asrwt>
<pdfrwt beam="2">  1        2 0.15582941E-02 0.24071480E+02</pdfrwt>
<pdfrwt beam="1">  1       -2 0.11498070E-01 0.24071480E+02</pdfrwt>
<totfact> 0.24096839E+05</totfact>
</mgrwt>
</event>
<event>
 4    1  0.7653521E+003  0.2042835E+02  0.7546771E-02  0.1736941E+00
         -2   -1    0    0    0  501 -0.00000000000E+00  0.00000000000E+00  0.24006963612E+02  0.24006963612E+02  0.00000000000E+00 0. -1.
          2   -1    0    0  501    0  0.00000000000E+00 -0.00000000000E+00 -0.28417127275E+02  0.28417127275E+02  0.00000000000E+00 0. -1.
          2    1    1    2  502    0 -0.19751900074E+02  0.52134567622E+01 -0.18538459995E+02  0.27586086836E+02  0.00000000000E+00 0. -1.
         -2    1    1    2    0  502  0.19751900074E+02 -0.52134567622E+01  0.14128296332E+02  0.24838004050E+02  0.00000000000E+00 0. -1.
<mgrwt>
<rscale>  2 0.20428355E+02</rscale>
<asrwt>0</asrwt>
<pdfrwt beam="2">  1        2 0.43718657E-02 0.20428355E+02</pdfrwt>
<pdfrwt beam="1">  1       -2 0.36933790E-02 0.20428355E+02</pdfrwt>
<totfact> 0.32092629E+05</totfact>
</mgrwt>
</event>
<event>
 4    1  0.7653521E+003  0.2306094E+02  0.7546771E-02  0.1690524E+00
          2   -1    0    0  501    0  0.00000000000E+00  0.00000000000E+00  0.63274278362E+03  0.63274278362E+03  0.00000000000E+00 0. -1.
         -2   -1    0    0    0  501 -0.00000000000E+00 -0.00000000000E+00 -0.83538929739E+01  0.83538929739E+01  0.00000000000E+00 0.  1.
          2    1    1    2  502    0 -0.78040169954E+01 -0.21700326854E+02  0.61619035672E+03  0.61662173379E+03  0.00000000000E+00 0. -1.
         -2    1    1    2    0  502  0.78040169954E+01  0.21700326854E+02  0.81985339287E+01  0.24474942807E+02  0.00000000000E+00 0.  1.
<mgrwt>
<rscale>  2 0.23060938E+02</rscale>
<asrwt>0</asrwt>
<pdfrwt beam="1">  1        2 0.97345006E-01 0.23060938E+02</pdfrwt>
<pdfrwt beam="2">  1       -2 0.12852148E-02 0.23060938E+02</pdfrwt>
<totfact> 0.49836599E+04</totfact>
</mgrwt>
</event>
<event>
 4    1  0.7653521E+003  0.5681594E+02  0.7546771E-02  0.1411701E+00
          2   -1    0    0  501    0  0.00000000000E+00  0.00000000000E+00  0.75459161263E+02  0.75459161263E+02  0.00000000000E+00 0. -1.
         -2   -1    0    0    0  501 -0.00000000000E+00 -0.00000000000E+00 -0.73953183966E+02  0.73953183966E+02  0.00000000000E+00 0. -1.
          2    1    1    2  502    0  0.50013697372E+02  0.26957016201E+02  0.49256943113E+02  0.75195060291E+02  0.00000000000E+00 0. -1.
         -2    1    1    2    0  502 -0.50013697372E+02 -0.26957016201E+02 -0.47750965816E+02  0.74217284938E+02  0.00000000000E+00 0. -1.
<mgrwt>
<rscale>  2 0.56815937E+02</rscale>
<asrwt>0</asrwt>
<pdfrwt beam="1">  1        2 0.11609102E-01 0.56815937E+02</pdfrwt>
<pdfrwt beam="2">  1       -2 0.11377413E-01 0.56815937E+02</pdfrwt>
<totfact> 0.23743276E+04</totfact>
</mgrwt>
</event>
<event>
 4    1  0.7653521E+003  0.2041419E+02  0.7546771E-02  0.1737215E+00
          2   -1    0    0  501    0  0.00000000000E+00  0.00000000000E+00  0.14984462968E+04  0.14984462968E+04  0.00000000000E+00 0.  1.
         -2   -1    0    0    0  501 -0.00000000000E+00 -0.00000000000E+00 -0.10627610279E+02  0.10627610279E+02  0.00000000000E+00 0. -1.
          2    1    1    2  502    0  0.83307233092E+00 -0.20397186458E+02  0.14885080986E+04  0.14886480776E+04  0.00000000000E+00 0.  1.
         -2    1    1    2    0  502 -0.83307233092E+00  0.20397186458E+02 -0.68941202237E+00  0.20425829576E+02  0.00000000000E+00 0. -1.
<mgrwt>
<rscale>  2 0.20414192E+02</rscale>
<asrwt>0</asrwt>
<pdfrwt beam="1">  1        2 0.23053003E+00 0.20414192E+02</pdfrwt>
<pdfrwt beam="2">  1       -2 0.16350182E-02 0.20414192E+02</pdfrwt>
<totfact> 0.11873663E+04</totfact>
</mgrwt>
</event>
<event>
 4    1  0.7653521E+003  0.2465008E+02  0.7546771E-02  0.1666079E+00
          2   -1    0    0  501    0  0.00000000000E+00  0.00000000000E+00  0.13392939477E+04  0.13392939477E+04  0.00000000000E+00 0.  1.
         -2   -1    0    0    0  501 -0.00000000000E+00 -0.00000000000E+00 -0.93846923640E+00  0.93846923640E+00  0.00000000000E+00 0.  1.
          2    1    1    2  502    0 -0.88694711810E+01  0.22999102927E+02  0.11508054252E+04  0.11510693954E+04  0.00000000000E+00 0.  1.
         -2    1    1    2    0  502  0.88694711810E+01 -0.22999102927E+02  0.18755005328E+03  0.18916302159E+03  0.00000000000E+00 0.  1.
<mgrwt>
<rscale>  2 0.24650076E+02</rscale>
<asrwt>0</asrwt>
<pdfrwt beam="1">  1        2 0.20604369E+00 0.24650076E+02</pdfrwt>
<pdfrwt beam="2">  1       -2 0.14438095E-03 0.24650076E+02</pdfrwt>
<totfact> 0.37687586E+05</totfact>
</mgrwt>
</event>
<event>
 4    1  0.7653521E+003  0.2264456E+02  0.7546771E-02  0.1697337E+00
          2   -1    0    0  501    0  0.00000000000E+00  0.00000000000E+00  0.17028716651E+03  0.17028716651E+03  0.00000000000E+00 0. -1.
         -2   -1    0    0    0  501 -0.00000000000E+00 -0.00000000000E+00 -0.55281003373E+01  0.55281003373E+01  0.00000000000E+00 0. -1.
          2    1    1    2  502    0  0.66315174186E+01 -0.21651767245E+02  0.14169499605E+03  0.14349302406E+03  0.00000000000E+00 0. -1.
         -2    1    1    2    0  502 -0.66315174186E+01  0.21651767245E+02  0.23064070117E+02  0.32322242783E+02  0.00000000000E+00 0. -1.
<mgrwt>
<rscale>  2 0.22644559E+02</rscale>
<asrwt>0</asrwt>
<pdfrwt beam="1">  1        2 0.26198022E-01 0.22644559E+02</pdfrwt>
<pdfrwt beam="2">  1       -2 0.85047710E-03 0.22644559E+02</pdfrwt>
<totfact> 0.32326019E+05</totfact>
</mgrwt>
</event>
<event>
 4    1  0.7653521E+003  0.2353317E+02  0.7546771E-02  0.1683011E+00
         -2   -1    0    0    0  501 -0.00000000000E+00  0.00000000000E+00  0.33108977670E+01  0.33108977670E+01  0.00000000000E+00 0.  1.
          2   -1    0    0  501    0  0.00000000000E+00 -0.00000000000E+00 -0.12541778143E+04  0.12541778143E+04  0.00000000000E+00 0.  1.
          2    1    1    2  502    0  0.95755132370E+01  0.21496970881E+02 -0.12107504325E+04  0.12109791163E+04  0.00000000000E+00 0.  1.
         -2    1    1    2    0  502 -0.95755132370E+01 -0.21496970881E+02 -0.40116483997E+02  0.46509595774E+02  0.00000000000E+00 0.  1.
<mgrwt>
<rscale>  2 0.23533173E+02</rscale>
<asrwt>0</asrwt>
<pdfrwt beam="2">  1        2 0.19295045E+00 0.23533173E+02</pdfrwt>
<pdfrwt beam="1">  1       -2 0.50936885E-03 0.23533173E+02</pdfrwt>
<totfact> 0.76584013E+04</totfact>
</mgrwt>
</event>
<event>
 4    1  0.7653521E+003  0.2350811E+02  0.7546771E-02  0.1683404E+00
          2   -1    0    0  501    0  0.00000000000E+00  0.00000000000E+00  0.85087412761E+00  0.85087412761E+00  0.00000000000E+00 0. -1.
         -2   -1    0    0    0  501 -0.00000000000E+00 -0.00000000000E+00 -0.73878859067E+03  0.73878859067E+03  0.00000000000E+00 0. -1.
          2    1    1    2  502    0 -0.87166070279E+01  0.21832360814E+02 -0.24039255827E+03  0.24153925827E+03  0.00000000000E+00 0. -1.
         -2    1    1    2    0  502  0.87166070279E+01 -0.21832360814E+02 -0.49754515828E+03  0.49810020653E+03  0.00000000000E+00 0. -1.
<mgrwt>
<rscale>  2 0.23508110E+02</rscale>
<asrwt>0</asrwt>
<pdfrwt beam="1">  1        2 0.13090328E-03 0.23508110E+02</pdfrwt>
<pdfrwt beam="2">  1       -2 0.11366016E+00 0.23508110E+02</pdfrwt>
<totfact> 0.94827301E+04</totfact>
</mgrwt>
</event>
<event>
 4    1  0.7653521E+003  0.2192401E+02  0.7546771E-02  0.1709570E+00
         -2   -1    0    0    0  501 -0.00000000000E+00  0.00000000000E+00  0.54240776483E+02  0.54240776483E+02  0.00000000000E+00 0.  1.
          2   -1    0    0  501    0  0.00000000000E+00 -0.00000000000E+00 -0.62677687383E+02  0.62677687383E+02  0.00000000000E+00 0. -1.
          2    1    1    2  502    0  0.14869412937E+02 -0.16110949206E+02 -0.58387668922E+02  0.62368116916E+02  0.00000000000E+00 0. -1.
         -2    1    1    2    0  502 -0.14869412937E+02  0.16110949206E+02  0.49950758022E+02  0.54550346951E+02  0.00000000000E+00 0.  1.
<mgrwt>
<rscale>  2 0.21924008E+02</rscale>
<asrwt>0</asrwt>
<pdfrwt beam="2">  1        2 0.96427212E-02 0.21924008E+02</pdfrwt>
<pdfrwt beam="1">  1       -2 0.83447348E-02 0.21924008E+02</pdfrwt>
<totfact> 0.39803812E+04</totfact>
</mgrwt>
</event>
<event>
 4    1  0.7653521E+003  0.2235742E+02  0.7546771E-02  0.1702143E+00
         -2   -1    0    0    0  501 -0.00000000000E+00  0.00000000000E+00  0.10636897510E+02  0.10636897510E+02  0.00000000000E+00 0. -1.
          2   -1    0    0  501    0  0.00000000000E+00 -0.00000000000E+00 -0.54139297812E+02  0.54139297812E+02  0.00000000000E+00 0. -1.
          2    1    1    2  502    0 -0.74053680937E+01 -0.21095376252E+02 -0.33518720709E+02  0.40290929671E+02  0.00000000000E+00 0. -1.
         -2    1    1    2    0  502  0.74053680937E+01  0.21095376252E+02 -0.99836795930E+01  0.24485265651E+02  0.00000000000E+00 0. -1.
<mgrwt>
<rscale>  2 0.22357423E+02</rscale>
<asrwt>0</asrwt>
<pdfrwt beam="2">  1        2 0.83291227E-02 0.22357423E+02</pdfrwt>
<pdfrwt beam="1">  1       -2 0.16364458E-02 0.22357423E+02</pdfrwt>
<totfact> 0.46680026E+05</totfact>
</mgrwt>
</event>
<event>
 4    1  0.7653521E+003  0.2276299E+02  0.7546771E-02  0.1695381E+00
          2   -1    0    0  501    0  0.00000000000E+00  0.00000000000E+00  0.10772875949E+04  0.10772875949E+04  0.00000000000E+00 0.  1.
         -2   -1    0    0    0  501 -0.00000000000E+00 -0.00000000000E+00 -0.68349462228E+01  0.68349462228E+01  0.00000000000E+00 0.  1.
          2    1    1    2  502    0  0.16964094812E+02 -0.15178044096E+02  0.10578670964E+04  0.10581119728E+04  0.00000000000E+00 0.  1.
         -2    1    1    2    0  502 -0.16964094812E+02  0.15178044096E+02  0.12585552348E+02  0.26010568300E+02  0.00000000000E+00 0.  1.
<mgrwt>
<rscale>  2 0.22762986E+02</rscale>
<asrwt>0</asrwt>
<pdfrwt beam="1">  1        2 0.16573642E+00 0.22762986E+02</pdfrwt>
<pdfrwt beam="2">  1       -2 0.10515310E-02 0.22762986E+02</pdfrwt>
<totfact> 0.35276547E+04</totfact>
</mgrwt>
</event>
<event>
 4    1  0.7653521E+003  0.2655275E+02  0.7546771E-02  0.1639651E+00
         -2   -1    0    0    0  501 -0.00000000000E+00  0.00000000000E+00  0.20124009771E+01  0.20124009771E+01  0.00000000000E+00 0. -1.
          2   -1    0    0  501    0  0.00000000000E+00 -0.00000000000E+00 -0.16553577834E+04  0.16553577834E+04  0.00000000000E+00 0.  1.
          2    1    1    2  502    0 -0.19154872775E+02 -0.18388561104E+02 -0.15624558410E+04  0.15626814466E+04  0.00000000000E+00 0.  1.
         -2    1    1    2    0  502  0.19154872775E+02  0.18388561104E+02 -0.90889541440E+02  0.94688737839E+02  0.00000000000E+00 0. -1.
<mgrwt>
<rscale>  2 0.26552746E+02</rscale>
<asrwt>0</asrwt>
<pdfrwt beam="2">  1        2 0.25467066E+00 0.26552746E+02</pdfrwt>
<pdfrwt beam="1">  1       -2 0.30959987E-03 0.26552746E+02</pdfrwt>
<totfact> 0.98044560E+04</totfact>
</mgrwt>
</event>
<event>
 4    1  0.7653521E+003  0.2008881E+02  0.7546771E-02  0.1743568E+00
         -2   -1    0    0    0  501 -0.00000000000E+00  0.00000000000E+00  0.40317586385E+02  0.40317586385E+02  0.00000000000E+00 0. -1.
          2   -1    0    0  501    0  0.00000000000E+00 -0.00000000000E+00 -0.92940903837E+03  0.92940903837E+03  0.00000000000E+00 0. -1.
          2    1    1    2  502    0 -0.14881819157E+02 -0.13494134872E+02 -0.92679103426E+03  0.92700872779E+03  0.00000000000E+00 0. -1.
         -2    1    1    2    0  502  0.14881819157E+02  0.13494134872E+02  0.37699582274E+02  0.42717896964E+02  0.00000000000E+00 0. -1.
<mgrwt>
<rscale>  2 0.20088808E+02</rscale>
<asrwt>0</asrwt>
<pdfrwt beam="2">  1        2 0.14298601E+00 0.20088808E+02</pdfrwt>
<pdfrwt beam="1">  1       -2 0.62027053E-02 0.20088808E+02</pdfrwt>
<totfact> 0.35878245E+03</totfact>
</mgrwt>
</event>
<event>
 4    1  0.7653521E+003  0.4748157E+02  0.7546771E-02  0.1459419E+00
         -2   -1    0    0    0  501 -0.00000000000E+00  0.00000000000E+00  0.68482116453E+02  0.68482116453E+02  0.00000000000E+00 0.  1.
          2   -1    0    0  501    0  0.00000000000E+00 -0.00000000000E+00 -0.59755631734E+03  0.59755631734E+03  0.00000000000E+00 0.  1.
          2    1    1    2  502    0 -0.83038383010E+01  0.46749822707E+02 -0.58825289845E+03  0.59016605476E+03  0.00000000000E+00 0.  1.
         -2    1    1    2    0  502  0.83038383010E+01 -0.46749822707E+02  0.59178697569E+02  0.75872379030E+02  0.00000000000E+00 0.  1.
<mgrwt>
<rscale>  2 0.47481572E+02</rscale>
<asrwt>0</asrwt>
<pdfrwt beam="2">  1        2 0.91931739E-01 0.47481572E+02</pdfrwt>
<pdfrwt beam="1">  1       -2 0.10535710E-01 0.47481572E+02</pdfrwt>
<totfact> 0.28738723E+03</totfact>
</mgrwt>
</event>
<event>
 4    1  0.7653521E+003  0.2195514E+02  0.7546771E-02  0.1709029E+00
          2   -1    0    0  501    0  0.00000000000E+00  0.00000000000E+00  0.21502212168E+03  0.21502212168E+03  0.00000000000E+00 0. -1.
         -2   -1    0    0    0  501 -0.00000000000E+00 -0.00000000000E+00 -0.43081646542E+02  0.43081646542E+02  0.00000000000E+00 0. -1.
          2    1    1    2  502    0 -0.42802192511E+01 -0.21533872969E+02  0.21161965143E+03  0.21275550482E+03  0.00000000000E+00 0. -1.
         -2    1    1    2    0  502  0.42802192511E+01  0.21533872969E+02 -0.39679176292E+02  0.45348263397E+02  0.00000000000E+00 0. -1.
<mgrwt>
<rscale>  2 0.21955135E+02</rscale>
<asrwt>0</asrwt>
<pdfrwt beam="1">  1        2 0.33080326E-01 0.21955135E+02</pdfrwt>
<pdfrwt beam="2">  1       -2 0.66279457E-02 0.21955135E+02</pdfrwt>
<totfact> 0.14819435E+04</totfact>
</mgrwt>
</event>
<event>
 4    1  0.7653521E+003  0.3829693E+02  0.7546771E-02  0.1521132E+00
         -2   -1    0    0    0  501 -0.00000000000E+00  0.00000000000E+00  0.85377265709E+02  0.85377265709E+02  0.00000000000E+00 0.  1.
          2   -1    0    0  501    0  0.00000000000E+00 -0.00000000000E+00 -0.19932945461E+04  0.19932945461E+04  0.00000000000E+00 0.  1.
          2    1    1    2  502    0  0.13297526222E+02 -0.35914210870E+02 -0.19888062774E+04  0.19891749706E+04  0.00000000000E+00 0.  1.
         -2    1    1    2    0  502 -0.13297526222E+02  0.35914210870E+02  0.80888997004E+02  0.89496841186E+02  0.00000000000E+00 0.  1.
<mgrwt>
<rscale>  2 0.38296929E+02</rscale>
<asrwt>0</asrwt>
<pdfrwt beam="2">  1        2 0.30666068E+00 0.38296929E+02</pdfrwt>
<pdfrwt beam="1">  1       -2 0.13134965E-01 0.38296929E+02</pdfrwt>
<totfact> 0.35525688E+02</totfact>
</mgrwt>
</event>
<event>
 4    1  0.7653521E+003  0.4239982E+02  0.7546771E-02  0.1491259E+00
         -2   -1    0    0    0  501 -0.00000000000E+00  0.00000000000E+00  0.21187808373E+01  0.21187808373E+01  0.00000000000E+00 0. -1.
          2   -1    0    0  501    0  0.00000000000E+00 -0.00000000000E+00 -0.98887242598E+03  0.98887242598E+03  0.00000000000E+00 0. -1.
          2    1    1    2  502    0  0.24574378838E+02  0.34552056092E+02 -0.68007514185E+03  0.68139558498E+03  0.00000000000E+00 0. -1.
         -2    1    1    2    0  502 -0.24574378838E+02 -0.34552056092E+02 -0.30667850329E+03  0.30959562183E+03  0.00000000000E+00 0. -1.
<mgrwt>
<rscale>  2 0.42399819E+02</rscale>
<asrwt>0</asrwt>
<pdfrwt beam="2">  1        2 0.15213431E+00 0.42399819E+02</pdfrwt>
<pdfrwt beam="1">  1       -2 0.32596610E-03 0.42399819E+02</pdfrwt>
<totfact> 0.21635032E+05</totfact>
</mgrwt>
</event>
<event>
 4    1  0.7653521E+003  0.3178508E+02  0.7546771E-02  0.1579156E+00
          2   -1    0    0  501    0  0.00000000000E+00  0.00000000000E+00  0.10672592498E+04  0.10672592498E+04  0.00000000000E+00 0.  1.
         -2   -1    0    0    0  501 -0.00000000000E+00 -0.00000000000E+00 -0.17570716937E+01  0.17570716937E+01  0.00000000000E+00 0. -1.
          2    1    1    2  502    0  0.23694768498E+02 -0.21186068312E+02  0.89576437085E+03  0.89632812052E+03  0.00000000000E+00 0.  1.
         -2    1    1    2    0  502 -0.23694768498E+02  0.21186068312E+02  0.16973780730E+03  0.17268820102E+03  0.00000000000E+00 0. -1.
<mgrwt>
<rscale>  2 0.31785084E+02</rscale>
<asrwt>0</asrwt>
<pdfrwt beam="1">  1        2 0.16419321E+00 0.31785084E+02</pdfrwt>
<pdfrwt beam="2">  1       -2 0.27031957E-03 0.31785084E+02</pdfrwt>
<totfact> 0.23791868E+05</totfact>
</mgrwt>
</event>
<event>
 4    1  0.7653521E+003  0.2166801E+02  0.7546771E-02  0.1714058E+00
         -2   -1    0    0    0  501 -0.00000000000E+00  0.00000000000E+00  0.11647242720E+01  0.11647242720E+01  0.00000000000E+00 0.  1.
          2   -1    0    0  501    0  0.00000000000E+00 -0.00000000000E+00 -0.41834155060E+03  0.41834155060E+03  0.00000000000E+00 0.  1.
          2    1    1    2  502    0  0.19130442739E+02  0.10174911775E+02 -0.24862243506E+03  0.24956485707E+03  0.00000000000E+00 0.  1.
         -2    1    1    2    0  502 -0.19130442739E+02 -0.10174911775E+02 -0.16855439128E+03  0.16994141781E+03  0.00000000000E+00 0.  1.
<mgrwt>
<rscale>  2 0.21668010E+02</rscale>
<asrwt>0</asrwt>
<pdfrwt beam="2">  1        2 0.64360243E-01 0.21668010E+02</pdfrwt>
<pdfrwt beam="1">  1       -2 0.17918834E-03 0.21668010E+02</pdfrwt>
<totfact> 0.10416325E+06</totfact>
</mgrwt>
</event>
<event>
 4    1  0.7653521E+003  0.2309116E+02  0.7546771E-02  0.1690037E+00
          2   -1    0    0  501    0  0.00000000000E+00  0.00000000000E+00  0.87778353578E+03  0.87778353578E+03  0.00000000000E+00 0.  1.
         -2   -1    0    0    0  501 -0.00000000000E+00 -0.00000000000E+00 -0.25525337376E+02  0.25525337376E+02  0.00000000000E+00 0.  1.
          2    1    1    2  502    0  0.21673648059E+02  0.79658327805E+01  0.87237703972E+03  0.87268258889E+03  0.00000000000E+00 0.  1.
         -2    1    1    2    0  502 -0.21673648059E+02 -0.79658327805E+01 -0.20118841319E+02  0.30626284269E+02  0.00000000000E+00 0.  1.
<mgrwt>
<rscale>  2 0.23091157E+02</rscale>
<asrwt>0</asrwt>
<pdfrwt beam="1">  1        2 0.13504360E+00 0.23091157E+02</pdfrwt>
<pdfrwt beam="2">  1       -2 0.39269756E-02 0.23091157E+02</pdfrwt>
<totfact> 0.74373224E+03</totfact>
</mgrwt>
</event>
<event>
 4    1  0.7653521E+003  0.2418529E+02  0.7546771E-02  0.1672987E+00
          2   -1    0    0  501    0  0.00000000000E+00  0.00000000000E+00  0.14495317330E+04  0.14495317330E+04  0.00000000000E+00 0. -1.
         -2   -1    0    0    0  501 -0.00000000000E+00 -0.00000000000E+00 -0.52757851494E+00  0.52757851494E+00  0.00000000000E+00 0. -1.
          2    1    1    2  502    0  0.14497204678E+02 -0.19358696253E+02  0.10760704409E+04  0.10763421955E+04  0.00000000000E+00 0. -1.
         -2    1    1    2    0  502 -0.14497204678E+02  0.19358696253E+02  0.37293371359E+03  0.37371711600E+03  0.00000000000E+00 0. -1.
<mgrwt>
<rscale>  2 0.24185286E+02</rscale>
<asrwt>0</asrwt>
<pdfrwt beam="1">  1        2 0.22300169E+00 0.24185286E+02</pdfrwt>
<pdfrwt beam="2">  1       -2 0.81167086E-04 0.24185286E+02</pdfrwt>
<totfact> 0.70990928E+05</totfact>
</mgrwt>
</event>
<event>
 4    1  0.7653521E+003  0.2280187E+02  0.7546771E-02  0.1694742E+00
         -2   -1    0    0    0  501 -0.00000000000E+00  0.00000000000E+00  0.10218506522E+03  0.10218506522E+03  0.00000000000E+00 0. -1.
          2   -1    0    0  501    0  0.00000000000E+00 -0.00000000000E+00 -0.24738899769E+03  0.24738899769E+03  0.00000000000E+00 0.  1.
          2    1    1    2  502    0  0.15288866211E+02  0.16916728746E+02 -0.24558222845E+03  0.24663851295E+03  0.00000000000E+00 0.  1.
         -2    1    1    2    0  502 -0.15288866211E+02 -0.16916728746E+02  0.10037829598E+03  0.10293554996E+03  0.00000000000E+00 0. -1.
<mgrwt>
<rscale>  2 0.22801867E+02</rscale>
<asrwt>0</asrwt>
<pdfrwt beam="2">  1        2 0.38059845E-01 0.22801867E+02</pdfrwt>
<pdfrwt beam="1">  1       -2 0.15720779E-01 0.22801867E+02</pdfrwt>
<totfact> 0.35643283E+03</totfact>
</mgrwt>
</event>
<event>
 4    1  0.7653521E+003  0.2572817E+02  0.7546771E-02  0.1650758E+00
         -2   -1    0    0    0  501 -0.00000000000E+00  0.00000000000E+00  0.90422125168E+01  0.90422125168E+01  0.00000000000E+00 0.  1.
          2   -1    0    0  501    0  0.00000000000E+00 -0.00000000000E+00 -0.37698517429E+03  0.37698517429E+03  0.00000000000E+00 0.  1.
          2    1    1    2  502    0  0.37869945409E+00  0.25725386207E+02 -0.35723431077E+03  0.35815958971E+03  0.00000000000E+00 0.  1.
         -2    1    1    2    0  502 -0.37869945409E+00 -0.25725386207E+02 -0.10708651002E+02  0.27867797097E+02  0.00000000000E+00 0.  1.
<mgrwt>
<rscale>  2 0.25728173E+02</rscale>
<asrwt>0</asrwt>
<pdfrwt beam="2">  1        2 0.57997711E-01 0.25728173E+02</pdfrwt>
<pdfrwt beam="1">  1       -2 0.13911098E-02 0.25728173E+02</pdfrwt>
<totfact> 0.77389321E+04</totfact>
</mgrwt>
</event>
<event>
 4    1  0.7653521E+003  0.3242451E+02  0.7546771E-02  0.1572738E+00
         -2   -1    0    0    0  501 -0.00000000000E+00  0.00000000000E+00  0.29998574740E+02  0.29998574740E+02  0.00000000000E+00 0. -1.
          2   -1    0    0  501    0  0.00000000000E+00 -0.00000000000E+00 -0.36217878469E+02  0.36217878469E+02  0.00000000000E+00 0. -1.
          2    1    1    2  502    0  0.20232985218E+02 -0.25337202350E+02  0.28443340945E+01  0.32549005365E+02  0.00000000000E+00 0. -1.
         -2    1    1    2    0  502 -0.20232985218E+02  0.25337202350E+02 -0.90636378240E+01  0.33667447845E+02  0.00000000000E+00 0. -1.
<mgrwt>
<rscale>  2 0.32424506E+02</rscale>
<asrwt>0</asrwt>
<pdfrwt beam="2">  1        2 0.55719813E-02 0.32424506E+02</pdfrwt>
<pdfrwt beam="1">  1       -2 0.46151653E-02 0.32424506E+02</pdfrwt>
<totfact> 0.19769590E+05</totfact>
</mgrwt>
</event>
<event>
 4    1  0.7653521E+003  0.2288539E+02  0.7546771E-02  0.1693375E+00
          2   -1    0    0  501    0  0.00000000000E+00  0.00000000000E+00  0.62239985834E+03  0.62239985834E+03  0.00000000000E+00 0. -1.
         -2   -1    0    0    0  501 -0.00000000000E+00 -0.00000000000E+00 -0.16592977358E+01  0.16592977358E+01  0.00000000000E+00 0.  1.
          2    1    1    2  502    0  0.17312578851E+02  0.14967151008E+02  0.52942881345E+03  0.52992321096E+03  0.00000000000E+00 0. -1.
         -2    1    1    2    0  502 -0.17312578851E+02 -0.14967151008E+02  0.91311747147E+02  0.94135945115E+02  0.00000000000E+00 0.  1.
<mgrwt>
<rscale>  2 0.22885388E+02</rscale>
<asrwt>0</asrwt>
<pdfrwt beam="1">  1        2 0.95753638E-01 0.22885388E+02</pdfrwt>
<pdfrwt beam="2">  1       -2 0.25527707E-03 0.22885388E+02</pdfrwt>
<totfact> 0.44306571E+05</totfact>
</mgrwt>
</event>
<event>
 4    1  0.7653521E+003  0.1069502E+03  0.7546771E-02  0.1266324E+00
         -2   -1    0    0    0  501 -0.00000000000E+00  0.00000000000E+00  0.72991674831E+02  0.72991674831E+02  0.00000000000E+00 0. -1.
          2   -1    0    0  501    0  0.00000000000E+00 -0.00000000000E+00 -0.27843664936E+03  0.27843664936E+03  0.00000000000E+00 0.  1.
          2    1    1    2  502    0 -0.43479545908E+00 -0.10694934829E+03 -0.21890496487E+03  0.24363443064E+03  0.00000000000E+00 0.  1.
         -2    1    1    2    0  502  0.43479545908E+00  0.10694934829E+03  0.13459990347E+02  0.10779389355E+03  0.00000000000E+00 0. -1.
<mgrwt>
<rscale>  2 0.10695023E+03</rscale>
<asrwt>0</asrwt>
<pdfrwt beam="2">  1        2 0.42836408E-01 0.10695023E+03</pdfrwt>
<pdfrwt beam="1">  1       -2 0.11229488E-01 0.10695023E+03</pdfrwt>
<totfact> 0.61322469E+03</totfact>
</mgrwt>
</event>
<event>
 4    1  0.7653521E+003  0.2544981E+02  0.7546771E-02  0.1654624E+00
          2   -1    0    0  501    0  0.00000000000E+00  0.00000000000E+00  0.66312919479E+03  0.66312919479E+03  0.00000000000E+00 0.  1.
         -2   -1    0    0    0  501 -0.00000000000E+00 -0.00000000000E+00 -0.64020140669E+02  0.64020140669E+02  0.00000000000E+00 0.  1.
          2    1    1    2  502    0  0.48735338330E+01 -0.24978820760E+02  0.66034510051E+03  0.66083533848E+03  0.00000000000E+00 0.  1.
         -2    1    1    2    0  502 -0.48735338330E+01  0.24978820760E+02 -0.61236046386E+02  0.66313996981E+02  0.00000000000E+00 0.  1.
<mgrwt>
<rscale>  2 0.25449810E+02</rscale>
<asrwt>0</asrwt>
<pdfrwt beam="1">  1        2 0.10201987E+00 0.25449810E+02</pdfrwt>
<pdfrwt beam="2">  1       -2 0.98492528E-02 0.25449810E+02</pdfrwt>
<totfact> 0.27251436E+03</totfact>
</mgrwt>
</event>
<event>
 4    1  0.7653521E+003  0.2895292E+02  0.7546771E-02  0.1609960E+00
          2   -1    0    0  501    0  0.00000000000E+00  0.00000000000E+00  0.65275453639E+03  0.65275453639E+03  0.00000000000E+00 0.  1.
         -2   -1    0    0    0  501 -0.00000000000E+00 -0.00000000000E+00 -0.13161642163E+01  0.13161642163E+01  0.00000000000E+00 0. -1.
          2    1    1    2  502    0 -0.24850412849E+02  0.14856934867E+02  0.37667906948E+03  0.37779014401E+03  0.00000000000E+00 0.  1.
         -2    1    1    2    0  502  0.24850412849E+02 -0.14856934867E+02  0.27475930270E+03  0.27628055660E+03  0.00000000000E+00 0. -1.
<mgrwt>
<rscale>  2 0.28952919E+02</rscale>
<asrwt>0</asrwt>
<pdfrwt beam="1">  1        2 0.10042352E+00 0.28952919E+02</pdfrwt>
<pdfrwt beam="2">  1       -2 0.20248732E-03 0.28952919E+02</pdfrwt>
<totfact> 0.61221864E+05</totfact>
</mgrwt>
</event>
<event>
 4    1  0.7653521E+003  0.2073894E+02  0.7546771E-02  0.1731020E+00
          2   -1    0    0  501    0  0.00000000000E+00  0.00000000000E+00  0.11184238623E+04  0.11184238623E+04  0.00000000000E+00 0.  1.
         -2   -1    0    0    0  501 -0.00000000000E+00 -0.00000000000E+00 -0.13340333212E+01  0.13340333212E+01  0.00000000000E+00 0. -1.
          2    1    1    2  502    0 -0.12829206962E+02  0.16294636439E+02  0.10308815598E+04  0.10310901484E+04  0.00000000000E+00 0.  1.
         -2    1    1    2    0  502  0.12829206962E+02 -0.16294636439E+02  0.86208269175E+02  0.88667747249E+02  0.00000000000E+00 0. -1.
<mgrwt>
<rscale>  2 0.20738942E+02</rscale>
<asrwt>0</asrwt>
<pdfrwt beam="1">  1        2 0.17206446E+00 0.20738942E+02</pdfrwt>
<pdfrwt beam="2">  1       -2 0.20523679E-03 0.20738942E+02</pdfrwt>
<totfact> 0.29191513E+05</totfact>
</mgrwt>
</event>
<event>
 4    1  0.7653521E+003  0.2110935E+02  0.7546771E-02  0.1724127E+00
         -2   -1    0    0    0  501 -0.00000000000E+00  0.00000000000E+00  0.44287228269E+01  0.44287228269E+01  0.00000000000E+00 0. -1.
          2   -1    0    0  501    0  0.00000000000E+00 -0.00000000000E+00 -0.19637753004E+03  0.19637753004E+03  0.00000000000E+00 0. -1.
          2    1    1    2  502    0  0.66435827041E+01  0.20036653582E+02 -0.16608677805E+03  0.16742288530E+03  0.00000000000E+00 0. -1.
         -2    1    1    2    0  502 -0.66435827041E+01 -0.20036653582E+02 -0.25862029161E+02  0.33383367569E+02  0.00000000000E+00 0. -1.
<mgrwt>
<rscale>  2 0.21109350E+02</rscale>
<asrwt>0</asrwt>
<pdfrwt beam="2">  1        2 0.30211923E-01 0.21109350E+02</pdfrwt>
<pdfrwt beam="1">  1       -2 0.68134207E-03 0.21109350E+02</pdfrwt>
<totfact> 0.36905503E+05</totfact>
</mgrwt>
</event>
<event>
 4    1  0.7653521E+003  0.2078183E+02  0.7546771E-02  0.1730213E+00
          2   -1    0    0  501    0  0.00000000000E+00  0.00000000000E+00  0.13770514835E+03  0.13770514835E+03  0.00000000000E+00 0.  1.
         -2   -1    0    0    0  501 -0.00000000000E+00 -0.00000000000E+00 -0.57650784529E+03  0.57650784529E+03  0.00000000000E+00 0.  1.
          2    1    1    2  502    0  0.18008287815E+02  0.10372377062E+02  0.13673246388E+03  0.13830275238E+03  0.00000000000E+00 0.  1.
         -2    1    1    2    0  502 -0.18008287815E+02 -0.10372377062E+02 -0.57553516082E+03  0.57591024125E+03  0.00000000000E+00 0.  1.
<mgrwt>
<rscale>  2 0.20781834E+02</rscale>
<asrwt>0</asrwt>
<pdfrwt beam="1">  1        2 0.21185408E-01 0.20781834E+02</pdfrwt>
<pdfrwt beam="2">  1       -2 0.88693514E-01 0.20781834E+02</pdfrwt>
<totfact> 0.27981970E+02</totfact>
</mgrwt>
</event>
<event>
 4    1  0.7653521E+003  0.2129448E+02  0.7546771E-02  0.1720747E+00
          2   -1    0    0  501    0  0.00000000000E+00  0.00000000000E+00  0.53832449904E+02  0.53832449904E+02  0.00000000000E+00 0.  1.
         -2   -1    0    0    0  501 -0.00000000000E+00 -0.00000000000E+00 -0.21846965808E+03  0.21846965808E+03  0.00000000000E+00 0.  1.
          2    1    1    2  502    0  0.48298170433E+01  0.20739526330E+02  0.51181887066E+02  0.55435012841E+02  0.00000000000E+00 0.  1.
         -2    1    1    2    0  502 -0.48298170433E+01 -0.20739526330E+02 -0.21581909524E+03  0.21686709515E+03  0.00000000000E+00 0.  1.
<mgrwt>
<rscale>  2 0.21294485E+02</rscale>
<asrwt>0</asrwt>
<pdfrwt beam="1">  1        2 0.82819155E-02 0.21294485E+02</pdfrwt>
<pdfrwt beam="2">  1       -2 0.33610716E-01 0.21294485E+02</pdfrwt>
<totfact> 0.52125213E+03</totfact>
</mgrwt>
</event>
<event>
 4    1  0.7653521E+003  0.2297542E+02  0.7546771E-02  0.1691909E+00
          2   -1    0    0  501    0  0.00000000000E+00  0.00000000000E+00  0.19621578075E+02  0.19621578075E+02  0.00000000000E+00 0. -1.
         -2   -1    0    0    0  501 -0.00000000000E+00 -0.00000000000E+00 -0.36186486427E+02  0.36186486427E+02  0.00000000000E+00 0.  1.
          2    1    1    2  502    0  0.36985021014E+01 -0.22675777340E+02  0.58514016742E+01  0.23708831631E+02  0.00000000000E+00 0. -1.
         -2    1    1    2    0  502 -0.36985021014E+01  0.22675777340E+02 -0.22416310026E+02  0.32099232871E+02  0.00000000000E+00 0.  1.
<mgrwt>
<rscale>  2 0.22975417E+02</rscale>
<asrwt>0</asrwt>
<pdfrwt beam="1">  1        2 0.30187044E-02 0.22975417E+02</pdfrwt>
<pdfrwt beam="2">  1       -2 0.55671517E-02 0.22975417E+02</pdfrwt>
<totfact> 0.29564231E+05</totfact>
</mgrwt>
</event>
<event>
 4    1  0.7653521E+003  0.2089551E+02  0.7546771E-02  0.1728085E+00
          2   -1    0    0  501    0  0.00000000000E+00  0.00000000000E+00  0.13039714050E+04  0.13039714050E+04  0.00000000000E+00 0. -1.
         -2   -1    0    0    0  501 -0.00000000000E+00 -0.00000000000E+00 -0.35966914031E+00  0.35966914031E+00  0.00000000000E+00 0. -1.
          2    1    1    2  502    0  0.99817623672E+01  0.18357194625E+02  0.82315601752E+03  0.82342118709E+03  0.00000000000E+00 0. -1.
         -2    1    1    2    0  502 -0.99817623672E+01 -0.18357194625E+02  0.48045571834E+03  0.48090988705E+03  0.00000000000E+00 0. -1.
<mgrwt>
<rscale>  2 0.20895506E+02</rscale>
<asrwt>0</asrwt>
<pdfrwt beam="1">  1        2 0.20060720E+00 0.20895506E+02</pdfrwt>
<pdfrwt beam="2">  1       -2 0.55334758E-04 0.20895506E+02</pdfrwt>
<totfact> 0.13213039E+06</totfact>
</mgrwt>
</event>
<event>
 4    1  0.7653521E+003  0.2141886E+02  0.7546771E-02  0.1718501E+00
          2   -1    0    0  501    0  0.00000000000E+00  0.00000000000E+00  0.16498819838E+03  0.16498819838E+03  0.00000000000E+00 0.  1.
         -2   -1    0    0    0  501 -0.00000000000E+00 -0.00000000000E+00 -0.14541653698E+02  0.14541653698E+02  0.00000000000E+00 0.  1.
          2    1    1    2  502    0  0.15530416306E+02  0.14750381501E+02  0.15595100187E+03  0.15741500109E+03  0.00000000000E+00 0.  1.
         -2    1    1    2    0  502 -0.15530416306E+02 -0.14750381501E+02 -0.55044571888E+01  0.22114850983E+02  0.00000000000E+00 0.  1.
<mgrwt>
<rscale>  2 0.21418860E+02</rscale>
<asrwt>0</asrwt>
<pdfrwt beam="1">  1        2 0.25382798E-01 0.21418860E+02</pdfrwt>
<pdfrwt beam="2">  1       -2 0.22371776E-02 0.21418860E+02</pdfrwt>
<totfact> 0.88413883E+04</totfact>
</mgrwt>
</event>
<event>
 4    1  0.7653521E+003  0.2969761E+02  0.7546771E-02  0.1601455E+00
         -2   -1    0    0    0  501 -0.00000000000E+00  0.00000000000E+00  0.11602060899E+01  0.11602060899E+01  0.00000000000E+00 0. -1.
          2   -1    0    0  501    0  0.00000000000E+00 -0.00000000000E+00 -0.80345366291E+03  0.80345366291E+03  0.00000000000E+00 0.  1.
          2    1    1    2  502    0 -0.29000767553E+02  0.63955318929E+01 -0.30776384487E+03  0.30919335627E+03  0.00000000000E+00 0.  1.
         -2    1    1    2    0  502  0.29000767553E+02 -0.63955318929E+01 -0.49452961195E+03  0.49542051274E+03  0.00000000000E+00 0. -1.
<mgrwt>
<rscale>  2 0.29697613E+02</rscale>
<asrwt>0</asrwt>
<pdfrwt beam="2">  1        2 0.12360842E+00 0.29697613E+02</pdfrwt>
<pdfrwt beam="1">  1       -2 0.17849300E-03 0.29697613E+02</pdfrwt>
<totfact> 0.57894810E+05</totfact>
</mgrwt>
</event>
<event>
 4    1  0.7653521E+003  0.2608464E+02  0.7546771E-02  0.1645894E+00
          2   -1    0    0  501    0  0.00000000000E+00  0.00000000000E+00  0.20120863826E+02  0.20120863826E+02  0.00000000000E+00 0.  1.
         -2   -1    0    0    0  501 -0.00000000000E+00 -0.00000000000E+00 -0.18735604040E+03  0.18735604040E+03  0.00000000000E+00 0.  1.
          2    1    1    2  502    0  0.17760789334E+02 -0.19103999536E+02  0.10293451138E+02  0.28042174887E+02  0.00000000000E+00 0.  1.
         -2    1    1    2    0  502 -0.17760789334E+02  0.19103999536E+02 -0.17752862771E+03  0.17943472934E+03  0.00000000000E+00 0.  1.
<mgrwt>
<rscale>  2 0.26084640E+02</rscale>
<asrwt>0</asrwt>
<pdfrwt beam="1">  1        2 0.30955174E-02 0.26084640E+02</pdfrwt>
<pdfrwt beam="2">  1       -2 0.28824007E-01 0.26084640E+02</pdfrwt>
<totfact> 0.23444445E+04</totfact>
</mgrwt>
</event>
<event>
 4    1  0.7653521E+003  0.4218871E+02  0.7546771E-02  0.1492696E+00
         -2   -1    0    0    0  501 -0.00000000000E+00  0.00000000000E+00  0.23455513190E+01  0.23455513190E+01  0.00000000000E+00 0. -1.
          2   -1    0    0  501    0  0.00000000000E+00 -0.00000000000E+00 -0.79355695016E+03  0.79355695016E+03  0.00000000000E+00 0. -1.
          2    1    1    2  502    0 -0.12347387819E+02 -0.40341411283E+02 -0.47884725207E+03  0.48070217211E+03  0.00000000000E+00 0. -1.
         -2    1    1    2    0  502  0.12347387819E+02  0.40341411283E+02 -0.31236414677E+03  0.31520032937E+03  0.00000000000E+00 0. -1.
<mgrwt>
<rscale>  2 0.42188712E+02</rscale>
<asrwt>0</asrwt>
<pdfrwt beam="2">  1        2 0.12208602E+00 0.42188712E+02</pdfrwt>
<pdfrwt beam="1">  1       -2 0.36085305E-03 0.42188712E+02</pdfrwt>
<totfact> 0.24644117E+05</totfact>
</mgrwt>
</event>
<event>
 4    1  0.7653521E+003  0.2848702E+02  0.7546771E-02  0.1615441E+00
          2   -1    0    0  501    0  0.00000000000E+00  0.00000000000E+00  0.11318963431E+04  0.11318963431E+04  0.00000000000E+00 0.  1.
         -2   -1    0    0    0  501 -0.00000000000E+00 -0.00000000000E+00 -0.15265412866E+02  0.15265412866E+02  0.00000000000E+00 0. -1.
          2    1    1    2  502    0 -0.27394501859E+02  0.78135659644E+01  0.11182651125E+04  0.11186278972E+04  0.00000000000E+00 0.  1.
         -2    1    1    2    0  502  0.27394501859E+02 -0.78135659644E+01 -0.16341822586E+01  0.28533858779E+02  0.00000000000E+00 0. -1.
<mgrwt>
<rscale>  2 0.28487024E+02</rscale>
<asrwt>0</asrwt>
<pdfrwt beam="1">  1        2 0.17413783E+00 0.28487024E+02</pdfrwt>
<pdfrwt beam="2">  1       -2 0.23485260E-02 0.28487024E+02</pdfrwt>
<totfact> 0.11330877E+04</totfact>
</mgrwt>
</event>
<event>
 4    1  0.7653521E+003  0.4871906E+02  0.7546771E-02  0.1452376E+00
         -2   -1    0    0    0  501 -0.00000000000E+00  0.00000000000E+00  0.47672484505E+01  0.47672484505E+01  0.00000000000E+00 0. -1.
          2   -1    0    0  501    0  0.00000000000E+00 -0.00000000000E+00 -0.91560008087E+03  0.91560008087E+03  0.00000000000E+00 0.  1.
          2    1    1    2  502    0 -0.92616733362E+01 -0.47830620916E+02 -0.76624272875E+03  0.76778998837E+03  0.00000000000E+00 0.  1.
         -2    1    1    2    0  502  0.92616733362E+01  0.47830620916E+02 -0.14459010368E+03  0.15257734095E+03  0.00000000000E+00 0. -1.
<mgrwt>
<rscale>  2 0.48719061E+02</rscale>
<asrwt>0</asrwt>
<pdfrwt beam="2">  1        2 0.14086159E+00 0.48719061E+02</pdfrwt>
<pdfrwt beam="1">  1       -2 0.73342261E-03 0.48719061E+02</pdfrwt>
<totfact> 0.80332562E+04</totfact>
</mgrwt>
</event>
<event>
 4    1  0.7653521E+003  0.2725987E+02  0.7546771E-02  0.1630515E+00
          2   -1    0    0  501    0  0.00000000000E+00  0.00000000000E+00  0.26870397651E+02  0.26870397651E+02  0.00000000000E+00 0.  1.
         -2   -1    0    0    0  501 -0.00000000000E+00 -0.00000000000E+00 -0.33838981220E+02  0.33838981220E+02  0.00000000000E+00 0.  1.
          2    1    1    2  502    0  0.54953854720E+01 -0.26700210926E+02  0.94920314791E+01  0.28865189876E+02  0.00000000000E+00 0.  1.
         -2    1    1    2    0  502 -0.54953854720E+01  0.26700210926E+02 -0.16460615048E+02  0.31844188995E+02  0.00000000000E+00 0.  1.
<mgrwt>
<rscale>  2 0.27259870E+02</rscale>
<asrwt>0</asrwt>
<pdfrwt beam="1">  1        2 0.41339073E-02 0.27259870E+02</pdfrwt>
<pdfrwt beam="2">  1       -2 0.52059971E-02 0.27259870E+02</pdfrwt>
<totfact> 0.23031820E+05</totfact>
</mgrwt>
</event>
<event>
 4    1  0.7653521E+003  0.3093012E+02  0.7546771E-02  0.1588029E+00
          2   -1    0    0  501    0  0.00000000000E+00  0.00000000000E+00  0.25852582626E+02  0.25852582626E+02  0.00000000000E+00 0. -1.
         -2   -1    0    0    0  501 -0.00000000000E+00 -0.00000000000E+00 -0.14398895714E+03  0.14398895714E+03  0.00000000000E+00 0.  1.
          2    1    1    2  502    0  0.28997695433E+02 -0.10761329955E+02  0.14131434285E+02  0.34005440709E+02  0.00000000000E+00 0. -1.
         -2    1    1    2    0  502 -0.28997695433E+02  0.10761329955E+02 -0.13226780880E+03  0.13583609906E+03  0.00000000000E+00 0.  1.
<mgrwt>
<rscale>  2 0.30930124E+02</rscale>
<asrwt>0</asrwt>
<pdfrwt beam="1">  1        2 0.39773205E-02 0.30930124E+02</pdfrwt>
<pdfrwt beam="2">  1       -2 0.22152147E-01 0.30930124E+02</pdfrwt>
<totfact> 0.27487360E+04</totfact>
</mgrwt>
</event>
<event>
 4    1  0.7653521E+003  0.2058447E+02  0.7546771E-02  0.1733949E+00
          2   -1    0    0  501    0  0.00000000000E+00  0.00000000000E+00  0.66833056696E+03  0.66833056696E+03  0.00000000000E+00 0.  1.
         -2   -1    0    0    0  501 -0.00000000000E+00 -0.00000000000E+00 -0.88819564484E+00  0.88819564484E+00  0.00000000000E+00 0.  1.
          2    1    1    2  502    0  0.20189175384E+02 -0.40146776123E+01  0.51272789278E+03  0.51314092848E+03  0.00000000000E+00 0.  1.
         -2    1    1    2    0  502 -0.20189175384E+02  0.40146776123E+01  0.15471447853E+03  0.15607783413E+03  0.00000000000E+00 0.  1.
<mgrwt>
<rscale>  2 0.20584471E+02</rscale>
<asrwt>0</asrwt>
<pdfrwt beam="1">  1        2 0.10281969E+00 0.20584471E+02</pdfrwt>
<pdfrwt beam="2">  1       -2 0.13664602E-03 0.20584471E+02</pdfrwt>
<totfact> 0.90864343E+05</totfact>
</mgrwt>
</event>
<event>
 4    1  0.7653521E+003  0.2108085E+02  0.7546771E-02  0.1724651E+00
         -2   -1    0    0    0  501 -0.00000000000E+00  0.00000000000E+00  0.57349824393E+01  0.57349824393E+01  0.00000000000E+00 0. -1.
          2   -1    0    0  501    0  0.00000000000E+00 -0.00000000000E+00 -0.21032918329E+03  0.21032918329E+03  0.00000000000E+00 0. -1.
          2    1    1    2  502    0 -0.18116669428E+02 -0.10779080701E+02 -0.18815228117E+03  0.18932956241E+03  0.00000000000E+00 0. -1.
         -2    1    1    2    0  502  0.18116669428E+02  0.10779080701E+02 -0.16441919678E+02  0.26734603319E+02  0.00000000000E+00 0. -1.
<mgrwt>
<rscale>  2 0.21080851E+02</rscale>
<asrwt>0</asrwt>
<pdfrwt beam="2">  1        2 0.32358336E-01 0.21080851E+02</pdfrwt>
<pdfrwt beam="1">  1       -2 0.88230498E-03 0.21080851E+02</pdfrwt>
<totfact> 0.24339132E+05</totfact>
</mgrwt>
</event>
<event>
 4    1  0.7653521E+003  0.2757888E+02  0.7546771E-02  0.1626504E+00
         -2   -1    0    0    0  501 -0.00000000000E+00  0.00000000000E+00  0.12237139326E+01  0.12237139326E+01  0.00000000000E+00 0.  1.
          2   -1    0    0  501    0  0.00000000000E+00 -0.00000000000E+00 -0.17478397859E+04  0.17478397859E+04  0.00000000000E+00 0.  1.
          2    1    1    2  502    0 -0.12981447564E+02 -0.24332629973E+02 -0.15753297698E+04  0.15755711595E+04  0.00000000000E+00 0.  1.
         -2    1    1    2    0  502  0.12981447564E+02  0.24332629973E+02 -0.17128630214E+03  0.17349234036E+03  0.00000000000E+00 0.  1.
<mgrwt>
<rscale>  2 0.27578884E+02</rscale>
<asrwt>0</asrwt>
<pdfrwt beam="2">  1        2 0.26889826E+00 0.27578884E+02</pdfrwt>
<pdfrwt beam="1">  1       -2 0.18826380E-03 0.27578884E+02</pdfrwt>
<totfact> 0.17367940E+05</totfact>
</mgrwt>
</event>
<event>
 4    1  0.7653521E+003  0.4188748E+02  0.7546771E-02  0.1494764E+00
         -2   -1    0    0    0  501 -0.00000000000E+00  0.00000000000E+00  0.14678911071E+02  0.14678911071E+02  0.00000000000E+00 0.  1.
          2   -1    0    0  501    0  0.00000000000E+00 -0.00000000000E+00 -0.24054719059E+03  0.24054719059E+03  0.00000000000E+00 0.  1.
          2    1    1    2  502    0  0.92890371109E+01 -0.40844520837E+02 -0.20344894023E+03  0.20771623040E+03  0.00000000000E+00 0.  1.
         -2    1    1    2    0  502 -0.92890371109E+01  0.40844520837E+02 -0.22419339293E+02  0.47509871261E+02  0.00000000000E+00 0.  1.
<mgrwt>
<rscale>  2 0.41887481E+02</rscale>
<asrwt>0</asrwt>
<pdfrwt beam="2">  1        2 0.37007260E-01 0.41887481E+02</pdfrwt>
<pdfrwt beam="1">  1       -2 0.22582940E-02 0.41887481E+02</pdfrwt>
<totfact> 0.68320066E+04</totfact>
</mgrwt>
</event>
<event>
 4    1  0.7653521E+003  0.3566689E+02  0.7546771E-02  0.1542757E+00
         -2   -1    0    0    0  501 -0.00000000000E+00  0.00000000000E+00  0.80574438531E+01  0.80574438531E+01  0.00000000000E+00 0. -1.
          2   -1    0    0  501    0  0.00000000000E+00 -0.00000000000E+00 -0.25058275420E+03  0.25058275420E+03  0.00000000000E+00 0. -1.
          2    1    1    2  502    0 -0.26741716951E+02  0.23601006891E+02 -0.19991861002E+03  0.20307530028E+03  0.00000000000E+00 0. -1.
         -2    1    1    2    0  502  0.26741716951E+02 -0.23601006891E+02 -0.42606700329E+02  0.55564897775E+02  0.00000000000E+00 0. -1.
<mgrwt>
<rscale>  2 0.35666889E+02</rscale>
<asrwt>0</asrwt>
<pdfrwt beam="2">  1        2 0.38551198E-01 0.35666889E+02</pdfrwt>
<pdfrwt beam="1">  1       -2 0.12396066E-02 0.35666889E+02</pdfrwt>
<totfact> 0.14635797E+05</totfact>
</mgrwt>
</event>
<event>
 4    1  0.7653521E+003  0.8169043E+02  0.7546771E-02  0.1324322E+00
          2   -1    0    0  501    0  0.00000000000E+00  0.00000000000E+00  0.61422676794E+03  0.61422676794E+03  0.00000000000E+00 0.  1.
         -2   -1    0    0    0  501 -0.00000000000E+00 -0.00000000000E+00 -0.12256035425E+02  0.12256035425E+02  0.00000000000E+00 0.  1.
          2    1    1    2  502    0 -0.72346143538E+02 -0.37938912886E+02  0.40653004203E+03  0.41465648514E+03  0.00000000000E+00 0.  1.
         -2    1    1    2    0  502  0.72346143538E+02  0.37938912886E+02  0.19544069049E+03  0.21182631823E+03  0.00000000000E+00 0.  1.
<mgrwt>
<rscale>  2 0.81690425E+02</rscale>
<asrwt>0</asrwt>
<pdfrwt beam="1">  1        2 0.94496401E-01 0.81690425E+02</pdfrwt>
<pdfrwt beam="2">  1       -2 0.18855444E-02 0.81690425E+02</pdfrwt>
<totfact> 0.36586854E+04</totfact>
</mgrwt>
</event>
<event>
 4    1  0.7653521E+003  0.2000445E+02  0.7546771E-02  0.1745240E+00
         -2   -1    0    0    0  501 -0.00000000000E+00  0.00000000000E+00  0.35622354483E+03  0.35622354483E+03  0.00000000000E+00 0.  1.
          2   -1    0    0  501    0  0.00000000000E+00 -0.00000000000E+00 -0.25498959997E+02  0.25498959997E+02  0.00000000000E+00 0. -1.
          2    1    1    2  502    0  0.19890453252E+02  0.21325755837E+01 -0.21247282878E+02  0.29182615354E+02  0.00000000000E+00 0. -1.
         -2    1    1    2    0  502 -0.19890453252E+02 -0.21325755837E+01  0.35197186771E+03  0.35253988947E+03  0.00000000000E+00 0.  1.
<mgrwt>
<rscale>  2 0.20004450E+02</rscale>
<asrwt>0</asrwt>
<pdfrwt beam="2">  1        2 0.39229172E-02 0.20004450E+02</pdfrwt>
<pdfrwt beam="1">  1       -2 0.54803619E-01 0.20004450E+02</pdfrwt>
<totfact> 0.51738046E+03</totfact>
</mgrwt>
</event>
<event>
 4    1  0.7653521E+003  0.2448913E+02  0.7546771E-02  0.1668450E+00
          2   -1    0    0  501    0  0.00000000000E+00  0.00000000000E+00  0.47997027967E+03  0.47997027967E+03  0.00000000000E+00 0.  1.
         -2   -1    0    0    0  501 -0.00000000000E+00 -0.00000000000E+00 -0.14355876224E+04  0.14355876224E+04  0.00000000000E+00 0.  1.
          2    1    1    2  502    0  0.22338572227E+02  0.10035228783E+02  0.47955337901E+03  0.48017825955E+03  0.00000000000E+00 0.  1.
         -2    1    1    2    0  502 -0.22338572227E+02 -0.10035228783E+02 -0.14351707217E+04  0.14353796425E+04  0.00000000000E+00 0.  1.
<mgrwt>
<rscale>  2 0.24489133E+02</rscale>
<asrwt>0</asrwt>
<pdfrwt beam="1">  1        2 0.73841581E-01 0.24489133E+02</pdfrwt>
<pdfrwt beam="2">  1       -2 0.22085964E+00 0.24489133E+02</pdfrwt>
<totfact> 0.87210670E+00</totfact>
</mgrwt>
</event>
<event>
 4    1  0.7653521E+003  0.2001936E+02  0.7546771E-02  0.1744943E+00
         -2   -1    0    0    0  501 -0.00000000000E+00  0.00000000000E+00  0.17422720940E+02  0.17422720940E+02  0.00000000000E+00 0. -1.
          2   -1    0    0  501    0  0.00000000000E+00 -0.00000000000E+00 -0.95897173821E+03  0.95897173821E+03  0.00000000000E+00 0. -1.
          2    1    1    2  502    0  0.10954919451E+02 -0.16756032101E+02 -0.95308096740E+03  0.95329119649E+03  0.00000000000E+00 0. -1.
         -2    1    1    2    0  502 -0.10954919451E+02  0.16756032101E+02  0.11531950132E+02  0.23103262665E+02  0.00000000000E+00 0. -1.
<mgrwt>
<rscale>  2 0.20019362E+02</rscale>
<asrwt>0</asrwt>
<pdfrwt beam="2">  1        2 0.14753410E+00 0.20019362E+02</pdfrwt>
<pdfrwt beam="1">  1       -2 0.26804189E-02 0.20019362E+02</pdfrwt>
<totfact> 0.11183179E+04</totfact>
</mgrwt>
</event>
<event>
 4    1  0.7653521E+003  0.3581806E+02  0.7546771E-02  0.1541454E+00
         -2   -1    0    0    0  501 -0.00000000000E+00  0.00000000000E+00  0.24303188869E+01  0.24303188869E+01  0.00000000000E+00 0. -1.
          2   -1    0    0  501    0  0.00000000000E+00 -0.00000000000E+00 -0.94576187321E+03  0.94576187321E+03  0.00000000000E+00 0.  1.
          2    1    1    2  502    0  0.11304208255E+02 -0.33987453817E+02 -0.15652910096E+03  0.16057487844E+03  0.00000000000E+00 0. -1.
         -2    1    1    2    0  502 -0.11304208255E+02  0.33987453817E+02 -0.78680245337E+03  0.78761731365E+03  0.00000000000E+00 0.  1.
<mgrwt>
<rscale>  2 0.35818060E+02</rscale>
<asrwt>0</asrwt>
<pdfrwt beam="2">  1        2 0.14550188E+00 0.35818060E+02</pdfrwt>
<pdfrwt beam="1">  1       -2 0.37389508E-03 0.35818060E+02</pdfrwt>
<totfact> 0.18373759E+05</totfact>
</mgrwt>
</event>
<event>
 4    1  0.7653521E+003  0.2224968E+02  0.7546771E-02  0.1703969E+00
         -2   -1    0    0    0  501 -0.00000000000E+00  0.00000000000E+00  0.22897405628E+02  0.22897405628E+02  0.00000000000E+00 0.  1.
          2   -1    0    0  501    0  0.00000000000E+00 -0.00000000000E+00 -0.17735536234E+03  0.17735536234E+03  0.00000000000E+00 0. -1.
          2    1    1    2  502    0  0.21767260136E+02 -0.46081287628E+01 -0.17105419801E+03  0.17249518000E+03  0.00000000000E+00 0. -1.
         -2    1    1    2    0  502 -0.21767260136E+02  0.46081287628E+01  0.16596241301E+02  0.27757587969E+02  0.00000000000E+00 0.  1.
<mgrwt>
<rscale>  2 0.22249685E+02</rscale>
<asrwt>0</asrwt>
<pdfrwt beam="2">  1        2 0.27285440E-01 0.22249685E+02</pdfrwt>
<pdfrwt beam="1">  1       -2 0.35226778E-02 0.22249685E+02</pdfrwt>
<totfact> 0.44188001E+04</totfact>
</mgrwt>
</event>
<event>
 4    1  0.7653521E+003  0.4065024E+02  0.7546771E-02  0.1503480E+00
         -2   -1    0    0    0  501 -0.00000000000E+00  0.00000000000E+00  0.12758503134E+02  0.12758503134E+02  0.00000000000E+00 0. -1.
          2   -1    0    0  501    0  0.00000000000E+00 -0.00000000000E+00 -0.66702937724E+03  0.66702937724E+03  0.00000000000E+00 0.  1.
          2    1    1    2  502    0  0.37287804213E+02  0.16188327531E+02 -0.63225158982E+03  0.63355703383E+03  0.00000000000E+00 0.  1.
         -2    1    1    2    0  502 -0.37287804213E+02 -0.16188327531E+02 -0.22019284284E+02  0.46230846538E+02  0.00000000000E+00 0. -1.
<mgrwt>
<rscale>  2 0.40650243E+02</rscale>
<asrwt>0</asrwt>
<pdfrwt beam="2">  1        2 0.10261986E+00 0.40650243E+02</pdfrwt>
<pdfrwt beam="1">  1       -2 0.19628474E-02 0.40650243E+02</pdfrwt>
<totfact> 0.28844332E+04</totfact>
</mgrwt>
</event>
<event>
 4    1  0.7653521E+003  0.2640190E+02  0.7546771E-02  0.1641646E+00
          2   -1    0    0  501    0  0.00000000000E+00  0.00000000000E+00  0.79725931764E+02  0.79725931764E+02  0.00000000000E+00 0.  1.
         -2   -1    0    0    0  501 -0.00000000000E+00 -0.00000000000E+00 -0.28985443599E+03  0.28985443599E+03  0.00000000000E+00 0.  1.
          2    1    1    2  502    0  0.24988369662E+02 -0.85230234627E+01  0.76917573184E+02  0.81322651284E+02  0.00000000000E+00 0.  1.
         -2    1    1    2    0  502 -0.24988369662E+02  0.85230234627E+01 -0.28704607741E+03  0.28825771647E+03  0.00000000000E+00 0.  1.
<mgrwt>
<rscale>  2 0.26401904E+02</rscale>
<asrwt>0</asrwt>
<pdfrwt beam="1">  1        2 0.12265528E-01 0.26401904E+02</pdfrwt>
<pdfrwt beam="2">  1       -2 0.44592990E-01 0.26401904E+02</pdfrwt>
<totfact> 0.20473836E+03</totfact>
</mgrwt>
</event>
<event>
 4    1  0.7653521E+003  0.3887933E+02  0.7546771E-02  0.1516624E+00
         -2   -1    0    0    0  501 -0.00000000000E+00  0.00000000000E+00  0.28623073069E+01  0.28623073069E+01  0.00000000000E+00 0.  1.
          2   -1    0    0  501    0  0.00000000000E+00 -0.00000000000E+00 -0.10147878116E+04  0.10147878116E+04  0.00000000000E+00 0.  1.
          2    1    1    2  502    0 -0.32111315690E+02 -0.21919524211E+02 -0.85833634528E+03  0.85921643592E+03  0.00000000000E+00 0.  1.
         -2    1    1    2    0  502  0.32111315690E+02  0.21919524211E+02 -0.15358915906E+03  0.15843368303E+03  0.00000000000E+00 0.  1.
<mgrwt>
<rscale>  2 0.38879328E+02</rscale>
<asrwt>0</asrwt>
<pdfrwt beam="2">  1        2 0.15612121E+00 0.38879328E+02</pdfrwt>
<pdfrwt beam="1">  1       -2 0.44035494E-03 0.38879328E+02</pdfrwt>
<totfact> 0.13660211E+05</totfact>
</mgrwt>
</event>
<event>
 4    1  0.7653521E+003  0.2612615E+02  0.7546771E-02  0.1645334E+00
          2   -1    0    0  501    0  0.00000000000E+00  0.00000000000E+00  0.16297987084E+02  0.16297987084E+02  0.00000000000E+00 0. -1.
         -2   -1    0    0    0  501 -0.00000000000E+00 -0.00000000000E+00 -0.42841740686E+02  0.42841740686E+02  0.00000000000E+00 0. -1.
          2    1    1    2  502    0 -0.22452449229E+02  0.13359010717E+02 -0.88437121271E+01  0.27582365524E+02  0.00000000000E+00 0. -1.
         -2    1    1    2    0  502  0.22452449229E+02 -0.13359010717E+02 -0.17700041475E+02  0.31557362246E+02  0.00000000000E+00 0. -1.
<mgrwt>
<rscale>  2 0.26126149E+02</rscale>
<asrwt>0</asrwt>
<pdfrwt beam="1">  1        2 0.25073827E-02 0.26126149E+02</pdfrwt>
<pdfrwt beam="2">  1       -2 0.65910369E-02 0.26126149E+02</pdfrwt>
<totfact> 0.30476092E+05</totfact>
</mgrwt>
</event>
<event>
 4    1  0.7653521E+003  0.2452255E+02  0.7546771E-02  0.1667956E+00
         -2   -1    0    0    0  501 -0.00000000000E+00  0.00000000000E+00  0.63284302256E+01  0.63284302256E+01  0.00000000000E+00 0.  1.
          2   -1    0    0  501    0  0.00000000000E+00 -0.00000000000E+00 -0.95820378310E+02  0.95820378310E+02  0.00000000000E+00 0.  1.
          2    1    1    2  502    0  0.78637388027E+01 -0.23227506950E+02 -0.49400946784E+02  0.55152597494E+02  0.00000000000E+00 0.  1.
         -2    1    1    2    0  502 -0.78637388027E+01  0.23227506950E+02 -0.40091001300E+02  0.46996211042E+02  0.00000000000E+00 0.  1.
<mgrwt>
<rscale>  2 0.24522550E+02</rscale>
<asrwt>0</asrwt>
<pdfrwt beam="2">  1        2 0.14741598E-01 0.24522550E+02</pdfrwt>
<pdfrwt beam="1">  1       -2 0.97360457E-03 0.24522550E+02</pdfrwt>
<totfact> 0.50815858E+05</totfact>
</mgrwt>
</event>
<event>
 4    1  0.7653521E+003  0.2235144E+02  0.7546771E-02  0.1702244E+00
          2   -1    0    0  501    0  0.00000000000E+00  0.00000000000E+00  0.89677097877E+03  0.89677097877E+03  0.00000000000E+00 0. -1.
         -2   -1    0    0    0  501 -0.00000000000E+00 -0.00000000000E+00 -0.18230367350E+01  0.18230367350E+01  0.00000000000E+00 0. -1.
          2    1    1    2  502    0 -0.65729821111E+01  0.21363121162E+02  0.82187979571E+03  0.82218366904E+03  0.00000000000E+00 0. -1.
         -2    1    1    2    0  502  0.65729821111E+01 -0.21363121162E+02  0.73068146334E+02  0.76410346474E+02  0.00000000000E+00 0. -1.
<mgrwt>
<rscale>  2 0.22351444E+02</rscale>
<asrwt>0</asrwt>
<pdfrwt beam="1">  1        2 0.13796441E+00 0.22351444E+02</pdfrwt>
<pdfrwt beam="2">  1       -2 0.28046791E-03 0.22351444E+02</pdfrwt>
<totfact> 0.25910364E+05</totfact>
</mgrwt>
</event>
<event>
 4    1  0.7653521E+003  0.2014696E+02  0.7546771E-02  0.1742421E+00
         -2   -1    0    0    0  501 -0.00000000000E+00  0.00000000000E+00  0.50288561129E+01  0.50288561129E+01  0.00000000000E+00 0.  1.
          2   -1    0    0  501    0  0.00000000000E+00 -0.00000000000E+00 -0.15538880467E+03  0.15538880467E+03  0.00000000000E+00 0.  1.
          2    1    1    2  502    0  0.36450355310E+01  0.19814479385E+02 -0.13078306264E+03  0.13232576979E+03  0.00000000000E+00 0.  1.
         -2    1    1    2    0  502 -0.36450355310E+01 -0.19814479385E+02 -0.19576885919E+02  0.28091890994E+02  0.00000000000E+00 0.  1.
<mgrwt>
<rscale>  2 0.20146957E+02</rscale>
<asrwt>0</asrwt>
<pdfrwt beam="2">  1        2 0.23905970E-01 0.20146957E+02</pdfrwt>
<pdfrwt beam="1">  1       -2 0.77367018E-03 0.20146957E+02</pdfrwt>
<totfact> 0.38954805E+05</totfact>
</mgrwt>
</event>
<event>
 4    1  0.7653521E+003  0.2840900E+02  0.7546771E-02  0.1616372E+00
         -2   -1    0    0    0  501 -0.00000000000E+00  0.00000000000E+00  0.37410139998E+03  0.37410139998E+03  0.00000000000E+00 0. -1.
          2   -1    0    0  501    0  0.00000000000E+00 -0.00000000000E+00 -0.34008163132E+02  0.34008163132E+02  0.00000000000E+00 0.  1.
          2    1    1    2  502    0  0.27082537369E+02  0.85794648889E+01 -0.27429866657E+02  0.39490108039E+02  0.00000000000E+00 0.  1.
         -2    1    1    2    0  502 -0.27082537369E+02 -0.85794648889E+01  0.36752310350E+03  0.36861945507E+03  0.00000000000E+00 0. -1.
<mgrwt>
<rscale>  2 0.28408996E+02</rscale>
<asrwt>0</asrwt>
<pdfrwt beam="2">  1        2 0.52320254E-02 0.28408996E+02</pdfrwt>
<pdfrwt beam="1">  1       -2 0.57554059E-01 0.28408996E+02</pdfrwt>
<totfact> 0.34751539E+03</totfact>
</mgrwt>
</event>
<event>
 4    1  0.7653521E+003  0.2178535E+02  0.7546771E-02  0.1711991E+00
         -2   -1    0    0    0  501 -0.00000000000E+00  0.00000000000E+00  0.10596148428E+01  0.10596148428E+01  0.00000000000E+00 0. -1.
          2   -1    0    0  501    0  0.00000000000E+00 -0.00000000000E+00 -0.60083971357E+03  0.60083971357E+03  0.00000000000E+00 0. -1.
          2    1    1    2  502    0  0.55089034690E+01 -0.21077325276E+02 -0.45172594521E+03  0.45225096046E+03  0.00000000000E+00 0. -1.
         -2    1    1    2    0  502 -0.55089034690E+01  0.21077325276E+02 -0.14805415352E+03  0.14964836795E+03  0.00000000000E+00 0. -1.
<mgrwt>
<rscale>  2 0.21785354E+02</rscale>
<asrwt>0</asrwt>
<pdfrwt beam="2">  1        2 0.92436870E-01 0.21785354E+02</pdfrwt>
<pdfrwt beam="1">  1       -2 0.16301768E-03 0.21785354E+02</pdfrwt>
<totfact> 0.82024367E+05</totfact>
</mgrwt>
</event>
<event>
 4    1  0.7653521E+003  0.5304471E+02  0.7546771E-02  0.1429578E+00
          2   -1    0    0  501    0  0.00000000000E+00  0.00000000000E+00  0.94450602576E+03  0.94450602576E+03  0.00000000000E+00 0.  1.
         -2   -1    0    0    0  501 -0.00000000000E+00 -0.00000000000E+00 -0.66077804780E+01  0.66077804780E+01  0.00000000000E+00 0. -1.
          2    1    1    2  502    0  0.59061619099E+01  0.52714875693E+02  0.82136169817E+03  0.82307276719E+03  0.00000000000E+00 0.  1.
         -2    1    1    2    0  502 -0.59061619099E+01 -0.52714875693E+02  0.11653654711E+03  0.12804103905E+03  0.00000000000E+00 0. -1.
<mgrwt>
<rscale>  2 0.53044706E+02</rscale>
<asrwt>0</asrwt>
<pdfrwt beam="1">  1        2 0.14530851E+00 0.53044706E+02</pdfrwt>
<pdfrwt beam="2">  1       -2 0.10165824E-02 0.53044706E+02</pdfrwt>
<totfact> 0.49707542E+04</totfact>
</mgrwt>
</event>
<event>
 4    1  0.7653521E+003  0.3131423E+02  0.7546771E-02  0.1584000E+00
         -2   -1    0    0    0  501 -0.00000000000E+00  0.00000000000E+00  0.22194170576E+02  0.22194170576E+02  0.00000000000E+00 0. -1.
          2   -1    0    0  501    0  0.00000000000E+00 -0.00000000000E+00 -0.11762738337E+04  0.11762738337E+04  0.00000000000E+00 0.  1.
          2    1    1    2  502    0  0.30502147948E+02 -0.70851837728E+01 -0.11649122387E+04  0.11653330446E+04  0.00000000000E+00 0.  1.
         -2    1    1    2    0  502 -0.30502147948E+02  0.70851837728E+01  0.10832575616E+02  0.33134959681E+02  0.00000000000E+00 0. -1.
<mgrwt>
<rscale>  2 0.31314228E+02</rscale>
<asrwt>0</asrwt>
<pdfrwt beam="2">  1        2 0.18096522E+00 0.31314228E+02</pdfrwt>
<pdfrwt beam="1">  1       -2 0.34144876E-02 0.31314228E+02</pdfrwt>
<totfact> 0.64205311E+03</totfact>
</mgrwt>
</event>
<event>
 4    1  0.7653521E+003  0.2355947E+02  0.7546771E-02  0.1682599E+00
         -2   -1    0    0    0  501 -0.00000000000E+00  0.00000000000E+00  0.67249109380E+01  0.67249109380E+01  0.00000000000E+00 0. -1.
          2   -1    0    0  501    0  0.00000000000E+00 -0.00000000000E+00 -0.84220295020E+02  0.84220295020E+02  0.00000000000E+00 0. -1.
          2    1    1    2  502    0  0.21827427956E+02  0.88663496087E+01 -0.45177846809E+02  0.50951806728E+02  0.00000000000E+00 0. -1.
         -2    1    1    2    0  502 -0.21827427956E+02 -0.88663496087E+01 -0.32317537273E+02  0.39993399230E+02  0.00000000000E+00 0. -1.
<mgrwt>
<rscale>  2 0.23559473E+02</rscale>
<asrwt>0</asrwt>
<pdfrwt beam="2">  1        2 0.12956969E-01 0.23559473E+02</pdfrwt>
<pdfrwt beam="1">  1       -2 0.10346016E-02 0.23559473E+02</pdfrwt>
<totfact> 0.53345999E+05</totfact>
</mgrwt>
</event>
<event>
 4    1  0.7653521E+003  0.2115431E+02  0.7546771E-02  0.1723302E+00
         -2   -1    0    0    0  501 -0.00000000000E+00  0.00000000000E+00  0.10375609945E+03  0.10375609945E+03  0.00000000000E+00 0. -1.
          2   -1    0    0  501    0  0.00000000000E+00 -0.00000000000E+00 -0.11968303972E+04  0.11968303972E+04  0.00000000000E+00 0.  1.
          2    1    1    2  502    0  0.20317939323E+02  0.58894890948E+01 -0.11956576013E+04  0.11958447241E+04  0.00000000000E+00 0.  1.
         -2    1    1    2    0  502 -0.20317939323E+02 -0.58894890948E+01  0.10258330355E+03  0.10474177250E+03  0.00000000000E+00 0. -1.
<mgrwt>
<rscale>  2 0.21154308E+02</rscale>
<asrwt>0</asrwt>
<pdfrwt beam="2">  1        2 0.18412776E+00 0.21154308E+02</pdfrwt>
<pdfrwt beam="1">  1       -2 0.15962476E-01 0.21154308E+02</pdfrwt>
<totfact> 0.63872716E+02</totfact>
</mgrwt>
</event>
<event>
 4    1  0.7653521E+003  0.3665399E+02  0.7546771E-02  0.1534385E+00
          2   -1    0    0  501    0  0.00000000000E+00  0.00000000000E+00  0.30389566322E+02  0.30389566322E+02  0.00000000000E+00 0. -1.
         -2   -1    0    0    0  501 -0.00000000000E+00 -0.00000000000E+00 -0.12781435288E+03  0.12781435288E+03  0.00000000000E+00 0. -1.
          2    1    1    2  502    0 -0.34367467212E+02  0.12743311064E+02  0.15262939523E+02  0.39704812080E+02  0.00000000000E+00 0. -1.
         -2    1    1    2    0  502  0.34367467212E+02 -0.12743311064E+02 -0.11268772608E+03  0.11849910712E+03  0.00000000000E+00 0. -1.
<mgrwt>
<rscale>  2 0.36653987E+02</rscale>
<asrwt>0</asrwt>
<pdfrwt beam="1">  1        2 0.46753180E-02 0.36653987E+02</pdfrwt>
<pdfrwt beam="2">  1       -2 0.19663746E-01 0.36653987E+02</pdfrwt>
<totfact> 0.28140118E+04</totfact>
</mgrwt>
</event>
<event>
 4    1  0.7653521E+003  0.2900923E+02  0.7546771E-02  0.1609306E+00
          2   -1    0    0  501    0  0.00000000000E+00  0.00000000000E+00  0.34337272413E+03  0.34337272413E+03  0.00000000000E+00 0. -1.
         -2   -1    0    0    0  501 -0.00000000000E+00 -0.00000000000E+00 -0.25377383294E+01  0.25377383294E+01  0.00000000000E+00 0. -1.
          2    1    1    2  502    0 -0.28906013031E+02 -0.24449714157E+01  0.20243100843E+03  0.20449901870E+03  0.00000000000E+00 0. -1.
         -2    1    1    2    0  502  0.28906013031E+02  0.24449714157E+01  0.13840397736E+03  0.14141144375E+03  0.00000000000E+00 0. -1.
<mgrwt>
<rscale>  2 0.29009231E+02</rscale>
<asrwt>0</asrwt>
<pdfrwt beam="1">  1        2 0.52826536E-01 0.29009231E+02</pdfrwt>
<pdfrwt beam="2">  1       -2 0.39042155E-03 0.29009231E+02</pdfrwt>
<totfact> 0.48965611E+05</totfact>
</mgrwt>
</event>
<event>
 4    1  0.7653521E+003  0.2063581E+02  0.7546771E-02  0.1732972E+00
          2   -1    0    0  501    0  0.00000000000E+00  0.00000000000E+00  0.31590002540E+03  0.31590002540E+03  0.00000000000E+00 0.  1.
         -2   -1    0    0    0  501 -0.00000000000E+00 -0.00000000000E+00 -0.53901704650E+01  0.53901704650E+01  0.00000000000E+00 0.  1.
          2    1    1    2  502    0 -0.15405144391E+01  0.20578231132E+02  0.29436959964E+03  0.29509201611E+03  0.00000000000E+00 0.  1.
         -2    1    1    2    0  502  0.15405144391E+01 -0.20578231132E+02  0.16140255292E+02  0.26198179749E+02  0.00000000000E+00 0.  1.
<mgrwt>
<rscale>  2 0.20635813E+02</rscale>
<asrwt>0</asrwt>
<pdfrwt beam="1">  1        2 0.48599990E-01 0.20635813E+02</pdfrwt>
<pdfrwt beam="2">  1       -2 0.82925724E-03 0.20635813E+02</pdfrwt>
<totfact> 0.17602164E+05</totfact>
</mgrwt>
</event>
<event>
 4    1  0.7653521E+003  0.2983902E+02  0.7546771E-02  0.1599875E+00
          2   -1    0    0  501    0  0.00000000000E+00  0.00000000000E+00  0.14821513911E+03  0.14821513911E+03  0.00000000000E+00 0. -1.
         -2   -1    0    0    0  501 -0.00000000000E+00 -0.00000000000E+00 -0.64393453966E+02  0.64393453966E+02  0.00000000000E+00 0.  1.
          2    1    1    2  502    0 -0.27802609726E+02 -0.10834304402E+02  0.14313520054E+03  0.14621235547E+03  0.00000000000E+00 0. -1.
         -2    1    1    2    0  502  0.27802609726E+02  0.10834304402E+02 -0.59313515395E+02  0.66396237604E+02  0.00000000000E+00 0.  1.
<mgrwt>
<rscale>  2 0.29839022E+02</rscale>
<asrwt>0</asrwt>
<pdfrwt beam="1">  1        2 0.22802329E-01 0.29839022E+02</pdfrwt>
<pdfrwt beam="2">  1       -2 0.99066852E-02 0.29839022E+02</pdfrwt>
<totfact> 0.12619905E+04</totfact>
</mgrwt>
</event>
<event>
 4    1  0.7653521E+003  0.2392124E+02  0.7546771E-02  0.1676998E+00
         -2   -1    0    0    0  501 -0.00000000000E+00  0.00000000000E+00  0.24448467402E+01  0.24448467402E+01  0.00000000000E+00 0.  1.
          2   -1    0    0  501    0  0.00000000000E+00 -0.00000000000E+00 -0.11596105072E+04  0.11596105072E+04  0.00000000000E+00 0. -1.
          2    1    1    2  502    0 -0.20963203060E+02  0.11522589583E+02 -0.10976723232E+04  0.10979329466E+04  0.00000000000E+00 0. -1.
         -2    1    1    2    0  502  0.20963203060E+02 -0.11522589583E+02 -0.59493337182E+02  0.64122407334E+02  0.00000000000E+00 0.  1.
<mgrwt>
<rscale>  2 0.23921245E+02</rscale>
<asrwt>0</asrwt>
<pdfrwt beam="2">  1        2 0.17840155E+00 0.23921245E+02</pdfrwt>
<pdfrwt beam="1">  1       -2 0.37613042E-03 0.23921245E+02</pdfrwt>
<totfact> 0.12861666E+05</totfact>
</mgrwt>
</event>
<event>
 4    1  0.7653521E+003  0.2435241E+02  0.7546771E-02  0.1670481E+00
         -2   -1    0    0    0  501 -0.00000000000E+00  0.00000000000E+00  0.38143981881E+02  0.38143981881E+02  0.00000000000E+00 0.  1.
          2   -1    0    0  501    0  0.00000000000E+00 -0.00000000000E+00 -0.19273490950E+03  0.19273490950E+03  0.00000000000E+00 0. -1.
          2    1    1    2  502    0  0.22663109317E+02  0.89119901286E+01 -0.18798092561E+03  0.18955175674E+03  0.00000000000E+00 0. -1.
         -2    1    1    2    0  502 -0.22663109317E+02 -0.89119901286E+01  0.33389997987E+02  0.41327134639E+02  0.00000000000E+00 0.  1.
<mgrwt>
<rscale>  2 0.24352414E+02</rscale>
<asrwt>0</asrwt>
<pdfrwt beam="2">  1        2 0.29651524E-01 0.24352414E+02</pdfrwt>
<pdfrwt beam="1">  1       -2 0.58683050E-02 0.24352414E+02</pdfrwt>
<totfact> 0.20070689E+04</totfact>
</mgrwt>
</event>
<event>
 4    1  0.7653521E+003  0.2201374E+02  0.7546771E-02  0.1708014E+00
          2   -1    0    0  501    0  0.00000000000E+00  0.00000000000E+00  0.26280509222E+03  0.26280509222E+03  0.00000000000E+00 0. -1.
         -2   -1    0    0    0  501 -0.00000000000E+00 -0.00000000000E+00 -0.18549611804E+01  0.18549611804E+01  0.00000000000E+00 0. -1.
          2    1    1    2  502    0  0.21533841335E+02  0.45714743799E+01  0.14066129724E+03  0.14237347099E+03  0.00000000000E+00 0. -1.
         -2    1    1    2    0  502 -0.21533841335E+02 -0.45714743799E+01  0.12028883380E+03  0.12228658241E+03  0.00000000000E+00 0. -1.
<mgrwt>
<rscale>  2 0.22013739E+02</rscale>
<asrwt>0</asrwt>
<pdfrwt beam="1">  1        2 0.40431523E-01 0.22013739E+02</pdfrwt>
<pdfrwt beam="2">  1       -2 0.28537885E-03 0.22013739E+02</pdfrwt>
<totfact> 0.89300866E+05</totfact>
</mgrwt>
</event>
<event>
 4    1  0.7653521E+003  0.2812688E+02  0.7546771E-02  0.1619767E+00
         -2   -1    0    0    0  501 -0.00000000000E+00  0.00000000000E+00  0.12157020775E+03  0.12157020775E+03  0.00000000000E+00 0.  1.
          2   -1    0    0  501    0  0.00000000000E+00 -0.00000000000E+00 -0.21319156550E+03  0.21319156550E+03  0.00000000000E+00 0. -1.
          2    1    1    2  502    0 -0.19743481719E+02 -0.20032887425E+02 -0.21061717343E+03  0.21248697700E+03  0.00000000000E+00 0. -1.
         -2    1    1    2    0  502  0.19743481719E+02  0.20032887425E+02  0.11899581568E+03  0.12227479625E+03  0.00000000000E+00 0.  1.
<mgrwt>
<rscale>  2 0.28126885E+02</rscale>
<asrwt>0</asrwt>
<pdfrwt beam="2">  1        2 0.32798702E-01 0.28126885E+02</pdfrwt>
<pdfrwt beam="1">  1       -2 0.18703109E-01 0.28126885E+02</pdfrwt>
<totfact> 0.32138254E+03</totfact>
</mgrwt>
</event>
<event>
 4    1  0.7653521E+003  0.3459607E+02  0.7546771E-02  0.1552217E+00
          2   -1    0    0  501    0  0.00000000000E+00  0.00000000000E+00  0.87859389774E+02  0.87859389774E+02  0.00000000000E+00 0.  1.
         -2   -1    0    0    0  501 -0.00000000000E+00 -0.00000000000E+00 -0.26985120582E+02  0.26985120582E+02  0.00000000000E+00 0. -1.
          2    1    1    2  502    0 -0.12171174846E+02 -0.32384418613E+02  0.70844406495E+02  0.78840459142E+02  0.00000000000E+00 0.  1.
         -2    1    1    2    0  502  0.12171174846E+02  0.32384418613E+02 -0.99701373024E+01  0.36004051215E+02  0.00000000000E+00 0. -1.
<mgrwt>
<rscale>  2 0.34596070E+02</rscale>
<asrwt>0</asrwt>
<pdfrwt beam="1">  1        2 0.13516829E-01 0.34596070E+02</pdfrwt>
<pdfrwt beam="2">  1       -2 0.41515570E-02 0.34596070E+02</pdfrwt>
<totfact> 0.81709909E+04</totfact>
</mgrwt>
</event>
<event>
 4    1  0.7653521E+003  0.2454408E+02  0.7546771E-02  0.1667638E+00
         -2   -1    0    0    0  501 -0.00000000000E+00  0.00000000000E+00  0.26129568181E+01  0.26129568181E+01  0.00000000000E+00 0. -1.
          2   -1    0    0  501    0  0.00000000000E+00 -0.00000000000E+00 -0.15027014912E+04  0.15027014912E+04  0.00000000000E+00 0. -1.
          2    1    1    2  502    0  0.13960475777E+02  0.20187051573E+02 -0.14425615796E+04  0.14427703638E+04  0.00000000000E+00 0. -1.
         -2    1    1    2    0  502 -0.13960475777E+02 -0.20187051573E+02 -0.57526954804E+02  0.62544084166E+02  0.00000000000E+00 0. -1.
<mgrwt>
<rscale>  2 0.24544081E+02</rscale>
<asrwt>0</asrwt>
<pdfrwt beam="2">  1        2 0.23118460E+00 0.24544081E+02</pdfrwt>
<pdfrwt beam="1">  1       -2 0.40199379E-03 0.24544081E+02</pdfrwt>
<totfact> 0.80416593E+04</totfact>
</mgrwt>
</event>
<event>
 4    1  0.7653521E+003  0.2461743E+02  0.7546771E-02  0.1666558E+00
          2   -1    0    0  501    0  0.00000000000E+00  0.00000000000E+00  0.10715100964E+04  0.10715100964E+04  0.00000000000E+00 0. -1.
         -2   -1    0    0    0  501 -0.00000000000E+00 -0.00000000000E+00 -0.24982870428E+01  0.24982870428E+01  0.00000000000E+00 0.  1.
          2    1    1    2  502    0 -0.38495539047E+01  0.24314581184E+02  0.10068301410E+04  0.10071310494E+04  0.00000000000E+00 0. -1.
         -2    1    1    2    0  502  0.38495539047E+01 -0.24314581184E+02  0.62181668360E+02  0.66877334004E+02  0.00000000000E+00 0.  1.
<mgrwt>
<rscale>  2 0.24617431E+02</rscale>
<asrwt>0</asrwt>
<pdfrwt beam="1">  1        2 0.16484734E+00 0.24617431E+02</pdfrwt>
<pdfrwt beam="2">  1       -2 0.38435271E-03 0.24617431E+02</pdfrwt>
<totfact> 0.13963857E+05</totfact>
</mgrwt>
</event>
<event>
 4    1  0.7653521E+003  0.2122811E+02  0.7546771E-02  0.1721954E+00
         -2   -1    0    0    0  501 -0.00000000000E+00  0.00000000000E+00  0.20620009873E+02  0.20620009873E+02  0.00000000000E+00 0.  1.
          2   -1    0    0  501    0  0.00000000000E+00 -0.00000000000E+00 -0.14961009627E+04  0.14961009627E+04  0.00000000000E+00 0.  1.
          2    1    1    2  502    0  0.89907028195E+01 -0.19230179332E+02 -0.14905417510E+04  0.14906929073E+04  0.00000000000E+00 0.  1.
         -2    1    1    2    0  502 -0.89907028195E+01  0.19230179332E+02  0.15060798217E+02  0.26028065185E+02  0.00000000000E+00 0.  1.
<mgrwt>
<rscale>  2 0.21228107E+02</rscale>
<asrwt>0</asrwt>
<pdfrwt beam="2">  1        2 0.23016937E+00 0.21228107E+02</pdfrwt>
<pdfrwt beam="1">  1       -2 0.31723093E-02 0.21228107E+02</pdfrwt>
<totfact> 0.48122660E+03</totfact>
</mgrwt>
</event>
<event>
 4    1  0.7653521E+003  0.4769174E+02  0.7546771E-02  0.1458205E+00
         -2   -1    0    0    0  501 -0.00000000000E+00  0.00000000000E+00  0.42718315267E+02  0.42718315267E+02  0.00000000000E+00 0.  1.
          2   -1    0    0  501    0  0.00000000000E+00 -0.00000000000E+00 -0.13666503205E+04  0.13666503205E+04  0.00000000000E+00 0.  1.
          2    1    1    2  502    0  0.21989426130E+02 -0.42319815613E+02 -0.13527868327E+04  0.13536272442E+04  0.00000000000E+00 0.  1.
         -2    1    1    2    0  502 -0.21989426130E+02  0.42319815613E+02  0.28854827495E+02  0.55741391487E+02  0.00000000000E+00 0.  1.
<mgrwt>
<rscale>  2 0.47691736E+02</rscale>
<asrwt>0</asrwt>
<pdfrwt beam="2">  1        2 0.21025388E+00 0.47691736E+02</pdfrwt>
<pdfrwt beam="1">  1       -2 0.65720490E-02 0.47691736E+02</pdfrwt>
<totfact> 0.20396743E+03</totfact>
</mgrwt>
</event>
<event>
 4    1  0.7653521E+003  0.3388229E+02  0.7546771E-02  0.1558756E+00
         -2   -1    0    0    0  501 -0.00000000000E+00  0.00000000000E+00  0.80998071927E+02  0.80998071927E+02  0.00000000000E+00 0.  1.
          2   -1    0    0  501    0  0.00000000000E+00 -0.00000000000E+00 -0.27945419658E+03  0.27945419658E+03  0.00000000000E+00 0.  1.
          2    1    1    2  502    0  0.31474505589E+02  0.12544517649E+02 -0.27482439579E+03  0.27690514251E+03  0.00000000000E+00 0.  1.
         -2    1    1    2    0  502 -0.31474505589E+02 -0.12544517649E+02  0.76368271141E+02  0.83547125996E+02  0.00000000000E+00 0.  1.
<mgrwt>
<rscale>  2 0.33882288E+02</rscale>
<asrwt>0</asrwt>
<pdfrwt beam="2">  1        2 0.42992953E-01 0.33882288E+02</pdfrwt>
<pdfrwt beam="1">  1       -2 0.12461242E-01 0.33882288E+02</pdfrwt>
<totfact> 0.47179943E+03</totfact>
</mgrwt>
</event>
<event>
 4    1  0.7653521E+003  0.4992032E+02  0.7546771E-02  0.1445772E+00
         -2   -1    0    0    0  501 -0.00000000000E+00  0.00000000000E+00  0.17396231463E+04  0.17396231463E+04  0.00000000000E+00 0.  1.
          2   -1    0    0  501    0  0.00000000000E+00 -0.00000000000E+00 -0.14060740154E+02  0.14060740154E+02  0.00000000000E+00 0. -1.
          2    1    1    2  502    0  0.21997074482E+02  0.44812581262E+02  0.31805437191E+02  0.59191423028E+02  0.00000000000E+00 0. -1.
         -2    1    1    2    0  502 -0.21997074482E+02 -0.44812581262E+02  0.16937569690E+04  0.16944924634E+04  0.00000000000E+00 0.  1.
<mgrwt>
<rscale>  2 0.49920324E+02</rscale>
<asrwt>0</asrwt>
<pdfrwt beam="2">  1        2 0.21631922E-02 0.49920324E+02</pdfrwt>
<pdfrwt beam="1">  1       -2 0.26763416E+00 0.49920324E+02</pdfrwt>
<totfact> 0.26740420E+02</totfact>
</mgrwt>
</event>
<event>
 4    1  0.7653521E+003  0.3044739E+02  0.7546771E-02  0.1593195E+00
         -2   -1    0    0    0  501 -0.00000000000E+00  0.00000000000E+00  0.10473731308E+03  0.10473731308E+03  0.00000000000E+00 0.  1.
          2   -1    0    0  501    0  0.00000000000E+00 -0.00000000000E+00 -0.44990177623E+02  0.44990177623E+02  0.00000000000E+00 0.  1.
          2    1    1    2  502    0 -0.32341530951E+01 -0.30275137243E+02 -0.37223113937E+02  0.48089540365E+02  0.00000000000E+00 0.  1.
         -2    1    1    2    0  502  0.32341530951E+01  0.30275137243E+02  0.96970249398E+02  0.10163795034E+03  0.00000000000E+00 0.  1.
<mgrwt>
<rscale>  2 0.30447392E+02</rscale>
<asrwt>0</asrwt>
<pdfrwt beam="2">  1        2 0.69215658E-02 0.30447392E+02</pdfrwt>
<pdfrwt beam="1">  1       -2 0.16113433E-01 0.30447392E+02</pdfrwt>
<totfact> 0.23122007E+04</totfact>
</mgrwt>
</event>
<event>
 4    1  0.7653521E+003  0.2973029E+02  0.7546771E-02  0.1601089E+00
          2   -1    0    0  501    0  0.00000000000E+00  0.00000000000E+00  0.25398906388E+03  0.25398906388E+03  0.00000000000E+00 0. -1.
         -2   -1    0    0    0  501 -0.00000000000E+00 -0.00000000000E+00 -0.29057281111E+02  0.29057281111E+02  0.00000000000E+00 0. -1.
          2    1    1    2  502    0  0.25972971717E+02 -0.14467036419E+02  0.24524415152E+03  0.24703964107E+03  0.00000000000E+00 0. -1.
         -2    1    1    2    0  502 -0.25972971717E+02  0.14467036419E+02 -0.20312368758E+02  0.36006703920E+02  0.00000000000E+00 0. -1.
<mgrwt>
<rscale>  2 0.29730294E+02</rscale>
<asrwt>0</asrwt>
<pdfrwt beam="1">  1        2 0.39075239E-01 0.29730294E+02</pdfrwt>
<pdfrwt beam="2">  1       -2 0.44703511E-02 0.29730294E+02</pdfrwt>
<totfact> 0.23186655E+04</totfact>
</mgrwt>
</event>
<event>
 4    1  0.7653521E+003  0.2303945E+02  0.7546771E-02  0.1690872E+00
         -2   -1    0    0    0  501 -0.00000000000E+00  0.00000000000E+00  0.27543630953E+03  0.27543630953E+03  0.00000000000E+00 0. -1.
          2   -1    0    0  501    0  0.00000000000E+00 -0.00000000000E+00 -0.12892095685E+04  0.12892095685E+04  0.00000000000E+00 0.  1.
          2    1    1    2  502    0 -0.22091732749E+01  0.22933286834E+02 -0.12886246197E+04  0.12888305655E+04  0.00000000000E+00 0.  1.
         -2    1    1    2    0  502  0.22091732749E+01 -0.22933286834E+02  0.27485136076E+03  0.27581531249E+03  0.00000000000E+00 0. -1.
<mgrwt>
<rscale>  2 0.23039446E+02</rscale>
<asrwt>0</asrwt>
<pdfrwt beam="2">  1        2 0.19833994E+00 0.23039446E+02</pdfrwt>
<pdfrwt beam="1">  1       -2 0.42374816E-01 0.23039446E+02</pdfrwt>
<totfact> 0.11114867E+02</totfact>
</mgrwt>
</event>
<event>
 4    1  0.7653521E+003  0.2167182E+02  0.7546771E-02  0.1713990E+00
          2   -1    0    0  501    0  0.00000000000E+00  0.00000000000E+00  0.76760511719E+01  0.76760511719E+01  0.00000000000E+00 0.  1.
         -2   -1    0    0    0  501 -0.00000000000E+00 -0.00000000000E+00 -0.63294887043E+02  0.63294887043E+02  0.00000000000E+00 0.  1.
          2    1    1    2  502    0  0.83336592421E+01 -0.20005444336E+02 -0.21332297128E+02  0.30409448863E+02  0.00000000000E+00 0.  1.
         -2    1    1    2    0  502 -0.83336592421E+01  0.20005444336E+02 -0.34286538744E+02  0.40561489352E+02  0.00000000000E+00 0.  1.
<mgrwt>
<rscale>  2 0.21671818E+02</rscale>
<asrwt>0</asrwt>
<pdfrwt beam="1">  1        2 0.11809309E-02 0.21671818E+02</pdfrwt>
<pdfrwt beam="2">  1       -2 0.97376756E-02 0.21671818E+02</pdfrwt>
<totfact> 0.42813612E+05</totfact>
</mgrwt>
</event>
<event>
 4    1  0.7653521E+003  0.2130043E+02  0.7546771E-02  0.1720639E+00
         -2   -1    0    0    0  501 -0.00000000000E+00  0.00000000000E+00  0.29841906005E+02  0.29841906005E+02  0.00000000000E+00 0.  1.
          2   -1    0    0  501    0  0.00000000000E+00 -0.00000000000E+00 -0.11011149643E+04  0.11011149643E+04  0.00000000000E+00 0. -1.
          2    1    1    2  502    0 -0.18441943773E+02 -0.10658462314E+02 -0.10971974523E+04  0.10974041906E+04  0.00000000000E+00 0. -1.
         -2    1    1    2    0  502  0.18441943773E+02  0.10658462314E+02  0.25924394047E+02  0.33552679710E+02  0.00000000000E+00 0.  1.
<mgrwt>
<rscale>  2 0.21300425E+02</rscale>
<asrwt>0</asrwt>
<pdfrwt beam="2">  1        2 0.16940227E+00 0.21300425E+02</pdfrwt>
<pdfrwt beam="1">  1       -2 0.45910633E-02 0.21300425E+02</pdfrwt>
<totfact> 0.44739271E+03</totfact>
</mgrwt>
</event>
<event>
 4    1  0.7653521E+003  0.3190528E+02  0.7546771E-02  0.1577935E+00
          2   -1    0    0  501    0  0.00000000000E+00  0.00000000000E+00  0.62964919034E+03  0.62964919034E+03  0.00000000000E+00 0. -1.
         -2   -1    0    0    0  501 -0.00000000000E+00 -0.00000000000E+00 -0.49278140178E+02  0.49278140178E+02  0.00000000000E+00 0. -1.
          2    1    1    2  502    0 -0.12896081714E+02  0.29182841806E+02  0.62403428748E+03  0.62484937315E+03  0.00000000000E+00 0. -1.
         -2    1    1    2    0  502  0.12896081714E+02 -0.29182841806E+02 -0.43663237319E+02  0.54077957364E+02  0.00000000000E+00 0. -1.
<mgrwt>
<rscale>  2 0.31905285E+02</rscale>
<asrwt>0</asrwt>
<pdfrwt beam="1">  1        2 0.96869100E-01 0.31905285E+02</pdfrwt>
<pdfrwt beam="2">  1       -2 0.75812528E-02 0.31905285E+02</pdfrwt>
<totfact> 0.43271763E+03</totfact>
</mgrwt>
</event>
<event>
 4    1  0.7653521E+003  0.2681180E+02  0.7546771E-02  0.1636264E+00
          2   -1    0    0  501    0  0.00000000000E+00  0.00000000000E+00  0.13364494442E+03  0.13364494442E+03  0.00000000000E+00 0. -1.
         -2   -1    0    0    0  501 -0.00000000000E+00 -0.00000000000E+00 -0.82970194999E+01  0.82970194999E+01  0.00000000000E+00 0.  1.
          2    1    1    2  502    0  0.14291224342E+02  0.22685537575E+02  0.10476268781E+03  0.10813923186E+03  0.00000000000E+00 0. -1.
         -2    1    1    2    0  502 -0.14291224342E+02 -0.22685537575E+02  0.20585237104E+02  0.33802732063E+02  0.00000000000E+00 0.  1.
<mgrwt>
<rscale>  2 0.26811802E+02</rscale>
<asrwt>0</asrwt>
<pdfrwt beam="1">  1        2 0.20560759E-01 0.26811802E+02</pdfrwt>
<pdfrwt beam="2">  1       -2 0.12764646E-02 0.26811802E+02</pdfrwt>
<totfact> 0.25144781E+05</totfact>
</mgrwt>
</event>
<event>
 4    1  0.7653521E+003  0.2169993E+02  0.7546771E-02  0.1713494E+00
         -2   -1    0    0    0  501 -0.00000000000E+00  0.00000000000E+00  0.30281658173E+03  0.30281658173E+03  0.00000000000E+00 0.  1.
          2   -1    0    0  501    0  0.00000000000E+00 -0.00000000000E+00 -0.23441694484E+01  0.23441694484E+01  0.00000000000E+00 0.  1.
          2    1    1    2  502    0 -0.21682462325E+02 -0.87045642822E+00  0.61707753124E+02  0.65412029952E+02  0.00000000000E+00 0.  1.
         -2    1    1    2    0  502  0.21682462325E+02  0.87045642822E+00  0.23876465916E+03  0.23974872122E+03  0.00000000000E+00 0.  1.
<mgrwt>
<rscale>  2 0.21699928E+02</rscale>
<asrwt>0</asrwt>
<pdfrwt beam="2">  1        2 0.36064169E-03 0.21699928E+02</pdfrwt>
<pdfrwt beam="1">  1       -2 0.46587135E-01 0.21699928E+02</pdfrwt>
<totfact> 0.15469669E+05</totfact>
</mgrwt>
</event>
<event>
 4    1  0.7653521E+003  0.2323768E+02  0.7546771E-02  0.1687686E+00
         -2   -1    0    0    0  501 -0.00000000000E+00  0.00000000000E+00  0.42179852509E+00  0.42179852509E+00  0.00000000000E+00 0. -1.
          2   -1    0    0  501    0  0.00000000000E+00 -0.00000000000E+00 -0.16400103526E+04  0.16400103526E+04  0.00000000000E+00 0.  1.
          2    1    1    2  502    0  0.35000431502E+01 -0.22972572618E+02 -0.43561173360E+03  0.43623109913E+03  0.00000000000E+00 0.  1.
         -2    1    1    2    0  502 -0.35000431502E+01  0.22972572618E+02 -0.12039768205E+04  0.12042010520E+04  0.00000000000E+00 0. -1.
<mgrwt>
<rscale>  2 0.23237684E+02</rscale>
<asrwt>0</asrwt>
<pdfrwt beam="2">  1        2 0.25230627E+00 0.23237684E+02</pdfrwt>
<pdfrwt beam="1">  1       -2 0.64892855E-04 0.23237684E+02</pdfrwt>
<totfact> 0.76692349E+05</totfact>
</mgrwt>
</event>
<event>
 4    1  0.7653521E+003  0.2885426E+02  0.7546771E-02  0.1611110E+00
          2   -1    0    0  501    0  0.00000000000E+00  0.00000000000E+00  0.10478000434E+04  0.10478000434E+04  0.00000000000E+00 0.  1.
         -2   -1    0    0    0  501 -0.00000000000E+00 -0.00000000000E+00 -0.45365294325E+01  0.45365294325E+01  0.00000000000E+00 0.  1.
          2    1    1    2  502    0 -0.22300578020E+02  0.18309902204E+02  0.99950350175E+03  0.99991990594E+03  0.00000000000E+00 0.  1.
         -2    1    1    2    0  502  0.22300578020E+02 -0.18309902204E+02  0.43760012254E+02  0.52416666922E+02  0.00000000000E+00 0.  1.
<mgrwt>
<rscale>  2 0.28854260E+02</rscale>
<asrwt>0</asrwt>
<pdfrwt beam="1">  1        2 0.16119981E+00 0.28854260E+02</pdfrwt>
<pdfrwt beam="2">  1       -2 0.69792844E-03 0.28854260E+02</pdfrwt>
<totfact> 0.66374626E+04</totfact>
</mgrwt>
</event>
<event>
 4    1  0.7653521E+003  0.2406670E+02  0.7546771E-02  0.1674781E+00
          2   -1    0    0  501    0  0.00000000000E+00  0.00000000000E+00  0.14753439101E+04  0.14753439101E+04  0.00000000000E+00 0. -1.
         -2   -1    0    0    0  501 -0.00000000000E+00 -0.00000000000E+00 -0.10996603250E+01  0.10996603250E+01  0.00000000000E+00 0. -1.
          2    1    1    2  502    0 -0.19241530614E+02 -0.14455775229E+02  0.13290771948E+04  0.13292950747E+04  0.00000000000E+00 0. -1.
         -2    1    1    2    0  502  0.19241530614E+02  0.14455775229E+02  0.14516705492E+03  0.14714849565E+03  0.00000000000E+00 0. -1.
<mgrwt>
<rscale>  2 0.24066698E+02</rscale>
<asrwt>0</asrwt>
<pdfrwt beam="1">  1        2 0.22697440E+00 0.24066698E+02</pdfrwt>
<pdfrwt beam="2">  1       -2 0.16917969E-03 0.24066698E+02</pdfrwt>
<totfact> 0.26137492E+05</totfact>
</mgrwt>
</event>
<event>
 4    1  0.7653521E+003  0.2143485E+02  0.7546771E-02  0.1718213E+00
         -2   -1    0    0    0  501 -0.00000000000E+00  0.00000000000E+00  0.30025399583E+00  0.30025399583E+00  0.00000000000E+00 0. -1.
          2   -1    0    0  501    0  0.00000000000E+00 -0.00000000000E+00 -0.17549878900E+04  0.17549878900E+04  0.00000000000E+00 0. -1.
          2    1    1    2  502    0  0.74701328788E+01  0.20091044224E+02 -0.11914337752E+04  0.11916265748E+04  0.00000000000E+00 0. -1.
         -2    1    1    2    0  502 -0.74701328788E+01 -0.20091044224E+02 -0.56325386075E+03  0.56366156920E+03  0.00000000000E+00 0. -1.
<mgrwt>
<rscale>  2 0.21434853E+02</rscale>
<asrwt>0</asrwt>
<pdfrwt beam="2">  1        2 0.27000086E+00 0.21434853E+02</pdfrwt>
<pdfrwt beam="1">  1       -2 0.46192457E-04 0.21434853E+02</pdfrwt>
<totfact> 0.10358658E+06</totfact>
</mgrwt>
</event>
<event>
 4    1  0.7653521E+003  0.2113083E+02  0.7546771E-02  0.1723732E+00
         -2   -1    0    0    0  501 -0.00000000000E+00  0.00000000000E+00  0.21573932513E+03  0.21573932513E+03  0.00000000000E+00 0. -1.
          2   -1    0    0  501    0  0.00000000000E+00 -0.00000000000E+00 -0.71088163590E+01  0.71088163590E+01  0.00000000000E+00 0.  1.
          2    1    1    2  502    0 -0.89755319787E+00 -0.21111757695E+02  0.10503270792E+02  0.23597258570E+02  0.00000000000E+00 0.  1.
         -2    1    1    2    0  502  0.89755319787E+00  0.21111757695E+02  0.19812723797E+03  0.19925088291E+03  0.00000000000E+00 0. -1.
<mgrwt>
<rscale>  2 0.21130829E+02</rscale>
<asrwt>0</asrwt>
<pdfrwt beam="2">  1        2 0.10936642E-02 0.21130829E+02</pdfrwt>
<pdfrwt beam="1">  1       -2 0.33190660E-01 0.21130829E+02</pdfrwt>
<totfact> 0.66507871E+04</totfact>
</mgrwt>
</event>
<event>
 4    1  0.7653521E+003  0.3984479E+02  0.7546771E-02  0.1509357E+00
         -2   -1    0    0    0  501 -0.00000000000E+00  0.00000000000E+00  0.56935168602E+02  0.56935168602E+02  0.00000000000E+00 0.  1.
          2   -1    0    0  501    0  0.00000000000E+00 -0.00000000000E+00 -0.27907385222E+02  0.27907385222E+02  0.00000000000E+00 0.  1.
          2    1    1    2  502    0  0.14979591567E+02 -0.36921794771E+02  0.13298347041E+02  0.42005394018E+02  0.00000000000E+00 0.  1.
         -2    1    1    2    0  502 -0.14979591567E+02  0.36921794771E+02  0.15729436339E+02  0.42837159805E+02  0.00000000000E+00 0.  1.
<mgrwt>
<rscale>  2 0.39844788E+02</rscale>
<asrwt>0</asrwt>
<pdfrwt beam="2">  1        2 0.42934439E-02 0.39844788E+02</pdfrwt>
<pdfrwt beam="1">  1       -2 0.87592567E-02 0.39844788E+02</pdfrwt>
<totfact> 0.11235374E+05</totfact>
</mgrwt>
</event>
<event>
 4    1  0.7653521E+003  0.2104788E+02  0.7546771E-02  0.1725258E+00
         -2   -1    0    0    0  501 -0.00000000000E+00  0.00000000000E+00  0.25745746198E+01  0.25745746198E+01  0.00000000000E+00 0. -1.
          2   -1    0    0  501    0  0.00000000000E+00 -0.00000000000E+00 -0.23414038415E+03  0.23414038415E+03  0.00000000000E+00 0. -1.
          2    1    1    2  502    0  0.81134560710E+01 -0.19421244805E+02 -0.54844400244E+02  0.58744541511E+02  0.00000000000E+00 0. -1.
         -2    1    1    2    0  502 -0.81134560710E+01  0.19421244805E+02 -0.17672140928E+03  0.17797041726E+03  0.00000000000E+00 0. -1.
<mgrwt>
<rscale>  2 0.21047883E+02</rscale>
<asrwt>0</asrwt>
<pdfrwt beam="2">  1        2 0.36021593E-01 0.21047883E+02</pdfrwt>
<pdfrwt beam="1">  1       -2 0.39608846E-03 0.21047883E+02</pdfrwt>
<totfact> 0.63811945E+05</totfact>
</mgrwt>
</event>
<event>
 4    1  0.7653521E+003  0.2562735E+02  0.7546771E-02  0.1652151E+00
          2   -1    0    0  501    0  0.00000000000E+00  0.00000000000E+00  0.39272927718E+03  0.39272927718E+03  0.00000000000E+00 0.  1.
         -2   -1    0    0    0  501 -0.00000000000E+00 -0.00000000000E+00 -0.59844159837E+02  0.59844159837E+02  0.00000000000E+00 0.  1.
          2    1    1    2  502    0 -0.19562286857E+02  0.16555300193E+02  0.38954516987E+03  0.39038724415E+03  0.00000000000E+00 0.  1.
         -2    1    1    2    0  502  0.19562286857E+02 -0.16555300193E+02 -0.56660052520E+02  0.62186192866E+02  0.00000000000E+00 0.  1.
<mgrwt>
<rscale>  2 0.25627349E+02</rscale>
<asrwt>0</asrwt>
<pdfrwt beam="1">  1        2 0.60419887E-01 0.25627349E+02</pdfrwt>
<pdfrwt beam="2">  1       -2 0.92067941E-02 0.25627349E+02</pdfrwt>
<totfact> 0.51558567E+03</totfact>
</mgrwt>
</event>
<event>
 4    1  0.7653521E+003  0.2072297E+02  0.7546771E-02  0.1731322E+00
         -2   -1    0    0    0  501 -0.00000000000E+00  0.00000000000E+00  0.72459357245E+02  0.72459357245E+02  0.00000000000E+00 0.  1.
          2   -1    0    0  501    0  0.00000000000E+00 -0.00000000000E+00 -0.35189066519E+03  0.35189066519E+03  0.00000000000E+00 0. -1.
          2    1    1    2  502    0  0.12031146839E+02 -0.16872846656E+02 -0.35009631889E+03  0.35070910161E+03  0.00000000000E+00 0. -1.
         -2    1    1    2    0  502 -0.12031146839E+02  0.16872846656E+02  0.70665010946E+02  0.73640920829E+02  0.00000000000E+00 0.  1.
<mgrwt>
<rscale>  2 0.20722969E+02</rscale>
<asrwt>0</asrwt>
<pdfrwt beam="2">  1        2 0.54137025E-01 0.20722969E+02</pdfrwt>
<pdfrwt beam="1">  1       -2 0.11147594E-01 0.20722969E+02</pdfrwt>
<totfact> 0.42162102E+03</totfact>
</mgrwt>
</event>
<event>
 4    1  0.7653521E+003  0.2484847E+02  0.7546771E-02  0.1663188E+00
         -2   -1    0    0    0  501 -0.00000000000E+00  0.00000000000E+00  0.75233117233E+00  0.75233117233E+00  0.00000000000E+00 0.  1.
          2   -1    0    0  501    0  0.00000000000E+00 -0.00000000000E+00 -0.15485935959E+04  0.15485935959E+04  0.00000000000E+00 0. -1.
          2    1    1    2  502    0 -0.19980253553E+02  0.14772802617E+02 -0.13050256841E+04  0.13052622274E+04  0.00000000000E+00 0. -1.
         -2    1    1    2    0  502  0.19980253553E+02 -0.14772802617E+02 -0.24281558067E+03  0.24408369967E+03  0.00000000000E+00 0.  1.
<mgrwt>
<rscale>  2 0.24848465E+02</rscale>
<asrwt>0</asrwt>
<pdfrwt beam="2">  1        2 0.23824377E+00 0.24848465E+02</pdfrwt>
<pdfrwt beam="1">  1       -2 0.11574394E-03 0.24848465E+02</pdfrwt>
<totfact> 0.40176473E+05</totfact>
</mgrwt>
</event>
<event>
 4    1  0.7653521E+003  0.2095871E+02  0.7546771E-02  0.1726909E+00
          2   -1    0    0  501    0  0.00000000000E+00  0.00000000000E+00  0.20345266706E+03  0.20345266706E+03  0.00000000000E+00 0.  1.
         -2   -1    0    0    0  501 -0.00000000000E+00 -0.00000000000E+00 -0.28502137692E+02  0.28502137692E+02  0.00000000000E+00 0. -1.
          2    1    1    2  502    0 -0.18961610462E+02  0.89288712956E+01  0.19897347087E+03  0.20007426002E+03  0.00000000000E+00 0.  1.
         -2    1    1    2    0  502  0.18961610462E+02 -0.89288712956E+01 -0.24022941501E+02  0.31880544730E+02  0.00000000000E+00 0. -1.
<mgrwt>
<rscale>  2 0.20958707E+02</rscale>
<asrwt>0</asrwt>
<pdfrwt beam="1">  1        2 0.31300409E-01 0.20958707E+02</pdfrwt>
<pdfrwt beam="2">  1       -2 0.43849444E-02 0.20958707E+02</pdfrwt>
<totfact> 0.27960289E+04</totfact>
</mgrwt>
</event>
<event>
 4    1  0.7653521E+003  0.3231364E+02  0.7546771E-02  0.1573838E+00
          2   -1    0    0  501    0  0.00000000000E+00  0.00000000000E+00  0.49534337155E+03  0.49534337155E+03  0.00000000000E+00 0. -1.
         -2   -1    0    0    0  501 -0.00000000000E+00 -0.00000000000E+00 -0.12690137167E+02  0.12690137167E+02  0.00000000000E+00 0. -1.
          2    1    1    2  502    0 -0.30298638121E+02 -0.11232267542E+02  0.47328838849E+03  0.47439020857E+03  0.00000000000E+00 0. -1.
         -2    1    1    2    0  502  0.30298638121E+02  0.11232267542E+02  0.93648458890E+01  0.33643300145E+02  0.00000000000E+00 0. -1.
<mgrwt>
<rscale>  2 0.32313640E+02</rscale>
<asrwt>0</asrwt>
<pdfrwt beam="1">  1        2 0.76206658E-01 0.32313640E+02</pdfrwt>
<pdfrwt beam="2">  1       -2 0.19523292E-02 0.32313640E+02</pdfrwt>
<totfact> 0.38488073E+04</totfact>
</mgrwt>
</event>
<event>
 4    1  0.7653521E+003  0.2233363E+02  0.7546771E-02  0.1702545E+00
          2   -1    0    0  501    0  0.00000000000E+00  0.00000000000E+00  0.11156810892E+04  0.11156810892E+04  0.00000000000E+00 0. -1.
         -2   -1    0    0    0  501 -0.00000000000E+00 -0.00000000000E+00 -0.42501165757E+01  0.42501165757E+01  0.00000000000E+00 0.  1.
          2    1    1    2  502    0 -0.31703298824E+01  0.22107468189E+02  0.10854113324E+04  0.10856410786E+04  0.00000000000E+00 0. -1.
         -2    1    1    2    0  502  0.31703298824E+01 -0.22107468189E+02  0.26019640233E+02  0.34290127138E+02  0.00000000000E+00 0.  1.
<mgrwt>
<rscale>  2 0.22333633E+02</rscale>
<asrwt>0</asrwt>
<pdfrwt beam="1">  1        2 0.17164301E+00 0.22333633E+02</pdfrwt>
<pdfrwt beam="2">  1       -2 0.65386498E-03 0.22333633E+02</pdfrwt>
<totfact> 0.63694803E+04</totfact>
</mgrwt>
</event>
<event>
 4    1  0.7653521E+003  0.2020135E+02  0.7546771E-02  0.1741353E+00
          2   -1    0    0  501    0  0.00000000000E+00  0.00000000000E+00  0.10018328869E+04  0.10018328869E+04  0.00000000000E+00 0. -1.
         -2   -1    0    0    0  501 -0.00000000000E+00 -0.00000000000E+00 -0.49146920749E+02  0.49146920749E+02  0.00000000000E+00 0.  1.
          2    1    1    2  502    0 -0.13862865508E+02 -0.14694068349E+02  0.99965062721E+03  0.99985472503E+03  0.00000000000E+00 0. -1.
         -2    1    1    2    0  502  0.13862865508E+02  0.14694068349E+02 -0.46964661057E+02  0.51125082620E+02  0.00000000000E+00 0.  1.
<mgrwt>
<rscale>  2 0.20201354E+02</rscale>
<asrwt>0</asrwt>
<pdfrwt beam="1">  1        2 0.15412812E+00 0.20201354E+02</pdfrwt>
<pdfrwt beam="2">  1       -2 0.75610654E-02 0.20201354E+02</pdfrwt>
<totfact> 0.24637400E+03</totfact>
</mgrwt>
</event>
<event>
 4    1  0.7653521E+003  0.2061552E+02  0.7546771E-02  0.1733358E+00
          2   -1    0    0  501    0  0.00000000000E+00  0.00000000000E+00  0.16587086089E+03  0.16587086089E+03  0.00000000000E+00 0. -1.
         -2   -1    0    0    0  501 -0.00000000000E+00 -0.00000000000E+00 -0.11695342231E+03  0.11695342231E+03  0.00000000000E+00 0.  1.
          2    1    1    2  502    0  0.71279261228E+00  0.20603193670E+02  0.16431324386E+03  0.16560145462E+03  0.00000000000E+00 0. -1.
         -2    1    1    2    0  502 -0.71279261228E+00 -0.20603193670E+02 -0.11539580529E+03  0.11722282858E+03  0.00000000000E+00 0.  1.
<mgrwt>
<rscale>  2 0.20615520E+02</rscale>
<asrwt>0</asrwt>
<pdfrwt beam="1">  1        2 0.25518594E-01 0.20615520E+02</pdfrwt>
<pdfrwt beam="2">  1       -2 0.17992834E-01 0.20615520E+02</pdfrwt>
<totfact> 0.42610719E+03</totfact>
</mgrwt>
</event>
<event>
 4    1  0.7653521E+003  0.7438666E+02  0.7546771E-02  0.1345781E+00
          2   -1    0    0  501    0  0.00000000000E+00  0.00000000000E+00  0.40078184032E+03  0.40078184032E+03  0.00000000000E+00 0. -1.
         -2   -1    0    0    0  501 -0.00000000000E+00 -0.00000000000E+00 -0.22609575832E+03  0.22609575832E+03  0.00000000000E+00 0. -1.
          2    1    1    2  502    0 -0.74058543188E+02 -0.69791140027E+01  0.39106109251E+03  0.39807305100E+03  0.00000000000E+00 0. -1.
         -2    1    1    2    0  502  0.74058543188E+02  0.69791140027E+01 -0.21637501051E+03  0.22880454765E+03  0.00000000000E+00 0. -1.
<mgrwt>
<rscale>  2 0.74386664E+02</rscale>
<asrwt>0</asrwt>
<pdfrwt beam="1">  1        2 0.61658745E-01 0.74386664E+02</pdfrwt>
<pdfrwt beam="2">  1       -2 0.34783963E-01 0.74386664E+02</pdfrwt>
<totfact> 0.61639666E+02</totfact>
</mgrwt>
</event>
<event>
 4    1  0.7653521E+003  0.2277011E+02  0.7546771E-02  0.1695264E+00
         -2   -1    0    0    0  501 -0.00000000000E+00  0.00000000000E+00  0.18206793868E+01  0.18206793868E+01  0.00000000000E+00 0. -1.
          2   -1    0    0  501    0  0.00000000000E+00 -0.00000000000E+00 -0.28478961896E+03  0.28478961896E+03  0.00000000000E+00 0. -1.
          2    1    1    2  502    0  0.21400154000E+02 -0.77788729571E+01 -0.14033891961E+03  0.14217415312E+03  0.00000000000E+00 0. -1.
         -2    1    1    2    0  502 -0.21400154000E+02  0.77788729571E+01 -0.14263001996E+03  0.14443614523E+03  0.00000000000E+00 0. -1.
<mgrwt>
<rscale>  2 0.22770111E+02</rscale>
<asrwt>0</asrwt>
<pdfrwt beam="2">  1        2 0.43813790E-01 0.22770111E+02</pdfrwt>
<pdfrwt beam="1">  1       -2 0.28010450E-03 0.22770111E+02</pdfrwt>
<totfact> 0.85508317E+05</totfact>
</mgrwt>
</event>
<event>
 4    1  0.7653521E+003  0.9985678E+02  0.7546771E-02  0.1280597E+00
          2   -1    0    0  501    0  0.00000000000E+00  0.00000000000E+00  0.29706592346E+04  0.29706592346E+04  0.00000000000E+00 0. -1.
         -2   -1    0    0    0  501 -0.00000000000E+00 -0.00000000000E+00 -0.66689087541E+02  0.66689087541E+02  0.00000000000E+00 0. -1.
          2    1    1    2  502    0  0.99816735318E+02 -0.28276803115E+01  0.29319465753E+04  0.29336465528E+04  0.00000000000E+00 0. -1.
         -2    1    1    2    0  502 -0.99816735318E+02  0.28276803115E+01 -0.27976428237E+02  0.10370176933E+03  0.00000000000E+00 0. -1.
<mgrwt>
<rscale>  2 0.99856780E+02</rscale>
<asrwt>0</asrwt>
<pdfrwt beam="1">  1        2 0.45702440E+00 0.99856780E+02</pdfrwt>
<pdfrwt beam="2">  1       -2 0.10259862E-01 0.99856780E+02</pdfrwt>
<totfact> 0.15200493E+02</totfact>
</mgrwt>
</event>
<event>
 4    1  0.7653521E+003  0.2290273E+02  0.7546771E-02  0.1693092E+00
         -2   -1    0    0    0  501 -0.00000000000E+00  0.00000000000E+00  0.10321024073E+01  0.10321024073E+01  0.00000000000E+00 0.  1.
          2   -1    0    0  501    0  0.00000000000E+00 -0.00000000000E+00 -0.14993272672E+04  0.14993272672E+04  0.00000000000E+00 0. -1.
          2    1    1    2  502    0  0.22757040562E+02  0.25791557368E+01 -0.13590739950E+04  0.13592669564E+04  0.00000000000E+00 0. -1.
         -2    1    1    2    0  502 -0.22757040562E+02 -0.25791557368E+01 -0.13922116977E+03  0.14109241316E+03  0.00000000000E+00 0.  1.
<mgrwt>
<rscale>  2 0.22902728E+02</rscale>
<asrwt>0</asrwt>
<pdfrwt beam="2">  1        2 0.23066561E+00 0.22902728E+02</pdfrwt>
<pdfrwt beam="1">  1       -2 0.15878507E-03 0.22902728E+02</pdfrwt>
<totfact> 0.27379100E+05</totfact>
</mgrwt>
</event>
<event>
 4    1  0.7653521E+003  0.2150696E+02  0.7546771E-02  0.1716921E+00
          2   -1    0    0  501    0  0.00000000000E+00  0.00000000000E+00  0.40653127246E+02  0.40653127246E+02  0.00000000000E+00 0.  1.
         -2   -1    0    0    0  501 -0.00000000000E+00 -0.00000000000E+00 -0.19676824074E+03  0.19676824074E+03  0.00000000000E+00 0. -1.
          2    1    1    2  502    0 -0.63829992563E+01  0.20537934816E+02  0.37169851354E+02  0.42943536134E+02  0.00000000000E+00 0.  1.
         -2    1    1    2    0  502  0.63829992563E+01 -0.20537934816E+02 -0.19328496485E+03  0.19447783186E+03  0.00000000000E+00 0. -1.
<mgrwt>
<rscale>  2 0.21506963E+02</rscale>
<asrwt>0</asrwt>
<pdfrwt beam="1">  1        2 0.62543272E-02 0.21506963E+02</pdfrwt>
<pdfrwt beam="2">  1       -2 0.30272037E-01 0.21506963E+02</pdfrwt>
<totfact> 0.87272112E+03</totfact>
</mgrwt>
</event>
<event>
 4    1  0.7653521E+003  0.4270509E+02  0.7546771E-02  0.1489199E+00
         -2   -1    0    0    0  501 -0.00000000000E+00  0.00000000000E+00  0.18283999525E+03  0.18283999525E+03  0.00000000000E+00 0. -1.
          2   -1    0    0  501    0  0.00000000000E+00 -0.00000000000E+00 -0.23589542785E+03  0.23589542785E+03  0.00000000000E+00 0. -1.
          2    1    1    2  502    0  0.46881659447E+01  0.42446976237E+02 -0.23142124567E+03  0.23532853129E+03  0.00000000000E+00 0. -1.
         -2    1    1    2    0  502 -0.46881659447E+01 -0.42446976237E+02  0.17836581307E+03  0.18340689181E+03  0.00000000000E+00 0. -1.
<mgrwt>
<rscale>  2 0.42705090E+02</rscale>
<asrwt>0</asrwt>
<pdfrwt beam="2">  1        2 0.36291604E-01 0.42705090E+02</pdfrwt>
<pdfrwt beam="1">  1       -2 0.28129230E-01 0.42705090E+02</pdfrwt>
<totfact> 0.15183944E+03</totfact>
</mgrwt>
</event>
<event>
 4    1  0.7653521E+003  0.2019829E+02  0.7546771E-02  0.1741413E+00
          2   -1    0    0  501    0  0.00000000000E+00  0.00000000000E+00  0.20693185246E+01  0.20693185246E+01  0.00000000000E+00 0. -1.
         -2   -1    0    0    0  501 -0.00000000000E+00 -0.00000000000E+00 -0.24349111271E+03  0.24349111271E+03  0.00000000000E+00 0. -1.
          2    1    1    2  502    0 -0.19905890301E+02 -0.34243629738E+01 -0.67148539522E+02  0.70120589632E+02  0.00000000000E+00 0. -1.
         -2    1    1    2    0  502  0.19905890301E+02  0.34243629738E+01 -0.17427325466E+03  0.17543984160E+03  0.00000000000E+00 0. -1.
<mgrwt>
<rscale>  2 0.20198285E+02</rscale>
<asrwt>0</asrwt>
<pdfrwt beam="1">  1        2 0.31835661E-03 0.20198285E+02</pdfrwt>
<pdfrwt beam="2">  1       -2 0.37460181E-01 0.20198285E+02</pdfrwt>
<totfact> 0.26494124E+05</totfact>
</mgrwt>
</event>
<event>
 4    1  0.7653521E+003  0.2939183E+02  0.7546771E-02  0.1604910E+00
         -2   -1    0    0    0  501 -0.00000000000E+00  0.00000000000E+00  0.14349635979E+02  0.14349635979E+02  0.00000000000E+00 0.  1.
          2   -1    0    0  501    0  0.00000000000E+00 -0.00000000000E+00 -0.30536504361E+03  0.30536504361E+03  0.00000000000E+00 0. -1.
          2    1    1    2  502    0  0.26092366759E+02  0.13530275290E+02 -0.28874305861E+03  0.29023513545E+03  0.00000000000E+00 0. -1.
         -2    1    1    2    0  502 -0.26092366759E+02 -0.13530275290E+02 -0.22723490165E+01  0.29479544138E+02  0.00000000000E+00 0.  1.
<mgrwt>
<rscale>  2 0.29391835E+02</rscale>
<asrwt>0</asrwt>
<pdfrwt beam="2">  1        2 0.46979235E-01 0.29391835E+02</pdfrwt>
<pdfrwt beam="1">  1       -2 0.22076364E-02 0.29391835E+02</pdfrwt>
<totfact> 0.51901593E+04</totfact>
</mgrwt>
</event>
<event>
 4    1  0.7653521E+003  0.2060003E+02  0.7546771E-02  0.1733652E+00
          2   -1    0    0  501    0  0.00000000000E+00  0.00000000000E+00  0.67868853630E+02  0.67868853630E+02  0.00000000000E+00 0.  1.
         -2   -1    0    0    0  501 -0.00000000000E+00 -0.00000000000E+00 -0.19642572547E+03  0.19642572547E+03  0.00000000000E+00 0.  1.
          2    1    1    2  502    0  0.15094495816E+02 -0.14018463805E+02  0.65748574090E+02  0.68900189596E+02  0.00000000000E+00 0.  1.
         -2    1    1    2    0  502 -0.15094495816E+02  0.14018463805E+02 -0.19430544594E+03  0.19539438951E+03  0.00000000000E+00 0.  1.
<mgrwt>
<rscale>  2 0.20600027E+02</rscale>
<asrwt>0</asrwt>
<pdfrwt beam="1">  1        2 0.10441362E-01 0.20600027E+02</pdfrwt>
<pdfrwt beam="2">  1       -2 0.30219342E-01 0.20600027E+02</pdfrwt>
<totfact> 0.47734615E+03</totfact>
</mgrwt>
</event>
<event>
 4    1  0.7653521E+003  0.3422178E+02  0.7546771E-02  0.1555622E+00
          2   -1    0    0  501    0  0.00000000000E+00  0.00000000000E+00  0.19531891334E+03  0.19531891334E+03  0.00000000000E+00 0. -1.
         -2   -1    0    0    0  501 -0.00000000000E+00 -0.00000000000E+00 -0.13788457488E+03  0.13788457488E+03  0.00000000000E+00 0.  1.
          2    1    1    2  502    0  0.72797816735E+01  0.33438525457E+02  0.19165626655E+03  0.19468758233E+03  0.00000000000E+00 0. -1.
         -2    1    1    2    0  502 -0.72797816735E+01 -0.33438525457E+02 -0.13422192809E+03  0.13851590589E+03  0.00000000000E+00 0.  1.
<mgrwt>
<rscale>  2 0.34221780E+02</rscale>
<asrwt>0</asrwt>
<pdfrwt beam="1">  1        2 0.30049064E-01 0.34221780E+02</pdfrwt>
<pdfrwt beam="2">  1       -2 0.21213011E-01 0.34221780E+02</pdfrwt>
<totfact> 0.29175609E+03</totfact>
</mgrwt>
</event>
<event>
 4    1  0.7653521E+003  0.2474017E+02  0.7546771E-02  0.1664762E+00
          2   -1    0    0  501    0  0.00000000000E+00  0.00000000000E+00  0.41645135015E+03  0.41645135015E+03  0.00000000000E+00 0. -1.
         -2   -1    0    0    0  501 -0.00000000000E+00 -0.00000000000E+00 -0.16843045414E+01  0.16843045414E+01  0.00000000000E+00 0. -1.
          2    1    1    2  502    0 -0.20876251812E+02  0.13276224919E+02  0.28200328394E+03  0.28308643237E+03  0.00000000000E+00 0. -1.
         -2    1    1    2    0  502  0.20876251812E+02 -0.13276224919E+02  0.13276376167E+03  0.13504922232E+03  0.00000000000E+00 0. -1.
<mgrwt>
<rscale>  2 0.24740171E+02</rscale>
<asrwt>0</asrwt>
<pdfrwt beam="1">  1        2 0.64069356E-01 0.24740171E+02</pdfrwt>
<pdfrwt beam="2">  1       -2 0.25912411E-03 0.24740171E+02</pdfrwt>
<totfact> 0.66877108E+05</totfact>
</mgrwt>
</event>
<event>
 4    1  0.7653521E+003  0.3884947E+02  0.7546771E-02  0.1516853E+00
         -2   -1    0    0    0  501 -0.00000000000E+00  0.00000000000E+00  0.74963862137E+02  0.74963862137E+02  0.00000000000E+00 0. -1.
          2   -1    0    0  501    0  0.00000000000E+00 -0.00000000000E+00 -0.94826938715E+03  0.94826938715E+03  0.00000000000E+00 0.  1.
          2    1    1    2  502    0  0.36239448155E+02  0.13999407732E+02 -0.94280898204E+03  0.94360905975E+03  0.00000000000E+00 0.  1.
         -2    1    1    2    0  502 -0.36239448155E+02 -0.13999407732E+02  0.69503457033E+02  0.79624189534E+02  0.00000000000E+00 0. -1.
<mgrwt>
<rscale>  2 0.38849466E+02</rscale>
<asrwt>0</asrwt>
<pdfrwt beam="2">  1        2 0.14588759E+00 0.38849466E+02</pdfrwt>
<pdfrwt beam="1">  1       -2 0.11532902E-01 0.38849466E+02</pdfrwt>
<totfact> 0.14521434E+03</totfact>
</mgrwt>
</event>
<event>
 4    1  0.7653521E+003  0.2353965E+02  0.7546771E-02  0.1682909E+00
          2   -1    0    0  501    0  0.00000000000E+00  0.00000000000E+00  0.19709584023E+02  0.19709584023E+02  0.00000000000E+00 0.  1.
         -2   -1    0    0    0  501 -0.00000000000E+00 -0.00000000000E+00 -0.50776450641E+03  0.50776450641E+03  0.00000000000E+00 0. -1.
          2    1    1    2  502    0  0.53051999494E+01  0.22934040429E+02  0.12304297664E+02  0.26561458882E+02  0.00000000000E+00 0.  1.
         -2    1    1    2    0  502 -0.53051999494E+01 -0.22934040429E+02 -0.50035922006E+03  0.50091263155E+03  0.00000000000E+00 0. -1.
<mgrwt>
<rscale>  2 0.23539655E+02</rscale>
<asrwt>0</asrwt>
<pdfrwt beam="1">  1        2 0.30322436E-02 0.23539655E+02</pdfrwt>
<pdfrwt beam="2">  1       -2 0.78117620E-01 0.23539655E+02</pdfrwt>
<totfact> 0.35889280E+03</totfact>
</mgrwt>
</event>
<event>
 4    1  0.7653521E+003  0.3277335E+02  0.7546771E-02  0.1569312E+00
          2   -1    0    0  501    0  0.00000000000E+00  0.00000000000E+00  0.91964868707E+03  0.91964868707E+03  0.00000000000E+00 0. -1.
         -2   -1    0    0    0  501 -0.00000000000E+00 -0.00000000000E+00 -0.42298439243E+01  0.42298439243E+01  0.00000000000E+00 0. -1.
          2    1    1    2  502    0  0.22308244837E+02 -0.24009053880E+02  0.85073303523E+03  0.85136407587E+03  0.00000000000E+00 0. -1.
         -2    1    1    2    0  502 -0.22308244837E+02  0.24009053880E+02  0.64685807924E+02  0.72514455129E+02  0.00000000000E+00 0. -1.
<mgrwt>
<rscale>  2 0.32773350E+02</rscale>
<asrwt>0</asrwt>
<pdfrwt beam="1">  1        2 0.14148425E+00 0.32773350E+02</pdfrwt>
<pdfrwt beam="2">  1       -2 0.65074595E-03 0.32773350E+02</pdfrwt>
<totfact> 0.88043633E+04</totfact>
</mgrwt>
</event>
<event>
 4    1  0.7653521E+003  0.4488776E+02  0.7546771E-02  0.1475044E+00
         -2   -1    0    0    0  501 -0.00000000000E+00  0.00000000000E+00  0.60686971374E+01  0.60686971374E+01  0.00000000000E+00 0.  1.
          2   -1    0    0  501    0  0.00000000000E+00 -0.00000000000E+00 -0.94500901020E+03  0.94500901020E+03  0.00000000000E+00 0. -1.
          2    1    1    2  502    0  0.19166437021E+02 -0.40590135488E+02 -0.85246717468E+03  0.85364816834E+03  0.00000000000E+00 0. -1.
         -2    1    1    2    0  502 -0.19166437021E+02  0.40590135488E+02 -0.86473138379E+02  0.97429538991E+02  0.00000000000E+00 0.  1.
<mgrwt>
<rscale>  2 0.44887765E+02</rscale>
<asrwt>0</asrwt>
<pdfrwt beam="2">  1        2 0.14538602E+00 0.44887765E+02</pdfrwt>
<pdfrwt beam="1">  1       -2 0.93364562E-03 0.44887765E+02</pdfrwt>
<totfact> 0.54604052E+04</totfact>
</mgrwt>
</event>
<event>
 4    1  0.7653521E+003  0.2801446E+02  0.7546771E-02  0.1621134E+00
          2   -1    0    0  501    0  0.00000000000E+00  0.00000000000E+00  0.20502670712E+04  0.20502670712E+04  0.00000000000E+00 0.  1.
         -2   -1    0    0    0  501 -0.00000000000E+00 -0.00000000000E+00 -0.44978292268E+02  0.44978292268E+02  0.00000000000E+00 0. -1.
          2    1    1    2  502    0  0.14038555188E+02  0.24243118892E+02  0.20457996910E+04  0.20459914921E+04  0.00000000000E+00 0.  1.
         -2    1    1    2    0  502 -0.14038555188E+02 -0.24243118892E+02 -0.40510912112E+02  0.49253871375E+02  0.00000000000E+00 0. -1.
<mgrwt>
<rscale>  2 0.28014458E+02</rscale>
<asrwt>0</asrwt>
<pdfrwt beam="1">  1        2 0.31542563E+00 0.28014458E+02</pdfrwt>
<pdfrwt beam="2">  1       -2 0.69197388E-02 0.28014458E+02</pdfrwt>
<totfact> 0.88306641E+02</totfact>
</mgrwt>
</event>
<event>
 4    1  0.7653521E+003  0.2273876E+02  0.7546771E-02  0.1695780E+00
         -2   -1    0    0    0  501 -0.00000000000E+00  0.00000000000E+00  0.23604107308E+02  0.23604107308E+02  0.00000000000E+00 0.  1.
          2   -1    0    0  501    0  0.00000000000E+00 -0.00000000000E+00 -0.75918329317E+02  0.75918329317E+02  0.00000000000E+00 0. -1.
          2    1    1    2  502    0  0.80303935866E+01 -0.21273547995E+02 -0.68129880880E+02  0.71824311581E+02  0.00000000000E+00 0. -1.
         -2    1    1    2    0  502 -0.80303935866E+01  0.21273547995E+02  0.15815658871E+02  0.27698125044E+02  0.00000000000E+00 0.  1.
<mgrwt>
<rscale>  2 0.22738757E+02</rscale>
<asrwt>0</asrwt>
<pdfrwt beam="2">  1        2 0.11679743E-01 0.22738757E+02</pdfrwt>
<pdfrwt beam="1">  1       -2 0.36314011E-02 0.22738757E+02</pdfrwt>
<totfact> 0.10584898E+05</totfact>
</mgrwt>
</event>
<event>
 4    1  0.7653521E+003  0.2647808E+02  0.7546771E-02  0.1640636E+00
         -2   -1    0    0    0  501 -0.00000000000E+00  0.00000000000E+00  0.59058516140E+00  0.59058516140E+00  0.00000000000E+00 0. -1.
          2   -1    0    0  501    0  0.00000000000E+00 -0.00000000000E+00 -0.18587499893E+04  0.18587499893E+04  0.00000000000E+00 0.  1.
          2    1    1    2  502    0  0.22591814566E+02  0.13809367968E+02 -0.14879193165E+04  0.14881548915E+04  0.00000000000E+00 0.  1.
         -2    1    1    2    0  502 -0.22591814566E+02 -0.13809367968E+02 -0.37024008764E+03  0.37118568295E+03  0.00000000000E+00 0. -1.
<mgrwt>
<rscale>  2 0.26478080E+02</rscale>
<asrwt>0</asrwt>
<pdfrwt beam="2">  1        2 0.28595990E+00 0.26478080E+02</pdfrwt>
<pdfrwt beam="1">  1       -2 0.90859776E-04 0.26478080E+02</pdfrwt>
<totfact> 0.40186212E+05</totfact>
</mgrwt>
</event>
<event>
 4    1  0.7653521E+003  0.2398772E+02  0.7546771E-02  0.1675982E+00
         -2   -1    0    0    0  501 -0.00000000000E+00  0.00000000000E+00  0.11897787636E+04  0.11897787636E+04  0.00000000000E+00 0.  1.
          2   -1    0    0  501    0  0.00000000000E+00 -0.00000000000E+00 -0.19600301546E+03  0.19600301546E+03  0.00000000000E+00 0. -1.
          2    1    1    2  502    0  0.89474492338E+01  0.22256547746E+02 -0.19514764939E+03  0.19661641800E+03  0.00000000000E+00 0. -1.
         -2    1    1    2    0  502 -0.89474492338E+01 -0.22256547746E+02  0.11889233975E+04  0.11891653610E+04  0.00000000000E+00 0.  1.
<mgrwt>
<rscale>  2 0.23987721E+02</rscale>
<asrwt>0</asrwt>
<pdfrwt beam="2">  1        2 0.30154311E-01 0.23987721E+02</pdfrwt>
<pdfrwt beam="1">  1       -2 0.18304288E+00 0.23987721E+02</pdfrwt>
<totfact> 0.35449398E+01</totfact>
</mgrwt>
</event>
<event>
 4    1  0.7653521E+003  0.3159178E+02  0.7546771E-02  0.1581132E+00
         -2   -1    0    0    0  501 -0.00000000000E+00  0.00000000000E+00  0.43288756430E+01  0.43288756430E+01  0.00000000000E+00 0. -1.
          2   -1    0    0  501    0  0.00000000000E+00 -0.00000000000E+00 -0.75318096814E+03  0.75318096814E+03  0.00000000000E+00 0.  1.
          2    1    1    2  502    0  0.32846139813E+01 -0.31420563177E+02 -0.68992973381E+03  0.69065264647E+03  0.00000000000E+00 0.  1.
         -2    1    1    2    0  502 -0.32846139813E+01  0.31420563177E+02 -0.58922358684E+02  0.66857197311E+02  0.00000000000E+00 0. -1.
<mgrwt>
<rscale>  2 0.31591779E+02</rscale>
<asrwt>0</asrwt>
<pdfrwt beam="2">  1        2 0.11587399E+00 0.31591779E+02</pdfrwt>
<pdfrwt beam="1">  1       -2 0.66598087E-03 0.31591779E+02</pdfrwt>
<totfact> 0.10713689E+05</totfact>
</mgrwt>
</event>
<event>
 4    1  0.7653521E+003  0.2808560E+02  0.7546771E-02  0.1620268E+00
         -2   -1    0    0    0  501 -0.00000000000E+00  0.00000000000E+00  0.38181877488E+00  0.38181877488E+00  0.00000000000E+00 0.  1.
          2   -1    0    0  501    0  0.00000000000E+00 -0.00000000000E+00 -0.20676805681E+04  0.20676805681E+04  0.00000000000E+00 0.  1.
          2    1    1    2  502    0  0.26753724642E+02  0.85462851820E+01 -0.10639627711E+04  0.10643333966E+04  0.00000000000E+00 0.  1.
         -2    1    1    2    0  502 -0.26753724642E+02 -0.85462851820E+01 -0.10033359782E+04  0.10037289903E+04  0.00000000000E+00 0.  1.
<mgrwt>
<rscale>  2 0.28085597E+02</rscale>
<asrwt>0</asrwt>
<pdfrwt beam="2">  1        2 0.31810552E+00 0.28085597E+02</pdfrwt>
<pdfrwt beam="1">  1       -2 0.58741199E-04 0.28085597E+02</pdfrwt>
<totfact> 0.57813855E+05</totfact>
</mgrwt>
</event>
<event>
 4    1  0.7653521E+003  0.2294785E+02  0.7546771E-02  0.1692357E+00
          2   -1    0    0  501    0  0.00000000000E+00  0.00000000000E+00  0.54599804456E+01  0.54599804456E+01  0.00000000000E+00 0.  1.
         -2   -1    0    0    0  501 -0.00000000000E+00 -0.00000000000E+00 -0.10709460835E+03  0.10709460835E+03  0.00000000000E+00 0. -1.
          2    1    1    2  502    0 -0.90224575436E+01 -0.21099739606E+02 -0.33073102732E+02  0.40254613100E+02  0.00000000000E+00 0.  1.
         -2    1    1    2    0  502  0.90224575436E+01  0.21099739606E+02 -0.68561525177E+02  0.72299975700E+02  0.00000000000E+00 0. -1.
<mgrwt>
<rscale>  2 0.22947849E+02</rscale>
<asrwt>0</asrwt>
<pdfrwt beam="1">  1        2 0.83999709E-03 0.22947849E+02</pdfrwt>
<pdfrwt beam="2">  1       -2 0.16476092E-01 0.22947849E+02</pdfrwt>
<totfact> 0.30485288E+05</totfact>
</mgrwt>
</event>
<event>
 4    1  0.7653521E+003  0.2541526E+02  0.7546771E-02  0.1655108E+00
          2   -1    0    0  501    0  0.00000000000E+00  0.00000000000E+00  0.24509081335E+03  0.24509081335E+03  0.00000000000E+00 0.  1.
         -2   -1    0    0    0  501 -0.00000000000E+00 -0.00000000000E+00 -0.49942506989E+01  0.49942506989E+01  0.00000000000E+00 0.  1.
          2    1    1    2  502    0 -0.22533824604E+02  0.11754232400E+02  0.20598212048E+03  0.20754413793E+03  0.00000000000E+00 0.  1.
         -2    1    1    2    0  502  0.22533824604E+02 -0.11754232400E+02  0.34114442168E+02  0.42540926118E+02  0.00000000000E+00 0.  1.
<mgrwt>
<rscale>  2 0.25415256E+02</rscale>
<asrwt>0</asrwt>
<pdfrwt beam="1">  1        2 0.37706270E-01 0.25415256E+02</pdfrwt>
<pdfrwt beam="2">  1       -2 0.76834645E-03 0.25415256E+02</pdfrwt>
<totfact> 0.26497131E+05</totfact>
</mgrwt>
</event>
<event>
 4    1  0.7653521E+003  0.2439122E+02  0.7546771E-02  0.1669903E+00
         -2   -1    0    0    0  501 -0.00000000000E+00  0.00000000000E+00  0.17020923464E+02  0.17020923464E+02  0.00000000000E+00 0. -1.
          2   -1    0    0  501    0  0.00000000000E+00 -0.00000000000E+00 -0.36023321572E+02  0.36023321572E+02  0.00000000000E+00 0. -1.
          2    1    1    2  502    0  0.24389718483E+02 -0.27067237421E+00 -0.14072943659E+02  0.28159889461E+02  0.00000000000E+00 0. -1.
         -2    1    1    2    0  502 -0.24389718483E+02  0.27067237421E+00 -0.49294544491E+01  0.24884355575E+02  0.00000000000E+00 0. -1.
<mgrwt>
<rscale>  2 0.24391220E+02</rscale>
<asrwt>0</asrwt>
<pdfrwt beam="2">  1        2 0.55420494E-02 0.24391220E+02</pdfrwt>
<pdfrwt beam="1">  1       -2 0.26186036E-02 0.24391220E+02</pdfrwt>
<totfact> 0.40888703E+05</totfact>
</mgrwt>
</event>
<event>
 4    1  0.7653521E+003  0.2215043E+02  0.7546771E-02  0.1705663E+00
         -2   -1    0    0    0  501 -0.00000000000E+00  0.00000000000E+00  0.21824628183E+02  0.21824628183E+02  0.00000000000E+00 0.  1.
          2   -1    0    0  501    0  0.00000000000E+00 -0.00000000000E+00 -0.56407653810E+02  0.56407653810E+02  0.00000000000E+00 0.  1.
          2    1    1    2  502    0  0.18035397352E+02  0.12859474961E+02 -0.47627410909E+02  0.52526297450E+02  0.00000000000E+00 0.  1.
         -2    1    1    2    0  502 -0.18035397352E+02 -0.12859474961E+02  0.13044385282E+02  0.25705984542E+02  0.00000000000E+00 0.  1.
<mgrwt>
<rscale>  2 0.22150432E+02</rscale>
<asrwt>0</asrwt>
<pdfrwt beam="2">  1        2 0.86781005E-02 0.22150432E+02</pdfrwt>
<pdfrwt beam="1">  1       -2 0.33576351E-02 0.22150432E+02</pdfrwt>
<totfact> 0.16492866E+05</totfact>
</mgrwt>
</event>
<event>
 4    1  0.7653521E+003  0.2100271E+02  0.7546771E-02  0.1726093E+00
          2   -1    0    0  501    0  0.00000000000E+00  0.00000000000E+00  0.13602639499E+04  0.13602639499E+04  0.00000000000E+00 0. -1.
         -2   -1    0    0    0  501 -0.00000000000E+00 -0.00000000000E+00 -0.36573577685E+02  0.36573577685E+02  0.00000000000E+00 0. -1.
          2    1    1    2  502    0 -0.12101463426E+02 -0.17165910653E+02  0.13571607345E+04  0.13573232383E+04  0.00000000000E+00 0. -1.
         -2    1    1    2    0  502  0.12101463426E+02  0.17165910653E+02 -0.33470362301E+02  0.39514289291E+02  0.00000000000E+00 0. -1.
<mgrwt>
<rscale>  2 0.21002712E+02</rscale>
<asrwt>0</asrwt>
<pdfrwt beam="1">  1        2 0.20927134E+00 0.21002712E+02</pdfrwt>
<pdfrwt beam="2">  1       -2 0.56267053E-02 0.21002712E+02</pdfrwt>
<totfact> 0.24933153E+03</totfact>
</mgrwt>
</event>
<event>
 4    1  0.7653521E+003  0.2785916E+02  0.7546771E-02  0.1623034E+00
          2   -1    0    0  501    0  0.00000000000E+00  0.00000000000E+00  0.34355033959E+01  0.34355033959E+01  0.00000000000E+00 0.  1.
         -2   -1    0    0    0  501 -0.00000000000E+00 -0.00000000000E+00 -0.28427674892E+03  0.28427674892E+03  0.00000000000E+00 0.  1.
          2    1    1    2  502    0  0.19236895796E+02  0.20151290048E+02 -0.75239645960E+02  0.80231770357E+02  0.00000000000E+00 0.  1.
         -2    1    1    2    0  502 -0.19236895796E+02 -0.20151290048E+02 -0.20560159956E+03  0.20748048196E+03  0.00000000000E+00 0.  1.
<mgrwt>
<rscale>  2 0.27859157E+02</rscale>
<asrwt>0</asrwt>
<pdfrwt beam="1">  1        2 0.52853909E-03 0.27859157E+02</pdfrwt>
<pdfrwt beam="2">  1       -2 0.43734876E-01 0.27859157E+02</pdfrwt>
<totfact> 0.11308606E+05</totfact>
</mgrwt>
</event>
<event>
 4    1  0.7653521E+003  0.3710388E+02  0.7546771E-02  0.1530674E+00
         -2   -1    0    0    0  501 -0.00000000000E+00  0.00000000000E+00  0.34372114510E+01  0.34372114510E+01  0.00000000000E+00 0.  1.
          2   -1    0    0  501    0  0.00000000000E+00 -0.00000000000E+00 -0.51786726698E+03  0.51786726698E+03  0.00000000000E+00 0. -1.
          2    1    1    2  502    0  0.36840056595E+02 -0.44168006314E+01 -0.38128730087E+03  0.38308837584E+03  0.00000000000E+00 0. -1.
         -2    1    1    2    0  502 -0.36840056595E+02  0.44168006314E+01 -0.13314275466E+03  0.13821610259E+03  0.00000000000E+00 0.  1.
<mgrwt>
<rscale>  2 0.37103880E+02</rscale>
<asrwt>0</asrwt>
<pdfrwt beam="2">  1        2 0.79671873E-01 0.37103880E+02</pdfrwt>
<pdfrwt beam="1">  1       -2 0.52880185E-03 0.37103880E+02</pdfrwt>
<totfact> 0.22740250E+05</totfact>
</mgrwt>
</event>
<event>
 4    1  0.7653521E+003  0.2496186E+02  0.7546771E-02  0.1661550E+00
          2   -1    0    0  501    0  0.00000000000E+00  0.00000000000E+00  0.52016941410E+02  0.52016941410E+02  0.00000000000E+00 0. -1.
         -2   -1    0    0    0  501 -0.00000000000E+00 -0.00000000000E+00 -0.17730036445E+02  0.17730036445E+02  0.00000000000E+00 0. -1.
          2    1    1    2  502    0  0.34964835674E+01 -0.24715760523E+02  0.37005580868E+02  0.44637509237E+02  0.00000000000E+00 0. -1.
         -2    1    1    2    0  502 -0.34964835674E+01  0.24715760523E+02 -0.27186759026E+01  0.25109468617E+02  0.00000000000E+00 0. -1.
<mgrwt>
<rscale>  2 0.24961855E+02</rscale>
<asrwt>0</asrwt>
<pdfrwt beam="1">  1        2 0.80026063E-02 0.24961855E+02</pdfrwt>
<pdfrwt beam="2">  1       -2 0.27276979E-02 0.24961855E+02</pdfrwt>
<totfact> 0.25027610E+05</totfact>
</mgrwt>
</event>
<event>
 4    1  0.7653521E+003  0.2343533E+02  0.7546771E-02  0.1684549E+00
          2   -1    0    0  501    0  0.00000000000E+00  0.00000000000E+00  0.21283982747E+03  0.21283982747E+03  0.00000000000E+00 0. -1.
         -2   -1    0    0    0  501 -0.00000000000E+00 -0.00000000000E+00 -0.15466521560E+02  0.15466521560E+02  0.00000000000E+00 0.  1.
          2    1    1    2  502    0  0.18504102987E+02 -0.14380984737E+02  0.20288301815E+03  0.20423205821E+03  0.00000000000E+00 0. -1.
         -2    1    1    2    0  502 -0.18504102987E+02  0.14380984737E+02 -0.55097122385E+01  0.24074290816E+02  0.00000000000E+00 0.  1.
<mgrwt>
<rscale>  2 0.23435327E+02</rscale>
<asrwt>0</asrwt>
<pdfrwt beam="1">  1        2 0.32744587E-01 0.23435327E+02</pdfrwt>
<pdfrwt beam="2">  1       -2 0.23794650E-02 0.23435327E+02</pdfrwt>
<totfact> 0.64036418E+04</totfact>
</mgrwt>
</event>
<event>
 4    1  0.7653521E+003  0.3657892E+02  0.7546771E-02  0.1535010E+00
          2   -1    0    0  501    0  0.00000000000E+00  0.00000000000E+00  0.11445758790E+04  0.11445758790E+04  0.00000000000E+00 0.  1.
         -2   -1    0    0    0  501 -0.00000000000E+00 -0.00000000000E+00 -0.11988102389E+01  0.11988102389E+01  0.00000000000E+00 0.  1.
          2    1    1    2  502    0 -0.31660579398E+02 -0.18320066167E+02  0.66201736553E+03  0.66302715583E+03  0.00000000000E+00 0.  1.
         -2    1    1    2    0  502  0.31660579398E+02  0.18320066167E+02  0.48135970324E+03  0.48274753341E+03  0.00000000000E+00 0.  1.
<mgrwt>
<rscale>  2 0.36578916E+02</rscale>
<asrwt>0</asrwt>
<pdfrwt beam="1">  1        2 0.17608772E+00 0.36578916E+02</pdfrwt>
<pdfrwt beam="2">  1       -2 0.18443326E-03 0.36578916E+02</pdfrwt>
<totfact> 0.37339023E+05</totfact>
</mgrwt>
</event>
<event>
 4    1  0.7653521E+003  0.3147447E+02  0.7546771E-02  0.1582340E+00
         -2   -1    0    0    0  501 -0.00000000000E+00  0.00000000000E+00  0.23325100043E+01  0.23325100043E+01  0.00000000000E+00 0.  1.
          2   -1    0    0  501    0  0.00000000000E+00 -0.00000000000E+00 -0.94510703157E+03  0.94510703157E+03  0.00000000000E+00 0.  1.
          2    1    1    2  502    0 -0.25724807197E+02  0.18134953123E+02 -0.82290567276E+03  0.82350737003E+03  0.00000000000E+00 0.  1.
         -2    1    1    2    0  502  0.25724807197E+02 -0.18134953123E+02 -0.11986884880E+03  0.12393217154E+03  0.00000000000E+00 0.  1.
<mgrwt>
<rscale>  2 0.31474469E+02</rscale>
<asrwt>0</asrwt>
<pdfrwt beam="2">  1        2 0.14540116E+00 0.31474469E+02</pdfrwt>
<pdfrwt beam="1">  1       -2 0.35884749E-03 0.31474469E+02</pdfrwt>
<totfact> 0.18927661E+05</totfact>
</mgrwt>
</event>
<event>
 4    1  0.7653521E+003  0.2082623E+02  0.7546771E-02  0.1729380E+00
          2   -1    0    0  501    0  0.00000000000E+00  0.00000000000E+00  0.44873042929E+02  0.44873042929E+02  0.00000000000E+00 0. -1.
         -2   -1    0    0    0  501 -0.00000000000E+00 -0.00000000000E+00 -0.11291045043E+02  0.11291045043E+02  0.00000000000E+00 0. -1.
          2    1    1    2  502    0  0.12760579956E+02 -0.16459029003E+02  0.27445337541E+02  0.34452555628E+02  0.00000000000E+00 0. -1.
         -2    1    1    2    0  502 -0.12760579956E+02  0.16459029003E+02  0.61366603445E+01  0.21711532344E+02  0.00000000000E+00 0. -1.
<mgrwt>
<rscale>  2 0.20826234E+02</rscale>
<asrwt>0</asrwt>
<pdfrwt beam="1">  1        2 0.69035450E-02 0.20826234E+02</pdfrwt>
<pdfrwt beam="2">  1       -2 0.17370839E-02 0.20826234E+02</pdfrwt>
<totfact> 0.52495585E+05</totfact>
</mgrwt>
</event>
<event>
 4    1  0.7653521E+003  0.2177056E+02  0.7546771E-02  0.1712251E+00
          2   -1    0    0  501    0  0.00000000000E+00  0.00000000000E+00  0.24892915465E+03  0.24892915465E+03  0.00000000000E+00 0.  1.
         -2   -1    0    0    0  501 -0.00000000000E+00 -0.00000000000E+00 -0.99412482652E+02  0.99412482652E+02  0.00000000000E+00 0.  1.
          2    1    1    2  502    0  0.20713117415E+02 -0.67025372203E+01  0.24725319942E+03  0.24820979405E+03  0.00000000000E+00 0.  1.
         -2    1    1    2    0  502 -0.20713117415E+02  0.67025372203E+01 -0.97736527429E+02  0.10013184325E+03  0.00000000000E+00 0.  1.
<mgrwt>
<rscale>  2 0.21770559E+02</rscale>
<asrwt>0</asrwt>
<pdfrwt beam="1">  1        2 0.38296793E-01 0.21770559E+02</pdfrwt>
<pdfrwt beam="2">  1       -2 0.15294228E-01 0.21770559E+02</pdfrwt>
<totfact> 0.36781459E+03</totfact>
</mgrwt>
</event>
<event>
 4    1  0.7653521E+003  0.2117161E+02  0.7546771E-02  0.1722985E+00
         -2   -1    0    0    0  501 -0.00000000000E+00  0.00000000000E+00  0.30651623644E+01  0.30651623644E+01  0.00000000000E+00 0. -1.
          2   -1    0    0  501    0  0.00000000000E+00 -0.00000000000E+00 -0.53809185300E+03  0.53809185300E+03  0.00000000000E+00 0. -1.
          2    1    1    2  502    0 -0.11377185170E+02 -0.17854880467E+02 -0.49841564329E+03  0.49886510258E+03  0.00000000000E+00 0. -1.
         -2    1    1    2    0  502  0.11377185170E+02  0.17854880467E+02 -0.36611047340E+02  0.42291912776E+02  0.00000000000E+00 0. -1.
<mgrwt>
<rscale>  2 0.21171611E+02</rscale>
<asrwt>0</asrwt>
<pdfrwt beam="2">  1        2 0.82783375E-01 0.21171611E+02</pdfrwt>
<pdfrwt beam="1">  1       -2 0.47156337E-03 0.21171611E+02</pdfrwt>
<totfact> 0.22264623E+05</totfact>
</mgrwt>
</event>
<event>
 4    1  0.7653521E+003  0.2298839E+02  0.7546771E-02  0.1691698E+00
         -2   -1    0    0    0  501 -0.00000000000E+00  0.00000000000E+00  0.11427451655E+04  0.11427451655E+04  0.00000000000E+00 0.  1.
          2   -1    0    0  501    0  0.00000000000E+00 -0.00000000000E+00 -0.40093963724E+02  0.40093963724E+02  0.00000000000E+00 0. -1.
          2    1    1    2  502    0 -0.22903759830E+02 -0.19707829592E+01 -0.36673284998E+02  0.43282745204E+02  0.00000000000E+00 0. -1.
         -2    1    1    2    0  502  0.22903759830E+02  0.19707829592E+01  0.11393244868E+04  0.11395563840E+04  0.00000000000E+00 0.  1.
<mgrwt>
<rscale>  2 0.22988393E+02</rscale>
<asrwt>0</asrwt>
<pdfrwt beam="2">  1        2 0.61683030E-02 0.22988393E+02</pdfrwt>
<pdfrwt beam="1">  1       -2 0.17580692E+00 0.22988393E+02</pdfrwt>
<totfact> 0.22875896E+02</totfact>
</mgrwt>
</event>
<event>
 4    1  0.7653521E+003  0.4978631E+02  0.7546771E-02  0.1446498E+00
          2   -1    0    0  501    0  0.00000000000E+00  0.00000000000E+00  0.39338118890E+04  0.39338118890E+04  0.00000000000E+00 0.  1.
         -2   -1    0    0    0  501 -0.00000000000E+00 -0.00000000000E+00 -0.65380303507E+00  0.65380303507E+00  0.00000000000E+00 0.  1.
          2    1    1    2  502    0 -0.40152731305E+02 -0.29435260542E+02  0.23411872651E+04  0.23417165684E+04  0.00000000000E+00 0.  1.
         -2    1    1    2    0  502  0.40152731305E+02  0.29435260542E+02  0.15919708208E+04  0.15927491236E+04  0.00000000000E+00 0.  1.
<mgrwt>
<rscale>  2 0.49786307E+02</rscale>
<asrwt>0</asrwt>
<pdfrwt beam="1">  1        2 0.60518288E+00 0.49786307E+02</pdfrwt>
<pdfrwt beam="2">  1       -2 0.10058823E-03 0.49786307E+02</pdfrwt>
<totfact> 0.27355881E+04</totfact>
</mgrwt>
</event>
<event>
 4    1  0.7653521E+003  0.2102270E+02  0.7546771E-02  0.1725723E+00
         -2   -1    0    0    0  501 -0.00000000000E+00  0.00000000000E+00  0.41789948292E+00  0.41789948292E+00  0.00000000000E+00 0.  1.
          2   -1    0    0  501    0  0.00000000000E+00 -0.00000000000E+00 -0.13453005479E+04  0.13453005479E+04  0.00000000000E+00 0.  1.
          2    1    1    2  502    0  0.17315658454E+02 -0.11921481393E+02 -0.98362380557E+03  0.98384843580E+03  0.00000000000E+00 0.  1.
         -2    1    1    2    0  502 -0.17315658454E+02  0.11921481393E+02 -0.36125884287E+03  0.36187001160E+03  0.00000000000E+00 0.  1.
<mgrwt>
<rscale>  2 0.21022696E+02</rscale>
<asrwt>0</asrwt>
<pdfrwt beam="2">  1        2 0.20697029E+00 0.21022696E+02</pdfrwt>
<pdfrwt beam="1">  1       -2 0.64291925E-04 0.21022696E+02</pdfrwt>
<totfact> 0.10390547E+06</totfact>
</mgrwt>
</event>
<event>
 4    1  0.7653521E+003  0.2387909E+02  0.7546771E-02  0.1677644E+00
          2   -1    0    0  501    0  0.00000000000E+00  0.00000000000E+00  0.12291593609E+04  0.12291593609E+04  0.00000000000E+00 0.  1.
         -2   -1    0    0    0  501 -0.00000000000E+00 -0.00000000000E+00 -0.12948551900E+02  0.12948551900E+02  0.00000000000E+00 0. -1.
          2    1    1    2  502    0  0.11893404254E+01  0.23849457064E+02  0.12179327470E+04  0.12181668142E+04  0.00000000000E+00 0.  1.
         -2    1    1    2    0  502 -0.11893404254E+01 -0.23849457064E+02 -0.17219379276E+01  0.23941098619E+02  0.00000000000E+00 0. -1.
<mgrwt>
<rscale>  2 0.23879094E+02</rscale>
<asrwt>0</asrwt>
<pdfrwt beam="1">  1        2 0.18910135E+00 0.23879094E+02</pdfrwt>
<pdfrwt beam="2">  1       -2 0.19920859E-02 0.23879094E+02</pdfrwt>
<totfact> 0.12442089E+04</totfact>
</mgrwt>
</event>
<event>
 4    1  0.7653521E+003  0.2098359E+02  0.7546771E-02  0.1726447E+00
          2   -1    0    0  501    0  0.00000000000E+00  0.00000000000E+00  0.15977176819E+03  0.15977176819E+03  0.00000000000E+00 0.  1.
         -2   -1    0    0    0  501 -0.00000000000E+00 -0.00000000000E+00 -0.18748466614E+02  0.18748466614E+02  0.00000000000E+00 0.  1.
          2    1    1    2  502    0 -0.17935672534E+02  0.10891407096E+02  0.15295089356E+03  0.15438357082E+03  0.00000000000E+00 0.  1.
         -2    1    1    2    0  502  0.17935672534E+02 -0.10891407096E+02 -0.11927591984E+02  0.24136663985E+02  0.00000000000E+00 0.  1.
<mgrwt>
<rscale>  2 0.20983591E+02</rscale>
<asrwt>0</asrwt>
<pdfrwt beam="1">  1        2 0.24580271E-01 0.20983591E+02</pdfrwt>
<pdfrwt beam="2">  1       -2 0.28843796E-02 0.20983591E+02</pdfrwt>
<totfact> 0.64090918E+04</totfact>
</mgrwt>
</event>
<event>
 4    1  0.7653521E+003  0.2894232E+02  0.7546771E-02  0.1610083E+00
         -2   -1    0    0    0  501 -0.00000000000E+00  0.00000000000E+00  0.71401529478E+01  0.71401529478E+01  0.00000000000E+00 0. -1.
          2   -1    0    0  501    0  0.00000000000E+00 -0.00000000000E+00 -0.97499823562E+03  0.97499823562E+03  0.00000000000E+00 0. -1.
          2    1    1    2  502    0 -0.10407636626E+02 -0.27006280025E+02 -0.94450773746E+03  0.94495106973E+03  0.00000000000E+00 0. -1.
         -2    1    1    2    0  502  0.10407636626E+02  0.27006280025E+02 -0.23350345215E+02  0.37187318841E+02  0.00000000000E+00 0. -1.
<mgrwt>
<rscale>  2 0.28942323E+02</rscale>
<asrwt>0</asrwt>
<pdfrwt beam="2">  1        2 0.14999980E+00 0.28942323E+02</pdfrwt>
<pdfrwt beam="1">  1       -2 0.10984846E-02 0.28942323E+02</pdfrwt>
<totfact> 0.39254524E+04</totfact>
</mgrwt>
</event>
<event>
 4    1  0.7653521E+003  0.3674270E+02  0.7546771E-02  0.1533648E+00
         -2   -1    0    0    0  501 -0.00000000000E+00  0.00000000000E+00  0.16527131689E+02  0.16527131689E+02  0.00000000000E+00 0.  1.
          2   -1    0    0  501    0  0.00000000000E+00 -0.00000000000E+00 -0.23343644033E+04  0.23343644033E+04  0.00000000000E+00 0. -1.
          2    1    1    2  502    0  0.35701759531E+02 -0.86839187270E+01 -0.23136153284E+04  0.23139070668E+04  0.00000000000E+00 0. -1.
         -2    1    1    2    0  502 -0.35701759531E+02  0.86839187270E+01 -0.42219431636E+01  0.36984468121E+02  0.00000000000E+00 0.  1.
<mgrwt>
<rscale>  2 0.36742701E+02</rscale>
<asrwt>0</asrwt>
<pdfrwt beam="2">  1        2 0.35913309E+00 0.36742701E+02</pdfrwt>
<pdfrwt beam="1">  1       -2 0.25426349E-02 0.36742701E+02</pdfrwt>
<totfact> 0.26916964E+03</totfact>
</mgrwt>
</event>
<event>
 4    1  0.7653521E+003  0.2179187E+02  0.7546771E-02  0.1711877E+00
          2   -1    0    0  501    0  0.00000000000E+00  0.00000000000E+00  0.27859854713E+03  0.27859854713E+03  0.00000000000E+00 0.  1.
         -2   -1    0    0    0  501 -0.00000000000E+00 -0.00000000000E+00 -0.35055691765E+01  0.35055691765E+01  0.00000000000E+00 0.  1.
          2    1    1    2  502    0 -0.10594676608E+02 -0.19043065116E+02  0.23864835576E+03  0.23964123854E+03  0.00000000000E+00 0.  1.
         -2    1    1    2    0  502  0.10594676608E+02  0.19043065116E+02  0.36444622190E+02  0.42462877765E+02  0.00000000000E+00 0.  1.
<mgrwt>
<rscale>  2 0.21791868E+02</rscale>
<asrwt>0</asrwt>
<pdfrwt beam="1">  1        2 0.42861297E-01 0.21791868E+02</pdfrwt>
<pdfrwt beam="2">  1       -2 0.53931856E-03 0.21791868E+02</pdfrwt>
<totfact> 0.35980362E+05</totfact>
</mgrwt>
</event>
<event>
 4    1  0.7653521E+003  0.2402192E+02  0.7546771E-02  0.1675461E+00
         -2   -1    0    0    0  501 -0.00000000000E+00  0.00000000000E+00  0.80416987692E+02  0.80416987692E+02  0.00000000000E+00 0.  1.
          2   -1    0    0  501    0  0.00000000000E+00 -0.00000000000E+00 -0.91803130254E+02  0.91803130254E+02  0.00000000000E+00 0.  1.
          2    1    1    2  502    0 -0.18576904972E+02 -0.15229938439E+02 -0.88369285734E+02  0.91576105422E+02  0.00000000000E+00 0.  1.
         -2    1    1    2    0  502  0.18576904972E+02  0.15229938439E+02  0.76983143172E+02  0.80644012523E+02  0.00000000000E+00 0.  1.
<mgrwt>
<rscale>  2 0.24021915E+02</rscale>
<asrwt>0</asrwt>
<pdfrwt beam="2">  1        2 0.14123558E-01 0.24021915E+02</pdfrwt>
<pdfrwt beam="1">  1       -2 0.12371844E-01 0.24021915E+02</pdfrwt>
<totfact> 0.14626860E+04</totfact>
</mgrwt>
</event>
<event>
 4    1  0.7653521E+003  0.2395044E+02  0.7546771E-02  0.1676551E+00
         -2   -1    0    0    0  501 -0.00000000000E+00  0.00000000000E+00  0.10518114983E+02  0.10518114983E+02  0.00000000000E+00 0. -1.
          2   -1    0    0  501    0  0.00000000000E+00 -0.00000000000E+00 -0.54931325155E+02  0.54931325155E+02  0.00000000000E+00 0. -1.
          2    1    1    2  502    0 -0.22160786981E+02 -0.90842160279E+01 -0.24980237589E+02  0.34606874035E+02  0.00000000000E+00 0. -1.
         -2    1    1    2    0  502  0.22160786981E+02  0.90842160279E+01 -0.19432972583E+02  0.30842566104E+02  0.00000000000E+00 0. -1.
<mgrwt>
<rscale>  2 0.23950438E+02</rscale>
<asrwt>0</asrwt>
<pdfrwt beam="2">  1        2 0.84509731E-02 0.23950438E+02</pdfrwt>
<pdfrwt beam="1">  1       -2 0.16181715E-02 0.23950438E+02</pdfrwt>
<totfact> 0.47610279E+05</totfact>
</mgrwt>
</event>
<event>
 4    1  0.7653521E+003  0.2372430E+02  0.7546771E-02  0.1680031E+00
          2   -1    0    0  501    0  0.00000000000E+00  0.00000000000E+00  0.29631697014E+02  0.29631697014E+02  0.00000000000E+00 0.  1.
         -2   -1    0    0    0  501 -0.00000000000E+00 -0.00000000000E+00 -0.27512282173E+03  0.27512282173E+03  0.00000000000E+00 0. -1.
          2    1    1    2  502    0 -0.12947563420E+02  0.19879718233E+02  0.24277531109E+02  0.33944677230E+02  0.00000000000E+00 0.  1.
         -2    1    1    2    0  502  0.12947563420E+02 -0.19879718233E+02 -0.26976865583E+03  0.27080984152E+03  0.00000000000E+00 0. -1.
<mgrwt>
<rscale>  2 0.23724304E+02</rscale>
<asrwt>0</asrwt>
<pdfrwt beam="1">  1        2 0.45587226E-02 0.23724304E+02</pdfrwt>
<pdfrwt beam="2">  1       -2 0.42326588E-01 0.23724304E+02</pdfrwt>
<totfact> 0.71920846E+03</totfact>
</mgrwt>
</event>
<event>
 4    1  0.7653521E+003  0.2949216E+02  0.7546771E-02  0.1603771E+00
          2   -1    0    0  501    0  0.00000000000E+00  0.00000000000E+00  0.98784913347E+02  0.98784913347E+02  0.00000000000E+00 0. -1.
         -2   -1    0    0    0  501 -0.00000000000E+00 -0.00000000000E+00 -0.15369039702E+02  0.15369039702E+02  0.00000000000E+00 0. -1.
          2    1    1    2  502    0 -0.97611421829E+01  0.27829973851E+02  0.79009567796E+02  0.84334448148E+02  0.00000000000E+00 0. -1.
         -2    1    1    2    0  502  0.97611421829E+01 -0.27829973851E+02  0.44063058499E+01  0.29819504900E+02  0.00000000000E+00 0. -1.
<mgrwt>
<rscale>  2 0.29492157E+02</rscale>
<asrwt>0</asrwt>
<pdfrwt beam="1">  1        2 0.15197679E-01 0.29492157E+02</pdfrwt>
<pdfrwt beam="2">  1       -2 0.23644677E-02 0.29492157E+02</pdfrwt>
<totfact> 0.15290112E+05</totfact>
</mgrwt>
</event>
<event>
 4    1  0.7653521E+003  0.3408858E+02  0.7546771E-02  0.1556846E+00
         -2   -1    0    0    0  501 -0.00000000000E+00  0.00000000000E+00  0.18554492606E+02  0.18554492606E+02  0.00000000000E+00 0. -1.
          2   -1    0    0  501    0  0.00000000000E+00 -0.00000000000E+00 -0.86887780016E+02  0.86887780016E+02  0.00000000000E+00 0.  1.
          2    1    1    2  502    0  0.29056740037E+02  0.17825185075E+02 -0.62024554960E+02  0.70774831561E+02  0.00000000000E+00 0.  1.
         -2    1    1    2    0  502 -0.29056740037E+02 -0.17825185075E+02 -0.63087324497E+01  0.34667441061E+02  0.00000000000E+00 0. -1.
<mgrwt>
<rscale>  2 0.34088581E+02</rscale>
<asrwt>0</asrwt>
<pdfrwt beam="2">  1        2 0.13367351E-01 0.34088581E+02</pdfrwt>
<pdfrwt beam="1">  1       -2 0.28545374E-02 0.34088581E+02</pdfrwt>
<totfact> 0.14026673E+05</totfact>
</mgrwt>
</event>
<event>
 4    1  0.7653521E+003  0.2149534E+02  0.7546771E-02  0.1717129E+00
          2   -1    0    0  501    0  0.00000000000E+00  0.00000000000E+00  0.50135698554E+03  0.50135698554E+03  0.00000000000E+00 0.  1.
         -2   -1    0    0    0  501 -0.00000000000E+00 -0.00000000000E+00 -0.29357662605E+03  0.29357662605E+03  0.00000000000E+00 0.  1.
          2    1    1    2  502    0  0.20575756366E+02 -0.62199600526E+01  0.50073262965E+03  0.50119379092E+03  0.00000000000E+00 0.  1.
         -2    1    1    2    0  502 -0.20575756366E+02  0.62199600526E+01 -0.29295227017E+03  0.29373982068E+03  0.00000000000E+00 0.  1.
<mgrwt>
<rscale>  2 0.21495340E+02</rscale>
<asrwt>0</asrwt>
<pdfrwt beam="1">  1        2 0.77131844E-01 0.21495340E+02</pdfrwt>
<pdfrwt beam="2">  1       -2 0.45165635E-01 0.21495340E+02</pdfrwt>
<totfact> 0.29694046E+02</totfact>
</mgrwt>
</event>
<event>
 4    1  0.7653521E+003  0.6503750E+02  0.7546771E-02  0.1377830E+00
         -2   -1    0    0    0  501 -0.00000000000E+00  0.00000000000E+00  0.59893885030E+03  0.59893885030E+03  0.00000000000E+00 0.  1.
          2   -1    0    0  501    0  0.00000000000E+00 -0.00000000000E+00 -0.18146603552E+02  0.18146603552E+02  0.00000000000E+00 0. -1.
          2    1    1    2  502    0 -0.64173614740E+02  0.10565227844E+02  0.49254524145E+02  0.81583607526E+02  0.00000000000E+00 0. -1.
         -2    1    1    2    0  502  0.64173614740E+02 -0.10565227844E+02  0.53153772260E+03  0.53550184633E+03  0.00000000000E+00 0.  1.
<mgrwt>
<rscale>  2 0.65037504E+02</rscale>
<asrwt>0</asrwt>
<pdfrwt beam="2">  1        2 0.27917856E-02 0.65037504E+02</pdfrwt>
<pdfrwt beam="1">  1       -2 0.92144423E-01 0.65037504E+02</pdfrwt>
<totfact> 0.31853727E+03</totfact>
</mgrwt>
</event>
<event>
 4    1  0.7653521E+003  0.8450741E+02  0.7546771E-02  0.1316726E+00
          2   -1    0    0  501    0  0.00000000000E+00  0.00000000000E+00  0.42024001295E+03  0.42024001295E+03  0.00000000000E+00 0.  1.
         -2   -1    0    0    0  501 -0.00000000000E+00 -0.00000000000E+00 -0.35091266001E+02  0.35091266001E+02  0.00000000000E+00 0.  1.
          2    1    1    2  502    0 -0.72261872171E+02 -0.43814663159E+02  0.35606996702E+03  0.36596082343E+03  0.00000000000E+00 0.  1.
         -2    1    1    2    0  502  0.72261872171E+02  0.43814663159E+02  0.29078779935E+02  0.89370455520E+02  0.00000000000E+00 0.  1.
<mgrwt>
<rscale>  2 0.84507413E+02</rscale>
<asrwt>0</asrwt>
<pdfrwt beam="1">  1        2 0.64652306E-01 0.84507413E+02</pdfrwt>
<pdfrwt beam="2">  1       -2 0.53986566E-02 0.84507413E+02</pdfrwt>
<totfact> 0.11974724E+04</totfact>
</mgrwt>
</event>
<event>
 4    1  0.7653521E+003  0.5591411E+02  0.7546771E-02  0.1415825E+00
          2   -1    0    0  501    0  0.00000000000E+00  0.00000000000E+00  0.87984068932E+03  0.87984068932E+03  0.00000000000E+00 0.  1.
         -2   -1    0    0    0  501 -0.00000000000E+00 -0.00000000000E+00 -0.42915512424E+01  0.42915512424E+01  0.00000000000E+00 0.  1.
          2    1    1    2  502    0 -0.40844717837E+01 -0.55764723551E+02  0.62111813121E+03  0.62362979420E+03  0.00000000000E+00 0.  1.
         -2    1    1    2    0  502  0.40844717837E+01  0.55764723551E+02  0.25443100687E+03  0.26050244636E+03  0.00000000000E+00 0.  1.
<mgrwt>
<rscale>  2 0.55914106E+02</rscale>
<asrwt>0</asrwt>
<pdfrwt beam="1">  1        2 0.13535996E+00 0.55914106E+02</pdfrwt>
<pdfrwt beam="2">  1       -2 0.66023935E-03 0.55914106E+02</pdfrwt>
<totfact> 0.99771019E+04</totfact>
</mgrwt>
</event>
<event>
 4    1  0.7653521E+003  0.2928032E+02  0.7546771E-02  0.1606183E+00
          2   -1    0    0  501    0  0.00000000000E+00  0.00000000000E+00  0.17998364625E+02  0.17998364625E+02  0.00000000000E+00 0. -1.
         -2   -1    0    0    0  501 -0.00000000000E+00 -0.00000000000E+00 -0.33215379754E+03  0.33215379754E+03  0.00000000000E+00 0. -1.
          2    1    1    2  502    0 -0.19770207074E+02 -0.21598050315E+02  0.49589626857E+01  0.29697275567E+02  0.00000000000E+00 0. -1.
         -2    1    1    2    0  502  0.19770207074E+02  0.21598050315E+02 -0.31911439560E+03  0.32045488660E+03  0.00000000000E+00 0. -1.
<mgrwt>
<rscale>  2 0.29280315E+02</rscale>
<asrwt>0</asrwt>
<pdfrwt beam="1">  1        2 0.27689791E-02 0.29280315E+02</pdfrwt>
<pdfrwt beam="2">  1       -2 0.51100585E-01 0.29280315E+02</pdfrwt>
<totfact> 0.97877769E+03</totfact>
</mgrwt>
</event>
<event>
 4    1  0.7653521E+003  0.2082359E+02  0.7546771E-02  0.1729429E+00
          2   -1    0    0  501    0  0.00000000000E+00  0.00000000000E+00  0.57229949977E+02  0.57229949977E+02  0.00000000000E+00 0. -1.
         -2   -1    0    0    0  501 -0.00000000000E+00 -0.00000000000E+00 -0.96048560604E+03  0.96048560604E+03  0.00000000000E+00 0. -1.
          2    1    1    2  502    0 -0.18115669621E+02 -0.10268617206E+02  0.55218901587E+02  0.59014820830E+02  0.00000000000E+00 0. -1.
         -2    1    1    2    0  502  0.18115669621E+02  0.10268617206E+02 -0.95847455765E+03  0.95870073519E+03  0.00000000000E+00 0. -1.
<mgrwt>
<rscale>  2 0.20823592E+02</rscale>
<asrwt>0</asrwt>
<pdfrwt beam="1">  1        2 0.88046082E-02 0.20823592E+02</pdfrwt>
<pdfrwt beam="2">  1       -2 0.14776701E+00 0.20823592E+02</pdfrwt>
<totfact> 0.22986865E+02</totfact>
</mgrwt>
</event>
<event>
 4    1  0.7653521E+003  0.2169049E+02  0.7546771E-02  0.1713660E+00
          2   -1    0    0  501    0  0.00000000000E+00  0.00000000000E+00  0.79875936083E+03  0.79875936083E+03  0.00000000000E+00 0.  1.
         -2   -1    0    0    0  501 -0.00000000000E+00 -0.00000000000E+00 -0.13587769540E+03  0.13587769540E+03  0.00000000000E+00 0.  1.
          2    1    1    2  502    0 -0.16107958384E+02  0.14526217976E+02  0.79774538176E+03  0.79804020666E+03  0.00000000000E+00 0.  1.
         -2    1    1    2    0  502  0.16107958384E+02 -0.14526217976E+02 -0.13486371633E+03  0.13659684958E+03  0.00000000000E+00 0.  1.
<mgrwt>
<rscale>  2 0.21690489E+02</rscale>
<asrwt>0</asrwt>
<pdfrwt beam="1">  1        2 0.12288605E+00 0.21690489E+02</pdfrwt>
<pdfrwt beam="2">  1       -2 0.20904261E-01 0.21690489E+02</pdfrwt>
<totfact> 0.68648098E+02</totfact>
</mgrwt>
</event>
<event>
 4    1  0.7653521E+003  0.2279525E+02  0.7546771E-02  0.1694851E+00
         -2   -1    0    0    0  501 -0.00000000000E+00  0.00000000000E+00  0.85903832871E+00  0.85903832871E+00  0.00000000000E+00 0. -1.
          2   -1    0    0  501    0  0.00000000000E+00 -0.00000000000E+00 -0.16669849650E+04  0.16669849650E+04  0.00000000000E+00 0.  1.
          2    1    1    2  502    0 -0.18535347099E+02  0.13268928329E+02 -0.14987058570E+04  0.14988792044E+04  0.00000000000E+00 0.  1.
         -2    1    1    2    0  502  0.18535347099E+02 -0.13268928329E+02 -0.16742006964E+03  0.16896479891E+03  0.00000000000E+00 0. -1.
<mgrwt>
<rscale>  2 0.22795253E+02</rscale>
<asrwt>0</asrwt>
<pdfrwt beam="2">  1        2 0.25645808E+00 0.22795253E+02</pdfrwt>
<pdfrwt beam="1">  1       -2 0.13216034E-03 0.22795253E+02</pdfrwt>
<totfact> 0.29089274E+05</totfact>
</mgrwt>
</event>
<event>
 4    1  0.7653521E+003  0.4264024E+02  0.7546771E-02  0.1489635E+00
          2   -1    0    0  501    0  0.00000000000E+00  0.00000000000E+00  0.13198118877E+02  0.13198118877E+02  0.00000000000E+00 0. -1.
         -2   -1    0    0    0  501 -0.00000000000E+00 -0.00000000000E+00 -0.20134710611E+03  0.20134710611E+03  0.00000000000E+00 0.  1.
          2    1    1    2  502    0 -0.29663450832E+01 -0.42536939920E+02 -0.33791316000E+02  0.54406281788E+02  0.00000000000E+00 0. -1.
         -2    1    1    2    0  502  0.29663450832E+01  0.42536939920E+02 -0.15435767123E+03  0.16013894320E+03  0.00000000000E+00 0.  1.
<mgrwt>
<rscale>  2 0.42640245E+02</rscale>
<asrwt>0</asrwt>
<pdfrwt beam="1">  1        2 0.20304798E-02 0.42640245E+02</pdfrwt>
<pdfrwt beam="2">  1       -2 0.30976478E-01 0.42640245E+02</pdfrwt>
<totfact> 0.39217285E+04</totfact>
</mgrwt>
</event>
<event>
 4    1  0.7653521E+003  0.2300008E+02  0.7546771E-02  0.1691509E+00
         -2   -1    0    0    0  501 -0.00000000000E+00  0.00000000000E+00  0.15756281519E+03  0.15756281519E+03  0.00000000000E+00 0. -1.
          2   -1    0    0  501    0  0.00000000000E+00 -0.00000000000E+00 -0.82604774430E+02  0.82604774430E+02  0.00000000000E+00 0. -1.
          2    1    1    2  502    0 -0.18182260301E+02 -0.14085775675E+02 -0.80139098878E+02  0.83374329593E+02  0.00000000000E+00 0. -1.
         -2    1    1    2    0  502  0.18182260301E+02  0.14085775675E+02  0.15509713963E+03  0.15679326002E+03  0.00000000000E+00 0. -1.
<mgrwt>
<rscale>  2 0.23000080E+02</rscale>
<asrwt>0</asrwt>
<pdfrwt beam="2">  1        2 0.12708427E-01 0.23000080E+02</pdfrwt>
<pdfrwt beam="1">  1       -2 0.24240433E-01 0.23000080E+02</pdfrwt>
<totfact> 0.56308412E+03</totfact>
</mgrwt>
</event>
<event>
 4    1  0.7653521E+003  0.2373153E+02  0.7546771E-02  0.1679919E+00
         -2   -1    0    0    0  501 -0.00000000000E+00  0.00000000000E+00  0.45906023425E+02  0.45906023425E+02  0.00000000000E+00 0. -1.
          2   -1    0    0  501    0  0.00000000000E+00 -0.00000000000E+00 -0.70506460192E+03  0.70506460192E+03  0.00000000000E+00 0.  1.
          2    1    1    2  502    0 -0.10748421697E+02  0.21157905073E+02 -0.70178351682E+03  0.70218465520E+03  0.00000000000E+00 0.  1.
         -2    1    1    2    0  502  0.10748421697E+02 -0.21157905073E+02  0.42624938324E+02  0.48785970147E+02  0.00000000000E+00 0. -1.
<mgrwt>
<rscale>  2 0.23731530E+02</rscale>
<asrwt>0</asrwt>
<pdfrwt beam="2">  1        2 0.10847147E+00 0.23731530E+02</pdfrwt>
<pdfrwt beam="1">  1       -2 0.70624656E-02 0.23731530E+02</pdfrwt>
<totfact> 0.41355641E+03</totfact>
</mgrwt>
</event>
<event>
 4    1  0.7653521E+003  0.2553597E+02  0.7546771E-02  0.1653421E+00
          2   -1    0    0  501    0  0.00000000000E+00  0.00000000000E+00  0.47077699079E+03  0.47077699079E+03  0.00000000000E+00 0. -1.
         -2   -1    0    0    0  501 -0.00000000000E+00 -0.00000000000E+00 -0.19905858786E+01  0.19905858786E+01  0.00000000000E+00 0.  1.
          2    1    1    2  502    0  0.22737203384E+02  0.11623477181E+02  0.36476083221E+03  0.36565359338E+03  0.00000000000E+00 0. -1.
         -2    1    1    2    0  502 -0.22737203384E+02 -0.11623477181E+02  0.10402557271E+03  0.10711398330E+03  0.00000000000E+00 0.  1.
<mgrwt>
<rscale>  2 0.25535968E+02</rscale>
<asrwt>0</asrwt>
<pdfrwt beam="1">  1        2 0.72427141E-01 0.25535968E+02</pdfrwt>
<pdfrwt beam="2">  1       -2 0.30624435E-03 0.25535968E+02</pdfrwt>
<totfact> 0.47760291E+05</totfact>
</mgrwt>
</event>
<event>
 4    1  0.7653521E+003  0.2091415E+02  0.7546771E-02  0.1727737E+00
         -2   -1    0    0    0  501 -0.00000000000E+00  0.00000000000E+00  0.27515706286E+01  0.27515706286E+01  0.00000000000E+00 0.  1.
          2   -1    0    0  501    0  0.00000000000E+00 -0.00000000000E+00 -0.17014327530E+03  0.17014327530E+03  0.00000000000E+00 0.  1.
          2    1    1    2  502    0  0.16911121750E+02  0.12305099537E+02 -0.10585461735E+03  0.10790088752E+03  0.00000000000E+00 0.  1.
         -2    1    1    2    0  502 -0.16911121750E+02 -0.12305099537E+02 -0.61537087316E+02  0.64993958403E+02  0.00000000000E+00 0.  1.
<mgrwt>
<rscale>  2 0.20914146E+02</rscale>
<asrwt>0</asrwt>
<pdfrwt beam="2">  1        2 0.26175885E-01 0.20914146E+02</pdfrwt>
<pdfrwt beam="1">  1       -2 0.42331861E-03 0.20914146E+02</pdfrwt>
<totfact> 0.80365242E+05</totfact>
</mgrwt>
</event>
<event>
 4    1  0.7653521E+003  0.3972591E+02  0.7546771E-02  0.1510238E+00
         -2   -1    0    0    0  501 -0.00000000000E+00  0.00000000000E+00  0.76049602831E+01  0.76049602831E+01  0.00000000000E+00 0. -1.
          2   -1    0    0  501    0  0.00000000000E+00 -0.00000000000E+00 -0.39053860349E+03  0.39053860349E+03  0.00000000000E+00 0. -1.
          2    1    1    2  502    0 -0.32929529245E+02 -0.22221484268E+02 -0.32774631225E+03  0.33014510969E+03  0.00000000000E+00 0. -1.
         -2    1    1    2    0  502  0.32929529245E+02  0.22221484268E+02 -0.55187330954E+02  0.67998454079E+02  0.00000000000E+00 0. -1.
<mgrwt>
<rscale>  2 0.39725914E+02</rscale>
<asrwt>0</asrwt>
<pdfrwt beam="2">  1        2 0.60082871E-01 0.39725914E+02</pdfrwt>
<pdfrwt beam="1">  1       -2 0.11699937E-02 0.39725914E+02</pdfrwt>
<totfact> 0.10352889E+05</totfact>
</mgrwt>
</event>
<event>
 4    1  0.7653521E+003  0.2274941E+02  0.7546771E-02  0.1695605E+00
         -2   -1    0    0    0  501 -0.00000000000E+00  0.00000000000E+00  0.61207928582E+01  0.61207928582E+01  0.00000000000E+00 0.  1.
          2   -1    0    0  501    0  0.00000000000E+00 -0.00000000000E+00 -0.23603532123E+03  0.23603532123E+03  0.00000000000E+00 0. -1.
          2    1    1    2  502    0 -0.20527254046E+02  0.98064914255E+01 -0.21195396783E+03  0.21317133933E+03  0.00000000000E+00 0. -1.
         -2    1    1    2    0  502  0.20527254046E+02 -0.98064914255E+01 -0.17960560538E+02  0.28984774754E+02  0.00000000000E+00 0.  1.
<mgrwt>
<rscale>  2 0.22749405E+02</rscale>
<asrwt>0</asrwt>
<pdfrwt beam="2">  1        2 0.36313123E-01 0.22749405E+02</pdfrwt>
<pdfrwt beam="1">  1       -2 0.94166053E-03 0.22749405E+02</pdfrwt>
<totfact> 0.20289756E+05</totfact>
</mgrwt>
</event>
<event>
 4    1  0.7653521E+003  0.2765199E+02  0.7546771E-02  0.1625594E+00
          2   -1    0    0  501    0  0.00000000000E+00  0.00000000000E+00  0.50587481063E+02  0.50587481063E+02  0.00000000000E+00 0. -1.
         -2   -1    0    0    0  501 -0.00000000000E+00 -0.00000000000E+00 -0.64344428948E+02  0.64344428948E+02  0.00000000000E+00 0.  1.
          2    1    1    2  502    0 -0.27155138720E+02  0.52183243107E+01  0.43386714772E+02  0.51449387618E+02  0.00000000000E+00 0. -1.
         -2    1    1    2    0  502  0.27155138720E+02 -0.52183243107E+01 -0.57143662658E+02  0.63482522394E+02  0.00000000000E+00 0.  1.
<mgrwt>
<rscale>  2 0.27651988E+02</rscale>
<asrwt>0</asrwt>
<pdfrwt beam="1">  1        2 0.77826894E-02 0.27651988E+02</pdfrwt>
<pdfrwt beam="2">  1       -2 0.98991430E-02 0.27651988E+02</pdfrwt>
<totfact> 0.41703115E+04</totfact>
</mgrwt>
</event>
<event>
 4    1  0.7653521E+003  0.3163307E+02  0.7546771E-02  0.1580708E+00
          2   -1    0    0  501    0  0.00000000000E+00  0.00000000000E+00  0.10463435437E+04  0.10463435437E+04  0.00000000000E+00 0. -1.
         -2   -1    0    0    0  501 -0.00000000000E+00 -0.00000000000E+00 -0.71252576905E+02  0.71252576905E+02  0.00000000000E+00 0.  1.
          2    1    1    2  502    0  0.13074264937E+02 -0.28804770027E+02  0.10425808630E+04  0.10430606440E+04  0.00000000000E+00 0. -1.
         -2    1    1    2    0  502 -0.13074264937E+02  0.28804770027E+02 -0.67489896212E+02  0.74535476591E+02  0.00000000000E+00 0.  1.
<mgrwt>
<rscale>  2 0.31633071E+02</rscale>
<asrwt>0</asrwt>
<pdfrwt beam="1">  1        2 0.16097592E+00 0.31633071E+02</pdfrwt>
<pdfrwt beam="2">  1       -2 0.10961936E-01 0.31633071E+02</pdfrwt>
<totfact> 0.13744589E+03</totfact>
</mgrwt>
</event>
<event>
 4    1  0.7653521E+003  0.2174266E+02  0.7546771E-02  0.1712741E+00
         -2   -1    0    0    0  501 -0.00000000000E+00  0.00000000000E+00  0.16284297754E+03  0.16284297754E+03  0.00000000000E+00 0. -1.
          2   -1    0    0  501    0  0.00000000000E+00 -0.00000000000E+00 -0.60110934855E+01  0.60110934855E+01  0.00000000000E+00 0. -1.
          2    1    1    2  502    0  0.14271800770E+02 -0.16403021496E+02  0.17707730462E+02  0.28041168476E+02  0.00000000000E+00 0. -1.
         -2    1    1    2    0  502 -0.14271800770E+02  0.16403021496E+02  0.13912415359E+03  0.14081290255E+03  0.00000000000E+00 0. -1.
<mgrwt>
<rscale>  2 0.21742663E+02</rscale>
<asrwt>0</asrwt>
<pdfrwt beam="2">  1        2 0.92478374E-03 0.21742663E+02</pdfrwt>
<pdfrwt beam="1">  1       -2 0.25052762E-01 0.21742663E+02</pdfrwt>
<totfact> 0.13454749E+05</totfact>
</mgrwt>
</event>
<event>
 4    1  0.7653521E+003  0.4242346E+02  0.7546771E-02  0.1491099E+00
          2   -1    0    0  501    0  0.00000000000E+00  0.00000000000E+00  0.22278085181E+04  0.22278085181E+04  0.00000000000E+00 0.  1.
         -2   -1    0    0    0  501 -0.00000000000E+00 -0.00000000000E+00 -0.69560637932E+01  0.69560637932E+01  0.00000000000E+00 0. -1.
          2    1    1    2  502    0  0.25002617088E+02  0.34272714783E+02  0.21609218640E+04  0.21613382549E+04  0.00000000000E+00 0.  1.
         -2    1    1    2    0  502 -0.25002617088E+02 -0.34272714783E+02  0.59930590332E+02  0.73426327005E+02  0.00000000000E+00 0. -1.
<mgrwt>
<rscale>  2 0.42423459E+02</rscale>
<asrwt>0</asrwt>
<pdfrwt beam="1">  1        2 0.34273920E+00 0.42423459E+02</pdfrwt>
<pdfrwt beam="2">  1       -2 0.10701654E-02 0.42423459E+02</pdfrwt>
<totfact> 0.10196829E+04</totfact>
</mgrwt>
</event>
<event>
 4    1  0.7653521E+003  0.2530032E+02  0.7546771E-02  0.1656725E+00
          2   -1    0    0  501    0  0.00000000000E+00  0.00000000000E+00  0.27439749422E+02  0.27439749422E+02  0.00000000000E+00 0.  1.
         -2   -1    0    0    0  501 -0.00000000000E+00 -0.00000000000E+00 -0.31515185890E+02  0.31515185890E+02  0.00000000000E+00 0.  1.
          2    1    1    2  502    0  0.82243915596E+01  0.23926256796E+02  0.12986967045E+02  0.28438841289E+02  0.00000000000E+00 0.  1.
         -2    1    1    2    0  502 -0.82243915596E+01 -0.23926256796E+02 -0.17062403513E+02  0.30516094023E+02  0.00000000000E+00 0.  1.
<mgrwt>
<rscale>  2 0.25300324E+02</rscale>
<asrwt>0</asrwt>
<pdfrwt beam="1">  1        2 0.42214999E-02 0.25300324E+02</pdfrwt>
<pdfrwt beam="2">  1       -2 0.48484902E-02 0.25300324E+02</pdfrwt>
<totfact> 0.24333225E+05</totfact>
</mgrwt>
</event>
<event>
 4    1  0.7653521E+003  0.2195782E+02  0.7546771E-02  0.1708982E+00
          2   -1    0    0  501    0  0.00000000000E+00  0.00000000000E+00  0.12823334546E+04  0.12823334546E+04  0.00000000000E+00 0.  1.
         -2   -1    0    0    0  501 -0.00000000000E+00 -0.00000000000E+00 -0.51441505566E+02  0.51441505566E+02  0.00000000000E+00 0.  1.
          2    1    1    2  502    0 -0.15372390366E+02 -0.15679146118E+02  0.12798918110E+04  0.12800801514E+04  0.00000000000E+00 0.  1.
         -2    1    1    2    0  502  0.15372390366E+02  0.15679146118E+02 -0.48999862029E+02  0.53694808756E+02  0.00000000000E+00 0.  1.
<mgrwt>
<rscale>  2 0.21957823E+02</rscale>
<asrwt>0</asrwt>
<pdfrwt beam="1">  1        2 0.19728205E+00 0.21957823E+02</pdfrwt>
<pdfrwt beam="2">  1       -2 0.79140787E-02 0.21957823E+02</pdfrwt>
<totfact> 0.16668595E+03</totfact>
</mgrwt>
</event>
<event>
 4    1  0.7653521E+003  0.2052214E+02  0.7546771E-02  0.1735140E+00
          2   -1    0    0  501    0  0.00000000000E+00  0.00000000000E+00  0.15993193154E+02  0.15993193154E+02  0.00000000000E+00 0.  1.
         -2   -1    0    0    0  501 -0.00000000000E+00 -0.00000000000E+00 -0.27227144062E+02  0.27227144062E+02  0.00000000000E+00 0.  1.
          2    1    1    2  502    0 -0.67839187937E+01 -0.19368441262E+02 -0.17020873468E+01  0.20592599944E+02  0.00000000000E+00 0.  1.
         -2    1    1    2    0  502  0.67839187937E+01  0.19368441262E+02 -0.95318635621E+01  0.22627737272E+02  0.00000000000E+00 0.  1.
<mgrwt>
<rscale>  2 0.20522136E+02</rscale>
<asrwt>0</asrwt>
<pdfrwt beam="1">  1        2 0.24604913E-02 0.20522136E+02</pdfrwt>
<pdfrwt beam="2">  1       -2 0.41887913E-02 0.20522136E+02</pdfrwt>
<totfact> 0.55217440E+05</totfact>
</mgrwt>
</event>
<event>
 4    1  0.7653521E+003  0.2037644E+02  0.7546771E-02  0.1737944E+00
          2   -1    0    0  501    0  0.00000000000E+00  0.00000000000E+00  0.13434192076E+02  0.13434192076E+02  0.00000000000E+00 0. -1.
         -2   -1    0    0    0  501 -0.00000000000E+00 -0.00000000000E+00 -0.54221207148E+02  0.54221207148E+02  0.00000000000E+00 0. -1.
          2    1    1    2  502    0  0.44789454511E+01 -0.19878090795E+02  0.17887587785E+01  0.20454806378E+02  0.00000000000E+00 0. -1.
         -2    1    1    2    0  502 -0.44789454511E+01  0.19878090795E+02 -0.42575773851E+02  0.47200592846E+02  0.00000000000E+00 0. -1.
<mgrwt>
<rscale>  2 0.20376443E+02</rscale>
<asrwt>0</asrwt>
<pdfrwt beam="1">  1        2 0.20667988E-02 0.20376443E+02</pdfrwt>
<pdfrwt beam="2">  1       -2 0.83417242E-02 0.20376443E+02</pdfrwt>
<totfact> 0.25689809E+05</totfact>
</mgrwt>
</event>
<event>
 4    1  0.7653521E+003  0.2095220E+02  0.7546771E-02  0.1727030E+00
         -2   -1    0    0    0  501 -0.00000000000E+00  0.00000000000E+00  0.45683658250E+02  0.45683658250E+02  0.00000000000E+00 0.  1.
          2   -1    0    0  501    0  0.00000000000E+00 -0.00000000000E+00 -0.21509455561E+03  0.21509455561E+03  0.00000000000E+00 0. -1.
          2    1    1    2  502    0  0.16008145818E+02 -0.13517909024E+02 -0.21214868197E+03  0.21318081025E+03  0.00000000000E+00 0. -1.
         -2    1    1    2    0  502 -0.16008145818E+02  0.13517909024E+02  0.42737784611E+02  0.47597403609E+02  0.00000000000E+00 0.  1.
<mgrwt>
<rscale>  2 0.20952198E+02</rscale>
<asrwt>0</asrwt>
<pdfrwt beam="2">  1        2 0.33091470E-01 0.20952198E+02</pdfrwt>
<pdfrwt beam="1">  1       -2 0.70282550E-02 0.20952198E+02</pdfrwt>
<totfact> 0.13507322E+04</totfact>
</mgrwt>
</event>
<event>
 4    1  0.7653521E+003  0.3325775E+02  0.7546771E-02  0.1564640E+00
          2   -1    0    0  501    0  0.00000000000E+00  0.00000000000E+00  0.40814919448E+02  0.40814919448E+02  0.00000000000E+00 0.  1.
         -2   -1    0    0    0  501 -0.00000000000E+00 -0.00000000000E+00 -0.73706973147E+02  0.73706973147E+02  0.00000000000E+00 0.  1.
          2    1    1    2  502    0  0.26406512574E+02 -0.20218157956E+02  0.29087409158E+02  0.44183200303E+02  0.00000000000E+00 0.  1.
         -2    1    1    2    0  502 -0.26406512574E+02  0.20218157956E+02 -0.61979462856E+02  0.70338692293E+02  0.00000000000E+00 0.  1.
<mgrwt>
<rscale>  2 0.33257748E+02</rscale>
<asrwt>0</asrwt>
<pdfrwt beam="1">  1        2 0.62792184E-02 0.33257748E+02</pdfrwt>
<pdfrwt beam="2">  1       -2 0.11339534E-01 0.33257748E+02</pdfrwt>
<totfact> 0.45638922E+04</totfact>
</mgrwt>
</event>
<event>
 4    1  0.7653521E+003  0.4393654E+02  0.7546771E-02  0.1481092E+00
          2   -1    0    0  501    0  0.00000000000E+00  0.00000000000E+00  0.16695796262E+03  0.16695796262E+03  0.00000000000E+00 0. -1.
         -2   -1    0    0    0  501 -0.00000000000E+00 -0.00000000000E+00 -0.45405188552E+02  0.45405188552E+02  0.00000000000E+00 0. -1.
          2    1    1    2  502    0 -0.40794787065E+02  0.16315783908E+02  0.15244698865E+03  0.15865214718E+03  0.00000000000E+00 0. -1.
         -2    1    1    2    0  502  0.40794787065E+02 -0.16315783908E+02 -0.30894214576E+02  0.53711003998E+02  0.00000000000E+00 0. -1.
<mgrwt>
<rscale>  2 0.43936539E+02</rscale>
<asrwt>0</asrwt>
<pdfrwt beam="1">  1        2 0.25685840E-01 0.43936539E+02</pdfrwt>
<pdfrwt beam="2">  1       -2 0.69854137E-02 0.43936539E+02</pdfrwt>
<totfact> 0.19804223E+04</totfact>
</mgrwt>
</event>
<event>
 4    1  0.7653521E+003  0.2423951E+02  0.7546771E-02  0.1672172E+00
         -2   -1    0    0    0  501 -0.00000000000E+00  0.00000000000E+00  0.66357616116E+03  0.66357616116E+03  0.00000000000E+00 0. -1.
          2   -1    0    0  501    0  0.00000000000E+00 -0.00000000000E+00 -0.91029308806E+01  0.91029308806E+01  0.00000000000E+00 0. -1.
          2    1    1    2  502    0  0.84785389765E+01 -0.22708333846E+02  0.76732108178E+01  0.25425031239E+02  0.00000000000E+00 0. -1.
         -2    1    1    2    0  502 -0.84785389765E+01  0.22708333846E+02  0.64680001946E+03  0.64725406080E+03  0.00000000000E+00 0. -1.
<mgrwt>
<rscale>  2 0.24239514E+02</rscale>
<asrwt>0</asrwt>
<pdfrwt beam="2">  1        2 0.14004514E-02 0.24239514E+02</pdfrwt>
<pdfrwt beam="1">  1       -2 0.10208860E+00 0.24239514E+02</pdfrwt>
<totfact> 0.54351044E+03</totfact>
</mgrwt>
</event>
<event>
 4    1  0.7653521E+003  0.2702305E+02  0.7546771E-02  0.1633536E+00
         -2   -1    0    0    0  501 -0.00000000000E+00  0.00000000000E+00  0.68941149431E+01  0.68941149431E+01  0.00000000000E+00 0. -1.
          2   -1    0    0  501    0  0.00000000000E+00 -0.00000000000E+00 -0.26376807848E+03  0.26376807848E+03  0.00000000000E+00 0. -1.
          2    1    1    2  502    0 -0.27022867146E+02 -0.98317889974E-01 -0.23312622742E+03  0.23468720230E+03  0.00000000000E+00 0. -1.
         -2    1    1    2    0  502  0.27022867146E+02  0.98317889974E-01 -0.23747736116E+02  0.35974991116E+02  0.00000000000E+00 0. -1.
<mgrwt>
<rscale>  2 0.27023046E+02</rscale>
<asrwt>0</asrwt>
<pdfrwt beam="2">  1        2 0.40579695E-01 0.27023046E+02</pdfrwt>
<pdfrwt beam="1">  1       -2 0.10606333E-02 0.27023046E+02</pdfrwt>
<totfact> 0.16148806E+05</totfact>
</mgrwt>
</event>
<event>
 4    1  0.7653521E+003  0.2962701E+02  0.7546771E-02  0.1602249E+00
         -2   -1    0    0    0  501 -0.00000000000E+00  0.00000000000E+00  0.66166285576E+02  0.66166285576E+02  0.00000000000E+00 0. -1.
          2   -1    0    0  501    0  0.00000000000E+00 -0.00000000000E+00 -0.11998648257E+03  0.11998648257E+03  0.00000000000E+00 0. -1.
          2    1    1    2  502    0 -0.17599676672E+02  0.23832980331E+02 -0.11469044790E+03  0.11845530131E+03  0.00000000000E+00 0. -1.
         -2    1    1    2    0  502  0.17599676672E+02 -0.23832980331E+02  0.60870250903E+02  0.67697466832E+02  0.00000000000E+00 0. -1.
<mgrwt>
<rscale>  2 0.29627007E+02</rscale>
<asrwt>0</asrwt>
<pdfrwt beam="2">  1        2 0.18459459E-01 0.29627007E+02</pdfrwt>
<pdfrwt beam="1">  1       -2 0.10179429E-01 0.29627007E+02</pdfrwt>
<totfact> 0.15165711E+04</totfact>
</mgrwt>
</event>
<event>
 4    1  0.7653521E+003  0.2181535E+02  0.7546771E-02  0.1711465E+00
          2   -1    0    0  501    0  0.00000000000E+00  0.00000000000E+00  0.97072269573E+03  0.97072269573E+03  0.00000000000E+00 0.  1.
         -2   -1    0    0    0  501 -0.00000000000E+00 -0.00000000000E+00 -0.26532114569E+01  0.26532114569E+01  0.00000000000E+00 0. -1.
          2    1    1    2  502    0 -0.21724720782E+02  0.19864114987E+01  0.92346277621E+03  0.92372041678E+03  0.00000000000E+00 0.  1.
         -2    1    1    2    0  502  0.21724720782E+02 -0.19864114987E+01  0.44606708062E+02  0.49655490410E+02  0.00000000000E+00 0. -1.
<mgrwt>
<rscale>  2 0.21815346E+02</rscale>
<asrwt>0</asrwt>
<pdfrwt beam="1">  1        2 0.14934167E+00 0.21815346E+02</pdfrwt>
<pdfrwt beam="2">  1       -2 0.40818715E-03 0.21815346E+02</pdfrwt>
<totfact> 0.14208909E+05</totfact>
</mgrwt>
</event>
<event>
 4    1  0.7653521E+003  0.2349522E+02  0.7546771E-02  0.1683606E+00
          2   -1    0    0  501    0  0.00000000000E+00  0.00000000000E+00  0.10341935149E+04  0.10341935149E+04  0.00000000000E+00 0. -1.
         -2   -1    0    0    0  501 -0.00000000000E+00 -0.00000000000E+00 -0.13540984445E+03  0.13540984445E+03  0.00000000000E+00 0.  1.
          2    1    1    2  502    0  0.23285259391E+02 -0.31340312218E+01  0.10330397580E+04  0.10333069085E+04  0.00000000000E+00 0. -1.
         -2    1    1    2    0  502 -0.23285259391E+02  0.31340312218E+01 -0.13425608760E+03  0.13629645085E+03  0.00000000000E+00 0.  1.
<mgrwt>
<rscale>  2 0.23495222E+02</rscale>
<asrwt>0</asrwt>
<pdfrwt beam="1">  1        2 0.15910669E+00 0.23495222E+02</pdfrwt>
<pdfrwt beam="2">  1       -2 0.20832284E-01 0.23495222E+02</pdfrwt>
<totfact> 0.50785324E+02</totfact>
</mgrwt>
</event>
<event>
 4    1  0.7653521E+003  0.2837636E+02  0.7546771E-02  0.1616762E+00
         -2   -1    0    0    0  501 -0.00000000000E+00  0.00000000000E+00  0.42387653866E+00  0.42387653866E+00  0.00000000000E+00 0.  1.
          2   -1    0    0  501    0  0.00000000000E+00 -0.00000000000E+00 -0.25470404287E+04  0.25470404287E+04  0.00000000000E+00 0.  1.
          2    1    1    2  502    0 -0.21126693395E+02  0.18944149792E+02 -0.19154673192E+04  0.19156774961E+04  0.00000000000E+00 0.  1.
         -2    1    1    2    0  502  0.21126693395E+02 -0.18944149792E+02 -0.63114923290E+03  0.63178680911E+03  0.00000000000E+00 0.  1.
<mgrwt>
<rscale>  2 0.28376363E+02</rscale>
<asrwt>0</asrwt>
<pdfrwt beam="2">  1        2 0.39184727E+00 0.28376363E+02</pdfrwt>
<pdfrwt beam="1">  1       -2 0.65212625E-04 0.28376363E+02</pdfrwt>
<totfact> 0.29567362E+05</totfact>
</mgrwt>
</event>
<event>
 4    1  0.7653521E+003  0.2265265E+02  0.7546771E-02  0.1697203E+00
          2   -1    0    0  501    0  0.00000000000E+00  0.00000000000E+00  0.49909769799E+03  0.49909769799E+03  0.00000000000E+00 0. -1.
         -2   -1    0    0    0  501 -0.00000000000E+00 -0.00000000000E+00 -0.66432037889E+01  0.66432037889E+01  0.00000000000E+00 0. -1.
          2    1    1    2  502    0 -0.46419869279E+01 -0.22171926100E+02  0.47870780503E+03  0.47924347147E+03  0.00000000000E+00 0. -1.
         -2    1    1    2    0  502  0.46419869279E+01  0.22171926100E+02  0.13746689163E+02  0.26497430301E+02  0.00000000000E+00 0. -1.
<mgrwt>
<rscale>  2 0.22652646E+02</rscale>
<asrwt>0</asrwt>
<pdfrwt beam="1">  1        2 0.76784232E-01 0.22652646E+02</pdfrwt>
<pdfrwt beam="2">  1       -2 0.10220317E-02 0.22652646E+02</pdfrwt>
<totfact> 0.86480162E+04</totfact>
</mgrwt>
</event>
<event>
 4    1  0.7653521E+003  0.2450164E+02  0.7546771E-02  0.1668265E+00
         -2   -1    0    0    0  501 -0.00000000000E+00  0.00000000000E+00  0.26125440312E+01  0.26125440312E+01  0.00000000000E+00 0.  1.
          2   -1    0    0  501    0  0.00000000000E+00 -0.00000000000E+00 -0.41932480511E+03  0.41932480511E+03  0.00000000000E+00 0.  1.
          2    1    1    2  502    0  0.46374824556E+01  0.24058760347E+02 -0.35019326438E+03  0.35104935922E+03  0.00000000000E+00 0.  1.
         -2    1    1    2    0  502 -0.46374824556E+01 -0.24058760347E+02 -0.66518996696E+02  0.70887989917E+02  0.00000000000E+00 0.  1.
<mgrwt>
<rscale>  2 0.24501637E+02</rscale>
<asrwt>0</asrwt>
<pdfrwt beam="2">  1        2 0.64511524E-01 0.24501637E+02</pdfrwt>
<pdfrwt beam="1">  1       -2 0.40192975E-03 0.24501637E+02</pdfrwt>
<totfact> 0.36846401E+05</totfact>
</mgrwt>
</event>
<event>
 4    1  0.7653521E+003  0.5380489E+02  0.7546771E-02  0.1425837E+00
         -2   -1    0    0    0  501 -0.00000000000E+00  0.00000000000E+00  0.60034969996E+02  0.60034969996E+02  0.00000000000E+00 0. -1.
          2   -1    0    0  501    0  0.00000000000E+00 -0.00000000000E+00 -0.64922283207E+03  0.64922283207E+03  0.00000000000E+00 0.  1.
          2    1    1    2  502    0  0.51617528321E+02  0.15185415774E+02 -0.63579863716E+03  0.63807121319E+03  0.00000000000E+00 0.  1.
         -2    1    1    2    0  502 -0.51617528321E+02 -0.15185415774E+02  0.46610775086E+02  0.71186588880E+02  0.00000000000E+00 0. -1.
<mgrwt>
<rscale>  2 0.53804889E+02</rscale>
<asrwt>0</asrwt>
<pdfrwt beam="2">  1        2 0.99880436E-01 0.53804889E+02</pdfrwt>
<pdfrwt beam="1">  1       -2 0.92361492E-02 0.53804889E+02</pdfrwt>
<totfact> 0.32319548E+03</totfact>
</mgrwt>
</event>
<event>
 4    1  0.7653521E+003  0.4693357E+02  0.7546771E-02  0.1462620E+00
         -2   -1    0    0    0  501 -0.00000000000E+00  0.00000000000E+00  0.22138506097E+02  0.22138506097E+02  0.00000000000E+00 0. -1.
          2   -1    0    0  501    0  0.00000000000E+00 -0.00000000000E+00 -0.12631599620E+04  0.12631599620E+04  0.00000000000E+00 0.  1.
          2    1    1    2  502    0  0.46382880025E+02 -0.71685979054E+01 -0.12373301519E+04  0.12382199583E+04  0.00000000000E+00 0.  1.
         -2    1    1    2    0  502 -0.46382880025E+02  0.71685979054E+01 -0.36913039663E+01  0.47078509750E+02  0.00000000000E+00 0. -1.
<mgrwt>
<rscale>  2 0.46933574E+02</rscale>
<asrwt>0</asrwt>
<pdfrwt beam="2">  1        2 0.19433231E+00 0.46933574E+02</pdfrwt>
<pdfrwt beam="1">  1       -2 0.34059239E-02 0.46933574E+02</pdfrwt>
<totfact> 0.59843648E+03</totfact>
</mgrwt>
</event>
<event>
 4    1  0.7653521E+003  0.2178935E+02  0.7546771E-02  0.1711921E+00
          2   -1    0    0  501    0  0.00000000000E+00  0.00000000000E+00  0.49989487572E+03  0.49989487572E+03  0.00000000000E+00 0. -1.
         -2   -1    0    0    0  501 -0.00000000000E+00 -0.00000000000E+00 -0.29277630222E+01  0.29277630222E+01  0.00000000000E+00 0. -1.
          2    1    1    2  502    0  0.14819328432E+02  0.15973829185E+02  0.45513160928E+03  0.45565289145E+03  0.00000000000E+00 0. -1.
         -2    1    1    2    0  502 -0.14819328432E+02 -0.15973829185E+02  0.41835503410E+02  0.47169747291E+02  0.00000000000E+00 0. -1.
<mgrwt>
<rscale>  2 0.21789349E+02</rscale>
<asrwt>0</asrwt>
<pdfrwt beam="1">  1        2 0.76906836E-01 0.21789349E+02</pdfrwt>
<pdfrwt beam="2">  1       -2 0.45042548E-03 0.21789349E+02</pdfrwt>
<totfact> 0.25698898E+05</totfact>
</mgrwt>
</event>
<event>
 4    1  0.7653521E+003  0.2742440E+02  0.7546771E-02  0.1628438E+00
          2   -1    0    0  501    0  0.00000000000E+00  0.00000000000E+00  0.17455055091E+04  0.17455055091E+04  0.00000000000E+00 0. -1.
         -2   -1    0    0    0  501 -0.00000000000E+00 -0.00000000000E+00 -0.16821254767E+01  0.16821254767E+01  0.00000000000E+00 0. -1.
          2    1    1    2  502    0  0.24473812629E+02  0.12374584149E+02  0.16253577621E+04  0.16255891095E+04  0.00000000000E+00 0. -1.
         -2    1    1    2    0  502 -0.24473812629E+02 -0.12374584149E+02  0.11846562144E+03  0.12159852507E+03  0.00000000000E+00 0. -1.
<mgrwt>
<rscale>  2 0.27424402E+02</rscale>
<asrwt>0</asrwt>
<pdfrwt beam="1">  1        2 0.26853786E+00 0.27424402E+02</pdfrwt>
<pdfrwt beam="2">  1       -2 0.25878993E-03 0.27424402E+02</pdfrwt>
<totfact> 0.11371395E+05</totfact>
</mgrwt>
</event>
<event>
 4    1  0.7653521E+003  0.2028104E+02  0.7546771E-02  0.1739796E+00
         -2   -1    0    0    0  501 -0.00000000000E+00  0.00000000000E+00  0.46138316837E+02  0.46138316837E+02  0.00000000000E+00 0. -1.
          2   -1    0    0  501    0  0.00000000000E+00 -0.00000000000E+00 -0.62461063686E+03  0.62461063686E+03  0.00000000000E+00 0. -1.
          2    1    1    2  502    0  0.79484190206E+00 -0.20265456837E+02 -0.62220866857E+03  0.62253911343E+03  0.00000000000E+00 0. -1.
         -2    1    1    2    0  502 -0.79484190206E+00  0.20265456837E+02  0.43736348543E+02  0.48209840264E+02  0.00000000000E+00 0. -1.
<mgrwt>
<rscale>  2 0.20281038E+02</rscale>
<asrwt>0</asrwt>
<pdfrwt beam="2">  1        2 0.96093947E-01 0.20281038E+02</pdfrwt>
<pdfrwt beam="1">  1       -2 0.70982023E-02 0.20281038E+02</pdfrwt>
<totfact> 0.45974687E+03</totfact>
</mgrwt>
</event>
<event>
 4    1  0.7653521E+003  0.2098434E+02  0.7546771E-02  0.1726433E+00
          2   -1    0    0  501    0  0.00000000000E+00  0.00000000000E+00  0.11907343201E+03  0.11907343201E+03  0.00000000000E+00 0.  1.
         -2   -1    0    0    0  501 -0.00000000000E+00 -0.00000000000E+00 -0.59483997056E+03  0.59483997056E+03  0.00000000000E+00 0.  1.
          2    1    1    2  502    0  0.19042432499E+02 -0.88163541471E+01  0.11796211606E+03  0.11981403575E+03  0.00000000000E+00 0.  1.
         -2    1    1    2    0  502 -0.19042432499E+02  0.88163541471E+01 -0.59372865462E+03  0.59409936682E+03  0.00000000000E+00 0.  1.
<mgrwt>
<rscale>  2 0.20984335E+02</rscale>
<asrwt>0</asrwt>
<pdfrwt beam="1">  1        2 0.18318989E-01 0.20984335E+02</pdfrwt>
<pdfrwt beam="2">  1       -2 0.91513843E-01 0.20984335E+02</pdfrwt>
<totfact> 0.30507266E+02</totfact>
</mgrwt>
</event>
<event>
 4    1  0.7653521E+003  0.2029028E+02  0.7546771E-02  0.1739616E+00
          2   -1    0    0  501    0  0.00000000000E+00  0.00000000000E+00  0.48567006930E+03  0.48567006930E+03  0.00000000000E+00 0. -1.
         -2   -1    0    0    0  501 -0.00000000000E+00 -0.00000000000E+00 -0.23788949456E+01  0.23788949456E+01  0.00000000000E+00 0. -1.
          2    1    1    2  502    0 -0.11291730195E+02 -0.16858000770E+02  0.43742323269E+03  0.43789357138E+03  0.00000000000E+00 0. -1.
         -2    1    1    2    0  502  0.11291730195E+02  0.16858000770E+02  0.45867941665E+02  0.50155392864E+02  0.00000000000E+00 0. -1.
<mgrwt>
<rscale>  2 0.20290277E+02</rscale>
<asrwt>0</asrwt>
<pdfrwt beam="1">  1        2 0.74718393E-01 0.20290277E+02</pdfrwt>
<pdfrwt beam="2">  1       -2 0.36598422E-03 0.20290277E+02</pdfrwt>
<totfact> 0.34186535E+05</totfact>
</mgrwt>
</event>
<event>
 4    1  0.7653521E+003  0.2876570E+02  0.7546771E-02  0.1612147E+00
          2   -1    0    0  501    0  0.00000000000E+00  0.00000000000E+00  0.69259348297E+03  0.69259348297E+03  0.00000000000E+00 0.  1.
         -2   -1    0    0    0  501 -0.00000000000E+00 -0.00000000000E+00 -0.13964436616E+01  0.13964436616E+01  0.00000000000E+00 0. -1.
          2    1    1    2  502    0  0.25798886556E+02 -0.12723325408E+02  0.47747699528E+03  0.47834270829E+03  0.00000000000E+00 0.  1.
         -2    1    1    2    0  502 -0.25798886556E+02  0.12723325408E+02  0.21372004403E+03  0.21564721834E+03  0.00000000000E+00 0. -1.
<mgrwt>
<rscale>  2 0.28765701E+02</rscale>
<asrwt>0</asrwt>
<pdfrwt beam="1">  1        2 0.10655257E+00 0.28765701E+02</pdfrwt>
<pdfrwt beam="2">  1       -2 0.21483804E-03 0.28765701E+02</pdfrwt>
<totfact> 0.52941547E+05</totfact>
</mgrwt>
</event>
<event>
 4    1  0.7653521E+003  0.2228826E+02  0.7546771E-02  0.1703314E+00
         -2   -1    0    0    0  501 -0.00000000000E+00  0.00000000000E+00  0.76638987909E+01  0.76638987909E+01  0.00000000000E+00 0. -1.
          2   -1    0    0  501    0  0.00000000000E+00 -0.00000000000E+00 -0.41377009837E+03  0.41377009837E+03  0.00000000000E+00 0. -1.
          2    1    1    2  502    0  0.10844950924E+02 -0.19471861601E+02 -0.39656260262E+03  0.39718844917E+03  0.00000000000E+00 0. -1.
         -2    1    1    2    0  502 -0.10844950924E+02  0.19471861601E+02 -0.95435969632E+01  0.24245547998E+02  0.00000000000E+00 0. -1.
<mgrwt>
<rscale>  2 0.22288256E+02</rscale>
<asrwt>0</asrwt>
<pdfrwt beam="2">  1        2 0.63656963E-01 0.22288256E+02</pdfrwt>
<pdfrwt beam="1">  1       -2 0.11790609E-02 0.22288256E+02</pdfrwt>
<totfact> 0.85626270E+04</totfact>
</mgrwt>
</event>
<event>
 4    1  0.7653521E+003  0.2014481E+02  0.7546771E-02  0.1742464E+00
         -2   -1    0    0    0  501 -0.00000000000E+00  0.00000000000E+00  0.45971155677E+00  0.45971155677E+00  0.00000000000E+00 0.  1.
          2   -1    0    0  501    0  0.00000000000E+00 -0.00000000000E+00 -0.99331340500E+03  0.99331340500E+03  0.00000000000E+00 0.  1.
          2    1    1    2  502    0 -0.19526707697E+02 -0.49518366382E+01 -0.33065583157E+03  0.33126891184E+03  0.00000000000E+00 0.  1.
         -2    1    1    2    0  502  0.19526707697E+02  0.49518366382E+01 -0.66219786187E+03  0.66250420471E+03  0.00000000000E+00 0.  1.
<mgrwt>
<rscale>  2 0.20144811E+02</rscale>
<asrwt>0</asrwt>
<pdfrwt beam="2">  1        2 0.15281768E+00 0.20144811E+02</pdfrwt>
<pdfrwt beam="1">  1       -2 0.70724748E-04 0.20144811E+02</pdfrwt>
<totfact> 0.13622033E+06</totfact>
</mgrwt>
</event>
<event>
 4    1  0.7653521E+003  0.3890703E+02  0.7546771E-02  0.1516412E+00
          2   -1    0    0  501    0  0.00000000000E+00  0.00000000000E+00  0.27014571679E+04  0.27014571679E+04  0.00000000000E+00 0. -1.
         -2   -1    0    0    0  501 -0.00000000000E+00 -0.00000000000E+00 -0.76297913356E+00  0.76297913356E+00  0.00000000000E+00 0.  1.
          2    1    1    2  502    0 -0.22126014014E+01  0.38844063297E+02  0.20466323458E+04  0.20470021289E+04  0.00000000000E+00 0. -1.
         -2    1    1    2    0  502  0.22126014014E+01 -0.38844063297E+02  0.65406184298E+03  0.65521801815E+03  0.00000000000E+00 0.  1.
<mgrwt>
<rscale>  2 0.38907028E+02</rscale>
<asrwt>0</asrwt>
<pdfrwt beam="1">  1        2 0.41560114E+00 0.38907028E+02</pdfrwt>
<pdfrwt beam="2">  1       -2 0.11738357E-03 0.38907028E+02</pdfrwt>
<totfact> 0.11861726E+05</totfact>
</mgrwt>
</event>
<event>
 4    1  0.7653521E+003  0.4516738E+02  0.7546771E-02  0.1473299E+00
          2   -1    0    0  501    0  0.00000000000E+00  0.00000000000E+00  0.58055581163E+03  0.58055581163E+03  0.00000000000E+00 0.  1.
         -2   -1    0    0    0  501 -0.00000000000E+00 -0.00000000000E+00 -0.71060567919E+01  0.71060567919E+01  0.00000000000E+00 0.  1.
          2    1    1    2  502    0 -0.45072633447E+02  0.29240655609E+01  0.49563176753E+03  0.49768558492E+03  0.00000000000E+00 0.  1.
         -2    1    1    2    0  502  0.45072633447E+02 -0.29240655609E+01  0.77817987301E+02  0.89976283502E+02  0.00000000000E+00 0.  1.
<mgrwt>
<rscale>  2 0.45167383E+02</rscale>
<asrwt>0</asrwt>
<pdfrwt beam="1">  1        2 0.89316242E-01 0.45167383E+02</pdfrwt>
<pdfrwt beam="2">  1       -2 0.10932400E-02 0.45167383E+02</pdfrwt>
<totfact> 0.77098324E+04</totfact>
</mgrwt>
</event>
<event>
 4    1  0.7653521E+003  0.3098043E+02  0.7546771E-02  0.1587497E+00
          2   -1    0    0  501    0  0.00000000000E+00  0.00000000000E+00  0.17594814990E+01  0.17594814990E+01  0.00000000000E+00 0. -1.
         -2   -1    0    0    0  501 -0.00000000000E+00 -0.00000000000E+00 -0.54948913150E+03  0.54948913150E+03  0.00000000000E+00 0.  1.
          2    1    1    2  502    0 -0.30703052719E+02  0.41362268551E+01 -0.29736806060E+03  0.29897750631E+03  0.00000000000E+00 0. -1.
         -2    1    1    2    0  502  0.30703052719E+02 -0.41362268551E+01 -0.25036158941E+03  0.25227110669E+03  0.00000000000E+00 0.  1.
<mgrwt>
<rscale>  2 0.30980426E+02</rscale>
<asrwt>0</asrwt>
<pdfrwt beam="1">  1        2 0.27068950E-03 0.30980426E+02</pdfrwt>
<pdfrwt beam="2">  1       -2 0.84536778E-01 0.30980426E+02</pdfrwt>
<totfact> 0.75786482E+04</totfact>
</mgrwt>
</event>
<event>
 4    1  0.7653521E+003  0.2515894E+02  0.7546771E-02  0.1658729E+00
          2   -1    0    0  501    0  0.00000000000E+00  0.00000000000E+00  0.20987311327E+02  0.20987311327E+02  0.00000000000E+00 0.  1.
         -2   -1    0    0    0  501 -0.00000000000E+00 -0.00000000000E+00 -0.12135914825E+03  0.12135914825E+03  0.00000000000E+00 0. -1.
          2    1    1    2  502    0  0.21603742146E+02  0.12893828447E+02  0.11512829725E+02  0.27667991163E+02  0.00000000000E+00 0.  1.
         -2    1    1    2    0  502 -0.21603742146E+02 -0.12893828447E+02 -0.11188466665E+03  0.11467846842E+03  0.00000000000E+00 0. -1.
<mgrwt>
<rscale>  2 0.25158944E+02</rscale>
<asrwt>0</asrwt>
<pdfrwt beam="1">  1        2 0.32288172E-02 0.25158944E+02</pdfrwt>
<pdfrwt beam="2">  1       -2 0.18670638E-01 0.25158944E+02</pdfrwt>
<totfact> 0.45229240E+04</totfact>
</mgrwt>
</event>
<event>
 4    1  0.7653521E+003  0.2869381E+02  0.7546771E-02  0.1612992E+00
          2   -1    0    0  501    0  0.00000000000E+00  0.00000000000E+00  0.78976571571E+03  0.78976571571E+03  0.00000000000E+00 0. -1.
         -2   -1    0    0    0  501 -0.00000000000E+00 -0.00000000000E+00 -0.18111398663E+01  0.18111398663E+01  0.00000000000E+00 0.  1.
          2    1    1    2  502    0 -0.15391854810E+02 -0.24216223955E+02  0.65181541685E+03  0.65244668160E+03  0.00000000000E+00 0. -1.
         -2    1    1    2    0  502  0.15391854810E+02  0.24216223955E+02  0.13613915900E+03  0.13913017397E+03  0.00000000000E+00 0.  1.
<mgrwt>
<rscale>  2 0.28693809E+02</rscale>
<asrwt>0</asrwt>
<pdfrwt beam="1">  1        2 0.12150214E+00 0.28693809E+02</pdfrwt>
<pdfrwt beam="2">  1       -2 0.27863753E-03 0.28693809E+02</pdfrwt>
<totfact> 0.32244902E+05</totfact>
</mgrwt>
</event>
<event>
 4    1  0.7653521E+003  0.2504962E+02  0.7546771E-02  0.1660290E+00
         -2   -1    0    0    0  501 -0.00000000000E+00  0.00000000000E+00  0.12083110378E+01  0.12083110378E+01  0.00000000000E+00 0. -1.
          2   -1    0    0  501    0  0.00000000000E+00 -0.00000000000E+00 -0.57291816609E+03  0.57291816609E+03  0.00000000000E+00 0. -1.
          2    1    1    2  502    0 -0.11215097217E+01  0.25024500199E+02 -0.37366861515E+03  0.37450729945E+03  0.00000000000E+00 0. -1.
         -2    1    1    2    0  502  0.11215097217E+01 -0.25024500199E+02 -0.19804123991E+03  0.19961917768E+03  0.00000000000E+00 0. -1.
<mgrwt>
<rscale>  2 0.25049619E+02</rscale>
<asrwt>0</asrwt>
<pdfrwt beam="2">  1        2 0.88141164E-01 0.25049619E+02</pdfrwt>
<pdfrwt beam="1">  1       -2 0.18589420E-03 0.25049619E+02</pdfrwt>
<totfact> 0.75581184E+05</totfact>
</mgrwt>
</event>
<event>
 4    1  0.7653521E+003  0.3025664E+02  0.7546771E-02  0.1595269E+00
          2   -1    0    0  501    0  0.00000000000E+00  0.00000000000E+00  0.31917570764E+03  0.31917570764E+03  0.00000000000E+00 0.  1.
         -2   -1    0    0    0  501 -0.00000000000E+00 -0.00000000000E+00 -0.36718620801E+01  0.36718620801E+01  0.00000000000E+00 0.  1.
          2    1    1    2  502    0 -0.29551693532E+02 -0.64932017217E+01  0.23327110518E+03  0.23522515335E+03  0.00000000000E+00 0.  1.
         -2    1    1    2    0  502  0.29551693532E+02  0.64932017217E+01  0.82232740378E+02  0.87622416363E+02  0.00000000000E+00 0.  1.
<mgrwt>
<rscale>  2 0.30256640E+02</rscale>
<asrwt>0</asrwt>
<pdfrwt beam="1">  1        2 0.49103933E-01 0.30256640E+02</pdfrwt>
<pdfrwt beam="2">  1       -2 0.56490211E-03 0.30256640E+02</pdfrwt>
<totfact> 0.32328242E+05</totfact>
</mgrwt>
</event>
<event>
 4    1  0.7653521E+003  0.2397688E+02  0.7546771E-02  0.1676148E+00
          2   -1    0    0  501    0  0.00000000000E+00  0.00000000000E+00  0.37127920008E+03  0.37127920008E+03  0.00000000000E+00 0. -1.
         -2   -1    0    0    0  501 -0.00000000000E+00 -0.00000000000E+00 -0.15438048339E+03  0.15438048339E+03  0.00000000000E+00 0. -1.
          2    1    1    2  502    0  0.96694038206E+01  0.21940683383E+02  0.36995781247E+03  0.37073396656E+03  0.00000000000E+00 0. -1.
         -2    1    1    2    0  502 -0.96694038206E+01 -0.21940683383E+02 -0.15305909578E+03  0.15492571691E+03  0.00000000000E+00 0. -1.
<mgrwt>
<rscale>  2 0.23976884E+02</rscale>
<asrwt>0</asrwt>
<pdfrwt beam="1">  1        2 0.57119877E-01 0.23976884E+02</pdfrwt>
<pdfrwt beam="2">  1       -2 0.23750844E-01 0.23976884E+02</pdfrwt>
<totfact> 0.12367474E+03</totfact>
</mgrwt>
</event>
<event>
 4    1  0.7653521E+003  0.2253348E+02  0.7546771E-02  0.1699186E+00
          2   -1    0    0  501    0  0.00000000000E+00  0.00000000000E+00  0.41318281050E+03  0.41318281050E+03  0.00000000000E+00 0. -1.
         -2   -1    0    0    0  501 -0.00000000000E+00 -0.00000000000E+00 -0.17389671690E+01  0.17389671690E+01  0.00000000000E+00 0. -1.
          2    1    1    2  502    0  0.94205240823E+01 -0.20469766331E+02  0.31808071325E+03  0.31887787278E+03  0.00000000000E+00 0. -1.
         -2    1    1    2    0  502 -0.94205240823E+01  0.20469766331E+02  0.93363130082E+02  0.96043904889E+02  0.00000000000E+00 0. -1.
<mgrwt>
<rscale>  2 0.22533477E+02</rscale>
<asrwt>0</asrwt>
<pdfrwt beam="1">  1        2 0.63566508E-01 0.22533477E+02</pdfrwt>
<pdfrwt beam="2">  1       -2 0.26753374E-03 0.22533477E+02</pdfrwt>
<totfact> 0.62795622E+05</totfact>
</mgrwt>
</event>
<event>
 4    1  0.7653521E+003  0.2149767E+02  0.7546771E-02  0.1717087E+00
          2   -1    0    0  501    0  0.00000000000E+00  0.00000000000E+00  0.61420617039E+03  0.61420617039E+03  0.00000000000E+00 0. -1.
         -2   -1    0    0    0  501 -0.00000000000E+00 -0.00000000000E+00 -0.83741286312E+00  0.83741286312E+00  0.00000000000E+00 0. -1.
          2    1    1    2  502    0  0.20912652877E+02  0.49810495907E+01  0.40464697661E+03  0.40521762744E+03  0.00000000000E+00 0. -1.
         -2    1    1    2    0  502 -0.20912652877E+02 -0.49810495907E+01  0.20872178091E+03  0.20982595581E+03  0.00000000000E+00 0. -1.
<mgrwt>
<rscale>  2 0.21497672E+02</rscale>
<asrwt>0</asrwt>
<pdfrwt beam="1">  1        2 0.94492897E-01 0.21497672E+02</pdfrwt>
<pdfrwt beam="2">  1       -2 0.12883324E-03 0.21497672E+02</pdfrwt>
<totfact> 0.10883219E+06</totfact>
</mgrwt>
</event>
<event>
 4    1  0.7653521E+003  0.3107785E+02  0.7546771E-02  0.1586471E+00
          2   -1    0    0  501    0  0.00000000000E+00  0.00000000000E+00  0.28227020888E+03  0.28227020888E+03  0.00000000000E+00 0. -1.
         -2   -1    0    0    0  501 -0.00000000000E+00 -0.00000000000E+00 -0.16835921948E+02  0.16835921948E+02  0.00000000000E+00 0. -1.
          2    1    1    2  502    0  0.16812620286E+02 -0.26137492308E+02  0.26621068583E+03  0.26801858509E+03  0.00000000000E+00 0. -1.
         -2    1    1    2    0  502 -0.16812620286E+02  0.26137492308E+02 -0.77639889068E+00  0.31087545742E+02  0.00000000000E+00 0. -1.
<mgrwt>
<rscale>  2 0.31077849E+02</rscale>
<asrwt>0</asrwt>
<pdfrwt beam="1">  1        2 0.43426183E-01 0.31077849E+02</pdfrwt>
<pdfrwt beam="2">  1       -2 0.25901420E-02 0.31077849E+02</pdfrwt>
<totfact> 0.45403373E+04</totfact>
</mgrwt>
</event>
<event>
 4    1  0.7653521E+003  0.3889567E+02  0.7546771E-02  0.1516499E+00
         -2   -1    0    0    0  501 -0.00000000000E+00  0.00000000000E+00  0.20172194209E+02  0.20172194209E+02  0.00000000000E+00 0. -1.
          2   -1    0    0  501    0  0.00000000000E+00 -0.00000000000E+00 -0.45972694752E+03  0.45972694752E+03  0.00000000000E+00 0. -1.
          2    1    1    2  502    0  0.17764317198E+02 -0.34602058971E+02 -0.43928390985E+03  0.44100252482E+03  0.00000000000E+00 0. -1.
         -2    1    1    2    0  502 -0.17764317198E+02  0.34602058971E+02 -0.27084346399E+00  0.38896616906E+02  0.00000000000E+00 0. -1.
<mgrwt>
<rscale>  2 0.38895674E+02</rscale>
<asrwt>0</asrwt>
<pdfrwt beam="2">  1        2 0.70727216E-01 0.38895674E+02</pdfrwt>
<pdfrwt beam="1">  1       -2 0.31034148E-02 0.38895674E+02</pdfrwt>
<totfact> 0.22317226E+04</totfact>
</mgrwt>
</event>
<event>
 4    1  0.7653521E+003  0.2297317E+02  0.7546771E-02  0.1691945E+00
          2   -1    0    0  501    0  0.00000000000E+00  0.00000000000E+00  0.73764192474E+02  0.73764192474E+02  0.00000000000E+00 0. -1.
         -2   -1    0    0    0  501 -0.00000000000E+00 -0.00000000000E+00 -0.11422490295E+02  0.11422490295E+02  0.00000000000E+00 0.  1.
          2    1    1    2  502    0 -0.88910790361E-01  0.22973001755E+02  0.57205916734E+02  0.61646440482E+02  0.00000000000E+00 0. -1.
         -2    1    1    2    0  502  0.88910790361E-01 -0.22973001755E+02  0.51357854455E+01  0.23540242286E+02  0.00000000000E+00 0.  1.
<mgrwt>
<rscale>  2 0.22973174E+02</rscale>
<asrwt>0</asrwt>
<pdfrwt beam="1">  1        2 0.11348337E-01 0.22973174E+02</pdfrwt>
<pdfrwt beam="2">  1       -2 0.17573062E-02 0.22973174E+02</pdfrwt>
<totfact> 0.29895956E+05</totfact>
</mgrwt>
</event>
<event>
 4    1  0.7653521E+003  0.2427735E+02  0.7546771E-02  0.1671604E+00
          2   -1    0    0  501    0  0.00000000000E+00  0.00000000000E+00  0.99138950791E+03  0.99138950791E+03  0.00000000000E+00 0.  1.
         -2   -1    0    0    0  501 -0.00000000000E+00 -0.00000000000E+00 -0.76910313699E+02  0.76910313699E+02  0.00000000000E+00 0. -1.
          2    1    1    2  502    0 -0.12944584735E+01 -0.24242810846E+02  0.98932104201E+03  0.98961887294E+03  0.00000000000E+00 0.  1.
         -2    1    1    2    0  502  0.12944584735E+01  0.24242810846E+02 -0.74841847807E+02  0.78680948670E+02  0.00000000000E+00 0. -1.
<mgrwt>
<rscale>  2 0.24277345E+02</rscale>
<asrwt>0</asrwt>
<pdfrwt beam="1">  1        2 0.15252145E+00 0.24277345E+02</pdfrwt>
<pdfrwt beam="2">  1       -2 0.11832357E-01 0.24277345E+02</pdfrwt>
<totfact> 0.12988571E+03</totfact>
</mgrwt>
</event>
<event>
 4    1  0.7653521E+003  0.2491572E+02  0.7546771E-02  0.1662215E+00
         -2   -1    0    0    0  501 -0.00000000000E+00  0.00000000000E+00  0.13712896899E+03  0.13712896899E+03  0.00000000000E+00 0.  1.
          2   -1    0    0  501    0  0.00000000000E+00 -0.00000000000E+00 -0.24352586659E+02  0.24352586659E+02  0.00000000000E+00 0. -1.
          2    1    1    2  502    0  0.17694849759E+02 -0.17540963062E+02 -0.16462316937E+02  0.29863036886E+02  0.00000000000E+00 0. -1.
         -2    1    1    2    0  502 -0.17694849759E+02  0.17540963062E+02  0.12923869927E+03  0.13161851877E+03  0.00000000000E+00 0.  1.
<mgrwt>
<rscale>  2 0.24915720E+02</rscale>
<asrwt>0</asrwt>
<pdfrwt beam="2">  1        2 0.37465519E-02 0.24915720E+02</pdfrwt>
<pdfrwt beam="1">  1       -2 0.21096764E-01 0.24915720E+02</pdfrwt>
<totfact> 0.30745656E+04</totfact>
</mgrwt>
</event>
<event>
 4    1  0.7653521E+003  0.3159322E+02  0.7546771E-02  0.1581117E+00
         -2   -1    0    0    0  501 -0.00000000000E+00  0.00000000000E+00  0.69981112372E+01  0.69981112372E+01  0.00000000000E+00 0.  1.
          2   -1    0    0  501    0  0.00000000000E+00 -0.00000000000E+00 -0.59262093725E+03  0.59262093725E+03  0.00000000000E+00 0.  1.
          2    1    1    2  502    0  0.21721786758E+02  0.22941128481E+02 -0.55406330749E+03  0.55496331419E+03  0.00000000000E+00 0.  1.
         -2    1    1    2    0  502 -0.21721786758E+02 -0.22941128481E+02 -0.31559518530E+02  0.44655734299E+02  0.00000000000E+00 0.  1.
<mgrwt>
<rscale>  2 0.31593218E+02</rscale>
<asrwt>0</asrwt>
<pdfrwt beam="2">  1        2 0.91172483E-01 0.31593218E+02</pdfrwt>
<pdfrwt beam="1">  1       -2 0.10766321E-02 0.31593218E+02</pdfrwt>
<totfact> 0.72255914E+04</totfact>
</mgrwt>
</event>
<event>
 4    1  0.7653521E+003  0.2660720E+02  0.7546771E-02  0.1638935E+00
         -2   -1    0    0    0  501 -0.00000000000E+00  0.00000000000E+00  0.25399007510E+02  0.25399007510E+02  0.00000000000E+00 0.  1.
          2   -1    0    0  501    0  0.00000000000E+00 -0.00000000000E+00 -0.29003735157E+02  0.29003735157E+02  0.00000000000E+00 0.  1.
          2    1    1    2  502    0 -0.57711304434E+00  0.26600943431E+02 -0.71735365795E+01  0.27557265429E+02  0.00000000000E+00 0.  1.
         -2    1    1    2    0  502  0.57711304434E+00 -0.26600943431E+02  0.35688089325E+01  0.26845477237E+02  0.00000000000E+00 0.  1.
<mgrwt>
<rscale>  2 0.26607203E+02</rscale>
<asrwt>0</asrwt>
<pdfrwt beam="2">  1        2 0.44621131E-02 0.26607203E+02</pdfrwt>
<pdfrwt beam="1">  1       -2 0.39075396E-02 0.26607203E+02</pdfrwt>
<totfact> 0.31278999E+05</totfact>
</mgrwt>
</event>
<event>
 4    1  0.7653521E+003  0.2005104E+02  0.7546771E-02  0.1744315E+00
          2   -1    0    0  501    0  0.00000000000E+00  0.00000000000E+00  0.11136602403E+04  0.11136602403E+04  0.00000000000E+00 0.  1.
         -2   -1    0    0    0  501 -0.00000000000E+00 -0.00000000000E+00 -0.10039063054E+02  0.10039063054E+02  0.00000000000E+00 0. -1.
          2    1    1    2  502    0  0.10380658749E+02 -0.17154769822E+02  0.11034655007E+04  0.11036476591E+04  0.00000000000E+00 0.  1.
         -2    1    1    2    0  502 -0.10380658749E+02  0.17154769822E+02  0.15567658651E+00  0.20051644295E+02  0.00000000000E+00 0. -1.
<mgrwt>
<rscale>  2 0.20051040E+02</rscale>
<asrwt>0</asrwt>
<pdfrwt beam="1">  1        2 0.17133225E+00 0.20051040E+02</pdfrwt>
<pdfrwt beam="2">  1       -2 0.15444721E-02 0.20051040E+02</pdfrwt>
<totfact> 0.19671647E+04</totfact>
</mgrwt>
</event>
<event>
 4    1  0.7653521E+003  0.3943200E+02  0.7546771E-02  0.1512433E+00
         -2   -1    0    0    0  501 -0.00000000000E+00  0.00000000000E+00  0.17173405244E+02  0.17173405244E+02  0.00000000000E+00 0. -1.
          2   -1    0    0  501    0  0.00000000000E+00 -0.00000000000E+00 -0.47772651959E+03  0.47772651959E+03  0.00000000000E+00 0. -1.
          2    1    1    2  502    0 -0.27630893133E+00 -0.39431027907E+02 -0.45304709807E+03  0.45475988761E+03  0.00000000000E+00 0. -1.
         -2    1    1    2    0  502  0.27630893133E+00  0.39431027907E+02 -0.75060162820E+01  0.40140037230E+02  0.00000000000E+00 0. -1.
<mgrwt>
<rscale>  2 0.39431996E+02</rscale>
<asrwt>0</asrwt>
<pdfrwt beam="2">  1        2 0.73496386E-01 0.39431996E+02</pdfrwt>
<pdfrwt beam="1">  1       -2 0.26420624E-02 0.39431996E+02</pdfrwt>
<totfact> 0.26986926E+04</totfact>
</mgrwt>
</event>
<event>
 4    1  0.7653521E+003  0.2126158E+02  0.7546771E-02  0.1721345E+00
          2   -1    0    0  501    0  0.00000000000E+00  0.00000000000E+00  0.31421450588E+03  0.31421450588E+03  0.00000000000E+00 0. -1.
         -2   -1    0    0    0  501 -0.00000000000E+00 -0.00000000000E+00 -0.17102574877E+03  0.17102574877E+03  0.00000000000E+00 0.  1.
          2    1    1    2  502    0 -0.14734651947E+02 -0.15327908693E+02  0.31319188098E+03  0.31391274117E+03  0.00000000000E+00 0. -1.
         -2    1    1    2    0  502  0.14734651947E+02  0.15327908693E+02 -0.17000312387E+03  0.17132751349E+03  0.00000000000E+00 0.  1.
<mgrwt>
<rscale>  2 0.21261579E+02</rscale>
<asrwt>0</asrwt>
<pdfrwt beam="1">  1        2 0.48340693E-01 0.21261579E+02</pdfrwt>
<pdfrwt beam="2">  1       -2 0.26311654E-01 0.21261579E+02</pdfrwt>
<totfact> 0.12187806E+03</totfact>
</mgrwt>
</event>
<event>
 4    1  0.7653521E+003  0.5210666E+02  0.7546771E-02  0.1434299E+00
         -2   -1    0    0    0  501 -0.00000000000E+00  0.00000000000E+00  0.39186471773E+01  0.39186471773E+01  0.00000000000E+00 0.  1.
          2   -1    0    0  501    0  0.00000000000E+00 -0.00000000000E+00 -0.71659785927E+03  0.71659785927E+03  0.00000000000E+00 0.  1.
          2    1    1    2  502    0  0.81352376702E+00 -0.52100313616E+02 -0.42189757313E+03  0.42510312479E+03  0.00000000000E+00 0.  1.
         -2    1    1    2    0  502 -0.81352376702E+00  0.52100313616E+02 -0.29078163897E+03  0.29541338165E+03  0.00000000000E+00 0.  1.
<mgrwt>
<rscale>  2 0.52106665E+02</rscale>
<asrwt>0</asrwt>
<pdfrwt beam="2">  1        2 0.11024574E+00 0.52106665E+02</pdfrwt>
<pdfrwt beam="1">  1       -2 0.60286926E-03 0.52106665E+02</pdfrwt>
<totfact> 0.14272677E+05</totfact>
</mgrwt>
</event>
<event>
 4    1  0.7653521E+003  0.2551159E+02  0.7546771E-02  0.1653761E+00
         -2   -1    0    0    0  501 -0.00000000000E+00  0.00000000000E+00  0.72594006697E+00  0.72594006697E+00  0.00000000000E+00 0. -1.
          2   -1    0    0  501    0  0.00000000000E+00 -0.00000000000E+00 -0.12479383946E+04  0.12479383946E+04  0.00000000000E+00 0. -1.
          2    1    1    2  502    0  0.82715397610E+01 -0.24133439427E+02 -0.95489986771E+03  0.95524059725E+03  0.00000000000E+00 0. -1.
         -2    1    1    2    0  502 -0.82715397610E+01  0.24133439427E+02 -0.29231258679E+03  0.29342373739E+03  0.00000000000E+00 0. -1.
<mgrwt>
<rscale>  2 0.25511591E+02</rscale>
<asrwt>0</asrwt>
<pdfrwt beam="2">  1        2 0.19199047E+00 0.25511591E+02</pdfrwt>
<pdfrwt beam="1">  1       -2 0.11168312E-03 0.25511591E+02</pdfrwt>
<totfact> 0.59224187E+05</totfact>
</mgrwt>
</event>
<event>
 4    1  0.7653521E+003  0.2463670E+02  0.7546771E-02  0.1666276E+00
         -2   -1    0    0    0  501 -0.00000000000E+00  0.00000000000E+00  0.93629589543E+02  0.93629589543E+02  0.00000000000E+00 0.  1.
          2   -1    0    0  501    0  0.00000000000E+00 -0.00000000000E+00 -0.23463435589E+02  0.23463435589E+02  0.00000000000E+00 0. -1.
          2    1    1    2  502    0 -0.37886230740E+00  0.24633783373E+02 -0.14723220717E+02  0.28700871907E+02  0.00000000000E+00 0. -1.
         -2    1    1    2    0  502  0.37886230740E+00 -0.24633783373E+02  0.84889374671E+02  0.88392153226E+02  0.00000000000E+00 0.  1.
<mgrwt>
<rscale>  2 0.24636697E+02</rscale>
<asrwt>0</asrwt>
<pdfrwt beam="2">  1        2 0.36097594E-02 0.24636697E+02</pdfrwt>
<pdfrwt beam="1">  1       -2 0.14404552E-01 0.24636697E+02</pdfrwt>
<totfact> 0.58851804E+04</totfact>
</mgrwt>
</event>
<event>
 4    1  0.7653521E+003  0.2055665E+02  0.7546771E-02  0.1734480E+00
         -2   -1    0    0    0  501 -0.00000000000E+00  0.00000000000E+00  0.29377298073E+01  0.29377298073E+01  0.00000000000E+00 0.  1.
          2   -1    0    0  501    0  0.00000000000E+00 -0.00000000000E+00 -0.13959343840E+04  0.13959343840E+04  0.00000000000E+00 0.  1.
          2    1    1    2  502    0  0.19711355553E+02 -0.58342403393E+01 -0.13589181044E+04  0.13590735780E+04  0.00000000000E+00 0.  1.
         -2    1    1    2    0  502 -0.19711355553E+02  0.58342403393E+01 -0.34078549799E+02  0.39798535833E+02  0.00000000000E+00 0.  1.
<mgrwt>
<rscale>  2 0.20556651E+02</rscale>
<asrwt>0</asrwt>
<pdfrwt beam="2">  1        2 0.21475977E+00 0.20556651E+02</pdfrwt>
<pdfrwt beam="1">  1       -2 0.45195711E-03 0.20556651E+02</pdfrwt>
<totfact> 0.74755091E+04</totfact>
</mgrwt>
</event>
<event>
 4    1  0.7653521E+003  0.2222527E+02  0.7546771E-02  0.1704385E+00
         -2   -1    0    0    0  501 -0.00000000000E+00  0.00000000000E+00  0.51030078636E+02  0.51030078636E+02  0.00000000000E+00 0. -1.
          2   -1    0    0  501    0  0.00000000000E+00 -0.00000000000E+00 -0.10259212452E+04  0.10259212452E+04  0.00000000000E+00 0. -1.
          2    1    1    2  502    0 -0.76857545849E+01 -0.20854055066E+02 -0.10233748969E+04  0.10236162084E+04  0.00000000000E+00 0. -1.
         -2    1    1    2    0  502  0.76857545849E+01  0.20854055066E+02  0.48483730327E+02  0.53335115474E+02  0.00000000000E+00 0. -1.
<mgrwt>
<rscale>  2 0.22225266E+02</rscale>
<asrwt>0</asrwt>
<pdfrwt beam="2">  1        2 0.15783403E+00 0.22225266E+02</pdfrwt>
<pdfrwt beam="1">  1       -2 0.78507818E-02 0.22225266E+02</pdfrwt>
<totfact> 0.22785792E+03</totfact>
</mgrwt>
</event>
<event>
 4    1  0.7653521E+003  0.2086813E+02  0.7546771E-02  0.1728596E+00
          2   -1    0    0  501    0  0.00000000000E+00  0.00000000000E+00  0.19975046382E+02  0.19975046382E+02  0.00000000000E+00 0. -1.
         -2   -1    0    0    0  501 -0.00000000000E+00 -0.00000000000E+00 -0.47076376288E+02  0.47076376288E+02  0.00000000000E+00 0. -1.
          2    1    1    2  502    0  0.18847922748E+02 -0.89573831448E+01  0.11014746814E+02  0.23596685193E+02  0.00000000000E+00 0. -1.
         -2    1    1    2    0  502 -0.18847922748E+02  0.89573831448E+01 -0.38116076719E+02  0.43454737477E+02  0.00000000000E+00 0. -1.
<mgrwt>
<rscale>  2 0.20868131E+02</rscale>
<asrwt>0</asrwt>
<pdfrwt beam="1">  1        2 0.30730841E-02 0.20868131E+02</pdfrwt>
<pdfrwt beam="2">  1       -2 0.72425194E-02 0.20868131E+02</pdfrwt>
<totfact> 0.19249559E+05</totfact>
</mgrwt>
</event>
<event>
 4    1  0.7653521E+003  0.2723997E+02  0.7546771E-02  0.1630767E+00
         -2   -1    0    0    0  501 -0.00000000000E+00  0.00000000000E+00  0.28228248438E+01  0.28228248438E+01  0.00000000000E+00 0.  1.
          2   -1    0    0  501    0  0.00000000000E+00 -0.00000000000E+00 -0.26500953786E+03  0.26500953786E+03  0.00000000000E+00 0.  1.
          2    1    1    2  502    0  0.26038356340E+02  0.80012485163E+01 -0.14314592917E+03  0.14571469732E+03  0.00000000000E+00 0.  1.
         -2    1    1    2    0  502 -0.26038356340E+02 -0.80012485163E+01 -0.11904078385E+03  0.12211766538E+03  0.00000000000E+00 0.  1.
<mgrwt>
<rscale>  2 0.27239970E+02</rscale>
<asrwt>0</asrwt>
<pdfrwt beam="2">  1        2 0.40770695E-01 0.27239970E+02</pdfrwt>
<pdfrwt beam="1">  1       -2 0.43428078E-03 0.27239970E+02</pdfrwt>
<totfact> 0.53937891E+05</totfact>
</mgrwt>
</event>
<event>
 4    1  0.7653521E+003  0.2198327E+02  0.7546771E-02  0.1708542E+00
         -2   -1    0    0    0  501 -0.00000000000E+00  0.00000000000E+00  0.28387483629E+02  0.28387483629E+02  0.00000000000E+00 0.  1.
          2   -1    0    0  501    0  0.00000000000E+00 -0.00000000000E+00 -0.84720210520E+02  0.84720210520E+02  0.00000000000E+00 0.  1.
          2    1    1    2  502    0  0.21975749686E+02  0.57491702158E+00 -0.78719873887E+02  0.81731772577E+02  0.00000000000E+00 0.  1.
         -2    1    1    2    0  502 -0.21975749686E+02 -0.57491702158E+00  0.22387146996E+02  0.31375921572E+02  0.00000000000E+00 0.  1.
<mgrwt>
<rscale>  2 0.21983269E+02</rscale>
<asrwt>0</asrwt>
<pdfrwt beam="2">  1        2 0.13033879E-01 0.21983269E+02</pdfrwt>
<pdfrwt beam="1">  1       -2 0.43673052E-02 0.21983269E+02</pdfrwt>
<totfact> 0.71646055E+04</totfact>
</mgrwt>
</event>
<event>
 4    1  0.7653521E+003  0.2238385E+02  0.7546771E-02  0.1701697E+00
         -2   -1    0    0    0  501 -0.00000000000E+00  0.00000000000E+00  0.38826782332E+02  0.38826782332E+02  0.00000000000E+00 0. -1.
          2   -1    0    0  501    0  0.00000000000E+00 -0.00000000000E+00 -0.30458238964E+03  0.30458238964E+03  0.00000000000E+00 0. -1.
          2    1    1    2  502    0 -0.80217112340E+01 -0.20897098494E+02 -0.30090567444E+03  0.30173707344E+03  0.00000000000E+00 0. -1.
         -2    1    1    2    0  502  0.80217112340E+01  0.20897098494E+02  0.35150067133E+02  0.41672098532E+02  0.00000000000E+00 0. -1.
<mgrwt>
<rscale>  2 0.22383846E+02</rscale>
<asrwt>0</asrwt>
<pdfrwt beam="2">  1        2 0.46858831E-01 0.22383846E+02</pdfrwt>
<pdfrwt beam="1">  1       -2 0.59733509E-02 0.22383846E+02</pdfrwt>
<totfact> 0.12227596E+04</totfact>
</mgrwt>
</event>
<event>
 4    1  0.7653521E+003  0.5272914E+02  0.7546771E-02  0.1431154E+00
         -2   -1    0    0    0  501 -0.00000000000E+00  0.00000000000E+00  0.61320002321E+02  0.61320002321E+02  0.00000000000E+00 0. -1.
          2   -1    0    0  501    0  0.00000000000E+00 -0.00000000000E+00 -0.31166580053E+03  0.31166580053E+03  0.00000000000E+00 0.  1.
          2    1    1    2  502    0  0.74340586540E+01 -0.52202464801E+02 -0.29756717453E+03  0.30220288866E+03  0.00000000000E+00 0.  1.
         -2    1    1    2    0  502 -0.74340586540E+01  0.52202464801E+02  0.47221376320E+02  0.70782914188E+02  0.00000000000E+00 0. -1.
<mgrwt>
<rscale>  2 0.52729143E+02</rscale>
<asrwt>0</asrwt>
<pdfrwt beam="2">  1        2 0.47948586E-01 0.52729143E+02</pdfrwt>
<pdfrwt beam="1">  1       -2 0.94338463E-02 0.52729143E+02</pdfrwt>
<totfact> 0.67527205E+03</totfact>
</mgrwt>
</event>
<event>
 4    1  0.7653521E+003  0.2113817E+02  0.7546771E-02  0.1723598E+00
          2   -1    0    0  501    0  0.00000000000E+00  0.00000000000E+00  0.13994742099E+04  0.13994742099E+04  0.00000000000E+00 0. -1.
         -2   -1    0    0    0  501 -0.00000000000E+00 -0.00000000000E+00 -0.24278202813E+02  0.24278202813E+02  0.00000000000E+00 0. -1.
          2    1    1    2  502    0 -0.19562918853E+02 -0.80071425935E+01  0.13947778362E+04  0.13949380039E+04  0.00000000000E+00 0. -1.
         -2    1    1    2    0  502  0.19562918853E+02  0.80071425935E+01 -0.19581829137E+02  0.28814408877E+02  0.00000000000E+00 0. -1.
<mgrwt>
<rscale>  2 0.21138168E+02</rscale>
<asrwt>0</asrwt>
<pdfrwt beam="1">  1        2 0.21530366E+00 0.21138168E+02</pdfrwt>
<pdfrwt beam="2">  1       -2 0.37351092E-02 0.21138168E+02</pdfrwt>
<totfact> 0.42570902E+03</totfact>
</mgrwt>
</event>
<event>
 4    1  0.7653521E+003  0.2070636E+02  0.7546771E-02  0.1731635E+00
         -2   -1    0    0    0  501 -0.00000000000E+00  0.00000000000E+00  0.11611748216E+03  0.11611748216E+03  0.00000000000E+00 0. -1.
          2   -1    0    0  501    0  0.00000000000E+00 -0.00000000000E+00 -0.45557528161E+03  0.45557528161E+03  0.00000000000E+00 0.  1.
          2    1    1    2  502    0  0.96593687540E+01 -0.18315288683E+02 -0.45441454151E+03  0.45488606127E+03  0.00000000000E+00 0.  1.
         -2    1    1    2    0  502 -0.96593687540E+01  0.18315288683E+02  0.11495674205E+03  0.11680670250E+03  0.00000000000E+00 0. -1.
<mgrwt>
<rscale>  2 0.20706357E+02</rscale>
<asrwt>0</asrwt>
<pdfrwt beam="2">  1        2 0.70088507E-01 0.20706357E+02</pdfrwt>
<pdfrwt beam="1">  1       -2 0.17864227E-01 0.20706357E+02</pdfrwt>
<totfact> 0.15841428E+03</totfact>
</mgrwt>
</event>
<event>
 4    1  0.7653521E+003  0.2357498E+02  0.7546771E-02  0.1682356E+00
         -2   -1    0    0    0  501 -0.00000000000E+00  0.00000000000E+00  0.19504615889E+01  0.19504615889E+01  0.00000000000E+00 0. -1.
          2   -1    0    0  501    0  0.00000000000E+00 -0.00000000000E+00 -0.17645262268E+04  0.17645262268E+04  0.00000000000E+00 0. -1.
          2    1    1    2  502    0 -0.10662497534E+02 -0.21025953531E+02 -0.16900724643E+04  0.16902368811E+04  0.00000000000E+00 0. -1.
         -2    1    1    2    0  502  0.10662497534E+02  0.21025953531E+02 -0.72503300906E+02  0.76239807304E+02  0.00000000000E+00 0. -1.
<mgrwt>
<rscale>  2 0.23574978E+02</rscale>
<asrwt>0</asrwt>
<pdfrwt beam="2">  1        2 0.27146530E+00 0.23574978E+02</pdfrwt>
<pdfrwt beam="1">  1       -2 0.30007132E-03 0.23574978E+02</pdfrwt>
<totfact> 0.88989836E+04</totfact>
</mgrwt>
</event>
<event>
 4    1  0.7653521E+003  0.2347686E+02  0.7546771E-02  0.1683895E+00
         -2   -1    0    0    0  501 -0.00000000000E+00  0.00000000000E+00  0.18142873918E+01  0.18142873918E+01  0.00000000000E+00 0. -1.
          2   -1    0    0  501    0  0.00000000000E+00 -0.00000000000E+00 -0.52443853737E+03  0.52443853737E+03  0.00000000000E+00 0.  1.
          2    1    1    2  502    0  0.16272027370E+02 -0.16922888188E+02 -0.43198610579E+03  0.43262357612E+03  0.00000000000E+00 0.  1.
         -2    1    1    2    0  502 -0.16272027370E+02  0.16922888188E+02 -0.90638144187E+02  0.93629248641E+02  0.00000000000E+00 0. -1.
<mgrwt>
<rscale>  2 0.23476861E+02</rscale>
<asrwt>0</asrwt>
<pdfrwt beam="2">  1        2 0.80682939E-01 0.23476861E+02</pdfrwt>
<pdfrwt beam="1">  1       -2 0.27912084E-03 0.23476861E+02</pdfrwt>
<totfact> 0.47305184E+05</totfact>
</mgrwt>
</event>
<event>
 4    1  0.7653521E+003  0.3759537E+02  0.7546771E-02  0.1526691E+00
          2   -1    0    0  501    0  0.00000000000E+00  0.00000000000E+00  0.34972481997E+02  0.34972481997E+02  0.00000000000E+00 0. -1.
         -2   -1    0    0    0  501 -0.00000000000E+00 -0.00000000000E+00 -0.64110045013E+02  0.64110045013E+02  0.00000000000E+00 0. -1.
          2    1    1    2  502    0 -0.11120936573E+02  0.35912903765E+02  0.15549699277E+02  0.40684211123E+02  0.00000000000E+00 0. -1.
         -2    1    1    2    0  502  0.11120936573E+02 -0.35912903765E+02 -0.44687262294E+02  0.58398315887E+02  0.00000000000E+00 0. -1.
<mgrwt>
<rscale>  2 0.37595371E+02</rscale>
<asrwt>0</asrwt>
<pdfrwt beam="1">  1        2 0.53803819E-02 0.37595371E+02</pdfrwt>
<pdfrwt beam="2">  1       -2 0.98630837E-02 0.37595371E+02</pdfrwt>
<totfact> 0.69933579E+04</totfact>
</mgrwt>
</event>
<event>
 4    1  0.7653521E+003  0.4398501E+02  0.7546771E-02  0.1480779E+00
          2   -1    0    0  501    0  0.00000000000E+00  0.00000000000E+00  0.65501810407E+01  0.65501810407E+01  0.00000000000E+00 0.  1.
         -2   -1    0    0    0  501 -0.00000000000E+00 -0.00000000000E+00 -0.29549670073E+03  0.29549670073E+03  0.00000000000E+00 0.  1.
          2    1    1    2  502    0 -0.12266754033E+02 -0.42239882594E+02 -0.14126047828E+03  0.14795000392E+03  0.00000000000E+00 0.  1.
         -2    1    1    2    0  502  0.12266754033E+02  0.42239882594E+02 -0.14768604140E+03  0.15409687784E+03  0.00000000000E+00 0.  1.
<mgrwt>
<rscale>  2 0.43985008E+02</rscale>
<asrwt>0</asrwt>
<pdfrwt beam="1">  1        2 0.10077201E-02 0.43985008E+02</pdfrwt>
<pdfrwt beam="2">  1       -2 0.45461032E-01 0.43985008E+02</pdfrwt>
<totfact> 0.49638022E+04</totfact>
</mgrwt>
</event>
<event>
 4    1  0.7653521E+003  0.2058245E+02  0.7546771E-02  0.1733987E+00
         -2   -1    0    0    0  501 -0.00000000000E+00  0.00000000000E+00  0.31049833423E+01  0.31049833423E+01  0.00000000000E+00 0.  1.
          2   -1    0    0  501    0  0.00000000000E+00 -0.00000000000E+00 -0.56503069552E+03  0.56503069552E+03  0.00000000000E+00 0. -1.
          2    1    1    2  502    0  0.65894138035E+01  0.19499150079E+02 -0.52836787732E+03  0.52876861765E+03  0.00000000000E+00 0. -1.
         -2    1    1    2    0  502 -0.65894138035E+01 -0.19499150079E+02 -0.33557834854E+02  0.39367061208E+02  0.00000000000E+00 0.  1.
<mgrwt>
<rscale>  2 0.20582450E+02</rscale>
<asrwt>0</asrwt>
<pdfrwt beam="2">  1        2 0.86927748E-01 0.20582450E+02</pdfrwt>
<pdfrwt beam="1">  1       -2 0.47769003E-03 0.20582450E+02</pdfrwt>
<totfact> 0.20666459E+05</totfact>
</mgrwt>
</event>
<event>
 4    1  0.7653521E+003  0.2521167E+02  0.7546771E-02  0.1657980E+00
          2   -1    0    0  501    0  0.00000000000E+00  0.00000000000E+00  0.19591315110E+03  0.19591315110E+03  0.00000000000E+00 0.  1.
         -2   -1    0    0    0  501 -0.00000000000E+00 -0.00000000000E+00 -0.46021868241E+03  0.46021868241E+03  0.00000000000E+00 0.  1.
          2    1    1    2  502    0  0.24833732475E+02 -0.43490132213E+01  0.19475471021E+03  0.19637979869E+03  0.00000000000E+00 0.  1.
         -2    1    1    2    0  502 -0.24833732475E+02  0.43490132213E+01 -0.45906024151E+03  0.45975203482E+03  0.00000000000E+00 0.  1.
<mgrwt>
<rscale>  2 0.25211668E+02</rscale>
<asrwt>0</asrwt>
<pdfrwt beam="1">  1        2 0.30140485E-01 0.25211668E+02</pdfrwt>
<pdfrwt beam="2">  1       -2 0.70802874E-01 0.25211668E+02</pdfrwt>
<totfact> 0.31543246E+02</totfact>
</mgrwt>
</event>
<event>
 4    1  0.7653521E+003  0.2876216E+02  0.7546771E-02  0.1612189E+00
         -2   -1    0    0    0  501 -0.00000000000E+00  0.00000000000E+00  0.99413784380E+01  0.99413784380E+01  0.00000000000E+00 0. -1.
          2   -1    0    0  501    0  0.00000000000E+00 -0.00000000000E+00 -0.91632229495E+03  0.91632229495E+03  0.00000000000E+00 0. -1.
          2    1    1    2  502    0  0.19986022164E+02  0.20683828738E+02 -0.89479266937E+03  0.89525481457E+03  0.00000000000E+00 0. -1.
         -2    1    1    2    0  502 -0.19986022164E+02 -0.20683828738E+02 -0.11588247139E+02  0.31008858814E+02  0.00000000000E+00 0. -1.
<mgrwt>
<rscale>  2 0.28762160E+02</rscale>
<asrwt>0</asrwt>
<pdfrwt beam="2">  1        2 0.14097265E+00 0.28762160E+02</pdfrwt>
<pdfrwt beam="1">  1       -2 0.15294429E-02 0.28762160E+02</pdfrwt>
<totfact> 0.26895757E+04</totfact>
</mgrwt>
</event>
<event>
 4    1  0.7653521E+003  0.2188661E+02  0.7546771E-02  0.1710220E+00
         -2   -1    0    0    0  501 -0.00000000000E+00  0.00000000000E+00  0.79508390465E+02  0.79508390465E+02  0.00000000000E+00 0.  1.
          2   -1    0    0  501    0  0.00000000000E+00 -0.00000000000E+00 -0.93569877459E+01  0.93569877459E+01  0.00000000000E+00 0. -1.
          2    1    1    2  502    0 -0.17654099763E+02  0.12936634598E+02  0.85603134068E+01  0.23501121649E+02  0.00000000000E+00 0. -1.
         -2    1    1    2    0  502  0.17654099763E+02 -0.12936634598E+02  0.61591089313E+02  0.65364256562E+02  0.00000000000E+00 0.  1.
<mgrwt>
<rscale>  2 0.21886611E+02</rscale>
<asrwt>0</asrwt>
<pdfrwt beam="2">  1        2 0.14395366E-02 0.21886611E+02</pdfrwt>
<pdfrwt beam="1">  1       -2 0.12232060E-01 0.21886611E+02</pdfrwt>
<totfact> 0.23623996E+05</totfact>
</mgrwt>
</event>
<event>
 4    1  0.7653521E+003  0.2214088E+02  0.7546771E-02  0.1705827E+00
          2   -1    0    0  501    0  0.00000000000E+00  0.00000000000E+00  0.35981721937E+02  0.35981721937E+02  0.00000000000E+00 0.  1.
         -2   -1    0    0    0  501 -0.00000000000E+00 -0.00000000000E+00 -0.14649458860E+02  0.14649458860E+02  0.00000000000E+00 0.  1.
          2    1    1    2  502    0 -0.21994755602E+02 -0.25395364633E+01  0.17363675253E+02  0.28137443696E+02  0.00000000000E+00 0.  1.
         -2    1    1    2    0  502  0.21994755602E+02  0.25395364633E+01  0.39685878247E+01  0.22493737101E+02  0.00000000000E+00 0.  1.
<mgrwt>
<rscale>  2 0.22140879E+02</rscale>
<asrwt>0</asrwt>
<pdfrwt beam="1">  1        2 0.55356495E-02 0.22140879E+02</pdfrwt>
<pdfrwt beam="2">  1       -2 0.22537629E-02 0.22140879E+02</pdfrwt>
<totfact> 0.48870135E+05</totfact>
</mgrwt>
</event>
<event>
 4    1  0.7653521E+003  0.2125521E+02  0.7546771E-02  0.1721460E+00
          2   -1    0    0  501    0  0.00000000000E+00  0.00000000000E+00  0.67301571413E+03  0.67301571413E+03  0.00000000000E+00 0.  1.
         -2   -1    0    0    0  501 -0.00000000000E+00 -0.00000000000E+00 -0.68797772795E+00  0.68797772795E+00  0.00000000000E+00 0.  1.
          2    1    1    2  502    0  0.11104507338E+02 -0.18123847305E+02  0.38863772971E+03  0.38921853615E+03  0.00000000000E+00 0.  1.
         -2    1    1    2    0  502 -0.11104507338E+02  0.18123847305E+02  0.28369000669E+03  0.28448515571E+03  0.00000000000E+00 0.  1.
<mgrwt>
<rscale>  2 0.21255209E+02</rscale>
<asrwt>0</asrwt>
<pdfrwt beam="1">  1        2 0.10354035E+00 0.21255209E+02</pdfrwt>
<pdfrwt beam="2">  1       -2 0.10584327E-03 0.21255209E+02</pdfrwt>
<totfact> 0.12746216E+06</totfact>
</mgrwt>
</event>
<event>
 4    1  0.7653521E+003  0.6598266E+02  0.7546771E-02  0.1374313E+00
          2   -1    0    0  501    0  0.00000000000E+00  0.00000000000E+00  0.10170765987E+04  0.10170765987E+04  0.00000000000E+00 0. -1.
         -2   -1    0    0    0  501 -0.00000000000E+00 -0.00000000000E+00 -0.33376033113E+02  0.33376033113E+02  0.00000000000E+00 0. -1.
          2    1    1    2  502    0  0.42861898721E+02  0.50165415506E+02  0.98224009085E+03  0.98445381169E+03  0.00000000000E+00 0. -1.
         -2    1    1    2    0  502 -0.42861898721E+02 -0.50165415506E+02  0.14604747630E+01  0.65998820151E+02  0.00000000000E+00 0. -1.
<mgrwt>
<rscale>  2 0.65982659E+02</rscale>
<asrwt>0</asrwt>
<pdfrwt beam="1">  1        2 0.15647330E+00 0.65982659E+02</pdfrwt>
<pdfrwt beam="2">  1       -2 0.51347751E-02 0.65982659E+02</pdfrwt>
<totfact> 0.45664163E+03</totfact>
</mgrwt>
</event>
<event>
 4    1  0.7653521E+003  0.2012683E+02  0.7546771E-02  0.1742818E+00
         -2   -1    0    0    0  501 -0.00000000000E+00  0.00000000000E+00  0.24669842640E+02  0.24669842640E+02  0.00000000000E+00 0. -1.
          2   -1    0    0  501    0  0.00000000000E+00 -0.00000000000E+00 -0.60339989713E+02  0.60339989713E+02  0.00000000000E+00 0. -1.
          2    1    1    2  502    0 -0.16018984162E+02  0.12185295076E+02 -0.54098227008E+02  0.57720944509E+02  0.00000000000E+00 0. -1.
         -2    1    1    2    0  502  0.16018984162E+02 -0.12185295076E+02  0.18428079935E+02  0.27288887844E+02  0.00000000000E+00 0. -1.
<mgrwt>
<rscale>  2 0.20126830E+02</rscale>
<asrwt>0</asrwt>
<pdfrwt beam="2">  1        2 0.92830754E-02 0.20126830E+02</pdfrwt>
<pdfrwt beam="1">  1       -2 0.37953604E-02 0.20126830E+02</pdfrwt>
<totfact> 0.12531905E+05</totfact>
</mgrwt>
</event>
<event>
 4    1  0.7653521E+003  0.2002700E+02  0.7546771E-02  0.1744792E+00
          2   -1    0    0  501    0  0.00000000000E+00  0.00000000000E+00  0.13367022018E+01  0.13367022018E+01  0.00000000000E+00 0. -1.
         -2   -1    0    0    0  501 -0.00000000000E+00 -0.00000000000E+00 -0.33566313133E+03  0.33566313133E+03  0.00000000000E+00 0. -1.
          2    1    1    2  502    0  0.10188834590E+01  0.20001069610E+02 -0.11228027309E+03  0.11405235918E+03  0.00000000000E+00 0. -1.
         -2    1    1    2    0  502 -0.10188834590E+01 -0.20001069610E+02 -0.22204615604E+03  0.22294747435E+03  0.00000000000E+00 0. -1.
<mgrwt>
<rscale>  2 0.20027004E+02</rscale>
<asrwt>0</asrwt>
<pdfrwt beam="1">  1        2 0.20564642E-03 0.20027004E+02</pdfrwt>
<pdfrwt beam="2">  1       -2 0.51640501E-01 0.20027004E+02</pdfrwt>
<totfact> 0.25885005E+05</totfact>
</mgrwt>
</event>
<event>
 4    1  0.7653521E+003  0.3597045E+02  0.7546771E-02  0.1540148E+00
          2   -1    0    0  501    0  0.00000000000E+00  0.00000000000E+00  0.24564365895E+04  0.24564365895E+04  0.00000000000E+00 0.  1.
         -2   -1    0    0    0  501 -0.00000000000E+00 -0.00000000000E+00 -0.84724943190E+02  0.84724943190E+02  0.00000000000E+00 0. -1.
          2    1    1    2  502    0 -0.32081277574E+01  0.35827104347E+02  0.24524808851E+04  0.24527446597E+04  0.00000000000E+00 0.  1.
         -2    1    1    2    0  502  0.32081277574E+01 -0.35827104347E+02 -0.80769238850E+02  0.88416873016E+02  0.00000000000E+00 0. -1.
<mgrwt>
<rscale>  2 0.35970453E+02</rscale>
<asrwt>0</asrwt>
<pdfrwt beam="1">  1        2 0.37791327E+00 0.35970453E+02</pdfrwt>
<pdfrwt beam="2">  1       -2 0.13034609E-01 0.35970453E+02</pdfrwt>
<totfact> 0.21445983E+02</totfact>
</mgrwt>
</event>
<event>
 4    1  0.7653521E+003  0.2619431E+02  0.7546771E-02  0.1644417E+00
          2   -1    0    0  501    0  0.00000000000E+00  0.00000000000E+00  0.14349796117E+04  0.14349796117E+04  0.00000000000E+00 0. -1.
         -2   -1    0    0    0  501 -0.00000000000E+00 -0.00000000000E+00 -0.48181362989E+00  0.48181362989E+00  0.00000000000E+00 0. -1.
          2    1    1    2  502    0  0.19122824760E+02 -0.17901377826E+02  0.77979774975E+03  0.78023757424E+03  0.00000000000E+00 0. -1.
         -2    1    1    2    0  502 -0.19122824760E+02  0.17901377826E+02  0.65470004831E+03  0.65522385107E+03  0.00000000000E+00 0. -1.
<mgrwt>
<rscale>  2 0.26194308E+02</rscale>
<asrwt>0</asrwt>
<pdfrwt beam="1">  1        2 0.22076267E+00 0.26194308E+02</pdfrwt>
<pdfrwt beam="2">  1       -2 0.74126323E-04 0.26194308E+02</pdfrwt>
<totfact> 0.83071583E+05</totfact>
</mgrwt>
</event>
<event>
 4    1  0.7653521E+003  0.2443419E+02  0.7546771E-02  0.1669264E+00
          2   -1    0    0  501    0  0.00000000000E+00  0.00000000000E+00  0.11913721660E+04  0.11913721660E+04  0.00000000000E+00 0.  1.
         -2   -1    0    0    0  501 -0.00000000000E+00 -0.00000000000E+00 -0.12127596204E+01  0.12127596204E+01  0.00000000000E+00 0. -1.
          2    1    1    2  502    0 -0.88337453880E+01  0.22781456751E+02  0.10518518414E+04  0.10521356025E+04  0.00000000000E+00 0.  1.
         -2    1    1    2    0  502  0.88337453880E+01 -0.22781456751E+02  0.13830756496E+03  0.14044932308E+03  0.00000000000E+00 0. -1.
<mgrwt>
<rscale>  2 0.24434194E+02</rscale>
<asrwt>0</asrwt>
<pdfrwt beam="1">  1        2 0.18328709E+00 0.24434194E+02</pdfrwt>
<pdfrwt beam="2">  1       -2 0.18657936E-03 0.24434194E+02</pdfrwt>
<totfact> 0.31684626E+05</totfact>
</mgrwt>
</event>
<event>
 4    1  0.7653521E+003  0.3224107E+02  0.7546771E-02  0.1574560E+00
          2   -1    0    0  501    0  0.00000000000E+00  0.00000000000E+00  0.67541011424E+03  0.67541011424E+03  0.00000000000E+00 0.  1.
         -2   -1    0    0    0  501 -0.00000000000E+00 -0.00000000000E+00 -0.17185220663E+01  0.17185220663E+01  0.00000000000E+00 0. -1.
          2    1    1    2  502    0  0.22875721695E+02 -0.22719775218E+02  0.44625846865E+03  0.44742162182E+03  0.00000000000E+00 0.  1.
         -2    1    1    2    0  502 -0.22875721695E+02  0.22719775218E+02  0.22743312352E+03  0.22970701449E+03  0.00000000000E+00 0. -1.
<mgrwt>
<rscale>  2 0.32241074E+02</rscale>
<asrwt>0</asrwt>
<pdfrwt beam="1">  1        2 0.10390904E+00 0.32241074E+02</pdfrwt>
<pdfrwt beam="2">  1       -2 0.26438855E-03 0.32241074E+02</pdfrwt>
<totfact> 0.42416378E+05</totfact>
</mgrwt>
</event>
<event>
 4    1  0.7653521E+003  0.3165290E+02  0.7546771E-02  0.1580505E+00
          2   -1    0    0  501    0  0.00000000000E+00  0.00000000000E+00  0.60293737755E+03  0.60293737755E+03  0.00000000000E+00 0. -1.
         -2   -1    0    0    0  501 -0.00000000000E+00 -0.00000000000E+00 -0.24418875815E+01  0.24418875815E+01  0.00000000000E+00 0.  1.
          2    1    1    2  502    0  0.18796486374E+02  0.25467594546E+02  0.47134057684E+03  0.47240220750E+03  0.00000000000E+00 0. -1.
         -2    1    1    2    0  502 -0.18796486374E+02 -0.25467594546E+02  0.12915491313E+03  0.13297705763E+03  0.00000000000E+00 0.  1.
<mgrwt>
<rscale>  2 0.31652903E+02</rscale>
<asrwt>0</asrwt>
<pdfrwt beam="1">  1        2 0.92759478E-01 0.31652903E+02</pdfrwt>
<pdfrwt beam="2">  1       -2 0.37567549E-03 0.31652903E+02</pdfrwt>
<totfact> 0.29715454E+05</totfact>
</mgrwt>
</event>
<event>
 4    1  0.7653521E+003  0.2670600E+02  0.7546771E-02  0.1637642E+00
          2   -1    0    0  501    0  0.00000000000E+00  0.00000000000E+00  0.74411480315E+03  0.74411480315E+03  0.00000000000E+00 0.  1.
         -2   -1    0    0    0  501 -0.00000000000E+00 -0.00000000000E+00 -0.30371726001E+02  0.30371726001E+02  0.00000000000E+00 0.  1.
          2    1    1    2  502    0 -0.17341774437E+02 -0.20309434575E+02  0.73795552695E+03  0.73843860275E+03  0.00000000000E+00 0.  1.
         -2    1    1    2    0  502  0.17341774437E+02  0.20309434575E+02 -0.24212449794E+02  0.36047926409E+02  0.00000000000E+00 0.  1.
<mgrwt>
<rscale>  2 0.26705997E+02</rscale>
<asrwt>0</asrwt>
<pdfrwt beam="1">  1        2 0.11447919E+00 0.26705997E+02</pdfrwt>
<pdfrwt beam="2">  1       -2 0.46725738E-02 0.26705997E+02</pdfrwt>
<totfact> 0.71392177E+03</totfact>
</mgrwt>
</event>
<event>
 4    1  0.7653521E+003  0.3716020E+02  0.7546771E-02  0.1530214E+00
         -2   -1    0    0    0  501 -0.00000000000E+00  0.00000000000E+00  0.30254679039E+01  0.30254679039E+01  0.00000000000E+00 0. -1.
          2   -1    0    0  501    0  0.00000000000E+00 -0.00000000000E+00 -0.12600969751E+04  0.12600969751E+04  0.00000000000E+00 0. -1.
          2    1    1    2  502    0  0.21409391644E+02  0.30372983528E+02 -0.11329119489E+04  0.11335212235E+04  0.00000000000E+00 0. -1.
         -2    1    1    2    0  502 -0.21409391644E+02 -0.30372983528E+02 -0.12415955830E+03  0.12960121950E+03  0.00000000000E+00 0. -1.
<mgrwt>
<rscale>  2 0.37160196E+02</rscale>
<asrwt>0</asrwt>
<pdfrwt beam="2">  1        2 0.19386152E+00 0.37160196E+02</pdfrwt>
<pdfrwt beam="1">  1       -2 0.46545553E-03 0.37160196E+02</pdfrwt>
<totfact> 0.93168711E+04</totfact>
</mgrwt>
</event>
<event>
 4    1  0.7653521E+003  0.2695867E+02  0.7546771E-02  0.1634364E+00
         -2   -1    0    0    0  501 -0.00000000000E+00  0.00000000000E+00  0.39512426486E+03  0.39512426486E+03  0.00000000000E+00 0. -1.
          2   -1    0    0  501    0  0.00000000000E+00 -0.00000000000E+00 -0.25734760271E+03  0.25734760271E+03  0.00000000000E+00 0.  1.
          2    1    1    2  502    0  0.22083334510E+02 -0.15462744072E+02 -0.25617965572E+03  0.25759422766E+03  0.00000000000E+00 0.  1.
         -2    1    1    2    0  502 -0.22083334510E+02  0.15462744072E+02  0.39395631786E+03  0.39487763991E+03  0.00000000000E+00 0. -1.
<mgrwt>
<rscale>  2 0.26958674E+02</rscale>
<asrwt>0</asrwt>
<pdfrwt beam="2">  1        2 0.39591939E-01 0.26958674E+02</pdfrwt>
<pdfrwt beam="1">  1       -2 0.60788349E-01 0.26958674E+02</pdfrwt>
<totfact> 0.32709269E+02</totfact>
</mgrwt>
</event>
<event>
 4    1  0.7653521E+003  0.2676415E+02  0.7546771E-02  0.1636884E+00
          2   -1    0    0  501    0  0.00000000000E+00  0.00000000000E+00  0.55671761565E+03  0.55671761565E+03  0.00000000000E+00 0. -1.
         -2   -1    0    0    0  501 -0.00000000000E+00 -0.00000000000E+00 -0.11429153367E+02  0.11429153367E+02  0.00000000000E+00 0.  1.
          2    1    1    2  502    0  0.26721037471E+02  0.15184312101E+01  0.54024994014E+03  0.54091248581E+03  0.00000000000E+00 0. -1.
         -2    1    1    2    0  502 -0.26721037471E+02 -0.15184312101E+01  0.50385221457E+01  0.27234283216E+02  0.00000000000E+00 0.  1.
<mgrwt>
<rscale>  2 0.26764145E+02</rscale>
<asrwt>0</asrwt>
<pdfrwt beam="1">  1        2 0.85648843E-01 0.26764145E+02</pdfrwt>
<pdfrwt beam="2">  1       -2 0.17583317E-02 0.26764145E+02</pdfrwt>
<totfact> 0.38163027E+04</totfact>
</mgrwt>
</event>
<event>
 4    1  0.7653521E+003  0.2281193E+02  0.7546771E-02  0.1694577E+00
         -2   -1    0    0    0  501 -0.00000000000E+00  0.00000000000E+00  0.54346997917E+02  0.54346997917E+02  0.00000000000E+00 0.  1.
          2   -1    0    0  501    0  0.00000000000E+00 -0.00000000000E+00 -0.60407206699E+02  0.60407206699E+02  0.00000000000E+00 0.  1.
          2    1    1    2  502    0 -0.19231495087E+02 -0.12269223707E+02 -0.55663670109E+02  0.60156698910E+02  0.00000000000E+00 0.  1.
         -2    1    1    2    0  502  0.19231495087E+02  0.12269223707E+02  0.49603461327E+02  0.54597505706E+02  0.00000000000E+00 0.  1.
<mgrwt>
<rscale>  2 0.22811932E+02</rscale>
<asrwt>0</asrwt>
<pdfrwt beam="2">  1        2 0.92934164E-02 0.22811932E+02</pdfrwt>
<pdfrwt beam="1">  1       -2 0.83610766E-02 0.22811932E+02</pdfrwt>
<totfact> 0.41775972E+04</totfact>
</mgrwt>
</event>
<event>
 4    1  0.7653521E+003  0.6928075E+02  0.7546771E-02  0.1362556E+00
         -2   -1    0    0    0  501 -0.00000000000E+00  0.00000000000E+00  0.98355620709E+02  0.98355620709E+02  0.00000000000E+00 0. -1.
          2   -1    0    0  501    0  0.00000000000E+00 -0.00000000000E+00 -0.12722854408E+03  0.12722854408E+03  0.00000000000E+00 0.  1.
          2    1    1    2  502    0  0.69021308792E+02 -0.59901196654E+01 -0.10299317496E+03  0.12412661556E+03  0.00000000000E+00 0.  1.
         -2    1    1    2    0  502 -0.69021308792E+02  0.59901196654E+01  0.74120251589E+02  0.10145754923E+03  0.00000000000E+00 0. -1.
<mgrwt>
<rscale>  2 0.69280752E+02</rscale>
<asrwt>0</asrwt>
<pdfrwt beam="2">  1        2 0.19573622E-01 0.69280752E+02</pdfrwt>
<pdfrwt beam="1">  1       -2 0.15131634E-01 0.69280752E+02</pdfrwt>
<totfact> 0.85342583E+03</totfact>
</mgrwt>
</event>
<event>
 4    1  0.7653521E+003  0.3203142E+02  0.7546771E-02  0.1576662E+00
         -2   -1    0    0    0  501 -0.00000000000E+00  0.00000000000E+00  0.69145554605E+02  0.69145554605E+02  0.00000000000E+00 0.  1.
          2   -1    0    0  501    0  0.00000000000E+00 -0.00000000000E+00 -0.82341450017E+03  0.82341450017E+03  0.00000000000E+00 0.  1.
          2    1    1    2  502    0 -0.30317500147E+02  0.10337362213E+02 -0.81937509901E+03  0.82000095412E+03  0.00000000000E+00 0.  1.
         -2    1    1    2    0  502  0.30317500147E+02 -0.10337362213E+02  0.65106153443E+02  0.72559100662E+02  0.00000000000E+00 0.  1.
<mgrwt>
<rscale>  2 0.32031420E+02</rscale>
<asrwt>0</asrwt>
<pdfrwt beam="2">  1        2 0.12667915E+00 0.32031420E+02</pdfrwt>
<pdfrwt beam="1">  1       -2 0.10637778E-01 0.32031420E+02</pdfrwt>
<totfact> 0.19333507E+03</totfact>
</mgrwt>
</event>
<event>
 4    1  0.7653521E+003  0.3879223E+02  0.7546771E-02  0.1517292E+00
          2   -1    0    0  501    0  0.00000000000E+00  0.00000000000E+00  0.23427194526E+04  0.23427194526E+04  0.00000000000E+00 0. -1.
         -2   -1    0    0    0  501 -0.00000000000E+00 -0.00000000000E+00 -0.72664520180E+00  0.72664520180E+00  0.00000000000E+00 0. -1.
          2    1    1    2  502    0 -0.38910680253E+01  0.38596589442E+02  0.15700900156E+04  0.15705691625E+04  0.00000000000E+00 0. -1.
         -2    1    1    2    0  502  0.38910680253E+01 -0.38596589442E+02  0.77190279184E+03  0.77287693533E+03  0.00000000000E+00 0. -1.
<mgrwt>
<rscale>  2 0.38792230E+02</rscale>
<asrwt>0</asrwt>
<pdfrwt beam="1">  1        2 0.36041233E+00 0.38792230E+02</pdfrwt>
<pdfrwt beam="2">  1       -2 0.11179344E-03 0.38792230E+02</pdfrwt>
<totfact> 0.19223853E+05</totfact>
</mgrwt>
</event>
<event>
 4    1  0.7653521E+003  0.2057781E+02  0.7546771E-02  0.1734076E+00
         -2   -1    0    0    0  501 -0.00000000000E+00  0.00000000000E+00  0.27296092234E+03  0.27296092234E+03  0.00000000000E+00 0.  1.
          2   -1    0    0  501    0  0.00000000000E+00 -0.00000000000E+00 -0.29585070814E+03  0.29585070814E+03  0.00000000000E+00 0. -1.
          2    1    1    2  502    0  0.15313921088E+02  0.13745180104E+02 -0.29510408058E+03  0.29582066279E+03  0.00000000000E+00 0. -1.
         -2    1    1    2    0  502 -0.15313921088E+02 -0.13745180104E+02  0.27221429478E+03  0.27299096769E+03  0.00000000000E+00 0.  1.
<mgrwt>
<rscale>  2 0.20577807E+02</rscale>
<asrwt>0</asrwt>
<pdfrwt beam="2">  1        2 0.45515494E-01 0.20577807E+02</pdfrwt>
<pdfrwt beam="1">  1       -2 0.41993988E-01 0.20577807E+02</pdfrwt>
<totfact> 0.57026259E+02</totfact>
</mgrwt>
</event>
<event>
 4    1  0.7653521E+003  0.9778079E+02  0.7546771E-02  0.1285033E+00
          2   -1    0    0  501    0  0.00000000000E+00  0.00000000000E+00  0.45034935412E+02  0.45034935412E+02  0.00000000000E+00 0.  1.
         -2   -1    0    0    0  501 -0.00000000000E+00 -0.00000000000E+00 -0.38156032132E+03  0.38156032132E+03  0.00000000000E+00 0.  1.
          2    1    1    2  502    0  0.34178323038E+02 -0.91612906221E+02 -0.26200901276E+02  0.10123027995E+03  0.00000000000E+00 0.  1.
         -2    1    1    2    0  502 -0.34178323038E+02  0.91612906221E+02 -0.31032448463E+03  0.32536497678E+03  0.00000000000E+00 0.  1.
<mgrwt>
<rscale>  2 0.97780787E+02</rscale>
<asrwt>0</asrwt>
<pdfrwt beam="1">  1        2 0.69284519E-02 0.97780787E+02</pdfrwt>
<pdfrwt beam="2">  1       -2 0.58701585E-01 0.97780787E+02</pdfrwt>
<totfact> 0.26584358E+03</totfact>
</mgrwt>
</event>
<event>
 4    1  0.7653521E+003  0.2089816E+02  0.7546771E-02  0.1728035E+00
         -2   -1    0    0    0  501 -0.00000000000E+00  0.00000000000E+00  0.65236382243E+01  0.65236382243E+01  0.00000000000E+00 0.  1.
          2   -1    0    0  501    0  0.00000000000E+00 -0.00000000000E+00 -0.79242833417E+02  0.79242833417E+02  0.00000000000E+00 0.  1.
          2    1    1    2  502    0 -0.19575309326E+02 -0.73171061538E+01 -0.19466834370E+02  0.28560294433E+02  0.00000000000E+00 0.  1.
         -2    1    1    2    0  502  0.19575309326E+02  0.73171061538E+01 -0.53252360823E+02  0.57206177209E+02  0.00000000000E+00 0.  1.
<mgrwt>
<rscale>  2 0.20898163E+02</rscale>
<asrwt>0</asrwt>
<pdfrwt beam="2">  1        2 0.12191206E-01 0.20898163E+02</pdfrwt>
<pdfrwt beam="1">  1       -2 0.10036366E-02 0.20898163E+02</pdfrwt>
<totfact> 0.57279712E+05</totfact>
</mgrwt>
</event>
<event>
 4    1  0.7653521E+003  0.2021854E+02  0.7546771E-02  0.1741017E+00
          2   -1    0    0  501    0  0.00000000000E+00  0.00000000000E+00  0.20718950872E+04  0.20718950872E+04  0.00000000000E+00 0.  1.
         -2   -1    0    0    0  501 -0.00000000000E+00 -0.00000000000E+00 -0.19840154594E+00  0.19840154594E+00  0.00000000000E+00 0.  1.
          2    1    1    2  502    0  0.16497598158E+02  0.11688401858E+02  0.11129691761E+04  0.11131528091E+04  0.00000000000E+00 0.  1.
         -2    1    1    2    0  502 -0.16497598158E+02 -0.11688401858E+02  0.95872750958E+03  0.95894067966E+03  0.00000000000E+00 0.  1.
<mgrwt>
<rscale>  2 0.20218543E+02</rscale>
<asrwt>0</asrwt>
<pdfrwt beam="1">  1        2 0.31873576E+00 0.20218543E+02</pdfrwt>
<pdfrwt beam="2">  1       -2 0.30524974E-04 0.20218543E+02</pdfrwt>
<totfact> 0.12507701E+06</totfact>
</mgrwt>
</event>
<event>
 4    1  0.7653521E+003  0.2306987E+02  0.7546771E-02  0.1690380E+00
          2   -1    0    0  501    0  0.00000000000E+00  0.00000000000E+00  0.21116457972E+03  0.21116457972E+03  0.00000000000E+00 0.  1.
         -2   -1    0    0    0  501 -0.00000000000E+00 -0.00000000000E+00 -0.15131785926E+02  0.15131785926E+02  0.00000000000E+00 0. -1.
          2    1    1    2  502    0  0.21212129260E+02  0.90699812092E+01  0.20131249459E+03  0.20263005568E+03  0.00000000000E+00 0.  1.
         -2    1    1    2    0  502 -0.21212129260E+02 -0.90699812092E+01 -0.52797007965E+01  0.23666309966E+02  0.00000000000E+00 0. -1.
<mgrwt>
<rscale>  2 0.23069872E+02</rscale>
<asrwt>0</asrwt>
<pdfrwt beam="1">  1        2 0.32486856E-01 0.23069872E+02</pdfrwt>
<pdfrwt beam="2">  1       -2 0.23279672E-02 0.23069872E+02</pdfrwt>
<totfact> 0.66291703E+04</totfact>
</mgrwt>
</event>
<event>
 4    1  0.7653521E+003  0.3852534E+02  0.7546771E-02  0.1519352E+00
         -2   -1    0    0    0  501 -0.00000000000E+00  0.00000000000E+00  0.71289270378E+01  0.71289270378E+01  0.00000000000E+00 0.  1.
          2   -1    0    0  501    0  0.00000000000E+00 -0.00000000000E+00 -0.59823886645E+03  0.59823886645E+03  0.00000000000E+00 0.  1.
          2    1    1    2  502    0 -0.32423620917E+02  0.20806510063E+02 -0.53995942241E+03  0.54133204219E+03  0.00000000000E+00 0.  1.
         -2    1    1    2    0  502  0.32423620917E+02 -0.20806510063E+02 -0.51150517001E+02  0.64035751295E+02  0.00000000000E+00 0.  1.
<mgrwt>
<rscale>  2 0.38525343E+02</rscale>
<asrwt>0</asrwt>
<pdfrwt beam="2">  1        2 0.92036816E-01 0.38525343E+02</pdfrwt>
<pdfrwt beam="1">  1       -2 0.10967572E-02 0.38525343E+02</pdfrwt>
<totfact> 0.72305768E+04</totfact>
</mgrwt>
</event>
<event>
 4    1  0.7653521E+003  0.3103846E+02  0.7546771E-02  0.1586886E+00
          2   -1    0    0  501    0  0.00000000000E+00  0.00000000000E+00  0.45902156696E+03  0.45902156696E+03  0.00000000000E+00 0. -1.
         -2   -1    0    0    0  501 -0.00000000000E+00 -0.00000000000E+00 -0.26035963843E+01  0.26035963843E+01  0.00000000000E+00 0. -1.
          2    1    1    2  502    0 -0.42653758271E+01 -0.30743980277E+02  0.32984296445E+03  0.33130011614E+03  0.00000000000E+00 0. -1.
         -2    1    1    2    0  502  0.42653758271E+01  0.30743980277E+02  0.12657500612E+03  0.13032504720E+03  0.00000000000E+00 0. -1.
<mgrwt>
<rscale>  2 0.31038456E+02</rscale>
<asrwt>0</asrwt>
<pdfrwt beam="1">  1        2 0.70618638E-01 0.31038456E+02</pdfrwt>
<pdfrwt beam="2">  1       -2 0.40055365E-03 0.31038456E+02</pdfrwt>
<totfact> 0.35983709E+05</totfact>
</mgrwt>
</event>
<event>
 4    1  0.7653521E+003  0.2005928E+02  0.7546771E-02  0.1744152E+00
          2   -1    0    0  501    0  0.00000000000E+00  0.00000000000E+00  0.11823218495E+04  0.11823218495E+04  0.00000000000E+00 0.  1.
         -2   -1    0    0    0  501 -0.00000000000E+00 -0.00000000000E+00 -0.31423380275E+02  0.31423380275E+02  0.00000000000E+00 0.  1.
          2    1    1    2  502    0  0.17485052105E+02 -0.98309476436E+01  0.11790265859E+04  0.11791972120E+04  0.00000000000E+00 0.  1.
         -2    1    1    2    0  502 -0.17485052105E+02  0.98309476436E+01 -0.28128116710E+02  0.34548017719E+02  0.00000000000E+00 0.  1.
<mgrwt>
<rscale>  2 0.20059277E+02</rscale>
<asrwt>0</asrwt>
<pdfrwt beam="1">  1        2 0.18189563E+00 0.20059277E+02</pdfrwt>
<pdfrwt beam="2">  1       -2 0.48343671E-02 0.20059277E+02</pdfrwt>
<totfact> 0.37644519E+03</totfact>
</mgrwt>
</event>
<event>
 4    1  0.7653521E+003  0.2638376E+02  0.7546771E-02  0.1641887E+00
         -2   -1    0    0    0  501 -0.00000000000E+00  0.00000000000E+00  0.69527811049E+01  0.69527811049E+01  0.00000000000E+00 0. -1.
          2   -1    0    0  501    0  0.00000000000E+00 -0.00000000000E+00 -0.12306769219E+04  0.12306769219E+04  0.00000000000E+00 0. -1.
          2    1    1    2  502    0 -0.26026123440E+02  0.43293943590E+01 -0.12049719854E+04  0.12052607968E+04  0.00000000000E+00 0. -1.
         -2    1    1    2    0  502  0.26026123440E+02 -0.43293943590E+01 -0.18752155442E+02  0.32368906230E+02  0.00000000000E+00 0. -1.
<mgrwt>
<rscale>  2 0.26383759E+02</rscale>
<asrwt>0</asrwt>
<pdfrwt beam="2">  1        2 0.18933489E+00 0.26383759E+02</pdfrwt>
<pdfrwt beam="1">  1       -2 0.10696587E-02 0.26383759E+02</pdfrwt>
<totfact> 0.29443320E+04</totfact>
</mgrwt>
</event>
<event>
 4    1  0.7653521E+003  0.3796528E+02  0.7546771E-02  0.1523742E+00
         -2   -1    0    0    0  501 -0.00000000000E+00  0.00000000000E+00  0.35489371922E+02  0.35489371922E+02  0.00000000000E+00 0. -1.
          2   -1    0    0  501    0  0.00000000000E+00 -0.00000000000E+00 -0.67322733521E+03  0.67322733521E+03  0.00000000000E+00 0. -1.
          2    1    1    2  502    0 -0.36369942844E+02 -0.10889877755E+02 -0.66237235497E+03  0.66345949297E+03  0.00000000000E+00 0. -1.
         -2    1    1    2    0  502  0.36369942844E+02  0.10889877755E+02  0.24634391685E+02  0.45257214162E+02  0.00000000000E+00 0. -1.
<mgrwt>
<rscale>  2 0.37965276E+02</rscale>
<asrwt>0</asrwt>
<pdfrwt beam="2">  1        2 0.10357344E+00 0.37965276E+02</pdfrwt>
<pdfrwt beam="1">  1       -2 0.54599033E-02 0.37965276E+02</pdfrwt>
<totfact> 0.66050647E+03</totfact>
</mgrwt>
</event>
<event>
 4    1  0.7653521E+003  0.3087222E+02  0.7546771E-02  0.1588643E+00
          2   -1    0    0  501    0  0.00000000000E+00  0.00000000000E+00  0.54117357988E+02  0.54117357988E+02  0.00000000000E+00 0. -1.
         -2   -1    0    0    0  501 -0.00000000000E+00 -0.00000000000E+00 -0.32410349246E+02  0.32410349246E+02  0.00000000000E+00 0.  1.
          2    1    1    2  502    0  0.15003161180E+02 -0.26981462912E+02  0.40087999637E+02  0.50597844827E+02  0.00000000000E+00 0. -1.
         -2    1    1    2    0  502 -0.15003161180E+02  0.26981462912E+02 -0.18380990895E+02  0.35929862407E+02  0.00000000000E+00 0.  1.
<mgrwt>
<rscale>  2 0.30872224E+02</rscale>
<asrwt>0</asrwt>
<pdfrwt beam="1">  1        2 0.83257474E-02 0.30872224E+02</pdfrwt>
<pdfrwt beam="2">  1       -2 0.49862076E-02 0.30872224E+02</pdfrwt>
<totfact> 0.10755980E+05</totfact>
</mgrwt>
</event>
<event>
 4    1  0.7653521E+003  0.3572728E+02  0.7546771E-02  0.1542235E+00
          2   -1    0    0  501    0  0.00000000000E+00  0.00000000000E+00  0.44524037837E+03  0.44524037837E+03  0.00000000000E+00 0. -1.
         -2   -1    0    0    0  501 -0.00000000000E+00 -0.00000000000E+00 -0.22685756144E+02  0.22685756144E+02  0.00000000000E+00 0. -1.
          2    1    1    2  502    0  0.35415751655E+02 -0.47077481582E+01  0.42995803005E+03  0.43143985208E+03  0.00000000000E+00 0. -1.
         -2    1    1    2    0  502 -0.35415751655E+02  0.47077481582E+01 -0.74034078286E+01  0.36486282429E+02  0.00000000000E+00 0. -1.
<mgrwt>
<rscale>  2 0.35727278E+02</rscale>
<asrwt>0</asrwt>
<pdfrwt beam="1">  1        2 0.68498513E-01 0.35727278E+02</pdfrwt>
<pdfrwt beam="2">  1       -2 0.34901167E-02 0.35727278E+02</pdfrwt>
<totfact> 0.19292953E+04</totfact>
</mgrwt>
</event>
<event>
 4    1  0.7653521E+003  0.2554606E+02  0.7546771E-02  0.1653280E+00
         -2   -1    0    0    0  501 -0.00000000000E+00  0.00000000000E+00  0.37991712641E+01  0.37991712641E+01  0.00000000000E+00 0. -1.
          2   -1    0    0  501    0  0.00000000000E+00 -0.00000000000E+00 -0.17342069161E+03  0.17342069161E+03  0.00000000000E+00 0. -1.
          2    1    1    2  502    0  0.70213820840E+01  0.24562176714E+02 -0.76177268503E+02  0.80346602715E+02  0.00000000000E+00 0. -1.
         -2    1    1    2    0  502 -0.70213820840E+01 -0.24562176714E+02 -0.93444251840E+02  0.96873260156E+02  0.00000000000E+00 0. -1.
<mgrwt>
<rscale>  2 0.25546056E+02</rscale>
<asrwt>0</asrwt>
<pdfrwt beam="2">  1        2 0.26680111E-01 0.25546056E+02</pdfrwt>
<pdfrwt beam="1">  1       -2 0.58448778E-03 0.25546056E+02</pdfrwt>
<totfact> 0.54486851E+05</totfact>
</mgrwt>
</event>
<event>
 4    1  0.7653521E+003  0.2376113E+02  0.7546771E-02  0.1679461E+00
          2   -1    0    0  501    0  0.00000000000E+00  0.00000000000E+00  0.65645210216E+02  0.65645210216E+02  0.00000000000E+00 0.  1.
         -2   -1    0    0    0  501 -0.00000000000E+00 -0.00000000000E+00 -0.19048155418E+03  0.19048155418E+03  0.00000000000E+00 0. -1.
          2    1    1    2  502    0  0.13613933158E+02  0.19474391032E+02  0.62720650478E+02  0.67070642448E+02  0.00000000000E+00 0.  1.
         -2    1    1    2    0  502 -0.13613933158E+02 -0.19474391032E+02 -0.18755699444E+03  0.18905612195E+03  0.00000000000E+00 0. -1.
<mgrwt>
<rscale>  2 0.23761125E+02</rscale>
<asrwt>0</asrwt>
<pdfrwt beam="1">  1        2 0.10099263E-01 0.23761125E+02</pdfrwt>
<pdfrwt beam="2">  1       -2 0.29304854E-01 0.23761125E+02</pdfrwt>
<totfact> 0.53347436E+03</totfact>
</mgrwt>
</event>
<event>
 4    1  0.7653521E+003  0.2085805E+02  0.7546771E-02  0.1728784E+00
          2   -1    0    0  501    0  0.00000000000E+00  0.00000000000E+00  0.61235364223E+01  0.61235364223E+01  0.00000000000E+00 0.  1.
         -2   -1    0    0    0  501 -0.00000000000E+00 -0.00000000000E+00 -0.97198632735E+02  0.97198632735E+02  0.00000000000E+00 0. -1.
          2    1    1    2  502    0  0.20782930814E+02  0.17686650071E+01 -0.18740711559E+02  0.28040553826E+02  0.00000000000E+00 0.  1.
         -2    1    1    2    0  502 -0.20782930814E+02 -0.17686650071E+01 -0.72334384754E+02  0.75281615331E+02  0.00000000000E+00 0. -1.
<mgrwt>
<rscale>  2 0.20858053E+02</rscale>
<asrwt>0</asrwt>
<pdfrwt beam="1">  1        2 0.94208253E-03 0.20858053E+02</pdfrwt>
<pdfrwt beam="2">  1       -2 0.14953636E-01 0.20858053E+02</pdfrwt>
<totfact> 0.29626062E+05</totfact>
</mgrwt>
</event>
<event>
 4    1  0.7653521E+003  0.2750779E+02  0.7546771E-02  0.1627392E+00
          2   -1    0    0  501    0  0.00000000000E+00  0.00000000000E+00  0.39458827959E+02  0.39458827959E+02  0.00000000000E+00 0.  1.
         -2   -1    0    0    0  501 -0.00000000000E+00 -0.00000000000E+00 -0.63987257486E+02  0.63987257486E+02  0.00000000000E+00 0.  1.
          2    1    1    2  502    0 -0.20653042061E+02 -0.18169488049E+02  0.31019938177E+02  0.41459799889E+02  0.00000000000E+00 0.  1.
         -2    1    1    2    0  502  0.20653042061E+02  0.18169488049E+02 -0.55548367704E+02  0.61986285555E+02  0.00000000000E+00 0.  1.
<mgrwt>
<rscale>  2 0.27507789E+02</rscale>
<asrwt>0</asrwt>
<pdfrwt beam="1">  1        2 0.60705889E-02 0.27507789E+02</pdfrwt>
<pdfrwt beam="2">  1       -2 0.98441934E-02 0.27507789E+02</pdfrwt>
<totfact> 0.56634176E+04</totfact>
</mgrwt>
</event>
<event>
 4    1  0.7653521E+003  0.2213193E+02  0.7546771E-02  0.1705980E+00
          2   -1    0    0  501    0  0.00000000000E+00  0.00000000000E+00  0.70000925209E+03  0.70000925209E+03  0.00000000000E+00 0. -1.
         -2   -1    0    0    0  501 -0.00000000000E+00 -0.00000000000E+00 -0.67119754713E+01  0.67119754713E+01  0.00000000000E+00 0. -1.
          2    1    1    2  502    0 -0.63483560696E+01 -0.21201902670E+02  0.68108313104E+03  0.68144262685E+03  0.00000000000E+00 0. -1.
         -2    1    1    2    0  502  0.63483560696E+01  0.21201902670E+02  0.12214145576E+02  0.25278600708E+02  0.00000000000E+00 0. -1.
<mgrwt>
<rscale>  2 0.22131929E+02</rscale>
<asrwt>0</asrwt>
<pdfrwt beam="1">  1        2 0.10769367E+00 0.22131929E+02</pdfrwt>
<pdfrwt beam="2">  1       -2 0.10326122E-02 0.22131929E+02</pdfrwt>
<totfact> 0.59683912E+04</totfact>
</mgrwt>
</event>
<event>
 4    1  0.7653521E+003  0.2009137E+02  0.7546771E-02  0.1743517E+00
         -2   -1    0    0    0  501 -0.00000000000E+00  0.00000000000E+00  0.21865679640E+02  0.21865679640E+02  0.00000000000E+00 0. -1.
          2   -1    0    0  501    0  0.00000000000E+00 -0.00000000000E+00 -0.26405239098E+03  0.26405239098E+03  0.00000000000E+00 0.  1.
          2    1    1    2  502    0  0.17794606786E+02  0.93281908119E+01 -0.25896440825E+03  0.25974261860E+03  0.00000000000E+00 0.  1.
         -2    1    1    2    0  502 -0.17794606786E+02 -0.93281908119E+01  0.16777696917E+02  0.26175452018E+02  0.00000000000E+00 0. -1.
<mgrwt>
<rscale>  2 0.20091371E+02</rscale>
<asrwt>0</asrwt>
<pdfrwt beam="2">  1        2 0.40623445E-01 0.20091371E+02</pdfrwt>
<pdfrwt beam="1">  1       -2 0.33639507E-02 0.20091371E+02</pdfrwt>
<totfact> 0.30995664E+04</totfact>
</mgrwt>
</event>
<event>
 4    1  0.7653521E+003  0.2066684E+02  0.7546771E-02  0.1732383E+00
          2   -1    0    0  501    0  0.00000000000E+00  0.00000000000E+00  0.45935820478E+03  0.45935820478E+03  0.00000000000E+00 0.  1.
         -2   -1    0    0    0  501 -0.00000000000E+00 -0.00000000000E+00 -0.10785400597E+01  0.10785400597E+01  0.00000000000E+00 0. -1.
          2    1    1    2  502    0 -0.18892687478E+02 -0.83776234720E+01  0.31462951507E+03  0.31530754822E+03  0.00000000000E+00 0.  1.
         -2    1    1    2    0  502  0.18892687478E+02  0.83776234720E+01  0.14365014966E+03  0.14512919662E+03  0.00000000000E+00 0. -1.
<mgrwt>
<rscale>  2 0.20666839E+02</rscale>
<asrwt>0</asrwt>
<pdfrwt beam="1">  1        2 0.70670337E-01 0.20666839E+02</pdfrwt>
<pdfrwt beam="2">  1       -2 0.16592961E-03 0.20666839E+02</pdfrwt>
<totfact> 0.10342870E+06</totfact>
</mgrwt>
</event>
<event>
 4    1  0.7653521E+003  0.2002342E+02  0.7546771E-02  0.1744863E+00
         -2   -1    0    0    0  501 -0.00000000000E+00  0.00000000000E+00  0.57183298473E+01  0.57183298473E+01  0.00000000000E+00 0.  1.
          2   -1    0    0  501    0  0.00000000000E+00 -0.00000000000E+00 -0.11278174522E+04  0.11278174522E+04  0.00000000000E+00 0.  1.
          2    1    1    2  502    0  0.93923492949E+01 -0.17683925326E+02 -0.11099173010E+04  0.11100979022E+04  0.00000000000E+00 0.  1.
         -2    1    1    2    0  502 -0.93923492949E+01  0.17683925326E+02 -0.12181821379E+02  0.23437879860E+02  0.00000000000E+00 0.  1.
<mgrwt>
<rscale>  2 0.20023422E+02</rscale>
<asrwt>0</asrwt>
<pdfrwt beam="2">  1        2 0.17351036E+00 0.20023422E+02</pdfrwt>
<pdfrwt beam="1">  1       -2 0.87974313E-03 0.20023422E+02</pdfrwt>
<totfact> 0.41318104E+04</totfact>
</mgrwt>
</event>
<event>
 4    1  0.7653521E+003  0.2951749E+02  0.7546771E-02  0.1603484E+00
          2   -1    0    0  501    0  0.00000000000E+00  0.00000000000E+00  0.20377559903E+03  0.20377559903E+03  0.00000000000E+00 0.  1.
         -2   -1    0    0    0  501 -0.00000000000E+00 -0.00000000000E+00 -0.52868759889E+01  0.52868759889E+01  0.00000000000E+00 0. -1.
          2    1    1    2  502    0  0.86412299884E+01  0.28224300795E+02  0.14495963192E+03  0.14793436686E+03  0.00000000000E+00 0.  1.
         -2    1    1    2    0  502 -0.86412299884E+01 -0.28224300795E+02  0.53529091117E+02  0.61128108157E+02  0.00000000000E+00 0. -1.
<mgrwt>
<rscale>  2 0.29517487E+02</rscale>
<asrwt>0</asrwt>
<pdfrwt beam="1">  1        2 0.31350086E-01 0.29517487E+02</pdfrwt>
<pdfrwt beam="2">  1       -2 0.81336569E-03 0.29517487E+02</pdfrwt>
<totfact> 0.30744749E+05</totfact>
</mgrwt>
</event>
<event>
 4    1  0.7653521E+003  0.4280360E+02  0.7546771E-02  0.1488538E+00
          2   -1    0    0  501    0  0.00000000000E+00  0.00000000000E+00  0.93704762088E+03  0.93704762088E+03  0.00000000000E+00 0.  1.
         -2   -1    0    0    0  501 -0.00000000000E+00 -0.00000000000E+00 -0.20270015184E+02  0.20270015184E+02  0.00000000000E+00 0.  1.
          2    1    1    2  502    0 -0.38302176024E+02  0.19107375052E+02  0.91337673755E+03  0.91437914082E+03  0.00000000000E+00 0.  1.
         -2    1    1    2    0  502  0.38302176024E+02 -0.19107375052E+02  0.34008681450E+01  0.42938495242E+02  0.00000000000E+00 0.  1.
<mgrwt>
<rscale>  2 0.42803603E+02</rscale>
<asrwt>0</asrwt>
<pdfrwt beam="1">  1        2 0.14416114E+00 0.42803603E+02</pdfrwt>
<pdfrwt beam="2">  1       -2 0.31184646E-02 0.42803603E+02</pdfrwt>
<totfact> 0.10135433E+04</totfact>
</mgrwt>
</event>
<event>
 4    1  0.7653521E+003  0.1856081E+03  0.7546771E-02  0.1162483E+00
          2   -1    0    0  501    0  0.00000000000E+00  0.00000000000E+00  0.23214771344E+03  0.23214771344E+03  0.00000000000E+00 0. -1.
         -2   -1    0    0    0  501 -0.00000000000E+00 -0.00000000000E+00 -0.17043742733E+03  0.17043742733E+03  0.00000000000E+00 0.  1.
          2    1    1    2  502    0  0.18367880882E+03  0.26691781359E+02  0.10323891077E+03  0.21238792032E+03  0.00000000000E+00 0. -1.
         -2    1    1    2    0  502 -0.18367880882E+03 -0.26691781359E+02 -0.41528624661E+02  0.19019722045E+03  0.00000000000E+00 0.  1.
<mgrwt>
<rscale>  2 0.18560807E+03</rscale>
<asrwt>0</asrwt>
<pdfrwt beam="1">  1        2 0.35715033E-01 0.18560807E+03</pdfrwt>
<pdfrwt beam="2">  1       -2 0.26221143E-01 0.18560807E+03</pdfrwt>
<totfact> 0.18636553E+03</totfact>
</mgrwt>
</event>
<event>
 4    1  0.7653521E+003  0.2065176E+02  0.7546771E-02  0.1732669E+00
          2   -1    0    0  501    0  0.00000000000E+00  0.00000000000E+00  0.18591211489E+03  0.18591211489E+03  0.00000000000E+00 0. -1.
         -2   -1    0    0    0  501 -0.00000000000E+00 -0.00000000000E+00 -0.55011252378E+01  0.55011252378E+01  0.00000000000E+00 0. -1.
          2    1    1    2  502    0  0.19524966749E+02  0.67283542742E+01  0.16328061740E+03  0.16458145429E+03  0.00000000000E+00 0. -1.
         -2    1    1    2    0  502 -0.19524966749E+02 -0.67283542742E+01  0.17130372256E+02  0.26831785841E+02  0.00000000000E+00 0. -1.
<mgrwt>
<rscale>  2 0.20651757E+02</rscale>
<asrwt>0</asrwt>
<pdfrwt beam="1">  1        2 0.28601859E-01 0.20651757E+02</pdfrwt>
<pdfrwt beam="2">  1       -2 0.84632710E-03 0.20651757E+02</pdfrwt>
<totfact> 0.28970770E+05</totfact>
</mgrwt>
</event>
<event>
 4    1  0.7653521E+003  0.2363775E+02  0.7546771E-02  0.1681376E+00
         -2   -1    0    0    0  501 -0.00000000000E+00  0.00000000000E+00  0.65586783248E+01  0.65586783248E+01  0.00000000000E+00 0. -1.
          2   -1    0    0  501    0  0.00000000000E+00 -0.00000000000E+00 -0.20965483383E+03  0.20965483383E+03  0.00000000000E+00 0. -1.
          2    1    1    2  502    0 -0.30489763098E+00 -0.23635785979E+02 -0.18484351097E+03  0.18634877753E+03  0.00000000000E+00 0. -1.
         -2    1    1    2    0  502  0.30489763098E+00  0.23635785979E+02 -0.18252644539E+02  0.29864734622E+02  0.00000000000E+00 0. -1.
<mgrwt>
<rscale>  2 0.23637752E+02</rscale>
<asrwt>0</asrwt>
<pdfrwt beam="2">  1        2 0.32254586E-01 0.23637752E+02</pdfrwt>
<pdfrwt beam="1">  1       -2 0.10090275E-02 0.23637752E+02</pdfrwt>
<totfact> 0.21023615E+05</totfact>
</mgrwt>
</event>
<event>
 4    1  0.7653521E+003  0.2598335E+02  0.7546771E-02  0.1647267E+00
          2   -1    0    0  501    0  0.00000000000E+00  0.00000000000E+00  0.39197201374E+03  0.39197201374E+03  0.00000000000E+00 0. -1.
         -2   -1    0    0    0  501 -0.00000000000E+00 -0.00000000000E+00 -0.26263654696E+02  0.26263654696E+02  0.00000000000E+00 0. -1.
          2    1    1    2  502    0  0.10650274409E+02  0.23700341828E+02  0.38499863313E+03  0.38587443820E+03  0.00000000000E+00 0. -1.
         -2    1    1    2    0  502 -0.10650274409E+02 -0.23700341828E+02 -0.19290274086E+02  0.32361230231E+02  0.00000000000E+00 0. -1.
<mgrwt>
<rscale>  2 0.25983351E+02</rscale>
<asrwt>0</asrwt>
<pdfrwt beam="1">  1        2 0.60303383E-01 0.25983351E+02</pdfrwt>
<pdfrwt beam="2">  1       -2 0.40405625E-02 0.25983351E+02</pdfrwt>
<totfact> 0.17006893E+04</totfact>
</mgrwt>
</event>
<event>
 4    1  0.7653521E+003  0.2894167E+02  0.7546771E-02  0.1610091E+00
          2   -1    0    0  501    0  0.00000000000E+00  0.00000000000E+00  0.12862818584E+04  0.12862818584E+04  0.00000000000E+00 0.  1.
         -2   -1    0    0    0  501 -0.00000000000E+00 -0.00000000000E+00 -0.11916265831E+01  0.11916265831E+01  0.00000000000E+00 0. -1.
          2    1    1    2  502    0  0.28878690237E+02 -0.19083183601E+01  0.10760645107E+04  0.10764536458E+04  0.00000000000E+00 0.  1.
         -2    1    1    2    0  502 -0.28878690237E+02  0.19083183601E+01  0.20902572117E+03  0.21101983920E+03  0.00000000000E+00 0. -1.
<mgrwt>
<rscale>  2 0.28941673E+02</rscale>
<asrwt>0</asrwt>
<pdfrwt beam="1">  1        2 0.19788841E+00 0.28941673E+02</pdfrwt>
<pdfrwt beam="2">  1       -2 0.18332820E-03 0.28941673E+02</pdfrwt>
<totfact> 0.30250564E+05</totfact>
</mgrwt>
</event>
<event>
 4    1  0.7653521E+003  0.2162988E+02  0.7546771E-02  0.1714733E+00
         -2   -1    0    0    0  501 -0.00000000000E+00  0.00000000000E+00  0.79225453115E+03  0.79225453115E+03  0.00000000000E+00 0.  1.
          2   -1    0    0  501    0  0.00000000000E+00 -0.00000000000E+00 -0.65580556912E+00  0.65580556912E+00  0.00000000000E+00 0.  1.
          2    1    1    2  502    0 -0.19721916445E+02 -0.88824489408E+01  0.27072329232E+03  0.27158599540E+03  0.00000000000E+00 0.  1.
         -2    1    1    2    0  502  0.19721916445E+02  0.88824489408E+01  0.52087543326E+03  0.52132434133E+03  0.00000000000E+00 0.  1.
<mgrwt>
<rscale>  2 0.21629884E+02</rscale>
<asrwt>0</asrwt>
<pdfrwt beam="2">  1        2 0.10089380E-03 0.21629884E+02</pdfrwt>
<pdfrwt beam="1">  1       -2 0.12188455E+00 0.21629884E+02</pdfrwt>
<totfact> 0.11055759E+05</totfact>
</mgrwt>
</event>
<event>
 4    1  0.7653521E+003  0.2099643E+02  0.7546771E-02  0.1726209E+00
         -2   -1    0    0    0  501 -0.00000000000E+00  0.00000000000E+00  0.75199191261E+02  0.75199191261E+02  0.00000000000E+00 0. -1.
          2   -1    0    0  501    0  0.00000000000E+00 -0.00000000000E+00 -0.12527562015E+04  0.12527562015E+04  0.00000000000E+00 0. -1.
          2    1    1    2  502    0 -0.64563270004E+01 -0.19979137258E+02 -0.12512007958E+04  0.12513769542E+04  0.00000000000E+00 0. -1.
         -2    1    1    2    0  502  0.64563270004E+01  0.19979137258E+02  0.73643785618E+02  0.76578438507E+02  0.00000000000E+00 0. -1.
<mgrwt>
<rscale>  2 0.20996430E+02</rscale>
<asrwt>0</asrwt>
<pdfrwt beam="2">  1        2 0.19273174E+00 0.20996430E+02</pdfrwt>
<pdfrwt beam="1">  1       -2 0.11569105E-01 0.20996430E+02</pdfrwt>
<totfact> 0.98082001E+02</totfact>
</mgrwt>
</event>
<event>
 4    1  0.7653521E+003  0.6534274E+02  0.7546771E-02  0.1376687E+00
          2   -1    0    0  501    0  0.00000000000E+00  0.00000000000E+00  0.37102548748E+03  0.37102548748E+03  0.00000000000E+00 0. -1.
         -2   -1    0    0    0  501 -0.00000000000E+00 -0.00000000000E+00 -0.23836612897E+03  0.23836612897E+03  0.00000000000E+00 0. -1.
          2    1    1    2  502    0  0.32372329454E+02 -0.56760070304E+02  0.36357950435E+03  0.36940456045E+03  0.00000000000E+00 0. -1.
         -2    1    1    2    0  502 -0.32372329454E+02  0.56760070304E+02 -0.23092014584E+03  0.23998705601E+03  0.00000000000E+00 0. -1.
<mgrwt>
<rscale>  2 0.65342737E+02</rscale>
<asrwt>0</asrwt>
<pdfrwt beam="1">  1        2 0.57080844E-01 0.65342737E+02</pdfrwt>
<pdfrwt beam="2">  1       -2 0.36671712E-01 0.65342737E+02</pdfrwt>
<totfact> 0.60504584E+02</totfact>
</mgrwt>
</event>
<event>
 4    1  0.7653521E+003  0.3617073E+02  0.7546771E-02  0.1538443E+00
         -2   -1    0    0    0  501 -0.00000000000E+00  0.00000000000E+00  0.31347745849E+01  0.31347745849E+01  0.00000000000E+00 0.  1.
          2   -1    0    0  501    0  0.00000000000E+00 -0.00000000000E+00 -0.25557133334E+04  0.25557133334E+04  0.00000000000E+00 0. -1.
          2    1    1    2  502    0 -0.22127004966E+02 -0.28613242923E+02 -0.24465925510E+04  0.24468599128E+04  0.00000000000E+00 0. -1.
         -2    1    1    2    0  502  0.22127004966E+02  0.28613242923E+02 -0.10598600783E+03  0.11198819525E+03  0.00000000000E+00 0.  1.
<mgrwt>
<rscale>  2 0.36170734E+02</rscale>
<asrwt>0</asrwt>
<pdfrwt beam="2">  1        2 0.39318764E+00 0.36170734E+02</pdfrwt>
<pdfrwt beam="1">  1       -2 0.48227182E-03 0.36170734E+02</pdfrwt>
<totfact> 0.20682795E+04</totfact>
</mgrwt>
</event>
<event>
 4    1  0.7653521E+003  0.2505146E+02  0.7546771E-02  0.1660264E+00
          2   -1    0    0  501    0  0.00000000000E+00  0.00000000000E+00  0.15392567050E+04  0.15392567050E+04  0.00000000000E+00 0. -1.
         -2   -1    0    0    0  501 -0.00000000000E+00 -0.00000000000E+00 -0.42696515541E+00  0.42696515541E+00  0.00000000000E+00 0. -1.
          2    1    1    2  502    0 -0.23119958906E+02 -0.96458842757E+01  0.93288577576E+03  0.93322207765E+03  0.00000000000E+00 0. -1.
         -2    1    1    2    0  502  0.23119958906E+02  0.96458842757E+01  0.60594396411E+03  0.60646159254E+03  0.00000000000E+00 0. -1.
<mgrwt>
<rscale>  2 0.25051459E+02</rscale>
<asrwt>0</asrwt>
<pdfrwt beam="1">  1        2 0.23680428E+00 0.25051459E+02</pdfrwt>
<pdfrwt beam="2">  1       -2 0.65688180E-04 0.25051459E+02</pdfrwt>
<totfact> 0.85861541E+05</totfact>
</mgrwt>
</event>
<event>
 4    1  0.7653521E+003  0.2318510E+02  0.7546771E-02  0.1688527E+00
          2   -1    0    0  501    0  0.00000000000E+00  0.00000000000E+00  0.70347445165E+03  0.70347445165E+03  0.00000000000E+00 0. -1.
         -2   -1    0    0    0  501 -0.00000000000E+00 -0.00000000000E+00 -0.78832089369E+01  0.78832089369E+01  0.00000000000E+00 0.  1.
          2    1    1    2  502    0 -0.20478229506E+02  0.10871575152E+02  0.68579684179E+03  0.68618864552E+03  0.00000000000E+00 0. -1.
         -2    1    1    2    0  502  0.20478229506E+02 -0.10871575152E+02  0.97944009204E+01  0.25169015065E+02  0.00000000000E+00 0.  1.
<mgrwt>
<rscale>  2 0.23185104E+02</rscale>
<asrwt>0</asrwt>
<pdfrwt beam="1">  1        2 0.10822679E+00 0.23185104E+02</pdfrwt>
<pdfrwt beam="2">  1       -2 0.12128019E-02 0.23185104E+02</pdfrwt>
<totfact> 0.48187371E+04</totfact>
</mgrwt>
</event>
<event>
 4    1  0.7653521E+003  0.2199847E+02  0.7546771E-02  0.1708279E+00
          2   -1    0    0  501    0  0.00000000000E+00  0.00000000000E+00  0.42387619418E+00  0.42387619418E+00  0.00000000000E+00 0. -1.
         -2   -1    0    0    0  501 -0.00000000000E+00 -0.00000000000E+00 -0.11490909253E+04  0.11490909253E+04  0.00000000000E+00 0. -1.
          2    1    1    2  502    0 -0.21953223246E+02 -0.14099530317E+01 -0.62048377973E+03  0.62087362070E+03  0.00000000000E+00 0. -1.
         -2    1    1    2    0  502  0.21953223246E+02  0.14099530317E+01 -0.52818326942E+03  0.52864118083E+03  0.00000000000E+00 0. -1.
<mgrwt>
<rscale>  2 0.21998465E+02</rscale>
<asrwt>0</asrwt>
<pdfrwt beam="1">  1        2 0.65211189E-04 0.21998465E+02</pdfrwt>
<pdfrwt beam="2">  1       -2 0.17678467E+00 0.21998465E+02</pdfrwt>
<totfact> 0.79666744E+04</totfact>
</mgrwt>
</event>
<event>
 4    1  0.7653521E+003  0.3468391E+02  0.7546771E-02  0.1551426E+00
         -2   -1    0    0    0  501 -0.00000000000E+00  0.00000000000E+00  0.10290336919E+01  0.10290336919E+01  0.00000000000E+00 0.  1.
          2   -1    0    0  501    0  0.00000000000E+00 -0.00000000000E+00 -0.12268538363E+04  0.12268538363E+04  0.00000000000E+00 0.  1.
          2    1    1    2  502    0  0.49384703587E+01  0.34330523224E+02 -0.74619592759E+03  0.74700156337E+03  0.00000000000E+00 0.  1.
         -2    1    1    2    0  502 -0.49384703587E+01 -0.34330523224E+02 -0.47962887502E+03  0.48088130663E+03  0.00000000000E+00 0.  1.
<mgrwt>
<rscale>  2 0.34683906E+02</rscale>
<asrwt>0</asrwt>
<pdfrwt beam="2">  1        2 0.18874510E+00 0.34683906E+02</pdfrwt>
<pdfrwt beam="1">  1       -2 0.15831425E-03 0.34683906E+02</pdfrwt>
<totfact> 0.41076696E+05</totfact>
</mgrwt>
</event>
<event>
 4    1  0.7653521E+003  0.2278296E+02  0.7546771E-02  0.1695053E+00
         -2   -1    0    0    0  501 -0.00000000000E+00  0.00000000000E+00  0.12373974051E+03  0.12373974051E+03  0.00000000000E+00 0.  1.
          2   -1    0    0  501    0  0.00000000000E+00 -0.00000000000E+00 -0.56284524238E+01  0.56284524238E+01  0.00000000000E+00 0. -1.
          2    1    1    2  502    0 -0.12449200201E+02 -0.19080899676E+02  0.26410008261E+02  0.34879103406E+02  0.00000000000E+00 0. -1.
         -2    1    1    2    0  502  0.12449200201E+02  0.19080899676E+02  0.91701279822E+02  0.94489089524E+02  0.00000000000E+00 0.  1.
<mgrwt>
<rscale>  2 0.22782961E+02</rscale>
<asrwt>0</asrwt>
<pdfrwt beam="2">  1        2 0.86591585E-03 0.22782961E+02</pdfrwt>
<pdfrwt beam="1">  1       -2 0.19036881E-01 0.22782961E+02</pdfrwt>
<totfact> 0.23255203E+05</totfact>
</mgrwt>
</event>
<event>
 4    1  0.7653521E+003  0.2417148E+02  0.7546771E-02  0.1673196E+00
          2   -1    0    0  501    0  0.00000000000E+00  0.00000000000E+00  0.10541124005E+04  0.10541124005E+04  0.00000000000E+00 0.  1.
         -2   -1    0    0    0  501 -0.00000000000E+00 -0.00000000000E+00 -0.35910392184E+01  0.35910392184E+01  0.00000000000E+00 0. -1.
          2    1    1    2  502    0 -0.17980975512E+02 -0.16153786443E+02  0.10115893996E+04  0.10118781417E+04  0.00000000000E+00 0.  1.
         -2    1    1    2    0  502  0.17980975512E+02  0.16153786443E+02  0.38931961686E+02  0.45825298008E+02  0.00000000000E+00 0. -1.
<mgrwt>
<rscale>  2 0.24171477E+02</rscale>
<asrwt>0</asrwt>
<pdfrwt beam="1">  1        2 0.16217089E+00 0.24171477E+02</pdfrwt>
<pdfrwt beam="2">  1       -2 0.55246841E-03 0.24171477E+02</pdfrwt>
<totfact> 0.87343227E+04</totfact>
</mgrwt>
</event>
<event>
 4    1  0.7653521E+003  0.3057013E+02  0.7546771E-02  0.1591871E+00
         -2   -1    0    0    0  501 -0.00000000000E+00  0.00000000000E+00  0.87302260468E+00  0.87302260468E+00  0.00000000000E+00 0.  1.
          2   -1    0    0  501    0  0.00000000000E+00 -0.00000000000E+00 -0.21680735463E+04  0.21680735463E+04  0.00000000000E+00 0.  1.
          2    1    1    2  502    0 -0.19592335838E+02 -0.23466431281E+02 -0.18552268901E+04  0.18554787379E+04  0.00000000000E+00 0.  1.
         -2    1    1    2    0  502  0.19592335838E+02  0.23466431281E+02 -0.31197363352E+03  0.31346783094E+03  0.00000000000E+00 0.  1.
<mgrwt>
<rscale>  2 0.30570133E+02</rscale>
<asrwt>0</asrwt>
<pdfrwt beam="2">  1        2 0.33354629E+00 0.30570133E+02</pdfrwt>
<pdfrwt beam="1">  1       -2 0.13431257E-03 0.30570133E+02</pdfrwt>
<totfact> 0.17574622E+05</totfact>
</mgrwt>
</event>
<event>
 4    1  0.7653521E+003  0.2898397E+02  0.7546771E-02  0.1609599E+00
         -2   -1    0    0    0  501 -0.00000000000E+00  0.00000000000E+00  0.95691037715E+00  0.95691037715E+00  0.00000000000E+00 0. -1.
          2   -1    0    0  501    0  0.00000000000E+00 -0.00000000000E+00 -0.95416033757E+03  0.95416033757E+03  0.00000000000E+00 0. -1.
          2    1    1    2  502    0  0.12497738347E+02 -0.26151038163E+02 -0.61161279587E+03  0.61229917714E+03  0.00000000000E+00 0. -1.
         -2    1    1    2    0  502 -0.12497738347E+02  0.26151038163E+02 -0.34159063132E+03  0.34281807080E+03  0.00000000000E+00 0. -1.
<mgrwt>
<rscale>  2 0.28983966E+02</rscale>
<asrwt>0</asrwt>
<pdfrwt beam="2">  1        2 0.14679436E+00 0.28983966E+02</pdfrwt>
<pdfrwt beam="1">  1       -2 0.14721652E-03 0.28983966E+02</pdfrwt>
<totfact> 0.60593318E+05</totfact>
</mgrwt>
</event>
<event>
 4    1  0.7653521E+003  0.2455343E+02  0.7546771E-02  0.1667500E+00
          2   -1    0    0  501    0  0.00000000000E+00  0.00000000000E+00  0.29218203543E+03  0.29218203543E+03  0.00000000000E+00 0. -1.
         -2   -1    0    0    0  501 -0.00000000000E+00 -0.00000000000E+00 -0.24876610520E+02  0.24876610520E+02  0.00000000000E+00 0.  1.
          2    1    1    2  502    0 -0.15454216769E+02  0.19079785062E+02  0.28546529644E+03  0.28651929514E+03  0.00000000000E+00 0. -1.
         -2    1    1    2    0  502  0.15454216769E+02 -0.19079785062E+02 -0.18159871532E+02  0.30539350812E+02  0.00000000000E+00 0.  1.
<mgrwt>
<rscale>  2 0.24553432E+02</rscale>
<asrwt>0</asrwt>
<pdfrwt beam="1">  1        2 0.44951080E-01 0.24553432E+02</pdfrwt>
<pdfrwt beam="2">  1       -2 0.38271711E-02 0.24553432E+02</pdfrwt>
<totfact> 0.24329175E+04</totfact>
</mgrwt>
</event>
<event>
 4    1  0.7653521E+003  0.2695438E+02  0.7546771E-02  0.1634420E+00
          2   -1    0    0  501    0  0.00000000000E+00  0.00000000000E+00  0.16806090936E+03  0.16806090936E+03  0.00000000000E+00 0. -1.
         -2   -1    0    0    0  501 -0.00000000000E+00 -0.00000000000E+00 -0.64099826223E+01  0.64099826223E+01  0.00000000000E+00 0.  1.
          2    1    1    2  502    0  0.24070321140E+02  0.12130879436E+02  0.13060111906E+03  0.13335363098E+03  0.00000000000E+00 0. -1.
         -2    1    1    2    0  502 -0.24070321140E+02 -0.12130879436E+02  0.31049807685E+02  0.41117261010E+02  0.00000000000E+00 0.  1.
<mgrwt>
<rscale>  2 0.26954380E+02</rscale>
<asrwt>0</asrwt>
<pdfrwt beam="1">  1        2 0.25855521E-01 0.26954380E+02</pdfrwt>
<pdfrwt beam="2">  1       -2 0.98615130E-03 0.26954380E+02</pdfrwt>
<totfact> 0.28147147E+05</totfact>
</mgrwt>
</event>
<event>
 4    1  0.7653521E+003  0.2337681E+02  0.7546771E-02  0.1685474E+00
         -2   -1    0    0    0  501 -0.00000000000E+00  0.00000000000E+00  0.19886762209E+02  0.19886762209E+02  0.00000000000E+00 0.  1.
          2   -1    0    0  501    0  0.00000000000E+00 -0.00000000000E+00 -0.12797038416E+04  0.12797038416E+04  0.00000000000E+00 0. -1.
          2    1    1    2  502    0  0.36133963665E+01  0.23095859752E+02 -0.12726893849E+04  0.12729040600E+04  0.00000000000E+00 0. -1.
         -2    1    1    2    0  502 -0.36133963665E+01 -0.23095859752E+02  0.12872305555E+02  0.26686543824E+02  0.00000000000E+00 0.  1.
<mgrwt>
<rscale>  2 0.23376813E+02</rscale>
<asrwt>0</asrwt>
<pdfrwt beam="2">  1        2 0.19687756E+00 0.23376813E+02</pdfrwt>
<pdfrwt beam="1">  1       -2 0.30595011E-02 0.23376813E+02</pdfrwt>
<totfact> 0.64771453E+03</totfact>
</mgrwt>
</event>
<event>
 4    1  0.7653521E+003  0.2010327E+02  0.7546771E-02  0.1743282E+00
         -2   -1    0    0    0  501 -0.00000000000E+00  0.00000000000E+00  0.31246167493E+00  0.31246167493E+00  0.00000000000E+00 0. -1.
          2   -1    0    0  501    0  0.00000000000E+00 -0.00000000000E+00 -0.13767087700E+04  0.13767087700E+04  0.00000000000E+00 0. -1.
          2    1    1    2  502    0 -0.16323658809E+02 -0.11733690674E+02 -0.85755648700E+03  0.85779209004E+03  0.00000000000E+00 0. -1.
         -2    1    1    2    0  502  0.16323658809E+02  0.11733690674E+02 -0.51883982134E+03  0.51922914166E+03  0.00000000000E+00 0. -1.
<mgrwt>
<rscale>  2 0.20103267E+02</rscale>
<asrwt>0</asrwt>
<pdfrwt beam="2">  1        2 0.21180165E+00 0.20103267E+02</pdfrwt>
<pdfrwt beam="1">  1       -2 0.48070958E-04 0.20103267E+02</pdfrwt>
<totfact> 0.14474655E+06</totfact>
</mgrwt>
</event>
<event>
 4    1  0.7653521E+003  0.4036302E+02  0.7546771E-02  0.1505557E+00
          2   -1    0    0  501    0  0.00000000000E+00  0.00000000000E+00  0.21048046542E+04  0.21048046542E+04  0.00000000000E+00 0. -1.
         -2   -1    0    0    0  501 -0.00000000000E+00 -0.00000000000E+00 -0.34931771968E+01  0.34931771968E+01  0.00000000000E+00 0. -1.
          2    1    1    2  502    0  0.23601650864E+02 -0.32743481044E+02  0.19807101105E+04  0.19811213278E+04  0.00000000000E+00 0. -1.
         -2    1    1    2    0  502 -0.23601650864E+02  0.32743481044E+02  0.12060136650E+03  0.12717650363E+03  0.00000000000E+00 0. -1.
<mgrwt>
<rscale>  2 0.40363021E+02</rscale>
<asrwt>0</asrwt>
<pdfrwt beam="1">  1        2 0.32381509E+00 0.40363021E+02</pdfrwt>
<pdfrwt beam="2">  1       -2 0.53741356E-03 0.40363021E+02</pdfrwt>
<totfact> 0.30090026E+04</totfact>
</mgrwt>
</event>
<event>
 4    1  0.7653521E+003  0.2952345E+02  0.7546771E-02  0.1603417E+00
         -2   -1    0    0    0  501 -0.00000000000E+00  0.00000000000E+00  0.12749972170E+04  0.12749972170E+04  0.00000000000E+00 0. -1.
          2   -1    0    0  501    0  0.00000000000E+00 -0.00000000000E+00 -0.14882782531E+04  0.14882782531E+04  0.00000000000E+00 0.  1.
          2    1    1    2  502    0 -0.29486298934E+02  0.14806356642E+01 -0.14879608911E+04  0.14882537578E+04  0.00000000000E+00 0.  1.
         -2    1    1    2    0  502  0.29486298934E+02 -0.14806356642E+01  0.12746798550E+04  0.12750217124E+04  0.00000000000E+00 0. -1.
<mgrwt>
<rscale>  2 0.29523450E+02</rscale>
<asrwt>0</asrwt>
<pdfrwt beam="2">  1        2 0.22896588E+00 0.29523450E+02</pdfrwt>
<pdfrwt beam="1">  1       -2 0.19615342E+00 0.29523450E+02</pdfrwt>
<totfact> 0.29838989E+00</totfact>
</mgrwt>
</event>
<event>
 4    1  0.7653521E+003  0.2105265E+02  0.7546771E-02  0.1725170E+00
          2   -1    0    0  501    0  0.00000000000E+00  0.00000000000E+00  0.11006153550E+04  0.11006153550E+04  0.00000000000E+00 0.  1.
         -2   -1    0    0    0  501 -0.00000000000E+00 -0.00000000000E+00 -0.19673469524E+01  0.19673469524E+01  0.00000000000E+00 0. -1.
          2    1    1    2  502    0 -0.19717010368E+02 -0.73792645854E+01  0.10409664311E+04  0.10411792952E+04  0.00000000000E+00 0.  1.
         -2    1    1    2    0  502  0.19717010368E+02  0.73792645854E+01  0.57681576965E+02  0.61403406785E+02  0.00000000000E+00 0. -1.
<mgrwt>
<rscale>  2 0.21052649E+02</rscale>
<asrwt>0</asrwt>
<pdfrwt beam="1">  1        2 0.16932495E+00 0.21052649E+02</pdfrwt>
<pdfrwt beam="2">  1       -2 0.30266964E-03 0.21052649E+02</pdfrwt>
<totfact> 0.17895964E+05</totfact>
</mgrwt>
</event>
<event>
 4    1  0.7653521E+003  0.2256414E+02  0.7546771E-02  0.1698674E+00
         -2   -1    0    0    0  501 -0.00000000000E+00  0.00000000000E+00  0.17373927981E+01  0.17373927981E+01  0.00000000000E+00 0. -1.
          2   -1    0    0  501    0  0.00000000000E+00 -0.00000000000E+00 -0.44546530388E+03  0.44546530388E+03  0.00000000000E+00 0. -1.
          2    1    1    2  502    0  0.15522734732E+02 -0.16376355109E+02 -0.35265678803E+03  0.35337791448E+03  0.00000000000E+00 0. -1.
         -2    1    1    2    0  502 -0.15522734732E+02  0.16376355109E+02 -0.91071123057E+02  0.93824782201E+02  0.00000000000E+00 0. -1.
<mgrwt>
<rscale>  2 0.22564137E+02</rscale>
<asrwt>0</asrwt>
<pdfrwt beam="2">  1        2 0.68533148E-01 0.22564137E+02</pdfrwt>
<pdfrwt beam="1">  1       -2 0.26729110E-03 0.22564137E+02</pdfrwt>
<totfact> 0.58372601E+05</totfact>
</mgrwt>
</event>
<event>
 4    1  0.7653521E+003  0.2252068E+02  0.7546771E-02  0.1699400E+00
          2   -1    0    0  501    0  0.00000000000E+00  0.00000000000E+00  0.14990250090E+02  0.14990250090E+02  0.00000000000E+00 0. -1.
         -2   -1    0    0    0  501 -0.00000000000E+00 -0.00000000000E+00 -0.35573313189E+03  0.35573313189E+03  0.00000000000E+00 0.  1.
          2    1    1    2  502    0  0.17498124770E+02  0.14177330745E+02  0.59550986521E+01  0.23294726387E+02  0.00000000000E+00 0. -1.
         -2    1    1    2    0  502 -0.17498124770E+02 -0.14177330745E+02 -0.34669798045E+03  0.34742865559E+03  0.00000000000E+00 0.  1.
<mgrwt>
<rscale>  2 0.22520681E+02</rscale>
<asrwt>0</asrwt>
<pdfrwt beam="1">  1        2 0.23061923E-02 0.22520681E+02</pdfrwt>
<pdfrwt beam="2">  1       -2 0.54728174E-01 0.22520681E+02</pdfrwt>
<totfact> 0.10323700E+04</totfact>
</mgrwt>
</event>
<event>
 4    1  0.7653521E+003  0.3545443E+02  0.7546771E-02  0.1544602E+00
         -2   -1    0    0    0  501 -0.00000000000E+00  0.00000000000E+00  0.21328862239E+02  0.21328862239E+02  0.00000000000E+00 0.  1.
          2   -1    0    0  501    0  0.00000000000E+00 -0.00000000000E+00 -0.20810552169E+04  0.20810552169E+04  0.00000000000E+00 0.  1.
          2    1    1    2  502    0 -0.14083474477E+02  0.32537244669E+02 -0.20660635569E+04  0.20663677401E+04  0.00000000000E+00 0.  1.
         -2    1    1    2    0  502  0.14083474477E+02 -0.32537244669E+02  0.63372021806E+01  0.36016339007E+02  0.00000000000E+00 0.  1.
<mgrwt>
<rscale>  2 0.35454429E+02</rscale>
<asrwt>0</asrwt>
<pdfrwt beam="2">  1        2 0.32016221E+00 0.35454429E+02</pdfrwt>
<pdfrwt beam="1">  1       -2 0.32813648E-02 0.35454429E+02</pdfrwt>
<totfact> 0.24919964E+03</totfact>
</mgrwt>
</event>
<event>
 4    1  0.7653521E+003  0.4424314E+02  0.7546771E-02  0.1479123E+00
         -2   -1    0    0    0  501 -0.00000000000E+00  0.00000000000E+00  0.53269668485E+02  0.53269668485E+02  0.00000000000E+00 0. -1.
          2   -1    0    0  501    0  0.00000000000E+00 -0.00000000000E+00 -0.28206120079E+03  0.28206120079E+03  0.00000000000E+00 0. -1.
          2    1    1    2  502    0  0.30450481555E+02 -0.32097095431E+02 -0.27075875338E+03  0.27434970000E+03  0.00000000000E+00 0. -1.
         -2    1    1    2    0  502 -0.30450481555E+02  0.32097095431E+02  0.41967221068E+02  0.60981169275E+02  0.00000000000E+00 0. -1.
<mgrwt>
<rscale>  2 0.44243139E+02</rscale>
<asrwt>0</asrwt>
<pdfrwt beam="2">  1        2 0.43394031E-01 0.44243139E+02</pdfrwt>
<pdfrwt beam="1">  1       -2 0.81953335E-02 0.44243139E+02</pdfrwt>
<totfact> 0.90844193E+03</totfact>
</mgrwt>
</event>
<event>
 4    1  0.7653521E+003  0.2000504E+02  0.7546771E-02  0.1745228E+00
         -2   -1    0    0    0  501 -0.00000000000E+00  0.00000000000E+00  0.17524954157E+02  0.17524954157E+02  0.00000000000E+00 0.  1.
          2   -1    0    0  501    0  0.00000000000E+00 -0.00000000000E+00 -0.35833795540E+02  0.35833795540E+02  0.00000000000E+00 0.  1.
          2    1    1    2  502    0 -0.18520721251E+02 -0.75620402730E+01 -0.25222444194E+02  0.32192751667E+02  0.00000000000E+00 0.  1.
         -2    1    1    2    0  502  0.18520721251E+02  0.75620402730E+01  0.69136028110E+01  0.21165998030E+02  0.00000000000E+00 0.  1.
<mgrwt>
<rscale>  2 0.20005039E+02</rscale>
<asrwt>0</asrwt>
<pdfrwt beam="2">  1        2 0.55128917E-02 0.20005039E+02</pdfrwt>
<pdfrwt beam="1">  1       -2 0.26961468E-02 0.20005039E+02</pdfrwt>
<totfact> 0.37168712E+05</totfact>
</mgrwt>
</event>
<event>
 4    1  0.7653521E+003  0.2764072E+02  0.7546771E-02  0.1625734E+00
         -2   -1    0    0    0  501 -0.00000000000E+00  0.00000000000E+00  0.12768145084E+01  0.12768145084E+01  0.00000000000E+00 0.  1.
          2   -1    0    0  501    0  0.00000000000E+00 -0.00000000000E+00 -0.10539335865E+04  0.10539335865E+04  0.00000000000E+00 0.  1.
          2    1    1    2  502    0  0.25676137672E+02  0.10234530076E+02 -0.87320589581E+03  0.87364326022E+03  0.00000000000E+00 0.  1.
         -2    1    1    2    0  502 -0.25676137672E+02 -0.10234530076E+02 -0.17945087621E+03  0.18156714082E+03  0.00000000000E+00 0.  1.
<mgrwt>
<rscale>  2 0.27640725E+02</rscale>
<asrwt>0</asrwt>
<pdfrwt beam="2">  1        2 0.16214278E+00 0.27640725E+02</pdfrwt>
<pdfrwt beam="1">  1       -2 0.19643403E-03 0.27640725E+02</pdfrwt>
<totfact> 0.35934029E+05</totfact>
</mgrwt>
</event>
<event>
 4    1  0.7653521E+003  0.2208985E+02  0.7546771E-02  0.1706703E+00
         -2   -1    0    0    0  501 -0.00000000000E+00  0.00000000000E+00  0.83349742327E+03  0.83349742327E+03  0.00000000000E+00 0.  1.
          2   -1    0    0  501    0  0.00000000000E+00 -0.00000000000E+00 -0.11185387478E+01  0.11185387478E+01  0.00000000000E+00 0.  1.
          2    1    1    2  502    0  0.10908025621E+02  0.19208761751E+02  0.12809453437E+03  0.12998527334E+03  0.00000000000E+00 0.  1.
         -2    1    1    2    0  502 -0.10908025621E+02 -0.19208761751E+02  0.70428435016E+03  0.70463068868E+03  0.00000000000E+00 0.  1.
<mgrwt>
<rscale>  2 0.22089852E+02</rscale>
<asrwt>0</asrwt>
<pdfrwt beam="2">  1        2 0.17208355E-03 0.22089852E+02</pdfrwt>
<pdfrwt beam="1">  1       -2 0.12822988E+00 0.22089852E+02</pdfrwt>
<totfact> 0.49159575E+04</totfact>
</mgrwt>
</event>
<event>
 4    1  0.7653521E+003  0.3373153E+02  0.7546771E-02  0.1560162E+00
          2   -1    0    0  501    0  0.00000000000E+00  0.00000000000E+00  0.39333024190E+03  0.39333024190E+03  0.00000000000E+00 0.  1.
         -2   -1    0    0    0  501 -0.00000000000E+00 -0.00000000000E+00 -0.11365944060E+03  0.11365944060E+03  0.00000000000E+00 0.  1.
          2    1    1    2  502    0  0.33256758291E+02 -0.56395258343E+01  0.39008356937E+03  0.39153927940E+03  0.00000000000E+00 0.  1.
         -2    1    1    2    0  502 -0.33256758291E+02  0.56395258343E+01 -0.11041276807E+03  0.11545040310E+03  0.00000000000E+00 0.  1.
<mgrwt>
<rscale>  2 0.33731532E+02</rscale>
<asrwt>0</asrwt>
<pdfrwt beam="1">  1        2 0.60512344E-01 0.33731532E+02</pdfrwt>
<pdfrwt beam="2">  1       -2 0.17486068E-01 0.33731532E+02</pdfrwt>
<totfact> 0.19656361E+03</totfact>
</mgrwt>
</event>
<event>
 4    1  0.7653521E+003  0.3073665E+02  0.7546771E-02  0.1590086E+00
         -2   -1    0    0    0  501 -0.00000000000E+00  0.00000000000E+00  0.31343243300E+01  0.31343243300E+01  0.00000000000E+00 0. -1.
          2   -1    0    0  501    0  0.00000000000E+00 -0.00000000000E+00 -0.11475430036E+04  0.11475430036E+04  0.00000000000E+00 0.  1.
          2    1    1    2  502    0  0.28973546615E+02 -0.10260378124E+02 -0.10662377735E+04  0.10666807073E+04  0.00000000000E+00 0.  1.
         -2    1    1    2    0  502 -0.28973546615E+02  0.10260378124E+02 -0.78170905787E+02  0.83996620612E+02  0.00000000000E+00 0. -1.
<mgrwt>
<rscale>  2 0.30736652E+02</rscale>
<asrwt>0</asrwt>
<pdfrwt beam="2">  1        2 0.17654522E+00 0.30736652E+02</pdfrwt>
<pdfrwt beam="1">  1       -2 0.48220335E-03 0.30736652E+02</pdfrwt>
<totfact> 0.98140479E+04</totfact>
</mgrwt>
</event>
<event>
 4    1  0.7653521E+003  0.2154238E+02  0.7546771E-02  0.1716289E+00
         -2   -1    0    0    0  501 -0.00000000000E+00  0.00000000000E+00  0.42475799963E+01  0.42475799963E+01  0.00000000000E+00 0. -1.
          2   -1    0    0  501    0  0.00000000000E+00 -0.00000000000E+00 -0.16029166048E+03  0.16029166048E+03  0.00000000000E+00 0. -1.
          2    1    1    2  502    0  0.21539658426E+02 -0.34214635797E+00 -0.12444368766E+03  0.12629451828E+03  0.00000000000E+00 0. -1.
         -2    1    1    2    0  502 -0.21539658426E+02  0.34214635797E+00 -0.31600392824E+02  0.38244722196E+02  0.00000000000E+00 0. -1.
<mgrwt>
<rscale>  2 0.21542376E+02</rscale>
<asrwt>0</asrwt>
<pdfrwt beam="2">  1        2 0.24660258E-01 0.21542376E+02</pdfrwt>
<pdfrwt beam="1">  1       -2 0.65347379E-03 0.21542376E+02</pdfrwt>
<totfact> 0.48294029E+05</totfact>
</mgrwt>
</event>
<event>
 4    1  0.7653521E+003  0.2260961E+02  0.7546771E-02  0.1697917E+00
         -2   -1    0    0    0  501 -0.00000000000E+00  0.00000000000E+00  0.87668915549E+01  0.87668915549E+01  0.00000000000E+00 0. -1.
          2   -1    0    0  501    0  0.00000000000E+00 -0.00000000000E+00 -0.12696968793E+04  0.12696968793E+04  0.00000000000E+00 0.  1.
          2    1    1    2  502    0  0.20023965834E+02 -0.10499299972E+02 -0.12548463067E+04  0.12550499783E+04  0.00000000000E+00 0.  1.
         -2    1    1    2    0  502 -0.20023965834E+02  0.10499299972E+02 -0.60836810243E+01  0.23413792568E+02  0.00000000000E+00 0. -1.
<mgrwt>
<rscale>  2 0.22609611E+02</rscale>
<asrwt>0</asrwt>
<pdfrwt beam="2">  1        2 0.19533782E+00 0.22609611E+02</pdfrwt>
<pdfrwt beam="1">  1       -2 0.13487537E-02 0.22609611E+02</pdfrwt>
<totfact> 0.20099227E+04</totfact>
</mgrwt>
</event>
<event>
 4    1  0.7653521E+003  0.3098127E+02  0.7546771E-02  0.1587489E+00
          2   -1    0    0  501    0  0.00000000000E+00  0.00000000000E+00  0.52774155439E+03  0.52774155439E+03  0.00000000000E+00 0. -1.
         -2   -1    0    0    0  501 -0.00000000000E+00 -0.00000000000E+00 -0.53980815148E+01  0.53980815148E+01  0.00000000000E+00 0. -1.
          2    1    1    2  502    0 -0.69661763752E+01 -0.30187932396E+02  0.47823743113E+03  0.47923989756E+03  0.00000000000E+00 0. -1.
         -2    1    1    2    0  502  0.69661763752E+01  0.30187932396E+02  0.44106041745E+02  0.53899738348E+02  0.00000000000E+00 0. -1.
<mgrwt>
<rscale>  2 0.30981267E+02</rscale>
<asrwt>0</asrwt>
<pdfrwt beam="1">  1        2 0.81190967E-01 0.30981267E+02</pdfrwt>
<pdfrwt beam="2">  1       -2 0.83047450E-03 0.30981267E+02</pdfrwt>
<totfact> 0.11588004E+05</totfact>
</mgrwt>
</event>
<event>
 4    1  0.7653521E+003  0.2171702E+02  0.7546771E-02  0.1713192E+00
          2   -1    0    0  501    0  0.00000000000E+00  0.00000000000E+00  0.76616290598E+03  0.76616290598E+03  0.00000000000E+00 0. -1.
         -2   -1    0    0    0  501 -0.00000000000E+00 -0.00000000000E+00 -0.79077972726E+01  0.79077972726E+01  0.00000000000E+00 0.  1.
          2    1    1    2  502    0  0.12462193524E+02 -0.17785465050E+02  0.75079359949E+03  0.75110762083E+03  0.00000000000E+00 0. -1.
         -2    1    1    2    0  502 -0.12462193524E+02  0.17785465050E+02  0.74615092150E+01  0.22963082420E+02  0.00000000000E+00 0.  1.
<mgrwt>
<rscale>  2 0.21717022E+02</rscale>
<asrwt>0</asrwt>
<pdfrwt beam="1">  1        2 0.11787116E+00 0.21717022E+02</pdfrwt>
<pdfrwt beam="2">  1       -2 0.12165848E-02 0.21717022E+02</pdfrwt>
<totfact> 0.43147914E+04</totfact>
</mgrwt>
</event>
<event>
 4    1  0.7653521E+003  0.2437693E+02  0.7546771E-02  0.1670116E+00
         -2   -1    0    0    0  501 -0.00000000000E+00  0.00000000000E+00  0.48629951986E+02  0.48629951986E+02  0.00000000000E+00 0. -1.
          2   -1    0    0  501    0  0.00000000000E+00 -0.00000000000E+00 -0.29030959811E+02  0.29030959811E+02  0.00000000000E+00 0.  1.
          2    1    1    2  502    0  0.23502171763E+02  0.64716807069E+01 -0.19749602152E+02  0.31373261130E+02  0.00000000000E+00 0.  1.
         -2    1    1    2    0  502 -0.23502171763E+02 -0.64716807069E+01  0.39348594327E+02  0.46287650667E+02  0.00000000000E+00 0. -1.
<mgrwt>
<rscale>  2 0.24376930E+02</rscale>
<asrwt>0</asrwt>
<pdfrwt beam="2">  1        2 0.44663015E-02 0.24376930E+02</pdfrwt>
<pdfrwt beam="1">  1       -2 0.74815311E-02 0.24376930E+02</pdfrwt>
<totfact> 0.12030633E+05</totfact>
</mgrwt>
</event>
<event>
 4    1  0.7653521E+003  0.2568824E+02  0.7546771E-02  0.1651309E+00
         -2   -1    0    0    0  501 -0.00000000000E+00  0.00000000000E+00  0.41012178512E+03  0.41012178512E+03  0.00000000000E+00 0. -1.
          2   -1    0    0  501    0  0.00000000000E+00 -0.00000000000E+00 -0.10103371326E+04  0.10103371326E+04  0.00000000000E+00 0. -1.
          2    1    1    2  502    0  0.16599823942E+02 -0.19604372584E+02 -0.10097713740E+04  0.10100980711E+04  0.00000000000E+00 0. -1.
         -2    1    1    2    0  502 -0.16599823942E+02  0.19604372584E+02  0.40955602650E+03  0.41036084660E+03  0.00000000000E+00 0. -1.
<mgrwt>
<rscale>  2 0.25688238E+02</rscale>
<asrwt>0</asrwt>
<pdfrwt beam="2">  1        2 0.15543648E+00 0.25688238E+02</pdfrwt>
<pdfrwt beam="1">  1       -2 0.63095659E-01 0.25688238E+02</pdfrwt>
<totfact> 0.71625962E+01</totfact>
</mgrwt>
</event>
<event>
 4    1  0.7653521E+003  0.2281734E+02  0.7546771E-02  0.1694488E+00
          2   -1    0    0  501    0  0.00000000000E+00  0.00000000000E+00  0.10547427813E+04  0.10547427813E+04  0.00000000000E+00 0. -1.
         -2   -1    0    0    0  501 -0.00000000000E+00 -0.00000000000E+00 -0.47322777661E+02  0.47322777661E+02  0.00000000000E+00 0.  1.
          2    1    1    2  502    0  0.86269326148E+00 -0.22801025648E+02  0.10518614205E+04  0.10521088722E+04  0.00000000000E+00 0. -1.
         -2    1    1    2    0  502 -0.86269326148E+00  0.22801025648E+02 -0.44441416914E+02  0.49956686715E+02  0.00000000000E+00 0.  1.
<mgrwt>
<rscale>  2 0.22817340E+02</rscale>
<asrwt>0</asrwt>
<pdfrwt beam="1">  1        2 0.16226810E+00 0.22817340E+02</pdfrwt>
<pdfrwt beam="2">  1       -2 0.72804281E-02 0.22817340E+02</pdfrwt>
<totfact> 0.24590162E+03</totfact>
</mgrwt>
</event>
<event>
 4    1  0.7653521E+003  0.3022476E+02  0.7546771E-02  0.1595617E+00
          2   -1    0    0  501    0  0.00000000000E+00  0.00000000000E+00  0.14826293793E+03  0.14826293793E+03  0.00000000000E+00 0.  1.
         -2   -1    0    0    0  501 -0.00000000000E+00 -0.00000000000E+00 -0.19662217980E+03  0.19662217980E+03  0.00000000000E+00 0.  1.
          2    1    1    2  502    0 -0.87139082329E-01  0.30224630421E+02  0.14553949642E+03  0.14864481456E+03  0.00000000000E+00 0.  1.
         -2    1    1    2    0  502  0.87139082329E-01 -0.30224630421E+02 -0.19389873829E+03  0.19624030317E+03  0.00000000000E+00 0.  1.
<mgrwt>
<rscale>  2 0.30224756E+02</rscale>
<asrwt>0</asrwt>
<pdfrwt beam="1">  1        2 0.22809683E-01 0.30224756E+02</pdfrwt>
<pdfrwt beam="2">  1       -2 0.30249566E-01 0.30224756E+02</pdfrwt>
<totfact> 0.21133511E+03</totfact>
</mgrwt>
</event>
<event>
 4    1  0.7653521E+003  0.2490728E+02  0.7546771E-02  0.1662337E+00
         -2   -1    0    0    0  501 -0.00000000000E+00  0.00000000000E+00  0.20951169867E+01  0.20951169867E+01  0.00000000000E+00 0. -1.
          2   -1    0    0  501    0  0.00000000000E+00 -0.00000000000E+00 -0.34518455154E+03  0.34518455154E+03  0.00000000000E+00 0. -1.
          2    1    1    2  502    0  0.71666047684E+01 -0.23853981815E+02 -0.23702010565E+03  0.23832520461E+03  0.00000000000E+00 0. -1.
         -2    1    1    2    0  502 -0.71666047684E+01  0.23853981815E+02 -0.10606932890E+03  0.10895446391E+03  0.00000000000E+00 0. -1.
<mgrwt>
<rscale>  2 0.24907282E+02</rscale>
<asrwt>0</asrwt>
<pdfrwt beam="2">  1        2 0.53105296E-01 0.24907282E+02</pdfrwt>
<pdfrwt beam="1">  1       -2 0.32232581E-03 0.24907282E+02</pdfrwt>
<totfact> 0.60311377E+05</totfact>
</mgrwt>
</event>
<event>
 4    1  0.7653521E+003  0.2211216E+02  0.7546771E-02  0.1706319E+00
         -2   -1    0    0    0  501 -0.00000000000E+00  0.00000000000E+00  0.32703311472E+02  0.32703311472E+02  0.00000000000E+00 0.  1.
          2   -1    0    0  501    0  0.00000000000E+00 -0.00000000000E+00 -0.60010436687E+03  0.60010436687E+03  0.00000000000E+00 0.  1.
          2    1    1    2  502    0 -0.19789482126E+02 -0.98653039600E+01 -0.59613805934E+03  0.59654801451E+03  0.00000000000E+00 0.  1.
         -2    1    1    2    0  502  0.19789482126E+02  0.98653039600E+01  0.28737003945E+02  0.36259663826E+02  0.00000000000E+00 0.  1.
<mgrwt>
<rscale>  2 0.22112165E+02</rscale>
<asrwt>0</asrwt>
<pdfrwt beam="2">  1        2 0.92323744E-01 0.22112165E+02</pdfrwt>
<pdfrwt beam="1">  1       -2 0.50312789E-02 0.22112165E+02</pdfrwt>
<totfact> 0.79217474E+03</totfact>
</mgrwt>
</event>
<event>
 4    1  0.7653521E+003  0.2782187E+02  0.7546771E-02  0.1623493E+00
          2   -1    0    0  501    0  0.00000000000E+00  0.00000000000E+00  0.38162461271E+02  0.38162461271E+02  0.00000000000E+00 0.  1.
         -2   -1    0    0    0  501 -0.00000000000E+00 -0.00000000000E+00 -0.20648736644E+02  0.20648736644E+02  0.00000000000E+00 0.  1.
          2    1    1    2  502    0  0.23688768384E+02  0.14591045052E+02  0.12669380713E+02  0.30570730298E+02  0.00000000000E+00 0.  1.
         -2    1    1    2    0  502 -0.23688768384E+02 -0.14591045052E+02  0.48443439149E+01  0.28240467617E+02  0.00000000000E+00 0.  1.
<mgrwt>
<rscale>  2 0.27821868E+02</rscale>
<asrwt>0</asrwt>
<pdfrwt beam="1">  1        2 0.58711479E-02 0.27821868E+02</pdfrwt>
<pdfrwt beam="2">  1       -2 0.31767287E-02 0.27821868E+02</pdfrwt>
<totfact> 0.30238088E+05</totfact>
</mgrwt>
</event>
<event>
 4    1  0.7653521E+003  0.2877036E+02  0.7546771E-02  0.1612092E+00
          2   -1    0    0  501    0  0.00000000000E+00  0.00000000000E+00  0.19245247532E+04  0.19245247532E+04  0.00000000000E+00 0. -1.
         -2   -1    0    0    0  501 -0.00000000000E+00 -0.00000000000E+00 -0.81561517428E+01  0.81561517428E+01  0.00000000000E+00 0.  1.
          2    1    1    2  502    0  0.80897719326E+01  0.27609590041E+02  0.18987007150E+04  0.18989186763E+04  0.00000000000E+00 0. -1.
         -2    1    1    2    0  502 -0.80897719326E+01 -0.27609590041E+02  0.17667886388E+02  0.33762228622E+02  0.00000000000E+00 0.  1.
<mgrwt>
<rscale>  2 0.28770364E+02</rscale>
<asrwt>0</asrwt>
<pdfrwt beam="1">  1        2 0.29608037E+00 0.28770364E+02</pdfrwt>
<pdfrwt beam="2">  1       -2 0.12547941E-02 0.28770364E+02</pdfrwt>
<totfact> 0.11145085E+04</totfact>
</mgrwt>
</event>
<event>
 4    1  0.7653521E+003  0.2348164E+02  0.7546771E-02  0.1683820E+00
          2   -1    0    0  501    0  0.00000000000E+00  0.00000000000E+00  0.58623118460E+03  0.58623118460E+03  0.00000000000E+00 0. -1.
         -2   -1    0    0    0  501 -0.00000000000E+00 -0.00000000000E+00 -0.62765753462E+03  0.62765753462E+03  0.00000000000E+00 0. -1.
          2    1    1    2  502    0 -0.23134644119E+02 -0.40218686674E+01  0.58577625239E+03  0.58624671006E+03  0.00000000000E+00 0. -1.
         -2    1    1    2    0  502  0.23134644119E+02  0.40218686674E+01 -0.62720260241E+03  0.62764200916E+03  0.00000000000E+00 0. -1.
<mgrwt>
<rscale>  2 0.23481635E+02</rscale>
<asrwt>0</asrwt>
<pdfrwt beam="1">  1        2 0.90189413E-01 0.23481635E+02</pdfrwt>
<pdfrwt beam="2">  1       -2 0.96562697E-01 0.23481635E+02</pdfrwt>
<totfact> 0.54415699E+01</totfact>
</mgrwt>
</event>
<event>
 4    1  0.7653521E+003  0.5004621E+02  0.7546771E-02  0.1445092E+00
          2   -1    0    0  501    0  0.00000000000E+00  0.00000000000E+00  0.15997933073E+04  0.15997933073E+04  0.00000000000E+00 0. -1.
         -2   -1    0    0    0  501 -0.00000000000E+00 -0.00000000000E+00 -0.17370134369E+01  0.17370134369E+01  0.00000000000E+00 0. -1.
          2    1    1    2  502    0 -0.44691668506E+02  0.22522836590E+02  0.10505850885E+04  0.10517764266E+04  0.00000000000E+00 0. -1.
         -2    1    1    2    0  502  0.44691668506E+02 -0.22522836590E+02  0.54747120539E+03  0.54975389415E+03  0.00000000000E+00 0. -1.
<mgrwt>
<rscale>  2 0.50046213E+02</rscale>
<asrwt>0</asrwt>
<pdfrwt beam="1">  1        2 0.24612087E+00 0.50046213E+02</pdfrwt>
<pdfrwt beam="2">  1       -2 0.26723411E-03 0.50046213E+02</pdfrwt>
<totfact> 0.14120130E+05</totfact>
</mgrwt>
</event>
<event>
 4    1  0.7653521E+003  0.2415187E+02  0.7546771E-02  0.1673491E+00
         -2   -1    0    0    0  501 -0.00000000000E+00  0.00000000000E+00  0.10882124755E+02  0.10882124755E+02  0.00000000000E+00 0.  1.
          2   -1    0    0  501    0  0.00000000000E+00 -0.00000000000E+00 -0.19951497561E+03  0.19951497561E+03  0.00000000000E+00 0. -1.
          2    1    1    2  502    0 -0.31027935074E+01 -0.23951734396E+02 -0.18428020565E+03  0.18585614626E+03  0.00000000000E+00 0. -1.
         -2    1    1    2    0  502  0.31027935074E+01  0.23951734396E+02 -0.43526452041E+01  0.24540954105E+02  0.00000000000E+00 0.  1.
<mgrwt>
<rscale>  2 0.24151872E+02</rscale>
<asrwt>0</asrwt>
<pdfrwt beam="2">  1        2 0.30694613E-01 0.24151872E+02</pdfrwt>
<pdfrwt beam="1">  1       -2 0.16741729E-02 0.24151872E+02</pdfrwt>
<totfact> 0.11157467E+05</totfact>
</mgrwt>
</event>
<event>
 4    1  0.7653521E+003  0.2123108E+02  0.7546771E-02  0.1721900E+00
         -2   -1    0    0    0  501 -0.00000000000E+00  0.00000000000E+00  0.15009587646E+01  0.15009587646E+01  0.00000000000E+00 0. -1.
          2   -1    0    0  501    0  0.00000000000E+00 -0.00000000000E+00 -0.36954531953E+03  0.36954531953E+03  0.00000000000E+00 0. -1.
          2    1    1    2  502    0  0.37363363590E+01 -0.20899722825E+02 -0.26432229719E+03  0.26517359487E+03  0.00000000000E+00 0. -1.
         -2    1    1    2    0  502 -0.37363363590E+01  0.20899722825E+02 -0.10372206357E+03  0.10587268342E+03  0.00000000000E+00 0. -1.
<mgrwt>
<rscale>  2 0.21231077E+02</rscale>
<asrwt>0</asrwt>
<pdfrwt beam="2">  1        2 0.56853122E-01 0.21231077E+02</pdfrwt>
<pdfrwt beam="1">  1       -2 0.23091675E-03 0.21231077E+02</pdfrwt>
<totfact> 0.83603045E+05</totfact>
</mgrwt>
</event>
<event>
 4    1  0.7653521E+003  0.3240825E+02  0.7546771E-02  0.1572899E+00
         -2   -1    0    0    0  501 -0.00000000000E+00  0.00000000000E+00  0.80087154126E+01  0.80087154126E+01  0.00000000000E+00 0.  1.
          2   -1    0    0  501    0  0.00000000000E+00 -0.00000000000E+00 -0.29302036310E+03  0.29302036310E+03  0.00000000000E+00 0.  1.
          2    1    1    2  502    0 -0.31170520338E+02 -0.88709101234E+01 -0.25437781563E+03  0.25643394368E+03  0.00000000000E+00 0.  1.
         -2    1    1    2    0  502  0.31170520338E+02  0.88709101234E+01 -0.30633832058E+02  0.44595134837E+02  0.00000000000E+00 0.  1.
<mgrwt>
<rscale>  2 0.32408246E+02</rscale>
<asrwt>0</asrwt>
<pdfrwt beam="2">  1        2 0.45080062E-01 0.32408246E+02</pdfrwt>
<pdfrwt beam="1">  1       -2 0.12321099E-02 0.32408246E+02</pdfrwt>
<totfact> 0.12347022E+05</totfact>
</mgrwt>
</event>
<event>
 4    1  0.7653521E+003  0.2831015E+02  0.7546771E-02  0.1617556E+00
          2   -1    0    0  501    0  0.00000000000E+00  0.00000000000E+00  0.50183861364E+03  0.50183861364E+03  0.00000000000E+00 0. -1.
         -2   -1    0    0    0  501 -0.00000000000E+00 -0.00000000000E+00 -0.69466803920E+02  0.69466803920E+02  0.00000000000E+00 0. -1.
          2    1    1    2  502    0  0.26292038023E+02  0.10497310958E+02  0.49853591200E+03  0.49933908355E+03  0.00000000000E+00 0. -1.
         -2    1    1    2    0  502 -0.26292038023E+02 -0.10497310958E+02 -0.66164102282E+02  0.71966334014E+02  0.00000000000E+00 0. -1.
<mgrwt>
<rscale>  2 0.28310154E+02</rscale>
<asrwt>0</asrwt>
<pdfrwt beam="1">  1        2 0.77205938E-01 0.28310154E+02</pdfrwt>
<pdfrwt beam="2">  1       -2 0.10687201E-01 0.28310154E+02</pdfrwt>
<totfact> 0.32545989E+03</totfact>
</mgrwt>
</event>
<event>
 4    1  0.7653521E+003  0.2085224E+02  0.7546771E-02  0.1728893E+00
         -2   -1    0    0    0  501 -0.00000000000E+00  0.00000000000E+00  0.27704205843E+01  0.27704205843E+01  0.00000000000E+00 0. -1.
          2   -1    0    0  501    0  0.00000000000E+00 -0.00000000000E+00 -0.13986857973E+04  0.13986857973E+04  0.00000000000E+00 0.  1.
          2    1    1    2  502    0 -0.90169752267E+01 -0.18801864711E+02 -0.13582012202E+04  0.13583612813E+04  0.00000000000E+00 0.  1.
         -2    1    1    2    0  502  0.90169752267E+01  0.18801864711E+02 -0.37714156571E+02  0.43094936648E+02  0.00000000000E+00 0. -1.
<mgrwt>
<rscale>  2 0.20852241E+02</rscale>
<asrwt>0</asrwt>
<pdfrwt beam="2">  1        2 0.21518272E+00 0.20852241E+02</pdfrwt>
<pdfrwt beam="1">  1       -2 0.42621798E-03 0.20852241E+02</pdfrwt>
<totfact> 0.80809104E+04</totfact>
</mgrwt>
</event>
<event>
 4    1  0.7653521E+003  0.2300206E+02  0.7546771E-02  0.1691477E+00
         -2   -1    0    0    0  501 -0.00000000000E+00  0.00000000000E+00  0.27134359252E+00  0.27134359252E+00  0.00000000000E+00 0.  1.
          2   -1    0    0  501    0  0.00000000000E+00 -0.00000000000E+00 -0.22631715050E+04  0.22631715050E+04  0.00000000000E+00 0.  1.
          2    1    1    2  502    0  0.22848377867E+02  0.26545032237E+01 -0.15525027543E+04  0.15526731455E+04  0.00000000000E+00 0.  1.
         -2    1    1    2    0  502 -0.22848377867E+02 -0.26545032237E+01 -0.71039740716E+03  0.71076970311E+03  0.00000000000E+00 0.  1.
<mgrwt>
<rscale>  2 0.23002060E+02</rscale>
<asrwt>0</asrwt>
<pdfrwt beam="2">  1        2 0.34818081E+00 0.23002060E+02</pdfrwt>
<pdfrwt beam="1">  1       -2 0.41745099E-04 0.23002060E+02</pdfrwt>
<totfact> 0.69869382E+05</totfact>
</mgrwt>
</event>
<event>
 4    1  0.7653521E+003  0.2186015E+02  0.7546771E-02  0.1710682E+00
         -2   -1    0    0    0  501 -0.00000000000E+00  0.00000000000E+00  0.29230071105E+02  0.29230071105E+02  0.00000000000E+00 0. -1.
          2   -1    0    0  501    0  0.00000000000E+00 -0.00000000000E+00 -0.57928080584E+02  0.57928080584E+02  0.00000000000E+00 0.  1.
          2    1    1    2  502    0  0.21200615263E+02 -0.53291635223E+01 -0.51270034975E+02  0.55735828313E+02  0.00000000000E+00 0.  1.
         -2    1    1    2    0  502 -0.21200615263E+02  0.53291635223E+01  0.22572025496E+02  0.31422323377E+02  0.00000000000E+00 0. -1.
<mgrwt>
<rscale>  2 0.21860148E+02</rscale>
<asrwt>0</asrwt>
<pdfrwt beam="2">  1        2 0.89120123E-02 0.21860148E+02</pdfrwt>
<pdfrwt beam="1">  1       -2 0.44969341E-02 0.21860148E+02</pdfrwt>
<totfact> 0.10581702E+05</totfact>
</mgrwt>
</event>
<event>
 4    1  0.7653521E+003  0.2346977E+02  0.7546771E-02  0.1684007E+00
          2   -1    0    0  501    0  0.00000000000E+00  0.00000000000E+00  0.35705622952E+03  0.35705622952E+03  0.00000000000E+00 0. -1.
         -2   -1    0    0    0  501 -0.00000000000E+00 -0.00000000000E+00 -0.47971820737E+02  0.47971820737E+02  0.00000000000E+00 0.  1.
          2    1    1    2  502    0  0.19921389564E+02  0.12408395061E+02  0.35377335461E+03  0.35455100686E+03  0.00000000000E+00 0. -1.
         -2    1    1    2    0  502 -0.19921389564E+02 -0.12408395061E+02 -0.44688945834E+02  0.50477043395E+02  0.00000000000E+00 0.  1.
<mgrwt>
<rscale>  2 0.23469768E+02</rscale>
<asrwt>0</asrwt>
<pdfrwt beam="1">  1        2 0.54931726E-01 0.23469768E+02</pdfrwt>
<pdfrwt beam="2">  1       -2 0.73802804E-02 0.23469768E+02</pdfrwt>
<totfact> 0.77574552E+03</totfact>
</mgrwt>
</event>
<event>
 4    1  0.7653521E+003  0.2007212E+02  0.7546771E-02  0.1743898E+00
          2   -1    0    0  501    0  0.00000000000E+00  0.00000000000E+00  0.12921798158E+03  0.12921798158E+03  0.00000000000E+00 0. -1.
         -2   -1    0    0    0  501 -0.00000000000E+00 -0.00000000000E+00 -0.84482360407E+02  0.84482360407E+02  0.00000000000E+00 0.  1.
          2    1    1    2  502    0  0.14104806114E+02 -0.14280906628E+02  0.12722773813E+03  0.12880134782E+03  0.00000000000E+00 0. -1.
         -2    1    1    2    0  502 -0.14104806114E+02  0.14280906628E+02 -0.82492116961E+02  0.84898994166E+02  0.00000000000E+00 0.  1.
<mgrwt>
<rscale>  2 0.20072116E+02</rscale>
<asrwt>0</asrwt>
<pdfrwt beam="1">  1        2 0.19879689E-01 0.20072116E+02</pdfrwt>
<pdfrwt beam="2">  1       -2 0.12997286E-01 0.20072116E+02</pdfrwt>
<totfact> 0.91061198E+03</totfact>
</mgrwt>
</event>
<event>
 4    1  0.7653521E+003  0.2276261E+02  0.7546771E-02  0.1695387E+00
          2   -1    0    0  501    0  0.00000000000E+00  0.00000000000E+00  0.13758571332E+04  0.13758571332E+04  0.00000000000E+00 0.  1.
         -2   -1    0    0    0  501 -0.00000000000E+00 -0.00000000000E+00 -0.37805916220E+00  0.37805916220E+00  0.00000000000E+00 0. -1.
          2    1    1    2  502    0  0.21073053452E+02  0.86059368359E+01  0.64486141834E+03  0.64526303520E+03  0.00000000000E+00 0. -1.
         -2    1    1    2    0  502 -0.21073053452E+02 -0.86059368359E+01  0.73061765571E+03  0.73097215718E+03  0.00000000000E+00 0.  1.
<mgrwt>
<rscale>  2 0.22762606E+02</rscale>
<asrwt>0</asrwt>
<pdfrwt beam="1">  1        2 0.21166632E+00 0.22762606E+02</pdfrwt>
<pdfrwt beam="2">  1       -2 0.58164050E-04 0.22762606E+02</pdfrwt>
<totfact> 0.11730321E+06</totfact>
</mgrwt>
</event>
<event>
 4    1  0.7653521E+003  0.2144149E+02  0.7546771E-02  0.1718094E+00
          2   -1    0    0  501    0  0.00000000000E+00  0.00000000000E+00  0.18646408551E+03  0.18646408551E+03  0.00000000000E+00 0. -1.
         -2   -1    0    0    0  501 -0.00000000000E+00 -0.00000000000E+00 -0.31493009555E+02  0.31493009555E+02  0.00000000000E+00 0.  1.
          2    1    1    2  502    0 -0.16071472533E+02  0.14193145000E+02  0.18211124463E+03  0.18336914412E+03  0.00000000000E+00 0. -1.
         -2    1    1    2    0  502  0.16071472533E+02 -0.14193145000E+02 -0.27140168679E+02  0.34587950941E+02  0.00000000000E+00 0.  1.
<mgrwt>
<rscale>  2 0.21441492E+02</rscale>
<asrwt>0</asrwt>
<pdfrwt beam="1">  1        2 0.28686782E-01 0.21441492E+02</pdfrwt>
<pdfrwt beam="2">  1       -2 0.48450785E-02 0.21441492E+02</pdfrwt>
<totfact> 0.26638769E+04</totfact>
</mgrwt>
</event>
<event>
 4    1  0.7653521E+003  0.4376876E+02  0.7546771E-02  0.1482178E+00
         -2   -1    0    0    0  501 -0.00000000000E+00  0.00000000000E+00  0.80279215277E+01  0.80279215277E+01  0.00000000000E+00 0.  1.
          2   -1    0    0  501    0  0.00000000000E+00 -0.00000000000E+00 -0.12920980317E+04  0.12920980317E+04  0.00000000000E+00 0. -1.
          2    1    1    2  502    0  0.61689858259E+01 -0.43331835951E+02 -0.12290083491E+04  0.12297874721E+04  0.00000000000E+00 0. -1.
         -2    1    1    2    0  502 -0.61689858259E+01  0.43331835951E+02 -0.55061761039E+02  0.70338481087E+02  0.00000000000E+00 0.  1.
<mgrwt>
<rscale>  2 0.43768760E+02</rscale>
<asrwt>0</asrwt>
<pdfrwt beam="2">  1        2 0.19878416E+00 0.43768760E+02</pdfrwt>
<pdfrwt beam="1">  1       -2 0.12350658E-02 0.43768760E+02</pdfrwt>
<totfact> 0.23989534E+04</totfact>
</mgrwt>
</event>
<event>
 4    1  0.7653521E+003  0.2256510E+02  0.7546771E-02  0.1698658E+00
          2   -1    0    0  501    0  0.00000000000E+00  0.00000000000E+00  0.12130661174E+04  0.12130661174E+04  0.00000000000E+00 0. -1.
         -2   -1    0    0    0  501 -0.00000000000E+00 -0.00000000000E+00 -0.42400555316E+00  0.42400555316E+00  0.00000000000E+00 0.  1.
          2    1    1    2  502    0 -0.81684591290E+01  0.21034717466E+02  0.54552729289E+03  0.54599378234E+03  0.00000000000E+00 0. -1.
         -2    1    1    2    0  502  0.81684591290E+01 -0.21034717466E+02  0.66711481898E+03  0.66749634064E+03  0.00000000000E+00 0.  1.
<mgrwt>
<rscale>  2 0.22565096E+02</rscale>
<asrwt>0</asrwt>
<pdfrwt beam="1">  1        2 0.18662278E+00 0.22565096E+02</pdfrwt>
<pdfrwt beam="2">  1       -2 0.65232595E-04 0.22565096E+02</pdfrwt>
<totfact> 0.12088315E+06</totfact>
</mgrwt>
</event>
<event>
 4    1  0.7653521E+003  0.2039494E+02  0.7546771E-02  0.1737586E+00
          2   -1    0    0  501    0  0.00000000000E+00  0.00000000000E+00  0.15621501432E+02  0.15621501432E+02  0.00000000000E+00 0. -1.
         -2   -1    0    0    0  501 -0.00000000000E+00 -0.00000000000E+00 -0.16669184275E+03  0.16669184275E+03  0.00000000000E+00 0.  1.
          2    1    1    2  502    0  0.66394562332E+01  0.19283963774E+02  0.80243355648E+01  0.21916742440E+02  0.00000000000E+00 0. -1.
         -2    1    1    2    0  502 -0.66394562332E+01 -0.19283963774E+02 -0.15909467689E+03  0.16039660175E+03  0.00000000000E+00 0.  1.
<mgrwt>
<rscale>  2 0.20394941E+02</rscale>
<asrwt>0</asrwt>
<pdfrwt beam="1">  1        2 0.24033079E-02 0.20394941E+02</pdfrwt>
<pdfrwt beam="2">  1       -2 0.25644899E-01 0.20394941E+02</pdfrwt>
<totfact> 0.37286121E+04</totfact>
</mgrwt>
</event>
<event>
 4    1  0.7653521E+003  0.3658932E+02  0.7546771E-02  0.1534924E+00
         -2   -1    0    0    0  501 -0.00000000000E+00  0.00000000000E+00  0.15632422399E+02  0.15632422399E+02  0.00000000000E+00 0.  1.
          2   -1    0    0  501    0  0.00000000000E+00 -0.00000000000E+00 -0.49202698978E+03  0.49202698978E+03  0.00000000000E+00 0. -1.
          2    1    1    2  502    0 -0.26845650490E+02 -0.24861406894E+02 -0.46888117650E+03  0.47030664059E+03  0.00000000000E+00 0. -1.
         -2    1    1    2    0  502  0.26845650490E+02  0.24861406894E+02 -0.75133908781E+01  0.37352771590E+02  0.00000000000E+00 0.  1.
<mgrwt>
<rscale>  2 0.36589322E+02</rscale>
<asrwt>0</asrwt>
<pdfrwt beam="2">  1        2 0.75696437E-01 0.36589322E+02</pdfrwt>
<pdfrwt beam="1">  1       -2 0.24049888E-02 0.36589322E+02</pdfrwt>
<totfact> 0.29550187E+04</totfact>
</mgrwt>
</event>
<event>
 4    1  0.7653521E+003  0.2238732E+02  0.7546771E-02  0.1701638E+00
         -2   -1    0    0    0  501 -0.00000000000E+00  0.00000000000E+00  0.29162037074E+01  0.29162037074E+01  0.00000000000E+00 0. -1.
          2   -1    0    0  501    0  0.00000000000E+00 -0.00000000000E+00 -0.23855324013E+03  0.23855324013E+03  0.00000000000E+00 0.  1.
          2    1    1    2  502    0  0.22247104188E+01  0.22276506035E+02 -0.18165450820E+03  0.18302882944E+03  0.00000000000E+00 0.  1.
         -2    1    1    2    0  502 -0.22247104188E+01 -0.22276506035E+02 -0.53982528220E+02  0.58440614392E+02  0.00000000000E+00 0. -1.
<mgrwt>
<rscale>  2 0.22387319E+02</rscale>
<asrwt>0</asrwt>
<pdfrwt beam="2">  1        2 0.36700509E-01 0.22387319E+02</pdfrwt>
<pdfrwt beam="1">  1       -2 0.44864659E-03 0.22387319E+02</pdfrwt>
<totfact> 0.54087483E+05</totfact>
</mgrwt>
</event>
<event>
 4    1  0.7653521E+003  0.2383853E+02  0.7546771E-02  0.1678268E+00
         -2   -1    0    0    0  501 -0.00000000000E+00  0.00000000000E+00  0.43872729995E+00  0.43872729995E+00  0.00000000000E+00 0. -1.
          2   -1    0    0  501    0  0.00000000000E+00 -0.00000000000E+00 -0.21336733324E+04  0.21336733324E+04  0.00000000000E+00 0.  1.
          2    1    1    2  502    0  0.22677386544E+02 -0.73492612009E+01 -0.17354949658E+04  0.17356586795E+04  0.00000000000E+00 0.  1.
         -2    1    1    2    0  502 -0.22677386544E+02  0.73492612009E+01 -0.39773963933E+03  0.39845338020E+03  0.00000000000E+00 0. -1.
<mgrwt>
<rscale>  2 0.23838530E+02</rscale>
<asrwt>0</asrwt>
<pdfrwt beam="2">  1        2 0.32824841E+00 0.23838530E+02</pdfrwt>
<pdfrwt beam="1">  1       -2 0.67498364E-04 0.23838530E+02</pdfrwt>
<totfact> 0.43153674E+05</totfact>
</mgrwt>
</event>
<event>
 4    1  0.7653521E+003  0.2061870E+02  0.7546771E-02  0.1733297E+00
          2   -1    0    0  501    0  0.00000000000E+00  0.00000000000E+00  0.52406868017E+03  0.52406868017E+03  0.00000000000E+00 0. -1.
         -2   -1    0    0    0  501 -0.00000000000E+00 -0.00000000000E+00 -0.93755692711E+02  0.93755692711E+02  0.00000000000E+00 0.  1.
          2    1    1    2  502    0  0.19264848034E+02  0.73482133547E+01  0.52272936110E+03  0.52313584809E+03  0.00000000000E+00 0. -1.
         -2    1    1    2    0  502 -0.19264848034E+02 -0.73482133547E+01 -0.92416373639E+02  0.94688524784E+02  0.00000000000E+00 0.  1.
<mgrwt>
<rscale>  2 0.20618696E+02</rscale>
<asrwt>0</asrwt>
<pdfrwt beam="1">  1        2 0.80625949E-01 0.20618696E+02</pdfrwt>
<pdfrwt beam="2">  1       -2 0.14423953E-01 0.20618696E+02</pdfrwt>
<totfact> 0.19210941E+03</totfact>
</mgrwt>
</event>
<event>
 4    1  0.7653521E+003  0.2061217E+02  0.7546771E-02  0.1733421E+00
          2   -1    0    0  501    0  0.00000000000E+00  0.00000000000E+00  0.11164025679E+04  0.11164025679E+04  0.00000000000E+00 0.  1.
         -2   -1    0    0    0  501 -0.00000000000E+00 -0.00000000000E+00 -0.16576219125E+02  0.16576219125E+02  0.00000000000E+00 0. -1.
          2    1    1    2  502    0  0.82125854496E+01 -0.18905422912E+02  0.11098619716E+04  0.11100533580E+04  0.00000000000E+00 0.  1.
         -2    1    1    2    0  502 -0.82125854496E+01  0.18905422912E+02 -0.10035622762E+02  0.22925429101E+02  0.00000000000E+00 0. -1.
<mgrwt>
<rscale>  2 0.20612171E+02</rscale>
<asrwt>0</asrwt>
<pdfrwt beam="1">  1        2 0.17175418E+00 0.20612171E+02</pdfrwt>
<pdfrwt beam="2">  1       -2 0.25501884E-02 0.20612171E+02</pdfrwt>
<totfact> 0.99244946E+03</totfact>
</mgrwt>
</event>
<event>
 4    1  0.7653521E+003  0.2608548E+02  0.7546771E-02  0.1645883E+00
          2   -1    0    0  501    0  0.00000000000E+00  0.00000000000E+00  0.39879524606E+03  0.39879524606E+03  0.00000000000E+00 0. -1.
         -2   -1    0    0    0  501 -0.00000000000E+00 -0.00000000000E+00 -0.48938058445E+02  0.48938058445E+02  0.00000000000E+00 0. -1.
          2    1    1    2  502    0  0.25368975037E+02  0.60718344286E+01  0.39485796668E+03  0.39571867017E+03  0.00000000000E+00 0. -1.
         -2    1    1    2    0  502 -0.25368975037E+02 -0.60718344286E+01 -0.45000779071E+02  0.52014634333E+02  0.00000000000E+00 0. -1.
<mgrwt>
<rscale>  2 0.26085476E+02</rscale>
<asrwt>0</asrwt>
<pdfrwt beam="1">  1        2 0.61353113E-01 0.26085476E+02</pdfrwt>
<pdfrwt beam="2">  1       -2 0.75289323E-02 0.26085476E+02</pdfrwt>
<totfact> 0.68443987E+03</totfact>
</mgrwt>
</event>
<event>
 4    1  0.7653521E+003  0.2151997E+02  0.7546771E-02  0.1716688E+00
          2   -1    0    0  501    0  0.00000000000E+00  0.00000000000E+00  0.20616273098E+03  0.20616273098E+03  0.00000000000E+00 0.  1.
         -2   -1    0    0    0  501 -0.00000000000E+00 -0.00000000000E+00 -0.64387360417E+01  0.64387360417E+01  0.00000000000E+00 0.  1.
          2    1    1    2  502    0 -0.21387829858E+02 -0.23811798894E+01  0.18563837097E+03  0.18688155088E+03  0.00000000000E+00 0.  1.
         -2    1    1    2    0  502  0.21387829858E+02  0.23811798894E+01  0.14085623970E+02  0.25719916142E+02  0.00000000000E+00 0.  1.
<mgrwt>
<rscale>  2 0.21519974E+02</rscale>
<asrwt>0</asrwt>
<pdfrwt beam="1">  1        2 0.31717338E-01 0.21519974E+02</pdfrwt>
<pdfrwt beam="2">  1       -2 0.99057493E-03 0.21519974E+02</pdfrwt>
<totfact> 0.21370330E+05</totfact>
</mgrwt>
</event>
<event>
 4    1  0.7653521E+003  0.2545072E+02  0.7546771E-02  0.1654611E+00
         -2   -1    0    0    0  501 -0.00000000000E+00  0.00000000000E+00  0.37221586009E+03  0.37221586009E+03  0.00000000000E+00 0. -1.
          2   -1    0    0  501    0  0.00000000000E+00 -0.00000000000E+00 -0.68550665328E+01  0.68550665328E+01  0.00000000000E+00 0. -1.
          2    1    1    2  502    0  0.25238416311E+02  0.32805072049E+01  0.18960775633E+02  0.31737208416E+02  0.00000000000E+00 0. -1.
         -2    1    1    2    0  502 -0.25238416311E+02 -0.32805072049E+01  0.34640001792E+03  0.34733371821E+03  0.00000000000E+00 0. -1.
<mgrwt>
<rscale>  2 0.25450725E+02</rscale>
<asrwt>0</asrwt>
<pdfrwt beam="2">  1        2 0.10546259E-02 0.25450725E+02</pdfrwt>
<pdfrwt beam="1">  1       -2 0.57263963E-01 0.25450725E+02</pdfrwt>
<totfact> 0.26643737E+04</totfact>
</mgrwt>
</event>
<event>
 4    1  0.7653521E+003  0.2189615E+02  0.7546771E-02  0.1710054E+00
         -2   -1    0    0    0  501 -0.00000000000E+00  0.00000000000E+00  0.50438462870E+03  0.50438462870E+03  0.00000000000E+00 0.  1.
          2   -1    0    0  501    0  0.00000000000E+00 -0.00000000000E+00 -0.95860300682E+00  0.95860300682E+00  0.00000000000E+00 0. -1.
          2    1    1    2  502    0 -0.14018655783E+02  0.16820176016E+02  0.27487688236E+03  0.27574760469E+03  0.00000000000E+00 0.  1.
         -2    1    1    2    0  502  0.14018655783E+02 -0.16820176016E+02  0.22854914333E+03  0.22959562702E+03  0.00000000000E+00 0. -1.
<mgrwt>
<rscale>  2 0.21896153E+02</rscale>
<asrwt>0</asrwt>
<pdfrwt beam="2">  1        2 0.14747779E-03 0.21896153E+02</pdfrwt>
<pdfrwt beam="1">  1       -2 0.77597423E-01 0.21896153E+02</pdfrwt>
<totfact> 0.18271807E+05</totfact>
</mgrwt>
</event>
<event>
 4    1  0.7653521E+003  0.2614778E+02  0.7546771E-02  0.1645043E+00
         -2   -1    0    0    0  501 -0.00000000000E+00  0.00000000000E+00  0.38997523136E+03  0.38997523136E+03  0.00000000000E+00 0.  1.
          2   -1    0    0  501    0  0.00000000000E+00 -0.00000000000E+00 -0.96481261836E+01  0.96481261836E+01  0.00000000000E+00 0.  1.
          2    1    1    2  502    0  0.21409680953E+02 -0.15011062413E+02  0.94156413724E+01  0.27791378803E+02  0.00000000000E+00 0.  1.
         -2    1    1    2    0  502 -0.21409680953E+02  0.15011062413E+02  0.37091146380E+03  0.37183197874E+03  0.00000000000E+00 0.  1.
<mgrwt>
<rscale>  2 0.26147781E+02</rscale>
<asrwt>0</asrwt>
<pdfrwt beam="2">  1        2 0.14843274E-02 0.26147781E+02</pdfrwt>
<pdfrwt beam="1">  1       -2 0.59996177E-01 0.26147781E+02</pdfrwt>
<totfact> 0.15658332E+04</totfact>
</mgrwt>
</event>
<event>
 4    1  0.7653521E+003  0.3284398E+02  0.7546771E-02  0.1568625E+00
          2   -1    0    0  501    0  0.00000000000E+00  0.00000000000E+00  0.40290626713E+02  0.40290626713E+02  0.00000000000E+00 0. -1.
         -2   -1    0    0    0  501 -0.00000000000E+00 -0.00000000000E+00 -0.52849899202E+02  0.52849899202E+02  0.00000000000E+00 0. -1.
          2    1    1    2  502    0 -0.41095519383E+01 -0.32585867793E+02  0.26432518930E+02  0.42159284315E+02  0.00000000000E+00 0. -1.
         -2    1    1    2    0  502  0.41095519383E+01  0.32585867793E+02 -0.38991791419E+02  0.50981241600E+02  0.00000000000E+00 0. -1.
<mgrwt>
<rscale>  2 0.32843983E+02</rscale>
<asrwt>0</asrwt>
<pdfrwt beam="1">  1        2 0.61985579E-02 0.32843983E+02</pdfrwt>
<pdfrwt beam="2">  1       -2 0.81307538E-02 0.32843983E+02</pdfrwt>
<totfact> 0.76267971E+04</totfact>
</mgrwt>
</event>
<event>
 4    1  0.7653521E+003  0.2103107E+02  0.7546771E-02  0.1725569E+00
          2   -1    0    0  501    0  0.00000000000E+00  0.00000000000E+00  0.44512225773E+01  0.44512225773E+01  0.00000000000E+00 0. -1.
         -2   -1    0    0    0  501 -0.00000000000E+00 -0.00000000000E+00 -0.10115199296E+04  0.10115199296E+04  0.00000000000E+00 0.  1.
          2    1    1    2  502    0  0.17391009413E+02  0.11826188495E+02 -0.21144774046E+02  0.29822934333E+02  0.00000000000E+00 0. -1.
         -2    1    1    2    0  502 -0.17391009413E+02 -0.11826188495E+02 -0.98592393297E+03  0.98614821784E+03  0.00000000000E+00 0.  1.
<mgrwt>
<rscale>  2 0.21031071E+02</rscale>
<asrwt>0</asrwt>
<pdfrwt beam="1">  1        2 0.68480270E-03 0.21031071E+02</pdfrwt>
<pdfrwt beam="2">  1       -2 0.15561863E+00 0.21031071E+02</pdfrwt>
<totfact> 0.49973243E+03</totfact>
</mgrwt>
</event>
<event>
 4    1  0.7653521E+003  0.3871386E+02  0.7546771E-02  0.1517895E+00
         -2   -1    0    0    0  501 -0.00000000000E+00  0.00000000000E+00  0.24389184035E+03  0.24389184035E+03  0.00000000000E+00 0.  1.
          2   -1    0    0  501    0  0.00000000000E+00 -0.00000000000E+00 -0.23981850299E+02  0.23981850299E+02  0.00000000000E+00 0. -1.
          2    1    1    2  502    0  0.29511667207E+02  0.25056419143E+02 -0.55539042357E+01  0.39110209586E+02  0.00000000000E+00 0. -1.
         -2    1    1    2    0  502 -0.29511667207E+02 -0.25056419143E+02  0.22546389429E+03  0.22876348107E+03  0.00000000000E+00 0.  1.
<mgrwt>
<rscale>  2 0.38713856E+02</rscale>
<asrwt>0</asrwt>
<pdfrwt beam="2">  1        2 0.36895156E-02 0.38713856E+02</pdfrwt>
<pdfrwt beam="1">  1       -2 0.37521820E-01 0.38713856E+02</pdfrwt>
<totfact> 0.12632546E+04</totfact>
</mgrwt>
</event>
<event>
 4    1  0.7653521E+003  0.2116824E+02  0.7546771E-02  0.1723047E+00
         -2   -1    0    0    0  501 -0.00000000000E+00  0.00000000000E+00  0.26199682504E+02  0.26199682504E+02  0.00000000000E+00 0.  1.
          2   -1    0    0  501    0  0.00000000000E+00 -0.00000000000E+00 -0.30000108113E+03  0.30000108113E+03  0.00000000000E+00 0.  1.
          2    1    1    2  502    0 -0.20619714621E+02  0.47876616027E+01 -0.29528368825E+03  0.29604146818E+03  0.00000000000E+00 0.  1.
         -2    1    1    2    0  502  0.20619714621E+02 -0.47876616027E+01  0.21482289626E+02  0.30159295454E+02  0.00000000000E+00 0.  1.
<mgrwt>
<rscale>  2 0.21168239E+02</rscale>
<asrwt>0</asrwt>
<pdfrwt beam="2">  1        2 0.46154009E-01 0.21168239E+02</pdfrwt>
<pdfrwt beam="1">  1       -2 0.40307207E-02 0.21168239E+02</pdfrwt>
<totfact> 0.21464541E+04</totfact>
</mgrwt>
</event>
<event>
 4    1  0.7653521E+003  0.4273726E+02  0.7546771E-02  0.1488983E+00
          2   -1    0    0  501    0  0.00000000000E+00  0.00000000000E+00  0.28128478224E+04  0.28128478224E+04  0.00000000000E+00 0.  1.
         -2   -1    0    0    0  501 -0.00000000000E+00 -0.00000000000E+00 -0.24552119070E+01  0.24552119070E+01  0.00000000000E+00 0.  1.
          2    1    1    2  502    0 -0.20363372162E+02 -0.37574015616E+02  0.26124402393E+04  0.26127897882E+04  0.00000000000E+00 0.  1.
         -2    1    1    2    0  502  0.20363372162E+02  0.37574015616E+02  0.19795237124E+03  0.20251324612E+03  0.00000000000E+00 0.  1.
<mgrwt>
<rscale>  2 0.42737262E+02</rscale>
<asrwt>0</asrwt>
<pdfrwt beam="1">  1        2 0.43274324E+00 0.42737262E+02</pdfrwt>
<pdfrwt beam="2">  1       -2 0.37772716E-03 0.42737262E+02</pdfrwt>
<totfact> 0.21500632E+04</totfact>
</mgrwt>
</event>
<event>
 4    1  0.7653521E+003  0.2263218E+02  0.7546771E-02  0.1697543E+00
          2   -1    0    0  501    0  0.00000000000E+00  0.00000000000E+00  0.13835745984E+04  0.13835745984E+04  0.00000000000E+00 0. -1.
         -2   -1    0    0    0  501 -0.00000000000E+00 -0.00000000000E+00 -0.78456634680E+01  0.78456634680E+01  0.00000000000E+00 0.  1.
          2    1    1    2  502    0  0.15476194076E+02 -0.16513723761E+02  0.13669620876E+04  0.13671494302E+04  0.00000000000E+00 0. -1.
         -2    1    1    2    0  502 -0.15476194076E+02  0.16513723761E+02  0.87668473169E+01  0.24270831618E+02  0.00000000000E+00 0.  1.
<mgrwt>
<rscale>  2 0.22632182E+02</rscale>
<asrwt>0</asrwt>
<pdfrwt beam="1">  1        2 0.21285744E+00 0.22632182E+02</pdfrwt>
<pdfrwt beam="2">  1       -2 0.12070262E-02 0.22632182E+02</pdfrwt>
<totfact> 0.20581061E+04</totfact>
</mgrwt>
</event>
<event>
 4    1  0.7653521E+003  0.2151516E+02  0.7546771E-02  0.1716775E+00
          2   -1    0    0  501    0  0.00000000000E+00  0.00000000000E+00  0.16608278710E+04  0.16608278710E+04  0.00000000000E+00 0.  1.
         -2   -1    0    0    0  501 -0.00000000000E+00 -0.00000000000E+00 -0.68520276086E+00  0.68520276086E+00  0.00000000000E+00 0. -1.
          2    1    1    2  502    0 -0.21484085531E+02 -0.11558401661E+01  0.14699337222E+04  0.14700911705E+04  0.00000000000E+00 0.  1.
         -2    1    1    2    0  502  0.21484085531E+02  0.11558401661E+01  0.19020894597E+03  0.19142190319E+03  0.00000000000E+00 0. -1.
<mgrwt>
<rscale>  2 0.21515155E+02</rscale>
<asrwt>0</asrwt>
<pdfrwt beam="1">  1        2 0.25550876E+00 0.21515155E+02</pdfrwt>
<pdfrwt beam="2">  1       -2 0.10541714E-03 0.21515155E+02</pdfrwt>
<totfact> 0.38883334E+05</totfact>
</mgrwt>
</event>
<event>
 4    1  0.7653521E+003  0.4858645E+02  0.7546771E-02  0.1453118E+00
         -2   -1    0    0    0  501 -0.00000000000E+00  0.00000000000E+00  0.28920336767E+01  0.28920336767E+01  0.00000000000E+00 0. -1.
          2   -1    0    0  501    0  0.00000000000E+00 -0.00000000000E+00 -0.85948670999E+03  0.85948670999E+03  0.00000000000E+00 0. -1.
          2    1    1    2  502    0 -0.19489079291E+02 -0.44506363804E+02 -0.33159359673E+03  0.33513423285E+03  0.00000000000E+00 0. -1.
         -2    1    1    2    0  502  0.19489079291E+02  0.44506363804E+02 -0.52500107958E+03  0.52724451082E+03  0.00000000000E+00 0. -1.
<mgrwt>
<rscale>  2 0.48586449E+02</rscale>
<asrwt>0</asrwt>
<pdfrwt beam="2">  1        2 0.13222873E+00 0.48586449E+02</pdfrwt>
<pdfrwt beam="1">  1       -2 0.44492823E-03 0.48586449E+02</pdfrwt>
<totfact> 0.17286769E+05</totfact>
</mgrwt>
</event>
<event>
 4    1  0.7653521E+003  0.3085038E+02  0.7546771E-02  0.1588875E+00
          2   -1    0    0  501    0  0.00000000000E+00  0.00000000000E+00  0.48950314496E+02  0.48950314496E+02  0.00000000000E+00 0. -1.
         -2   -1    0    0    0  501 -0.00000000000E+00 -0.00000000000E+00 -0.20506223137E+02  0.20506223137E+02  0.00000000000E+00 0. -1.
          2    1    1    2  502    0 -0.15004970188E+02 -0.26955459931E+02  0.22129409143E+02  0.37966520771E+02  0.00000000000E+00 0. -1.
         -2    1    1    2    0  502  0.15004970188E+02  0.26955459931E+02  0.63146822163E+01  0.31490016861E+02  0.00000000000E+00 0. -1.
<mgrwt>
<rscale>  2 0.30850380E+02</rscale>
<asrwt>0</asrwt>
<pdfrwt beam="1">  1        2 0.75308175E-02 0.30850380E+02</pdfrwt>
<pdfrwt beam="2">  1       -2 0.31548036E-02 0.30850380E+02</pdfrwt>
<totfact> 0.23227837E+05</totfact>
</mgrwt>
</event>
<event>
 4    1  0.7653521E+003  0.2488922E+02  0.7546771E-02  0.1662598E+00
          2   -1    0    0  501    0  0.00000000000E+00  0.00000000000E+00  0.91580339061E+03  0.91580339061E+03  0.00000000000E+00 0.  1.
         -2   -1    0    0    0  501 -0.00000000000E+00 -0.00000000000E+00 -0.15068552183E+02  0.15068552183E+02  0.00000000000E+00 0. -1.
          2    1    1    2  502    0 -0.23528435473E+02 -0.81170049645E+01  0.90523675814E+03  0.90557885429E+03  0.00000000000E+00 0.  1.
         -2    1    1    2    0  502  0.23528435473E+02  0.81170049645E+01 -0.45019197071E+01  0.25293088511E+02  0.00000000000E+00 0. -1.
<mgrwt>
<rscale>  2 0.24889215E+02</rscale>
<asrwt>0</asrwt>
<pdfrwt beam="1">  1        2 0.14089279E+00 0.24889215E+02</pdfrwt>
<pdfrwt beam="2">  1       -2 0.23182395E-02 0.24889215E+02</pdfrwt>
<totfact> 0.14867080E+04</totfact>
</mgrwt>
</event>
<event>
 4    1  0.7653521E+003  0.3624957E+02  0.7546771E-02  0.1537776E+00
         -2   -1    0    0    0  501 -0.00000000000E+00  0.00000000000E+00  0.53182379460E+02  0.53182379460E+02  0.00000000000E+00 0.  1.
          2   -1    0    0  501    0  0.00000000000E+00 -0.00000000000E+00 -0.19843450690E+04  0.19843450690E+04  0.00000000000E+00 0. -1.
          2    1    1    2  502    0 -0.30167552504E+02  0.20098512989E+02 -0.19779826460E+04  0.19783147827E+04  0.00000000000E+00 0. -1.
         -2    1    1    2    0  502  0.30167552504E+02 -0.20098512989E+02  0.46819956548E+02  0.59212665703E+02  0.00000000000E+00 0.  1.
<mgrwt>
<rscale>  2 0.36249572E+02</rscale>
<asrwt>0</asrwt>
<pdfrwt beam="2">  1        2 0.30528389E+00 0.36249572E+02</pdfrwt>
<pdfrwt beam="1">  1       -2 0.81819037E-02 0.36249572E+02</pdfrwt>
<totfact> 0.73821863E+02</totfact>
</mgrwt>
</event>
<event>
 4    1  0.7653521E+003  0.2680788E+02  0.7546771E-02  0.1636315E+00
         -2   -1    0    0    0  501 -0.00000000000E+00  0.00000000000E+00  0.48518388680E+02  0.48518388680E+02  0.00000000000E+00 0.  1.
          2   -1    0    0  501    0  0.00000000000E+00 -0.00000000000E+00 -0.19794788928E+03  0.19794788928E+03  0.00000000000E+00 0.  1.
          2    1    1    2  502    0  0.15424145468E+02 -0.21926196816E+02 -0.19324756810E+03  0.19509814183E+03  0.00000000000E+00 0.  1.
         -2    1    1    2    0  502 -0.15424145468E+02  0.21926196816E+02  0.43818067497E+02  0.51368136130E+02  0.00000000000E+00 0.  1.
<mgrwt>
<rscale>  2 0.26807879E+02</rscale>
<asrwt>0</asrwt>
<pdfrwt beam="2">  1        2 0.30453521E-01 0.26807879E+02</pdfrwt>
<pdfrwt beam="1">  1       -2 0.74643676E-02 0.26807879E+02</pdfrwt>
<totfact> 0.13997975E+04</totfact>
</mgrwt>
</event>
<event>
 4    1  0.7653521E+003  0.2074207E+02  0.7546771E-02  0.1730961E+00
          2   -1    0    0  501    0  0.00000000000E+00  0.00000000000E+00  0.12317593519E+02  0.12317593519E+02  0.00000000000E+00 0.  1.
         -2   -1    0    0    0  501 -0.00000000000E+00 -0.00000000000E+00 -0.53763003166E+02  0.53763003166E+02  0.00000000000E+00 0.  1.
          2    1    1    2  502    0  0.19858048841E+02  0.59909455018E+01 -0.11666737064E+01  0.20774856421E+02  0.00000000000E+00 0.  1.
         -2    1    1    2    0  502 -0.19858048841E+02 -0.59909455018E+01 -0.40278735941E+02  0.45305740263E+02  0.00000000000E+00 0.  1.
<mgrwt>
<rscale>  2 0.20742072E+02</rscale>
<asrwt>0</asrwt>
<pdfrwt beam="1">  1        2 0.18950144E-02 0.20742072E+02</pdfrwt>
<pdfrwt beam="2">  1       -2 0.82712314E-02 0.20742072E+02</pdfrwt>
<totfact> 0.29212279E+05</totfact>
</mgrwt>
</event>
<event>
 4    1  0.7653521E+003  0.6144885E+02  0.7546771E-02  0.1391850E+00
         -2   -1    0    0    0  501 -0.00000000000E+00  0.00000000000E+00  0.18254247311E+02  0.18254247311E+02  0.00000000000E+00 0. -1.
          2   -1    0    0  501    0  0.00000000000E+00 -0.00000000000E+00 -0.26546297002E+03  0.26546297002E+03  0.00000000000E+00 0. -1.
          2    1    1    2  502    0  0.31308420639E+02  0.52874791461E+02 -0.19025992966E+03  0.19993699410E+03  0.00000000000E+00 0. -1.
         -2    1    1    2    0  502 -0.31308420639E+02 -0.52874791461E+02 -0.56948793047E+02  0.83780223230E+02  0.00000000000E+00 0. -1.
<mgrwt>
<rscale>  2 0.61448847E+02</rscale>
<asrwt>0</asrwt>
<pdfrwt beam="2">  1        2 0.40840456E-01 0.61448847E+02</pdfrwt>
<pdfrwt beam="1">  1       -2 0.28083458E-02 0.61448847E+02</pdfrwt>
<totfact> 0.48237924E+04</totfact>
</mgrwt>
</event>
<event>
 4    1  0.7653521E+003  0.2819922E+02  0.7546771E-02  0.1618892E+00
         -2   -1    0    0    0  501 -0.00000000000E+00  0.00000000000E+00  0.11432006597E+03  0.11432006597E+03  0.00000000000E+00 0. -1.
          2   -1    0    0  501    0  0.00000000000E+00 -0.00000000000E+00 -0.20004757601E+02  0.20004757601E+02  0.00000000000E+00 0.  1.
          2    1    1    2  502    0  0.25921393821E+02 -0.11103021004E+02 -0.70856767111E+01  0.29075806910E+02  0.00000000000E+00 0.  1.
         -2    1    1    2    0  502 -0.25921393821E+02  0.11103021004E+02  0.10140098508E+03  0.10524901666E+03  0.00000000000E+00 0. -1.
<mgrwt>
<rscale>  2 0.28199215E+02</rscale>
<asrwt>0</asrwt>
<pdfrwt beam="2">  1        2 0.30776551E-02 0.28199215E+02</pdfrwt>
<pdfrwt beam="1">  1       -2 0.17587702E-01 0.28199215E+02</pdfrwt>
<totfact> 0.54223795E+04</totfact>
</mgrwt>
</event>
<event>
 4    1  0.7653521E+003  0.2231404E+02  0.7546771E-02  0.1702877E+00
          2   -1    0    0  501    0  0.00000000000E+00  0.00000000000E+00  0.47728091928E+03  0.47728091928E+03  0.00000000000E+00 0. -1.
         -2   -1    0    0    0  501 -0.00000000000E+00 -0.00000000000E+00 -0.20695089525E+01  0.20695089525E+01  0.00000000000E+00 0. -1.
          2    1    1    2  502    0 -0.11685030420E+02  0.19009903086E+02  0.40638572656E+03  0.40699788096E+03  0.00000000000E+00 0. -1.
         -2    1    1    2    0  502  0.11685030420E+02 -0.19009903086E+02  0.68825683767E+02  0.72352547275E+02  0.00000000000E+00 0. -1.
<mgrwt>
<rscale>  2 0.22314039E+02</rscale>
<asrwt>0</asrwt>
<pdfrwt beam="1">  1        2 0.73427746E-01 0.22314039E+02</pdfrwt>
<pdfrwt beam="2">  1       -2 0.31838637E-03 0.22314039E+02</pdfrwt>
<totfact> 0.43035358E+05</totfact>
</mgrwt>
</event>
<event>
 4    1  0.7653521E+003  0.2015679E+02  0.7546771E-02  0.1742228E+00
          2   -1    0    0  501    0  0.00000000000E+00  0.00000000000E+00  0.18356312685E+03  0.18356312685E+03  0.00000000000E+00 0.  1.
         -2   -1    0    0    0  501 -0.00000000000E+00 -0.00000000000E+00 -0.22608754006E+02  0.22608754006E+02  0.00000000000E+00 0.  1.
          2    1    1    2  502    0 -0.13351384001E+02  0.15100883077E+02  0.17838715065E+03  0.17952234302E+03  0.00000000000E+00 0.  1.
         -2    1    1    2    0  502  0.13351384001E+02 -0.15100883077E+02 -0.17432777813E+02  0.26649537834E+02  0.00000000000E+00 0.  1.
<mgrwt>
<rscale>  2 0.20156789E+02</rscale>
<asrwt>0</asrwt>
<pdfrwt beam="1">  1        2 0.28240480E-01 0.20156789E+02</pdfrwt>
<pdfrwt beam="2">  1       -2 0.34782700E-02 0.20156789E+02</pdfrwt>
<totfact> 0.42530044E+04</totfact>
</mgrwt>
</event>
<event>
 4    1  0.7653521E+003  0.2056557E+02  0.7546771E-02  0.1734309E+00
         -2   -1    0    0    0  501 -0.00000000000E+00  0.00000000000E+00  0.91117586988E+00  0.91117586988E+00  0.00000000000E+00 0.  1.
          2   -1    0    0  501    0  0.00000000000E+00 -0.00000000000E+00 -0.59038703934E+03  0.59038703934E+03  0.00000000000E+00 0.  1.
          2    1    1    2  502    0  0.20414160141E+02 -0.24909633144E+01 -0.43143612101E+03  0.43192599984E+03  0.00000000000E+00 0.  1.
         -2    1    1    2    0  502 -0.20414160141E+02  0.24909633144E+01 -0.15803974246E+03  0.15937221537E+03  0.00000000000E+00 0.  1.
<mgrwt>
<rscale>  2 0.20565574E+02</rscale>
<asrwt>0</asrwt>
<pdfrwt beam="2">  1        2 0.90828948E-01 0.20565574E+02</pdfrwt>
<pdfrwt beam="1">  1       -2 0.14018064E-03 0.20565574E+02</pdfrwt>
<totfact> 0.10001577E+06</totfact>
</mgrwt>
</event>
<event>
 4    1  0.7653521E+003  0.2619649E+02  0.7546771E-02  0.1644388E+00
         -2   -1    0    0    0  501 -0.00000000000E+00  0.00000000000E+00  0.13194508771E+02  0.13194508771E+02  0.00000000000E+00 0. -1.
          2   -1    0    0  501    0  0.00000000000E+00 -0.00000000000E+00 -0.15980175205E+03  0.15980175205E+03  0.00000000000E+00 0. -1.
          2    1    1    2  502    0  0.17283107178E+02 -0.19686293228E+02 -0.14434432657E+03  0.14670221726E+03  0.00000000000E+00 0. -1.
         -2    1    1    2    0  502 -0.17283107178E+02  0.19686293228E+02 -0.22629167050E+01  0.26294043561E+02  0.00000000000E+00 0. -1.
<mgrwt>
<rscale>  2 0.26196487E+02</rscale>
<asrwt>0</asrwt>
<pdfrwt beam="2">  1        2 0.24584887E-01 0.26196487E+02</pdfrwt>
<pdfrwt beam="1">  1       -2 0.20299243E-02 0.26196487E+02</pdfrwt>
<totfact> 0.10959353E+05</totfact>
</mgrwt>
</event>
<event>
 4    1  0.7653521E+003  0.2490000E+02  0.7546771E-02  0.1662442E+00
          2   -1    0    0  501    0  0.00000000000E+00  0.00000000000E+00  0.17887873830E+02  0.17887873830E+02  0.00000000000E+00 0.  1.
         -2   -1    0    0    0  501 -0.00000000000E+00 -0.00000000000E+00 -0.94732791444E+02  0.94732791444E+02  0.00000000000E+00 0. -1.
          2    1    1    2  502    0  0.10884930012E+02  0.22394831982E+02  0.64183563476E+01  0.25713916448E+02  0.00000000000E+00 0.  1.
         -2    1    1    2    0  502 -0.10884930012E+02 -0.22394831982E+02 -0.83263273961E+02  0.86906748827E+02  0.00000000000E+00 0. -1.
<mgrwt>
<rscale>  2 0.24900004E+02</rscale>
<asrwt>0</asrwt>
<pdfrwt beam="1">  1        2 0.27519806E-02 0.24900004E+02</pdfrwt>
<pdfrwt beam="2">  1       -2 0.14574276E-01 0.24900004E+02</pdfrwt>
<totfact> 0.81583953E+04</totfact>
</mgrwt>
</event>
<event>
 4    1  0.7653521E+003  0.7106572E+02  0.7546771E-02  0.1356506E+00
         -2   -1    0    0    0  501 -0.00000000000E+00  0.00000000000E+00  0.12200505648E+03  0.12200505648E+03  0.00000000000E+00 0. -1.
          2   -1    0    0  501    0  0.00000000000E+00 -0.00000000000E+00 -0.50683031124E+02  0.50683031124E+02  0.00000000000E+00 0.  1.
          2    1    1    2  502    0  0.70125309092E+02  0.11522936305E+02 -0.13026381200E+01  0.71077661065E+02  0.00000000000E+00 0.  1.
         -2    1    1    2    0  502 -0.70125309092E+02 -0.11522936305E+02  0.72624663475E+02  0.10161042654E+03  0.00000000000E+00 0. -1.
<mgrwt>
<rscale>  2 0.71065723E+02</rscale>
<asrwt>0</asrwt>
<pdfrwt beam="2">  1        2 0.77973894E-02 0.71065723E+02</pdfrwt>
<pdfrwt beam="1">  1       -2 0.18770009E-01 0.71065723E+02</pdfrwt>
<totfact> 0.17730489E+04</totfact>
</mgrwt>
</event>
<event>
 4    1  0.7653521E+003  0.2018889E+02  0.7546771E-02  0.1741598E+00
          2   -1    0    0  501    0  0.00000000000E+00  0.00000000000E+00  0.32027402504E+03  0.32027402504E+03  0.00000000000E+00 0. -1.
         -2   -1    0    0    0  501 -0.00000000000E+00 -0.00000000000E+00 -0.16911554583E+01  0.16911554583E+01  0.00000000000E+00 0. -1.
          2    1    1    2  502    0 -0.99490692444E+01 -0.17567226460E+02  0.23937553801E+03  0.24022539337E+03  0.00000000000E+00 0. -1.
         -2    1    1    2    0  502  0.99490692444E+01  0.17567226460E+02  0.79207331568E+02  0.81739787120E+02  0.00000000000E+00 0. -1.
<mgrwt>
<rscale>  2 0.20188894E+02</rscale>
<asrwt>0</asrwt>
<pdfrwt beam="1">  1        2 0.49272879E-01 0.20188894E+02</pdfrwt>
<pdfrwt beam="2">  1       -2 0.26017802E-03 0.20188894E+02</pdfrwt>
<totfact> 0.80793811E+05</totfact>
</mgrwt>
</event>
<event>
 4    1  0.7653521E+003  0.3925186E+02  0.7546771E-02  0.1513790E+00
         -2   -1    0    0    0  501 -0.00000000000E+00  0.00000000000E+00  0.47924187250E+02  0.47924187250E+02  0.00000000000E+00 0. -1.
          2   -1    0    0  501    0  0.00000000000E+00 -0.00000000000E+00 -0.64322572766E+03  0.64322572766E+03  0.00000000000E+00 0. -1.
          2    1    1    2  502    0 -0.34395040398E+02  0.18912676229E+02 -0.63447899826E+03  0.63569199096E+03  0.00000000000E+00 0. -1.
         -2    1    1    2    0  502  0.34395040398E+02 -0.18912676229E+02  0.39177457850E+02  0.55457923958E+02  0.00000000000E+00 0. -1.
<mgrwt>
<rscale>  2 0.39251855E+02</rscale>
<asrwt>0</asrwt>
<pdfrwt beam="2">  1        2 0.98957805E-01 0.39251855E+02</pdfrwt>
<pdfrwt beam="1">  1       -2 0.73729519E-02 0.39251855E+02</pdfrwt>
<totfact> 0.44820571E+03</totfact>
</mgrwt>
</event>
<event>
 4    1  0.7653521E+003  0.4195065E+02  0.7546771E-02  0.1494328E+00
         -2   -1    0    0    0  501 -0.00000000000E+00  0.00000000000E+00  0.23601634930E+01  0.23601634930E+01  0.00000000000E+00 0.  1.
          2   -1    0    0  501    0  0.00000000000E+00 -0.00000000000E+00 -0.15901070445E+04  0.15901070445E+04  0.00000000000E+00 0.  1.
          2    1    1    2  502    0  0.41870803063E+02  0.25869865174E+01 -0.13741246075E+04  0.13747648139E+04  0.00000000000E+00 0.  1.
         -2    1    1    2    0  502 -0.41870803063E+02 -0.25869865174E+01 -0.21362227357E+03  0.21770239414E+03  0.00000000000E+00 0.  1.
<mgrwt>
<rscale>  2 0.41950645E+02</rscale>
<asrwt>0</asrwt>
<pdfrwt beam="2">  1        2 0.24463173E+00 0.41950645E+02</pdfrwt>
<pdfrwt beam="1">  1       -2 0.36310225E-03 0.41950645E+02</pdfrwt>
<totfact> 0.91470401E+04</totfact>
</mgrwt>
</event>
<event>
 4    1  0.7653521E+003  0.2009951E+02  0.7546771E-02  0.1743356E+00
         -2   -1    0    0    0  501 -0.00000000000E+00  0.00000000000E+00  0.19983097987E+03  0.19983097987E+03  0.00000000000E+00 0. -1.
          2   -1    0    0  501    0  0.00000000000E+00 -0.00000000000E+00 -0.90261787026E+01  0.90261787026E+01  0.00000000000E+00 0.  1.
          2    1    1    2  502    0  0.19179293732E+02  0.60120612358E+01  0.34090212849E+01  0.20386554748E+02  0.00000000000E+00 0.  1.
         -2    1    1    2    0  502 -0.19179293732E+02 -0.60120612358E+01  0.18739577988E+03  0.18847060382E+03  0.00000000000E+00 0. -1.
<mgrwt>
<rscale>  2 0.20099507E+02</rscale>
<asrwt>0</asrwt>
<pdfrwt beam="2">  1        2 0.13886430E-02 0.20099507E+02</pdfrwt>
<pdfrwt beam="1">  1       -2 0.30743224E-01 0.20099507E+02</pdfrwt>
<totfact> 0.55063762E+04</totfact>
</mgrwt>
</event>
<event>
 4    1  0.7653521E+003  0.3706488E+02  0.7546771E-02  0.1530993E+00
          2   -1    0    0  501    0  0.00000000000E+00  0.00000000000E+00  0.19174151627E+04  0.19174151627E+04  0.00000000000E+00 0. -1.
         -2   -1    0    0    0  501 -0.00000000000E+00 -0.00000000000E+00 -0.76200456979E+01  0.76200456979E+01  0.00000000000E+00 0.  1.
          2    1    1    2  502    0 -0.34998300592E+02 -0.12203455141E+02  0.18710470951E+04  0.18714141812E+04  0.00000000000E+00 0. -1.
         -2    1    1    2    0  502  0.34998300592E+02  0.12203455141E+02  0.38748021933E+02  0.53621027270E+02  0.00000000000E+00 0.  1.
<mgrwt>
<rscale>  2 0.37064880E+02</rscale>
<asrwt>0</asrwt>
<pdfrwt beam="1">  1        2 0.29498656E+00 0.37064880E+02</pdfrwt>
<pdfrwt beam="2">  1       -2 0.11723162E-02 0.37064880E+02</pdfrwt>
<totfact> 0.12587267E+04</totfact>
</mgrwt>
</event>
<event>
 4    1  0.7653521E+003  0.2081681E+02  0.7546771E-02  0.1729556E+00
         -2   -1    0    0    0  501 -0.00000000000E+00  0.00000000000E+00  0.27169102078E+02  0.27169102078E+02  0.00000000000E+00 0.  1.
          2   -1    0    0  501    0  0.00000000000E+00 -0.00000000000E+00 -0.17054236342E+02  0.17054236342E+02  0.00000000000E+00 0.  1.
          2    1    1    2  502    0  0.12948326173E+00 -0.20816403208E+02 -0.56977085144E+00  0.20824601971E+02  0.00000000000E+00 0.  1.
         -2    1    1    2    0  502 -0.12948326173E+00  0.20816403208E+02  0.10684636587E+02  0.23398736450E+02  0.00000000000E+00 0.  1.
<mgrwt>
<rscale>  2 0.20816806E+02</rscale>
<asrwt>0</asrwt>
<pdfrwt beam="2">  1        2 0.26237287E-02 0.20816806E+02</pdfrwt>
<pdfrwt beam="1">  1       -2 0.41798619E-02 0.20816806E+02</pdfrwt>
<totfact> 0.51308999E+05</totfact>
</mgrwt>
</event>
<event>
 4    1  0.7653521E+003  0.3674106E+02  0.7546771E-02  0.1533662E+00
         -2   -1    0    0    0  501 -0.00000000000E+00  0.00000000000E+00  0.14880854927E+02  0.14880854927E+02  0.00000000000E+00 0.  1.
          2   -1    0    0  501    0  0.00000000000E+00 -0.00000000000E+00 -0.36294596292E+03  0.36294596292E+03  0.00000000000E+00 0. -1.
          2    1    1    2  502    0  0.36685091372E+02 -0.20272064068E+01 -0.33764305068E+03  0.33963618060E+03  0.00000000000E+00 0. -1.
         -2    1    1    2    0  502 -0.36685091372E+02  0.20272064068E+01 -0.10422057304E+02  0.38190637246E+02  0.00000000000E+00 0.  1.
<mgrwt>
<rscale>  2 0.36741060E+02</rscale>
<asrwt>0</asrwt>
<pdfrwt beam="2">  1        2 0.55837837E-01 0.36741060E+02</pdfrwt>
<pdfrwt beam="1">  1       -2 0.22893624E-02 0.36741060E+02</pdfrwt>
<totfact> 0.43191308E+04</totfact>
</mgrwt>
</event>
<event>
 4    1  0.7653521E+003  0.2041112E+02  0.7546771E-02  0.1737274E+00
          2   -1    0    0  501    0  0.00000000000E+00  0.00000000000E+00  0.30964408898E+03  0.30964408898E+03  0.00000000000E+00 0. -1.
         -2   -1    0    0    0  501 -0.00000000000E+00 -0.00000000000E+00 -0.59524659328E+01  0.59524659328E+01  0.00000000000E+00 0. -1.
          2    1    1    2  502    0  0.15925452389E+02  0.12766900472E+02  0.29066937164E+03  0.29138513585E+03  0.00000000000E+00 0. -1.
         -2    1    1    2    0  502 -0.15925452389E+02 -0.12766900472E+02  0.13022251401E+02  0.24211419062E+02  0.00000000000E+00 0. -1.
<mgrwt>
<rscale>  2 0.20411119E+02</rscale>
<asrwt>0</asrwt>
<pdfrwt beam="1">  1        2 0.47637539E-01 0.20411119E+02</pdfrwt>
<pdfrwt beam="2">  1       -2 0.91576423E-03 0.20411119E+02</pdfrwt>
<totfact> 0.15664935E+05</totfact>
</mgrwt>
</event>
<event>
 4    1  0.7653521E+003  0.2950628E+02  0.7546771E-02  0.1603611E+00
          2   -1    0    0  501    0  0.00000000000E+00  0.00000000000E+00  0.12829661327E+04  0.12829661327E+04  0.00000000000E+00 0. -1.
         -2   -1    0    0    0  501 -0.00000000000E+00 -0.00000000000E+00 -0.92004020027E+00  0.92004020027E+00  0.00000000000E+00 0.  1.
          2    1    1    2  502    0  0.21806655003E+02 -0.19876881065E+02  0.96987321238E+03  0.97032194075E+03  0.00000000000E+00 0.  1.
         -2    1    1    2    0  502 -0.21806655003E+02  0.19876881065E+02  0.31217288008E+03  0.31356423211E+03  0.00000000000E+00 0. -1.
<mgrwt>
<rscale>  2 0.29506281E+02</rscale>
<asrwt>0</asrwt>
<pdfrwt beam="1">  1        2 0.19737797E+00 0.29506281E+02</pdfrwt>
<pdfrwt beam="2">  1       -2 0.14154567E-03 0.29506281E+02</pdfrwt>
<totfact> 0.43068231E+05</totfact>
</mgrwt>
</event>
<event>
 4    1  0.7653521E+003  0.4731010E+02  0.7546771E-02  0.1460415E+00
         -2   -1    0    0    0  501 -0.00000000000E+00  0.00000000000E+00  0.97761457078E+00  0.97761457078E+00  0.00000000000E+00 0. -1.
          2   -1    0    0  501    0  0.00000000000E+00 -0.00000000000E+00 -0.24386914009E+04  0.24386914009E+04  0.00000000000E+00 0. -1.
          2    1    1    2  502    0 -0.42264367393E+02 -0.21259568671E+02 -0.15205727823E+04  0.15213085921E+04  0.00000000000E+00 0. -1.
         -2    1    1    2    0  502  0.42264367393E+02  0.21259568671E+02 -0.91714100403E+03  0.91836042341E+03  0.00000000000E+00 0. -1.
<mgrwt>
<rscale>  2 0.47310105E+02</rscale>
<asrwt>0</asrwt>
<pdfrwt beam="2">  1        2 0.37518073E+00 0.47310105E+02</pdfrwt>
<pdfrwt beam="1">  1       -2 0.15040327E-03 0.47310105E+02</pdfrwt>
<totfact> 0.11869960E+05</totfact>
</mgrwt>
</event>
<event>
 4    1  0.7653521E+003  0.3147774E+02  0.7546771E-02  0.1582306E+00
         -2   -1    0    0    0  501 -0.00000000000E+00  0.00000000000E+00  0.17848155041E+02  0.17848155041E+02  0.00000000000E+00 0.  1.
          2   -1    0    0  501    0  0.00000000000E+00 -0.00000000000E+00 -0.17873913997E+03  0.17873913997E+03  0.00000000000E+00 0.  1.
          2    1    1    2  502    0 -0.30091022330E+02 -0.92400599669E+01 -0.16205912847E+03  0.16508788403E+03  0.00000000000E+00 0.  1.
         -2    1    1    2    0  502  0.30091022330E+02  0.92400599669E+01  0.11681435369E+01  0.31499410985E+02  0.00000000000E+00 0.  1.
<mgrwt>
<rscale>  2 0.31477743E+02</rscale>
<asrwt>0</asrwt>
<pdfrwt beam="2">  1        2 0.27498329E-01 0.31477743E+02</pdfrwt>
<pdfrwt beam="1">  1       -2 0.27458700E-02 0.31477743E+02</pdfrwt>
<totfact> 0.66713023E+04</totfact>
</mgrwt>
</event>
<event>
 4    1  0.7653521E+003  0.2322172E+02  0.7546771E-02  0.1687941E+00
         -2   -1    0    0    0  501 -0.00000000000E+00  0.00000000000E+00  0.17268265373E+03  0.17268265373E+03  0.00000000000E+00 0. -1.
          2   -1    0    0  501    0  0.00000000000E+00 -0.00000000000E+00 -0.47407036529E+01  0.47407036529E+01  0.00000000000E+00 0.  1.
          2    1    1    2  502    0 -0.21275081241E+02 -0.93069314281E+01  0.32145908411E+02  0.39656115316E+02  0.00000000000E+00 0.  1.
         -2    1    1    2    0  502  0.21275081241E+02  0.93069314281E+01  0.13579604167E+03  0.13776724207E+03  0.00000000000E+00 0. -1.
<mgrwt>
<rscale>  2 0.23221715E+02</rscale>
<asrwt>0</asrwt>
<pdfrwt beam="2">  1        2 0.72933916E-03 0.23221715E+02</pdfrwt>
<pdfrwt beam="1">  1       -2 0.26566557E-01 0.23221715E+02</pdfrwt>
<totfact> 0.16951143E+05</totfact>
</mgrwt>
</event>
<event>
 4    1  0.7653521E+003  0.3496326E+02  0.7546771E-02  0.1548927E+00
         -2   -1    0    0    0  501 -0.00000000000E+00  0.00000000000E+00  0.20740316976E+01  0.20740316976E+01  0.00000000000E+00 0. -1.
          2   -1    0    0  501    0  0.00000000000E+00 -0.00000000000E+00 -0.17320468361E+04  0.17320468361E+04  0.00000000000E+00 0. -1.
          2    1    1    2  502    0 -0.33335482985E+02 -0.10543964391E+02 -0.15692350013E+04  0.15696244515E+04  0.00000000000E+00 0. -1.
         -2    1    1    2    0  502  0.33335482985E+02  0.10543964391E+02 -0.16073780311E+03  0.16449641626E+03  0.00000000000E+00 0. -1.
<mgrwt>
<rscale>  2 0.34963261E+02</rscale>
<asrwt>0</asrwt>
<pdfrwt beam="2">  1        2 0.26646717E+00 0.34963261E+02</pdfrwt>
<pdfrwt beam="1">  1       -2 0.31908368E-03 0.34963261E+02</pdfrwt>
<totfact> 0.90630794E+04</totfact>
</mgrwt>
</event>
<event>
 4    1  0.7653521E+003  0.5192236E+02  0.7546771E-02  0.1435240E+00
         -2   -1    0    0    0  501 -0.00000000000E+00  0.00000000000E+00  0.56544328843E+02  0.56544328843E+02  0.00000000000E+00 0.  1.
          2   -1    0    0  501    0  0.00000000000E+00 -0.00000000000E+00 -0.12449261852E+04  0.12449261852E+04  0.00000000000E+00 0.  1.
          2    1    1    2  502    0 -0.34669066124E+02  0.38652130876E+02 -0.12323436054E+04  0.12334369434E+04  0.00000000000E+00 0.  1.
         -2    1    1    2    0  502  0.34669066124E+02 -0.38652130876E+02  0.43961749042E+02  0.68033570728E+02  0.00000000000E+00 0.  1.
<mgrwt>
<rscale>  2 0.51922359E+02</rscale>
<asrwt>0</asrwt>
<pdfrwt beam="2">  1        2 0.19152710E+00 0.51922359E+02</pdfrwt>
<pdfrwt beam="1">  1       -2 0.86991277E-02 0.51922359E+02</pdfrwt>
<totfact> 0.15504410E+03</totfact>
</mgrwt>
</event>
<event>
 4    1  0.7653521E+003  0.2077754E+02  0.7546771E-02  0.1730294E+00
          2   -1    0    0  501    0  0.00000000000E+00  0.00000000000E+00  0.10301422330E+04  0.10301422330E+04  0.00000000000E+00 0.  1.
         -2   -1    0    0    0  501 -0.00000000000E+00 -0.00000000000E+00 -0.12195073788E+01  0.12195073788E+01  0.00000000000E+00 0.  1.
          2    1    1    2  502    0 -0.39945218909E+01  0.20389949200E+02  0.93224487155E+03  0.93247638403E+03  0.00000000000E+00 0.  1.
         -2    1    1    2    0  502  0.39945218909E+01 -0.20389949200E+02  0.96677854111E+02  0.98885356393E+02  0.00000000000E+00 0.  1.
<mgrwt>
<rscale>  2 0.20777542E+02</rscale>
<asrwt>0</asrwt>
<pdfrwt beam="1">  1        2 0.15848272E+00 0.20777542E+02</pdfrwt>
<pdfrwt beam="2">  1       -2 0.18761734E-03 0.20777542E+02</pdfrwt>
<totfact> 0.36547546E+05</totfact>
</mgrwt>
</event>
<event>
 4    1  0.7653521E+003  0.2392234E+02  0.7546771E-02  0.1676981E+00
          2   -1    0    0  501    0  0.00000000000E+00  0.00000000000E+00  0.15469557164E+03  0.15469557164E+03  0.00000000000E+00 0. -1.
         -2   -1    0    0    0  501 -0.00000000000E+00 -0.00000000000E+00 -0.20565607635E+02  0.20565607635E+02  0.00000000000E+00 0. -1.
          2    1    1    2  502    0 -0.14949342024E+02 -0.18676071219E+02  0.14642355989E+03  0.14836487911E+03  0.00000000000E+00 0. -1.
         -2    1    1    2    0  502  0.14949342024E+02  0.18676071219E+02 -0.12293595879E+02  0.26896300168E+02  0.00000000000E+00 0. -1.
<mgrwt>
<rscale>  2 0.23922342E+02</rscale>
<asrwt>0</asrwt>
<pdfrwt beam="1">  1        2 0.23799318E-01 0.23922342E+02</pdfrwt>
<pdfrwt beam="2">  1       -2 0.31639397E-02 0.23922342E+02</pdfrwt>
<totfact> 0.60027343E+04</totfact>
</mgrwt>
</event>
<event>
 4    1  0.7653521E+003  0.2012254E+02  0.7546771E-02  0.1742902E+00
          2   -1    0    0  501    0  0.00000000000E+00  0.00000000000E+00  0.52058976285E+03  0.52058976285E+03  0.00000000000E+00 0.  1.
         -2   -1    0    0    0  501 -0.00000000000E+00 -0.00000000000E+00 -0.10692187467E+03  0.10692187467E+03  0.00000000000E+00 0.  1.
          2    1    1    2  502    0 -0.11463247433E+02 -0.16538155490E+02  0.51944647076E+03  0.51983608245E+03  0.00000000000E+00 0.  1.
         -2    1    1    2    0  502  0.11463247433E+02  0.16538155490E+02 -0.10577858258E+03  0.10767555508E+03  0.00000000000E+00 0.  1.
<mgrwt>
<rscale>  2 0.20122540E+02</rscale>
<asrwt>0</asrwt>
<pdfrwt beam="1">  1        2 0.80090731E-01 0.20122540E+02</pdfrwt>
<pdfrwt beam="2">  1       -2 0.16449520E-01 0.20122540E+02</pdfrwt>
<totfact> 0.15746940E+03</totfact>
</mgrwt>
</event>
<event>
 4    1  0.7653521E+003  0.2918080E+02  0.7546771E-02  0.1607324E+00
         -2   -1    0    0    0  501 -0.00000000000E+00  0.00000000000E+00  0.38361827779E+02  0.38361827779E+02  0.00000000000E+00 0. -1.
          2   -1    0    0  501    0  0.00000000000E+00 -0.00000000000E+00 -0.36840917987E+02  0.36840917987E+02  0.00000000000E+00 0. -1.
          2    1    1    2  502    0 -0.28867916011E+02 -0.42616662859E+01  0.24466919031E+02  0.38080815396E+02  0.00000000000E+00 0. -1.
         -2    1    1    2    0  502  0.28867916011E+02  0.42616662859E+01 -0.22946009240E+02  0.37121930370E+02  0.00000000000E+00 0. -1.
<mgrwt>
<rscale>  2 0.29180802E+02</rscale>
<asrwt>0</asrwt>
<pdfrwt beam="2">  1        2 0.56678335E-02 0.29180802E+02</pdfrwt>
<pdfrwt beam="1">  1       -2 0.59018196E-02 0.29180802E+02</pdfrwt>
<totfact> 0.13243534E+05</totfact>
</mgrwt>
</event>
<event>
 4    1  0.7653521E+003  0.2146736E+02  0.7546771E-02  0.1717630E+00
         -2   -1    0    0    0  501 -0.00000000000E+00  0.00000000000E+00  0.36314144764E+01  0.36314144764E+01  0.00000000000E+00 0. -1.
          2   -1    0    0  501    0  0.00000000000E+00 -0.00000000000E+00 -0.30111211884E+03  0.30111211884E+03  0.00000000000E+00 0. -1.
          2    1    1    2  502    0  0.16692148875E+02 -0.13498877479E+02 -0.26463739328E+03  0.26550668062E+03  0.00000000000E+00 0. -1.
         -2    1    1    2    0  502 -0.16692148875E+02  0.13498877479E+02 -0.32843311081E+02  0.39236852702E+02  0.00000000000E+00 0. -1.
<mgrwt>
<rscale>  2 0.21467360E+02</rscale>
<asrwt>0</asrwt>
<pdfrwt beam="2">  1        2 0.46324940E-01 0.21467360E+02</pdfrwt>
<pdfrwt beam="1">  1       -2 0.55867916E-03 0.21467360E+02</pdfrwt>
<totfact> 0.31661977E+05</totfact>
</mgrwt>
</event>
<event>
 4    1  0.7653521E+003  0.4655374E+02  0.7546771E-02  0.1464869E+00
         -2   -1    0    0    0  501 -0.00000000000E+00  0.00000000000E+00  0.61485313160E+01  0.61485313160E+01  0.00000000000E+00 0. -1.
          2   -1    0    0  501    0  0.00000000000E+00 -0.00000000000E+00 -0.70939811949E+03  0.70939811949E+03  0.00000000000E+00 0.  1.
          2    1    1    2  502    0 -0.29548011444E+02  0.35974520996E+02 -0.60539788809E+03  0.60718518925E+03  0.00000000000E+00 0.  1.
         -2    1    1    2    0  502  0.29548011444E+02 -0.35974520996E+02 -0.97851700086E+02  0.10836146156E+03  0.00000000000E+00 0. -1.
<mgrwt>
<rscale>  2 0.46553745E+02</rscale>
<asrwt>0</asrwt>
<pdfrwt beam="2">  1        2 0.10913812E+00 0.46553745E+02</pdfrwt>
<pdfrwt beam="1">  1       -2 0.94592832E-03 0.46553745E+02</pdfrwt>
<totfact> 0.75936598E+04</totfact>
</mgrwt>
</event>
<event>
 4    1  0.7653521E+003  0.3144644E+02  0.7546771E-02  0.1582629E+00
         -2   -1    0    0    0  501 -0.00000000000E+00  0.00000000000E+00  0.30331229414E+02  0.30331229414E+02  0.00000000000E+00 0.  1.
          2   -1    0    0  501    0  0.00000000000E+00 -0.00000000000E+00 -0.13864111738E+04  0.13864111738E+04  0.00000000000E+00 0.  1.
          2    1    1    2  502    0 -0.21022048105E+02  0.23387011746E+02 -0.13780326418E+04  0.13783913961E+04  0.00000000000E+00 0.  1.
         -2    1    1    2    0  502  0.21022048105E+02 -0.23387011746E+02  0.21952697433E+02  0.38351007151E+02  0.00000000000E+00 0.  1.
<mgrwt>
<rscale>  2 0.31446444E+02</rscale>
<asrwt>0</asrwt>
<pdfrwt beam="2">  1        2 0.21329403E+00 0.31446444E+02</pdfrwt>
<pdfrwt beam="1">  1       -2 0.46663430E-02 0.31446444E+02</pdfrwt>
<totfact> 0.32323296E+03</totfact>
</mgrwt>
</event>
<event>
 4    1  0.7653521E+003  0.2675250E+02  0.7546771E-02  0.1637035E+00
         -2   -1    0    0    0  501 -0.00000000000E+00  0.00000000000E+00  0.11178483165E+03  0.11178483165E+03  0.00000000000E+00 0.  1.
          2   -1    0    0  501    0  0.00000000000E+00 -0.00000000000E+00 -0.82065718325E+03  0.82065718325E+03  0.00000000000E+00 0.  1.
          2    1    1    2  502    0  0.16147368626E+02  0.21329756100E+02 -0.81883498627E+03  0.81927189061E+03  0.00000000000E+00 0.  1.
         -2    1    1    2    0  502 -0.16147368626E+02 -0.21329756100E+02  0.10996263467E+03  0.11317012429E+03  0.00000000000E+00 0.  1.
<mgrwt>
<rscale>  2 0.26752495E+02</rscale>
<asrwt>0</asrwt>
<pdfrwt beam="2">  1        2 0.12625495E+00 0.26752495E+02</pdfrwt>
<pdfrwt beam="1">  1       -2 0.17197667E-01 0.26752495E+02</pdfrwt>
<totfact> 0.91568093E+02</totfact>
</mgrwt>
</event>
<event>
 4    1  0.7653521E+003  0.2036030E+02  0.7546771E-02  0.1738256E+00
          2   -1    0    0  501    0  0.00000000000E+00  0.00000000000E+00  0.10100487968E+04  0.10100487968E+04  0.00000000000E+00 0. -1.
         -2   -1    0    0    0  501 -0.00000000000E+00 -0.00000000000E+00 -0.32134901917E+02  0.32134901917E+02  0.00000000000E+00 0.  1.
          2    1    1    2  502    0 -0.11931908939E+02  0.16497622102E+02  0.10067104855E+04  0.10069163538E+04  0.00000000000E+00 0. -1.
         -2    1    1    2    0  502  0.11931908939E+02 -0.16497622102E+02 -0.28796590606E+02  0.35267344902E+02  0.00000000000E+00 0.  1.
<mgrwt>
<rscale>  2 0.20360304E+02</rscale>
<asrwt>0</asrwt>
<pdfrwt beam="1">  1        2 0.15539210E+00 0.20360304E+02</pdfrwt>
<pdfrwt beam="2">  1       -2 0.49438318E-02 0.20360304E+02</pdfrwt>
<totfact> 0.44808403E+03</totfact>
</mgrwt>
</event>
<event>
 4    1  0.7653521E+003  0.5376230E+02  0.7546771E-02  0.1426044E+00
          2   -1    0    0  501    0  0.00000000000E+00  0.00000000000E+00  0.32462222051E+02  0.32462222051E+02  0.00000000000E+00 0. -1.
         -2   -1    0    0    0  501 -0.00000000000E+00 -0.00000000000E+00 -0.53888351447E+03  0.53888351447E+03  0.00000000000E+00 0.  1.
          2    1    1    2  502    0 -0.24755720107E+01 -0.53705272571E+02  0.77968880017E+01  0.54324729371E+02  0.00000000000E+00 0. -1.
         -2    1    1    2    0  502  0.24755720107E+01  0.53705272571E+02 -0.51421818042E+03  0.51702100715E+03  0.00000000000E+00 0.  1.
<mgrwt>
<rscale>  2 0.53762299E+02</rscale>
<asrwt>0</asrwt>
<pdfrwt beam="1">  1        2 0.49941886E-02 0.53762299E+02</pdfrwt>
<pdfrwt beam="2">  1       -2 0.82905146E-01 0.53762299E+02</pdfrwt>
<totfact> 0.18581252E+03</totfact>
</mgrwt>
</event>
<event>
 4    1  0.7653521E+003  0.2206513E+02  0.7546771E-02  0.1707128E+00
          2   -1    0    0  501    0  0.00000000000E+00  0.00000000000E+00  0.87131099686E+02  0.87131099686E+02  0.00000000000E+00 0.  1.
         -2   -1    0    0    0  501 -0.00000000000E+00 -0.00000000000E+00 -0.23889906976E+03  0.23889906976E+03  0.00000000000E+00 0.  1.
          2    1    1    2  502    0 -0.17632322878E+02 -0.13265404054E+02  0.85213380486E+02  0.88023803421E+02  0.00000000000E+00 0.  1.
         -2    1    1    2    0  502  0.17632322878E+02  0.13265404054E+02 -0.23698135056E+03  0.23800636602E+03  0.00000000000E+00 0.  1.
<mgrwt>
<rscale>  2 0.22065125E+02</rscale>
<asrwt>0</asrwt>
<pdfrwt beam="1">  1        2 0.13404785E-01 0.22065125E+02</pdfrwt>
<pdfrwt beam="2">  1       -2 0.36753703E-01 0.22065125E+02</pdfrwt>
<totfact> 0.25833034E+03</totfact>
</mgrwt>
</event>
<event>
 4    1  0.7653521E+003  0.3383828E+02  0.7546771E-02  0.1559166E+00
         -2   -1    0    0    0  501 -0.00000000000E+00  0.00000000000E+00  0.28483563748E+02  0.28483563748E+02  0.00000000000E+00 0. -1.
          2   -1    0    0  501    0  0.00000000000E+00 -0.00000000000E+00 -0.11665684276E+03  0.11665684276E+03  0.00000000000E+00 0.  1.
          2    1    1    2  502    0 -0.27531263789E+02 -0.19673811356E+02 -0.10283725216E+03  0.10826139557E+03  0.00000000000E+00 0.  1.
         -2    1    1    2    0  502  0.27531263789E+02  0.19673811356E+02  0.14663973149E+02  0.36879010936E+02  0.00000000000E+00 0. -1.
<mgrwt>
<rscale>  2 0.33838282E+02</rscale>
<asrwt>0</asrwt>
<pdfrwt beam="2">  1        2 0.17947207E-01 0.33838282E+02</pdfrwt>
<pdfrwt beam="1">  1       -2 0.43820867E-02 0.33838282E+02</pdfrwt>
<totfact> 0.54948848E+04</totfact>
</mgrwt>
</event>
<event>
 4    1  0.7653521E+003  0.2051809E+02  0.7546771E-02  0.1735217E+00
          2   -1    0    0  501    0  0.00000000000E+00  0.00000000000E+00  0.17677722234E+02  0.17677722234E+02  0.00000000000E+00 0. -1.
         -2   -1    0    0    0  501 -0.00000000000E+00 -0.00000000000E+00 -0.42312022615E+02  0.42312022615E+02  0.00000000000E+00 0. -1.
          2    1    1    2  502    0 -0.80442638259E+01  0.18875433857E+02  0.75149122046E+01  0.21850997443E+02  0.00000000000E+00 0. -1.
         -2    1    1    2    0  502  0.80442638259E+01 -0.18875433857E+02 -0.32149212586E+02  0.38138747406E+02  0.00000000000E+00 0. -1.
<mgrwt>
<rscale>  2 0.20518094E+02</rscale>
<asrwt>0</asrwt>
<pdfrwt beam="1">  1        2 0.27196496E-02 0.20518094E+02</pdfrwt>
<pdfrwt beam="2">  1       -2 0.65095419E-02 0.20518094E+02</pdfrwt>
<totfact> 0.26043472E+05</totfact>
</mgrwt>
</event>
<event>
 4    1  0.7653521E+003  0.2533824E+02  0.7546771E-02  0.1656191E+00
          2   -1    0    0  501    0  0.00000000000E+00  0.00000000000E+00  0.17298019242E+04  0.17298019242E+04  0.00000000000E+00 0.  1.
         -2   -1    0    0    0  501 -0.00000000000E+00 -0.00000000000E+00 -0.87445951390E+01  0.87445951390E+01  0.00000000000E+00 0.  1.
          2    1    1    2  502    0  0.25337978413E+02 -0.11461982085E+00  0.17111541723E+04  0.17113417624E+04  0.00000000000E+00 0.  1.
         -2    1    1    2    0  502 -0.25337978413E+02  0.11461982085E+00  0.99031567740E+01  0.27204756971E+02  0.00000000000E+00 0.  1.
<mgrwt>
<rscale>  2 0.25338238E+02</rscale>
<asrwt>0</asrwt>
<pdfrwt beam="1">  1        2 0.26612310E+00 0.25338238E+02</pdfrwt>
<pdfrwt beam="2">  1       -2 0.13453237E-02 0.25338238E+02</pdfrwt>
<totfact> 0.12358696E+04</totfact>
</mgrwt>
</event>
<event>
 4    1  0.7653521E+003  0.2060910E+02  0.7546771E-02  0.1733480E+00
         -2   -1    0    0    0  501 -0.00000000000E+00  0.00000000000E+00  0.14067061891E+03  0.14067061891E+03  0.00000000000E+00 0. -1.
          2   -1    0    0  501    0  0.00000000000E+00 -0.00000000000E+00 -0.49122362677E+01  0.49122362677E+01  0.00000000000E+00 0.  1.
          2    1    1    2  502    0  0.89041642077E+01 -0.18586303672E+02  0.22693382013E+02  0.30654924753E+02  0.00000000000E+00 0.  1.
         -2    1    1    2    0  502 -0.89041642077E+01  0.18586303672E+02  0.11306500063E+03  0.11492793043E+03  0.00000000000E+00 0. -1.
<mgrwt>
<rscale>  2 0.20609096E+02</rscale>
<asrwt>0</asrwt>
<pdfrwt beam="2">  1        2 0.75572876E-03 0.20609096E+02</pdfrwt>
<pdfrwt beam="1">  1       -2 0.21641631E-01 0.20609096E+02</pdfrwt>
<totfact> 0.21896276E+05</totfact>
</mgrwt>
</event>
<event>
 4    1  0.7653521E+003  0.2061009E+02  0.7546771E-02  0.1733461E+00
          2   -1    0    0  501    0  0.00000000000E+00  0.00000000000E+00  0.56354390997E+03  0.56354390997E+03  0.00000000000E+00 0. -1.
         -2   -1    0    0    0  501 -0.00000000000E+00 -0.00000000000E+00 -0.27052810317E+01  0.27052810317E+01  0.00000000000E+00 0. -1.
          2    1    1    2  502    0 -0.17498492807E+02 -0.10889371312E+02  0.52088785084E+03  0.52129543333E+03  0.00000000000E+00 0. -1.
         -2    1    1    2    0  502  0.17498492807E+02  0.10889371312E+02  0.39950778095E+02  0.44953757668E+02  0.00000000000E+00 0. -1.
<mgrwt>
<rscale>  2 0.20610086E+02</rscale>
<asrwt>0</asrwt>
<pdfrwt beam="1">  1        2 0.86698969E-01 0.20610086E+02</pdfrwt>
<pdfrwt beam="2">  1       -2 0.41619753E-03 0.20610086E+02</pdfrwt>
<totfact> 0.24904779E+05</totfact>
</mgrwt>
</event>
<event>
 4    1  0.7653521E+003  0.2297089E+02  0.7546771E-02  0.1691982E+00
         -2   -1    0    0    0  501 -0.00000000000E+00  0.00000000000E+00  0.53508324076E+02  0.53508324076E+02  0.00000000000E+00 0. -1.
          2   -1    0    0  501    0  0.00000000000E+00 -0.00000000000E+00 -0.12014133075E+02  0.12014133075E+02  0.00000000000E+00 0. -1.
          2    1    1    2  502    0 -0.14424298677E+02  0.17877393396E+02  0.68789230933E+01  0.23978764978E+02  0.00000000000E+00 0. -1.
         -2    1    1    2    0  502  0.14424298677E+02 -0.17877393396E+02  0.34615267908E+02  0.41543692172E+02  0.00000000000E+00 0. -1.
<mgrwt>
<rscale>  2 0.22970886E+02</rscale>
<asrwt>0</asrwt>
<pdfrwt beam="2">  1        2 0.18483282E-02 0.22970886E+02</pdfrwt>
<pdfrwt beam="1">  1       -2 0.82320497E-02 0.22970886E+02</pdfrwt>
<totfact> 0.31346247E+05</totfact>
</mgrwt>
</event>
<event>
 4    1  0.7653521E+003  0.3570814E+02  0.7546771E-02  0.1542401E+00
         -2   -1    0    0    0  501 -0.00000000000E+00  0.00000000000E+00  0.36317807400E+02  0.36317807400E+02  0.00000000000E+00 0.  1.
          2   -1    0    0  501    0  0.00000000000E+00 -0.00000000000E+00 -0.11426213821E+03  0.11426213821E+03  0.00000000000E+00 0. -1.
          2    1    1    2  502    0 -0.30288827590E+02 -0.18911858159E+02 -0.10163655662E+03  0.10772678914E+03  0.00000000000E+00 0. -1.
         -2    1    1    2    0  502  0.30288827590E+02  0.18911858159E+02  0.23692225812E+02  0.42853156473E+02  0.00000000000E+00 0.  1.
<mgrwt>
<rscale>  2 0.35708143E+02</rscale>
<asrwt>0</asrwt>
<pdfrwt beam="2">  1        2 0.17578790E-01 0.35708143E+02</pdfrwt>
<pdfrwt beam="1">  1       -2 0.55873551E-02 0.35708143E+02</pdfrwt>
<totfact> 0.40002221E+04</totfact>
</mgrwt>
</event>
<event>
 4    1  0.7653521E+003  0.2154850E+02  0.7546771E-02  0.1716179E+00
          2   -1    0    0  501    0  0.00000000000E+00  0.00000000000E+00  0.77793420199E+03  0.77793420199E+03  0.00000000000E+00 0. -1.
         -2   -1    0    0    0  501 -0.00000000000E+00 -0.00000000000E+00 -0.28268169759E+01  0.28268169759E+01  0.00000000000E+00 0.  1.
          2    1    1    2  502    0  0.16136407974E+02 -0.14281253674E+02  0.73427857689E+03  0.73459469529E+03  0.00000000000E+00 0. -1.
         -2    1    1    2    0  502 -0.16136407974E+02  0.14281253674E+02  0.40828808116E+02  0.46166323668E+02  0.00000000000E+00 0.  1.
<mgrwt>
<rscale>  2 0.21548500E+02</rscale>
<asrwt>0</asrwt>
<pdfrwt beam="1">  1        2 0.11968201E+00 0.21548500E+02</pdfrwt>
<pdfrwt beam="2">  1       -2 0.43489554E-03 0.21548500E+02</pdfrwt>
<totfact> 0.16858392E+05</totfact>
</mgrwt>
</event>
<event>
 4    1  0.7653521E+003  0.2008904E+02  0.7546771E-02  0.1743563E+00
         -2   -1    0    0    0  501 -0.00000000000E+00  0.00000000000E+00  0.39866452082E+03  0.39866452082E+03  0.00000000000E+00 0. -1.
          2   -1    0    0  501    0  0.00000000000E+00 -0.00000000000E+00 -0.10129142510E+01  0.10129142510E+01  0.00000000000E+00 0. -1.
          2    1    1    2  502    0  0.15695908451E+02  0.12538245685E+02  0.20373636158E+03  0.20472438588E+03  0.00000000000E+00 0. -1.
         -2    1    1    2    0  502 -0.15695908451E+02 -0.12538245685E+02  0.19391524499E+03  0.19495304918E+03  0.00000000000E+00 0. -1.
<mgrwt>
<rscale>  2 0.20089041E+02</rscale>
<asrwt>0</asrwt>
<pdfrwt beam="2">  1        2 0.15583328E-03 0.20089041E+02</pdfrwt>
<pdfrwt beam="1">  1       -2 0.61332878E-01 0.20089041E+02</pdfrwt>
<totfact> 0.26648928E+05</totfact>
</mgrwt>
</event>
<event>
 4    1  0.7653521E+003  0.2797556E+02  0.7546771E-02  0.1621608E+00
          2   -1    0    0  501    0  0.00000000000E+00  0.00000000000E+00  0.12683636182E+03  0.12683636182E+03  0.00000000000E+00 0. -1.
         -2   -1    0    0    0  501 -0.00000000000E+00 -0.00000000000E+00 -0.62088547634E+01  0.62088547634E+01  0.00000000000E+00 0. -1.
          2    1    1    2  502    0  0.24982657088E+02 -0.12589596137E+02  0.55078489013E+02  0.61775974602E+02  0.00000000000E+00 0. -1.
         -2    1    1    2    0  502 -0.24982657088E+02  0.12589596137E+02  0.65549018038E+02  0.71269241976E+02  0.00000000000E+00 0. -1.
<mgrwt>
<rscale>  2 0.27975558E+02</rscale>
<asrwt>0</asrwt>
<pdfrwt beam="1">  1        2 0.19513285E-01 0.27975558E+02</pdfrwt>
<pdfrwt beam="2">  1       -2 0.95520852E-03 0.27975558E+02</pdfrwt>
<totfact> 0.39942589E+05</totfact>
</mgrwt>
</event>
<event>
 4    1  0.7653521E+003  0.2378136E+02  0.7546771E-02  0.1679149E+00
         -2   -1    0    0    0  501 -0.00000000000E+00  0.00000000000E+00  0.32317555986E+02  0.32317555986E+02  0.00000000000E+00 0.  1.
          2   -1    0    0  501    0  0.00000000000E+00 -0.00000000000E+00 -0.25536510364E+02  0.25536510364E+02  0.00000000000E+00 0.  1.
          2    1    1    2  502    0 -0.28215266424E+01  0.23613385382E+02 -0.12837306279E+02  0.27024977600E+02  0.00000000000E+00 0.  1.
         -2    1    1    2    0  502  0.28215266424E+01 -0.23613385382E+02  0.19618351901E+02  0.30829088749E+02  0.00000000000E+00 0.  1.
<mgrwt>
<rscale>  2 0.23781358E+02</rscale>
<asrwt>0</asrwt>
<pdfrwt beam="2">  1        2 0.39286939E-02 0.23781358E+02</pdfrwt>
<pdfrwt beam="1">  1       -2 0.49719317E-02 0.23781358E+02</pdfrwt>
<totfact> 0.25226630E+05</totfact>
</mgrwt>
</event>
<event>
 4    1  0.7653521E+003  0.2568455E+02  0.7546771E-02  0.1651360E+00
         -2   -1    0    0    0  501 -0.00000000000E+00  0.00000000000E+00  0.24775631178E+01  0.24775631178E+01  0.00000000000E+00 0.  1.
          2   -1    0    0  501    0  0.00000000000E+00 -0.00000000000E+00 -0.47329819892E+03  0.47329819892E+03  0.00000000000E+00 0.  1.
          2    1    1    2  502    0 -0.14624152387E+02  0.21114696750E+02 -0.39274393975E+03  0.39358289909E+03  0.00000000000E+00 0.  1.
         -2    1    1    2    0  502  0.14624152387E+02 -0.21114696750E+02 -0.78076696060E+02  0.82192862948E+02  0.00000000000E+00 0.  1.
<mgrwt>
<rscale>  2 0.25684553E+02</rscale>
<asrwt>0</asrwt>
<pdfrwt beam="2">  1        2 0.72815094E-01 0.25684553E+02</pdfrwt>
<pdfrwt beam="1">  1       -2 0.38116363E-03 0.25684553E+02</pdfrwt>
<totfact> 0.35494246E+05</totfact>
</mgrwt>
</event>
<event>
 4    1  0.7653521E+003  0.5783156E+02  0.7546771E-02  0.1407164E+00
         -2   -1    0    0    0  501 -0.00000000000E+00  0.00000000000E+00  0.46056388103E+01  0.46056388103E+01  0.00000000000E+00 0.  1.
          2   -1    0    0  501    0  0.00000000000E+00 -0.00000000000E+00 -0.17341163318E+04  0.17341163318E+04  0.00000000000E+00 0. -1.
          2    1    1    2  502    0  0.57017050964E+02  0.96719076954E+01 -0.15275501895E+04  0.15286445209E+04  0.00000000000E+00 0. -1.
         -2    1    1    2    0  502 -0.57017050964E+02 -0.96719076954E+01 -0.20196050354E+03  0.21007744974E+03  0.00000000000E+00 0.  1.
<mgrwt>
<rscale>  2 0.57831565E+02</rscale>
<asrwt>0</asrwt>
<pdfrwt beam="2">  1        2 0.26678730E+00 0.57831565E+02</pdfrwt>
<pdfrwt beam="1">  1       -2 0.70855935E-03 0.57831565E+02</pdfrwt>
<totfact> 0.32233133E+04</totfact>
</mgrwt>
</event>
<event>
 4    1  0.7653521E+003  0.2044541E+02  0.7546771E-02  0.1736613E+00
         -2   -1    0    0    0  501 -0.00000000000E+00  0.00000000000E+00  0.18776261650E+01  0.18776261650E+01  0.00000000000E+00 0.  1.
          2   -1    0    0  501    0  0.00000000000E+00 -0.00000000000E+00 -0.43688840614E+03  0.43688840614E+03  0.00000000000E+00 0. -1.
          2    1    1    2  502    0  0.58431750699E+01  0.19592656377E+02 -0.37113935405E+03  0.37170207828E+03  0.00000000000E+00 0. -1.
         -2    1    1    2    0  502 -0.58431750699E+01 -0.19592656377E+02 -0.63871425935E+02  0.67063954027E+02  0.00000000000E+00 0.  1.
<mgrwt>
<rscale>  2 0.20445412E+02</rscale>
<asrwt>0</asrwt>
<pdfrwt beam="2">  1        2 0.67213655E-01 0.20445412E+02</pdfrwt>
<pdfrwt beam="1">  1       -2 0.28886533E-03 0.20445412E+02</pdfrwt>
<totfact> 0.52095306E+05</totfact>
</mgrwt>
</event>
<event>
 4    1  0.7653521E+003  0.2680563E+02  0.7546771E-02  0.1636344E+00
         -2   -1    0    0    0  501 -0.00000000000E+00  0.00000000000E+00  0.71486353962E+02  0.71486353962E+02  0.00000000000E+00 0. -1.
          2   -1    0    0  501    0  0.00000000000E+00 -0.00000000000E+00 -0.31578359462E+03  0.31578359462E+03  0.00000000000E+00 0.  1.
          2    1    1    2  502    0 -0.25879995245E+02 -0.69833822433E+01 -0.31267695385E+03  0.31382386661E+03  0.00000000000E+00 0.  1.
         -2    1    1    2    0  502  0.25879995245E+02  0.69833822433E+01  0.68379713193E+02  0.73446081977E+02  0.00000000000E+00 0. -1.
<mgrwt>
<rscale>  2 0.26805630E+02</rscale>
<asrwt>0</asrwt>
<pdfrwt beam="2">  1        2 0.48582091E-01 0.26805630E+02</pdfrwt>
<pdfrwt beam="1">  1       -2 0.10997901E-01 0.26805630E+02</pdfrwt>
<totfact> 0.49292967E+03</totfact>
</mgrwt>
</event>
<event>
 4    1  0.7653521E+003  0.2072938E+02  0.7546771E-02  0.1731201E+00
         -2   -1    0    0    0  501 -0.00000000000E+00  0.00000000000E+00  0.16875688606E+03  0.16875688606E+03  0.00000000000E+00 0. -1.
          2   -1    0    0  501    0  0.00000000000E+00 -0.00000000000E+00 -0.65700275857E+01  0.65700275857E+01  0.00000000000E+00 0. -1.
          2    1    1    2  502    0  0.32919201966E+01  0.20466327751E+02  0.12489537516E+02  0.24201154054E+02  0.00000000000E+00 0. -1.
         -2    1    1    2    0  502 -0.32919201966E+01 -0.20466327751E+02  0.14969732096E+03  0.15112575959E+03  0.00000000000E+00 0. -1.
<mgrwt>
<rscale>  2 0.20729383E+02</rscale>
<asrwt>0</asrwt>
<pdfrwt beam="2">  1        2 0.10107736E-02 0.20729383E+02</pdfrwt>
<pdfrwt beam="1">  1       -2 0.25962595E-01 0.20729383E+02</pdfrwt>
<totfact> 0.11141966E+05</totfact>
</mgrwt>
</event>
<event>
 4    1  0.7653521E+003  0.2498198E+02  0.7546771E-02  0.1661261E+00
          2   -1    0    0  501    0  0.00000000000E+00  0.00000000000E+00  0.45211286924E+03  0.45211286924E+03  0.00000000000E+00 0. -1.
         -2   -1    0    0    0  501 -0.00000000000E+00 -0.00000000000E+00 -0.77751000273E+01  0.77751000273E+01  0.00000000000E+00 0. -1.
          2    1    1    2  502    0 -0.24915663744E+02 -0.18191063374E+01  0.43070387446E+03  0.43142777718E+03  0.00000000000E+00 0. -1.
         -2    1    1    2    0  502  0.24915663744E+02  0.18191063374E+01  0.13633894758E+02  0.28460192092E+02  0.00000000000E+00 0. -1.
<mgrwt>
<rscale>  2 0.24981982E+02</rscale>
<asrwt>0</asrwt>
<pdfrwt beam="1">  1        2 0.69555806E-01 0.24981982E+02</pdfrwt>
<pdfrwt beam="2">  1       -2 0.11961696E-02 0.24981982E+02</pdfrwt>
<totfact> 0.78843035E+04</totfact>
</mgrwt>
</event>
<event>
 4    1  0.7653521E+003  0.3120386E+02  0.7546771E-02  0.1585150E+00
         -2   -1    0    0    0  501 -0.00000000000E+00  0.00000000000E+00  0.21689198015E+03  0.21689198015E+03  0.00000000000E+00 0.  1.
          2   -1    0    0  501    0  0.00000000000E+00 -0.00000000000E+00 -0.64889031366E+02  0.64889031366E+02  0.00000000000E+00 0. -1.
          2    1    1    2  502    0 -0.11051223580E+02 -0.29181354851E+02 -0.59928046913E+02  0.67565167212E+02  0.00000000000E+00 0. -1.
         -2    1    1    2    0  502  0.11051223580E+02  0.29181354851E+02  0.21193099570E+03  0.21421584430E+03  0.00000000000E+00 0.  1.
<mgrwt>
<rscale>  2 0.31203862E+02</rscale>
<asrwt>0</asrwt>
<pdfrwt beam="2">  1        2 0.99829280E-02 0.31203862E+02</pdfrwt>
<pdfrwt beam="1">  1       -2 0.33367997E-01 0.31203862E+02</pdfrwt>
<totfact> 0.44699818E+03</totfact>
</mgrwt>
</event>
<event>
 4    1  0.7653521E+003  0.2642151E+02  0.7546771E-02  0.1641385E+00
         -2   -1    0    0    0  501 -0.00000000000E+00  0.00000000000E+00  0.15238032174E+03  0.15238032174E+03  0.00000000000E+00 0. -1.
          2   -1    0    0  501    0  0.00000000000E+00 -0.00000000000E+00 -0.30018883514E+02  0.30018883514E+02  0.00000000000E+00 0. -1.
          2    1    1    2  502    0  0.56814773105E+01  0.25803430955E+02 -0.22771815729E+02  0.34880536479E+02  0.00000000000E+00 0. -1.
         -2    1    1    2    0  502 -0.56814773105E+01 -0.25803430955E+02  0.14513325395E+03  0.14751866877E+03  0.00000000000E+00 0. -1.
<mgrwt>
<rscale>  2 0.26421511E+02</rscale>
<asrwt>0</asrwt>
<pdfrwt beam="2">  1        2 0.46182899E-02 0.26421511E+02</pdfrwt>
<pdfrwt beam="1">  1       -2 0.23443126E-01 0.26421511E+02</pdfrwt>
<totfact> 0.20162966E+04</totfact>
</mgrwt>
</event>
<event>
 4    1  0.7653521E+003  0.2624069E+02  0.7546771E-02  0.1643795E+00
          2   -1    0    0  501    0  0.00000000000E+00  0.00000000000E+00  0.71595398739E+01  0.71595398739E+01  0.00000000000E+00 0.  1.
         -2   -1    0    0    0  501 -0.00000000000E+00 -0.00000000000E+00 -0.48315165987E+03  0.48315165987E+03  0.00000000000E+00 0.  1.
          2    1    1    2  502    0 -0.23806544497E+02 -0.11037307370E+02 -0.18593305068E+02  0.32160297079E+02  0.00000000000E+00 0.  1.
         -2    1    1    2    0  502  0.23806544497E+02  0.11037307370E+02 -0.45739881492E+03  0.45815090266E+03  0.00000000000E+00 0.  1.
<mgrwt>
<rscale>  2 0.26240688E+02</rscale>
<asrwt>0</asrwt>
<pdfrwt beam="1">  1        2 0.11014672E-02 0.26240688E+02</pdfrwt>
<pdfrwt beam="2">  1       -2 0.74331054E-01 0.26240688E+02</pdfrwt>
<totfact> 0.14958690E+04</totfact>
</mgrwt>
</event>
<event>
 4    1  0.7653521E+003  0.3408939E+02  0.7546771E-02  0.1556839E+00
         -2   -1    0    0    0  501 -0.00000000000E+00  0.00000000000E+00  0.10162854633E+03  0.10162854633E+03  0.00000000000E+00 0.  1.
          2   -1    0    0  501    0  0.00000000000E+00 -0.00000000000E+00 -0.23260940942E+03  0.23260940942E+03  0.00000000000E+00 0. -1.
          2    1    1    2  502    0  0.73585545572E+01 -0.33285701792E+02 -0.22845001989E+03  0.23097943167E+03  0.00000000000E+00 0. -1.
         -2    1    1    2    0  502 -0.73585545572E+01  0.33285701792E+02  0.97469156800E+02  0.10325852409E+03  0.00000000000E+00 0.  1.
<mgrwt>
<rscale>  2 0.34089386E+02</rscale>
<asrwt>0</asrwt>
<pdfrwt beam="2">  1        2 0.35786062E-01 0.34089386E+02</pdfrwt>
<pdfrwt beam="1">  1       -2 0.15635161E-01 0.34089386E+02</pdfrwt>
<totfact> 0.39879301E+03</totfact>
</mgrwt>
</event>
<event>
 4    1  0.7653521E+003  0.2025098E+02  0.7546771E-02  0.1740383E+00
         -2   -1    0    0    0  501 -0.00000000000E+00  0.00000000000E+00  0.87578695525E+01  0.87578695525E+01  0.00000000000E+00 0. -1.
          2   -1    0    0  501    0  0.00000000000E+00 -0.00000000000E+00 -0.76349393080E+03  0.76349393080E+03  0.00000000000E+00 0.  1.
          2    1    1    2  502    0 -0.14075291347E+02 -0.14559823533E+02 -0.75146561795E+03  0.75173843673E+03  0.00000000000E+00 0.  1.
         -2    1    1    2    0  502  0.14075291347E+02  0.14559823533E+02 -0.32704432927E+01  0.20513363623E+02  0.00000000000E+00 0. -1.
<mgrwt>
<rscale>  2 0.20250982E+02</rscale>
<asrwt>0</asrwt>
<pdfrwt beam="2">  1        2 0.11746060E+00 0.20250982E+02</pdfrwt>
<pdfrwt beam="1">  1       -2 0.13473647E-02 0.20250982E+02</pdfrwt>
<totfact> 0.37232612E+04</totfact>
</mgrwt>
</event>
<event>
 4    1  0.7653521E+003  0.5715068E+02  0.7546771E-02  0.1410193E+00
          2   -1    0    0  501    0  0.00000000000E+00  0.00000000000E+00  0.78570330026E+03  0.78570330026E+03  0.00000000000E+00 0. -1.
         -2   -1    0    0    0  501 -0.00000000000E+00 -0.00000000000E+00 -0.43647368712E+01  0.43647368712E+01  0.00000000000E+00 0.  1.
          2    1    1    2  502    0 -0.51262952615E+02  0.25264806294E+02  0.47684194348E+03  0.48025455730E+03  0.00000000000E+00 0. -1.
         -2    1    1    2    0  502  0.51262952615E+02 -0.25264806294E+02  0.30449661991E+03  0.30981347983E+03  0.00000000000E+00 0.  1.
<mgrwt>
<rscale>  2 0.57150685E+02</rscale>
<asrwt>0</asrwt>
<pdfrwt beam="1">  1        2 0.12087732E+00 0.57150685E+02</pdfrwt>
<pdfrwt beam="2">  1       -2 0.67149860E-03 0.57150685E+02</pdfrwt>
<totfact> 0.11217144E+05</totfact>
</mgrwt>
</event>
<event>
 4    1  0.7653521E+003  0.2062556E+02  0.7546771E-02  0.1733167E+00
         -2   -1    0    0    0  501 -0.00000000000E+00  0.00000000000E+00  0.19795883143E+01  0.19795883143E+01  0.00000000000E+00 0.  1.
          2   -1    0    0  501    0  0.00000000000E+00 -0.00000000000E+00 -0.12761830988E+04  0.12761830988E+04  0.00000000000E+00 0.  1.
          2    1    1    2  502    0  0.19196860009E+02 -0.75428277736E+01 -0.12198959983E+04  0.12200703506E+04  0.00000000000E+00 0.  1.
         -2    1    1    2    0  502 -0.19196860009E+02  0.75428277736E+01 -0.54307512224E+02  0.58092336578E+02  0.00000000000E+00 0.  1.
<mgrwt>
<rscale>  2 0.20625559E+02</rscale>
<asrwt>0</asrwt>
<pdfrwt beam="2">  1        2 0.19633612E+00 0.20625559E+02</pdfrwt>
<pdfrwt beam="1">  1       -2 0.30455165E-03 0.20625559E+02</pdfrwt>
<totfact> 0.14431299E+05</totfact>
</mgrwt>
</event>
<event>
 4    1  0.7653521E+003  0.2857588E+02  0.7546771E-02  0.1614386E+00
         -2   -1    0    0    0  501 -0.00000000000E+00  0.00000000000E+00  0.18356879634E+03  0.18356879634E+03  0.00000000000E+00 0. -1.
          2   -1    0    0  501    0  0.00000000000E+00 -0.00000000000E+00 -0.76753159490E+02  0.76753159490E+02  0.00000000000E+00 0.  1.
          2    1    1    2  502    0  0.27331630934E+02  0.83404393202E+01 -0.72925010260E+02  0.78323930564E+02  0.00000000000E+00 0.  1.
         -2    1    1    2    0  502 -0.27331630934E+02 -0.83404393202E+01  0.17974064711E+03  0.18199802527E+03  0.00000000000E+00 0. -1.
<mgrwt>
<rscale>  2 0.28575881E+02</rscale>
<asrwt>0</asrwt>
<pdfrwt beam="2">  1        2 0.11808178E-01 0.28575881E+02</pdfrwt>
<pdfrwt beam="1">  1       -2 0.28241353E-01 0.28575881E+02</pdfrwt>
<totfact> 0.48696236E+03</totfact>
</mgrwt>
</event>
<event>
 4    1  0.7653521E+003  0.7554937E+02  0.7546771E-02  0.1342178E+00
          2   -1    0    0  501    0  0.00000000000E+00  0.00000000000E+00  0.25018595124E+02  0.25018595124E+02  0.00000000000E+00 0.  1.
         -2   -1    0    0    0  501 -0.00000000000E+00 -0.00000000000E+00 -0.22891164502E+03  0.22891164502E+03  0.00000000000E+00 0.  1.
          2    1    1    2  502    0 -0.22375668117E+02  0.72159795328E+02 -0.94568153488E+02  0.12104066358E+03  0.00000000000E+00 0.  1.
         -2    1    1    2    0  502  0.22375668117E+02 -0.72159795328E+02 -0.10932489641E+03  0.13288957657E+03  0.00000000000E+00 0.  1.
<mgrwt>
<rscale>  2 0.75549365E+02</rscale>
<asrwt>0</asrwt>
<pdfrwt beam="1">  1        2 0.38490144E-02 0.75549365E+02</pdfrwt>
<pdfrwt beam="2">  1       -2 0.35217178E-01 0.75549365E+02</pdfrwt>
<totfact> 0.14733909E+04</totfact>
</mgrwt>
</event>
<event>
 4    1  0.7653521E+003  0.2000219E+02  0.7546771E-02  0.1745285E+00
          2   -1    0    0  501    0  0.00000000000E+00  0.00000000000E+00  0.11719060547E+01  0.11719060547E+01  0.00000000000E+00 0. -1.
         -2   -1    0    0    0  501 -0.00000000000E+00 -0.00000000000E+00 -0.38839148812E+03  0.38839148812E+03  0.00000000000E+00 0.  1.
          2    1    1    2  502    0  0.10383814871E+02 -0.17095725752E+02 -0.12585688501E+03  0.12743642711E+03  0.00000000000E+00 0. -1.
         -2    1    1    2    0  502 -0.10383814871E+02  0.17095725752E+02 -0.26136269705E+03  0.26212696706E+03  0.00000000000E+00 0.  1.
<mgrwt>
<rscale>  2 0.20002186E+02</rscale>
<asrwt>0</asrwt>
<pdfrwt beam="1">  1        2 0.18029316E-03 0.20002186E+02</pdfrwt>
<pdfrwt beam="2">  1       -2 0.59752562E-01 0.20002186E+02</pdfrwt>
<totfact> 0.23161141E+05</totfact>
</mgrwt>
</event>
<event>
 4    1  0.7653521E+003  0.2104590E+02  0.7546771E-02  0.1725295E+00
          2   -1    0    0  501    0  0.00000000000E+00  0.00000000000E+00  0.23920557875E+02  0.23920557875E+02  0.00000000000E+00 0.  1.
         -2   -1    0    0    0  501 -0.00000000000E+00 -0.00000000000E+00 -0.18556805772E+02  0.18556805772E+02  0.00000000000E+00 0.  1.
          2    1    1    2  502    0 -0.85176697245E+01 -0.19245233350E+02  0.36692910221E+01  0.21363365859E+02  0.00000000000E+00 0.  1.
         -2    1    1    2    0  502  0.85176697245E+01  0.19245233350E+02  0.16944610806E+01  0.21113997788E+02  0.00000000000E+00 0.  1.
<mgrwt>
<rscale>  2 0.21045895E+02</rscale>
<asrwt>0</asrwt>
<pdfrwt beam="1">  1        2 0.36800858E-02 0.21045895E+02</pdfrwt>
<pdfrwt beam="2">  1       -2 0.28548932E-02 0.21045895E+02</pdfrwt>
<totfact> 0.57298590E+05</totfact>
</mgrwt>
</event>
<event>
 4    1  0.7653521E+003  0.2530751E+02  0.7546771E-02  0.1656624E+00
         -2   -1    0    0    0  501 -0.00000000000E+00  0.00000000000E+00  0.42942055145E+02  0.42942055145E+02  0.00000000000E+00 0.  1.
          2   -1    0    0  501    0  0.00000000000E+00 -0.00000000000E+00 -0.27486917082E+03  0.27486917082E+03  0.00000000000E+00 0. -1.
          2    1    1    2  502    0 -0.13789572018E+02 -0.21220696928E+02 -0.27049783338E+03  0.27167912717E+03  0.00000000000E+00 0. -1.
         -2    1    1    2    0  502  0.13789572018E+02  0.21220696928E+02  0.38570717710E+02  0.46132098795E+02  0.00000000000E+00 0.  1.
<mgrwt>
<rscale>  2 0.25307514E+02</rscale>
<asrwt>0</asrwt>
<pdfrwt beam="2">  1        2 0.42287565E-01 0.25307514E+02</pdfrwt>
<pdfrwt beam="1">  1       -2 0.66064700E-02 0.25307514E+02</pdfrwt>
<totfact> 0.11923328E+04</totfact>
</mgrwt>
</event>
<event>
 4    1  0.7653521E+003  0.2225794E+02  0.7546771E-02  0.1703829E+00
         -2   -1    0    0    0  501 -0.00000000000E+00  0.00000000000E+00  0.76499290918E+01  0.76499290918E+01  0.00000000000E+00 0.  1.
          2   -1    0    0  501    0  0.00000000000E+00 -0.00000000000E+00 -0.24451192924E+03  0.24451192924E+03  0.00000000000E+00 0. -1.
          2    1    1    2  502    0  0.22253693860E+02  0.43476700571E+00 -0.22653334820E+03  0.22762419414E+03  0.00000000000E+00 0. -1.
         -2    1    1    2    0  502 -0.22253693860E+02 -0.43476700571E+00 -0.10328651949E+02  0.24537664189E+02  0.00000000000E+00 0.  1.
<mgrwt>
<rscale>  2 0.22257940E+02</rscale>
<asrwt>0</asrwt>
<pdfrwt beam="2">  1        2 0.37617223E-01 0.22257940E+02</pdfrwt>
<pdfrwt beam="1">  1       -2 0.11769121E-02 0.22257940E+02</pdfrwt>
<totfact> 0.14407170E+05</totfact>
</mgrwt>
</event>
<event>
 4    1  0.7653521E+003  0.2573499E+02  0.7546771E-02  0.1650664E+00
          2   -1    0    0  501    0  0.00000000000E+00  0.00000000000E+00  0.12792363154E+02  0.12792363154E+02  0.00000000000E+00 0. -1.
         -2   -1    0    0    0  501 -0.00000000000E+00 -0.00000000000E+00 -0.51772778058E+02  0.51772778058E+02  0.00000000000E+00 0. -1.
          2    1    1    2  502    0  0.25683434149E+02  0.16279065716E+01 -0.19597450552E+02  0.32347317317E+02  0.00000000000E+00 0. -1.
         -2    1    1    2    0  502 -0.25683434149E+02 -0.16279065716E+01 -0.19382964352E+02  0.32217823895E+02  0.00000000000E+00 0. -1.
<mgrwt>
<rscale>  2 0.25734987E+02</rscale>
<asrwt>0</asrwt>
<pdfrwt beam="1">  1        2 0.19680559E-02 0.25734987E+02</pdfrwt>
<pdfrwt beam="2">  1       -2 0.79650427E-02 0.25734987E+02</pdfrwt>
<totfact> 0.31404381E+05</totfact>
</mgrwt>
</event>
<event>
 4    1  0.7653521E+003  0.2195511E+02  0.7546771E-02  0.1709029E+00
          2   -1    0    0  501    0  0.00000000000E+00  0.00000000000E+00  0.11860501201E+01  0.11860501201E+01  0.00000000000E+00 0. -1.
         -2   -1    0    0    0  501 -0.00000000000E+00 -0.00000000000E+00 -0.94065435905E+03  0.94065435905E+03  0.00000000000E+00 0. -1.
          2    1    1    2  502    0  0.18455664258E+02 -0.11891821578E+02 -0.11483842363E+03  0.11691830698E+03  0.00000000000E+00 0. -1.
         -2    1    1    2    0  502 -0.18455664258E+02  0.11891821578E+02 -0.82462988530E+03  0.82492210219E+03  0.00000000000E+00 0. -1.
<mgrwt>
<rscale>  2 0.21955112E+02</rscale>
<asrwt>0</asrwt>
<pdfrwt beam="1">  1        2 0.18246849E-03 0.21955112E+02</pdfrwt>
<pdfrwt beam="2">  1       -2 0.14471666E+00 0.21955112E+02</pdfrwt>
<totfact> 0.34079608E+04</totfact>
</mgrwt>
</event>
<event>
 4    1  0.7653521E+003  0.2477213E+02  0.7546771E-02  0.1664297E+00
         -2   -1    0    0    0  501 -0.00000000000E+00  0.00000000000E+00  0.15578818214E+02  0.15578818214E+02  0.00000000000E+00 0. -1.
          2   -1    0    0  501    0  0.00000000000E+00 -0.00000000000E+00 -0.26935544209E+03  0.26935544209E+03  0.00000000000E+00 0.  1.
          2    1    1    2  502    0  0.10002067107E+02  0.22663121320E+02 -0.25852670020E+03  0.25971082598E+03  0.00000000000E+00 0.  1.
         -2    1    1    2    0  502 -0.10002067107E+02 -0.22663121320E+02  0.47500763196E+01  0.25223434330E+02  0.00000000000E+00 0. -1.
<mgrwt>
<rscale>  2 0.24772130E+02</rscale>
<asrwt>0</asrwt>
<pdfrwt beam="2">  1        2 0.41439298E-01 0.24772130E+02</pdfrwt>
<pdfrwt beam="1">  1       -2 0.23967413E-02 0.24772130E+02</pdfrwt>
<totfact> 0.50714654E+04</totfact>
</mgrwt>
</event>
<event>
 4    1  0.7653521E+003  0.2573331E+02  0.7546771E-02  0.1650687E+00
         -2   -1    0    0    0  501 -0.00000000000E+00  0.00000000000E+00  0.12024068914E+03  0.12024068914E+03  0.00000000000E+00 0. -1.
          2   -1    0    0  501    0  0.00000000000E+00 -0.00000000000E+00 -0.66810306060E+01  0.66810306060E+01  0.00000000000E+00 0. -1.
          2    1    1    2  502    0  0.20930244136E+02  0.14970911267E+02  0.30180803277E+02  0.39662125387E+02  0.00000000000E+00 0. -1.
         -2    1    1    2    0  502 -0.20930244136E+02 -0.14970911267E+02  0.83378855256E+02  0.87259594358E+02  0.00000000000E+00 0. -1.
<mgrwt>
<rscale>  2 0.25733311E+02</rscale>
<asrwt>0</asrwt>
<pdfrwt beam="2">  1        2 0.10278510E-02 0.25733311E+02</pdfrwt>
<pdfrwt beam="1">  1       -2 0.18498566E-01 0.25733311E+02</pdfrwt>
<totfact> 0.20173668E+05</totfact>
</mgrwt>
</event>
<event>
 4    1  0.7653521E+003  0.2630257E+02  0.7546771E-02  0.1642968E+00
          2   -1    0    0  501    0  0.00000000000E+00  0.00000000000E+00  0.11062059799E+04  0.11062059799E+04  0.00000000000E+00 0. -1.
         -2   -1    0    0    0  501 -0.00000000000E+00 -0.00000000000E+00 -0.12169366206E+02  0.12169366206E+02  0.00000000000E+00 0. -1.
          2    1    1    2  502    0 -0.66024312217E+01  0.25460417671E+02  0.10916476906E+04  0.10919645165E+04  0.00000000000E+00 0. -1.
         -2    1    1    2    0  502  0.66024312217E+01 -0.25460417671E+02  0.23889231059E+01  0.26410829590E+02  0.00000000000E+00 0. -1.
<mgrwt>
<rscale>  2 0.26302566E+02</rscale>
<asrwt>0</asrwt>
<pdfrwt beam="1">  1        2 0.17018546E+00 0.26302566E+02</pdfrwt>
<pdfrwt beam="2">  1       -2 0.18722111E-02 0.26302566E+02</pdfrwt>
<totfact> 0.15839407E+04</totfact>
</mgrwt>
</event>
<event>
 4    1  0.7653521E+003  0.2107397E+02  0.7546771E-02  0.1724777E+00
          2   -1    0    0  501    0  0.00000000000E+00  0.00000000000E+00  0.91655306938E+02  0.91655306938E+02  0.00000000000E+00 0.  1.
         -2   -1    0    0    0  501 -0.00000000000E+00 -0.00000000000E+00 -0.50313791238E+01  0.50313791238E+01  0.00000000000E+00 0.  1.
          2    1    1    2  502    0  0.18899306343E+02 -0.93235387565E+01  0.52604939286E+02  0.56669143213E+02  0.00000000000E+00 0.  1.
         -2    1    1    2    0  502 -0.18899306343E+02  0.93235387565E+01  0.34018988528E+02  0.40017542849E+02  0.00000000000E+00 0.  1.
<mgrwt>
<rscale>  2 0.21073969E+02</rscale>
<asrwt>0</asrwt>
<pdfrwt beam="1">  1        2 0.14100815E-01 0.21073969E+02</pdfrwt>
<pdfrwt beam="2">  1       -2 0.77405839E-03 0.21073969E+02</pdfrwt>
<totfact> 0.69294397E+05</totfact>
</mgrwt>
</event>
<event>
 4    1  0.7653521E+003  0.2012553E+02  0.7546771E-02  0.1742843E+00
          2   -1    0    0  501    0  0.00000000000E+00  0.00000000000E+00  0.21931229994E+04  0.21931229994E+04  0.00000000000E+00 0.  1.
         -2   -1    0    0    0  501 -0.00000000000E+00 -0.00000000000E+00 -0.18651745810E+00  0.18651745810E+00  0.00000000000E+00 0.  1.
          2    1    1    2  502    0  0.18459282259E+02  0.80182324864E+01  0.12051645114E+04  0.12053325420E+04  0.00000000000E+00 0.  1.
         -2    1    1    2    0  502 -0.18459282259E+02 -0.80182324864E+01  0.98777197058E+03  0.98797697494E+03  0.00000000000E+00 0.  1.
<mgrwt>
<rscale>  2 0.20125535E+02</rscale>
<asrwt>0</asrwt>
<pdfrwt beam="1">  1        2 0.33738289E+00 0.20125535E+02</pdfrwt>
<pdfrwt beam="2">  1       -2 0.28696750E-04 0.20125535E+02</pdfrwt>
<totfact> 0.11893216E+06</totfact>
</mgrwt>
</event>
<event>
 4    1  0.7653521E+003  0.2586655E+02  0.7546771E-02  0.1648858E+00
          2   -1    0    0  501    0  0.00000000000E+00  0.00000000000E+00  0.15728874529E+04  0.15728874529E+04  0.00000000000E+00 0. -1.
         -2   -1    0    0    0  501 -0.00000000000E+00 -0.00000000000E+00 -0.97172168546E+00  0.97172168546E+00  0.00000000000E+00 0. -1.
          2    1    1    2  502    0 -0.14143574735E+02 -0.21657283921E+02  0.13760178164E+04  0.13762609163E+04  0.00000000000E+00 0. -1.
         -2    1    1    2    0  502  0.14143574735E+02  0.21657283921E+02  0.19589791476E+03  0.19759825825E+03  0.00000000000E+00 0. -1.
<mgrwt>
<rscale>  2 0.25866555E+02</rscale>
<asrwt>0</asrwt>
<pdfrwt beam="1">  1        2 0.24198065E+00 0.25866555E+02</pdfrwt>
<pdfrwt beam="2">  1       -2 0.14949690E-03 0.25866555E+02</pdfrwt>
<totfact> 0.28147462E+05</totfact>
</mgrwt>
</event>
<event>
 4    1  0.7653521E+003  0.2110206E+02  0.7546771E-02  0.1724261E+00
          2   -1    0    0  501    0  0.00000000000E+00  0.00000000000E+00  0.11757196413E+04  0.11757196413E+04  0.00000000000E+00 0. -1.
         -2   -1    0    0    0  501 -0.00000000000E+00 -0.00000000000E+00 -0.98451255260E+00  0.98451255260E+00  0.00000000000E+00 0. -1.
          2    1    1    2  502    0  0.21082475161E+02 -0.90902711716E+00  0.10488762974E+04  0.10490885494E+04  0.00000000000E+00 0. -1.
         -2    1    1    2    0  502 -0.21082475161E+02  0.90902711716E+00  0.12585883130E+03  0.12761560447E+03  0.00000000000E+00 0. -1.
<mgrwt>
<rscale>  2 0.21102064E+02</rscale>
<asrwt>0</asrwt>
<pdfrwt beam="1">  1        2 0.18087882E+00 0.21102064E+02</pdfrwt>
<pdfrwt beam="2">  1       -2 0.15146441E-03 0.21102064E+02</pdfrwt>
<totfact> 0.40940220E+05</totfact>
</mgrwt>
</event>
<event>
 4    1  0.7653521E+003  0.2687057E+02  0.7546771E-02  0.1635502E+00
         -2   -1    0    0    0  501 -0.00000000000E+00  0.00000000000E+00  0.20744467031E+02  0.20744467031E+02  0.00000000000E+00 0. -1.
          2   -1    0    0  501    0  0.00000000000E+00 -0.00000000000E+00 -0.49102463852E+02  0.49102463852E+02  0.00000000000E+00 0.  1.
          2    1    1    2  502    0 -0.37723476172E+01 -0.26604454346E+02 -0.33023435519E+02  0.42574345457E+02  0.00000000000E+00 0.  1.
         -2    1    1    2    0  502  0.37723476172E+01  0.26604454346E+02  0.46654386976E+01  0.27272585426E+02  0.00000000000E+00 0. -1.
<mgrwt>
<rscale>  2 0.26870571E+02</rscale>
<asrwt>0</asrwt>
<pdfrwt beam="2">  1        2 0.75542251E-02 0.26870571E+02</pdfrwt>
<pdfrwt beam="1">  1       -2 0.31914565E-02 0.26870571E+02</pdfrwt>
<totfact> 0.21961089E+05</totfact>
</mgrwt>
</event>
<event>
 4    1  0.7653521E+003  0.2064391E+02  0.7546771E-02  0.1732818E+00
          2   -1    0    0  501    0  0.00000000000E+00  0.00000000000E+00  0.39841962724E+03  0.39841962724E+03  0.00000000000E+00 0.  1.
         -2   -1    0    0    0  501 -0.00000000000E+00 -0.00000000000E+00 -0.67817057672E+01  0.67817057672E+01  0.00000000000E+00 0. -1.
          2    1    1    2  502    0 -0.18537589215E+02  0.90845268713E+01  0.38175667786E+03  0.38231444118E+03  0.00000000000E+00 0.  1.
         -2    1    1    2    0  502  0.18537589215E+02 -0.90845268713E+01  0.98812436167E+01  0.22886891833E+02  0.00000000000E+00 0. -1.
<mgrwt>
<rscale>  2 0.20643906E+02</rscale>
<asrwt>0</asrwt>
<pdfrwt beam="1">  1        2 0.61295309E-01 0.20643906E+02</pdfrwt>
<pdfrwt beam="2">  1       -2 0.10433397E-02 0.20643906E+02</pdfrwt>
<totfact> 0.10297591E+05</totfact>
</mgrwt>
</event>
<event>
 4    1  0.7653521E+003  0.2481846E+02  0.7546771E-02  0.1663623E+00
         -2   -1    0    0    0  501 -0.00000000000E+00  0.00000000000E+00  0.80690728606E+00  0.80690728606E+00  0.00000000000E+00 0.  1.
          2   -1    0    0  501    0  0.00000000000E+00 -0.00000000000E+00 -0.80380291103E+03  0.80380291103E+03  0.00000000000E+00 0.  1.
          2    1    1    2  502    0  0.22838990691E+02 -0.97127035650E+01 -0.49174496956E+03  0.49237086753E+03  0.00000000000E+00 0.  1.
         -2    1    1    2    0  502 -0.22838990691E+02  0.97127035650E+01 -0.31125103418E+03  0.31223895079E+03  0.00000000000E+00 0.  1.
<mgrwt>
<rscale>  2 0.24818463E+02</rscale>
<asrwt>0</asrwt>
<pdfrwt beam="2">  1        2 0.12366228E+00 0.24818463E+02</pdfrwt>
<pdfrwt beam="1">  1       -2 0.12413928E-03 0.24818463E+02</pdfrwt>
<totfact> 0.89185923E+05</totfact>
</mgrwt>
</event>
<event>
 4    1  0.7653521E+003  0.2494880E+02  0.7546771E-02  0.1661738E+00
         -2   -1    0    0    0  501 -0.00000000000E+00  0.00000000000E+00  0.26908022567E+02  0.26908022567E+02  0.00000000000E+00 0. -1.
          2   -1    0    0  501    0  0.00000000000E+00 -0.00000000000E+00 -0.68394722372E+02  0.68394722372E+02  0.00000000000E+00 0.  1.
          2    1    1    2  502    0  0.23395188836E+02 -0.86664706430E+01 -0.59507775170E+02  0.64526102313E+02  0.00000000000E+00 0.  1.
         -2    1    1    2    0  502 -0.23395188836E+02  0.86664706430E+01  0.18021075365E+02  0.30776642626E+02  0.00000000000E+00 0. -1.
<mgrwt>
<rscale>  2 0.24948799E+02</rscale>
<asrwt>0</asrwt>
<pdfrwt beam="2">  1        2 0.10522265E-01 0.24948799E+02</pdfrwt>
<pdfrwt beam="1">  1       -2 0.41396958E-02 0.24948799E+02</pdfrwt>
<totfact> 0.10145900E+05</totfact>
</mgrwt>
</event>
<event>
 4    1  0.7653521E+003  0.5166528E+02  0.7546771E-02  0.1436561E+00
         -2   -1    0    0    0  501 -0.00000000000E+00  0.00000000000E+00  0.11582050286E+03  0.11582050286E+03  0.00000000000E+00 0.  1.
          2   -1    0    0  501    0  0.00000000000E+00 -0.00000000000E+00 -0.42596833975E+02  0.42596833975E+02  0.00000000000E+00 0.  1.
          2    1    1    2  502    0 -0.51144104140E+02 -0.73199510208E+01 -0.17048940071E+02  0.54405582698E+02  0.00000000000E+00 0.  1.
         -2    1    1    2    0  502  0.51144104140E+02  0.73199510208E+01  0.90272608960E+02  0.10401175414E+03  0.00000000000E+00 0.  1.
<mgrwt>
<rscale>  2 0.51665279E+02</rscale>
<asrwt>0</asrwt>
<pdfrwt beam="2">  1        2 0.65533591E-02 0.51665279E+02</pdfrwt>
<pdfrwt beam="1">  1       -2 0.17818539E-01 0.51665279E+02</pdfrwt>
<totfact> 0.22924547E+04</totfact>
</mgrwt>
</event>
<event>
 4    1  0.7653521E+003  0.2536561E+02  0.7546771E-02  0.1655805E+00
          2   -1    0    0  501    0  0.00000000000E+00  0.00000000000E+00  0.20471783999E+03  0.20471783999E+03  0.00000000000E+00 0. -1.
         -2   -1    0    0    0  501 -0.00000000000E+00 -0.00000000000E+00 -0.10576204538E+02  0.10576204538E+02  0.00000000000E+00 0. -1.
          2    1    1    2  502    0 -0.21616652636E+02  0.13271576097E+02  0.18731664004E+03  0.18902628928E+03  0.00000000000E+00 0. -1.
         -2    1    1    2    0  502  0.21616652636E+02 -0.13271576097E+02  0.68249954111E+01  0.26267755246E+02  0.00000000000E+00 0. -1.
<mgrwt>
<rscale>  2 0.25365615E+02</rscale>
<asrwt>0</asrwt>
<pdfrwt beam="1">  1        2 0.31495049E-01 0.25365615E+02</pdfrwt>
<pdfrwt beam="2">  1       -2 0.16271085E-02 0.25365615E+02</pdfrwt>
<totfact> 0.11435469E+05</totfact>
</mgrwt>
</event>
<event>
 4    1  0.7653521E+003  0.2418427E+02  0.7546771E-02  0.1673003E+00
         -2   -1    0    0    0  501 -0.00000000000E+00  0.00000000000E+00  0.57154915673E+01  0.57154915673E+01  0.00000000000E+00 0. -1.
          2   -1    0    0  501    0  0.00000000000E+00 -0.00000000000E+00 -0.26119716577E+03  0.26119716577E+03  0.00000000000E+00 0.  1.
          2    1    1    2  502    0 -0.67552284912E+01  0.23221663840E+02 -0.23182125332E+03  0.23307932614E+03  0.00000000000E+00 0.  1.
         -2    1    1    2    0  502  0.67552284912E+01 -0.23221663840E+02 -0.23660420882E+02  0.33833331196E+02  0.00000000000E+00 0. -1.
<mgrwt>
<rscale>  2 0.24184267E+02</rscale>
<asrwt>0</asrwt>
<pdfrwt beam="2">  1        2 0.40184195E-01 0.24184267E+02</pdfrwt>
<pdfrwt beam="1">  1       -2 0.87930605E-03 0.24184267E+02</pdfrwt>
<totfact> 0.20454269E+05</totfact>
</mgrwt>
</event>
<event>
 4    1  0.7653521E+003  0.2204063E+02  0.7546771E-02  0.1707550E+00
         -2   -1    0    0    0  501 -0.00000000000E+00  0.00000000000E+00  0.26154441047E+01  0.26154441047E+01  0.00000000000E+00 0. -1.
          2   -1    0    0  501    0  0.00000000000E+00 -0.00000000000E+00 -0.18670728059E+03  0.18670728059E+03  0.00000000000E+00 0.  1.
          2    1    1    2  502    0 -0.54603895768E+01 -0.21353536227E+02 -0.98863728881E+02  0.10129080043E+03  0.00000000000E+00 0. -1.
         -2    1    1    2    0  502  0.54603895768E+01  0.21353536227E+02 -0.85228107609E+02  0.88031924268E+02  0.00000000000E+00 0.  1.
<mgrwt>
<rscale>  2 0.22040630E+02</rscale>
<asrwt>0</asrwt>
<pdfrwt beam="2">  1        2 0.28724203E-01 0.22040630E+02</pdfrwt>
<pdfrwt beam="1">  1       -2 0.40237593E-03 0.22040630E+02</pdfrwt>
<totfact> 0.79593423E+05</totfact>
</mgrwt>
</event>
<event>
 4    1  0.7653521E+003  0.2054793E+02  0.7546771E-02  0.1734646E+00
          2   -1    0    0  501    0  0.00000000000E+00  0.00000000000E+00  0.59117534111E+03  0.59117534111E+03  0.00000000000E+00 0.  1.
         -2   -1    0    0    0  501 -0.00000000000E+00 -0.00000000000E+00 -0.45829096814E+02  0.45829096814E+02  0.00000000000E+00 0.  1.
          2    1    1    2  502    0  0.51556721637E+00  0.20541463781E+02  0.58868382834E+03  0.58904233065E+03  0.00000000000E+00 0.  1.
         -2    1    1    2    0  502 -0.51556721637E+00 -0.20541463781E+02 -0.43337584043E+02  0.47962107278E+02  0.00000000000E+00 0.  1.
<mgrwt>
<rscale>  2 0.20547933E+02</rscale>
<asrwt>0</asrwt>
<pdfrwt beam="1">  1        2 0.90950047E-01 0.20547933E+02</pdfrwt>
<pdfrwt beam="2">  1       -2 0.70506307E-02 0.20547933E+02</pdfrwt>
<totfact> 0.49221326E+03</totfact>
</mgrwt>
</event>
<event>
 4    1  0.7653521E+003  0.2311336E+02  0.7546771E-02  0.1689679E+00
          2   -1    0    0  501    0  0.00000000000E+00  0.00000000000E+00  0.18268985516E+03  0.18268985516E+03  0.00000000000E+00 0. -1.
         -2   -1    0    0    0  501 -0.00000000000E+00 -0.00000000000E+00 -0.30534677987E+01  0.30534677987E+01  0.00000000000E+00 0. -1.
          2    1    1    2  502    0 -0.37459853675E+01 -0.22807787972E+02  0.10892452221E+03  0.11134980529E+03  0.00000000000E+00 0. -1.
         -2    1    1    2    0  502  0.37459853675E+01  0.22807787972E+02  0.70711865146E+02  0.74393517668E+02  0.00000000000E+00 0. -1.
<mgrwt>
<rscale>  2 0.23113364E+02</rscale>
<asrwt>0</asrwt>
<pdfrwt beam="1">  1        2 0.28106123E-01 0.23113364E+02</pdfrwt>
<pdfrwt beam="2">  1       -2 0.46976442E-03 0.23113364E+02</pdfrwt>
<totfact> 0.67183143E+05</totfact>
</mgrwt>
</event>
<event>
 4    1  0.7653521E+003  0.3275401E+02  0.7546771E-02  0.1569501E+00
         -2   -1    0    0    0  501 -0.00000000000E+00  0.00000000000E+00  0.29942130090E+02  0.29942130090E+02  0.00000000000E+00 0. -1.
          2   -1    0    0  501    0  0.00000000000E+00 -0.00000000000E+00 -0.34681293624E+03  0.34681293624E+03  0.00000000000E+00 0.  1.
          2    1    1    2  502    0 -0.32028825932E+02 -0.68541369504E+01 -0.33681688982E+03  0.33840573599E+03  0.00000000000E+00 0.  1.
         -2    1    1    2    0  502  0.32028825932E+02  0.68541369504E+01  0.19946083668E+02  0.38349330341E+02  0.00000000000E+00 0. -1.
<mgrwt>
<rscale>  2 0.32754006E+02</rscale>
<asrwt>0</asrwt>
<pdfrwt beam="2">  1        2 0.53355835E-01 0.32754006E+02</pdfrwt>
<pdfrwt beam="1">  1       -2 0.46064817E-02 0.32754006E+02</pdfrwt>
<totfact> 0.16504779E+04</totfact>
</mgrwt>
</event>
<event>
 4    1  0.7653521E+003  0.2511426E+02  0.7546771E-02  0.1659366E+00
          2   -1    0    0  501    0  0.00000000000E+00  0.00000000000E+00  0.13855608883E+04  0.13855608883E+04  0.00000000000E+00 0. -1.
         -2   -1    0    0    0  501 -0.00000000000E+00 -0.00000000000E+00 -0.50424805014E+02  0.50424805014E+02  0.00000000000E+00 0.  1.
          2    1    1    2  502    0  0.19760101286E+02  0.15500469118E+02  0.13823126745E+04  0.13825407973E+04  0.00000000000E+00 0. -1.
         -2    1    1    2    0  502 -0.19760101286E+02 -0.15500469118E+02 -0.47176591236E+02  0.53444895980E+02  0.00000000000E+00 0.  1.
<mgrwt>
<rscale>  2 0.25114262E+02</rscale>
<asrwt>0</asrwt>
<pdfrwt beam="1">  1        2 0.21316318E+00 0.25114262E+02</pdfrwt>
<pdfrwt beam="2">  1       -2 0.77576634E-02 0.25114262E+02</pdfrwt>
<totfact> 0.15366743E+03</totfact>
</mgrwt>
</event>
<event>
 4    1  0.7653521E+003  0.2846697E+02  0.7546771E-02  0.1615680E+00
          2   -1    0    0  501    0  0.00000000000E+00  0.00000000000E+00  0.43372577628E+03  0.43372577628E+03  0.00000000000E+00 0. -1.
         -2   -1    0    0    0  501 -0.00000000000E+00 -0.00000000000E+00 -0.22996393840E+01  0.22996393840E+01  0.00000000000E+00 0. -1.
          2    1    1    2  502    0 -0.19410151290E+02 -0.20823413680E+02  0.31012276828E+03  0.31142655625E+03  0.00000000000E+00 0. -1.
         -2    1    1    2    0  502  0.19410151290E+02  0.20823413680E+02  0.12130336862E+03  0.12459885942E+03  0.00000000000E+00 0. -1.
<mgrwt>
<rscale>  2 0.28466973E+02</rscale>
<asrwt>0</asrwt>
<pdfrwt beam="1">  1        2 0.66726977E-01 0.28466973E+02</pdfrwt>
<pdfrwt beam="2">  1       -2 0.35379102E-03 0.28466973E+02</pdfrwt>
<totfact> 0.44041360E+05</totfact>
</mgrwt>
</event>
<event>
 4    1  0.7653521E+003  0.2216201E+02  0.7546771E-02  0.1705465E+00
          2   -1    0    0  501    0  0.00000000000E+00  0.00000000000E+00  0.65348167047E+03  0.65348167047E+03  0.00000000000E+00 0. -1.
         -2   -1    0    0    0  501 -0.00000000000E+00 -0.00000000000E+00 -0.25419910737E+01  0.25419910737E+01  0.00000000000E+00 0.  1.
          2    1    1    2  502    0  0.75665174429E+01  0.20830326617E+02  0.60075122489E+03  0.60115986967E+03  0.00000000000E+00 0. -1.
         -2    1    1    2    0  502 -0.75665174429E+01 -0.20830326617E+02  0.50188454505E+02  0.54863791874E+02  0.00000000000E+00 0.  1.
<mgrwt>
<rscale>  2 0.22162010E+02</rscale>
<asrwt>0</asrwt>
<pdfrwt beam="1">  1        2 0.10053551E+00 0.22162010E+02</pdfrwt>
<pdfrwt beam="2">  1       -2 0.39107607E-03 0.22162010E+02</pdfrwt>
<totfact> 0.23645113E+05</totfact>
</mgrwt>
</event>
<event>
 4    1  0.7653521E+003  0.2524936E+02  0.7546771E-02  0.1657446E+00
         -2   -1    0    0    0  501 -0.00000000000E+00  0.00000000000E+00  0.86479289014E+01  0.86479289014E+01  0.00000000000E+00 0.  1.
          2   -1    0    0  501    0  0.00000000000E+00 -0.00000000000E+00 -0.16018158604E+03  0.16018158604E+03  0.00000000000E+00 0.  1.
          2    1    1    2  502    0 -0.24213435865E+02 -0.71582018688E+01 -0.13778546676E+03  0.14007985287E+03  0.00000000000E+00 0.  1.
         -2    1    1    2    0  502  0.24213435865E+02  0.71582018688E+01 -0.13748190377E+02  0.28749662068E+02  0.00000000000E+00 0.  1.
<mgrwt>
<rscale>  2 0.25249363E+02</rscale>
<asrwt>0</asrwt>
<pdfrwt beam="2">  1        2 0.24643320E-01 0.25249363E+02</pdfrwt>
<pdfrwt beam="1">  1       -2 0.13304507E-02 0.25249363E+02</pdfrwt>
<totfact> 0.19339900E+05</totfact>
</mgrwt>
</event>
<event>
 4    1  0.7653521E+003  0.2348247E+02  0.7546771E-02  0.1683807E+00
         -2   -1    0    0    0  501 -0.00000000000E+00  0.00000000000E+00  0.19964268726E+01  0.19964268726E+01  0.00000000000E+00 0. -1.
          2   -1    0    0  501    0  0.00000000000E+00 -0.00000000000E+00 -0.38901241787E+03  0.38901241787E+03  0.00000000000E+00 0.  1.
          2    1    1    2  502    0  0.17267182134E+02  0.15914480045E+02 -0.29878672285E+03  0.29970807798E+03  0.00000000000E+00 0.  1.
         -2    1    1    2    0  502 -0.17267182134E+02 -0.15914480045E+02 -0.88229268151E+02  0.91300766768E+02  0.00000000000E+00 0. -1.
<mgrwt>
<rscale>  2 0.23482467E+02</rscale>
<asrwt>0</asrwt>
<pdfrwt beam="2">  1        2 0.59848060E-01 0.23482467E+02</pdfrwt>
<pdfrwt beam="1">  1       -2 0.30714262E-03 0.23482467E+02</pdfrwt>
<totfact> 0.56161001E+05</totfact>
</mgrwt>
</event>
<event>
 4    1  0.7653521E+003  0.2154986E+02  0.7546771E-02  0.1716155E+00
          2   -1    0    0  501    0  0.00000000000E+00  0.00000000000E+00  0.23225711094E+01  0.23225711094E+01  0.00000000000E+00 0. -1.
         -2   -1    0    0    0  501 -0.00000000000E+00 -0.00000000000E+00 -0.36100662597E+03  0.36100662597E+03  0.00000000000E+00 0.  1.
          2    1    1    2  502    0  0.20086137263E+02 -0.78066248817E+01 -0.58002288835E+02  0.61876181300E+02  0.00000000000E+00 0. -1.
         -2    1    1    2    0  502 -0.20086137263E+02  0.78066248817E+01 -0.30068176603E+03  0.30145301578E+03  0.00000000000E+00 0.  1.
<mgrwt>
<rscale>  2 0.21549856E+02</rscale>
<asrwt>0</asrwt>
<pdfrwt beam="1">  1        2 0.35731868E-03 0.21549856E+02</pdfrwt>
<pdfrwt beam="2">  1       -2 0.55539473E-01 0.21549856E+02</pdfrwt>
<totfact> 0.11181734E+05</totfact>
</mgrwt>
</event>
<event>
 4    1  0.7653521E+003  0.2174863E+02  0.7546771E-02  0.1712636E+00
          2   -1    0    0  501    0  0.00000000000E+00  0.00000000000E+00  0.49191656925E+03  0.49191656925E+03  0.00000000000E+00 0.  1.
         -2   -1    0    0    0  501 -0.00000000000E+00 -0.00000000000E+00 -0.26008887433E+01  0.26008887433E+01  0.00000000000E+00 0. -1.
          2    1    1    2  502    0  0.19277646979E+02  0.10068521463E+02  0.44095995725E+03  0.44149596453E+03  0.00000000000E+00 0.  1.
         -2    1    1    2    0  502 -0.19277646979E+02 -0.10068521463E+02  0.48355723255E+02  0.53021493462E+02  0.00000000000E+00 0. -1.
<mgrwt>
<rscale>  2 0.21748627E+02</rscale>
<asrwt>0</asrwt>
<pdfrwt beam="1">  1        2 0.75679398E-01 0.21748627E+02</pdfrwt>
<pdfrwt beam="2">  1       -2 0.40013712E-03 0.21748627E+02</pdfrwt>
<totfact> 0.30570512E+05</totfact>
</mgrwt>
</event>
<event>
 4    1  0.7653521E+003  0.2500260E+02  0.7546771E-02  0.1660965E+00
          2   -1    0    0  501    0  0.00000000000E+00  0.00000000000E+00  0.10478236791E+03  0.10478236791E+03  0.00000000000E+00 0.  1.
         -2   -1    0    0    0  501 -0.00000000000E+00 -0.00000000000E+00 -0.17769974470E+02  0.17769974470E+02  0.00000000000E+00 0. -1.
          2    1    1    2  502    0 -0.22497765678E+02  0.10907822079E+02  0.93447816530E+02  0.96734815125E+02  0.00000000000E+00 0.  1.
         -2    1    1    2    0  502  0.22497765678E+02 -0.10907822079E+02 -0.64354230926E+01  0.25817527252E+02  0.00000000000E+00 0. -1.
<mgrwt>
<rscale>  2 0.25002601E+02</rscale>
<asrwt>0</asrwt>
<pdfrwt beam="1">  1        2 0.16120364E-01 0.25002601E+02</pdfrwt>
<pdfrwt beam="2">  1       -2 0.27338423E-02 0.25002601E+02</pdfrwt>
<totfact> 0.11253329E+05</totfact>
</mgrwt>
</event>
<event>
 4    1  0.7653521E+003  0.2181447E+02  0.7546771E-02  0.1711481E+00
         -2   -1    0    0    0  501 -0.00000000000E+00  0.00000000000E+00  0.25682098247E+02  0.25682098247E+02  0.00000000000E+00 0. -1.
          2   -1    0    0  501    0  0.00000000000E+00 -0.00000000000E+00 -0.78274182405E+02  0.78274182405E+02  0.00000000000E+00 0.  1.
          2    1    1    2  502    0 -0.19180745163E+02  0.10390868658E+02 -0.71707123691E+02  0.74951869387E+02  0.00000000000E+00 0.  1.
         -2    1    1    2    0  502  0.19180745163E+02 -0.10390868658E+02  0.19115039533E+02  0.29004411265E+02  0.00000000000E+00 0. -1.
<mgrwt>
<rscale>  2 0.21814471E+02</rscale>
<asrwt>0</asrwt>
<pdfrwt beam="2">  1        2 0.12042182E-01 0.21814471E+02</pdfrwt>
<pdfrwt beam="1">  1       -2 0.39510920E-02 0.21814471E+02</pdfrwt>
<totfact> 0.89938297E+04</totfact>
</mgrwt>
</event>
<event>
 4    1  0.7653521E+003  0.2524245E+02  0.7546771E-02  0.1657544E+00
          2   -1    0    0  501    0  0.00000000000E+00  0.00000000000E+00  0.18271418416E+04  0.18271418416E+04  0.00000000000E+00 0. -1.
         -2   -1    0    0    0  501 -0.00000000000E+00 -0.00000000000E+00 -0.11598367001E+01  0.11598367001E+01  0.00000000000E+00 0. -1.
          2    1    1    2  502    0 -0.23235903224E+02  0.98627541473E+01  0.16774569564E+04  0.16776468703E+04  0.00000000000E+00 0. -1.
         -2    1    1    2    0  502  0.23235903224E+02 -0.98627541473E+01  0.14852504855E+03  0.15065480797E+03  0.00000000000E+00 0. -1.
<mgrwt>
<rscale>  2 0.25242447E+02</rscale>
<asrwt>0</asrwt>
<pdfrwt beam="1">  1        2 0.28109644E+00 0.25242447E+02</pdfrwt>
<pdfrwt beam="2">  1       -2 0.17843788E-03 0.25242447E+02</pdfrwt>
<totfact> 0.16830414E+05</totfact>
</mgrwt>
</event>
<event>
 4    1  0.7653521E+003  0.3850040E+02  0.7546771E-02  0.1519546E+00
         -2   -1    0    0    0  501 -0.00000000000E+00  0.00000000000E+00  0.68213778544E+03  0.68213778544E+03  0.00000000000E+00 0. -1.
          2   -1    0    0  501    0  0.00000000000E+00 -0.00000000000E+00 -0.33125004228E+02  0.33125004228E+02  0.00000000000E+00 0. -1.
          2    1    1    2  502    0  0.38028387054E+02 -0.60102000242E+01 -0.21195776099E+02  0.43949307739E+02  0.00000000000E+00 0. -1.
         -2    1    1    2    0  502 -0.38028387054E+02  0.60102000242E+01  0.67020855732E+03  0.67131348193E+03  0.00000000000E+00 0. -1.
<mgrwt>
<rscale>  2 0.38500399E+02</rscale>
<asrwt>0</asrwt>
<pdfrwt beam="2">  1        2 0.50961550E-02 0.38500399E+02</pdfrwt>
<pdfrwt beam="1">  1       -2 0.10494426E+00 0.38500399E+02</pdfrwt>
<totfact> 0.10421560E+03</totfact>
</mgrwt>
</event>
<event>
 4    1  0.7653521E+003  0.3584575E+02  0.7546771E-02  0.1541216E+00
         -2   -1    0    0    0  501 -0.00000000000E+00  0.00000000000E+00  0.50931016410E+02  0.50931016410E+02  0.00000000000E+00 0.  1.
          2   -1    0    0  501    0  0.00000000000E+00 -0.00000000000E+00 -0.37086568695E+03  0.37086568695E+03  0.00000000000E+00 0.  1.
          2    1    1    2  502    0  0.35049064001E+02  0.75154000442E+01 -0.36356604817E+03  0.36532887855E+03  0.00000000000E+00 0.  1.
         -2    1    1    2    0  502 -0.35049064001E+02 -0.75154000442E+01  0.43631377625E+02  0.56467824809E+02  0.00000000000E+00 0.  1.
<mgrwt>
<rscale>  2 0.35845755E+02</rscale>
<asrwt>0</asrwt>
<pdfrwt beam="2">  1        2 0.57056260E-01 0.35845755E+02</pdfrwt>
<pdfrwt beam="1">  1       -2 0.78355409E-02 0.35845755E+02</pdfrwt>
<totfact> 0.71973837E+03</totfact>
</mgrwt>
</event>
<event>
 4    1  0.7653521E+003  0.2519492E+02  0.7546771E-02  0.1658218E+00
          2   -1    0    0  501    0  0.00000000000E+00  0.00000000000E+00  0.72225371073E+03  0.72225371073E+03  0.00000000000E+00 0. -1.
         -2   -1    0    0    0  501 -0.00000000000E+00 -0.00000000000E+00 -0.11297423590E+03  0.11297423590E+03  0.00000000000E+00 0. -1.
          2    1    1    2  502    0 -0.19924072370E+02 -0.15421254419E+02  0.72062610667E+03  0.72106641120E+03  0.00000000000E+00 0. -1.
         -2    1    1    2    0  502  0.19924072370E+02  0.15421254419E+02 -0.11134663184E+03  0.11416153542E+03  0.00000000000E+00 0. -1.
<mgrwt>
<rscale>  2 0.25194915E+02</rscale>
<asrwt>0</asrwt>
<pdfrwt beam="1">  1        2 0.11111595E+00 0.25194915E+02</pdfrwt>
<pdfrwt beam="2">  1       -2 0.17380652E-01 0.25194915E+02</pdfrwt>
<totfact> 0.10375625E+03</totfact>
</mgrwt>
</event>
<event>
 4    1  0.7653521E+003  0.2103006E+02  0.7546771E-02  0.1725587E+00
         -2   -1    0    0    0  501 -0.00000000000E+00  0.00000000000E+00  0.10889851933E+04  0.10889851933E+04  0.00000000000E+00 0. -1.
          2   -1    0    0  501    0  0.00000000000E+00 -0.00000000000E+00 -0.18321564740E+01  0.18321564740E+01  0.00000000000E+00 0. -1.
          2    1    1    2  502    0 -0.16344237694E+02  0.13233646908E+02  0.62398921133E+02  0.65847466731E+02  0.00000000000E+00 0. -1.
         -2    1    1    2    0  502  0.16344237694E+02 -0.13233646908E+02  0.10247541157E+04  0.10249698831E+04  0.00000000000E+00 0. -1.
<mgrwt>
<rscale>  2 0.21030062E+02</rscale>
<asrwt>0</asrwt>
<pdfrwt beam="2">  1        2 0.28187110E-03 0.21030062E+02</pdfrwt>
<pdfrwt beam="1">  1       -2 0.16753567E+00 0.21030062E+02</pdfrwt>
<totfact> 0.13281831E+04</totfact>
</mgrwt>
</event>
<event>
 4    1  0.7653521E+003  0.5275860E+02  0.7546771E-02  0.1431006E+00
         -2   -1    0    0    0  501 -0.00000000000E+00  0.00000000000E+00  0.19663475249E+01  0.19663475249E+01  0.00000000000E+00 0.  1.
          2   -1    0    0  501    0  0.00000000000E+00 -0.00000000000E+00 -0.21826423798E+04  0.21826423798E+04  0.00000000000E+00 0.  1.
          2    1    1    2  502    0 -0.10206249255E+02 -0.51761978114E+02 -0.17378909149E+04  0.17386915489E+04  0.00000000000E+00 0.  1.
         -2    1    1    2    0  502  0.10206249255E+02  0.51761978114E+02 -0.44278511730E+03  0.44591717841E+03  0.00000000000E+00 0.  1.
<mgrwt>
<rscale>  2 0.52758600E+02</rscale>
<asrwt>0</asrwt>
<pdfrwt beam="2">  1        2 0.33579271E+00 0.52758600E+02</pdfrwt>
<pdfrwt beam="1">  1       -2 0.30251358E-03 0.52758600E+02</pdfrwt>
<totfact> 0.62259091E+04</totfact>
</mgrwt>
</event>
<event>
 4    1  0.7653521E+003  0.2218637E+02  0.7546771E-02  0.1705049E+00
          2   -1    0    0  501    0  0.00000000000E+00  0.00000000000E+00  0.79318660768E+03  0.79318660768E+03  0.00000000000E+00 0. -1.
         -2   -1    0    0    0  501 -0.00000000000E+00 -0.00000000000E+00 -0.17467727686E+01  0.17467727686E+01  0.00000000000E+00 0.  1.
          2    1    1    2  502    0 -0.21494574437E+02  0.54971206860E+01  0.71486566657E+03  0.71520986872E+03  0.00000000000E+00 0. -1.
         -2    1    1    2    0  502  0.21494574437E+02 -0.54971206860E+01  0.76574168341E+02  0.79723511734E+02  0.00000000000E+00 0.  1.
<mgrwt>
<rscale>  2 0.22186371E+02</rscale>
<asrwt>0</asrwt>
<pdfrwt beam="1">  1        2 0.12202842E+00 0.22186371E+02</pdfrwt>
<pdfrwt beam="2">  1       -2 0.26873491E-03 0.22186371E+02</pdfrwt>
<totfact> 0.31535296E+05</totfact>
</mgrwt>
</event>
<event>
 4    1  0.7653521E+003  0.2901583E+02  0.7546771E-02  0.1609229E+00
         -2   -1    0    0    0  501 -0.00000000000E+00  0.00000000000E+00  0.38204170930E+01  0.38204170930E+01  0.00000000000E+00 0.  1.
          2   -1    0    0  501    0  0.00000000000E+00 -0.00000000000E+00 -0.60004204878E+03  0.60004204878E+03  0.00000000000E+00 0.  1.
          2    1    1    2  502    0 -0.47666037587E+01  0.28621633564E+02 -0.53828125321E+03  0.53906272916E+03  0.00000000000E+00 0.  1.
         -2    1    1    2    0  502  0.47666037587E+01 -0.28621633564E+02 -0.57940378485E+02  0.64799736715E+02  0.00000000000E+00 0.  1.
<mgrwt>
<rscale>  2 0.29015830E+02</rscale>
<asrwt>0</asrwt>
<pdfrwt beam="2">  1        2 0.92314132E-01 0.29015830E+02</pdfrwt>
<pdfrwt beam="1">  1       -2 0.58775666E-03 0.29015830E+02</pdfrwt>
<totfact> 0.15978570E+05</totfact>
</mgrwt>
</event>
<event>
 4    1  0.7653521E+003  0.4158861E+02  0.7546771E-02  0.1496836E+00
         -2   -1    0    0    0  501 -0.00000000000E+00  0.00000000000E+00  0.66756269053E+01  0.66756269053E+01  0.00000000000E+00 0.  1.
          2   -1    0    0  501    0  0.00000000000E+00 -0.00000000000E+00 -0.42887693992E+03  0.42887693992E+03  0.00000000000E+00 0.  1.
          2    1    1    2  502    0  0.16122057165E+02  0.38336563273E+02 -0.34812308322E+03  0.35059847957E+03  0.00000000000E+00 0.  1.
         -2    1    1    2    0  502 -0.16122057165E+02 -0.38336563273E+02 -0.74078229796E+02  0.84954087250E+02  0.00000000000E+00 0.  1.
<mgrwt>
<rscale>  2 0.41588614E+02</rscale>
<asrwt>0</asrwt>
<pdfrwt beam="2">  1        2 0.65981061E-01 0.41588614E+02</pdfrwt>
<pdfrwt beam="1">  1       -2 0.10270196E-02 0.41588614E+02</pdfrwt>
<totfact> 0.11370182E+05</totfact>
</mgrwt>
</event>
<event>
 4    1  0.7653521E+003  0.2116222E+02  0.7546771E-02  0.1723157E+00
         -2   -1    0    0    0  501 -0.00000000000E+00  0.00000000000E+00  0.31556443277E+03  0.31556443277E+03  0.00000000000E+00 0.  1.
          2   -1    0    0  501    0  0.00000000000E+00 -0.00000000000E+00 -0.67043753954E+03  0.67043753954E+03  0.00000000000E+00 0.  1.
          2    1    1    2  502    0 -0.15919682407E+02 -0.13942859029E+02 -0.66991547532E+03  0.67024964281E+03  0.00000000000E+00 0.  1.
         -2    1    1    2    0  502  0.15919682407E+02  0.13942859029E+02  0.31504236855E+03  0.31575232950E+03  0.00000000000E+00 0.  1.
<mgrwt>
<rscale>  2 0.21162221E+02</rscale>
<asrwt>0</asrwt>
<pdfrwt beam="2">  1        2 0.10314424E+00 0.21162221E+02</pdfrwt>
<pdfrwt beam="1">  1       -2 0.48548374E-01 0.21162221E+02</pdfrwt>
<totfact> 0.19216157E+02</totfact>
</mgrwt>
</event>
<event>
 4    1  0.7653521E+003  0.3424809E+02  0.7546771E-02  0.1555381E+00
          2   -1    0    0  501    0  0.00000000000E+00  0.00000000000E+00  0.11717250259E+04  0.11717250259E+04  0.00000000000E+00 0.  1.
         -2   -1    0    0    0  501 -0.00000000000E+00 -0.00000000000E+00 -0.85070363199E+01  0.85070363199E+01  0.00000000000E+00 0.  1.
          2    1    1    2  502    0 -0.16237841638E+02 -0.30154009589E+02  0.11359190220E+04  0.11364351968E+04  0.00000000000E+00 0.  1.
         -2    1    1    2    0  502  0.16237841638E+02  0.30154009589E+02  0.27298967531E+02  0.43796865454E+02  0.00000000000E+00 0.  1.
<mgrwt>
<rscale>  2 0.34248092E+02</rscale>
<asrwt>0</asrwt>
<pdfrwt beam="1">  1        2 0.18026526E+00 0.34248092E+02</pdfrwt>
<pdfrwt beam="2">  1       -2 0.13087757E-02 0.34248092E+02</pdfrwt>
<totfact> 0.24797531E+04</totfact>
</mgrwt>
</event>
<event>
 4    1  0.7653521E+003  0.3043382E+02  0.7546771E-02  0.1593342E+00
          2   -1    0    0  501    0  0.00000000000E+00  0.00000000000E+00  0.15755114604E+04  0.15755114604E+04  0.00000000000E+00 0. -1.
         -2   -1    0    0    0  501 -0.00000000000E+00 -0.00000000000E+00 -0.72208885952E+00  0.72208885952E+00  0.00000000000E+00 0.  1.
          2    1    1    2  502    0 -0.28197320610E+02 -0.11451128530E+02  0.11271608562E+04  0.11275716443E+04  0.00000000000E+00 0. -1.
         -2    1    1    2    0  502  0.28197320610E+02  0.11451128530E+02  0.44762851536E+03  0.44866190500E+03  0.00000000000E+00 0.  1.
<mgrwt>
<rscale>  2 0.30433817E+02</rscale>
<asrwt>0</asrwt>
<pdfrwt beam="1">  1        2 0.24238363E+00 0.30433817E+02</pdfrwt>
<pdfrwt beam="2">  1       -2 0.11109185E-03 0.30433817E+02</pdfrwt>
<totfact> 0.43183969E+05</totfact>
</mgrwt>
</event>
<event>
 4    1  0.7653521E+003  0.2504683E+02  0.7546771E-02  0.1660330E+00
         -2   -1    0    0    0  501 -0.00000000000E+00  0.00000000000E+00  0.39767923278E+00  0.39767923278E+00  0.00000000000E+00 0. -1.
          2   -1    0    0  501    0  0.00000000000E+00 -0.00000000000E+00 -0.20234035894E+04  0.20234035894E+04  0.00000000000E+00 0. -1.
          2    1    1    2  502    0 -0.24911596113E+02  0.25992914360E+01 -0.14865220153E+04  0.14867330110E+04  0.00000000000E+00 0. -1.
         -2    1    1    2    0  502  0.24911596113E+02 -0.25992914360E+01 -0.53648389488E+03  0.53706825768E+03  0.00000000000E+00 0. -1.
<mgrwt>
<rscale>  2 0.25046835E+02</rscale>
<asrwt>0</asrwt>
<pdfrwt beam="2">  1        2 0.31129434E+00 0.25046835E+02</pdfrwt>
<pdfrwt beam="1">  1       -2 0.61181130E-04 0.25046835E+02</pdfrwt>
<totfact> 0.55969428E+05</totfact>
</mgrwt>
</event>
<event>
 4    1  0.7653521E+003  0.2195606E+02  0.7546771E-02  0.1709013E+00
          2   -1    0    0  501    0  0.00000000000E+00  0.00000000000E+00  0.14801084214E+04  0.14801084214E+04  0.00000000000E+00 0. -1.
         -2   -1    0    0    0  501 -0.00000000000E+00 -0.00000000000E+00 -0.23462507659E+02  0.23462507659E+02  0.00000000000E+00 0.  1.
          2    1    1    2  502    0 -0.98074660433E+01  0.19643879143E+02  0.14748721795E+04  0.14750355976E+04  0.00000000000E+00 0. -1.
         -2    1    1    2    0  502  0.98074660433E+01 -0.19643879143E+02 -0.18226265748E+02  0.28535331452E+02  0.00000000000E+00 0.  1.
<mgrwt>
<rscale>  2 0.21956056E+02</rscale>
<asrwt>0</asrwt>
<pdfrwt beam="1">  1        2 0.22770892E+00 0.21956056E+02</pdfrwt>
<pdfrwt beam="2">  1       -2 0.36096177E-02 0.21956056E+02</pdfrwt>
<totfact> 0.41007579E+03</totfact>
</mgrwt>
</event>
<event>
 4    1  0.7653521E+003  0.3924210E+02  0.7546771E-02  0.1513864E+00
         -2   -1    0    0    0  501 -0.00000000000E+00  0.00000000000E+00  0.48769161115E+02  0.48769161115E+02  0.00000000000E+00 0. -1.
          2   -1    0    0  501    0  0.00000000000E+00 -0.00000000000E+00 -0.11880005857E+03  0.11880005857E+03  0.00000000000E+00 0. -1.
          2    1    1    2  502    0  0.39212258750E+02  0.15300749821E+01 -0.10680705910E+03  0.11378791781E+03  0.00000000000E+00 0. -1.
         -2    1    1    2    0  502 -0.39212258750E+02 -0.15300749821E+01  0.36776161647E+02  0.53781301874E+02  0.00000000000E+00 0. -1.
<mgrwt>
<rscale>  2 0.39242099E+02</rscale>
<asrwt>0</asrwt>
<pdfrwt beam="2">  1        2 0.18276932E-01 0.39242099E+02</pdfrwt>
<pdfrwt beam="1">  1       -2 0.75029479E-02 0.39242099E+02</pdfrwt>
<totfact> 0.25261694E+04</totfact>
</mgrwt>
</event>
<event>
 4    1  0.7653521E+003  0.2668875E+02  0.7546771E-02  0.1637867E+00
         -2   -1    0    0    0  501 -0.00000000000E+00  0.00000000000E+00  0.94762040755E+02  0.94762040755E+02  0.00000000000E+00 0. -1.
          2   -1    0    0  501    0  0.00000000000E+00 -0.00000000000E+00 -0.75196294608E+01  0.75196294608E+01  0.00000000000E+00 0. -1.
          2    1    1    2  502    0  0.26673403360E+02 -0.90444642092E+00  0.44647484933E+02  0.52016212674E+02  0.00000000000E+00 0. -1.
         -2    1    1    2    0  502 -0.26673403360E+02  0.90444642092E+00  0.42594926361E+02  0.50265457541E+02  0.00000000000E+00 0. -1.
<mgrwt>
<rscale>  2 0.26688746E+02</rscale>
<asrwt>0</asrwt>
<pdfrwt beam="2">  1        2 0.11568661E-02 0.26688746E+02</pdfrwt>
<pdfrwt beam="1">  1       -2 0.14578775E-01 0.26688746E+02</pdfrwt>
<totfact> 0.25420477E+05</totfact>
</mgrwt>
</event>
<event>
 4    1  0.7653521E+003  0.3237497E+02  0.7546771E-02  0.1573229E+00
          2   -1    0    0  501    0  0.00000000000E+00  0.00000000000E+00  0.10122491917E+04  0.10122491917E+04  0.00000000000E+00 0. -1.
         -2   -1    0    0    0  501 -0.00000000000E+00 -0.00000000000E+00 -0.37574790609E+01  0.37574790609E+01  0.00000000000E+00 0. -1.
          2    1    1    2  502    0 -0.28904381849E+02  0.14583404659E+02  0.93662448527E+03  0.93718384824E+03  0.00000000000E+00 0. -1.
         -2    1    1    2    0  502  0.28904381849E+02 -0.14583404659E+02  0.71867227369E+02  0.78822822528E+02  0.00000000000E+00 0. -1.
<mgrwt>
<rscale>  2 0.32374975E+02</rscale>
<asrwt>0</asrwt>
<pdfrwt beam="1">  1        2 0.15573043E+00 0.32374975E+02</pdfrwt>
<pdfrwt beam="2">  1       -2 0.57807451E-03 0.32374975E+02</pdfrwt>
<totfact> 0.91504042E+04</totfact>
</mgrwt>
</event>
<event>
 4    1  0.7653521E+003  0.2663629E+02  0.7546771E-02  0.1638554E+00
          2   -1    0    0  501    0  0.00000000000E+00  0.00000000000E+00  0.33390624833E+03  0.33390624833E+03  0.00000000000E+00 0.  1.
         -2   -1    0    0    0  501 -0.00000000000E+00 -0.00000000000E+00 -0.58478424858E+01  0.58478424858E+01  0.00000000000E+00 0. -1.
          2    1    1    2  502    0  0.25850497312E+02 -0.64221453582E+01  0.29957449432E+03  0.30075632962E+03  0.00000000000E+00 0.  1.
         -2    1    1    2    0  502 -0.25850497312E+02  0.64221453582E+01  0.28483911529E+02  0.38997761196E+02  0.00000000000E+00 0. -1.
<mgrwt>
<rscale>  2 0.26636294E+02</rscale>
<asrwt>0</asrwt>
<pdfrwt beam="1">  1        2 0.51370177E-01 0.26636294E+02</pdfrwt>
<pdfrwt beam="2">  1       -2 0.89966834E-03 0.26636294E+02</pdfrwt>
<totfact> 0.15927825E+05</totfact>
</mgrwt>
</event>
<event>
 4    1  0.7653521E+003  0.2578245E+02  0.7546771E-02  0.1650011E+00
          2   -1    0    0  501    0  0.00000000000E+00  0.00000000000E+00  0.81327242083E+03  0.81327242083E+03  0.00000000000E+00 0. -1.
         -2   -1    0    0    0  501 -0.00000000000E+00 -0.00000000000E+00 -0.17611257111E+02  0.17611257111E+02  0.00000000000E+00 0.  1.
          2    1    1    2  502    0  0.15081508744E+01 -0.25738300121E+02  0.80351733308E+03  0.80393086715E+03  0.00000000000E+00 0. -1.
         -2    1    1    2    0  502 -0.15081508744E+01  0.25738300121E+02 -0.78561693583E+01  0.26952810784E+02  0.00000000000E+00 0.  1.
<mgrwt>
<rscale>  2 0.25782448E+02</rscale>
<asrwt>0</asrwt>
<pdfrwt beam="1">  1        2 0.12511880E+00 0.25782448E+02</pdfrwt>
<pdfrwt beam="2">  1       -2 0.27094248E-02 0.25782448E+02</pdfrwt>
<totfact> 0.13833541E+04</totfact>
</mgrwt>
</event>
<event>
 4    1  0.7653521E+003  0.3196744E+02  0.7546771E-02  0.1577307E+00
          2   -1    0    0  501    0  0.00000000000E+00  0.00000000000E+00  0.19723795270E+04  0.19723795270E+04  0.00000000000E+00 0.  1.
         -2   -1    0    0    0  501 -0.00000000000E+00 -0.00000000000E+00 -0.69095426626E+00  0.69095426626E+00  0.00000000000E+00 0. -1.
          2    1    1    2  502    0  0.18648079233E+02 -0.25964709710E+02  0.14792574070E+04  0.14796027822E+04  0.00000000000E+00 0.  1.
         -2    1    1    2    0  502 -0.18648079233E+02  0.25964709710E+02  0.49243116579E+03  0.49346769909E+03  0.00000000000E+00 0. -1.
<mgrwt>
<rscale>  2 0.31967437E+02</rscale>
<asrwt>0</asrwt>
<pdfrwt beam="1">  1        2 0.30343850E+00 0.31967437E+02</pdfrwt>
<pdfrwt beam="2">  1       -2 0.10630224E-03 0.31967437E+02</pdfrwt>
<totfact> 0.30009500E+05</totfact>
</mgrwt>
</event>
<event>
 4    1  0.7653521E+003  0.2318258E+02  0.7546771E-02  0.1688568E+00
         -2   -1    0    0    0  501 -0.00000000000E+00  0.00000000000E+00  0.28762774673E+01  0.28762774673E+01  0.00000000000E+00 0.  1.
          2   -1    0    0  501    0  0.00000000000E+00 -0.00000000000E+00 -0.45550750757E+03  0.45550750757E+03  0.00000000000E+00 0.  1.
          2    1    1    2  502    0 -0.22833136918E+02  0.40099635717E+01 -0.40233119502E+03  0.40299853900E+03  0.00000000000E+00 0.  1.
         -2    1    1    2    0  502  0.22833136918E+02 -0.40099635717E+01 -0.50300035083E+02  0.55385246038E+02  0.00000000000E+00 0.  1.
<mgrwt>
<rscale>  2 0.23182579E+02</rscale>
<asrwt>0</asrwt>
<pdfrwt beam="2">  1        2 0.70078019E-01 0.23182579E+02</pdfrwt>
<pdfrwt beam="1">  1       -2 0.44250460E-03 0.23182579E+02</pdfrwt>
<totfact> 0.29379225E+05</totfact>
</mgrwt>
</event>
<event>
 4    1  0.7653521E+003  0.2247692E+02  0.7546771E-02  0.1700132E+00
         -2   -1    0    0    0  501 -0.00000000000E+00  0.00000000000E+00  0.71904765984E+00  0.71904765984E+00  0.00000000000E+00 0. -1.
          2   -1    0    0  501    0  0.00000000000E+00 -0.00000000000E+00 -0.13931850267E+04  0.13931850267E+04  0.00000000000E+00 0. -1.
          2    1    1    2  502    0 -0.21848856660E+02  0.52762760328E+01 -0.20554746140E+03  0.20677275089E+03  0.00000000000E+00 0. -1.
         -2    1    1    2    0  502  0.21848856660E+02 -0.52762760328E+01 -0.11869185177E+04  0.11871313235E+04  0.00000000000E+00 0. -1.
<mgrwt>
<rscale>  2 0.22476924E+02</rscale>
<asrwt>0</asrwt>
<pdfrwt beam="2">  1        2 0.21433404E+00 0.22476924E+02</pdfrwt>
<pdfrwt beam="1">  1       -2 0.11062381E-03 0.22476924E+02</pdfrwt>
<totfact> 0.49288234E+05</totfact>
</mgrwt>
</event>
<event>
 4    1  0.7653521E+003  0.2181769E+02  0.7546771E-02  0.1711424E+00
         -2   -1    0    0    0  501 -0.00000000000E+00  0.00000000000E+00  0.26627843061E+00  0.26627843061E+00  0.00000000000E+00 0. -1.
          2   -1    0    0  501    0  0.00000000000E+00 -0.00000000000E+00 -0.20860785935E+04  0.20860785935E+04  0.00000000000E+00 0. -1.
          2    1    1    2  502    0 -0.78607980094E+01  0.20352380547E+02 -0.14374670017E+04  0.14376325652E+04  0.00000000000E+00 0. -1.
         -2    1    1    2    0  502  0.78607980094E+01 -0.20352380547E+02 -0.64834531338E+03  0.64871230674E+03  0.00000000000E+00 0. -1.
<mgrwt>
<rscale>  2 0.21817689E+02</rscale>
<asrwt>0</asrwt>
<pdfrwt beam="2">  1        2 0.32092370E+00 0.21817689E+02</pdfrwt>
<pdfrwt beam="1">  1       -2 0.40967376E-04 0.21817689E+02</pdfrwt>
<totfact> 0.85606354E+05</totfact>
</mgrwt>
</event>
<event>
 4    1  0.7653521E+003  0.3203408E+02  0.7546771E-02  0.1576635E+00
         -2   -1    0    0    0  501 -0.00000000000E+00  0.00000000000E+00  0.90168806458E+00  0.90168806458E+00  0.00000000000E+00 0. -1.
          2   -1    0    0  501    0  0.00000000000E+00 -0.00000000000E+00 -0.20543269095E+04  0.20543269095E+04  0.00000000000E+00 0.  1.
          2    1    1    2  502    0  0.20232080077E+02 -0.24836372618E+02 -0.17129974903E+04  0.17132969924E+04  0.00000000000E+00 0.  1.
         -2    1    1    2    0  502 -0.20232080077E+02  0.24836372618E+02 -0.34042773109E+03  0.34193160510E+03  0.00000000000E+00 0. -1.
<mgrwt>
<rscale>  2 0.32034083E+02</rscale>
<asrwt>0</asrwt>
<pdfrwt beam="2">  1        2 0.31605378E+00 0.32034083E+02</pdfrwt>
<pdfrwt beam="1">  1       -2 0.13871971E-03 0.32034083E+02</pdfrwt>
<totfact> 0.19237064E+05</totfact>
</mgrwt>
</event>
<event>
 4    1  0.7653521E+003  0.3265707E+02  0.7546771E-02  0.1570448E+00
         -2   -1    0    0    0  501 -0.00000000000E+00  0.00000000000E+00  0.92644880813E+02  0.92644880813E+02  0.00000000000E+00 0. -1.
          2   -1    0    0  501    0  0.00000000000E+00 -0.00000000000E+00 -0.14090829934E+04  0.14090829934E+04  0.00000000000E+00 0. -1.
          2    1    1    2  502    0 -0.32632673313E+02 -0.12620261037E+01 -0.14060096057E+04  0.14063888138E+04  0.00000000000E+00 0. -1.
         -2    1    1    2    0  502  0.32632673313E+02  0.12620261037E+01  0.89571493104E+02  0.95339060486E+02  0.00000000000E+00 0. -1.
<mgrwt>
<rscale>  2 0.32657068E+02</rscale>
<asrwt>0</asrwt>
<pdfrwt beam="2">  1        2 0.21678197E+00 0.32657068E+02</pdfrwt>
<pdfrwt beam="1">  1       -2 0.14253060E-01 0.32657068E+02</pdfrwt>
<totfact> 0.59916251E+02</totfact>
</mgrwt>
</event>
<event>
 4    1  0.7653521E+003  0.4399366E+02  0.7546771E-02  0.1480724E+00
          2   -1    0    0  501    0  0.00000000000E+00  0.00000000000E+00  0.47021475624E+03  0.47021475624E+03  0.00000000000E+00 0. -1.
         -2   -1    0    0    0  501 -0.00000000000E+00 -0.00000000000E+00 -0.70814883251E+01  0.70814883251E+01  0.00000000000E+00 0. -1.
          2    1    1    2  502    0  0.28270195932E+02  0.33708130981E+02  0.38599885602E+03  0.38849782358E+03  0.00000000000E+00 0. -1.
         -2    1    1    2    0  502 -0.28270195932E+02 -0.33708130981E+02  0.77134411892E+02  0.88798420989E+02  0.00000000000E+00 0. -1.
<mgrwt>
<rscale>  2 0.43993659E+02</rscale>
<asrwt>0</asrwt>
<pdfrwt beam="1">  1        2 0.72340707E-01 0.43993659E+02</pdfrwt>
<pdfrwt beam="2">  1       -2 0.10894601E-02 0.43993659E+02</pdfrwt>
<totfact> 0.96309793E+04</totfact>
</mgrwt>
</event>
<event>
 4    1  0.7653521E+003  0.2303979E+02  0.7546771E-02  0.1690866E+00
         -2   -1    0    0    0  501 -0.00000000000E+00  0.00000000000E+00  0.22315974731E+01  0.22315974731E+01  0.00000000000E+00 0. -1.
          2   -1    0    0  501    0  0.00000000000E+00 -0.00000000000E+00 -0.67984030862E+03  0.67984030862E+03  0.00000000000E+00 0.  1.
          2    1    1    2  502    0  0.18326586202E+02 -0.13963107183E+02 -0.61377910204E+03  0.61421137911E+03  0.00000000000E+00 0.  1.
         -2    1    1    2    0  502 -0.18326586202E+02  0.13963107183E+02 -0.63829609105E+02  0.67860526984E+02  0.00000000000E+00 0. -1.
<mgrwt>
<rscale>  2 0.23039794E+02</rscale>
<asrwt>0</asrwt>
<pdfrwt beam="2">  1        2 0.10459098E+00 0.23039794E+02</pdfrwt>
<pdfrwt beam="1">  1       -2 0.34332217E-03 0.23039794E+02</pdfrwt>
<totfact> 0.27240348E+05</totfact>
</mgrwt>
</event>
<event>
 4    1  0.7653521E+003  0.4098420E+02  0.7546771E-02  0.1501091E+00
          2   -1    0    0  501    0  0.00000000000E+00  0.00000000000E+00  0.74652868893E+03  0.74652868893E+03  0.00000000000E+00 0.  1.
         -2   -1    0    0    0  501 -0.00000000000E+00 -0.00000000000E+00 -0.24802288923E+01  0.24802288923E+01  0.00000000000E+00 0.  1.
          2    1    1    2  502    0 -0.35847955580E+02 -0.19865262165E+02  0.48612066080E+03  0.48784526380E+03  0.00000000000E+00 0.  1.
         -2    1    1    2    0  502  0.35847955580E+02  0.19865262165E+02  0.25792779924E+03  0.26116365402E+03  0.00000000000E+00 0.  1.
<mgrwt>
<rscale>  2 0.40984199E+02</rscale>
<asrwt>0</asrwt>
<pdfrwt beam="1">  1        2 0.11485039E+00 0.40984199E+02</pdfrwt>
<pdfrwt beam="2">  1       -2 0.38157427E-03 0.40984199E+02</pdfrwt>
<totfact> 0.24364523E+05</totfact>
</mgrwt>
</event>
<event>
 4    1  0.7653521E+003  0.2597944E+02  0.7546771E-02  0.1647320E+00
         -2   -1    0    0    0  501 -0.00000000000E+00  0.00000000000E+00  0.29374487902E+02  0.29374487902E+02  0.00000000000E+00 0. -1.
          2   -1    0    0  501    0  0.00000000000E+00 -0.00000000000E+00 -0.60234198566E+02  0.60234198566E+02  0.00000000000E+00 0.  1.
          2    1    1    2  502    0 -0.25376958002E+02 -0.55624942198E+01 -0.50667339157E+02  0.56939534567E+02  0.00000000000E+00 0.  1.
         -2    1    1    2    0  502  0.25376958002E+02  0.55624942198E+01  0.19807628493E+02  0.32669151901E+02  0.00000000000E+00 0. -1.
<mgrwt>
<rscale>  2 0.25979441E+02</rscale>
<asrwt>0</asrwt>
<pdfrwt beam="2">  1        2 0.92667997E-02 0.25979441E+02</pdfrwt>
<pdfrwt beam="1">  1       -2 0.45191520E-02 0.25979441E+02</pdfrwt>
<totfact> 0.10480507E+05</totfact>
</mgrwt>
</event>
<event>
 4    1  0.7653521E+003  0.2065138E+02  0.7546771E-02  0.1732676E+00
          2   -1    0    0  501    0  0.00000000000E+00  0.00000000000E+00  0.10307433478E+01  0.10307433478E+01  0.00000000000E+00 0.  1.
         -2   -1    0    0    0  501 -0.00000000000E+00 -0.00000000000E+00 -0.10342915193E+04  0.10342915193E+04  0.00000000000E+00 0.  1.
          2    1    1    2  502    0 -0.28769048401E+01  0.20450006351E+02 -0.11566549715E+03  0.11749462359E+03  0.00000000000E+00 0.  1.
         -2    1    1    2    0  502  0.28769048401E+01 -0.20450006351E+02 -0.91759527879E+03  0.91782763904E+03  0.00000000000E+00 0.  1.
<mgrwt>
<rscale>  2 0.20651376E+02</rscale>
<asrwt>0</asrwt>
<pdfrwt beam="1">  1        2 0.15857623E-03 0.20651376E+02</pdfrwt>
<pdfrwt beam="2">  1       -2 0.15912144E+00 0.20651376E+02</pdfrwt>
<totfact> 0.31899187E+04</totfact>
</mgrwt>
</event>
<event>
 4    1  0.7653521E+003  0.3740428E+02  0.7546771E-02  0.1528231E+00
         -2   -1    0    0    0  501 -0.00000000000E+00  0.00000000000E+00  0.54767310883E+01  0.54767310883E+01  0.00000000000E+00 0.  1.
          2   -1    0    0  501    0  0.00000000000E+00 -0.00000000000E+00 -0.14009924841E+04  0.14009924841E+04  0.00000000000E+00 0. -1.
          2    1    1    2  502    0 -0.34922579049E+02  0.13397535461E+02 -0.13336540597E+04  0.13341784856E+04  0.00000000000E+00 0. -1.
         -2    1    1    2    0  502  0.34922579049E+02 -0.13397535461E+02 -0.61861693258E+02  0.72290729534E+02  0.00000000000E+00 0.  1.
<mgrwt>
<rscale>  2 0.37404284E+02</rscale>
<asrwt>0</asrwt>
<pdfrwt beam="2">  1        2 0.21553749E+00 0.37404284E+02</pdfrwt>
<pdfrwt beam="1">  1       -2 0.84257328E-03 0.37404284E+02</pdfrwt>
<totfact> 0.35214662E+04</totfact>
</mgrwt>
</event>
<event>
 4    1  0.7653521E+003  0.3894082E+02  0.7546771E-02  0.1516154E+00
          2   -1    0    0  501    0  0.00000000000E+00  0.00000000000E+00  0.24123138115E+03  0.24123138115E+03  0.00000000000E+00 0. -1.
         -2   -1    0    0    0  501 -0.00000000000E+00 -0.00000000000E+00 -0.13200373184E+02  0.13200373184E+02  0.00000000000E+00 0.  1.
          2    1    1    2  502    0 -0.11473456897E+02  0.37212195058E+02  0.20608667802E+03  0.20973341778E+03  0.00000000000E+00 0. -1.
         -2    1    1    2    0  502  0.11473456897E+02 -0.37212195058E+02  0.21944329942E+02  0.44698336555E+02  0.00000000000E+00 0.  1.
<mgrwt>
<rscale>  2 0.38940823E+02</rscale>
<asrwt>0</asrwt>
<pdfrwt beam="1">  1        2 0.37112517E-01 0.38940823E+02</pdfrwt>
<pdfrwt beam="2">  1       -2 0.20308268E-02 0.38940823E+02</pdfrwt>
<totfact> 0.77998666E+04</totfact>
</mgrwt>
</event>
<event>
 4    1  0.7653521E+003  0.3100189E+02  0.7546771E-02  0.1587271E+00
          2   -1    0    0  501    0  0.00000000000E+00  0.00000000000E+00  0.14941887051E+04  0.14941887051E+04  0.00000000000E+00 0.  1.
         -2   -1    0    0    0  501 -0.00000000000E+00 -0.00000000000E+00 -0.28837526370E+01  0.28837526370E+01  0.00000000000E+00 0.  1.
          2    1    1    2  502    0 -0.30500887184E+02 -0.55509604109E+01  0.14054456588E+04  0.14057875434E+04  0.00000000000E+00 0.  1.
         -2    1    1    2    0  502  0.30500887184E+02  0.55509604109E+01  0.85859293616E+02  0.91284914311E+02  0.00000000000E+00 0.  1.
<mgrwt>
<rscale>  2 0.31001892E+02</rscale>
<asrwt>0</asrwt>
<pdfrwt beam="1">  1        2 0.22987457E+00 0.31001892E+02</pdfrwt>
<pdfrwt beam="2">  1       -2 0.44365544E-03 0.31001892E+02</pdfrwt>
<totfact> 0.73981295E+04</totfact>
</mgrwt>
</event>
<event>
 4    1  0.7653521E+003  0.2625779E+02  0.7546771E-02  0.1643566E+00
          2   -1    0    0  501    0  0.00000000000E+00  0.00000000000E+00  0.18047629642E+04  0.18047629642E+04  0.00000000000E+00 0.  1.
         -2   -1    0    0    0  501 -0.00000000000E+00 -0.00000000000E+00 -0.21764106870E+01  0.21764106870E+01  0.00000000000E+00 0. -1.
          2    1    1    2  502    0 -0.25243664760E+02 -0.72269743949E+01  0.17216459104E+04  0.17218461350E+04  0.00000000000E+00 0.  1.
         -2    1    1    2    0  502  0.25243664760E+02  0.72269743949E+01  0.80940643125E+02  0.85093239913E+02  0.00000000000E+00 0. -1.
<mgrwt>
<rscale>  2 0.26257794E+02</rscale>
<asrwt>0</asrwt>
<pdfrwt beam="1">  1        2 0.27765464E+00 0.26257794E+02</pdfrwt>
<pdfrwt beam="2">  1       -2 0.33483386E-03 0.26257794E+02</pdfrwt>
<totfact> 0.74990815E+04</totfact>
</mgrwt>
</event>
<event>
 4    1  0.7653521E+003  0.2167078E+02  0.7546771E-02  0.1714009E+00
         -2   -1    0    0    0  501 -0.00000000000E+00  0.00000000000E+00  0.38381488728E+01  0.38381488728E+01  0.00000000000E+00 0. -1.
          2   -1    0    0  501    0  0.00000000000E+00 -0.00000000000E+00 -0.11786475694E+04  0.11786475694E+04  0.00000000000E+00 0. -1.
          2    1    1    2  502    0  0.90687064829E+01 -0.19682008598E+02 -0.11471181131E+04  0.11473227917E+04  0.00000000000E+00 0. -1.
         -2    1    1    2    0  502 -0.90687064829E+01  0.19682008598E+02 -0.27691307425E+02  0.35162926593E+02  0.00000000000E+00 0. -1.
<mgrwt>
<rscale>  2 0.21670784E+02</rscale>
<asrwt>0</asrwt>
<pdfrwt beam="2">  1        2 0.18133045E+00 0.21670784E+02</pdfrwt>
<pdfrwt beam="1">  1       -2 0.59048425E-03 0.21670784E+02</pdfrwt>
<totfact> 0.67444457E+04</totfact>
</mgrwt>
</event>
<event>
 4    1  0.7653521E+003  0.2372349E+02  0.7546771E-02  0.1680044E+00
          2   -1    0    0  501    0  0.00000000000E+00  0.00000000000E+00  0.10764524666E+04  0.10764524666E+04  0.00000000000E+00 0.  1.
         -2   -1    0    0    0  501 -0.00000000000E+00 -0.00000000000E+00 -0.96508576667E+00  0.96508576667E+00  0.00000000000E+00 0. -1.
          2    1    1    2  502    0  0.49763223023E+01  0.23195679034E+02  0.17306777012E+03  0.17468616535E+03  0.00000000000E+00 0. -1.
         -2    1    1    2    0  502 -0.49763223023E+01 -0.23195679034E+02  0.90241961073E+03  0.90273138704E+03  0.00000000000E+00 0.  1.
<mgrwt>
<rscale>  2 0.23723488E+02</rscale>
<asrwt>0</asrwt>
<pdfrwt beam="1">  1        2 0.16560711E+00 0.23723488E+02</pdfrwt>
<pdfrwt beam="2">  1       -2 0.14847559E-03 0.23723488E+02</pdfrwt>
<totfact> 0.48764780E+05</totfact>
</mgrwt>
</event>
<event>
 4    1  0.7653521E+003  0.2933125E+02  0.7546771E-02  0.1605601E+00
         -2   -1    0    0    0  501 -0.00000000000E+00  0.00000000000E+00  0.21807694747E+01  0.21807694747E+01  0.00000000000E+00 0.  1.
          2   -1    0    0  501    0  0.00000000000E+00 -0.00000000000E+00 -0.10089704961E+04  0.10089704961E+04  0.00000000000E+00 0.  1.
          2    1    1    2  502    0 -0.26325595910E+02  0.12933875256E+02 -0.89793939555E+03  0.89841832139E+03  0.00000000000E+00 0.  1.
         -2    1    1    2    0  502  0.26325595910E+02 -0.12933875256E+02 -0.10885033106E+03  0.11273294417E+03  0.00000000000E+00 0.  1.
<mgrwt>
<rscale>  2 0.29331248E+02</rscale>
<asrwt>0</asrwt>
<pdfrwt beam="2">  1        2 0.15522623E+00 0.29331248E+02</pdfrwt>
<pdfrwt beam="1">  1       -2 0.33550300E-03 0.29331248E+02</pdfrwt>
<totfact> 0.18803779E+05</totfact>
</mgrwt>
</event>
<event>
 4    1  0.7653521E+003  0.3187631E+02  0.7546771E-02  0.1578229E+00
         -2   -1    0    0    0  501 -0.00000000000E+00  0.00000000000E+00  0.12082457640E+03  0.12082457640E+03  0.00000000000E+00 0.  1.
          2   -1    0    0  501    0  0.00000000000E+00 -0.00000000000E+00 -0.91777749060E+02  0.91777749060E+02  0.00000000000E+00 0. -1.
          2    1    1    2  502    0 -0.42426535041E+01  0.31592705185E+02 -0.86790506104E+02  0.92459131942E+02  0.00000000000E+00 0. -1.
         -2    1    1    2    0  502  0.42426535041E+01 -0.31592705185E+02  0.11583733344E+03  0.12014319352E+03  0.00000000000E+00 0.  1.
<mgrwt>
<rscale>  2 0.31876310E+02</rscale>
<asrwt>0</asrwt>
<pdfrwt beam="2">  1        2 0.14119654E-01 0.31876310E+02</pdfrwt>
<pdfrwt beam="1">  1       -2 0.18588396E-01 0.31876310E+02</pdfrwt>
<totfact> 0.80740785E+03</totfact>
</mgrwt>
</event>
<event>
 4    1  0.7653521E+003  0.2052998E+02  0.7546771E-02  0.1734990E+00
         -2   -1    0    0    0  501 -0.00000000000E+00  0.00000000000E+00  0.25718039027E+03  0.25718039027E+03  0.00000000000E+00 0.  1.
          2   -1    0    0  501    0  0.00000000000E+00 -0.00000000000E+00 -0.19788083185E+01  0.19788083185E+01  0.00000000000E+00 0.  1.
          2    1    1    2  502    0  0.20525281818E+02  0.43899981057E+00  0.73891672732E+02  0.76690672273E+02  0.00000000000E+00 0.  1.
         -2    1    1    2    0  502 -0.20525281818E+02 -0.43899981057E+00  0.18130990922E+03  0.18246852632E+03  0.00000000000E+00 0.  1.
<mgrwt>
<rscale>  2 0.20529976E+02</rscale>
<asrwt>0</asrwt>
<pdfrwt beam="2">  1        2 0.30443225E-03 0.20529976E+02</pdfrwt>
<pdfrwt beam="1">  1       -2 0.39566188E-01 0.20529976E+02</pdfrwt>
<totfact> 0.25605601E+05</totfact>
</mgrwt>
</event>
<event>
 4    1  0.7653521E+003  0.2764325E+02  0.7546771E-02  0.1625703E+00
         -2   -1    0    0    0  501 -0.00000000000E+00  0.00000000000E+00  0.47396353559E+03  0.47396353559E+03  0.00000000000E+00 0. -1.
          2   -1    0    0  501    0  0.00000000000E+00 -0.00000000000E+00 -0.56678589392E+03  0.56678589392E+03  0.00000000000E+00 0.  1.
          2    1    1    2  502    0 -0.25229960731E+01 -0.27527871973E+02 -0.56604524979E+03  0.56671983735E+03  0.00000000000E+00 0.  1.
         -2    1    1    2    0  502  0.25229960731E+01  0.27527871973E+02  0.47322289145E+03  0.47402959215E+03  0.00000000000E+00 0. -1.
<mgrwt>
<rscale>  2 0.27643250E+02</rscale>
<asrwt>0</asrwt>
<pdfrwt beam="2">  1        2 0.87197830E-01 0.27643250E+02</pdfrwt>
<pdfrwt beam="1">  1       -2 0.72917467E-01 0.27643250E+02</pdfrwt>
<totfact> 0.10232539E+02</totfact>
</mgrwt>
</event>
<event>
 4    1  0.7653521E+003  0.2425229E+02  0.7546771E-02  0.1671980E+00
          2   -1    0    0  501    0  0.00000000000E+00  0.00000000000E+00  0.26143455789E+04  0.26143455789E+04  0.00000000000E+00 0. -1.
         -2   -1    0    0    0  501 -0.00000000000E+00 -0.00000000000E+00 -0.22788989120E+00  0.22788989120E+00  0.00000000000E+00 0.  1.
          2    1    1    2  502    0 -0.23155255610E+02  0.72115941376E+01  0.11593119018E+04  0.11595655473E+04  0.00000000000E+00 0.  1.
         -2    1    1    2    0  502  0.23155255610E+02 -0.72115941376E+01  0.14548057873E+04  0.14550079215E+04  0.00000000000E+00 0. -1.
<mgrwt>
<rscale>  2 0.24252289E+02</rscale>
<asrwt>0</asrwt>
<pdfrwt beam="1">  1        2 0.40218300E+00 0.24252289E+02</pdfrwt>
<pdfrwt beam="2">  1       -2 0.35062077E-04 0.24252289E+02</pdfrwt>
<totfact> 0.60054822E+05</totfact>
</mgrwt>
</event>
<event>
 4    1  0.7653521E+003  0.2315265E+02  0.7546771E-02  0.1689048E+00
         -2   -1    0    0    0  501 -0.00000000000E+00  0.00000000000E+00  0.58779593554E+02  0.58779593554E+02  0.00000000000E+00 0.  1.
          2   -1    0    0  501    0  0.00000000000E+00 -0.00000000000E+00 -0.97556191436E+03  0.97556191436E+03  0.00000000000E+00 0. -1.
          2    1    1    2  502    0 -0.23087657294E+02  0.17336004297E+01 -0.97313897494E+03  0.97341435670E+03  0.00000000000E+00 0. -1.
         -2    1    1    2    0  502  0.23087657294E+02 -0.17336004297E+01  0.56356654132E+02  0.60927151211E+02  0.00000000000E+00 0.  1.
<mgrwt>
<rscale>  2 0.23152652E+02</rscale>
<asrwt>0</asrwt>
<pdfrwt beam="2">  1        2 0.15008646E+00 0.23152652E+02</pdfrwt>
<pdfrwt beam="1">  1       -2 0.90430137E-02 0.23152652E+02</pdfrwt>
<totfact> 0.19763794E+03</totfact>
</mgrwt>
</event>
<event>
 4    1  0.7653521E+003  0.2561500E+02  0.7546771E-02  0.1652322E+00
          2   -1    0    0  501    0  0.00000000000E+00  0.00000000000E+00  0.10103579230E+04  0.10103579230E+04  0.00000000000E+00 0. -1.
         -2   -1    0    0    0  501 -0.00000000000E+00 -0.00000000000E+00 -0.73411422387E+00  0.73411422387E+00  0.00000000000E+00 0.  1.
          2    1    1    2  502    0 -0.11135700484E+02  0.23067822409E+02  0.67654437737E+03  0.67702911518E+03  0.00000000000E+00 0. -1.
         -2    1    1    2    0  502  0.11135700484E+02 -0.23067822409E+02  0.33307943142E+03  0.33406292205E+03  0.00000000000E+00 0.  1.
<mgrwt>
<rscale>  2 0.25615001E+02</rscale>
<asrwt>0</asrwt>
<pdfrwt beam="1">  1        2 0.15543857E+00 0.25615001E+02</pdfrwt>
<pdfrwt beam="2">  1       -2 0.11294146E-03 0.25615001E+02</pdfrwt>
<totfact> 0.77557528E+05</totfact>
</mgrwt>
</event>
<event>
 4    1  0.7653521E+003  0.2289279E+02  0.7546771E-02  0.1693254E+00
         -2   -1    0    0    0  501 -0.00000000000E+00  0.00000000000E+00  0.26740323652E+00  0.26740323652E+00  0.00000000000E+00 0.  1.
          2   -1    0    0  501    0  0.00000000000E+00 -0.00000000000E+00 -0.20986406494E+04  0.20986406494E+04  0.00000000000E+00 0. -1.
          2    1    1    2  502    0  0.11157660563E+02 -0.19989660742E+02 -0.13190337276E+04  0.13192323732E+04  0.00000000000E+00 0. -1.
         -2    1    1    2    0  502 -0.11157660563E+02  0.19989660742E+02 -0.77933951858E+03  0.77967567947E+03  0.00000000000E+00 0.  1.
<mgrwt>
<rscale>  2 0.22892792E+02</rscale>
<asrwt>0</asrwt>
<pdfrwt beam="2">  1        2 0.32285057E+00 0.22892792E+02</pdfrwt>
<pdfrwt beam="1">  1       -2 0.41141154E-04 0.22892792E+02</pdfrwt>
<totfact> 0.85056266E+05</totfact>
</mgrwt>
</event>
<event>
 4    1  0.7653521E+003  0.2648306E+02  0.7546771E-02  0.1640571E+00
          2   -1    0    0  501    0  0.00000000000E+00  0.00000000000E+00  0.21769964548E+03  0.21769964548E+03  0.00000000000E+00 0.  1.
         -2   -1    0    0    0  501 -0.00000000000E+00 -0.00000000000E+00 -0.16316194003E+02  0.16316194003E+02  0.00000000000E+00 0.  1.
          2    1    1    2  502    0  0.25438793581E+02 -0.73634514047E+01  0.20551337148E+03  0.20721268902E+03  0.00000000000E+00 0.  1.
         -2    1    1    2    0  502 -0.25438793581E+02  0.73634514047E+01 -0.41299200016E+01  0.26803150461E+02  0.00000000000E+00 0.  1.
<mgrwt>
<rscale>  2 0.26483063E+02</rscale>
<asrwt>0</asrwt>
<pdfrwt beam="1">  1        2 0.33492251E-01 0.26483063E+02</pdfrwt>
<pdfrwt beam="2">  1       -2 0.25101839E-02 0.26483063E+02</pdfrwt>
<totfact> 0.59666809E+04</totfact>
</mgrwt>
</event>
<event>
 4    1  0.7653521E+003  0.2333607E+02  0.7546771E-02  0.1686120E+00
          2   -1    0    0  501    0  0.00000000000E+00  0.00000000000E+00  0.25325256977E+03  0.25325256977E+03  0.00000000000E+00 0.  1.
         -2   -1    0    0    0  501 -0.00000000000E+00 -0.00000000000E+00 -0.73480045650E+01  0.73480045650E+01  0.00000000000E+00 0.  1.
          2    1    1    2  502    0 -0.17512654403E+02  0.15423332270E+02  0.23254102036E+03  0.23370900366E+03  0.00000000000E+00 0.  1.
         -2    1    1    2    0  502  0.17512654403E+02 -0.15423332270E+02  0.13363544849E+02  0.26891570677E+02  0.00000000000E+00 0.  1.
<mgrwt>
<rscale>  2 0.23336072E+02</rscale>
<asrwt>0</asrwt>
<pdfrwt beam="1">  1        2 0.38961927E-01 0.23336072E+02</pdfrwt>
<pdfrwt beam="2">  1       -2 0.11304624E-02 0.23336072E+02</pdfrwt>
<totfact> 0.14871304E+05</totfact>
</mgrwt>
</event>
<event>
 4    1  0.7653521E+003  0.2166102E+02  0.7546771E-02  0.1714181E+00
          2   -1    0    0  501    0  0.00000000000E+00  0.00000000000E+00  0.13655159745E+04  0.13655159745E+04  0.00000000000E+00 0. -1.
         -2   -1    0    0    0  501 -0.00000000000E+00 -0.00000000000E+00 -0.11671233158E+03  0.11671233158E+03  0.00000000000E+00 0. -1.
          2    1    1    2  502    0 -0.65216152306E+01  0.20655952369E+02  0.13644242339E+04  0.13645961637E+04  0.00000000000E+00 0. -1.
         -2    1    1    2    0  502  0.65216152306E+01 -0.20655952369E+02 -0.11562059106E+03  0.11763214233E+03  0.00000000000E+00 0. -1.
<mgrwt>
<rscale>  2 0.21661021E+02</rscale>
<asrwt>0</asrwt>
<pdfrwt beam="1">  1        2 0.21007937E+00 0.21661021E+02</pdfrwt>
<pdfrwt beam="2">  1       -2 0.17955744E-01 0.21661021E+02</pdfrwt>
<totfact> 0.43920228E+02</totfact>
</mgrwt>
</event>
<event>
 4    1  0.7653521E+003  0.2057894E+02  0.7546771E-02  0.1734054E+00
          2   -1    0    0  501    0  0.00000000000E+00  0.00000000000E+00  0.37834229811E+03  0.37834229811E+03  0.00000000000E+00 0.  1.
         -2   -1    0    0    0  501 -0.00000000000E+00 -0.00000000000E+00 -0.20566310360E+02  0.20566310360E+02  0.00000000000E+00 0.  1.
          2    1    1    2  502    0 -0.27414686971E+00 -0.20577113510E+02  0.37283863663E+03  0.37340613509E+03  0.00000000000E+00 0.  1.
         -2    1    1    2    0  502  0.27414686971E+00  0.20577113510E+02 -0.15062648885E+02  0.25502473377E+02  0.00000000000E+00 0.  1.
<mgrwt>
<rscale>  2 0.20578940E+02</rscale>
<asrwt>0</asrwt>
<pdfrwt beam="1">  1        2 0.58206502E-01 0.20578940E+02</pdfrwt>
<pdfrwt beam="2">  1       -2 0.31640480E-02 0.20578940E+02</pdfrwt>
<totfact> 0.23838038E+04</totfact>
</mgrwt>
</event>
<event>
 4    1  0.7653521E+003  0.2839238E+02  0.7546771E-02  0.1616570E+00
          2   -1    0    0  501    0  0.00000000000E+00  0.00000000000E+00  0.14840080184E+03  0.14840080184E+03  0.00000000000E+00 0. -1.
         -2   -1    0    0    0  501 -0.00000000000E+00 -0.00000000000E+00 -0.21328741933E+02  0.21328741933E+02  0.00000000000E+00 0.  1.
          2    1    1    2  502    0  0.41472367935E+01  0.28087860979E+02  0.13680120126E+03  0.13971648497E+03  0.00000000000E+00 0. -1.
         -2    1    1    2    0  502 -0.41472367935E+01 -0.28087860979E+02 -0.97291413478E+01  0.30013058804E+02  0.00000000000E+00 0.  1.
<mgrwt>
<rscale>  2 0.28392385E+02</rscale>
<asrwt>0</asrwt>
<pdfrwt beam="1">  1        2 0.22830892E-01 0.28392385E+02</pdfrwt>
<pdfrwt beam="2">  1       -2 0.32813450E-02 0.28392385E+02</pdfrwt>
<totfact> 0.61784365E+04</totfact>
</mgrwt>
</event>
<event>
 4    1  0.7653521E+003  0.2232620E+02  0.7546771E-02  0.1702671E+00
         -2   -1    0    0    0  501 -0.00000000000E+00  0.00000000000E+00  0.25377891720E+03  0.25377891720E+03  0.00000000000E+00 0. -1.
          2   -1    0    0  501    0  0.00000000000E+00 -0.00000000000E+00 -0.35540826047E+03  0.35540826047E+03  0.00000000000E+00 0.  1.
          2    1    1    2  502    0  0.18370070023E+02 -0.12688569800E+02 -0.35456543304E+03  0.35526765344E+03  0.00000000000E+00 0.  1.
         -2    1    1    2    0  502 -0.18370070023E+02  0.12688569800E+02  0.25293608977E+03  0.25391952422E+03  0.00000000000E+00 0. -1.
<mgrwt>
<rscale>  2 0.22326202E+02</rscale>
<asrwt>0</asrwt>
<pdfrwt beam="2">  1        2 0.54678194E-01 0.22326202E+02</pdfrwt>
<pdfrwt beam="1">  1       -2 0.39042910E-01 0.22326202E+02</pdfrwt>
<totfact> 0.54578984E+02</totfact>
</mgrwt>
</event>
<event>
 4    1  0.7653521E+003  0.5756605E+02  0.7546771E-02  0.1408339E+00
          2   -1    0    0  501    0  0.00000000000E+00  0.00000000000E+00  0.50764259626E+03  0.50764259626E+03  0.00000000000E+00 0. -1.
         -2   -1    0    0    0  501 -0.00000000000E+00 -0.00000000000E+00 -0.53779209929E+02  0.53779209929E+02  0.00000000000E+00 0. -1.
          2    1    1    2  502    0  0.54261302798E+02  0.19223984796E+02  0.49005474894E+03  0.49342426727E+03  0.00000000000E+00 0. -1.
         -2    1    1    2    0  502 -0.54261302798E+02 -0.19223984796E+02 -0.36191362603E+02  0.67997538925E+02  0.00000000000E+00 0. -1.
<mgrwt>
<rscale>  2 0.57566054E+02</rscale>
<asrwt>0</asrwt>
<pdfrwt beam="1">  1        2 0.78098858E-01 0.57566054E+02</pdfrwt>
<pdfrwt beam="2">  1       -2 0.82737250E-02 0.57566054E+02</pdfrwt>
<totfact> 0.50096312E+03</totfact>
</mgrwt>
</event>
<event>
 4    1  0.7653521E+003  0.2021680E+02  0.7546771E-02  0.1741051E+00
          2   -1    0    0  501    0  0.00000000000E+00  0.00000000000E+00  0.45951325455E+03  0.45951325455E+03  0.00000000000E+00 0. -1.
         -2   -1    0    0    0  501 -0.00000000000E+00 -0.00000000000E+00 -0.19146306788E+01  0.19146306788E+01  0.00000000000E+00 0. -1.
          2    1    1    2  502    0  0.19772336353E+02  0.42158984593E+01  0.39762138393E+03  0.39813500731E+03  0.00000000000E+00 0. -1.
         -2    1    1    2    0  502 -0.19772336353E+02 -0.42158984593E+01  0.59977239937E+02  0.63292877918E+02  0.00000000000E+00 0. -1.
<mgrwt>
<rscale>  2 0.20216802E+02</rscale>
<asrwt>0</asrwt>
<pdfrwt beam="1">  1        2 0.70694259E-01 0.20216802E+02</pdfrwt>
<pdfrwt beam="2">  1       -2 0.29455893E-03 0.20216802E+02</pdfrwt>
<totfact> 0.48123224E+05</totfact>
</mgrwt>
</event>
<event>
 4    1  0.7653521E+003  0.2647316E+02  0.7546771E-02  0.1640702E+00
         -2   -1    0    0    0  501 -0.00000000000E+00  0.00000000000E+00  0.20446967627E+01  0.20446967627E+01  0.00000000000E+00 0. -1.
          2   -1    0    0  501    0  0.00000000000E+00 -0.00000000000E+00 -0.55294177962E+03  0.55294177962E+03  0.00000000000E+00 0. -1.
          2    1    1    2  502    0  0.26267672196E+02 -0.32920246036E+01 -0.44653530694E+03  0.44731935837E+03  0.00000000000E+00 0. -1.
         -2    1    1    2    0  502 -0.26267672196E+02  0.32920246036E+01 -0.10436177592E+03  0.10766711802E+03  0.00000000000E+00 0. -1.
<mgrwt>
<rscale>  2 0.26473157E+02</rscale>
<asrwt>0</asrwt>
<pdfrwt beam="2">  1        2 0.85067953E-01 0.26473157E+02</pdfrwt>
<pdfrwt beam="1">  1       -2 0.31456878E-03 0.26473157E+02</pdfrwt>
<totfact> 0.39485143E+05</totfact>
</mgrwt>
</event>
<event>
 4    1  0.7653521E+003  0.2829609E+02  0.7546771E-02  0.1617725E+00
         -2   -1    0    0    0  501 -0.00000000000E+00  0.00000000000E+00  0.17554933554E+02  0.17554933554E+02  0.00000000000E+00 0. -1.
          2   -1    0    0  501    0  0.00000000000E+00 -0.00000000000E+00 -0.53244289504E+03  0.53244289504E+03  0.00000000000E+00 0.  1.
          2    1    1    2  502    0 -0.23148847504E+02  0.16272655140E+02 -0.52040097429E+03  0.52116968685E+03  0.00000000000E+00 0.  1.
         -2    1    1    2    0  502  0.23148847504E+02 -0.16272655140E+02  0.55130128092E+01  0.28828141742E+02  0.00000000000E+00 0. -1.
<mgrwt>
<rscale>  2 0.28296085E+02</rscale>
<asrwt>0</asrwt>
<pdfrwt beam="2">  1        2 0.81914295E-01 0.28296085E+02</pdfrwt>
<pdfrwt beam="1">  1       -2 0.27007589E-02 0.28296085E+02</pdfrwt>
<totfact> 0.22260471E+04</totfact>
</mgrwt>
</event>
<event>
 4    1  0.7653521E+003  0.1010203E+03  0.7546771E-02  0.1278165E+00
          2   -1    0    0  501    0  0.00000000000E+00  0.00000000000E+00  0.87391117769E+03  0.87391117769E+03  0.00000000000E+00 0.  1.
         -2   -1    0    0    0  501 -0.00000000000E+00 -0.00000000000E+00 -0.11773920764E+02  0.11773920764E+02  0.00000000000E+00 0. -1.
          2    1    1    2  502    0 -0.70486964643E+02  0.72364912092E+02  0.39099236806E+03  0.40383180232E+03  0.00000000000E+00 0.  1.
         -2    1    1    2    0  502  0.70486964643E+02 -0.72364912092E+02  0.47114488887E+03  0.48185329614E+03  0.00000000000E+00 0. -1.
<mgrwt>
<rscale>  2 0.10102031E+03</rscale>
<asrwt>0</asrwt>
<pdfrwt beam="1">  1        2 0.13444782E+00 0.10102031E+03</pdfrwt>
<pdfrwt beam="2">  1       -2 0.18113731E-02 0.10102031E+03</pdfrwt>
<totfact> 0.26064531E+04</totfact>
</mgrwt>
</event>
<event>
 4    1  0.7653521E+003  0.3116858E+02  0.7546771E-02  0.1585519E+00
         -2   -1    0    0    0  501 -0.00000000000E+00  0.00000000000E+00  0.37103636986E+03  0.37103636986E+03  0.00000000000E+00 0. -1.
          2   -1    0    0  501    0  0.00000000000E+00 -0.00000000000E+00 -0.43044191535E+02  0.43044191535E+02  0.00000000000E+00 0. -1.
          2    1    1    2  502    0  0.11030268066E+02  0.29151566708E+02 -0.36648489355E+02  0.48110211256E+02  0.00000000000E+00 0. -1.
         -2    1    1    2    0  502 -0.11030268066E+02 -0.29151566708E+02  0.36464066768E+03  0.36597035014E+03  0.00000000000E+00 0. -1.
<mgrwt>
<rscale>  2 0.31168584E+02</rscale>
<asrwt>0</asrwt>
<pdfrwt beam="2">  1        2 0.66221836E-02 0.31168584E+02</pdfrwt>
<pdfrwt beam="1">  1       -2 0.57082516E-01 0.31168584E+02</pdfrwt>
<totfact> 0.26784390E+03</totfact>
</mgrwt>
</event>
<event>
 4    1  0.7653521E+003  0.2203557E+02  0.7546771E-02  0.1707638E+00
          2   -1    0    0  501    0  0.00000000000E+00  0.00000000000E+00  0.95113435852E+03  0.95113435852E+03  0.00000000000E+00 0.  1.
         -2   -1    0    0    0  501 -0.00000000000E+00 -0.00000000000E+00 -0.34978060401E+01  0.34978060401E+01  0.00000000000E+00 0. -1.
          2    1    1    2  502    0 -0.85667673578E+01 -0.20302138497E+02  0.91492850508E+03  0.91519382414E+03  0.00000000000E+00 0.  1.
         -2    1    1    2    0  502  0.85667673578E+01  0.20302138497E+02  0.32708047394E+02  0.39438340417E+02  0.00000000000E+00 0. -1.
<mgrwt>
<rscale>  2 0.22035570E+02</rscale>
<asrwt>0</asrwt>
<pdfrwt beam="1">  1        2 0.14632816E+00 0.22035570E+02</pdfrwt>
<pdfrwt beam="2">  1       -2 0.53812476E-03 0.22035570E+02</pdfrwt>
<totfact> 0.10092655E+05</totfact>
</mgrwt>
</event>
<event>
 4    1  0.7653521E+003  0.2797860E+02  0.7546771E-02  0.1621571E+00
          2   -1    0    0  501    0  0.00000000000E+00  0.00000000000E+00  0.61462063999E+01  0.61462063999E+01  0.00000000000E+00 0.  1.
         -2   -1    0    0    0  501 -0.00000000000E+00 -0.00000000000E+00 -0.13428545033E+03  0.13428545033E+03  0.00000000000E+00 0. -1.
          2    1    1    2  502    0 -0.27537839793E+02 -0.49465884613E+01 -0.80011515041E+02  0.84762278739E+02  0.00000000000E+00 0.  1.
         -2    1    1    2    0  502  0.27537839793E+02  0.49465884613E+01 -0.48127728889E+02  0.55669377991E+02  0.00000000000E+00 0. -1.
<mgrwt>
<rscale>  2 0.27978601E+02</rscale>
<asrwt>0</asrwt>
<pdfrwt beam="1">  1        2 0.94557036E-03 0.27978601E+02</pdfrwt>
<pdfrwt beam="2">  1       -2 0.20659297E-01 0.27978601E+02</pdfrwt>
<totfact> 0.19279914E+05</totfact>
</mgrwt>
</event>
<event>
 4    1  0.7653521E+003  0.2539871E+02  0.7546771E-02  0.1655340E+00
          2   -1    0    0  501    0  0.00000000000E+00  0.00000000000E+00  0.80026069085E+01  0.80026069085E+01  0.00000000000E+00 0.  1.
         -2   -1    0    0    0  501 -0.00000000000E+00 -0.00000000000E+00 -0.15634477052E+03  0.15634477052E+03  0.00000000000E+00 0. -1.
          2    1    1    2  502    0  0.87352089424E+01 -0.23849329173E+02 -0.16978823877E+02  0.30551183897E+02  0.00000000000E+00 0.  1.
         -2    1    1    2    0  502 -0.87352089424E+01  0.23849329173E+02 -0.13136333974E+03  0.13379619353E+03  0.00000000000E+00 0. -1.
<mgrwt>
<rscale>  2 0.25398708E+02</rscale>
<asrwt>0</asrwt>
<pdfrwt beam="1">  1        2 0.12311703E-02 0.25398708E+02</pdfrwt>
<pdfrwt beam="2">  1       -2 0.24053042E-01 0.25398708E+02</pdfrwt>
<totfact> 0.10354194E+05</totfact>
</mgrwt>
</event>
<event>
 4    1  0.7653521E+003  0.7386401E+02  0.7546771E-02  0.1347425E+00
          2   -1    0    0  501    0  0.00000000000E+00  0.00000000000E+00  0.24862269185E+03  0.24862269185E+03  0.00000000000E+00 0. -1.
         -2   -1    0    0    0  501 -0.00000000000E+00 -0.00000000000E+00 -0.24863219442E+02  0.24863219442E+02  0.00000000000E+00 0. -1.
          2    1    1    2  502    0  0.47388353658E+02 -0.56658950015E+02  0.15873138135E+03  0.17507582387E+03  0.00000000000E+00 0. -1.
         -2    1    1    2    0  502 -0.47388353658E+02  0.56658950015E+02  0.65028091055E+02  0.98410087417E+02  0.00000000000E+00 0. -1.
<mgrwt>
<rscale>  2 0.73864015E+02</rscale>
<asrwt>0</asrwt>
<pdfrwt beam="1">  1        2 0.38249643E-01 0.73864015E+02</pdfrwt>
<pdfrwt beam="2">  1       -2 0.38251108E-02 0.73864015E+02</pdfrwt>
<totfact> 0.33880384E+04</totfact>
</mgrwt>
</event>
<event>
 4    1  0.7653521E+003  0.2159992E+02  0.7546771E-02  0.1715264E+00
          2   -1    0    0  501    0  0.00000000000E+00  0.00000000000E+00  0.95162068801E+02  0.95162068801E+02  0.00000000000E+00 0.  1.
         -2   -1    0    0    0  501 -0.00000000000E+00 -0.00000000000E+00 -0.20265446991E+02  0.20265446991E+02  0.00000000000E+00 0. -1.
          2    1    1    2  502    0  0.92366856838E+01  0.19525375671E+02  0.87698172455E+02  0.90319024073E+02  0.00000000000E+00 0.  1.
         -2    1    1    2    0  502 -0.92366856838E+01 -0.19525375671E+02 -0.12801550645E+02  0.25108491719E+02  0.00000000000E+00 0. -1.
<mgrwt>
<rscale>  2 0.21599923E+02</rscale>
<asrwt>0</asrwt>
<pdfrwt beam="1">  1        2 0.14640318E-01 0.21599923E+02</pdfrwt>
<pdfrwt beam="2">  1       -2 0.31177611E-02 0.21599923E+02</pdfrwt>
<totfact> 0.10049069E+05</totfact>
</mgrwt>
</event>
<event>
 4    1  0.7653521E+003  0.2621188E+02  0.7546771E-02  0.1644181E+00
          2   -1    0    0  501    0  0.00000000000E+00  0.00000000000E+00  0.76746210983E+03  0.76746210983E+03  0.00000000000E+00 0. -1.
         -2   -1    0    0    0  501 -0.00000000000E+00 -0.00000000000E+00 -0.11050285204E+01  0.11050285204E+01  0.00000000000E+00 0. -1.
          2    1    1    2  502    0 -0.24689846128E+02  0.88019525690E+01  0.55061722719E+03  0.55124077657E+03  0.00000000000E+00 0. -1.
         -2    1    1    2    0  502  0.24689846128E+02 -0.88019525690E+01  0.21573985412E+03  0.21732636179E+03  0.00000000000E+00 0. -1.
<mgrwt>
<rscale>  2 0.26211884E+02</rscale>
<asrwt>0</asrwt>
<pdfrwt beam="1">  1        2 0.11807067E+00 0.26211884E+02</pdfrwt>
<pdfrwt beam="2">  1       -2 0.17000500E-03 0.26211884E+02</pdfrwt>
<totfact> 0.62931564E+05</totfact>
</mgrwt>
</event>
<event>
 4    1  0.7653521E+003  0.2106975E+02  0.7546771E-02  0.1724855E+00
          2   -1    0    0  501    0  0.00000000000E+00  0.00000000000E+00  0.96551693219E+03  0.96551693219E+03  0.00000000000E+00 0.  1.
         -2   -1    0    0    0  501 -0.00000000000E+00 -0.00000000000E+00 -0.18922643003E+02  0.18922643003E+02  0.00000000000E+00 0. -1.
          2    1    1    2  502    0  0.44141363122E+01 -0.20602179677E+02  0.95950008864E+03  0.95973139706E+03  0.00000000000E+00 0.  1.
         -2    1    1    2    0  502 -0.44141363122E+01  0.20602179677E+02 -0.12905799456E+02  0.24708178128E+02  0.00000000000E+00 0. -1.
<mgrwt>
<rscale>  2 0.21069751E+02</rscale>
<asrwt>0</asrwt>
<pdfrwt beam="1">  1        2 0.14854103E+00 0.21069751E+02</pdfrwt>
<pdfrwt beam="2">  1       -2 0.29111766E-02 0.21069751E+02</pdfrwt>
<totfact> 0.99618860E+03</totfact>
</mgrwt>
</event>
<event>
 4    1  0.7653521E+003  0.3227813E+02  0.7546771E-02  0.1574191E+00
          2   -1    0    0  501    0  0.00000000000E+00  0.00000000000E+00  0.35415047474E+03  0.35415047474E+03  0.00000000000E+00 0. -1.
         -2   -1    0    0    0  501 -0.00000000000E+00 -0.00000000000E+00 -0.47156447699E+01  0.47156447699E+01  0.00000000000E+00 0.  1.
          2    1    1    2  502    0 -0.66209596242E+01  0.31591777781E+02  0.28476403514E+03  0.28658756644E+03  0.00000000000E+00 0. -1.
         -2    1    1    2    0  502  0.66209596242E+01 -0.31591777781E+02  0.64670794833E+02  0.72278553071E+02  0.00000000000E+00 0.  1.
<mgrwt>
<rscale>  2 0.32278128E+02</rscale>
<asrwt>0</asrwt>
<pdfrwt beam="1">  1        2 0.54484668E-01 0.32278128E+02</pdfrwt>
<pdfrwt beam="2">  1       -2 0.72548409E-03 0.32278128E+02</pdfrwt>
<totfact> 0.21067756E+05</totfact>
</mgrwt>
</event>
<event>
 4    1  0.7653521E+003  0.2990421E+02  0.7546771E-02  0.1599150E+00
          2   -1    0    0  501    0  0.00000000000E+00  0.00000000000E+00  0.12016776427E+04  0.12016776427E+04  0.00000000000E+00 0.  1.
         -2   -1    0    0    0  501 -0.00000000000E+00 -0.00000000000E+00 -0.10763808270E+03  0.10763808270E+03  0.00000000000E+00 0.  1.
          2    1    1    2  502    0 -0.22701444374E+02 -0.19465512604E+02  0.11994106626E+04  0.11997833968E+04  0.00000000000E+00 0.  1.
         -2    1    1    2    0  502  0.22701444374E+02  0.19465512604E+02 -0.10537110255E+03  0.10953232861E+03  0.00000000000E+00 0.  1.
<mgrwt>
<rscale>  2 0.29904210E+02</rscale>
<asrwt>0</asrwt>
<pdfrwt beam="1">  1        2 0.18487347E+00 0.29904210E+02</pdfrwt>
<pdfrwt beam="2">  1       -2 0.16559706E-01 0.29904210E+02</pdfrwt>
<totfact> 0.60059774E+02</totfact>
</mgrwt>
</event>
<event>
 4    1  0.7653521E+003  0.2505267E+02  0.7546771E-02  0.1660247E+00
          2   -1    0    0  501    0  0.00000000000E+00  0.00000000000E+00  0.11558292677E+03  0.11558292677E+03  0.00000000000E+00 0. -1.
         -2   -1    0    0    0  501 -0.00000000000E+00 -0.00000000000E+00 -0.45429082166E+02  0.45429082166E+02  0.00000000000E+00 0. -1.
          2    1    1    2  502    0  0.97577142438E+00  0.25033655925E+02  0.11061837450E+03  0.11341984322E+03  0.00000000000E+00 0. -1.
         -2    1    1    2    0  502 -0.97577142438E+00 -0.25033655925E+02 -0.40464529891E+02  0.47592165722E+02  0.00000000000E+00 0. -1.
<mgrwt>
<rscale>  2 0.25052666E+02</rscale>
<asrwt>0</asrwt>
<pdfrwt beam="1">  1        2 0.17781989E-01 0.25052666E+02</pdfrwt>
<pdfrwt beam="2">  1       -2 0.69890897E-02 0.25052666E+02</pdfrwt>
<totfact> 0.26752869E+04</totfact>
</mgrwt>
</event>
<event>
 4    1  0.7653521E+003  0.4343541E+02  0.7546771E-02  0.1484352E+00
          2   -1    0    0  501    0  0.00000000000E+00  0.00000000000E+00  0.96184081522E+02  0.96184081522E+02  0.00000000000E+00 0. -1.
         -2   -1    0    0    0  501 -0.00000000000E+00 -0.00000000000E+00 -0.22364682011E+02  0.22364682011E+02  0.00000000000E+00 0. -1.
          2    1    1    2  502    0  0.30945881906E+02 -0.30479290574E+02  0.57694221717E+02  0.72216743075E+02  0.00000000000E+00 0. -1.
         -2    1    1    2    0  502 -0.30945881906E+02  0.30479290574E+02  0.16125177794E+02  0.46332020458E+02  0.00000000000E+00 0. -1.
<mgrwt>
<rscale>  2 0.43435409E+02</rscale>
<asrwt>0</asrwt>
<pdfrwt beam="1">  1        2 0.14797551E-01 0.43435409E+02</pdfrwt>
<pdfrwt beam="2">  1       -2 0.34407204E-02 0.43435409E+02</pdfrwt>
<totfact> 0.10101422E+05</totfact>
</mgrwt>
</event>
<event>
 4    1  0.7653521E+003  0.2287059E+02  0.7546771E-02  0.1693616E+00
         -2   -1    0    0    0  501 -0.00000000000E+00  0.00000000000E+00  0.14370598696E+03  0.14370598696E+03  0.00000000000E+00 0.  1.
          2   -1    0    0  501    0  0.00000000000E+00 -0.00000000000E+00 -0.71746479867E+01  0.71746479867E+01  0.00000000000E+00 0.  1.
          2    1    1    2  502    0 -0.10324524737E+02  0.20407551001E+02  0.15313063179E+02  0.27523696206E+02  0.00000000000E+00 0.  1.
         -2    1    1    2    0  502  0.10324524737E+02 -0.20407551001E+02  0.12121827580E+03  0.12335693874E+03  0.00000000000E+00 0.  1.
<mgrwt>
<rscale>  2 0.22870591E+02</rscale>
<asrwt>0</asrwt>
<pdfrwt beam="2">  1        2 0.11037921E-02 0.22870591E+02</pdfrwt>
<pdfrwt beam="1">  1       -2 0.22108611E-01 0.22870591E+02</pdfrwt>
<totfact> 0.13326188E+05</totfact>
</mgrwt>
</event>
<event>
 4    1  0.7653521E+003  0.2166383E+02  0.7546771E-02  0.1714132E+00
          2   -1    0    0  501    0  0.00000000000E+00  0.00000000000E+00  0.97168865378E+01  0.97168865378E+01  0.00000000000E+00 0.  1.
         -2   -1    0    0    0  501 -0.00000000000E+00 -0.00000000000E+00 -0.10121265725E+03  0.10121265725E+03  0.00000000000E+00 0.  1.
          2    1    1    2  502    0  0.63940576172E+01  0.20698728135E+02 -0.56444644797E+01  0.22387078829E+02  0.00000000000E+00 0.  1.
         -2    1    1    2    0  502 -0.63940576172E+01 -0.20698728135E+02 -0.85851306230E+02  0.88542464956E+02  0.00000000000E+00 0.  1.
<mgrwt>
<rscale>  2 0.21663825E+02</rscale>
<asrwt>0</asrwt>
<pdfrwt beam="1">  1        2 0.14949057E-02 0.21663825E+02</pdfrwt>
<pdfrwt beam="2">  1       -2 0.15571177E-01 0.21663825E+02</pdfrwt>
<totfact> 0.15488835E+05</totfact>
</mgrwt>
</event>
<event>
 4    1  0.7653521E+003  0.4789583E+02  0.7546771E-02  0.1457033E+00
          2   -1    0    0  501    0  0.00000000000E+00  0.00000000000E+00  0.85298370984E+03  0.85298370984E+03  0.00000000000E+00 0.  1.
         -2   -1    0    0    0  501 -0.00000000000E+00 -0.00000000000E+00 -0.66643656794E+03  0.66643656794E+03  0.00000000000E+00 0. -1.
          2    1    1    2  502    0 -0.37093763473E+02 -0.30299560383E+02  0.85144926030E+03  0.85279531748E+03  0.00000000000E+00 0.  1.
         -2    1    1    2    0  502  0.37093763473E+02  0.30299560383E+02 -0.66490211840E+03  0.66662496030E+03  0.00000000000E+00 0. -1.
<mgrwt>
<rscale>  2 0.47895831E+02</rscale>
<asrwt>0</asrwt>
<pdfrwt beam="1">  1        2 0.13122826E+00 0.47895831E+02</pdfrwt>
<pdfrwt beam="2">  1       -2 0.10252870E+00 0.47895831E+02</pdfrwt>
<totfact> 0.30228122E+01</totfact>
</mgrwt>
</event>
<event>
 4    1  0.7653521E+003  0.2537560E+02  0.7546771E-02  0.1655665E+00
          2   -1    0    0  501    0  0.00000000000E+00  0.00000000000E+00  0.38230088237E+03  0.38230088237E+03  0.00000000000E+00 0. -1.
         -2   -1    0    0    0  501 -0.00000000000E+00 -0.00000000000E+00 -0.16918771436E+01  0.16918771436E+01  0.00000000000E+00 0. -1.
          2    1    1    2  502    0 -0.76988566201E+01  0.24179508138E+02  0.20312744678E+03  0.20470632780E+03  0.00000000000E+00 0. -1.
         -2    1    1    2    0  502  0.76988566201E+01 -0.24179508138E+02  0.17748155845E+03  0.17928643171E+03  0.00000000000E+00 0. -1.
<mgrwt>
<rscale>  2 0.25375599E+02</rscale>
<asrwt>0</asrwt>
<pdfrwt beam="1">  1        2 0.58815452E-01 0.25375599E+02</pdfrwt>
<pdfrwt beam="2">  1       -2 0.26028910E-03 0.25375599E+02</pdfrwt>
<totfact> 0.72924333E+05</totfact>
</mgrwt>
</event>
<event>
 4    1  0.7653521E+003  0.2893646E+02  0.7546771E-02  0.1610151E+00
          2   -1    0    0  501    0  0.00000000000E+00  0.00000000000E+00  0.83332015108E+03  0.83332015108E+03  0.00000000000E+00 0. -1.
         -2   -1    0    0    0  501 -0.00000000000E+00 -0.00000000000E+00 -0.10993200124E+03  0.10993200124E+03  0.00000000000E+00 0. -1.
          2    1    1    2  502    0 -0.28862560154E+02  0.20666813077E+01  0.83115982997E+03  0.83166338233E+03  0.00000000000E+00 0. -1.
         -2    1    1    2    0  502  0.28862560154E+02 -0.20666813077E+01 -0.10777168013E+03  0.11158877000E+03  0.00000000000E+00 0. -1.
<mgrwt>
<rscale>  2 0.28936457E+02</rscale>
<asrwt>0</asrwt>
<pdfrwt beam="1">  1        2 0.12820310E+00 0.28936457E+02</pdfrwt>
<pdfrwt beam="2">  1       -2 0.16912616E-01 0.28936457E+02</pdfrwt>
<totfact> 0.92599165E+02</totfact>
</mgrwt>
</event>
<event>
 4    1  0.7653521E+003  0.5063724E+02  0.7546771E-02  0.1441934E+00
          2   -1    0    0  501    0  0.00000000000E+00  0.00000000000E+00  0.94588723045E+03  0.94588723045E+03  0.00000000000E+00 0.  1.
         -2   -1    0    0    0  501 -0.00000000000E+00 -0.00000000000E+00 -0.10353127627E+02  0.10353127627E+02  0.00000000000E+00 0.  1.
          2    1    1    2  502    0  0.45370965312E+02 -0.22485676080E+02  0.87855107483E+03  0.88000915973E+03  0.00000000000E+00 0.  1.
         -2    1    1    2    0  502 -0.45370965312E+02  0.22485676080E+02  0.56983027993E+02  0.76231198347E+02  0.00000000000E+00 0.  1.
<mgrwt>
<rscale>  2 0.50637240E+02</rscale>
<asrwt>0</asrwt>
<pdfrwt beam="1">  1        2 0.14552104E+00 0.50637240E+02</pdfrwt>
<pdfrwt beam="2">  1       -2 0.15927896E-02 0.50637240E+02</pdfrwt>
<totfact> 0.26326714E+04</totfact>
</mgrwt>
</event>
<event>
 4    1  0.7653521E+003  0.2521292E+02  0.7546771E-02  0.1657962E+00
          2   -1    0    0  501    0  0.00000000000E+00  0.00000000000E+00  0.29148209730E+01  0.29148209730E+01  0.00000000000E+00 0.  1.
         -2   -1    0    0    0  501 -0.00000000000E+00 -0.00000000000E+00 -0.52878989990E+03  0.52878989990E+03  0.00000000000E+00 0.  1.
          2    1    1    2  502    0 -0.25187163089E+02 -0.11394068754E+01 -0.59153601272E+02  0.64302721372E+02  0.00000000000E+00 0.  1.
         -2    1    1    2    0  502  0.25187163089E+02  0.11394068754E+01 -0.46672147766E+03  0.46740199950E+03  0.00000000000E+00 0.  1.
<mgrwt>
<rscale>  2 0.25212922E+02</rscale>
<asrwt>0</asrwt>
<pdfrwt beam="1">  1        2 0.44843400E-03 0.25212922E+02</pdfrwt>
<pdfrwt beam="2">  1       -2 0.81352292E-01 0.25212922E+02</pdfrwt>
<totfact> 0.39941300E+04</totfact>
</mgrwt>
</event>
<event>
 4    1  0.7653521E+003  0.2249164E+02  0.7546771E-02  0.1699885E+00
          2   -1    0    0  501    0  0.00000000000E+00  0.00000000000E+00  0.85657321396E+02  0.85657321396E+02  0.00000000000E+00 0.  1.
         -2   -1    0    0    0  501 -0.00000000000E+00 -0.00000000000E+00 -0.49117005436E+02  0.49117005436E+02  0.00000000000E+00 0.  1.
          2    1    1    2  502    0 -0.50827345479E+00  0.22485898164E+02  0.81476329841E+02  0.84523761644E+02  0.00000000000E+00 0.  1.
         -2    1    1    2    0  502  0.50827345479E+00 -0.22485898164E+02 -0.44936013881E+02  0.50250565188E+02  0.00000000000E+00 0.  1.
<mgrwt>
<rscale>  2 0.22491642E+02</rscale>
<asrwt>0</asrwt>
<pdfrwt beam="1">  1        2 0.13178049E-01 0.22491642E+02</pdfrwt>
<pdfrwt beam="2">  1       -2 0.75564624E-02 0.22491642E+02</pdfrwt>
<totfact> 0.32471115E+04</totfact>
</mgrwt>
</event>
<event>
 4    1  0.7653521E+003  0.2832708E+02  0.7546771E-02  0.1617352E+00
          2   -1    0    0  501    0  0.00000000000E+00  0.00000000000E+00  0.13628225196E+02  0.13628225196E+02  0.00000000000E+00 0.  1.
         -2   -1    0    0    0  501 -0.00000000000E+00 -0.00000000000E+00 -0.59725704531E+02  0.59725704531E+02  0.00000000000E+00 0. -1.
          2    1    1    2  502    0 -0.21584090458E+02  0.18345294626E+02 -0.27414459637E+02  0.39420494580E+02  0.00000000000E+00 0.  1.
         -2    1    1    2    0  502  0.21584090458E+02 -0.18345294626E+02 -0.18683019698E+02  0.33933435146E+02  0.00000000000E+00 0. -1.
<mgrwt>
<rscale>  2 0.28327082E+02</rscale>
<asrwt>0</asrwt>
<pdfrwt beam="1">  1        2 0.20966501E-02 0.28327082E+02</pdfrwt>
<pdfrwt beam="2">  1       -2 0.91885697E-02 0.28327082E+02</pdfrwt>
<totfact> 0.24080258E+05</totfact>
</mgrwt>
</event>
<event>
 4    1  0.7653521E+003  0.2299782E+02  0.7546771E-02  0.1691546E+00
          2   -1    0    0  501    0  0.00000000000E+00  0.00000000000E+00  0.38270496237E+02  0.38270496237E+02  0.00000000000E+00 0.  1.
         -2   -1    0    0    0  501 -0.00000000000E+00 -0.00000000000E+00 -0.16620275086E+02  0.16620275086E+02  0.00000000000E+00 0.  1.
          2    1    1    2  502    0  0.19684675215E+02 -0.11891726060E+02  0.22090543587E+02  0.31888739438E+02  0.00000000000E+00 0.  1.
         -2    1    1    2    0  502 -0.19684675215E+02  0.11891726060E+02 -0.44032243503E+00  0.23002031885E+02  0.00000000000E+00 0.  1.
<mgrwt>
<rscale>  2 0.22997817E+02</rscale>
<asrwt>0</asrwt>
<pdfrwt beam="1">  1        2 0.58877686E-02 0.22997817E+02</pdfrwt>
<pdfrwt beam="2">  1       -2 0.25569654E-02 0.22997817E+02</pdfrwt>
<totfact> 0.38567718E+05</totfact>
</mgrwt>
</event>
<event>
 4    1  0.7653521E+003  0.2841153E+02  0.7546771E-02  0.1616341E+00
         -2   -1    0    0    0  501 -0.00000000000E+00  0.00000000000E+00  0.22685671576E+02  0.22685671576E+02  0.00000000000E+00 0.  1.
          2   -1    0    0  501    0  0.00000000000E+00 -0.00000000000E+00 -0.10237889399E+04  0.10237889399E+04  0.00000000000E+00 0.  1.
          2    1    1    2  502    0  0.42973319410E+01  0.28084658843E+02 -0.10146157658E+04  0.10150134813E+04  0.00000000000E+00 0.  1.
         -2    1    1    2    0  502 -0.42973319410E+01 -0.28084658843E+02  0.13512497435E+02  0.31461130162E+02  0.00000000000E+00 0.  1.
<mgrwt>
<rscale>  2 0.28411532E+02</rscale>
<asrwt>0</asrwt>
<pdfrwt beam="2">  1        2 0.15750595E+00 0.28411532E+02</pdfrwt>
<pdfrwt beam="1">  1       -2 0.34901042E-02 0.28411532E+02</pdfrwt>
<totfact> 0.74291328E+03</totfact>
</mgrwt>
</event>
<event>
 4    1  0.7653521E+003  0.3032736E+02  0.7546771E-02  0.1594498E+00
         -2   -1    0    0    0  501 -0.00000000000E+00  0.00000000000E+00  0.47142523904E+01  0.47142523904E+01  0.00000000000E+00 0. -1.
          2   -1    0    0  501    0  0.00000000000E+00 -0.00000000000E+00 -0.22554418701E+04  0.22554418701E+04  0.00000000000E+00 0.  1.
          2    1    1    2  502    0  0.27976484668E+01  0.30198041226E+02 -0.22054597050E+04  0.22056682114E+04  0.00000000000E+00 0.  1.
         -2    1    1    2    0  502 -0.27976484668E+01 -0.30198041226E+02 -0.45267912715E+02  0.54487911067E+02  0.00000000000E+00 0. -1.
<mgrwt>
<rscale>  2 0.30327356E+02</rscale>
<asrwt>0</asrwt>
<pdfrwt beam="2">  1        2 0.34699113E+00 0.30327356E+02</pdfrwt>
<pdfrwt beam="1">  1       -2 0.72526946E-03 0.30327356E+02</pdfrwt>
<totfact> 0.16456532E+04</totfact>
</mgrwt>
</event>
<event>
 4    1  0.7653521E+003  0.2190453E+02  0.7546771E-02  0.1709908E+00
          2   -1    0    0  501    0  0.00000000000E+00  0.00000000000E+00  0.24117462621E+02  0.24117462621E+02  0.00000000000E+00 0.  1.
         -2   -1    0    0    0  501 -0.00000000000E+00 -0.00000000000E+00 -0.46683887575E+02  0.46683887575E+02  0.00000000000E+00 0.  1.
          2    1    1    2  502    0  0.27212502775E+01  0.21734841815E+02  0.15533663834E+02  0.26853365970E+02  0.00000000000E+00 0.  1.
         -2    1    1    2    0  502 -0.27212502775E+01 -0.21734841815E+02 -0.38100088788E+02  0.43947984226E+02  0.00000000000E+00 0.  1.
<mgrwt>
<rscale>  2 0.21904533E+02</rscale>
<asrwt>0</asrwt>
<pdfrwt beam="1">  1        2 0.37103789E-02 0.21904533E+02</pdfrwt>
<pdfrwt beam="2">  1       -2 0.71821365E-02 0.21904533E+02</pdfrwt>
<totfact> 0.15611704E+05</totfact>
</mgrwt>
</event>
<event>
 4    1  0.7653521E+003  0.2869884E+02  0.7546771E-02  0.1612933E+00
         -2   -1    0    0    0  501 -0.00000000000E+00  0.00000000000E+00  0.30890915277E+01  0.30890915277E+01  0.00000000000E+00 0.  1.
          2   -1    0    0  501    0  0.00000000000E+00 -0.00000000000E+00 -0.16594284941E+04  0.16594284941E+04  0.00000000000E+00 0. -1.
          2    1    1    2  502    0  0.27236977850E+02  0.90427146663E+01 -0.15897262830E+04  0.15899853076E+04  0.00000000000E+00 0. -1.
         -2    1    1    2    0  502 -0.27236977850E+02 -0.90427146663E+01 -0.66613119576E+02  0.72532277992E+02  0.00000000000E+00 0.  1.
<mgrwt>
<rscale>  2 0.28698844E+02</rscale>
<asrwt>0</asrwt>
<pdfrwt beam="2">  1        2 0.25529670E+00 0.28698844E+02</pdfrwt>
<pdfrwt beam="1">  1       -2 0.47524484E-03 0.28698844E+02</pdfrwt>
<totfact> 0.55561934E+04</totfact>
</mgrwt>
</event>
<event>
 4    1  0.7653521E+003  0.2336631E+02  0.7546771E-02  0.1685640E+00
         -2   -1    0    0    0  501 -0.00000000000E+00  0.00000000000E+00  0.80662009711E+02  0.80662009711E+02  0.00000000000E+00 0. -1.
          2   -1    0    0  501    0  0.00000000000E+00 -0.00000000000E+00 -0.11638172528E+02  0.11638172528E+02  0.00000000000E+00 0.  1.
          2    1    1    2  502    0  0.23122561493E+02 -0.33662653539E+01  0.46603676746E+01  0.23826531835E+02  0.00000000000E+00 0.  1.
         -2    1    1    2    0  502 -0.23122561493E+02  0.33662653539E+01  0.64363469509E+02  0.68473650404E+02  0.00000000000E+00 0. -1.
<mgrwt>
<rscale>  2 0.23366313E+02</rscale>
<asrwt>0</asrwt>
<pdfrwt beam="2">  1        2 0.17904881E-02 0.23366313E+02</pdfrwt>
<pdfrwt beam="1">  1       -2 0.12409540E-01 0.23366313E+02</pdfrwt>
<totfact> 0.17790242E+05</totfact>
</mgrwt>
</event>
<event>
 4    1  0.7653521E+003  0.2693704E+02  0.7546771E-02  0.1634643E+00
         -2   -1    0    0    0  501 -0.00000000000E+00  0.00000000000E+00  0.56627363929E+02  0.56627363929E+02  0.00000000000E+00 0. -1.
          2   -1    0    0  501    0  0.00000000000E+00 -0.00000000000E+00 -0.11194298497E+03  0.11194298497E+03  0.00000000000E+00 0.  1.
          2    1    1    2  502    0 -0.89570684169E+01  0.25404234689E+02 -0.10697253251E+03  0.11031195278E+03  0.00000000000E+00 0.  1.
         -2    1    1    2    0  502  0.89570684169E+01 -0.25404234689E+02  0.51656911473E+02  0.58258396113E+02  0.00000000000E+00 0. -1.
<mgrwt>
<rscale>  2 0.26937042E+02</rscale>
<asrwt>0</asrwt>
<pdfrwt beam="2">  1        2 0.17221998E-01 0.26937042E+02</pdfrwt>
<pdfrwt beam="1">  1       -2 0.87119022E-02 0.26937042E+02</pdfrwt>
<totfact> 0.20307355E+04</totfact>
</mgrwt>
</event>
<event>
 4    1  0.7653521E+003  0.2526762E+02  0.7546771E-02  0.1657188E+00
         -2   -1    0    0    0  501 -0.00000000000E+00  0.00000000000E+00  0.16506806805E+01  0.16506806805E+01  0.00000000000E+00 0.  1.
          2   -1    0    0  501    0  0.00000000000E+00 -0.00000000000E+00 -0.10102113425E+04  0.10102113425E+04  0.00000000000E+00 0.  1.
          2    1    1    2  502    0  0.10924141704E+02  0.22784108203E+02 -0.90172715924E+03  0.90208110621E+03  0.00000000000E+00 0.  1.
         -2    1    1    2    0  502 -0.10924141704E+02 -0.22784108203E+02 -0.10683350253E+03  0.10978091693E+03  0.00000000000E+00 0.  1.
<mgrwt>
<rscale>  2 0.25267617E+02</rscale>
<asrwt>0</asrwt>
<pdfrwt beam="2">  1        2 0.15541685E+00 0.25267617E+02</pdfrwt>
<pdfrwt beam="1">  1       -2 0.25395133E-03 0.25267617E+02</pdfrwt>
<totfact> 0.26354702E+05</totfact>
</mgrwt>
</event>
<event>
 4    1  0.7653521E+003  0.2551392E+02  0.7546771E-02  0.1653728E+00
         -2   -1    0    0    0  501 -0.00000000000E+00  0.00000000000E+00  0.15794376138E+03  0.15794376138E+03  0.00000000000E+00 0.  1.
          2   -1    0    0  501    0  0.00000000000E+00 -0.00000000000E+00 -0.36871856568E+02  0.36871856568E+02  0.00000000000E+00 0. -1.
          2    1    1    2  502    0 -0.25474503681E+02  0.14177403641E+01 -0.31266544456E+02  0.40355385362E+02  0.00000000000E+00 0. -1.
         -2    1    1    2    0  502  0.25474503681E+02 -0.14177403641E+01  0.15233844926E+03  0.15446023258E+03  0.00000000000E+00 0.  1.
<mgrwt>
<rscale>  2 0.25513924E+02</rscale>
<asrwt>0</asrwt>
<pdfrwt beam="2">  1        2 0.56725934E-02 0.25513924E+02</pdfrwt>
<pdfrwt beam="1">  1       -2 0.24299040E-01 0.25513924E+02</pdfrwt>
<totfact> 0.14665037E+04</totfact>
</mgrwt>
</event>
<event>
 4    1  0.7653521E+003  0.2396986E+02  0.7546771E-02  0.1676255E+00
          2   -1    0    0  501    0  0.00000000000E+00  0.00000000000E+00  0.15791724525E+04  0.15791724525E+04  0.00000000000E+00 0. -1.
         -2   -1    0    0    0  501 -0.00000000000E+00 -0.00000000000E+00 -0.59908629641E+01  0.59908629641E+01  0.00000000000E+00 0. -1.
          2    1    1    2  502    0 -0.94866996660E+00 -0.23951081744E+02  0.15547282762E+04  0.15549130417E+04  0.00000000000E+00 0. -1.
         -2    1    1    2    0  502  0.94866996660E+00  0.23951081744E+02  0.18453313291E+02  0.30250273765E+02  0.00000000000E+00 0. -1.
<mgrwt>
<rscale>  2 0.23969862E+02</rscale>
<asrwt>0</asrwt>
<pdfrwt beam="1">  1        2 0.24294928E+00 0.23969862E+02</pdfrwt>
<pdfrwt beam="2">  1       -2 0.92167248E-03 0.23969862E+02</pdfrwt>
<totfact> 0.24143862E+04</totfact>
</mgrwt>
</event>
<event>
 4    1  0.7653521E+003  0.2707459E+02  0.7546771E-02  0.1632876E+00
         -2   -1    0    0    0  501 -0.00000000000E+00  0.00000000000E+00  0.87188716000E+03  0.87188716000E+03  0.00000000000E+00 0. -1.
          2   -1    0    0  501    0  0.00000000000E+00 -0.00000000000E+00 -0.12528929986E+01  0.12528929986E+01  0.00000000000E+00 0.  1.
          2    1    1    2  502    0 -0.15558154404E+02  0.22158009701E+02  0.18492294119E+03  0.18689442940E+03  0.00000000000E+00 0.  1.
         -2    1    1    2    0  502  0.15558154404E+02 -0.22158009701E+02  0.68571132581E+03  0.68624562360E+03  0.00000000000E+00 0. -1.
<mgrwt>
<rscale>  2 0.27074593E+02</rscale>
<asrwt>0</asrwt>
<pdfrwt beam="2">  1        2 0.19275347E-03 0.27074593E+02</pdfrwt>
<pdfrwt beam="1">  1       -2 0.13413600E+00 0.27074593E+02</pdfrwt>
<totfact> 0.40333248E+04</totfact>
</mgrwt>
</event>
<event>
 4    1  0.7653521E+003  0.2331454E+02  0.7546771E-02  0.1686462E+00
          2   -1    0    0  501    0  0.00000000000E+00  0.00000000000E+00  0.80821850775E+03  0.80821850775E+03  0.00000000000E+00 0. -1.
         -2   -1    0    0    0  501 -0.00000000000E+00 -0.00000000000E+00 -0.18081807736E+01  0.18081807736E+01  0.00000000000E+00 0. -1.
          2    1    1    2  502    0 -0.14678386906E+02 -0.18113886740E+02  0.72417694193E+03  0.72455214523E+03  0.00000000000E+00 0. -1.
         -2    1    1    2    0  502  0.14678386906E+02  0.18113886740E+02  0.82233385049E+02  0.85474543295E+02  0.00000000000E+00 0. -1.
<mgrwt>
<rscale>  2 0.23314543E+02</rscale>
<asrwt>0</asrwt>
<pdfrwt beam="1">  1        2 0.12434102E+00 0.23314543E+02</pdfrwt>
<pdfrwt beam="2">  1       -2 0.27818230E-03 0.23314543E+02</pdfrwt>
<totfact> 0.29872671E+05</totfact>
</mgrwt>
</event>
<event>
 4    1  0.7653521E+003  0.5871752E+02  0.7546771E-02  0.1403294E+00
          2   -1    0    0  501    0  0.00000000000E+00  0.00000000000E+00  0.65709265237E+03  0.65709265237E+03  0.00000000000E+00 0.  1.
         -2   -1    0    0    0  501 -0.00000000000E+00 -0.00000000000E+00 -0.51112361930E+02  0.51112361930E+02  0.00000000000E+00 0.  1.
          2    1    1    2  502    0 -0.10568554303E+02  0.57758570354E+02  0.63842529613E+03  0.64111980591E+03  0.00000000000E+00 0.  1.
         -2    1    1    2    0  502  0.10568554303E+02 -0.57758570354E+02 -0.32445005697E+02  0.67085208385E+02  0.00000000000E+00 0.  1.
<mgrwt>
<rscale>  2 0.58717517E+02</rscale>
<asrwt>0</asrwt>
<pdfrwt beam="1">  1        2 0.10109117E+00 0.58717517E+02</pdfrwt>
<pdfrwt beam="2">  1       -2 0.78634408E-02 0.58717517E+02</pdfrwt>
<totfact> 0.40900926E+03</totfact>
</mgrwt>
</event>
<event>
 4    1  0.7653521E+003  0.3591789E+02  0.7546771E-02  0.1540597E+00
         -2   -1    0    0    0  501 -0.00000000000E+00  0.00000000000E+00  0.25525432152E+02  0.25525432152E+02  0.00000000000E+00 0. -1.
          2   -1    0    0  501    0  0.00000000000E+00 -0.00000000000E+00 -0.34482147230E+03  0.34482147230E+03  0.00000000000E+00 0.  1.
          2    1    1    2  502    0 -0.31537089080E+02 -0.17190320643E+02 -0.33071330409E+03  0.33265805959E+03  0.00000000000E+00 0.  1.
         -2    1    1    2    0  502  0.31537089080E+02  0.17190320643E+02  0.11417263935E+02  0.37688844864E+02  0.00000000000E+00 0. -1.
<mgrwt>
<rscale>  2 0.35917894E+02</rscale>
<asrwt>0</asrwt>
<pdfrwt beam="2">  1        2 0.53049461E-01 0.35917894E+02</pdfrwt>
<pdfrwt beam="1">  1       -2 0.39269893E-02 0.35917894E+02</pdfrwt>
<totfact> 0.21138071E+04</totfact>
</mgrwt>
</event>
<event>
 4    1  0.7653521E+003  0.4139259E+02  0.7546771E-02  0.1498207E+00
          2   -1    0    0  501    0  0.00000000000E+00  0.00000000000E+00  0.25914161828E+04  0.25914161828E+04  0.00000000000E+00 0. -1.
         -2   -1    0    0    0  501 -0.00000000000E+00 -0.00000000000E+00 -0.30133211557E+02  0.30133211557E+02  0.00000000000E+00 0. -1.
          2    1    1    2  502    0  0.38826176093E+02  0.14348332135E+02  0.25769563663E+04  0.25772887810E+04  0.00000000000E+00 0. -1.
         -2    1    1    2    0  502 -0.38826176093E+02 -0.14348332135E+02 -0.15673395072E+02  0.44260613396E+02  0.00000000000E+00 0. -1.
<mgrwt>
<rscale>  2 0.41392591E+02</rscale>
<asrwt>0</asrwt>
<pdfrwt beam="1">  1        2 0.39867924E+00 0.41392591E+02</pdfrwt>
<pdfrwt beam="2">  1       -2 0.46358807E-02 0.41392591E+02</pdfrwt>
<totfact> 0.84930077E+02</totfact>
</mgrwt>
</event>
<event>
 4    1  0.7653521E+003  0.2434216E+02  0.7546771E-02  0.1670634E+00
          2   -1    0    0  501    0  0.00000000000E+00  0.00000000000E+00  0.25199068133E+01  0.25199068133E+01  0.00000000000E+00 0. -1.
         -2   -1    0    0    0  501 -0.00000000000E+00 -0.00000000000E+00 -0.30739459324E+03  0.30739459324E+03  0.00000000000E+00 0.  1.
          2    1    1    2  502    0  0.16277200868E+02 -0.18099548274E+02 -0.77312330439E+02  0.81053916338E+02  0.00000000000E+00 0. -1.
         -2    1    1    2    0  502 -0.16277200868E+02  0.18099548274E+02 -0.22756235598E+03  0.22886058371E+03  0.00000000000E+00 0.  1.
<mgrwt>
<rscale>  2 0.24342163E+02</rscale>
<asrwt>0</asrwt>
<pdfrwt beam="1">  1        2 0.38767776E-03 0.24342163E+02</pdfrwt>
<pdfrwt beam="2">  1       -2 0.47291501E-01 0.24342163E+02</pdfrwt>
<totfact> 0.14162434E+05</totfact>
</mgrwt>
</event>
<event>
 4    1  0.7653521E+003  0.2727244E+02  0.7546771E-02  0.1630356E+00
         -2   -1    0    0    0  501 -0.00000000000E+00  0.00000000000E+00  0.83581927322E+00  0.83581927322E+00  0.00000000000E+00 0. -1.
          2   -1    0    0  501    0  0.00000000000E+00 -0.00000000000E+00 -0.12533309136E+04  0.12533309136E+04  0.00000000000E+00 0. -1.
          2    1    1    2  502    0  0.15900622032E+02 -0.22157527129E+02 -0.96393142827E+03  0.96431715955E+03  0.00000000000E+00 0. -1.
         -2    1    1    2    0  502 -0.15900622032E+02  0.22157527129E+02 -0.28856366606E+03  0.28984957333E+03  0.00000000000E+00 0. -1.
<mgrwt>
<rscale>  2 0.27272436E+02</rscale>
<asrwt>0</asrwt>
<pdfrwt beam="2">  1        2 0.19281989E+00 0.27272436E+02</pdfrwt>
<pdfrwt beam="1">  1       -2 0.12858775E-03 0.27272436E+02</pdfrwt>
<totfact> 0.49675544E+05</totfact>
</mgrwt>
</event>
<event>
 4    1  0.7653521E+003  0.2135912E+02  0.7546771E-02  0.1719577E+00
          2   -1    0    0  501    0  0.00000000000E+00  0.00000000000E+00  0.10349581199E+03  0.10349581199E+03  0.00000000000E+00 0. -1.
         -2   -1    0    0    0  501 -0.00000000000E+00 -0.00000000000E+00 -0.62183604656E+01  0.62183604656E+01  0.00000000000E+00 0. -1.
          2    1    1    2  502    0  0.10053522644E+02  0.18845127526E+02  0.78237538636E+02  0.81100706537E+02  0.00000000000E+00 0. -1.
         -2    1    1    2    0  502 -0.10053522644E+02 -0.18845127526E+02  0.19039912886E+02  0.28613465916E+02  0.00000000000E+00 0. -1.
<mgrwt>
<rscale>  2 0.21359123E+02</rscale>
<asrwt>0</asrwt>
<pdfrwt beam="1">  1        2 0.15922431E-01 0.21359123E+02</pdfrwt>
<pdfrwt beam="2">  1       -2 0.95667091E-03 0.21359123E+02</pdfrwt>
<totfact> 0.45833609E+05</totfact>
</mgrwt>
</event>
<event>
 4    1  0.7653521E+003  0.4029359E+02  0.7546771E-02  0.1506062E+00
          2   -1    0    0  501    0  0.00000000000E+00  0.00000000000E+00  0.19246773073E+03  0.19246773073E+03  0.00000000000E+00 0. -1.
         -2   -1    0    0    0  501 -0.00000000000E+00 -0.00000000000E+00 -0.11000159782E+02  0.11000159782E+02  0.00000000000E+00 0. -1.
          2    1    1    2  502    0 -0.15728596249E+02  0.37096963484E+02  0.13985578505E+03  0.14554454319E+03  0.00000000000E+00 0. -1.
         -2    1    1    2    0  502  0.15728596249E+02 -0.37096963484E+02  0.41611785898E+02  0.57923347325E+02  0.00000000000E+00 0. -1.
<mgrwt>
<rscale>  2 0.40293591E+02</rscale>
<asrwt>0</asrwt>
<pdfrwt beam="1">  1        2 0.29610418E-01 0.40293591E+02</pdfrwt>
<pdfrwt beam="2">  1       -2 0.16923324E-02 0.40293591E+02</pdfrwt>
<totfact> 0.12780591E+05</totfact>
</mgrwt>
</event>
<event>
 4    1  0.7653521E+003  0.2211807E+02  0.7546771E-02  0.1706218E+00
         -2   -1    0    0    0  501 -0.00000000000E+00  0.00000000000E+00  0.16597888971E+02  0.16597888971E+02  0.00000000000E+00 0. -1.
          2   -1    0    0  501    0  0.00000000000E+00 -0.00000000000E+00 -0.41157485237E+02  0.41157485237E+02  0.00000000000E+00 0. -1.
          2    1    1    2  502    0  0.15223486143E+02  0.16045382887E+02 -0.27665638289E+02  0.35420282103E+02  0.00000000000E+00 0. -1.
         -2    1    1    2    0  502 -0.15223486143E+02 -0.16045382887E+02  0.31060420234E+01  0.22335092106E+02  0.00000000000E+00 0. -1.
<mgrwt>
<rscale>  2 0.22118066E+02</rscale>
<asrwt>0</asrwt>
<pdfrwt beam="2">  1        2 0.63319207E-02 0.22118066E+02</pdfrwt>
<pdfrwt beam="1">  1       -2 0.25535214E-02 0.22118066E+02</pdfrwt>
<totfact> 0.34980886E+05</totfact>
</mgrwt>
</event>
<event>
 4    1  0.7653521E+003  0.3013757E+02  0.7546771E-02  0.1596573E+00
         -2   -1    0    0    0  501 -0.00000000000E+00  0.00000000000E+00  0.30421203172E+01  0.30421203172E+01  0.00000000000E+00 0. -1.
          2   -1    0    0  501    0  0.00000000000E+00 -0.00000000000E+00 -0.51148892440E+03  0.51148892440E+03  0.00000000000E+00 0.  1.
          2    1    1    2  502    0 -0.15208036822E+02 -0.26019010219E+02 -0.42021068729E+03  0.42129003666E+03  0.00000000000E+00 0.  1.
         -2    1    1    2    0  502  0.15208036822E+02  0.26019010219E+02 -0.88236116792E+02  0.93241008056E+02  0.00000000000E+00 0. -1.
<mgrwt>
<rscale>  2 0.30137573E+02</rscale>
<asrwt>0</asrwt>
<pdfrwt beam="2">  1        2 0.78690603E-01 0.30137573E+02</pdfrwt>
<pdfrwt beam="1">  1       -2 0.46801852E-03 0.30137573E+02</pdfrwt>
<totfact> 0.25911936E+05</totfact>
</mgrwt>
</event>
<event>
 4    1  0.7653521E+003  0.2671598E+02  0.7546771E-02  0.1637511E+00
         -2   -1    0    0    0  501 -0.00000000000E+00  0.00000000000E+00  0.11322179457E+01  0.11322179457E+01  0.00000000000E+00 0.  1.
          2   -1    0    0  501    0  0.00000000000E+00 -0.00000000000E+00 -0.10104876700E+04  0.10104876700E+04  0.00000000000E+00 0. -1.
          2    1    1    2  502    0  0.19052760652E+02 -0.18727945301E+02 -0.81489577297E+03  0.81533359089E+03  0.00000000000E+00 0. -1.
         -2    1    1    2    0  502 -0.19052760652E+02  0.18727945301E+02 -0.19445967910E+03  0.19628629707E+03  0.00000000000E+00 0.  1.
<mgrwt>
<rscale>  2 0.26715981E+02</rscale>
<asrwt>0</asrwt>
<pdfrwt beam="2">  1        2 0.15545976E+00 0.26715981E+02</pdfrwt>
<pdfrwt beam="1">  1       -2 0.17418725E-03 0.26715981E+02</pdfrwt>
<totfact> 0.44140265E+05</totfact>
</mgrwt>
</event>
<event>
 4    1  0.7653521E+003  0.9318749E+02  0.7546771E-02  0.1295311E+00
          2   -1    0    0  501    0  0.00000000000E+00  0.00000000000E+00  0.88242637333E+03  0.88242637333E+03  0.00000000000E+00 0.  1.
         -2   -1    0    0    0  501 -0.00000000000E+00 -0.00000000000E+00 -0.33815087361E+02  0.33815087361E+02  0.00000000000E+00 0.  1.
          2    1    1    2  502    0  0.75090887123E+02  0.55183933568E+02  0.81004703504E+03  0.81538954300E+03  0.00000000000E+00 0.  1.
         -2    1    1    2    0  502 -0.75090887123E+02 -0.55183933568E+02  0.38564250932E+02  0.10085191770E+03  0.00000000000E+00 0.  1.
<mgrwt>
<rscale>  2 0.93187488E+02</rscale>
<asrwt>0</asrwt>
<pdfrwt beam="1">  1        2 0.13575789E+00 0.93187488E+02</pdfrwt>
<pdfrwt beam="2">  1       -2 0.52023218E-02 0.93187488E+02</pdfrwt>
<totfact> 0.54875871E+03</totfact>
</mgrwt>
</event>
<event>
 4    1  0.7653521E+003  0.2603442E+02  0.7546771E-02  0.1646574E+00
         -2   -1    0    0    0  501 -0.00000000000E+00  0.00000000000E+00  0.92619585709E+03  0.92619585709E+03  0.00000000000E+00 0.  1.
          2   -1    0    0  501    0  0.00000000000E+00 -0.00000000000E+00 -0.81147371479E+03  0.81147371479E+03  0.00000000000E+00 0. -1.
          2    1    1    2  502    0  0.98515637341E+01  0.24098499980E+02 -0.81108186135E+03  0.81149958522E+03  0.00000000000E+00 0. -1.
         -2    1    1    2    0  502 -0.98515637341E+01 -0.24098499980E+02  0.92580400365E+03  0.92616998666E+03  0.00000000000E+00 0.  1.
<mgrwt>
<rscale>  2 0.26034420E+02</rscale>
<asrwt>0</asrwt>
<pdfrwt beam="2">  1        2 0.12484211E+00 0.26034420E+02</pdfrwt>
<pdfrwt beam="1">  1       -2 0.14249167E+00 0.26034420E+02</pdfrwt>
<totfact> 0.15491008E+01</totfact>
</mgrwt>
</event>
<event>
 4    1  0.7653521E+003  0.4232747E+02  0.7546771E-02  0.1491750E+00
         -2   -1    0    0    0  501 -0.00000000000E+00  0.00000000000E+00  0.48274494067E+03  0.48274494067E+03  0.00000000000E+00 0.  1.
          2   -1    0    0  501    0  0.00000000000E+00 -0.00000000000E+00 -0.18194429137E+03  0.18194429137E+03  0.00000000000E+00 0.  1.
          2    1    1    2  502    0  0.10252241065E+02  0.41067095424E+02 -0.17853723793E+03  0.18348613054E+03  0.00000000000E+00 0.  1.
         -2    1    1    2    0  502 -0.10252241065E+02 -0.41067095424E+02  0.47933788722E+03  0.48120310151E+03  0.00000000000E+00 0.  1.
<mgrwt>
<rscale>  2 0.42327471E+02</rscale>
<asrwt>0</asrwt>
<pdfrwt beam="2">  1        2 0.27991430E-01 0.42327471E+02</pdfrwt>
<pdfrwt beam="1">  1       -2 0.74268452E-01 0.42327471E+02</pdfrwt>
<totfact> 0.31353211E+02</totfact>
</mgrwt>
</event>
<event>
 4    1  0.7653521E+003  0.2115912E+02  0.7546771E-02  0.1723214E+00
         -2   -1    0    0    0  501 -0.00000000000E+00  0.00000000000E+00  0.87932169830E+00  0.87932169830E+00  0.00000000000E+00 0. -1.
          2   -1    0    0  501    0  0.00000000000E+00 -0.00000000000E+00 -0.10318361285E+04  0.10318361285E+04  0.00000000000E+00 0.  1.
          2    1    1    2  502    0  0.19666033071E+02 -0.78074005268E+01 -0.88298487383E+03  0.88323835728E+03  0.00000000000E+00 0.  1.
         -2    1    1    2    0  502 -0.19666033071E+02  0.78074005268E+01 -0.14797193301E+03  0.14947709295E+03  0.00000000000E+00 0. -1.
<mgrwt>
<rscale>  2 0.21159120E+02</rscale>
<asrwt>0</asrwt>
<pdfrwt beam="2">  1        2 0.15874348E+00 0.21159120E+02</pdfrwt>
<pdfrwt beam="1">  1       -2 0.13528073E-03 0.21159120E+02</pdfrwt>
<totfact> 0.56389604E+05</totfact>
</mgrwt>
</event>
<event>
 4    1  0.7653521E+003  0.2911281E+02  0.7546771E-02  0.1608108E+00
         -2   -1    0    0    0  501 -0.00000000000E+00  0.00000000000E+00  0.77263892945E+02  0.77263892945E+02  0.00000000000E+00 0.  1.
          2   -1    0    0  501    0  0.00000000000E+00 -0.00000000000E+00 -0.11480905006E+02  0.11480905006E+02  0.00000000000E+00 0.  1.
          2    1    1    2  502    0  0.28665138196E+02 -0.50858220992E+01  0.23527624788E+02  0.37431335300E+02  0.00000000000E+00 0.  1.
         -2    1    1    2    0  502 -0.28665138196E+02  0.50858220992E+01  0.42255363152E+02  0.51313462652E+02  0.00000000000E+00 0.  1.
<mgrwt>
<rscale>  2 0.29112810E+02</rscale>
<asrwt>0</asrwt>
<pdfrwt beam="2">  1        2 0.17662931E-02 0.29112810E+02</pdfrwt>
<pdfrwt beam="1">  1       -2 0.11886752E-01 0.29112810E+02</pdfrwt>
<totfact> 0.20547846E+05</totfact>
</mgrwt>
</event>
<event>
 4    1  0.7653521E+003  0.2460467E+02  0.7546771E-02  0.1666746E+00
          2   -1    0    0  501    0  0.00000000000E+00  0.00000000000E+00  0.39733453168E+03  0.39733453168E+03  0.00000000000E+00 0.  1.
         -2   -1    0    0    0  501 -0.00000000000E+00 -0.00000000000E+00 -0.39525693157E+02  0.39525693157E+02  0.00000000000E+00 0.  1.
          2    1    1    2  502    0  0.10926962577E+02  0.22045214589E+02  0.39308316024E+03  0.39385246078E+03  0.00000000000E+00 0.  1.
         -2    1    1    2    0  502 -0.10926962577E+02 -0.22045214589E+02 -0.35274321712E+02  0.43007764063E+02  0.00000000000E+00 0.  1.
<mgrwt>
<rscale>  2 0.24604674E+02</rscale>
<asrwt>0</asrwt>
<pdfrwt beam="1">  1        2 0.61128387E-01 0.24604674E+02</pdfrwt>
<pdfrwt beam="2">  1       -2 0.60808761E-02 0.24604674E+02</pdfrwt>
<totfact> 0.92972397E+03</totfact>
</mgrwt>
</event>
<event>
 4    1  0.7653521E+003  0.2033246E+02  0.7546771E-02  0.1738796E+00
         -2   -1    0    0    0  501 -0.00000000000E+00  0.00000000000E+00  0.30557248075E+01  0.30557248075E+01  0.00000000000E+00 0. -1.
          2   -1    0    0  501    0  0.00000000000E+00 -0.00000000000E+00 -0.13261940713E+04  0.13261940713E+04  0.00000000000E+00 0.  1.
          2    1    1    2  502    0  0.15608113520E+02 -0.13030562673E+02 -0.12913819546E+04  0.12915420091E+04  0.00000000000E+00 0.  1.
         -2    1    1    2    0  502 -0.15608113520E+02  0.13030562673E+02 -0.31756391989E+02  0.37707787040E+02  0.00000000000E+00 0. -1.
<mgrwt>
<rscale>  2 0.20332456E+02</rscale>
<asrwt>0</asrwt>
<pdfrwt beam="2">  1        2 0.20402982E+00 0.20332456E+02</pdfrwt>
<pdfrwt beam="1">  1       -2 0.47011159E-03 0.20332456E+02</pdfrwt>
<totfact> 0.76429837E+04</totfact>
</mgrwt>
</event>
<event>
 4    1  0.7653521E+003  0.2487305E+02  0.7546771E-02  0.1662832E+00
         -2   -1    0    0    0  501 -0.00000000000E+00  0.00000000000E+00  0.26869822513E+03  0.26869822513E+03  0.00000000000E+00 0. -1.
          2   -1    0    0  501    0  0.00000000000E+00 -0.00000000000E+00 -0.41895276327E+02  0.41895276327E+02  0.00000000000E+00 0.  1.
          2    1    1    2  502    0  0.30825648990E+01 -0.24681296016E+02 -0.37567603731E+02  0.45055448389E+02  0.00000000000E+00 0.  1.
         -2    1    1    2    0  502 -0.30825648990E+01  0.24681296016E+02  0.26437055253E+03  0.26553805306E+03  0.00000000000E+00 0. -1.
<mgrwt>
<rscale>  2 0.24873049E+02</rscale>
<asrwt>0</asrwt>
<pdfrwt beam="2">  1        2 0.64454273E-02 0.24873049E+02</pdfrwt>
<pdfrwt beam="1">  1       -2 0.41338187E-01 0.24873049E+02</pdfrwt>
<totfact> 0.49598583E+03</totfact>
</mgrwt>
</event>
<event>
 4    1  0.7653521E+003  0.2054339E+02  0.7546771E-02  0.1734733E+00
         -2   -1    0    0    0  501 -0.00000000000E+00  0.00000000000E+00  0.30202727372E+01  0.30202727372E+01  0.00000000000E+00 0. -1.
          2   -1    0    0  501    0  0.00000000000E+00 -0.00000000000E+00 -0.13563753832E+04  0.13563753832E+04  0.00000000000E+00 0. -1.
          2    1    1    2  502    0 -0.41548939406E+01 -0.20118845213E+02 -0.13204130323E+04  0.13205728328E+04  0.00000000000E+00 0. -1.
         -2    1    1    2    0  502  0.41548939406E+01  0.20118845213E+02 -0.32942078165E+02  0.38822823058E+02  0.00000000000E+00 0. -1.
<mgrwt>
<rscale>  2 0.20543395E+02</rscale>
<asrwt>0</asrwt>
<pdfrwt beam="2">  1        2 0.20867305E+00 0.20543395E+02</pdfrwt>
<pdfrwt beam="1">  1       -2 0.46465753E-03 0.20543395E+02</pdfrwt>
<totfact> 0.75234736E+04</totfact>
</mgrwt>
</event>
<event>
 4    1  0.7653521E+003  0.2151407E+02  0.7546771E-02  0.1716794E+00
          2   -1    0    0  501    0  0.00000000000E+00  0.00000000000E+00  0.13047242699E+03  0.13047242699E+03  0.00000000000E+00 0. -1.
         -2   -1    0    0    0  501 -0.00000000000E+00 -0.00000000000E+00 -0.31722248152E+02  0.31722248152E+02  0.00000000000E+00 0. -1.
          2    1    1    2  502    0  0.62513512081E+01 -0.20585818127E+02  0.12580342132E+03  0.12762976187E+03  0.00000000000E+00 0. -1.
         -2    1    1    2    0  502 -0.62513512081E+01  0.20585818127E+02 -0.27053242487E+02  0.34564913264E+02  0.00000000000E+00 0. -1.
<mgrwt>
<rscale>  2 0.21514072E+02</rscale>
<asrwt>0</asrwt>
<pdfrwt beam="1">  1        2 0.20072681E-01 0.21514072E+02</pdfrwt>
<pdfrwt beam="2">  1       -2 0.48803460E-02 0.21514072E+02</pdfrwt>
<totfact> 0.38164264E+04</totfact>
</mgrwt>
</event>
<event>
 4    1  0.7653521E+003  0.2063598E+02  0.7546771E-02  0.1732969E+00
         -2   -1    0    0    0  501 -0.00000000000E+00  0.00000000000E+00  0.28549045742E+01  0.28549045742E+01  0.00000000000E+00 0. -1.
          2   -1    0    0  501    0  0.00000000000E+00 -0.00000000000E+00 -0.19306189838E+03  0.19306189838E+03  0.00000000000E+00 0. -1.
          2    1    1    2  502    0  0.19748950187E+02  0.59852059107E+01 -0.14181505847E+03  0.14330859895E+03  0.00000000000E+00 0. -1.
         -2    1    1    2    0  502 -0.19748950187E+02 -0.59852059107E+01 -0.48391935331E+02  0.52608204002E+02  0.00000000000E+00 0. -1.
<mgrwt>
<rscale>  2 0.20635981E+02</rscale>
<asrwt>0</asrwt>
<pdfrwt beam="2">  1        2 0.29701836E-01 0.20635981E+02</pdfrwt>
<pdfrwt beam="1">  1       -2 0.43921601E-03 0.20635981E+02</pdfrwt>
<totfact> 0.67011394E+05</totfact>
</mgrwt>
</event>
<event>
 4    1  0.7653521E+003  0.2653882E+02  0.7546771E-02  0.1639835E+00
          2   -1    0    0  501    0  0.00000000000E+00  0.00000000000E+00  0.34222363415E+03  0.34222363415E+03  0.00000000000E+00 0. -1.
         -2   -1    0    0    0  501 -0.00000000000E+00 -0.00000000000E+00 -0.25063924677E+01  0.25063924677E+01  0.00000000000E+00 0. -1.
          2    1    1    2  502    0  0.11719256445E+02 -0.23811090821E+02  0.24275998405E+03  0.24420630392E+03  0.00000000000E+00 0. -1.
         -2    1    1    2    0  502 -0.11719256445E+02  0.23811090821E+02  0.96957257639E+02  0.10052372271E+03  0.00000000000E+00 0. -1.
<mgrwt>
<rscale>  2 0.26538821E+02</rscale>
<asrwt>0</asrwt>
<pdfrwt beam="1">  1        2 0.52649753E-01 0.26538821E+02</pdfrwt>
<pdfrwt beam="2">  1       -2 0.38559911E-03 0.26538821E+02</pdfrwt>
<totfact> 0.48731183E+05</totfact>
</mgrwt>
</event>
<event>
 4    1  0.7653521E+003  0.4480386E+02  0.7546771E-02  0.1475570E+00
         -2   -1    0    0    0  501 -0.00000000000E+00  0.00000000000E+00  0.41579389311E+02  0.41579389311E+02  0.00000000000E+00 0.  1.
          2   -1    0    0  501    0  0.00000000000E+00 -0.00000000000E+00 -0.11639863371E+03  0.11639863371E+03  0.00000000000E+00 0. -1.
          2    1    1    2  502    0 -0.38388971327E+02 -0.23101366836E+02 -0.97836591315E+02  0.10760755024E+03  0.00000000000E+00 0. -1.
         -2    1    1    2    0  502  0.38388971327E+02  0.23101366836E+02  0.23017346913E+02  0.50370472781E+02  0.00000000000E+00 0.  1.
<mgrwt>
<rscale>  2 0.44803864E+02</rscale>
<asrwt>0</asrwt>
<pdfrwt beam="2">  1        2 0.17907482E-01 0.44803864E+02</pdfrwt>
<pdfrwt beam="1">  1       -2 0.63968291E-02 0.44803864E+02</pdfrwt>
<totfact> 0.33401573E+04</totfact>
</mgrwt>
</event>
<event>
 4    1  0.7653521E+003  0.2371961E+02  0.7546771E-02  0.1680104E+00
         -2   -1    0    0    0  501 -0.00000000000E+00  0.00000000000E+00  0.82140049489E+01  0.82140049489E+01  0.00000000000E+00 0.  1.
          2   -1    0    0  501    0  0.00000000000E+00 -0.00000000000E+00 -0.83145981475E+03  0.83145981475E+03  0.00000000000E+00 0.  1.
          2    1    1    2  502    0  0.21393474952E+02  0.10243986598E+02 -0.81379522705E+03  0.81414083032E+03  0.00000000000E+00 0.  1.
         -2    1    1    2    0  502 -0.21393474952E+02 -0.10243986598E+02 -0.94505827476E+01  0.25532989371E+02  0.00000000000E+00 0.  1.
<mgrwt>
<rscale>  2 0.23719613E+02</rscale>
<asrwt>0</asrwt>
<pdfrwt beam="2">  1        2 0.12791683E+00 0.23719613E+02</pdfrwt>
<pdfrwt beam="1">  1       -2 0.12636937E-02 0.23719613E+02</pdfrwt>
<totfact> 0.37966357E+04</totfact>
</mgrwt>
</event>
<event>
 4    1  0.7653521E+003  0.2690601E+02  0.7546771E-02  0.1635044E+00
          2   -1    0    0  501    0  0.00000000000E+00  0.00000000000E+00  0.50896385086E+03  0.50896385086E+03  0.00000000000E+00 0. -1.
         -2   -1    0    0    0  501 -0.00000000000E+00 -0.00000000000E+00 -0.20666418337E+02  0.20666418337E+02  0.00000000000E+00 0. -1.
          2    1    1    2  502    0  0.71724486326E+01  0.25932395504E+02  0.49968845852E+03  0.50041231873E+03  0.00000000000E+00 0. -1.
         -2    1    1    2    0  502 -0.71724486326E+01 -0.25932395504E+02 -0.11391026003E+02  0.29217950465E+02  0.00000000000E+00 0. -1.
<mgrwt>
<rscale>  2 0.26906006E+02</rscale>
<asrwt>0</asrwt>
<pdfrwt beam="1">  1        2 0.78302121E-01 0.26906006E+02</pdfrwt>
<pdfrwt beam="2">  1       -2 0.31794494E-02 0.26906006E+02</pdfrwt>
<totfact> 0.18417320E+04</totfact>
</mgrwt>
</event>
<event>
 4    1  0.7653521E+003  0.2873848E+02  0.7546771E-02  0.1612467E+00
          2   -1    0    0  501    0  0.00000000000E+00  0.00000000000E+00  0.42706888153E+02  0.42706888153E+02  0.00000000000E+00 0.  1.
         -2   -1    0    0    0  501 -0.00000000000E+00 -0.00000000000E+00 -0.53136134723E+02  0.53136134723E+02  0.00000000000E+00 0.  1.
          2    1    1    2  502    0  0.21154591073E+02 -0.19452075389E+02  0.33004151045E+02  0.43762700404E+02  0.00000000000E+00 0.  1.
         -2    1    1    2    0  502 -0.21154591073E+02  0.19452075389E+02 -0.43433397616E+02  0.52080322472E+02  0.00000000000E+00 0.  1.
<mgrwt>
<rscale>  2 0.28738475E+02</rscale>
<asrwt>0</asrwt>
<pdfrwt beam="1">  1        2 0.65702905E-02 0.28738475E+02</pdfrwt>
<pdfrwt beam="2">  1       -2 0.81747899E-02 0.28738475E+02</pdfrwt>
<totfact> 0.68485818E+04</totfact>
</mgrwt>
</event>
<event>
 4    1  0.7653521E+003  0.3162366E+02  0.7546771E-02  0.1580805E+00
         -2   -1    0    0    0  501 -0.00000000000E+00  0.00000000000E+00  0.41457534419E+01  0.41457534419E+01  0.00000000000E+00 0.  1.
          2   -1    0    0  501    0  0.00000000000E+00 -0.00000000000E+00 -0.16904190281E+04  0.16904190281E+04  0.00000000000E+00 0.  1.
          2    1    1    2  502    0 -0.64153379220E+01 -0.30966097553E+02 -0.16276392471E+04  0.16279464286E+04  0.00000000000E+00 0.  1.
         -2    1    1    2    0  502  0.64153379220E+01  0.30966097553E+02 -0.58634027561E+02  0.66618352924E+02  0.00000000000E+00 0.  1.
<mgrwt>
<rscale>  2 0.31623658E+02</rscale>
<asrwt>0</asrwt>
<pdfrwt beam="2">  1        2 0.26006395E+00 0.31623658E+02</pdfrwt>
<pdfrwt beam="1">  1       -2 0.63780950E-03 0.31623658E+02</pdfrwt>
<totfact> 0.36552708E+04</totfact>
</mgrwt>
</event>
<event>
 4    1  0.7653521E+003  0.2452662E+02  0.7546771E-02  0.1667896E+00
          2   -1    0    0  501    0  0.00000000000E+00  0.00000000000E+00  0.39405057092E+03  0.39405057092E+03  0.00000000000E+00 0.  1.
         -2   -1    0    0    0  501 -0.00000000000E+00 -0.00000000000E+00 -0.64578696180E+01  0.64578696180E+01  0.00000000000E+00 0.  1.
          2    1    1    2  502    0 -0.17943074452E+02 -0.16721282921E+02  0.36878774074E+03  0.36960242551E+03  0.00000000000E+00 0.  1.
         -2    1    1    2    0  502  0.17943074452E+02  0.16721282921E+02  0.18804960570E+02  0.30906015035E+02  0.00000000000E+00 0.  1.
<mgrwt>
<rscale>  2 0.24526623E+02</rscale>
<asrwt>0</asrwt>
<pdfrwt beam="1">  1        2 0.60623146E-01 0.24526623E+02</pdfrwt>
<pdfrwt beam="2">  1       -2 0.99351871E-03 0.24526623E+02</pdfrwt>
<totfact> 0.11586784E+05</totfact>
</mgrwt>
</event>
<event>
 4    1  0.7653521E+003  0.3361041E+02  0.7546771E-02  0.1561298E+00
          2   -1    0    0  501    0  0.00000000000E+00  0.00000000000E+00  0.34633234763E+03  0.34633234763E+03  0.00000000000E+00 0. -1.
         -2   -1    0    0    0  501 -0.00000000000E+00 -0.00000000000E+00 -0.23063672282E+02  0.23063672282E+02  0.00000000000E+00 0.  1.
          2    1    1    2  502    0 -0.33604412975E+02  0.63487838113E+00  0.33277426480E+03  0.33446729430E+03  0.00000000000E+00 0. -1.
         -2    1    1    2    0  502  0.33604412975E+02 -0.63487838113E+00 -0.95055894543E+01  0.34928725611E+02  0.00000000000E+00 0.  1.
<mgrwt>
<rscale>  2 0.33610410E+02</rscale>
<asrwt>0</asrwt>
<pdfrwt beam="1">  1        2 0.53281896E-01 0.33610410E+02</pdfrwt>
<pdfrwt beam="2">  1       -2 0.35482575E-02 0.33610410E+02</pdfrwt>
<totfact> 0.24068525E+04</totfact>
</mgrwt>
</event>
<event>
 4    1  0.7653521E+003  0.2057188E+02  0.7546771E-02  0.1734189E+00
          2   -1    0    0  501    0  0.00000000000E+00  0.00000000000E+00  0.17495771270E+03  0.17495771270E+03  0.00000000000E+00 0. -1.
         -2   -1    0    0    0  501 -0.00000000000E+00 -0.00000000000E+00 -0.12733946699E+02  0.12733946699E+02  0.00000000000E+00 0. -1.
          2    1    1    2  502    0 -0.20455054422E+02  0.21893188604E+01  0.16557544757E+03  0.16684852773E+03  0.00000000000E+00 0. -1.
         -2    1    1    2    0  502  0.20455054422E+02 -0.21893188604E+01 -0.33516815654E+01  0.20843131669E+02  0.00000000000E+00 0. -1.
<mgrwt>
<rscale>  2 0.20571883E+02</rscale>
<asrwt>0</asrwt>
<pdfrwt beam="1">  1        2 0.26916569E-01 0.20571883E+02</pdfrwt>
<pdfrwt beam="2">  1       -2 0.19590688E-02 0.20571883E+02</pdfrwt>
<totfact> 0.98876308E+04</totfact>
</mgrwt>
</event>
<event>
 4    1  0.7653521E+003  0.2661983E+02  0.7546771E-02  0.1638770E+00
          2   -1    0    0  501    0  0.00000000000E+00  0.00000000000E+00  0.15132209082E+04  0.15132209082E+04  0.00000000000E+00 0. -1.
         -2   -1    0    0    0  501 -0.00000000000E+00 -0.00000000000E+00 -0.13778963643E+01  0.13778963643E+01  0.00000000000E+00 0. -1.
          2    1    1    2  502    0 -0.22277601164E+02 -0.14571333031E+02  0.13712227753E+04  0.13714811391E+04  0.00000000000E+00 0. -1.
         -2    1    1    2    0  502  0.22277601164E+02  0.14571333031E+02  0.14062023656E+03  0.14311766554E+03  0.00000000000E+00 0. -1.
<mgrwt>
<rscale>  2 0.26619828E+02</rscale>
<asrwt>0</asrwt>
<pdfrwt beam="1">  1        2 0.23280189E+00 0.26619828E+02</pdfrwt>
<pdfrwt beam="2">  1       -2 0.21198527E-03 0.26619828E+02</pdfrwt>
<totfact> 0.18994789E+05</totfact>
</mgrwt>
</event>
<event>
 4    1  0.7653521E+003  0.2756038E+02  0.7546771E-02  0.1626735E+00
         -2   -1    0    0    0  501 -0.00000000000E+00  0.00000000000E+00  0.51926576522E+00  0.51926576522E+00  0.00000000000E+00 0.  1.
          2   -1    0    0  501    0  0.00000000000E+00 -0.00000000000E+00 -0.17550527770E+04  0.17550527770E+04  0.00000000000E+00 0.  1.
          2    1    1    2  502    0 -0.12299824194E+02  0.24663511541E+02 -0.12354733714E+04  0.12357807354E+04  0.00000000000E+00 0.  1.
         -2    1    1    2    0  502  0.12299824194E+02 -0.24663511541E+02 -0.51906013980E+03  0.51979130736E+03  0.00000000000E+00 0.  1.
<mgrwt>
<rscale>  2 0.27560379E+02</rscale>
<asrwt>0</asrwt>
<pdfrwt beam="2">  1        2 0.27000452E+00 0.27560379E+02</pdfrwt>
<pdfrwt beam="1">  1       -2 0.79888105E-04 0.27560379E+02</pdfrwt>
<totfact> 0.53778045E+05</totfact>
</mgrwt>
</event>
<event>
 4    1  0.7653521E+003  0.2789059E+02  0.7546771E-02  0.1622648E+00
          2   -1    0    0  501    0  0.00000000000E+00  0.00000000000E+00  0.14124970004E+02  0.14124970004E+02  0.00000000000E+00 0. -1.
         -2   -1    0    0    0  501 -0.00000000000E+00 -0.00000000000E+00 -0.76871802338E+02  0.76871802338E+02  0.00000000000E+00 0. -1.
          2    1    1    2  502    0 -0.27313109724E+02 -0.56461759775E+01 -0.71440349820E+01  0.28791014254E+02  0.00000000000E+00 0. -1.
         -2    1    1    2    0  502  0.27313109724E+02  0.56461759775E+01 -0.55602797352E+02  0.62205758088E+02  0.00000000000E+00 0. -1.
<mgrwt>
<rscale>  2 0.27890595E+02</rscale>
<asrwt>0</asrwt>
<pdfrwt beam="1">  1        2 0.21730723E-02 0.27890595E+02</pdfrwt>
<pdfrwt beam="2">  1       -2 0.11826431E-01 0.27890595E+02</pdfrwt>
<totfact> 0.15657224E+05</totfact>
</mgrwt>
</event>
<event>
 4    1  0.7653521E+003  0.2348130E+02  0.7546771E-02  0.1683825E+00
          2   -1    0    0  501    0  0.00000000000E+00  0.00000000000E+00  0.11710649801E+04  0.11710649801E+04  0.00000000000E+00 0. -1.
         -2   -1    0    0    0  501 -0.00000000000E+00 -0.00000000000E+00 -0.62723329474E+00  0.62723329474E+00  0.00000000000E+00 0. -1.
          2    1    1    2  502    0 -0.19228916186E+02 -0.13476657173E+02  0.87776419174E+03  0.87807821281E+03  0.00000000000E+00 0. -1.
         -2    1    1    2    0  502  0.19228916186E+02  0.13476657173E+02  0.29267355503E+03  0.29361400055E+03  0.00000000000E+00 0. -1.
<mgrwt>
<rscale>  2 0.23481301E+02</rscale>
<asrwt>0</asrwt>
<pdfrwt beam="1">  1        2 0.18016209E+00 0.23481301E+02</pdfrwt>
<pdfrwt beam="2">  1       -2 0.96498367E-04 0.23481301E+02</pdfrwt>
<totfact> 0.76740451E+05</totfact>
</mgrwt>
</event>
<event>
 4    1  0.7653521E+003  0.2020973E+02  0.7546771E-02  0.1741189E+00
          2   -1    0    0  501    0  0.00000000000E+00  0.00000000000E+00  0.74933352635E+03  0.74933352635E+03  0.00000000000E+00 0. -1.
         -2   -1    0    0    0  501 -0.00000000000E+00 -0.00000000000E+00 -0.54563363096E+00  0.54563363096E+00  0.00000000000E+00 0. -1.
          2    1    1    2  502    0 -0.20174868761E+02 -0.11865745261E+01  0.38652892866E+03  0.38705690277E+03  0.00000000000E+00 0. -1.
         -2    1    1    2    0  502  0.20174868761E+02  0.11865745261E+01  0.36225896406E+03  0.36282225721E+03  0.00000000000E+00 0. -1.
<mgrwt>
<rscale>  2 0.20209733E+02</rscale>
<asrwt>0</asrwt>
<pdfrwt beam="1">  1        2 0.11528126E+00 0.20209733E+02</pdfrwt>
<pdfrwt beam="2">  1       -2 0.83944235E-04 0.20209733E+02</pdfrwt>
<totfact> 0.15112980E+06</totfact>
</mgrwt>
</event>
<event>
 4    1  0.7653521E+003  0.2096740E+02  0.7546771E-02  0.1726747E+00
          2   -1    0    0  501    0  0.00000000000E+00  0.00000000000E+00  0.49337454590E+02  0.49337454590E+02  0.00000000000E+00 0.  1.
         -2   -1    0    0    0  501 -0.00000000000E+00 -0.00000000000E+00 -0.10810229723E+02  0.10810229723E+02  0.00000000000E+00 0. -1.
          2    1    1    2  502    0  0.12666469150E+02  0.16709058138E+02  0.31870057311E+02  0.38148821969E+02  0.00000000000E+00 0.  1.
         -2    1    1    2    0  502 -0.12666469150E+02 -0.16709058138E+02  0.66571675556E+01  0.21998862344E+02  0.00000000000E+00 0. -1.
<mgrwt>
<rscale>  2 0.20967405E+02</rscale>
<asrwt>0</asrwt>
<pdfrwt beam="1">  1        2 0.75903775E-02 0.20967405E+02</pdfrwt>
<pdfrwt beam="2">  1       -2 0.16631123E-02 0.20967405E+02</pdfrwt>
<totfact> 0.49898867E+05</totfact>
</mgrwt>
</event>
<event>
 4    1  0.7653521E+003  0.2310672E+02  0.7546771E-02  0.1689786E+00
         -2   -1    0    0    0  501 -0.00000000000E+00  0.00000000000E+00  0.78266501399E+02  0.78266501399E+02  0.00000000000E+00 0. -1.
          2   -1    0    0  501    0  0.00000000000E+00 -0.00000000000E+00 -0.49867545937E+02  0.49867545937E+02  0.00000000000E+00 0. -1.
          2    1    1    2  502    0  0.12249985088E+02  0.19592307185E+02 -0.45324305527E+02  0.50874485815E+02  0.00000000000E+00 0. -1.
         -2    1    1    2    0  502 -0.12249985088E+02 -0.19592307185E+02  0.73723260989E+02  0.77259561520E+02  0.00000000000E+00 0. -1.
<mgrwt>
<rscale>  2 0.23106723E+02</rscale>
<asrwt>0</asrwt>
<pdfrwt beam="2">  1        2 0.76719302E-02 0.23106723E+02</pdfrwt>
<pdfrwt beam="1">  1       -2 0.12041000E-01 0.23106723E+02</pdfrwt>
<totfact> 0.30441833E+04</totfact>
</mgrwt>
</event>
<event>
 4    1  0.7653521E+003  0.2516710E+02  0.7546771E-02  0.1658613E+00
         -2   -1    0    0    0  501 -0.00000000000E+00  0.00000000000E+00  0.12033642102E+01  0.12033642102E+01  0.00000000000E+00 0.  1.
          2   -1    0    0  501    0  0.00000000000E+00 -0.00000000000E+00 -0.89218553719E+03  0.89218553719E+03  0.00000000000E+00 0. -1.
          2    1    1    2  502    0  0.24632034629E+02 -0.51619384865E+01 -0.73153312573E+03  0.73196591231E+03  0.00000000000E+00 0. -1.
         -2    1    1    2    0  502 -0.24632034629E+02  0.51619384865E+01 -0.15944904725E+03  0.16142298909E+03  0.00000000000E+00 0.  1.
<mgrwt>
<rscale>  2 0.25167096E+02</rscale>
<asrwt>0</asrwt>
<pdfrwt beam="2">  1        2 0.13725897E+00 0.25167096E+02</pdfrwt>
<pdfrwt beam="1">  1       -2 0.18513342E-03 0.25167096E+02</pdfrwt>
<totfact> 0.46689571E+05</totfact>
</mgrwt>
</event>
<event>
 4    1  0.7653521E+003  0.6686720E+02  0.7546771E-02  0.1371082E+00
         -2   -1    0    0    0  501 -0.00000000000E+00  0.00000000000E+00  0.18974018120E+02  0.18974018120E+02  0.00000000000E+00 0. -1.
          2   -1    0    0  501    0  0.00000000000E+00 -0.00000000000E+00 -0.77867664722E+03  0.77867664722E+03  0.00000000000E+00 0.  1.
          2    1    1    2  502    0  0.24700701363E+02  0.62137730816E+02 -0.71290545722E+03  0.71603450558E+03  0.00000000000E+00 0.  1.
         -2    1    1    2    0  502 -0.24700701363E+02 -0.62137730816E+02 -0.46797171876E+02  0.81616159763E+02  0.00000000000E+00 0. -1.
<mgrwt>
<rscale>  2 0.66867199E+02</rscale>
<asrwt>0</asrwt>
<pdfrwt beam="2">  1        2 0.11979639E+00 0.66867199E+02</pdfrwt>
<pdfrwt beam="1">  1       -2 0.29190802E-02 0.66867199E+02</pdfrwt>
<totfact> 0.14560104E+04</totfact>
</mgrwt>
</event>
<event>
 4    1  0.7653521E+003  0.2339867E+02  0.7546771E-02  0.1685128E+00
          2   -1    0    0  501    0  0.00000000000E+00  0.00000000000E+00  0.10730043223E+04  0.10730043223E+04  0.00000000000E+00 0. -1.
         -2   -1    0    0    0  501 -0.00000000000E+00 -0.00000000000E+00 -0.24758414514E+02  0.24758414514E+02  0.00000000000E+00 0. -1.
          2    1    1    2  502    0 -0.22920097715E+02  0.47081855455E+01  0.10673189130E+04  0.10675753650E+04  0.00000000000E+00 0. -1.
         -2    1    1    2    0  502  0.22920097715E+02 -0.47081855455E+01 -0.19073005207E+02  0.30187371830E+02  0.00000000000E+00 0. -1.
<mgrwt>
<rscale>  2 0.23398673E+02</rscale>
<asrwt>0</asrwt>
<pdfrwt beam="1">  1        2 0.16507755E+00 0.23398673E+02</pdfrwt>
<pdfrwt beam="2">  1       -2 0.38089877E-02 0.23398673E+02</pdfrwt>
<totfact> 0.60693452E+03</totfact>
</mgrwt>
</event>
<event>
 4    1  0.7653521E+003  0.3710006E+02  0.7546771E-02  0.1530705E+00
          2   -1    0    0  501    0  0.00000000000E+00  0.00000000000E+00  0.25131941126E+03  0.25131941126E+03  0.00000000000E+00 0.  1.
         -2   -1    0    0    0  501 -0.00000000000E+00 -0.00000000000E+00 -0.13548009011E+02  0.13548009011E+02  0.00000000000E+00 0.  1.
          2    1    1    2  502    0 -0.19798818646E+02 -0.31375487658E+02  0.22110463750E+03  0.22419561809E+03  0.00000000000E+00 0.  1.
         -2    1    1    2    0  502  0.19798818646E+02  0.31375487658E+02  0.16666764746E+02  0.40671802181E+02  0.00000000000E+00 0.  1.
<mgrwt>
<rscale>  2 0.37100060E+02</rscale>
<asrwt>0</asrwt>
<pdfrwt beam="1">  1        2 0.38664521E-01 0.37100060E+02</pdfrwt>
<pdfrwt beam="2">  1       -2 0.20843093E-02 0.37100060E+02</pdfrwt>
<totfact> 0.71484091E+04</totfact>
</mgrwt>
</event>
<event>
 4    1  0.7653521E+003  0.2388889E+02  0.7546771E-02  0.1677494E+00
          2   -1    0    0  501    0  0.00000000000E+00  0.00000000000E+00  0.43546010636E+03  0.43546010636E+03  0.00000000000E+00 0. -1.
         -2   -1    0    0    0  501 -0.00000000000E+00 -0.00000000000E+00 -0.19324305069E+01  0.19324305069E+01  0.00000000000E+00 0. -1.
          2    1    1    2  502    0 -0.23009421926E+02  0.64222607507E+01  0.34083006529E+03  0.34166622943E+03  0.00000000000E+00 0. -1.
         -2    1    1    2    0  502  0.23009421926E+02 -0.64222607507E+01  0.92697610569E+02  0.95726307438E+02  0.00000000000E+00 0. -1.
<mgrwt>
<rscale>  2 0.23888887E+02</rscale>
<asrwt>0</asrwt>
<pdfrwt beam="1">  1        2 0.66993784E-01 0.23888887E+02</pdfrwt>
<pdfrwt beam="2">  1       -2 0.29729735E-03 0.23888887E+02</pdfrwt>
<totfact> 0.52712467E+05</totfact>
</mgrwt>
</event>
<event>
 4    1  0.7653521E+003  0.2404849E+02  0.7546771E-02  0.1675057E+00
         -2   -1    0    0    0  501 -0.00000000000E+00  0.00000000000E+00  0.29371523844E+03  0.29371523844E+03  0.00000000000E+00 0. -1.
          2   -1    0    0  501    0  0.00000000000E+00 -0.00000000000E+00 -0.14618390965E+02  0.14618390965E+02  0.00000000000E+00 0. -1.
          2    1    1    2  502    0  0.20967665636E+02 -0.11776548945E+02 -0.38603229113E+01  0.24356358518E+02  0.00000000000E+00 0. -1.
         -2    1    1    2    0  502 -0.20967665636E+02  0.11776548945E+02  0.28295717038E+03  0.28397727089E+03  0.00000000000E+00 0. -1.
<mgrwt>
<rscale>  2 0.24048495E+02</rscale>
<asrwt>0</asrwt>
<pdfrwt beam="2">  1        2 0.22489835E-02 0.24048495E+02</pdfrwt>
<pdfrwt beam="1">  1       -2 0.45186955E-01 0.24048495E+02</pdfrwt>
<totfact> 0.15536026E+04</totfact>
</mgrwt>
</event>
<event>
 4    1  0.7653521E+003  0.3447832E+02  0.7546771E-02  0.1553283E+00
          2   -1    0    0  501    0  0.00000000000E+00  0.00000000000E+00  0.18405758198E+04  0.18405758198E+04  0.00000000000E+00 0. -1.
         -2   -1    0    0    0  501 -0.00000000000E+00 -0.00000000000E+00 -0.81945423592E+00  0.81945423592E+00  0.00000000000E+00 0. -1.
          2    1    1    2  502    0 -0.20180374968E+02 -0.27955445779E+02  0.13436403704E+04  0.13440826609E+04  0.00000000000E+00 0. -1.
         -2    1    1    2    0  502  0.20180374968E+02  0.27955445779E+02  0.49611599524E+03  0.49731261317E+03  0.00000000000E+00 0. -1.
<mgrwt>
<rscale>  2 0.34478319E+02</rscale>
<asrwt>0</asrwt>
<pdfrwt beam="1">  1        2 0.28316220E+00 0.34478319E+02</pdfrwt>
<pdfrwt beam="2">  1       -2 0.12607136E-03 0.34478319E+02</pdfrwt>
<totfact> 0.28007545E+05</totfact>
</mgrwt>
</event>
<event>
 4    1  0.7653521E+003  0.2475128E+02  0.7546771E-02  0.1664600E+00
         -2   -1    0    0    0  501 -0.00000000000E+00  0.00000000000E+00  0.63886880602E+01  0.63886880602E+01  0.00000000000E+00 0. -1.
          2   -1    0    0  501    0  0.00000000000E+00 -0.00000000000E+00 -0.10348913723E+04  0.10348913723E+04  0.00000000000E+00 0.  1.
          2    1    1    2  502    0  0.24740329156E+02 -0.73621210886E+00 -0.10101840574E+04  0.10104872368E+04  0.00000000000E+00 0.  1.
         -2    1    1    2    0  502 -0.24740329156E+02  0.73621210886E+00 -0.18318626880E+02  0.30792823608E+02  0.00000000000E+00 0. -1.
<mgrwt>
<rscale>  2 0.24751281E+02</rscale>
<asrwt>0</asrwt>
<pdfrwt beam="2">  1        2 0.15921399E+00 0.24751281E+02</pdfrwt>
<pdfrwt beam="1">  1       -2 0.98287550E-03 0.24751281E+02</pdfrwt>
<totfact> 0.41281701E+04</totfact>
</mgrwt>
</event>
<event>
 4    1  0.7653521E+003  0.3909059E+02  0.7546771E-02  0.1515012E+00
         -2   -1    0    0    0  501 -0.00000000000E+00  0.00000000000E+00  0.21588799251E+01  0.21588799251E+01  0.00000000000E+00 0. -1.
          2   -1    0    0  501    0  0.00000000000E+00 -0.00000000000E+00 -0.15350412806E+04  0.15350412806E+04  0.00000000000E+00 0. -1.
          2    1    1    2  502    0  0.56940551361E+01 -0.38673663967E+02 -0.13306685630E+04  0.13312426147E+04  0.00000000000E+00 0. -1.
         -2    1    1    2    0  502 -0.56940551361E+01  0.38673663967E+02 -0.20221383764E+03  0.20595754582E+03  0.00000000000E+00 0. -1.
<mgrwt>
<rscale>  2 0.39090594E+02</rscale>
<asrwt>0</asrwt>
<pdfrwt beam="2">  1        2 0.23616052E+00 0.39090594E+02</pdfrwt>
<pdfrwt beam="1">  1       -2 0.33213491E-03 0.39090594E+02</pdfrwt>
<totfact> 0.10865145E+05</totfact>
</mgrwt>
</event>
<event>
 4    1  0.7653521E+003  0.2174167E+02  0.7546771E-02  0.1712758E+00
          2   -1    0    0  501    0  0.00000000000E+00  0.00000000000E+00  0.40419057184E+03  0.40419057184E+03  0.00000000000E+00 0. -1.
         -2   -1    0    0    0  501 -0.00000000000E+00 -0.00000000000E+00 -0.88938444736E+02  0.88938444736E+02  0.00000000000E+00 0.  1.
          2    1    1    2  502    0 -0.14388172915E+02  0.16299720903E+02  0.40256410343E+03  0.40315078791E+03  0.00000000000E+00 0. -1.
         -2    1    1    2    0  502  0.14388172915E+02 -0.16299720903E+02 -0.87311976333E+02  0.89978228659E+02  0.00000000000E+00 0.  1.
<mgrwt>
<rscale>  2 0.21741675E+02</rscale>
<asrwt>0</asrwt>
<pdfrwt beam="1">  1        2 0.62183164E-01 0.21741675E+02</pdfrwt>
<pdfrwt beam="2">  1       -2 0.13682838E-01 0.21741675E+02</pdfrwt>
<totfact> 0.27111123E+03</totfact>
</mgrwt>
</event>
<event>
 4    1  0.7653521E+003  0.3403592E+02  0.7546771E-02  0.1557332E+00
          2   -1    0    0  501    0  0.00000000000E+00  0.00000000000E+00  0.20522653191E+04  0.20522653191E+04  0.00000000000E+00 0.  1.
         -2   -1    0    0    0  501 -0.00000000000E+00 -0.00000000000E+00 -0.23481022933E+03  0.23481022933E+03  0.00000000000E+00 0. -1.
          2    1    1    2  502    0  0.34497313898E+01 -0.33860645343E+02  0.20508899911E+04  0.20511723964E+04  0.00000000000E+00 0.  1.
         -2    1    1    2    0  502 -0.34497313898E+01  0.33860645343E+02 -0.23343490139E+03  0.23590315202E+03  0.00000000000E+00 0. -1.
<mgrwt>
<rscale>  2 0.34035921E+02</rscale>
<asrwt>0</asrwt>
<pdfrwt beam="1">  1        2 0.31573311E+00 0.34035921E+02</pdfrwt>
<pdfrwt beam="2">  1       -2 0.36124652E-01 0.34035921E+02</pdfrwt>
<totfact> 0.62515789E+01</totfact>
</mgrwt>
</event>
<event>
 4    1  0.7653521E+003  0.2281033E+02  0.7546771E-02  0.1694603E+00
          2   -1    0    0  501    0  0.00000000000E+00  0.00000000000E+00  0.58905576027E+03  0.58905576027E+03  0.00000000000E+00 0.  1.
         -2   -1    0    0    0  501 -0.00000000000E+00 -0.00000000000E+00 -0.13527259975E+01  0.13527259975E+01  0.00000000000E+00 0. -1.
          2    1    1    2  502    0  0.20575496880E+02  0.98468332810E+01  0.46775273550E+03  0.46830858711E+03  0.00000000000E+00 0.  1.
         -2    1    1    2    0  502 -0.20575496880E+02 -0.98468332810E+01  0.11995029877E+03  0.12209989915E+03  0.00000000000E+00 0. -1.
<mgrwt>
<rscale>  2 0.22810331E+02</rscale>
<asrwt>0</asrwt>
<pdfrwt beam="1">  1        2 0.90623758E-01 0.22810331E+02</pdfrwt>
<pdfrwt beam="2">  1       -2 0.20811216E-03 0.22810331E+02</pdfrwt>
<totfact> 0.61482394E+05</totfact>
</mgrwt>
</event>
<event>
 4    1  0.7653521E+003  0.2595022E+02  0.7546771E-02  0.1647717E+00
         -2   -1    0    0    0  501 -0.00000000000E+00  0.00000000000E+00  0.36855472410E+02  0.36855472410E+02  0.00000000000E+00 0.  1.
          2   -1    0    0  501    0  0.00000000000E+00 -0.00000000000E+00 -0.43839404813E+02  0.43839404813E+02  0.00000000000E+00 0. -1.
          2    1    1    2  502    0  0.19127010001E+02 -0.17537709845E+02 -0.34304622388E+02  0.43014194115E+02  0.00000000000E+00 0. -1.
         -2    1    1    2    0  502 -0.19127010001E+02  0.17537709845E+02  0.27320689985E+02  0.37680683108E+02  0.00000000000E+00 0.  1.
<mgrwt>
<rscale>  2 0.25950217E+02</rscale>
<asrwt>0</asrwt>
<pdfrwt beam="2">  1        2 0.67445239E-02 0.25950217E+02</pdfrwt>
<pdfrwt beam="1">  1       -2 0.56700726E-02 0.25950217E+02</pdfrwt>
<totfact> 0.11039341E+05</totfact>
</mgrwt>
</event>
<event>
 4    1  0.7653521E+003  0.2609640E+02  0.7546771E-02  0.1645736E+00
          2   -1    0    0  501    0  0.00000000000E+00  0.00000000000E+00  0.95509554239E+02  0.95509554239E+02  0.00000000000E+00 0.  1.
         -2   -1    0    0    0  501 -0.00000000000E+00 -0.00000000000E+00 -0.74391389563E+02  0.74391389563E+02  0.00000000000E+00 0. -1.
          2    1    1    2  502    0 -0.22508131379E+02 -0.13206291208E+02  0.91335773651E+02  0.94990766151E+02  0.00000000000E+00 0.  1.
         -2    1    1    2    0  502  0.22508131379E+02  0.13206291208E+02 -0.70217608974E+02  0.74910177651E+02  0.00000000000E+00 0. -1.
<mgrwt>
<rscale>  2 0.26096400E+02</rscale>
<asrwt>0</asrwt>
<pdfrwt beam="1">  1        2 0.14693778E-01 0.26096400E+02</pdfrwt>
<pdfrwt beam="2">  1       -2 0.11444829E-01 0.26096400E+02</pdfrwt>
<totfact> 0.15976875E+04</totfact>
</mgrwt>
</event>
<event>
 4    1  0.7653521E+003  0.4244138E+02  0.7546771E-02  0.1490977E+00
          2   -1    0    0  501    0  0.00000000000E+00  0.00000000000E+00  0.84543115684E+02  0.84543115684E+02  0.00000000000E+00 0.  1.
         -2   -1    0    0    0  501 -0.00000000000E+00 -0.00000000000E+00 -0.67778657179E+02  0.67778657179E+02  0.00000000000E+00 0. -1.
          2    1    1    2  502    0  0.91240825848E+01  0.41449023130E+02  0.71446670319E+02  0.83101727426E+02  0.00000000000E+00 0.  1.
         -2    1    1    2    0  502 -0.91240825848E+01 -0.41449023130E+02 -0.54682211814E+02  0.69220045437E+02  0.00000000000E+00 0. -1.
<mgrwt>
<rscale>  2 0.42441376E+02</rscale>
<asrwt>0</asrwt>
<pdfrwt beam="1">  1        2 0.13006633E-01 0.42441376E+02</pdfrwt>
<pdfrwt beam="2">  1       -2 0.10427486E-01 0.42441376E+02</pdfrwt>
<totfact> 0.22816838E+04</totfact>
</mgrwt>
</event>
<event>
 4    1  0.7653521E+003  0.4531978E+02  0.7546771E-02  0.1472355E+00
          2   -1    0    0  501    0  0.00000000000E+00  0.00000000000E+00  0.34692153079E+03  0.34692153079E+03  0.00000000000E+00 0. -1.
         -2   -1    0    0    0  501 -0.00000000000E+00 -0.00000000000E+00 -0.18400968563E+02  0.18400968563E+02  0.00000000000E+00 0.  1.
          2    1    1    2  502    0 -0.40804091940E+02  0.19720755112E+02  0.31469389179E+03  0.31794044667E+03  0.00000000000E+00 0. -1.
         -2    1    1    2    0  502  0.40804091940E+02 -0.19720755112E+02  0.13826670446E+02  0.47382052688E+02  0.00000000000E+00 0.  1.
<mgrwt>
<rscale>  2 0.45319776E+02</rscale>
<asrwt>0</asrwt>
<pdfrwt beam="1">  1        2 0.53372538E-01 0.45319776E+02</pdfrwt>
<pdfrwt beam="2">  1       -2 0.28309185E-02 0.45319776E+02</pdfrwt>
<totfact> 0.34649413E+04</totfact>
</mgrwt>
</event>
<event>
 4    1  0.7653521E+003  0.2313776E+02  0.7546771E-02  0.1689287E+00
         -2   -1    0    0    0  501 -0.00000000000E+00  0.00000000000E+00  0.54015250431E+00  0.54015250431E+00  0.00000000000E+00 0.  1.
          2   -1    0    0  501    0  0.00000000000E+00 -0.00000000000E+00 -0.99831603775E+03  0.99831603775E+03  0.00000000000E+00 0.  1.
          2    1    1    2  502    0  0.13569577741E+02 -0.18740922563E+02 -0.45648420093E+03  0.45707021486E+03  0.00000000000E+00 0.  1.
         -2    1    1    2    0  502 -0.13569577741E+02  0.18740922563E+02 -0.54129168431E+03  0.54178597539E+03  0.00000000000E+00 0.  1.
<mgrwt>
<rscale>  2 0.23137765E+02</rscale>
<asrwt>0</asrwt>
<pdfrwt beam="2">  1        2 0.15358706E+00 0.23137765E+02</pdfrwt>
<pdfrwt beam="1">  1       -2 0.83100395E-04 0.23137765E+02</pdfrwt>
<totfact> 0.11452898E+06</totfact>
</mgrwt>
</event>
<event>
 4    1  0.7653521E+003  0.2206075E+02  0.7546771E-02  0.1707203E+00
          2   -1    0    0  501    0  0.00000000000E+00  0.00000000000E+00  0.57483509194E+03  0.57483509194E+03  0.00000000000E+00 0.  1.
         -2   -1    0    0    0  501 -0.00000000000E+00 -0.00000000000E+00 -0.11989535597E+02  0.11989535597E+02  0.00000000000E+00 0.  1.
          2    1    1    2  502    0  0.14934307967E+02  0.16237089256E+02  0.56428584504E+03  0.56471691274E+03  0.00000000000E+00 0.  1.
         -2    1    1    2    0  502 -0.14934307967E+02 -0.16237089256E+02 -0.14402886988E+01  0.22107714796E+02  0.00000000000E+00 0.  1.
<mgrwt>
<rscale>  2 0.22060748E+02</rscale>
<asrwt>0</asrwt>
<pdfrwt beam="1">  1        2 0.88436147E-01 0.22060748E+02</pdfrwt>
<pdfrwt beam="2">  1       -2 0.18445444E-02 0.22060748E+02</pdfrwt>
<totfact> 0.33384857E+04</totfact>
</mgrwt>
</event>
<event>
 4    1  0.7653521E+003  0.3305601E+02  0.7546771E-02  0.1566574E+00
         -2   -1    0    0    0  501 -0.00000000000E+00  0.00000000000E+00  0.26761420299E+01  0.26761420299E+01  0.00000000000E+00 0. -1.
          2   -1    0    0  501    0  0.00000000000E+00 -0.00000000000E+00 -0.23730030451E+04  0.23730030451E+04  0.00000000000E+00 0.  1.
          2    1    1    2  502    0 -0.28436481401E+02 -0.16854271107E+02 -0.22659895492E+04  0.22662306452E+04  0.00000000000E+00 0.  1.
         -2    1    1    2    0  502  0.28436481401E+02  0.16854271107E+02 -0.10433735385E+03  0.10944854197E+03  0.00000000000E+00 0. -1.
<mgrwt>
<rscale>  2 0.33056012E+02</rscale>
<asrwt>0</asrwt>
<pdfrwt beam="2">  1        2 0.36507901E+00 0.33056012E+02</pdfrwt>
<pdfrwt beam="1">  1       -2 0.41171233E-03 0.33056012E+02</pdfrwt>
<totfact> 0.31362765E+04</totfact>
</mgrwt>
</event>
<event>
 4    1  0.7653521E+003  0.2091306E+02  0.7546771E-02  0.1727757E+00
          2   -1    0    0  501    0  0.00000000000E+00  0.00000000000E+00  0.26555520019E+03  0.26555520019E+03  0.00000000000E+00 0. -1.
         -2   -1    0    0    0  501 -0.00000000000E+00 -0.00000000000E+00 -0.33409487434E+02  0.33409487434E+02  0.00000000000E+00 0.  1.
          2    1    1    2  502    0  0.62197888841E+01  0.19966732203E+02  0.26182420653E+03  0.26265808820E+03  0.00000000000E+00 0. -1.
         -2    1    1    2    0  502 -0.62197888841E+01 -0.19966732203E+02 -0.29678493781E+02  0.36306599424E+02  0.00000000000E+00 0.  1.
<mgrwt>
<rscale>  2 0.20913062E+02</rscale>
<asrwt>0</asrwt>
<pdfrwt beam="1">  1        2 0.40854645E-01 0.20913062E+02</pdfrwt>
<pdfrwt beam="2">  1       -2 0.51399213E-02 0.20913062E+02</pdfrwt>
<totfact> 0.17141323E+04</totfact>
</mgrwt>
</event>
<event>
 4    1  0.7653521E+003  0.3679026E+02  0.7546771E-02  0.1533254E+00
          2   -1    0    0  501    0  0.00000000000E+00  0.00000000000E+00  0.69947510690E+03  0.69947510690E+03  0.00000000000E+00 0.  1.
         -2   -1    0    0    0  501 -0.00000000000E+00 -0.00000000000E+00 -0.26812857261E+01  0.26812857261E+01  0.00000000000E+00 0.  1.
          2    1    1    2  502    0 -0.84867003194E+01 -0.35798037097E+02  0.53360867386E+03  0.53487544378E+03  0.00000000000E+00 0.  1.
         -2    1    1    2    0  502  0.84867003194E+01  0.35798037097E+02  0.16318514732E+03  0.16728094885E+03  0.00000000000E+00 0.  1.
<mgrwt>
<rscale>  2 0.36790264E+02</rscale>
<asrwt>0</asrwt>
<pdfrwt beam="1">  1        2 0.10761141E+00 0.36790264E+02</pdfrwt>
<pdfrwt beam="2">  1       -2 0.41250605E-03 0.36790264E+02</pdfrwt>
<totfact> 0.23048654E+05</totfact>
</mgrwt>
</event>
<event>
 4    1  0.7653521E+003  0.2211597E+02  0.7546771E-02  0.1706254E+00
         -2   -1    0    0    0  501 -0.00000000000E+00  0.00000000000E+00  0.11599842993E+04  0.11599842993E+04  0.00000000000E+00 0.  1.
          2   -1    0    0  501    0  0.00000000000E+00 -0.00000000000E+00 -0.76088916729E+00  0.76088916729E+00  0.00000000000E+00 0.  1.
          2    1    1    2  502    0  0.81738199084E+01 -0.20550050958E+02  0.19209139054E+03  0.19336033265E+03  0.00000000000E+00 0.  1.
         -2    1    1    2    0  502 -0.81738199084E+01  0.20550050958E+02  0.96713201958E+03  0.96738485580E+03  0.00000000000E+00 0.  1.
<mgrwt>
<rscale>  2 0.22115965E+02</rscale>
<asrwt>0</asrwt>
<pdfrwt beam="2">  1        2 0.11706080E-03 0.22115965E+02</pdfrwt>
<pdfrwt beam="1">  1       -2 0.17845771E+00 0.22115965E+02</pdfrwt>
<totfact> 0.36248046E+04</totfact>
</mgrwt>
</event>
<event>
 4    1  0.7653521E+003  0.2158175E+02  0.7546771E-02  0.1715587E+00
          2   -1    0    0  501    0  0.00000000000E+00  0.00000000000E+00  0.13185184380E+01  0.13185184380E+01  0.00000000000E+00 0.  1.
         -2   -1    0    0    0  501 -0.00000000000E+00 -0.00000000000E+00 -0.37958144572E+03  0.37958144572E+03  0.00000000000E+00 0.  1.
          2    1    1    2  502    0  0.63680341125E+01  0.20620862701E+02 -0.13897426387E+03  0.14064002934E+03  0.00000000000E+00 0.  1.
         -2    1    1    2    0  502 -0.63680341125E+01 -0.20620862701E+02 -0.23928866342E+03  0.24025993482E+03  0.00000000000E+00 0.  1.
<mgrwt>
<rscale>  2 0.21581748E+02</rscale>
<asrwt>0</asrwt>
<pdfrwt beam="1">  1        2 0.20284943E-03 0.21581748E+02</pdfrwt>
<pdfrwt beam="2">  1       -2 0.58397020E-01 0.21581748E+02</pdfrwt>
<totfact> 0.21308253E+05</totfact>
</mgrwt>
</event>
<event>
 4    1  0.7653521E+003  0.2529015E+02  0.7546771E-02  0.1656869E+00
         -2   -1    0    0    0  501 -0.00000000000E+00  0.00000000000E+00  0.16956999956E+02  0.16956999956E+02  0.00000000000E+00 0.  1.
          2   -1    0    0  501    0  0.00000000000E+00 -0.00000000000E+00 -0.17563401959E+03  0.17563401959E+03  0.00000000000E+00 0.  1.
          2    1    1    2  502    0  0.19210736369E+01  0.25217076046E+02 -0.16466981597E+03  0.16660053944E+03  0.00000000000E+00 0.  1.
         -2    1    1    2    0  502 -0.19210736369E+01 -0.25217076046E+02  0.59927963399E+01  0.25990480108E+02  0.00000000000E+00 0.  1.
<mgrwt>
<rscale>  2 0.25290145E+02</rscale>
<asrwt>0</asrwt>
<pdfrwt beam="2">  1        2 0.27020620E-01 0.25290145E+02</pdfrwt>
<pdfrwt beam="1">  1       -2 0.26087691E-02 0.25290145E+02</pdfrwt>
<totfact> 0.69687983E+04</totfact>
</mgrwt>
</event>
<event>
 4    1  0.7653521E+003  0.2006142E+02  0.7546771E-02  0.1744109E+00
          2   -1    0    0  501    0  0.00000000000E+00  0.00000000000E+00  0.79118229737E+01  0.79118229737E+01  0.00000000000E+00 0. -1.
         -2   -1    0    0    0  501 -0.00000000000E+00 -0.00000000000E+00 -0.52594386731E+02  0.52594386731E+02  0.00000000000E+00 0. -1.
          2    1    1    2  502    0 -0.40752118611E+01  0.19643146766E+02 -0.16860554402E+02  0.26205702840E+02  0.00000000000E+00 0. -1.
         -2    1    1    2    0  502  0.40752118611E+01 -0.19643146766E+02 -0.27822009355E+02  0.34300506864E+02  0.00000000000E+00 0. -1.
<mgrwt>
<rscale>  2 0.20061420E+02</rscale>
<asrwt>0</asrwt>
<pdfrwt beam="1">  1        2 0.12172035E-02 0.20061420E+02</pdfrwt>
<pdfrwt beam="2">  1       -2 0.80914443E-02 0.20061420E+02</pdfrwt>
<totfact> 0.52667044E+05</totfact>
</mgrwt>
</event>
<event>
 4    1  0.7653521E+003  0.2184008E+02  0.7546771E-02  0.1711032E+00
         -2   -1    0    0    0  501 -0.00000000000E+00  0.00000000000E+00  0.39742727983E+03  0.39742727983E+03  0.00000000000E+00 0.  1.
          2   -1    0    0  501    0  0.00000000000E+00 -0.00000000000E+00 -0.12014052527E+01  0.12014052527E+01  0.00000000000E+00 0. -1.
          2    1    1    2  502    0 -0.18601723090E+02  0.11443977506E+02  0.20444890437E+03  0.20561211838E+03  0.00000000000E+00 0. -1.
         -2    1    1    2    0  502  0.18601723090E+02 -0.11443977506E+02  0.19177697020E+03  0.19301656671E+03  0.00000000000E+00 0.  1.
<mgrwt>
<rscale>  2 0.21840082E+02</rscale>
<asrwt>0</asrwt>
<pdfrwt beam="2">  1        2 0.18483189E-03 0.21840082E+02</pdfrwt>
<pdfrwt beam="1">  1       -2 0.61142553E-01 0.21840082E+02</pdfrwt>
<totfact> 0.22072502E+05</totfact>
</mgrwt>
</event>
<event>
 4    1  0.7653521E+003  0.2286803E+02  0.7546771E-02  0.1693658E+00
          2   -1    0    0  501    0  0.00000000000E+00  0.00000000000E+00  0.95907420029E+03  0.95907420029E+03  0.00000000000E+00 0.  1.
         -2   -1    0    0    0  501 -0.00000000000E+00 -0.00000000000E+00 -0.13189954244E+02  0.13189954244E+02  0.00000000000E+00 0. -1.
          2    1    1    2  502    0  0.13126953852E+02 -0.18725110714E+02  0.94891999896E+03  0.94919550732E+03  0.00000000000E+00 0.  1.
         -2    1    1    2    0  502 -0.13126953852E+02  0.18725110714E+02 -0.30357529118E+01  0.23068647217E+02  0.00000000000E+00 0. -1.
<mgrwt>
<rscale>  2 0.22868028E+02</rscale>
<asrwt>0</asrwt>
<pdfrwt beam="1">  1        2 0.14754982E+00 0.22868028E+02</pdfrwt>
<pdfrwt beam="2">  1       -2 0.20292245E-02 0.22868028E+02</pdfrwt>
<totfact> 0.16691580E+04</totfact>
</mgrwt>
</event>
<event>
 4    1  0.7653521E+003  0.2199778E+02  0.7546771E-02  0.1708290E+00
          2   -1    0    0  501    0  0.00000000000E+00  0.00000000000E+00  0.28080474841E+03  0.28080474841E+03  0.00000000000E+00 0.  1.
         -2   -1    0    0    0  501 -0.00000000000E+00 -0.00000000000E+00 -0.40751399719E+02  0.40751399719E+02  0.00000000000E+00 0.  1.
          2    1    1    2  502    0 -0.15985310374E+02 -0.15111983224E+02  0.27736858910E+03  0.27823953063E+03  0.00000000000E+00 0.  1.
         -2    1    1    2    0  502  0.15985310374E+02  0.15111983224E+02 -0.37315240410E+02  0.43316617499E+02  0.00000000000E+00 0.  1.
<mgrwt>
<rscale>  2 0.21997777E+02</rscale>
<asrwt>0</asrwt>
<pdfrwt beam="1">  1        2 0.43200729E-01 0.21997777E+02</pdfrwt>
<pdfrwt beam="2">  1       -2 0.62694463E-02 0.21997777E+02</pdfrwt>
<totfact> 0.12323351E+04</totfact>
</mgrwt>
</event>
<event>
 4    1  0.7653521E+003  0.2166360E+02  0.7546771E-02  0.1714136E+00
          2   -1    0    0  501    0  0.00000000000E+00  0.00000000000E+00  0.17511737998E+03  0.17511737998E+03  0.00000000000E+00 0.  1.
         -2   -1    0    0    0  501 -0.00000000000E+00 -0.00000000000E+00 -0.27862361240E+02  0.27862361240E+02  0.00000000000E+00 0.  1.
          2    1    1    2  502    0 -0.19393506739E+02 -0.96541846711E+01  0.17011302487E+03  0.17148688760E+03  0.00000000000E+00 0.  1.
         -2    1    1    2    0  502  0.19393506739E+02  0.96541846711E+01 -0.22858006132E+02  0.31492853628E+02  0.00000000000E+00 0.  1.
<mgrwt>
<rscale>  2 0.21663596E+02</rscale>
<asrwt>0</asrwt>
<pdfrwt beam="1">  1        2 0.26941135E-01 0.21663596E+02</pdfrwt>
<pdfrwt beam="2">  1       -2 0.42865172E-02 0.21663596E+02</pdfrwt>
<totfact> 0.33816734E+04</totfact>
</mgrwt>
</event>
<event>
 4    1  0.7653521E+003  0.3870856E+02  0.7546771E-02  0.1517936E+00
          2   -1    0    0  501    0  0.00000000000E+00  0.00000000000E+00  0.25468939571E+02  0.25468939571E+02  0.00000000000E+00 0.  1.
         -2   -1    0    0    0  501 -0.00000000000E+00 -0.00000000000E+00 -0.41519775951E+03  0.41519775951E+03  0.00000000000E+00 0.  1.
          2    1    1    2  502    0 -0.72263105317E+01  0.38028052320E+02  0.92631243881E+01  0.39801479879E+02  0.00000000000E+00 0.  1.
         -2    1    1    2    0  502  0.72263105317E+01 -0.38028052320E+02 -0.39899194433E+03  0.40086521920E+03  0.00000000000E+00 0.  1.
<mgrwt>
<rscale>  2 0.38708556E+02</rscale>
<asrwt>0</asrwt>
<pdfrwt beam="1">  1        2 0.39182989E-02 0.38708556E+02</pdfrwt>
<pdfrwt beam="2">  1       -2 0.63876571E-01 0.38708556E+02</pdfrwt>
<totfact> 0.42164803E+03</totfact>
</mgrwt>
</event>
<event>
 4    1  0.7653521E+003  0.2189533E+02  0.7546771E-02  0.1710069E+00
          2   -1    0    0  501    0  0.00000000000E+00  0.00000000000E+00  0.88672446358E+03  0.88672446358E+03  0.00000000000E+00 0.  1.
         -2   -1    0    0    0  501 -0.00000000000E+00 -0.00000000000E+00 -0.73084065126E+00  0.73084065126E+00  0.00000000000E+00 0.  1.
          2    1    1    2  502    0  0.18626811947E+02 -0.11508578462E+02  0.66935822978E+03  0.66971624236E+03  0.00000000000E+00 0.  1.
         -2    1    1    2    0  502 -0.18626811947E+02  0.11508578462E+02  0.21663539315E+03  0.21773906187E+03  0.00000000000E+00 0.  1.
<mgrwt>
<rscale>  2 0.21895331E+02</rscale>
<asrwt>0</asrwt>
<pdfrwt beam="1">  1        2 0.13641829E+00 0.21895331E+02</pdfrwt>
<pdfrwt beam="2">  1       -2 0.11243773E-03 0.21895331E+02</pdfrwt>
<totfact> 0.87355646E+05</totfact>
</mgrwt>
</event>
<event>
 4    1  0.7653521E+003  0.2422806E+02  0.7546771E-02  0.1672344E+00
          2   -1    0    0  501    0  0.00000000000E+00  0.00000000000E+00  0.42451375437E+01  0.42451375437E+01  0.00000000000E+00 0.  1.
         -2   -1    0    0    0  501 -0.00000000000E+00 -0.00000000000E+00 -0.31341568746E+03  0.31341568746E+03  0.00000000000E+00 0. -1.
          2    1    1    2  502    0  0.19360218462E+02  0.14566428075E+02 -0.35853736333E+02  0.43272269351E+02  0.00000000000E+00 0.  1.
         -2    1    1    2    0  502 -0.19360218462E+02 -0.14566428075E+02 -0.27331681358E+03  0.27438855565E+03  0.00000000000E+00 0. -1.
<mgrwt>
<rscale>  2 0.24228060E+02</rscale>
<asrwt>0</asrwt>
<pdfrwt beam="1">  1        2 0.65309819E-03 0.24228060E+02</pdfrwt>
<pdfrwt beam="2">  1       -2 0.48217790E-01 0.24228060E+02</pdfrwt>
<totfact> 0.68664782E+04</totfact>
</mgrwt>
</event>
<event>
 4    1  0.7653521E+003  0.2043290E+02  0.7546771E-02  0.1736854E+00
         -2   -1    0    0    0  501 -0.00000000000E+00  0.00000000000E+00  0.72244739455E+03  0.72244739455E+03  0.00000000000E+00 0.  1.
          2   -1    0    0  501    0  0.00000000000E+00 -0.00000000000E+00 -0.86451215253E+02  0.86451215253E+02  0.00000000000E+00 0. -1.
          2    1    1    2  502    0 -0.20420276765E+02  0.71802553001E+00 -0.85097135482E+02  0.87515859883E+02  0.00000000000E+00 0. -1.
         -2    1    1    2    0  502  0.20420276765E+02 -0.71802553001E+00  0.72109331477E+03  0.72138274992E+03  0.00000000000E+00 0.  1.
<mgrwt>
<rscale>  2 0.20432897E+02</rscale>
<asrwt>0</asrwt>
<pdfrwt beam="2">  1        2 0.13300187E-01 0.20432897E+02</pdfrwt>
<pdfrwt beam="1">  1       -2 0.11114575E+00 0.20432897E+02</pdfrwt>
<totfact> 0.28019841E+02</totfact>
</mgrwt>
</event>
<event>
 4    1  0.7653521E+003  0.2871045E+02  0.7546771E-02  0.1612797E+00
         -2   -1    0    0    0  501 -0.00000000000E+00  0.00000000000E+00  0.25424951346E+01  0.25424951346E+01  0.00000000000E+00 0.  1.
          2   -1    0    0  501    0  0.00000000000E+00 -0.00000000000E+00 -0.34470488912E+03  0.34470488912E+03  0.00000000000E+00 0. -1.
          2    1    1    2  502    0 -0.28532499125E+02 -0.31915952669E+01 -0.21342212674E+03  0.21534459355E+03  0.00000000000E+00 0. -1.
         -2    1    1    2    0  502  0.28532499125E+02  0.31915952669E+01 -0.12874026724E+03  0.13190279071E+03  0.00000000000E+00 0.  1.
<mgrwt>
<rscale>  2 0.28710447E+02</rscale>
<asrwt>0</asrwt>
<pdfrwt beam="2">  1        2 0.53031478E-01 0.28710447E+02</pdfrwt>
<pdfrwt beam="1">  1       -2 0.39115342E-03 0.28710447E+02</pdfrwt>
<totfact> 0.48515408E+05</totfact>
</mgrwt>
</event>
<event>
 4    1  0.7653521E+003  0.2392862E+02  0.7546771E-02  0.1676885E+00
         -2   -1    0    0    0  501 -0.00000000000E+00  0.00000000000E+00  0.15449065690E+03  0.15449065690E+03  0.00000000000E+00 0. -1.
          2   -1    0    0  501    0  0.00000000000E+00 -0.00000000000E+00 -0.13888012502E+04  0.13888012502E+04  0.00000000000E+00 0. -1.
          2    1    1    2  502    0  0.16718077776E+02 -0.17119718225E+02 -0.13877709326E+04  0.13879772117E+04  0.00000000000E+00 0. -1.
         -2    1    1    2    0  502 -0.16718077776E+02  0.17119718225E+02  0.15346033928E+03  0.15531469540E+03  0.00000000000E+00 0. -1.
<mgrwt>
<rscale>  2 0.23928620E+02</rscale>
<asrwt>0</asrwt>
<pdfrwt beam="2">  1        2 0.21366174E+00 0.23928620E+02</pdfrwt>
<pdfrwt beam="1">  1       -2 0.23767792E-01 0.23928620E+02</pdfrwt>
<totfact> 0.27139106E+02</totfact>
</mgrwt>
</event>
<event>
 4    1  0.7653521E+003  0.4949027E+02  0.7546771E-02  0.1448110E+00
          2   -1    0    0  501    0  0.00000000000E+00  0.00000000000E+00  0.53750844347E+03  0.53750844347E+03  0.00000000000E+00 0.  1.
         -2   -1    0    0    0  501 -0.00000000000E+00 -0.00000000000E+00 -0.73501454394E+01  0.73501454394E+01  0.00000000000E+00 0.  1.
          2    1    1    2  502    0  0.47528431373E+02  0.13796182778E+02  0.43302635928E+03  0.43584528709E+03  0.00000000000E+00 0.  1.
         -2    1    1    2    0  502 -0.47528431373E+02 -0.13796182778E+02  0.97131938752E+02  0.10901330182E+03  0.00000000000E+00 0.  1.
<mgrwt>
<rscale>  2 0.49490266E+02</rscale>
<asrwt>0</asrwt>
<pdfrwt beam="1">  1        2 0.82693576E-01 0.49490266E+02</pdfrwt>
<pdfrwt beam="2">  1       -2 0.11307920E-02 0.49490266E+02</pdfrwt>
<totfact> 0.81115382E+04</totfact>
</mgrwt>
</event>
<event>
 4    1  0.7653521E+003  0.2429965E+02  0.7546771E-02  0.1671270E+00
         -2   -1    0    0    0  501 -0.00000000000E+00  0.00000000000E+00  0.94434370785E+02  0.94434370785E+02  0.00000000000E+00 0. -1.
          2   -1    0    0  501    0  0.00000000000E+00 -0.00000000000E+00 -0.18968086405E+02  0.18968086405E+02  0.00000000000E+00 0.  1.
          2    1    1    2  502    0 -0.39685576096E+01 -0.23973388324E+02 -0.86911132294E+01  0.25807135571E+02  0.00000000000E+00 0.  1.
         -2    1    1    2    0  502  0.39685576096E+01  0.23973388324E+02  0.84157397609E+02  0.87595321619E+02  0.00000000000E+00 0. -1.
<mgrwt>
<rscale>  2 0.24299646E+02</rscale>
<asrwt>0</asrwt>
<pdfrwt beam="2">  1        2 0.29181672E-02 0.24299646E+02</pdfrwt>
<pdfrwt beam="1">  1       -2 0.14528364E-01 0.24299646E+02</pdfrwt>
<totfact> 0.75661531E+04</totfact>
</mgrwt>
</event>
<event>
 4    1  0.7653521E+003  0.3722896E+02  0.7546771E-02  0.1529653E+00
          2   -1    0    0  501    0  0.00000000000E+00  0.00000000000E+00  0.34384563869E+03  0.34384563869E+03  0.00000000000E+00 0.  1.
         -2   -1    0    0    0  501 -0.00000000000E+00 -0.00000000000E+00 -0.92650180908E+01  0.92650180908E+01  0.00000000000E+00 0. -1.
          2    1    1    2  502    0  0.54218006218E+01  0.36832040657E+02  0.29999336771E+03  0.30229458449E+03  0.00000000000E+00 0.  1.
         -2    1    1    2    0  502 -0.54218006218E+01 -0.36832040657E+02  0.34587252892E+02  0.50816072295E+02  0.00000000000E+00 0. -1.
<mgrwt>
<rscale>  2 0.37228956E+02</rscale>
<asrwt>0</asrwt>
<pdfrwt beam="1">  1        2 0.52899319E-01 0.37228956E+02</pdfrwt>
<pdfrwt beam="2">  1       -2 0.14253877E-02 0.37228956E+02</pdfrwt>
<totfact> 0.88472171E+04</totfact>
</mgrwt>
</event>
<event>
 4    1  0.7653521E+003  0.2566296E+02  0.7546771E-02  0.1651658E+00
         -2   -1    0    0    0  501 -0.00000000000E+00  0.00000000000E+00  0.11008575311E+01  0.11008575311E+01  0.00000000000E+00 0.  1.
          2   -1    0    0  501    0  0.00000000000E+00 -0.00000000000E+00 -0.10746717326E+04  0.10746717326E+04  0.00000000000E+00 0. -1.
          2    1    1    2  502    0 -0.20465347419E+02  0.15484089519E+02 -0.89492192823E+03  0.89528981067E+03  0.00000000000E+00 0. -1.
         -2    1    1    2    0  502  0.20465347419E+02 -0.15484089519E+02 -0.17864894684E+03  0.18048277945E+03  0.00000000000E+00 0.  1.
<mgrwt>
<rscale>  2 0.25662959E+02</rscale>
<asrwt>0</asrwt>
<pdfrwt beam="2">  1        2 0.16533441E+00 0.25662959E+02</pdfrwt>
<pdfrwt beam="1">  1       -2 0.16936239E-03 0.25662959E+02</pdfrwt>
<totfact> 0.41898138E+05</totfact>
</mgrwt>
</event>
<event>
 4    1  0.7653521E+003  0.4326285E+02  0.7546771E-02  0.1485487E+00
         -2   -1    0    0    0  501 -0.00000000000E+00  0.00000000000E+00  0.81702999869E+02  0.81702999869E+02  0.00000000000E+00 0.  1.
          2   -1    0    0  501    0  0.00000000000E+00 -0.00000000000E+00 -0.17530135209E+03  0.17530135209E+03  0.00000000000E+00 0.  1.
          2    1    1    2  502    0  0.19543429433E+02  0.38596997789E+02 -0.16661122198E+03  0.17213649573E+03  0.00000000000E+00 0.  1.
         -2    1    1    2    0  502 -0.19543429433E+02 -0.38596997789E+02  0.73012869754E+02  0.84867856235E+02  0.00000000000E+00 0.  1.
<mgrwt>
<rscale>  2 0.43262846E+02</rscale>
<asrwt>0</asrwt>
<pdfrwt beam="2">  1        2 0.26969438E-01 0.43262846E+02</pdfrwt>
<pdfrwt beam="1">  1       -2 0.12569693E-01 0.43262846E+02</pdfrwt>
<totfact> 0.77079951E+03</totfact>
</mgrwt>
</event>
<event>
 4    1  0.7653521E+003  0.2294362E+02  0.7546771E-02  0.1692426E+00
         -2   -1    0    0    0  501 -0.00000000000E+00  0.00000000000E+00  0.32050283224E+03  0.32050283224E+03  0.00000000000E+00 0. -1.
          2   -1    0    0  501    0  0.00000000000E+00 -0.00000000000E+00 -0.10338796413E+02  0.10338796413E+02  0.00000000000E+00 0.  1.
          2    1    1    2  502    0 -0.15827981156E+02  0.16609778148E+02  0.33687403837E+01  0.23189612531E+02  0.00000000000E+00 0.  1.
         -2    1    1    2    0  502  0.15827981156E+02 -0.16609778148E+02  0.30679529544E+03  0.30765201612E+03  0.00000000000E+00 0. -1.
<mgrwt>
<rscale>  2 0.22943620E+02</rscale>
<asrwt>0</asrwt>
<pdfrwt beam="2">  1        2 0.15905843E-02 0.22943620E+02</pdfrwt>
<pdfrwt beam="1">  1       -2 0.49308121E-01 0.22943620E+02</pdfrwt>
<totfact> 0.20370972E+04</totfact>
</mgrwt>
</event>
<event>
 4    1  0.7653521E+003  0.2255137E+02  0.7546771E-02  0.1698887E+00
          2   -1    0    0  501    0  0.00000000000E+00  0.00000000000E+00  0.12924677815E+03  0.12924677815E+03  0.00000000000E+00 0. -1.
         -2   -1    0    0    0  501 -0.00000000000E+00 -0.00000000000E+00 -0.41587121072E+01  0.41587121072E+01  0.00000000000E+00 0.  1.
          2    1    1    2  502    0 -0.12634160730E+02 -0.18679985929E+02  0.47067433817E+02  0.52191064539E+02  0.00000000000E+00 0. -1.
         -2    1    1    2    0  502  0.12634160730E+02  0.18679985929E+02  0.78020632224E+02  0.81214425715E+02  0.00000000000E+00 0.  1.
<mgrwt>
<rscale>  2 0.22551372E+02</rscale>
<asrwt>0</asrwt>
<pdfrwt beam="1">  1        2 0.19884117E-01 0.22551372E+02</pdfrwt>
<pdfrwt beam="2">  1       -2 0.63980196E-03 0.22551372E+02</pdfrwt>
<totfact> 0.63109834E+05</totfact>
</mgrwt>
</event>
<event>
 4    1  0.7653521E+003  0.2025555E+02  0.7546771E-02  0.1740293E+00
         -2   -1    0    0    0  501 -0.00000000000E+00  0.00000000000E+00  0.26867630214E+00  0.26867630214E+00  0.00000000000E+00 0.  1.
          2   -1    0    0  501    0  0.00000000000E+00 -0.00000000000E+00 -0.18383631900E+04  0.18383631900E+04  0.00000000000E+00 0.  1.
          2    1    1    2  502    0  0.15435875260E+02  0.13115675582E+02 -0.12973459103E+04  0.12975040262E+04  0.00000000000E+00 0.  1.
         -2    1    1    2    0  502 -0.15435875260E+02 -0.13115675582E+02 -0.54074860343E+03  0.54112784008E+03  0.00000000000E+00 0.  1.
<mgrwt>
<rscale>  2 0.20255547E+02</rscale>
<asrwt>0</asrwt>
<pdfrwt beam="2">  1        2 0.28281669E+00 0.20255547E+02</pdfrwt>
<pdfrwt beam="1">  1       -2 0.41336045E-04 0.20255547E+02</pdfrwt>
<totfact> 0.10786084E+06</totfact>
</mgrwt>
</event>
<event>
 4    1  0.7653521E+003  0.2016700E+02  0.7546771E-02  0.1742027E+00
          2   -1    0    0  501    0  0.00000000000E+00  0.00000000000E+00  0.14741246992E+02  0.14741246992E+02  0.00000000000E+00 0. -1.
         -2   -1    0    0    0  501 -0.00000000000E+00 -0.00000000000E+00 -0.62920349330E+02  0.62920349330E+02  0.00000000000E+00 0. -1.
          2    1    1    2  502    0 -0.42825492459E+01 -0.19707049147E+02  0.50079683031E+01  0.20779503379E+02  0.00000000000E+00 0. -1.
         -2    1    1    2    0  502  0.42825492459E+01  0.19707049147E+02 -0.53187070641E+02  0.56882092943E+02  0.00000000000E+00 0. -1.
<mgrwt>
<rscale>  2 0.20167003E+02</rscale>
<asrwt>0</asrwt>
<pdfrwt beam="1">  1        2 0.22678842E-02 0.20167003E+02</pdfrwt>
<pdfrwt beam="2">  1       -2 0.96800537E-02 0.20167003E+02</pdfrwt>
<totfact> 0.18291660E+05</totfact>
</mgrwt>
</event>
<event>
 4    1  0.7653521E+003  0.2908204E+02  0.7546771E-02  0.1608463E+00
          2   -1    0    0  501    0  0.00000000000E+00  0.00000000000E+00  0.34388319035E+03  0.34388319035E+03  0.00000000000E+00 0.  1.
         -2   -1    0    0    0  501 -0.00000000000E+00 -0.00000000000E+00 -0.84927447004E+01  0.84927447004E+01  0.00000000000E+00 0.  1.
          2    1    1    2  502    0 -0.28173476859E+02 -0.72124953229E+01  0.31619620871E+03  0.31753079739E+03  0.00000000000E+00 0.  1.
         -2    1    1    2    0  502  0.28173476859E+02  0.72124953229E+01  0.19194236942E+02  0.34845137665E+02  0.00000000000E+00 0.  1.
<mgrwt>
<rscale>  2 0.29082037E+02</rscale>
<asrwt>0</asrwt>
<pdfrwt beam="1">  1        2 0.52905095E-01 0.29082037E+02</pdfrwt>
<pdfrwt beam="2">  1       -2 0.13065764E-02 0.29082037E+02</pdfrwt>
<totfact> 0.94852831E+04</totfact>
</mgrwt>
</event>
<event>
 4    1  0.7653521E+003  0.2265185E+02  0.7546771E-02  0.1697216E+00
         -2   -1    0    0    0  501 -0.00000000000E+00  0.00000000000E+00  0.98875560333E+00  0.98875560333E+00  0.00000000000E+00 0. -1.
          2   -1    0    0  501    0  0.00000000000E+00 -0.00000000000E+00 -0.80654463533E+03  0.80654463533E+03  0.00000000000E+00 0. -1.
          2    1    1    2  502    0  0.97629515168E+01 -0.20439935820E+02 -0.64388680990E+03  0.64428513111E+03  0.00000000000E+00 0. -1.
         -2    1    1    2    0  502 -0.97629515168E+01  0.20439935820E+02 -0.16166906983E+03  0.16324825983E+03  0.00000000000E+00 0. -1.
<mgrwt>
<rscale>  2 0.22651848E+02</rscale>
<asrwt>0</asrwt>
<pdfrwt beam="2">  1        2 0.12408387E+00 0.22651848E+02</pdfrwt>
<pdfrwt beam="1">  1       -2 0.15211615E-03 0.22651848E+02</pdfrwt>
<totfact> 0.66119861E+05</totfact>
</mgrwt>
</event>
<event>
 4    1  0.7653521E+003  0.2112530E+02  0.7546771E-02  0.1723834E+00
          2   -1    0    0  501    0  0.00000000000E+00  0.00000000000E+00  0.39689486725E+03  0.39689486725E+03  0.00000000000E+00 0.  1.
         -2   -1    0    0    0  501 -0.00000000000E+00 -0.00000000000E+00 -0.11256024934E+01  0.11256024934E+01  0.00000000000E+00 0.  1.
          2    1    1    2  502    0 -0.12229852743E+02 -0.17225237345E+02  0.20432414800E+03  0.20541332857E+03  0.00000000000E+00 0.  1.
         -2    1    1    2    0  502  0.12229852743E+02  0.17225237345E+02  0.19144511675E+03  0.19260714117E+03  0.00000000000E+00 0.  1.
<mgrwt>
<rscale>  2 0.21125295E+02</rscale>
<asrwt>0</asrwt>
<pdfrwt beam="1">  1        2 0.61060637E-01 0.21125295E+02</pdfrwt>
<pdfrwt beam="2">  1       -2 0.17316993E-03 0.21125295E+02</pdfrwt>
<totfact> 0.11379562E+06</totfact>
</mgrwt>
</event>
<event>
 4    1  0.7653521E+003  0.3705079E+02  0.7546771E-02  0.1531108E+00
         -2   -1    0    0    0  501 -0.00000000000E+00  0.00000000000E+00  0.47087358043E+01  0.47087358043E+01  0.00000000000E+00 0.  1.
          2   -1    0    0  501    0  0.00000000000E+00 -0.00000000000E+00 -0.98604110997E+03  0.98604110997E+03  0.00000000000E+00 0.  1.
          2    1    1    2  502    0 -0.29131881673E+01  0.36936084604E+02 -0.90640881882E+03  0.90716575544E+03  0.00000000000E+00 0.  1.
         -2    1    1    2    0  502  0.29131881673E+01 -0.36936084604E+02 -0.74923555349E+02  0.83584090336E+02  0.00000000000E+00 0.  1.
<mgrwt>
<rscale>  2 0.37050790E+02</rscale>
<asrwt>0</asrwt>
<pdfrwt beam="2">  1        2 0.15169854E+00 0.37050790E+02</pdfrwt>
<pdfrwt beam="1">  1       -2 0.72442132E-03 0.37050790E+02</pdfrwt>
<totfact> 0.71199059E+04</totfact>
</mgrwt>
</event>
<event>
 4    1  0.7653521E+003  0.2955835E+02  0.7546771E-02  0.1603022E+00
          2   -1    0    0  501    0  0.00000000000E+00  0.00000000000E+00  0.12295310693E+02  0.12295310693E+02  0.00000000000E+00 0.  1.
         -2   -1    0    0    0  501 -0.00000000000E+00 -0.00000000000E+00 -0.18065255878E+03  0.18065255878E+03  0.00000000000E+00 0. -1.
          2    1    1    2  502    0 -0.27995821049E+02 -0.94831602444E+01 -0.90371294837E+01  0.30908996000E+02  0.00000000000E+00 0.  1.
         -2    1    1    2    0  502  0.27995821049E+02  0.94831602444E+01 -0.15932011860E+03  0.16203887347E+03  0.00000000000E+00 0. -1.
<mgrwt>
<rscale>  2 0.29558355E+02</rscale>
<asrwt>0</asrwt>
<pdfrwt beam="1">  1        2 0.18915862E-02 0.29558355E+02</pdfrwt>
<pdfrwt beam="2">  1       -2 0.27792703E-01 0.29558355E+02</pdfrwt>
<totfact> 0.48177869E+04</totfact>
</mgrwt>
</event>
<event>
 4    1  0.7653521E+003  0.3405045E+02  0.7546771E-02  0.1557198E+00
         -2   -1    0    0    0  501 -0.00000000000E+00  0.00000000000E+00  0.52456180171E+01  0.52456180171E+01  0.00000000000E+00 0.  1.
          2   -1    0    0  501    0  0.00000000000E+00 -0.00000000000E+00 -0.23852881338E+03  0.23852881338E+03  0.00000000000E+00 0. -1.
          2    1    1    2  502    0  0.85249826463E+00  0.34039777335E+02 -0.14965616795E+03  0.15348094931E+03  0.00000000000E+00 0. -1.
         -2    1    1    2    0  502 -0.85249826463E+00 -0.34039777335E+02 -0.83627027415E+02  0.90293482094E+02  0.00000000000E+00 0.  1.
<mgrwt>
<rscale>  2 0.34050451E+02</rscale>
<asrwt>0</asrwt>
<pdfrwt beam="2">  1        2 0.36696742E-01 0.34050451E+02</pdfrwt>
<pdfrwt beam="1">  1       -2 0.80701813E-03 0.34050451E+02</pdfrwt>
<totfact> 0.27447397E+05</totfact>
</mgrwt>
</event>
<event>
 4    1  0.7653521E+003  0.2711358E+02  0.7546771E-02  0.1632377E+00
         -2   -1    0    0    0  501 -0.00000000000E+00  0.00000000000E+00  0.70464949199E+01  0.70464949199E+01  0.00000000000E+00 0.  1.
          2   -1    0    0  501    0  0.00000000000E+00 -0.00000000000E+00 -0.12119016721E+03  0.12119016721E+03  0.00000000000E+00 0.  1.
          2    1    1    2  502    0 -0.10115568344E+02  0.25155944419E+02 -0.80988800300E+02  0.85406861765E+02  0.00000000000E+00 0.  1.
         -2    1    1    2    0  502  0.10115568344E+02 -0.25155944419E+02 -0.33154871986E+02  0.42829800360E+02  0.00000000000E+00 0.  1.
<mgrwt>
<rscale>  2 0.27113581E+02</rscale>
<asrwt>0</asrwt>
<pdfrwt beam="2">  1        2 0.18644641E-01 0.27113581E+02</pdfrwt>
<pdfrwt beam="1">  1       -2 0.10840762E-02 0.27113581E+02</pdfrwt>
<totfact> 0.34995165E+05</totfact>
</mgrwt>
</event>
<event>
 4    1  0.7653521E+003  0.3075339E+02  0.7546771E-02  0.1589907E+00
         -2   -1    0    0    0  501 -0.00000000000E+00  0.00000000000E+00  0.90922770633E+00  0.90922770633E+00  0.00000000000E+00 0.  1.
          2   -1    0    0  501    0  0.00000000000E+00 -0.00000000000E+00 -0.13889165613E+04  0.13889165613E+04  0.00000000000E+00 0. -1.
          2    1    1    2  502    0 -0.11696610710E+02 -0.28442232506E+02 -0.10422075619E+04  0.10426611978E+04  0.00000000000E+00 0. -1.
         -2    1    1    2    0  502  0.11696610710E+02  0.28442232506E+02 -0.34579977168E+03  0.34716459120E+03  0.00000000000E+00 0.  1.
<mgrwt>
<rscale>  2 0.30753395E+02</rscale>
<asrwt>0</asrwt>
<pdfrwt beam="2">  1        2 0.21367955E+00 0.30753395E+02</pdfrwt>
<pdfrwt beam="1">  1       -2 0.13988114E-03 0.30753395E+02</pdfrwt>
<totfact> 0.39168100E+05</totfact>
</mgrwt>
</event>
<event>
 4    1  0.7653521E+003  0.6262099E+02  0.7546771E-02  0.1387151E+00
         -2   -1    0    0    0  501 -0.00000000000E+00  0.00000000000E+00  0.25118858415E+01  0.25118858415E+01  0.00000000000E+00 0. -1.
          2   -1    0    0  501    0  0.00000000000E+00 -0.00000000000E+00 -0.19451679106E+04  0.19451679106E+04  0.00000000000E+00 0.  1.
          2    1    1    2  502    0  0.54385013914E+02  0.31042847284E+02 -0.14040354072E+04  0.14054311839E+04  0.00000000000E+00 0.  1.
         -2    1    1    2    0  502 -0.54385013914E+02 -0.31042847284E+02 -0.53862061756E+03  0.54224861251E+03  0.00000000000E+00 0. -1.
<mgrwt>
<rscale>  2 0.62620988E+02</rscale>
<asrwt>0</asrwt>
<pdfrwt beam="2">  1        2 0.29925599E+00 0.62620988E+02</pdfrwt>
<pdfrwt beam="1">  1       -2 0.38644476E-03 0.62620988E+02</pdfrwt>
<totfact> 0.59279687E+04</totfact>
</mgrwt>
</event>
<event>
 4    1  0.7653521E+003  0.2516299E+02  0.7546771E-02  0.1658672E+00
          2   -1    0    0  501    0  0.00000000000E+00  0.00000000000E+00  0.13835062038E+04  0.13835062038E+04  0.00000000000E+00 0. -1.
         -2   -1    0    0    0  501 -0.00000000000E+00 -0.00000000000E+00 -0.28018298388E+01  0.28018298388E+01  0.00000000000E+00 0. -1.
          2    1    1    2  502    0  0.48538242195E+01  0.24690410751E+02  0.13243727840E+04  0.13246118099E+04  0.00000000000E+00 0. -1.
         -2    1    1    2    0  502 -0.48538242195E+01 -0.24690410751E+02  0.56331589922E+02  0.61696223675E+02  0.00000000000E+00 0. -1.
<mgrwt>
<rscale>  2 0.25162989E+02</rscale>
<asrwt>0</asrwt>
<pdfrwt beam="1">  1        2 0.21284656E+00 0.25162989E+02</pdfrwt>
<pdfrwt beam="2">  1       -2 0.43105185E-03 0.25162989E+02</pdfrwt>
<totfact> 0.83882183E+04</totfact>
</mgrwt>
</event>
<event>
 4    1  0.7653521E+003  0.2673516E+02  0.7546771E-02  0.1637261E+00
          2   -1    0    0  501    0  0.00000000000E+00  0.00000000000E+00  0.10400123567E+04  0.10400123567E+04  0.00000000000E+00 0.  1.
         -2   -1    0    0    0  501 -0.00000000000E+00 -0.00000000000E+00 -0.16137556291E+01  0.16137556291E+01  0.00000000000E+00 0.  1.
          2    1    1    2  502    0 -0.26509190180E+02 -0.34686698669E+01  0.91382232857E+03  0.91421333234E+03  0.00000000000E+00 0.  1.
         -2    1    1    2    0  502  0.26509190180E+02  0.34686698669E+01  0.12457627254E+03  0.12741278003E+03  0.00000000000E+00 0.  1.
<mgrwt>
<rscale>  2 0.26735161E+02</rscale>
<asrwt>0</asrwt>
<pdfrwt beam="1">  1        2 0.16000137E+00 0.26735161E+02</pdfrwt>
<pdfrwt beam="2">  1       -2 0.24827093E-03 0.26735161E+02</pdfrwt>
<totfact> 0.26528599E+05</totfact>
</mgrwt>
</event>
<event>
 4    1  0.7653521E+003  0.2012932E+02  0.7546771E-02  0.1742769E+00
          2   -1    0    0  501    0  0.00000000000E+00  0.00000000000E+00  0.64897253471E+02  0.64897253471E+02  0.00000000000E+00 0.  1.
         -2   -1    0    0    0  501 -0.00000000000E+00 -0.00000000000E+00 -0.81571802155E+01  0.81571802155E+01  0.00000000000E+00 0.  1.
          2    1    1    2  502    0  0.70140376853E+01 -0.18867768195E+02  0.46061969957E+02  0.50268225328E+02  0.00000000000E+00 0.  1.
         -2    1    1    2    0  502 -0.70140376853E+01  0.18867768195E+02  0.10678103298E+02  0.22786208358E+02  0.00000000000E+00 0.  1.
<mgrwt>
<rscale>  2 0.20129317E+02</rscale>
<asrwt>0</asrwt>
<pdfrwt beam="1">  1        2 0.99841925E-02 0.20129317E+02</pdfrwt>
<pdfrwt beam="2">  1       -2 0.12549508E-02 0.20129317E+02</pdfrwt>
<totfact> 0.52476660E+05</totfact>
</mgrwt>
</event>
<event>
 4    1  0.7653521E+003  0.2896127E+02  0.7546771E-02  0.1609863E+00
         -2   -1    0    0    0  501 -0.00000000000E+00  0.00000000000E+00  0.22284722554E+01  0.22284722554E+01  0.00000000000E+00 0. -1.
          2   -1    0    0  501    0  0.00000000000E+00 -0.00000000000E+00 -0.46737827031E+03  0.46737827031E+03  0.00000000000E+00 0. -1.
          2    1    1    2  502    0  0.28483269211E+02 -0.52400994589E+01 -0.33618057643E+03  0.33742574773E+03  0.00000000000E+00 0. -1.
         -2    1    1    2    0  502 -0.28483269211E+02  0.52400994589E+01 -0.12896922162E+03  0.13218099483E+03  0.00000000000E+00 0. -1.
<mgrwt>
<rscale>  2 0.28961272E+02</rscale>
<asrwt>0</asrwt>
<pdfrwt beam="2">  1        2 0.71904394E-01 0.28961272E+02</pdfrwt>
<pdfrwt beam="1">  1       -2 0.34284167E-03 0.28961272E+02</pdfrwt>
<totfact> 0.42799569E+05</totfact>
</mgrwt>
</event>
<event>
 4    1  0.7653521E+003  0.2104020E+02  0.7546771E-02  0.1725400E+00
         -2   -1    0    0    0  501 -0.00000000000E+00  0.00000000000E+00  0.12111466385E+01  0.12111466385E+01  0.00000000000E+00 0. -1.
          2   -1    0    0  501    0  0.00000000000E+00 -0.00000000000E+00 -0.80734600741E+03  0.80734600741E+03  0.00000000000E+00 0. -1.
          2    1    1    2  502    0  0.18705428074E+01 -0.20956884548E+02 -0.70214229565E+03  0.70245746724E+03  0.00000000000E+00 0. -1.
         -2    1    1    2    0  502 -0.18705428074E+01  0.20956884548E+02 -0.10399256512E+03  0.10609968681E+03  0.00000000000E+00 0. -1.
<mgrwt>
<rscale>  2 0.21040198E+02</rscale>
<asrwt>0</asrwt>
<pdfrwt beam="2">  1        2 0.12420749E+00 0.21040198E+02</pdfrwt>
<pdfrwt beam="1">  1       -2 0.18632963E-03 0.21040198E+02</pdfrwt>
<totfact> 0.49454361E+05</totfact>
</mgrwt>
</event>
<event>
 4    1  0.7653521E+003  0.2082664E+02  0.7546771E-02  0.1729372E+00
          2   -1    0    0  501    0  0.00000000000E+00  0.00000000000E+00  0.16417233478E+02  0.16417233478E+02  0.00000000000E+00 0. -1.
         -2   -1    0    0    0  501 -0.00000000000E+00 -0.00000000000E+00 -0.36325766434E+03  0.36325766434E+03  0.00000000000E+00 0. -1.
          2    1    1    2  502    0  0.20371914048E+02  0.43282875814E+01  0.93833229890E+01  0.22842848020E+02  0.00000000000E+00 0. -1.
         -2    1    1    2    0  502 -0.20371914048E+02 -0.43282875814E+01 -0.35622375385E+03  0.35683204980E+03  0.00000000000E+00 0. -1.
<mgrwt>
<rscale>  2 0.20826641E+02</rscale>
<asrwt>0</asrwt>
<pdfrwt beam="1">  1        2 0.25257283E-02 0.20826641E+02</pdfrwt>
<pdfrwt beam="2">  1       -2 0.55885794E-01 0.20826641E+02</pdfrwt>
<totfact> 0.87013738E+03</totfact>
</mgrwt>
</event>
<event>
 4    1  0.7653521E+003  0.6092414E+02  0.7546771E-02  0.1393994E+00
         -2   -1    0    0    0  501 -0.00000000000E+00  0.00000000000E+00  0.52614288636E+02  0.52614288636E+02  0.00000000000E+00 0.  1.
          2   -1    0    0  501    0  0.00000000000E+00 -0.00000000000E+00 -0.71047951508E+02  0.71047951508E+02  0.00000000000E+00 0.  1.
          2    1    1    2  502    0  0.54278777799E+02  0.27668846267E+02 -0.14411665114E+02  0.62605485897E+02  0.00000000000E+00 0.  1.
         -2    1    1    2    0  502 -0.54278777799E+02 -0.27668846267E+02 -0.40219977584E+01  0.61056754246E+02  0.00000000000E+00 0.  1.
<mgrwt>
<rscale>  2 0.60924139E+02</rscale>
<asrwt>0</asrwt>
<pdfrwt beam="2">  1        2 0.10930454E-01 0.60924139E+02</pdfrwt>
<pdfrwt beam="1">  1       -2 0.80945060E-02 0.60924139E+02</pdfrwt>
<totfact> 0.43379274E+04</totfact>
</mgrwt>
</event>
<event>
 4    1  0.7653521E+003  0.1408620E+03  0.7546771E-02  0.1212174E+00
          2   -1    0    0  501    0  0.00000000000E+00  0.00000000000E+00  0.69525193937E+03  0.69525193937E+03  0.00000000000E+00 0.  1.
         -2   -1    0    0    0  501 -0.00000000000E+00 -0.00000000000E+00 -0.28647710304E+02  0.28647710304E+02  0.00000000000E+00 0. -1.
          2    1    1    2  502    0 -0.11239821541E+03 -0.84904277413E+02  0.31104981015E+03  0.34145875234E+03  0.00000000000E+00 0.  1.
         -2    1    1    2    0  502  0.11239821541E+03  0.84904277413E+02  0.35555441891E+03  0.38244089734E+03  0.00000000000E+00 0. -1.
<mgrwt>
<rscale>  2 0.14086204E+03</rscale>
<asrwt>0</asrwt>
<pdfrwt beam="1">  1        2 0.10696182E+00 0.14086204E+03</pdfrwt>
<pdfrwt beam="2">  1       -2 0.44073406E-02 0.14086204E+03</pdfrwt>
<totfact> 0.96376058E+03</totfact>
</mgrwt>
</event>
<event>
 4    1  0.7653521E+003  0.2343938E+02  0.7546771E-02  0.1684485E+00
         -2   -1    0    0    0  501 -0.00000000000E+00  0.00000000000E+00  0.13588016321E+01  0.13588016321E+01  0.00000000000E+00 0. -1.
          2   -1    0    0  501    0  0.00000000000E+00 -0.00000000000E+00 -0.66233802687E+03  0.66233802687E+03  0.00000000000E+00 0.  1.
          2    1    1    2  502    0 -0.23033073752E+02 -0.43453363736E+01 -0.53760692632E+03  0.53811765597E+03  0.00000000000E+00 0.  1.
         -2    1    1    2    0  502  0.23033073752E+02  0.43453363736E+01 -0.12337229891E+03  0.12557917253E+03  0.00000000000E+00 0. -1.
<mgrwt>
<rscale>  2 0.23439378E+02</rscale>
<asrwt>0</asrwt>
<pdfrwt beam="2">  1        2 0.10189816E+00 0.23439378E+02</pdfrwt>
<pdfrwt beam="1">  1       -2 0.20904640E-03 0.23439378E+02</pdfrwt>
<totfact> 0.54450513E+05</totfact>
</mgrwt>
</event>
<event>
 4    1  0.7653521E+003  0.2334015E+02  0.7546771E-02  0.1686055E+00
         -2   -1    0    0    0  501 -0.00000000000E+00  0.00000000000E+00  0.29827275346E+02  0.29827275346E+02  0.00000000000E+00 0.  1.
          2   -1    0    0  501    0  0.00000000000E+00 -0.00000000000E+00 -0.43654803555E+03  0.43654803555E+03  0.00000000000E+00 0.  1.
          2    1    1    2  502    0 -0.23081945926E+02 -0.34621236605E+01 -0.43161797175E+03  0.43224858134E+03  0.00000000000E+00 0.  1.
         -2    1    1    2    0  502  0.23081945926E+02  0.34621236605E+01  0.24897211545E+02  0.34126729563E+02  0.00000000000E+00 0.  1.
<mgrwt>
<rscale>  2 0.23340148E+02</rscale>
<asrwt>0</asrwt>
<pdfrwt beam="2">  1        2 0.67161230E-01 0.23340148E+02</pdfrwt>
<pdfrwt beam="1">  1       -2 0.45888120E-02 0.23340148E+02</pdfrwt>
<totfact> 0.12558696E+04</totfact>
</mgrwt>
</event>
<event>
 4    1  0.7653521E+003  0.2097684E+02  0.7546771E-02  0.1726572E+00
         -2   -1    0    0    0  501 -0.00000000000E+00  0.00000000000E+00  0.13886583026E+03  0.13886583026E+03  0.00000000000E+00 0. -1.
          2   -1    0    0  501    0  0.00000000000E+00 -0.00000000000E+00 -0.27195167296E+03  0.27195167296E+03  0.00000000000E+00 0.  1.
          2    1    1    2  502    0 -0.26100257971E+01 -0.20813827286E+02 -0.27075147629E+03  0.27156286483E+03  0.00000000000E+00 0.  1.
         -2    1    1    2    0  502  0.26100257971E+01  0.20813827286E+02  0.13766563359E+03  0.13925463839E+03  0.00000000000E+00 0. -1.
<mgrwt>
<rscale>  2 0.20976836E+02</rscale>
<asrwt>0</asrwt>
<pdfrwt beam="2">  1        2 0.41838719E-01 0.20976836E+02</pdfrwt>
<pdfrwt beam="1">  1       -2 0.21363974E-01 0.20976836E+02</pdfrwt>
<totfact> 0.19769443E+03</totfact>
</mgrwt>
</event>
<event>
 4    1  0.7653521E+003  0.5807552E+02  0.7546771E-02  0.1406090E+00
          2   -1    0    0  501    0  0.00000000000E+00  0.00000000000E+00  0.76769345980E+03  0.76769345980E+03  0.00000000000E+00 0.  1.
         -2   -1    0    0    0  501 -0.00000000000E+00 -0.00000000000E+00 -0.78549121654E+02  0.78549121654E+02  0.00000000000E+00 0. -1.
          2    1    1    2  502    0  0.55454913675E+02  0.17248709991E+02  0.75569028801E+03  0.75791858194E+03  0.00000000000E+00 0.  1.
         -2    1    1    2    0  502 -0.55454913675E+02 -0.17248709991E+02 -0.66545949867E+02  0.88323999517E+02  0.00000000000E+00 0. -1.
<mgrwt>
<rscale>  2 0.58075515E+02</rscale>
<asrwt>0</asrwt>
<pdfrwt beam="1">  1        2 0.11810668E+00 0.58075515E+02</pdfrwt>
<pdfrwt beam="2">  1       -2 0.12084481E-01 0.58075515E+02</pdfrwt>
<totfact> 0.17691781E+03</totfact>
</mgrwt>
</event>
<event>
 4    1  0.7653521E+003  0.3607689E+02  0.7546771E-02  0.1539240E+00
         -2   -1    0    0    0  501 -0.00000000000E+00  0.00000000000E+00  0.24814643780E+03  0.24814643780E+03  0.00000000000E+00 0.  1.
          2   -1    0    0  501    0  0.00000000000E+00 -0.00000000000E+00 -0.72331166532E+01  0.72331166532E+01  0.00000000000E+00 0. -1.
          2    1    1    2  502    0 -0.35639337450E+02 -0.56017265273E+01  0.53513175337E+02  0.64538373458E+02  0.00000000000E+00 0. -1.
         -2    1    1    2    0  502  0.35639337450E+02  0.56017265273E+01  0.18740014581E+03  0.19084118100E+03  0.00000000000E+00 0.  1.
<mgrwt>
<rscale>  2 0.36076886E+02</rscale>
<asrwt>0</asrwt>
<pdfrwt beam="2">  1        2 0.11127874E-02 0.36076886E+02</pdfrwt>
<pdfrwt beam="1">  1       -2 0.38176369E-01 0.36076886E+02</pdfrwt>
<totfact> 0.57690244E+04</totfact>
</mgrwt>
</event>
<event>
 4    1  0.7653521E+003  0.3864927E+02  0.7546771E-02  0.1518393E+00
         -2   -1    0    0    0  501 -0.00000000000E+00  0.00000000000E+00  0.31500740021E+02  0.31500740021E+02  0.00000000000E+00 0.  1.
          2   -1    0    0  501    0  0.00000000000E+00 -0.00000000000E+00 -0.74182072460E+02  0.74182072460E+02  0.00000000000E+00 0. -1.
          2    1    1    2  502    0  0.37865979960E+02 -0.77416895481E+01 -0.53079025529E+02  0.65659341654E+02  0.00000000000E+00 0. -1.
         -2    1    1    2    0  502 -0.37865979960E+02  0.77416895481E+01  0.10397693090E+02  0.40023470826E+02  0.00000000000E+00 0.  1.
<mgrwt>
<rscale>  2 0.38649272E+02</rscale>
<asrwt>0</asrwt>
<pdfrwt beam="2">  1        2 0.11412626E-01 0.38649272E+02</pdfrwt>
<pdfrwt beam="1">  1       -2 0.48462677E-02 0.38649272E+02</pdfrwt>
<totfact> 0.81205345E+04</totfact>
</mgrwt>
</event>
<event>
 4    1  0.7653521E+003  0.2838078E+02  0.7546771E-02  0.1616709E+00
         -2   -1    0    0    0  501 -0.00000000000E+00  0.00000000000E+00  0.73545155942E+00  0.73545155942E+00  0.00000000000E+00 0.  1.
          2   -1    0    0  501    0  0.00000000000E+00 -0.00000000000E+00 -0.17200176084E+04  0.17200176084E+04  0.00000000000E+00 0.  1.
          2    1    1    2  502    0 -0.56246729849E+01 -0.27817829759E+02 -0.13781995927E+04  0.13784917794E+04  0.00000000000E+00 0.  1.
         -2    1    1    2    0  502  0.56246729849E+01  0.27817829759E+02 -0.34108256417E+03  0.34226128057E+03  0.00000000000E+00 0.  1.
<mgrwt>
<rscale>  2 0.28380779E+02</rscale>
<asrwt>0</asrwt>
<pdfrwt beam="2">  1        2 0.26461784E+00 0.28380779E+02</pdfrwt>
<pdfrwt beam="1">  1       -2 0.11314650E-03 0.28380779E+02</pdfrwt>
<totfact> 0.35447759E+05</totfact>
</mgrwt>
</event>
<event>
 4    1  0.7653521E+003  0.2421625E+02  0.7546771E-02  0.1672521E+00
         -2   -1    0    0    0  501 -0.00000000000E+00  0.00000000000E+00  0.19450860551E+02  0.19450860551E+02  0.00000000000E+00 0.  1.
          2   -1    0    0  501    0  0.00000000000E+00 -0.00000000000E+00 -0.89005036597E+03  0.89005036597E+03  0.00000000000E+00 0.  1.
          2    1    1    2  502    0  0.23002941303E+02  0.75691066773E+01 -0.88228201201E+03  0.88261428461E+03  0.00000000000E+00 0.  1.
         -2    1    1    2    0  502 -0.23002941303E+02 -0.75691066773E+01  0.11682506597E+02  0.26886941903E+02  0.00000000000E+00 0.  1.
<mgrwt>
<rscale>  2 0.24216248E+02</rscale>
<asrwt>0</asrwt>
<pdfrwt beam="2">  1        2 0.13693079E+00 0.24216248E+02</pdfrwt>
<pdfrwt beam="1">  1       -2 0.29924409E-02 0.24216248E+02</pdfrwt>
<totfact> 0.10758488E+04</totfact>
</mgrwt>
</event>
<event>
 4    1  0.7653521E+003  0.2526152E+02  0.7546771E-02  0.1657274E+00
          2   -1    0    0  501    0  0.00000000000E+00  0.00000000000E+00  0.41142887501E+03  0.41142887501E+03  0.00000000000E+00 0.  1.
         -2   -1    0    0    0  501 -0.00000000000E+00 -0.00000000000E+00 -0.40846505247E+03  0.40846505247E+03  0.00000000000E+00 0.  1.
          2    1    1    2  502    0 -0.17293818982E+02  0.18413798429E+02  0.41064979930E+03  0.41142605874E+03  0.00000000000E+00 0.  1.
         -2    1    1    2    0  502  0.17293818982E+02 -0.18413798429E+02 -0.40768597676E+03  0.40846786874E+03  0.00000000000E+00 0.  1.
<mgrwt>
<rscale>  2 0.25261515E+02</rscale>
<asrwt>0</asrwt>
<pdfrwt beam="1">  1        2 0.63296750E-01 0.25261515E+02</pdfrwt>
<pdfrwt beam="2">  1       -2 0.62840777E-01 0.25261515E+02</pdfrwt>
<totfact> 0.19191115E+02</totfact>
</mgrwt>
</event>
<event>
 4    1  0.7653521E+003  0.2508258E+02  0.7546771E-02  0.1659819E+00
         -2   -1    0    0    0  501 -0.00000000000E+00  0.00000000000E+00  0.18995267316E+02  0.18995267316E+02  0.00000000000E+00 0.  1.
          2   -1    0    0  501    0  0.00000000000E+00 -0.00000000000E+00 -0.56694539992E+03  0.56694539992E+03  0.00000000000E+00 0.  1.
          2    1    1    2  502    0  0.83617842649E+01 -0.23647757332E+02 -0.55825903827E+03  0.55882223441E+03  0.00000000000E+00 0.  1.
         -2    1    1    2    0  502 -0.83617842649E+01  0.23647757332E+02  0.10308905664E+02  0.27118432826E+02  0.00000000000E+00 0.  1.
<mgrwt>
<rscale>  2 0.25082581E+02</rscale>
<asrwt>0</asrwt>
<pdfrwt beam="2">  1        2 0.87222362E-01 0.25082581E+02</pdfrwt>
<pdfrwt beam="1">  1       -2 0.29223490E-02 0.25082581E+02</pdfrwt>
<totfact> 0.18346490E+04</totfact>
</mgrwt>
</event>
<event>
 4    1  0.7653521E+003  0.2223944E+02  0.7546771E-02  0.1704144E+00
         -2   -1    0    0    0  501 -0.00000000000E+00  0.00000000000E+00  0.14377861866E+01  0.14377861866E+01  0.00000000000E+00 0.  1.
          2   -1    0    0  501    0  0.00000000000E+00 -0.00000000000E+00 -0.76737054433E+03  0.76737054433E+03  0.00000000000E+00 0.  1.
          2    1    1    2  502    0 -0.14020239965E+02 -0.17263419177E+02 -0.66849382957E+03  0.66886365796E+03  0.00000000000E+00 0.  1.
         -2    1    1    2    0  502  0.14020239965E+02  0.17263419177E+02 -0.97438928580E+02  0.99944672560E+02  0.00000000000E+00 0.  1.
<mgrwt>
<rscale>  2 0.22239442E+02</rscale>
<asrwt>0</asrwt>
<pdfrwt beam="2">  1        2 0.11805722E+00 0.22239442E+02</pdfrwt>
<pdfrwt beam="1">  1       -2 0.22119748E-03 0.22239442E+02</pdfrwt>
<totfact> 0.42394553E+05</totfact>
</mgrwt>
</event>
<event>
 4    1  0.7653521E+003  0.2108837E+02  0.7546771E-02  0.1724512E+00
          2   -1    0    0  501    0  0.00000000000E+00  0.00000000000E+00  0.93976841288E+03  0.93976841288E+03  0.00000000000E+00 0. -1.
         -2   -1    0    0    0  501 -0.00000000000E+00 -0.00000000000E+00 -0.11071158745E+02  0.11071158745E+02  0.00000000000E+00 0. -1.
          2    1    1    2  502    0  0.75800400074E+01 -0.19678977135E+02  0.92949685768E+03  0.92973605264E+03  0.00000000000E+00 0. -1.
         -2    1    1    2    0  502 -0.75800400074E+01  0.19678977135E+02 -0.79960354455E+00  0.21103518982E+02  0.00000000000E+00 0. -1.
<mgrwt>
<rscale>  2 0.21088365E+02</rscale>
<asrwt>0</asrwt>
<pdfrwt beam="1">  1        2 0.14457969E+00 0.21088365E+02</pdfrwt>
<pdfrwt beam="2">  1       -2 0.17032559E-02 0.21088365E+02</pdfrwt>
<totfact> 0.21475131E+04</totfact>
</mgrwt>
</event>
<event>
 4    1  0.7653521E+003  0.2137678E+02  0.7546771E-02  0.1719258E+00
          2   -1    0    0  501    0  0.00000000000E+00  0.00000000000E+00  0.57096797961E+03  0.57096797961E+03  0.00000000000E+00 0. -1.
         -2   -1    0    0    0  501 -0.00000000000E+00 -0.00000000000E+00 -0.31893122065E+02  0.31893122065E+02  0.00000000000E+00 0.  1.
          2    1    1    2  502    0  0.17634332156E+02  0.12082931905E+02  0.56716184777E+03  0.56756455887E+03  0.00000000000E+00 0. -1.
         -2    1    1    2    0  502 -0.17634332156E+02 -0.12082931905E+02 -0.28086990228E+02  0.35296542806E+02  0.00000000000E+00 0.  1.
<mgrwt>
<rscale>  2 0.21376784E+02</rscale>
<asrwt>0</asrwt>
<pdfrwt beam="1">  1        2 0.87841220E-01 0.21376784E+02</pdfrwt>
<pdfrwt beam="2">  1       -2 0.49066346E-02 0.21376784E+02</pdfrwt>
<totfact> 0.86040044E+03</totfact>
</mgrwt>
</event>
<event>
 4    1  0.7653521E+003  0.2094120E+02  0.7546771E-02  0.1727234E+00
         -2   -1    0    0    0  501 -0.00000000000E+00  0.00000000000E+00  0.70535806598E+01  0.70535806598E+01  0.00000000000E+00 0.  1.
          2   -1    0    0  501    0  0.00000000000E+00 -0.00000000000E+00 -0.30907293468E+03  0.30907293468E+03  0.00000000000E+00 0. -1.
          2    1    1    2  502    0  0.48246801777E+01  0.20377838744E+02 -0.29228359114E+03  0.29303281643E+03  0.00000000000E+00 0. -1.
         -2    1    1    2    0  502 -0.48246801777E+01 -0.20377838744E+02 -0.97357628747E+01  0.23093698912E+02  0.00000000000E+00 0.  1.
<mgrwt>
<rscale>  2 0.20941200E+02</rscale>
<asrwt>0</asrwt>
<pdfrwt beam="2">  1        2 0.47549670E-01 0.20941200E+02</pdfrwt>
<pdfrwt beam="1">  1       -2 0.10851665E-02 0.20941200E+02</pdfrwt>
<totfact> 0.12569582E+05</totfact>
</mgrwt>
</event>
<event>
 4    1  0.7653521E+003  0.2578597E+02  0.7546771E-02  0.1649963E+00
         -2   -1    0    0    0  501 -0.00000000000E+00  0.00000000000E+00  0.12122642789E+01  0.12122642789E+01  0.00000000000E+00 0. -1.
          2   -1    0    0  501    0  0.00000000000E+00 -0.00000000000E+00 -0.57376964941E+03  0.57376964941E+03  0.00000000000E+00 0.  1.
          2    1    1    2  502    0  0.13554512640E+02  0.21936073071E+02 -0.34662238115E+03  0.34758019395E+03  0.00000000000E+00 0.  1.
         -2    1    1    2    0  502 -0.13554512640E+02 -0.21936073071E+02 -0.22593500399E+03  0.22740171974E+03  0.00000000000E+00 0. -1.
<mgrwt>
<rscale>  2 0.25785967E+02</rscale>
<asrwt>0</asrwt>
<pdfrwt beam="2">  1        2 0.88272158E-01 0.25785967E+02</pdfrwt>
<pdfrwt beam="1">  1       -2 0.18650240E-03 0.25785967E+02</pdfrwt>
<totfact> 0.75784923E+05</totfact>
</mgrwt>
</event>
<event>
 4    1  0.7653521E+003  0.4027707E+02  0.7546771E-02  0.1506182E+00
          2   -1    0    0  501    0  0.00000000000E+00  0.00000000000E+00  0.16356164575E+03  0.16356164575E+03  0.00000000000E+00 0. -1.
         -2   -1    0    0    0  501 -0.00000000000E+00 -0.00000000000E+00 -0.31408140720E+02  0.31408140720E+02  0.00000000000E+00 0.  1.
          2    1    1    2  502    0 -0.39300515629E+02 -0.88154303302E+01  0.14671359102E+03  0.15214177642E+03  0.00000000000E+00 0. -1.
         -2    1    1    2    0  502  0.39300515629E+02  0.88154303302E+01 -0.14560085996E+02  0.42828010049E+02  0.00000000000E+00 0.  1.
<mgrwt>
<rscale>  2 0.40277070E+02</rscale>
<asrwt>0</asrwt>
<pdfrwt beam="1">  1        2 0.25163330E-01 0.40277070E+02</pdfrwt>
<pdfrwt beam="2">  1       -2 0.48320217E-02 0.40277070E+02</pdfrwt>
<totfact> 0.34254726E+04</totfact>
</mgrwt>
</event>
<event>
 4    1  0.7653521E+003  0.2005256E+02  0.7546771E-02  0.1744285E+00
         -2   -1    0    0    0  501 -0.00000000000E+00  0.00000000000E+00  0.23166045078E+02  0.23166045078E+02  0.00000000000E+00 0.  1.
          2   -1    0    0  501    0  0.00000000000E+00 -0.00000000000E+00 -0.10603481516E+04  0.10603481516E+04  0.00000000000E+00 0.  1.
          2    1    1    2  502    0  0.69233001216E+01 -0.18819487609E+02 -0.10558956689E+04  0.10560860613E+04  0.00000000000E+00 0.  1.
         -2    1    1    2    0  502 -0.69233001216E+01  0.18819487609E+02  0.18713562343E+02  0.27428135446E+02  0.00000000000E+00 0.  1.
<mgrwt>
<rscale>  2 0.20052561E+02</rscale>
<asrwt>0</asrwt>
<pdfrwt beam="2">  1        2 0.16313048E+00 0.20052561E+02</pdfrwt>
<pdfrwt beam="1">  1       -2 0.35640070E-02 0.20052561E+02</pdfrwt>
<totfact> 0.66571052E+03</totfact>
</mgrwt>
</event>
<event>
 4    1  0.7653521E+003  0.2327099E+02  0.7546771E-02  0.1687155E+00
          2   -1    0    0  501    0  0.00000000000E+00  0.00000000000E+00  0.16610620991E+03  0.16610620991E+03  0.00000000000E+00 0. -1.
         -2   -1    0    0    0  501 -0.00000000000E+00 -0.00000000000E+00 -0.12325816719E+03  0.12325816719E+03  0.00000000000E+00 0.  1.
          2    1    1    2  502    0  0.81742204386E+01  0.21788091243E+02  0.16417995492E+03  0.16582097696E+03  0.00000000000E+00 0. -1.
         -2    1    1    2    0  502 -0.81742204386E+01 -0.21788091243E+02 -0.12133191220E+03  0.12354340014E+03  0.00000000000E+00 0.  1.
<mgrwt>
<rscale>  2 0.23270986E+02</rscale>
<asrwt>0</asrwt>
<pdfrwt beam="1">  1        2 0.25554802E-01 0.23270986E+02</pdfrwt>
<pdfrwt beam="2">  1       -2 0.18962795E-01 0.23270986E+02</pdfrwt>
<totfact> 0.39728266E+03</totfact>
</mgrwt>
</event>
<event>
 4    1  0.7653521E+003  0.2032864E+02  0.7546771E-02  0.1738870E+00
         -2   -1    0    0    0  501 -0.00000000000E+00  0.00000000000E+00  0.36420657438E+02  0.36420657438E+02  0.00000000000E+00 0. -1.
          2   -1    0    0  501    0  0.00000000000E+00 -0.00000000000E+00 -0.22248413878E+03  0.22248413878E+03  0.00000000000E+00 0. -1.
          2    1    1    2  502    0 -0.16979703536E+02  0.11177805478E+02 -0.21913990799E+03  0.22008078731E+03  0.00000000000E+00 0. -1.
         -2    1    1    2    0  502  0.16979703536E+02 -0.11177805478E+02  0.33076426653E+02  0.38824008907E+02  0.00000000000E+00 0. -1.
<mgrwt>
<rscale>  2 0.20328642E+02</rscale>
<asrwt>0</asrwt>
<pdfrwt beam="2">  1        2 0.34228329E-01 0.20328642E+02</pdfrwt>
<pdfrwt beam="1">  1       -2 0.56031781E-02 0.20328642E+02</pdfrwt>
<totfact> 0.17977956E+04</totfact>
</mgrwt>
</event>
<event>
 4    1  0.7653521E+003  0.2279145E+02  0.7546771E-02  0.1694913E+00
         -2   -1    0    0    0  501 -0.00000000000E+00  0.00000000000E+00  0.17945564882E+01  0.17945564882E+01  0.00000000000E+00 0. -1.
          2   -1    0    0  501    0  0.00000000000E+00 -0.00000000000E+00 -0.98216064994E+03  0.98216064994E+03  0.00000000000E+00 0.  1.
          2    1    1    2  502    0 -0.53134898094E+01 -0.22163413961E+02 -0.90335159496E+03  0.90363906191E+03  0.00000000000E+00 0.  1.
         -2    1    1    2    0  502  0.53134898094E+01  0.22163413961E+02 -0.77014498492E+02  0.80316144519E+02  0.00000000000E+00 0. -1.
<mgrwt>
<rscale>  2 0.22791448E+02</rscale>
<asrwt>0</asrwt>
<pdfrwt beam="2">  1        2 0.15110163E+00 0.22791448E+02</pdfrwt>
<pdfrwt beam="1">  1       -2 0.27608564E-03 0.22791448E+02</pdfrwt>
<totfact> 0.23819147E+05</totfact>
</mgrwt>
</event>
<event>
 4    1  0.7653521E+003  0.2213971E+02  0.7546771E-02  0.1705847E+00
         -2   -1    0    0    0  501 -0.00000000000E+00  0.00000000000E+00  0.27827622917E+01  0.27827622917E+01  0.00000000000E+00 0. -1.
          2   -1    0    0  501    0  0.00000000000E+00 -0.00000000000E+00 -0.12988485407E+04  0.12988485407E+04  0.00000000000E+00 0.  1.
          2    1    1    2  502    0 -0.20817248246E+02  0.75371573959E+01 -0.12531110733E+04  0.12533066379E+04  0.00000000000E+00 0.  1.
         -2    1    1    2    0  502  0.20817248246E+02 -0.75371573959E+01 -0.42954705147E+02  0.48324665135E+02  0.00000000000E+00 0. -1.
<mgrwt>
<rscale>  2 0.22139706E+02</rscale>
<asrwt>0</asrwt>
<pdfrwt beam="2">  1        2 0.19982243E+00 0.22139706E+02</pdfrwt>
<pdfrwt beam="1">  1       -2 0.42811819E-03 0.22139706E+02</pdfrwt>
<totfact> 0.90792398E+04</totfact>
</mgrwt>
</event>
<event>
 4    1  0.7653521E+003  0.2519826E+02  0.7546771E-02  0.1658170E+00
         -2   -1    0    0    0  501 -0.00000000000E+00  0.00000000000E+00  0.10261991765E+03  0.10261991765E+03  0.00000000000E+00 0.  1.
          2   -1    0    0  501    0  0.00000000000E+00 -0.00000000000E+00 -0.11158338960E+04  0.11158338960E+04  0.00000000000E+00 0.  1.
          2    1    1    2  502    0  0.96001668544E+01  0.23297834984E+02 -0.11141424338E+04  0.11144273485E+04  0.00000000000E+00 0.  1.
         -2    1    1    2    0  502 -0.96001668544E+01 -0.23297834984E+02  0.10092845547E+03  0.10402646511E+03  0.00000000000E+00 0.  1.
<mgrwt>
<rscale>  2 0.25198260E+02</rscale>
<asrwt>0</asrwt>
<pdfrwt beam="2">  1        2 0.17166674E+00 0.25198260E+02</pdfrwt>
<pdfrwt beam="1">  1       -2 0.15787681E-01 0.25198260E+02</pdfrwt>
<totfact> 0.71594651E+02</totfact>
</mgrwt>
</event>
<event>
 4    1  0.7653521E+003  0.2401479E+02  0.7546771E-02  0.1675570E+00
          2   -1    0    0  501    0  0.00000000000E+00  0.00000000000E+00  0.39754760832E+02  0.39754760832E+02  0.00000000000E+00 0.  1.
         -2   -1    0    0    0  501 -0.00000000000E+00 -0.00000000000E+00 -0.14941104705E+02  0.14941104705E+02  0.00000000000E+00 0.  1.
          2    1    1    2  502    0 -0.17267460792E+02 -0.16689649154E+02  0.77435593542E+01  0.25232366171E+02  0.00000000000E+00 0.  1.
         -2    1    1    2    0  502  0.17267460792E+02  0.16689649154E+02  0.17070096773E+02  0.29463499367E+02  0.00000000000E+00 0.  1.
<mgrwt>
<rscale>  2 0.24014791E+02</rscale>
<asrwt>0</asrwt>
<pdfrwt beam="1">  1        2 0.61161170E-02 0.24014791E+02</pdfrwt>
<pdfrwt beam="2">  1       -2 0.22986315E-02 0.24014791E+02</pdfrwt>
<totfact> 0.43241284E+05</totfact>
</mgrwt>
</event>
<event>
 4    1  0.7653521E+003  0.2880811E+02  0.7546771E-02  0.1611650E+00
         -2   -1    0    0    0  501 -0.00000000000E+00  0.00000000000E+00  0.32699412110E+00  0.32699412110E+00  0.00000000000E+00 0. -1.
          2   -1    0    0  501    0  0.00000000000E+00 -0.00000000000E+00 -0.25667408403E+04  0.25667408403E+04  0.00000000000E+00 0. -1.
          2    1    1    2  502    0  0.28786131667E+02  0.11249669831E+01 -0.14190576572E+04  0.14193500419E+04  0.00000000000E+00 0. -1.
         -2    1    1    2    0  502 -0.28786131667E+02 -0.11249669831E+01 -0.11473561890E+04  0.11477177926E+04  0.00000000000E+00 0. -1.
<mgrwt>
<rscale>  2 0.28808105E+02</rscale>
<asrwt>0</asrwt>
<pdfrwt beam="2">  1        2 0.39487530E+00 0.28808105E+02</pdfrwt>
<pdfrwt beam="1">  1       -2 0.50307795E-04 0.28808105E+02</pdfrwt>
<totfact> 0.40864868E+05</totfact>
</mgrwt>
</event>
<event>
 4    1  0.7653521E+003  0.3747504E+02  0.7546771E-02  0.1527659E+00
          2   -1    0    0  501    0  0.00000000000E+00  0.00000000000E+00  0.90721957904E+03  0.90721957904E+03  0.00000000000E+00 0.  1.
         -2   -1    0    0    0  501 -0.00000000000E+00 -0.00000000000E+00 -0.40683331233E+01  0.40683331233E+01  0.00000000000E+00 0.  1.
          2    1    1    2  502    0 -0.19653297797E+02  0.31908097182E+02  0.81020516487E+03  0.81107138277E+03  0.00000000000E+00 0.  1.
         -2    1    1    2    0  502  0.19653297797E+02 -0.31908097182E+02  0.92946081050E+02  0.10021652939E+03  0.00000000000E+00 0.  1.
<mgrwt>
<rscale>  2 0.37475042E+02</rscale>
<asrwt>0</asrwt>
<pdfrwt beam="1">  1        2 0.13957208E+00 0.37475042E+02</pdfrwt>
<pdfrwt beam="2">  1       -2 0.62589812E-03 0.37475042E+02</pdfrwt>
<totfact> 0.96722251E+04</totfact>
</mgrwt>
</event>
<event>
 4    1  0.7653521E+003  0.2449109E+02  0.7546771E-02  0.1668421E+00
         -2   -1    0    0    0  501 -0.00000000000E+00  0.00000000000E+00  0.17608951340E+01  0.17608951340E+01  0.00000000000E+00 0. -1.
          2   -1    0    0  501    0  0.00000000000E+00 -0.00000000000E+00 -0.15331865211E+04  0.15331865211E+04  0.00000000000E+00 0. -1.
          2    1    1    2  502    0 -0.34597848247E+01 -0.24245481036E+02 -0.14425832116E+04  0.14427910922E+04  0.00000000000E+00 0. -1.
         -2    1    1    2    0  502  0.34597848247E+01  0.24245481036E+02 -0.88842414413E+02  0.92156324039E+02  0.00000000000E+00 0. -1.
<mgrwt>
<rscale>  2 0.24491089E+02</rscale>
<asrwt>0</asrwt>
<pdfrwt beam="2">  1        2 0.23587537E+00 0.24491089E+02</pdfrwt>
<pdfrwt beam="1">  1       -2 0.27090635E-03 0.24491089E+02</pdfrwt>
<totfact> 0.13175380E+05</totfact>
</mgrwt>
</event>
<event>
 4    1  0.7653521E+003  0.3043869E+02  0.7546771E-02  0.1593290E+00
         -2   -1    0    0    0  501 -0.00000000000E+00  0.00000000000E+00  0.55983518308E+02  0.55983518308E+02  0.00000000000E+00 0.  1.
          2   -1    0    0  501    0  0.00000000000E+00 -0.00000000000E+00 -0.15452388374E+03  0.15452388374E+03  0.00000000000E+00 0.  1.
          2    1    1    2  502    0 -0.26429947335E+02  0.15098740534E+02 -0.14872787601E+03  0.15181072157E+03  0.00000000000E+00 0.  1.
         -2    1    1    2    0  502  0.26429947335E+02 -0.15098740534E+02  0.50187510573E+02  0.58696680480E+02  0.00000000000E+00 0.  1.
<mgrwt>
<rscale>  2 0.30438694E+02</rscale>
<asrwt>0</asrwt>
<pdfrwt beam="2">  1        2 0.23772905E-01 0.30438694E+02</pdfrwt>
<pdfrwt beam="1">  1       -2 0.86128490E-02 0.30438694E+02</pdfrwt>
<totfact> 0.14930108E+04</totfact>
</mgrwt>
</event>
<event>
 4    1  0.7653521E+003  0.2170159E+02  0.7546771E-02  0.1713465E+00
          2   -1    0    0  501    0  0.00000000000E+00  0.00000000000E+00  0.43182897690E+02  0.43182897690E+02  0.00000000000E+00 0. -1.
         -2   -1    0    0    0  501 -0.00000000000E+00 -0.00000000000E+00 -0.23194947999E+03  0.23194947999E+03  0.00000000000E+00 0. -1.
          2    1    1    2  502    0  0.16440247127E+02  0.14166057086E+02  0.39909814461E+02  0.45428539369E+02  0.00000000000E+00 0. -1.
         -2    1    1    2    0  502 -0.16440247127E+02 -0.14166057086E+02 -0.22867639676E+03  0.22970383831E+03  0.00000000000E+00 0. -1.
<mgrwt>
<rscale>  2 0.21701587E+02</rscale>
<asrwt>0</asrwt>
<pdfrwt beam="1">  1        2 0.66435229E-02 0.21701587E+02</pdfrwt>
<pdfrwt beam="2">  1       -2 0.35684534E-01 0.21701587E+02</pdfrwt>
<totfact> 0.61043115E+03</totfact>
</mgrwt>
</event>
<event>
 4    1  0.7653521E+003  0.2209677E+02  0.7546771E-02  0.1706584E+00
         -2   -1    0    0    0  501 -0.00000000000E+00  0.00000000000E+00  0.19752783210E+02  0.19752783210E+02  0.00000000000E+00 0.  1.
          2   -1    0    0  501    0  0.00000000000E+00 -0.00000000000E+00 -0.95910909738E+02  0.95910909738E+02  0.00000000000E+00 0.  1.
          2    1    1    2  502    0 -0.92482622041E+01 -0.20068301044E+02 -0.87904220982E+02  0.90638949283E+02  0.00000000000E+00 0.  1.
         -2    1    1    2    0  502  0.92482622041E+01  0.20068301044E+02  0.11746094454E+02  0.25024743665E+02  0.00000000000E+00 0.  1.
<mgrwt>
<rscale>  2 0.22096766E+02</rscale>
<asrwt>0</asrwt>
<pdfrwt beam="2">  1        2 0.14755524E-01 0.22096766E+02</pdfrwt>
<pdfrwt beam="1">  1       -2 0.30388897E-02 0.22096766E+02</pdfrwt>
<totfact> 0.10382467E+05</totfact>
</mgrwt>
</event>
<event>
 4    1  0.7653521E+003  0.2279311E+02  0.7546771E-02  0.1694886E+00
         -2   -1    0    0    0  501 -0.00000000000E+00  0.00000000000E+00  0.39844296843E+00  0.39844296843E+00  0.00000000000E+00 0.  1.
          2   -1    0    0  501    0  0.00000000000E+00 -0.00000000000E+00 -0.14607760197E+04  0.14607760197E+04  0.00000000000E+00 0.  1.
          2    1    1    2  502    0 -0.21827173406E+02  0.65650970317E+01 -0.96961500576E+03  0.96988287200E+03  0.00000000000E+00 0.  1.
         -2    1    1    2    0  502  0.21827173406E+02 -0.65650970317E+01 -0.49076257096E+03  0.49129159066E+03  0.00000000000E+00 0.  1.
<mgrwt>
<rscale>  2 0.22793113E+02</rscale>
<asrwt>0</asrwt>
<pdfrwt beam="2">  1        2 0.22473612E+00 0.22793113E+02</pdfrwt>
<pdfrwt beam="1">  1       -2 0.61298551E-04 0.22793113E+02</pdfrwt>
<totfact> 0.99783294E+05</totfact>
</mgrwt>
</event>
<event>
 4    1  0.7653521E+003  0.2541343E+02  0.7546771E-02  0.1655134E+00
          2   -1    0    0  501    0  0.00000000000E+00  0.00000000000E+00  0.96151174631E+02  0.96151174631E+02  0.00000000000E+00 0.  1.
         -2   -1    0    0    0  501 -0.00000000000E+00 -0.00000000000E+00 -0.11238500551E+02  0.11238500551E+02  0.00000000000E+00 0.  1.
          2    1    1    2  502    0  0.14126149702E+02  0.21125675974E+02  0.76514577978E+02  0.80624580209E+02  0.00000000000E+00 0.  1.
         -2    1    1    2    0  502 -0.14126149702E+02 -0.21125675974E+02  0.83980961022E+01  0.26765094973E+02  0.00000000000E+00 0.  1.
<mgrwt>
<rscale>  2 0.25413427E+02</rscale>
<asrwt>0</asrwt>
<pdfrwt beam="1">  1        2 0.14792488E-01 0.25413427E+02</pdfrwt>
<pdfrwt beam="2">  1       -2 0.17290001E-02 0.25413427E+02</pdfrwt>
<totfact> 0.23373800E+05</totfact>
</mgrwt>
</event>
<event>
 4    1  0.7653521E+003  0.2624249E+02  0.7546771E-02  0.1643771E+00
          2   -1    0    0  501    0  0.00000000000E+00  0.00000000000E+00  0.16809933792E+03  0.16809933792E+03  0.00000000000E+00 0.  1.
         -2   -1    0    0    0  501 -0.00000000000E+00 -0.00000000000E+00 -0.23626330106E+02  0.23626330106E+02  0.00000000000E+00 0.  1.
          2    1    1    2  502    0  0.25846817096E+02 -0.45398681739E+01  0.15939266522E+03  0.16153850959E+03  0.00000000000E+00 0.  1.
         -2    1    1    2    0  502 -0.25846817096E+02  0.45398681739E+01 -0.14919657404E+02  0.30187158430E+02  0.00000000000E+00 0.  1.
<mgrwt>
<rscale>  2 0.26242491E+02</rscale>
<asrwt>0</asrwt>
<pdfrwt beam="1">  1        2 0.25861436E-01 0.26242491E+02</pdfrwt>
<pdfrwt beam="2">  1       -2 0.36348201E-02 0.26242491E+02</pdfrwt>
<totfact> 0.46230104E+04</totfact>
</mgrwt>
</event>
<event>
 4    1  0.7653521E+003  0.2016330E+02  0.7546771E-02  0.1742100E+00
         -2   -1    0    0    0  501 -0.00000000000E+00  0.00000000000E+00  0.12394328267E+01  0.12394328267E+01  0.00000000000E+00 0. -1.
          2   -1    0    0  501    0  0.00000000000E+00 -0.00000000000E+00 -0.11777893223E+04  0.11777893223E+04  0.00000000000E+00 0. -1.
          2    1    1    2  502    0 -0.14096059575E+02 -0.14417348850E+02 -0.10890135800E+04  0.10892002278E+04  0.00000000000E+00 0. -1.
         -2    1    1    2    0  502  0.14096059575E+02  0.14417348850E+02 -0.87536309528E+02  0.89828527369E+02  0.00000000000E+00 0. -1.
<mgrwt>
<rscale>  2 0.20163304E+02</rscale>
<asrwt>0</asrwt>
<pdfrwt beam="2">  1        2 0.18119905E+00 0.20163304E+02</pdfrwt>
<pdfrwt beam="1">  1       -2 0.19068124E-03 0.20163304E+02</pdfrwt>
<totfact> 0.29797120E+05</totfact>
</mgrwt>
</event>
<event>
 4    1  0.7653521E+003  0.3887875E+02  0.7546771E-02  0.1516629E+00
         -2   -1    0    0    0  501 -0.00000000000E+00  0.00000000000E+00  0.18025838206E+02  0.18025838206E+02  0.00000000000E+00 0. -1.
          2   -1    0    0  501    0  0.00000000000E+00 -0.00000000000E+00 -0.15980359813E+04  0.15980359813E+04  0.00000000000E+00 0. -1.
          2    1    1    2  502    0  0.38820716389E+02  0.21234351845E+01 -0.15765500962E+04  0.15770294109E+04  0.00000000000E+00 0. -1.
         -2    1    1    2    0  502 -0.38820716389E+02 -0.21234351845E+01 -0.34600469012E+01  0.39032408618E+02  0.00000000000E+00 0. -1.
<mgrwt>
<rscale>  2 0.38878747E+02</rscale>
<asrwt>0</asrwt>
<pdfrwt beam="2">  1        2 0.24585174E+00 0.38878747E+02</pdfrwt>
<pdfrwt beam="1">  1       -2 0.27732053E-02 0.38878747E+02</pdfrwt>
<totfact> 0.54055404E+03</totfact>
</mgrwt>
</event>
<event>
 4    1  0.7653521E+003  0.2107856E+02  0.7546771E-02  0.1724693E+00
          2   -1    0    0  501    0  0.00000000000E+00  0.00000000000E+00  0.17951715820E+03  0.17951715820E+03  0.00000000000E+00 0.  1.
         -2   -1    0    0    0  501 -0.00000000000E+00 -0.00000000000E+00 -0.38441568172E+01  0.38441568172E+01  0.00000000000E+00 0.  1.
          2    1    1    2  502    0  0.96407172976E+01  0.18744654591E+02  0.14255110863E+03  0.14410108979E+03  0.00000000000E+00 0.  1.
         -2    1    1    2    0  502 -0.96407172976E+01 -0.18744654591E+02  0.33121892755E+02  0.39260225234E+02  0.00000000000E+00 0.  1.
<mgrwt>
<rscale>  2 0.21078556E+02</rscale>
<asrwt>0</asrwt>
<pdfrwt beam="1">  1        2 0.27618018E-01 0.21078556E+02</pdfrwt>
<pdfrwt beam="2">  1       -2 0.59140888E-03 0.21078556E+02</pdfrwt>
<totfact> 0.48823236E+05</totfact>
</mgrwt>
</event>
<event>
 4    1  0.7653521E+003  0.2213864E+02  0.7546771E-02  0.1705865E+00
         -2   -1    0    0    0  501 -0.00000000000E+00  0.00000000000E+00  0.30321928546E+02  0.30321928546E+02  0.00000000000E+00 0.  1.
          2   -1    0    0  501    0  0.00000000000E+00 -0.00000000000E+00 -0.11852988649E+04  0.11852988649E+04  0.00000000000E+00 0.  1.
          2    1    1    2  502    0  0.21785516017E+02 -0.39383646526E+01 -0.11811402989E+04  0.11813477579E+04  0.00000000000E+00 0.  1.
         -2    1    1    2    0  502 -0.21785516017E+02  0.39383646526E+01  0.26163362555E+02  0.34273035531E+02  0.00000000000E+00 0.  1.
<mgrwt>
<rscale>  2 0.22138641E+02</rscale>
<asrwt>0</asrwt>
<pdfrwt beam="2">  1        2 0.18235369E+00 0.22138641E+02</pdfrwt>
<pdfrwt beam="1">  1       -2 0.46649115E-02 0.22138641E+02</pdfrwt>
<totfact> 0.39761911E+03</totfact>
</mgrwt>
</event>
<event>
 4    1  0.7653521E+003  0.2045435E+02  0.7546771E-02  0.1736441E+00
          2   -1    0    0  501    0  0.00000000000E+00  0.00000000000E+00  0.23357260399E+03  0.23357260399E+03  0.00000000000E+00 0.  1.
         -2   -1    0    0    0  501 -0.00000000000E+00 -0.00000000000E+00 -0.70179457003E+01  0.70179457003E+01  0.00000000000E+00 0. -1.
          2    1    1    2  502    0 -0.73398539003E+01 -0.19092066198E+02  0.21709190347E+03  0.21805337649E+03  0.00000000000E+00 0.  1.
         -2    1    1    2    0  502  0.73398539003E+01  0.19092066198E+02  0.94627548181E+01  0.22537173198E+02  0.00000000000E+00 0. -1.
<mgrwt>
<rscale>  2 0.20454350E+02</rscale>
<asrwt>0</asrwt>
<pdfrwt beam="1">  1        2 0.35934241E-01 0.20454350E+02</pdfrwt>
<pdfrwt beam="2">  1       -2 0.10796841E-02 0.20454350E+02</pdfrwt>
<totfact> 0.16569950E+05</totfact>
</mgrwt>
</event>
<event>
 4    1  0.7653521E+003  0.2041331E+02  0.7546771E-02  0.1737232E+00
         -2   -1    0    0    0  501 -0.00000000000E+00  0.00000000000E+00  0.65031346728E+01  0.65031346728E+01  0.00000000000E+00 0. -1.
          2   -1    0    0  501    0  0.00000000000E+00 -0.00000000000E+00 -0.82630853397E+03  0.82630853397E+03  0.00000000000E+00 0. -1.
          2    1    1    2  502    0 -0.17009282035E+02 -0.11286618168E+02 -0.80983736769E+03  0.81009460283E+03  0.00000000000E+00 0. -1.
         -2    1    1    2    0  502  0.17009282035E+02  0.11286618168E+02 -0.99680316052E+01  0.22717065812E+02  0.00000000000E+00 0. -1.
<mgrwt>
<rscale>  2 0.20413315E+02</rscale>
<asrwt>0</asrwt>
<pdfrwt beam="2">  1        2 0.12712428E+00 0.20413315E+02</pdfrwt>
<pdfrwt beam="1">  1       -2 0.10004831E-02 0.20413315E+02</pdfrwt>
<totfact> 0.50992275E+04</totfact>
</mgrwt>
</event>
<event>
 4    1  0.7653521E+003  0.2268351E+02  0.7546771E-02  0.1696692E+00
          2   -1    0    0  501    0  0.00000000000E+00  0.00000000000E+00  0.15203244674E+04  0.15203244674E+04  0.00000000000E+00 0. -1.
         -2   -1    0    0    0  501 -0.00000000000E+00 -0.00000000000E+00 -0.34860334581E+02  0.34860334581E+02  0.00000000000E+00 0. -1.
          2    1    1    2  502    0 -0.14393096721E+02 -0.17532266238E+02  0.15165406287E+04  0.15167102624E+04  0.00000000000E+00 0. -1.
         -2    1    1    2    0  502  0.14393096721E+02  0.17532266238E+02 -0.31076495927E+02  0.38474539527E+02  0.00000000000E+00 0. -1.
<mgrwt>
<rscale>  2 0.22683509E+02</rscale>
<asrwt>0</asrwt>
<pdfrwt beam="1">  1        2 0.23389602E+00 0.22683509E+02</pdfrwt>
<pdfrwt beam="2">  1       -2 0.53631296E-02 0.22683509E+02</pdfrwt>
<totfact> 0.22503912E+03</totfact>
</mgrwt>
</event>
<event>
 4    1  0.7653521E+003  0.3939411E+02  0.7546771E-02  0.1512718E+00
          2   -1    0    0  501    0  0.00000000000E+00  0.00000000000E+00  0.75946309043E+01  0.75946309043E+01  0.00000000000E+00 0. -1.
         -2   -1    0    0    0  501 -0.00000000000E+00 -0.00000000000E+00 -0.48642378364E+03  0.48642378364E+03  0.00000000000E+00 0. -1.
          2    1    1    2  502    0  0.25168946496E+02 -0.30305443727E+02 -0.51312366273E+02  0.64690453080E+02  0.00000000000E+00 0. -1.
         -2    1    1    2    0  502 -0.25168946496E+02  0.30305443727E+02 -0.42751678646E+03  0.42932796147E+03  0.00000000000E+00 0. -1.
<mgrwt>
<rscale>  2 0.39394109E+02</rscale>
<asrwt>0</asrwt>
<pdfrwt beam="1">  1        2 0.11684045E-02 0.39394109E+02</pdfrwt>
<pdfrwt beam="2">  1       -2 0.74834443E-01 0.39394109E+02</pdfrwt>
<totfact> 0.14766452E+04</totfact>
</mgrwt>
</event>
<event>
 4    1  0.7653521E+003  0.3252973E+02  0.7546771E-02  0.1571699E+00
          2   -1    0    0  501    0  0.00000000000E+00  0.00000000000E+00  0.50244264389E+01  0.50244264389E+01  0.00000000000E+00 0.  1.
         -2   -1    0    0    0  501 -0.00000000000E+00 -0.00000000000E+00 -0.22789172020E+03  0.22789172020E+03  0.00000000000E+00 0.  1.
          2    1    1    2  502    0  0.20467557130E+02  0.25283634732E+02 -0.79361557765E+02  0.85769691214E+02  0.00000000000E+00 0.  1.
         -2    1    1    2    0  502 -0.20467557130E+02 -0.25283634732E+02 -0.14350573599E+03  0.14714645542E+03  0.00000000000E+00 0.  1.
<mgrwt>
<rscale>  2 0.32529726E+02</rscale>
<asrwt>0</asrwt>
<pdfrwt beam="1">  1        2 0.77298879E-03 0.32529726E+02</pdfrwt>
<pdfrwt beam="2">  1       -2 0.35060260E-01 0.32529726E+02</pdfrwt>
<totfact> 0.10639086E+05</totfact>
</mgrwt>
</event>
<event>
 4    1  0.7653521E+003  0.3100320E+02  0.7546771E-02  0.1587257E+00
          2   -1    0    0  501    0  0.00000000000E+00  0.00000000000E+00  0.36143506760E+03  0.36143506760E+03  0.00000000000E+00 0.  1.
         -2   -1    0    0    0  501 -0.00000000000E+00 -0.00000000000E+00 -0.93556935381E+01  0.93556935381E+01  0.00000000000E+00 0.  1.
          2    1    1    2  502    0  0.45464272579E+01 -0.30668037196E+02  0.33288744974E+03  0.33432806149E+03  0.00000000000E+00 0.  1.
         -2    1    1    2    0  502 -0.45464272579E+01  0.30668037196E+02  0.19191924319E+02  0.36462699644E+02  0.00000000000E+00 0.  1.
<mgrwt>
<rscale>  2 0.31003202E+02</rscale>
<asrwt>0</asrwt>
<pdfrwt beam="1">  1        2 0.55605384E-01 0.31003202E+02</pdfrwt>
<pdfrwt beam="2">  1       -2 0.14393377E-02 0.31003202E+02</pdfrwt>
<totfact> 0.80066910E+04</totfact>
</mgrwt>
</event>
<event>
 4    1  0.7653521E+003  0.2330970E+02  0.7546771E-02  0.1686539E+00
          2   -1    0    0  501    0  0.00000000000E+00  0.00000000000E+00  0.29236278110E+03  0.29236278110E+03  0.00000000000E+00 0. -1.
         -2   -1    0    0    0  501 -0.00000000000E+00 -0.00000000000E+00 -0.58325039958E+02  0.58325039958E+02  0.00000000000E+00 0.  1.
          2    1    1    2  502    0  0.20449434314E+02  0.11187615489E+02  0.28954661306E+03  0.29048336138E+03  0.00000000000E+00 0. -1.
         -2    1    1    2    0  502 -0.20449434314E+02 -0.11187615489E+02 -0.55508871915E+02  0.60204459680E+02  0.00000000000E+00 0.  1.
<mgrwt>
<rscale>  2 0.23309700E+02</rscale>
<asrwt>0</asrwt>
<pdfrwt beam="1">  1        2 0.44978889E-01 0.23309700E+02</pdfrwt>
<pdfrwt beam="2">  1       -2 0.89730832E-02 0.23309700E+02</pdfrwt>
<totfact> 0.70872995E+03</totfact>
</mgrwt>
</event>
<event>
 4    1  0.7653521E+003  0.2080672E+02  0.7546771E-02  0.1729746E+00
          2   -1    0    0  501    0  0.00000000000E+00  0.00000000000E+00  0.40430748546E+03  0.40430748546E+03  0.00000000000E+00 0.  1.
         -2   -1    0    0    0  501 -0.00000000000E+00 -0.00000000000E+00 -0.56817073617E+01  0.56817073617E+01  0.00000000000E+00 0. -1.
          2    1    1    2  502    0  0.13397859949E+02 -0.15919071355E+02  0.38398346002E+03  0.38454676835E+03  0.00000000000E+00 0.  1.
         -2    1    1    2    0  502 -0.13397859949E+02  0.15919071355E+02  0.14642318080E+02  0.25442424467E+02  0.00000000000E+00 0. -1.
<mgrwt>
<rscale>  2 0.20806717E+02</rscale>
<asrwt>0</asrwt>
<pdfrwt beam="1">  1        2 0.62201129E-01 0.20806717E+02</pdfrwt>
<pdfrwt beam="2">  1       -2 0.87410914E-03 0.20806717E+02</pdfrwt>
<totfact> 0.12904353E+05</totfact>
</mgrwt>
</event>
<event>
 4    1  0.7653521E+003  0.2956380E+02  0.7546771E-02  0.1602961E+00
          2   -1    0    0  501    0  0.00000000000E+00  0.00000000000E+00  0.70008296475E+02  0.70008296475E+02  0.00000000000E+00 0.  1.
         -2   -1    0    0    0  501 -0.00000000000E+00 -0.00000000000E+00 -0.20036899141E+03  0.20036899141E+03  0.00000000000E+00 0. -1.
          2    1    1    2  502    0 -0.12534434528E+01  0.29537212943E+02  0.65728931499E+02  0.72071565163E+02  0.00000000000E+00 0.  1.
         -2    1    1    2    0  502  0.12534434528E+01 -0.29537212943E+02 -0.19608962644E+03  0.19830572272E+03  0.00000000000E+00 0. -1.
<mgrwt>
<rscale>  2 0.29563797E+02</rscale>
<asrwt>0</asrwt>
<pdfrwt beam="1">  1        2 0.10770507E-01 0.29563797E+02</pdfrwt>
<pdfrwt beam="2">  1       -2 0.30825998E-01 0.29563797E+02</pdfrwt>
<totfact> 0.46727167E+03</totfact>
</mgrwt>
</event>
<event>
 4    1  0.7653521E+003  0.3696029E+02  0.7546771E-02  0.1531851E+00
         -2   -1    0    0    0  501 -0.00000000000E+00  0.00000000000E+00  0.35456004620E+01  0.35456004620E+01  0.00000000000E+00 0. -1.
          2   -1    0    0  501    0  0.00000000000E+00 -0.00000000000E+00 -0.22685730331E+04  0.22685730331E+04  0.00000000000E+00 0. -1.
          2    1    1    2  502    0  0.12735732153E+02 -0.34696748243E+02 -0.21676156288E+04  0.21679307133E+04  0.00000000000E+00 0. -1.
         -2    1    1    2    0  502 -0.12735732153E+02  0.34696748243E+02 -0.97411803765E+02  0.10418792024E+03  0.00000000000E+00 0. -1.
<mgrwt>
<rscale>  2 0.36960292E+02</rscale>
<asrwt>0</asrwt>
<pdfrwt beam="2">  1        2 0.34901152E+00 0.36960292E+02</pdfrwt>
<pdfrwt beam="1">  1       -2 0.54547655E-03 0.36960292E+02</pdfrwt>
<totfact> 0.24333527E+04</totfact>
</mgrwt>
</event>
<event>
 4    1  0.7653521E+003  0.2225322E+02  0.7546771E-02  0.1703909E+00
          2   -1    0    0  501    0  0.00000000000E+00  0.00000000000E+00  0.12468013190E+02  0.12468013190E+02  0.00000000000E+00 0. -1.
         -2   -1    0    0    0  501 -0.00000000000E+00 -0.00000000000E+00 -0.97808179815E+03  0.97808179815E+03  0.00000000000E+00 0.  1.
          2    1    1    2  502    0  0.11806358636E+02 -0.18863081505E+02  0.23076923231E+01  0.22372558905E+02  0.00000000000E+00 0. -1.
         -2    1    1    2    0  502 -0.11806358636E+02  0.18863081505E+02 -0.96792147728E+03  0.96817725243E+03  0.00000000000E+00 0.  1.
<mgrwt>
<rscale>  2 0.22253223E+02</rscale>
<asrwt>0</asrwt>
<pdfrwt beam="1">  1        2 0.19181560E-02 0.22253223E+02</pdfrwt>
<pdfrwt beam="2">  1       -2 0.15047411E+00 0.22253223E+02</pdfrwt>
<totfact> 0.14448594E+03</totfact>
</mgrwt>
</event>
<event>
 4    1  0.7653521E+003  0.2458115E+02  0.7546771E-02  0.1667092E+00
         -2   -1    0    0    0  501 -0.00000000000E+00  0.00000000000E+00  0.23466346179E+01  0.23466346179E+01  0.00000000000E+00 0.  1.
          2   -1    0    0  501    0  0.00000000000E+00 -0.00000000000E+00 -0.34159093709E+03  0.34159093709E+03  0.00000000000E+00 0.  1.
          2    1    1    2  502    0 -0.17769620158E+02  0.16984514494E+02 -0.25495158609E+03  0.25613384076E+03  0.00000000000E+00 0.  1.
         -2    1    1    2    0  502  0.17769620158E+02 -0.16984514494E+02 -0.84292716381E+02  0.87803730946E+02  0.00000000000E+00 0.  1.
<mgrwt>
<rscale>  2 0.24581154E+02</rscale>
<asrwt>0</asrwt>
<pdfrwt beam="2">  1        2 0.52552490E-01 0.24581154E+02</pdfrwt>
<pdfrwt beam="1">  1       -2 0.36102045E-03 0.24581154E+02</pdfrwt>
<totfact> 0.52164033E+05</totfact>
</mgrwt>
</event>
<event>
 4    1  0.7653521E+003  0.3017315E+02  0.7546771E-02  0.1596183E+00
          2   -1    0    0  501    0  0.00000000000E+00  0.00000000000E+00  0.12070618575E+04  0.12070618575E+04  0.00000000000E+00 0.  1.
         -2   -1    0    0    0  501 -0.00000000000E+00 -0.00000000000E+00 -0.23398663243E+01  0.23398663243E+01  0.00000000000E+00 0.  1.
          2    1    1    2  502    0  0.22643147779E+02 -0.19942593567E+02  0.11001495860E+04  0.11005632789E+04  0.00000000000E+00 0.  1.
         -2    1    1    2    0  502 -0.22643147779E+02  0.19942593567E+02  0.10457240512E+03  0.10883844492E+03  0.00000000000E+00 0.  1.
<mgrwt>
<rscale>  2 0.30173153E+02</rscale>
<asrwt>0</asrwt>
<pdfrwt beam="1">  1        2 0.18570133E+00 0.30173153E+02</pdfrwt>
<pdfrwt beam="2">  1       -2 0.35998040E-03 0.30173153E+02</pdfrwt>
<totfact> 0.13526844E+05</totfact>
</mgrwt>
</event>
<event>
 4    1  0.7653521E+003  0.4097632E+02  0.7546771E-02  0.1501147E+00
          2   -1    0    0  501    0  0.00000000000E+00  0.00000000000E+00  0.93998834997E+03  0.93998834997E+03  0.00000000000E+00 0. -1.
         -2   -1    0    0    0  501 -0.00000000000E+00 -0.00000000000E+00 -0.13762095925E+02  0.13762095925E+02  0.00000000000E+00 0.  1.
          2    1    1    2  502    0  0.36493376909E+02  0.18635771801E+02  0.90796506195E+03  0.90888921892E+03  0.00000000000E+00 0. -1.
         -2    1    1    2    0  502 -0.36493376909E+02 -0.18635771801E+02  0.18261192094E+02  0.44861226973E+02  0.00000000000E+00 0.  1.
<mgrwt>
<rscale>  2 0.40976317E+02</rscale>
<asrwt>0</asrwt>
<pdfrwt beam="1">  1        2 0.14461354E+00 0.40976317E+02</pdfrwt>
<pdfrwt beam="2">  1       -2 0.21172463E-02 0.40976317E+02</pdfrwt>
<totfact> 0.17368308E+04</totfact>
</mgrwt>
</event>
<event>
 4    1  0.7653521E+003  0.2010656E+02  0.7546771E-02  0.1743217E+00
          2   -1    0    0  501    0  0.00000000000E+00  0.00000000000E+00  0.11531100948E+03  0.11531100948E+03  0.00000000000E+00 0. -1.
         -2   -1    0    0    0  501 -0.00000000000E+00 -0.00000000000E+00 -0.41412741904E+01  0.41412741904E+01  0.00000000000E+00 0. -1.
          2    1    1    2  502    0 -0.76744734209E+01  0.18584305136E+02  0.78978476348E+02  0.81497691169E+02  0.00000000000E+00 0. -1.
         -2    1    1    2    0  502  0.76744734209E+01 -0.18584305136E+02  0.32191258943E+02  0.37954592502E+02  0.00000000000E+00 0. -1.
<mgrwt>
<rscale>  2 0.20106565E+02</rscale>
<asrwt>0</asrwt>
<pdfrwt beam="1">  1        2 0.17740153E-01 0.20106565E+02</pdfrwt>
<pdfrwt beam="2">  1       -2 0.63711919E-03 0.20106565E+02</pdfrwt>
<totfact> 0.69024394E+05</totfact>
</mgrwt>
</event>
<event>
 4    1  0.7653521E+003  0.2605557E+02  0.7546771E-02  0.1646287E+00
          2   -1    0    0  501    0  0.00000000000E+00  0.00000000000E+00  0.16286463219E+04  0.16286463219E+04  0.00000000000E+00 0.  1.
         -2   -1    0    0    0  501 -0.00000000000E+00 -0.00000000000E+00 -0.62654779133E+01  0.62654779133E+01  0.00000000000E+00 0.  1.
          2    1    1    2  502    0  0.17348404755E+02 -0.19440303317E+02  0.16009855041E+04  0.16011975134E+04  0.00000000000E+00 0.  1.
         -2    1    1    2    0  502 -0.17348404755E+02  0.19440303317E+02  0.21395339897E+02  0.33714286436E+02  0.00000000000E+00 0.  1.
<mgrwt>
<rscale>  2 0.26055566E+02</rscale>
<asrwt>0</asrwt>
<pdfrwt beam="1">  1        2 0.25056064E+00 0.26055566E+02</pdfrwt>
<pdfrwt beam="2">  1       -2 0.96392097E-03 0.26055566E+02</pdfrwt>
<totfact> 0.21767453E+04</totfact>
</mgrwt>
</event>
<event>
 4    1  0.7653521E+003  0.2225029E+02  0.7546771E-02  0.1703959E+00
          2   -1    0    0  501    0  0.00000000000E+00  0.00000000000E+00  0.92155320000E+03  0.92155320000E+03  0.00000000000E+00 0. -1.
         -2   -1    0    0    0  501 -0.00000000000E+00 -0.00000000000E+00 -0.13475788241E+02  0.13475788241E+02  0.00000000000E+00 0. -1.
          2    1    1    2  502    0 -0.53687405608E+01 -0.21592871444E+02  0.91213958525E+03  0.91241092631E+03  0.00000000000E+00 0. -1.
         -2    1    1    2    0  502  0.53687405608E+01  0.21592871444E+02 -0.40621734823E+01  0.22618061937E+02  0.00000000000E+00 0. -1.
<mgrwt>
<rscale>  2 0.22250292E+02</rscale>
<asrwt>0</asrwt>
<pdfrwt beam="1">  1        2 0.14177737E+00 0.22250292E+02</pdfrwt>
<pdfrwt beam="2">  1       -2 0.20731989E-02 0.22250292E+02</pdfrwt>
<totfact> 0.16942803E+04</totfact>
</mgrwt>
</event>
<event>
 4    1  0.7653521E+003  0.2402912E+02  0.7546771E-02  0.1675352E+00
         -2   -1    0    0    0  501 -0.00000000000E+00  0.00000000000E+00  0.85496380622E+01  0.85496380622E+01  0.00000000000E+00 0.  1.
          2   -1    0    0  501    0  0.00000000000E+00 -0.00000000000E+00 -0.13167875538E+04  0.13167875538E+04  0.00000000000E+00 0.  1.
          2    1    1    2  502    0  0.20565248484E+02  0.12428556775E+02 -0.12995705604E+04  0.12997926911E+04  0.00000000000E+00 0.  1.
         -2    1    1    2    0  502 -0.20565248484E+02 -0.12428556775E+02 -0.86673553327E+01  0.25544500722E+02  0.00000000000E+00 0.  1.
<mgrwt>
<rscale>  2 0.24029117E+02</rscale>
<asrwt>0</asrwt>
<pdfrwt beam="2">  1        2 0.20258264E+00 0.24029117E+02</pdfrwt>
<pdfrwt beam="1">  1       -2 0.13153294E-02 0.24029117E+02</pdfrwt>
<totfact> 0.19885811E+04</totfact>
</mgrwt>
</event>
<event>
 4    1  0.7653521E+003  0.2352427E+02  0.7546771E-02  0.1683150E+00
          2   -1    0    0  501    0  0.00000000000E+00  0.00000000000E+00  0.19584285606E+02  0.19584285606E+02  0.00000000000E+00 0.  1.
         -2   -1    0    0    0  501 -0.00000000000E+00 -0.00000000000E+00 -0.54176458493E+02  0.54176458493E+02  0.00000000000E+00 0.  1.
          2    1    1    2  502    0 -0.23029389237E+02  0.47998370732E+01  0.82135215858E+01  0.24916924798E+02  0.00000000000E+00 0.  1.
         -2    1    1    2    0  502  0.23029389237E+02 -0.47998370732E+01 -0.42805694473E+02  0.48843819301E+02  0.00000000000E+00 0.  1.
<mgrwt>
<rscale>  2 0.23524268E+02</rscale>
<asrwt>0</asrwt>
<pdfrwt beam="1">  1        2 0.30129670E-02 0.23524268E+02</pdfrwt>
<pdfrwt beam="2">  1       -2 0.83348397E-02 0.23524268E+02</pdfrwt>
<totfact> 0.16636795E+05</totfact>
</mgrwt>
</event>
<event>
 4    1  0.7653521E+003  0.2856321E+02  0.7546771E-02  0.1614536E+00
         -2   -1    0    0    0  501 -0.00000000000E+00  0.00000000000E+00  0.81804171990E+02  0.81804171990E+02  0.00000000000E+00 0. -1.
          2   -1    0    0  501    0  0.00000000000E+00 -0.00000000000E+00 -0.17059751755E+03  0.17059751755E+03  0.00000000000E+00 0.  1.
          2    1    1    2  502    0 -0.24302955067E+01  0.28459629144E+02 -0.16685305730E+03  0.16928023971E+03  0.00000000000E+00 0.  1.
         -2    1    1    2    0  502  0.24302955067E+01 -0.28459629144E+02  0.78059711730E+02  0.83121449835E+02  0.00000000000E+00 0. -1.
<mgrwt>
<rscale>  2 0.28563208E+02</rscale>
<asrwt>0</asrwt>
<pdfrwt beam="2">  1        2 0.26245772E-01 0.28563208E+02</pdfrwt>
<pdfrwt beam="1">  1       -2 0.12585257E-01 0.28563208E+02</pdfrwt>
<totfact> 0.75300285E+03</totfact>
</mgrwt>
</event>
<event>
 4    1  0.7653521E+003  0.2053739E+02  0.7546771E-02  0.1734848E+00
          2   -1    0    0  501    0  0.00000000000E+00  0.00000000000E+00  0.35464910449E+01  0.35464910449E+01  0.00000000000E+00 0. -1.
         -2   -1    0    0    0  501 -0.00000000000E+00 -0.00000000000E+00 -0.13565362608E+03  0.13565362608E+03  0.00000000000E+00 0. -1.
          2    1    1    2  502    0  0.72231038831E+01 -0.19225262309E+02 -0.90491249139E+02  0.92792511073E+02  0.00000000000E+00 0. -1.
         -2    1    1    2    0  502 -0.72231038831E+01  0.19225262309E+02 -0.41615885900E+02  0.46407606055E+02  0.00000000000E+00 0. -1.
<mgrwt>
<rscale>  2 0.20537389E+02</rscale>
<asrwt>0</asrwt>
<pdfrwt beam="1">  1        2 0.54561402E-03 0.20537389E+02</pdfrwt>
<pdfrwt beam="2">  1       -2 0.20869788E-01 0.20537389E+02</pdfrwt>
<totfact> 0.35469762E+05</totfact>
</mgrwt>
</event>
<event>
 4    1  0.7653521E+003  0.2077976E+02  0.7546771E-02  0.1730252E+00
          2   -1    0    0  501    0  0.00000000000E+00  0.00000000000E+00  0.12462723928E+02  0.12462723928E+02  0.00000000000E+00 0. -1.
         -2   -1    0    0    0  501 -0.00000000000E+00 -0.00000000000E+00 -0.67269865754E+02  0.67269865754E+02  0.00000000000E+00 0. -1.
          2    1    1    2  502    0 -0.82124955869E+01 -0.19088041188E+02  0.35872406011E+00  0.20782855509E+02  0.00000000000E+00 0. -1.
         -2    1    1    2    0  502  0.82124955869E+01  0.19088041188E+02 -0.55165865885E+02  0.58949734173E+02  0.00000000000E+00 0. -1.
<mgrwt>
<rscale>  2 0.20779759E+02</rscale>
<asrwt>0</asrwt>
<pdfrwt beam="1">  1        2 0.19173421E-02 0.20779759E+02</pdfrwt>
<pdfrwt beam="2">  1       -2 0.10349210E-01 0.20779759E+02</pdfrwt>
<totfact> 0.20692562E+05</totfact>
</mgrwt>
</event>
<event>
 4    1  0.7653521E+003  0.2087881E+02  0.7546771E-02  0.1728396E+00
         -2   -1    0    0    0  501 -0.00000000000E+00  0.00000000000E+00  0.49661559926E+01  0.49661559926E+01  0.00000000000E+00 0.  1.
          2   -1    0    0  501    0  0.00000000000E+00 -0.00000000000E+00 -0.61274904805E+03  0.61274904805E+03  0.00000000000E+00 0. -1.
          2    1    1    2  502    0  0.41417528163E+00 -0.20874701266E+02 -0.58977172345E+03  0.59014117842E+03  0.00000000000E+00 0. -1.
         -2    1    1    2    0  502 -0.41417528163E+00  0.20874701266E+02 -0.18011168611E+02  0.27574025620E+02  0.00000000000E+00 0.  1.
<mgrwt>
<rscale>  2 0.20878810E+02</rscale>
<asrwt>0</asrwt>
<pdfrwt beam="2">  1        2 0.94269118E-01 0.20878810E+02</pdfrwt>
<pdfrwt beam="1">  1       -2 0.76402373E-03 0.20878810E+02</pdfrwt>
<totfact> 0.10181034E+05</totfact>
</mgrwt>
</event>
<event>
 4    1  0.7653521E+003  0.2584842E+02  0.7546771E-02  0.1649107E+00
         -2   -1    0    0    0  501 -0.00000000000E+00  0.00000000000E+00  0.40866676992E+01  0.40866676992E+01  0.00000000000E+00 0.  1.
          2   -1    0    0  501    0  0.00000000000E+00 -0.00000000000E+00 -0.30518400414E+03  0.30518400414E+03  0.00000000000E+00 0. -1.
          2    1    1    2  502    0 -0.12356036984E+02 -0.22703945557E+02 -0.25591437528E+03  0.25721646189E+03  0.00000000000E+00 0. -1.
         -2    1    1    2    0  502  0.12356036984E+02  0.22703945557E+02 -0.45182961157E+02  0.52054209943E+02  0.00000000000E+00 0.  1.
<mgrwt>
<rscale>  2 0.25848420E+02</rscale>
<asrwt>0</asrwt>
<pdfrwt beam="2">  1        2 0.46951380E-01 0.25848420E+02</pdfrwt>
<pdfrwt beam="1">  1       -2 0.62871818E-03 0.25848420E+02</pdfrwt>
<totfact> 0.28067260E+05</totfact>
</mgrwt>
</event>
<event>
 4    1  0.7653521E+003  0.2971017E+02  0.7546771E-02  0.1601315E+00
         -2   -1    0    0    0  501 -0.00000000000E+00  0.00000000000E+00  0.21346308620E+02  0.21346308620E+02  0.00000000000E+00 0. -1.
          2   -1    0    0  501    0  0.00000000000E+00 -0.00000000000E+00 -0.38988611208E+03  0.38988611208E+03  0.00000000000E+00 0. -1.
          2    1    1    2  502    0 -0.81190599803E+01 -0.28579271966E+02 -0.37867679347E+03  0.37984050315E+03  0.00000000000E+00 0. -1.
         -2    1    1    2    0  502  0.81190599803E+01  0.28579271966E+02  0.10136990008E+02  0.31391917551E+02  0.00000000000E+00 0. -1.
<mgrwt>
<rscale>  2 0.29710165E+02</rscale>
<asrwt>0</asrwt>
<pdfrwt beam="2">  1        2 0.59982475E-01 0.29710165E+02</pdfrwt>
<pdfrwt beam="1">  1       -2 0.32840477E-02 0.29710165E+02</pdfrwt>
<totfact> 0.23390385E+04</totfact>
</mgrwt>
</event>
<event>
 4    1  0.7653521E+003  0.2618361E+02  0.7546771E-02  0.1644561E+00
          2   -1    0    0  501    0  0.00000000000E+00  0.00000000000E+00  0.31612828648E+03  0.31612828648E+03  0.00000000000E+00 0.  1.
         -2   -1    0    0    0  501 -0.00000000000E+00 -0.00000000000E+00 -0.38072348336E+02  0.38072348336E+02  0.00000000000E+00 0.  1.
          2    1    1    2  502    0 -0.50711394029E+01 -0.25687834721E+02  0.31101033315E+03  0.31211057117E+03  0.00000000000E+00 0.  1.
         -2    1    1    2    0  502  0.50711394029E+01  0.25687834721E+02 -0.32954395008E+02  0.42090063648E+02  0.00000000000E+00 0.  1.
<mgrwt>
<rscale>  2 0.26183608E+02</rscale>
<asrwt>0</asrwt>
<pdfrwt beam="1">  1        2 0.48635119E-01 0.26183608E+02</pdfrwt>
<pdfrwt beam="2">  1       -2 0.58572846E-02 0.26183608E+02</pdfrwt>
<totfact> 0.12412748E+04</totfact>
</mgrwt>
</event>
<event>
 4    1  0.7653521E+003  0.3871261E+02  0.7546771E-02  0.1517905E+00
          2   -1    0    0  501    0  0.00000000000E+00  0.00000000000E+00  0.10129853191E+04  0.10129853191E+04  0.00000000000E+00 0.  1.
         -2   -1    0    0    0  501 -0.00000000000E+00 -0.00000000000E+00 -0.21708928908E+01  0.21708928908E+01  0.00000000000E+00 0.  1.
          2    1    1    2  502    0  0.19073421623E+02  0.33687844475E+02  0.79186474429E+03  0.79281046886E+03  0.00000000000E+00 0.  1.
         -2    1    1    2    0  502 -0.19073421623E+02 -0.33687844475E+02  0.21894968192E+03  0.22234574314E+03  0.00000000000E+00 0.  1.
<mgrwt>
<rscale>  2 0.38712611E+02</rscale>
<asrwt>0</asrwt>
<pdfrwt beam="1">  1        2 0.15584352E+00 0.38712611E+02</pdfrwt>
<pdfrwt beam="2">  1       -2 0.33398433E-03 0.38712611E+02</pdfrwt>
<totfact> 0.19931236E+05</totfact>
</mgrwt>
</event>
<event>
 4    1  0.7653521E+003  0.1007501E+03  0.7546771E-02  0.1278726E+00
          2   -1    0    0  501    0  0.00000000000E+00  0.00000000000E+00  0.20180621315E+03  0.20180621315E+03  0.00000000000E+00 0.  1.
         -2   -1    0    0    0  501 -0.00000000000E+00 -0.00000000000E+00 -0.59319634432E+03  0.59319634432E+03  0.00000000000E+00 0. -1.
          2    1    1    2  502    0 -0.97961159182E+02 -0.23541342845E+02  0.18458038438E+03  0.21028671340E+03  0.00000000000E+00 0.  1.
         -2    1    1    2    0  502  0.97961159182E+02  0.23541342845E+02 -0.57597051556E+03  0.58471584408E+03  0.00000000000E+00 0. -1.
<mgrwt>
<rscale>  2 0.10075010E+03</rscale>
<asrwt>0</asrwt>
<pdfrwt beam="1">  1        2 0.31047110E-01 0.10075010E+03</pdfrwt>
<pdfrwt beam="2">  1       -2 0.91260975E-01 0.10075010E+03</pdfrwt>
<totfact> 0.18136656E+02</totfact>
</mgrwt>
</event>
<event>
 4    1  0.7653521E+003  0.2326103E+02  0.7546771E-02  0.1687313E+00
          2   -1    0    0  501    0  0.00000000000E+00  0.00000000000E+00  0.56735873179E+01  0.56735873179E+01  0.00000000000E+00 0. -1.
         -2   -1    0    0    0  501 -0.00000000000E+00 -0.00000000000E+00 -0.98741517099E+02  0.98741517099E+02  0.00000000000E+00 0. -1.
          2    1    1    2  502    0  0.23072639918E+02  0.29544813216E+01 -0.36883261794E+02  0.43605626623E+02  0.00000000000E+00 0. -1.
         -2    1    1    2    0  502 -0.23072639918E+02 -0.29544813216E+01 -0.56184667988E+02  0.60809477794E+02  0.00000000000E+00 0. -1.
<mgrwt>
<rscale>  2 0.23261033E+02</rscale>
<asrwt>0</asrwt>
<pdfrwt beam="1">  1        2 0.87285962E-03 0.23261033E+02</pdfrwt>
<pdfrwt beam="2">  1       -2 0.15191002E-01 0.23261033E+02</pdfrwt>
<totfact> 0.33058100E+05</totfact>
</mgrwt>
</event>
<event>
 4    1  0.7653521E+003  0.2464057E+02  0.7546771E-02  0.1666219E+00
          2   -1    0    0  501    0  0.00000000000E+00  0.00000000000E+00  0.16721341208E+03  0.16721341208E+03  0.00000000000E+00 0.  1.
         -2   -1    0    0    0  501 -0.00000000000E+00 -0.00000000000E+00 -0.57660075189E+03  0.57660075189E+03  0.00000000000E+00 0.  1.
          2    1    1    2  502    0  0.17562935461E+02  0.17282974449E+02  0.16604055488E+03  0.16785894011E+03  0.00000000000E+00 0.  1.
         -2    1    1    2    0  502 -0.17562935461E+02 -0.17282974449E+02 -0.57542789469E+03  0.57595522386E+03  0.00000000000E+00 0.  1.
<mgrwt>
<rscale>  2 0.24640574E+02</rscale>
<asrwt>0</asrwt>
<pdfrwt beam="1">  1        2 0.25725140E-01 0.24640574E+02</pdfrwt>
<pdfrwt beam="2">  1       -2 0.88707810E-01 0.24640574E+02</pdfrwt>
<totfact> 0.23037404E+02</totfact>
</mgrwt>
</event>
<event>
 4    1  0.7653521E+003  0.3192297E+02  0.7546771E-02  0.1577756E+00
         -2   -1    0    0    0  501 -0.00000000000E+00  0.00000000000E+00  0.49382076177E+02  0.49382076177E+02  0.00000000000E+00 0.  1.
          2   -1    0    0  501    0  0.00000000000E+00 -0.00000000000E+00 -0.23327806507E+03  0.23327806507E+03  0.00000000000E+00 0.  1.
          2    1    1    2  502    0  0.31775737567E+02 -0.30624088715E+01 -0.22688207355E+03  0.22911689406E+03  0.00000000000E+00 0.  1.
         -2    1    1    2    0  502 -0.31775737567E+02  0.30624088715E+01  0.42986084652E+02  0.53543247191E+02  0.00000000000E+00 0.  1.
<mgrwt>
<rscale>  2 0.31922967E+02</rscale>
<asrwt>0</asrwt>
<pdfrwt beam="2">  1        2 0.35888933E-01 0.31922967E+02</pdfrwt>
<pdfrwt beam="1">  1       -2 0.75972425E-02 0.31922967E+02</pdfrwt>
<totfact> 0.11841383E+04</totfact>
</mgrwt>
</event>
<event>
 4    1  0.7653521E+003  0.6532361E+02  0.7546771E-02  0.1376758E+00
          2   -1    0    0  501    0  0.00000000000E+00  0.00000000000E+00  0.17995555673E+04  0.17995555673E+04  0.00000000000E+00 0.  1.
         -2   -1    0    0    0  501 -0.00000000000E+00 -0.00000000000E+00 -0.27040153688E+01  0.27040153688E+01  0.00000000000E+00 0.  1.
          2    1    1    2  502    0  0.42305800101E+02 -0.49773415412E+02  0.12145516206E+04  0.12163070388E+04  0.00000000000E+00 0.  1.
         -2    1    1    2    0  502 -0.42305800101E+02  0.49773415412E+02  0.58229993140E+03  0.58595254391E+03  0.00000000000E+00 0.  1.
<mgrwt>
<rscale>  2 0.65323607E+02</rscale>
<asrwt>0</asrwt>
<pdfrwt beam="1">  1        2 0.27685375E+00 0.65323607E+02</pdfrwt>
<pdfrwt beam="2">  1       -2 0.41600380E-03 0.65323607E+02</pdfrwt>
<totfact> 0.63438209E+04</totfact>
</mgrwt>
</event>
<event>
 4    1  0.7653521E+003  0.2913429E+02  0.7546771E-02  0.1607860E+00
         -2   -1    0    0    0  501 -0.00000000000E+00  0.00000000000E+00  0.10252678786E+02  0.10252678786E+02  0.00000000000E+00 0.  1.
          2   -1    0    0  501    0  0.00000000000E+00 -0.00000000000E+00 -0.89372828962E+02  0.89372828962E+02  0.00000000000E+00 0.  1.
          2    1    1    2  502    0 -0.61906421317E+01 -0.28468976208E+02 -0.53080323963E+02  0.60550206014E+02  0.00000000000E+00 0.  1.
         -2    1    1    2    0  502  0.61906421317E+01  0.28468976208E+02 -0.26039826213E+02  0.39075301734E+02  0.00000000000E+00 0.  1.
<mgrwt>
<rscale>  2 0.29134287E+02</rscale>
<asrwt>0</asrwt>
<pdfrwt beam="2">  1        2 0.13749666E-01 0.29134287E+02</pdfrwt>
<pdfrwt beam="1">  1       -2 0.15773352E-02 0.29134287E+02</pdfrwt>
<totfact> 0.29838399E+05</totfact>
</mgrwt>
</event>
<event>
 4    1  0.7653521E+003  0.2151577E+02  0.7546771E-02  0.1716764E+00
          2   -1    0    0  501    0  0.00000000000E+00  0.00000000000E+00  0.86573481284E+03  0.86573481284E+03  0.00000000000E+00 0. -1.
         -2   -1    0    0    0  501 -0.00000000000E+00 -0.00000000000E+00 -0.58420981807E+01  0.58420981807E+01  0.00000000000E+00 0.  1.
          2    1    1    2  502    0  0.15432768838E+02 -0.14991937017E+02  0.84531258280E+03  0.84558635938E+03  0.00000000000E+00 0. -1.
         -2    1    1    2    0  502 -0.15432768838E+02  0.14991937017E+02  0.14580131858E+02  0.25990551640E+02  0.00000000000E+00 0.  1.
<mgrwt>
<rscale>  2 0.21515774E+02</rscale>
<asrwt>0</asrwt>
<pdfrwt beam="1">  1        2 0.13318987E+00 0.21515774E+02</pdfrwt>
<pdfrwt beam="2">  1       -2 0.89878502E-03 0.21515774E+02</pdfrwt>
<totfact> 0.56415500E+04</totfact>
</mgrwt>
</event>
<event>
 4    1  0.7653521E+003  0.2245242E+02  0.7546771E-02  0.1700543E+00
          2   -1    0    0  501    0  0.00000000000E+00  0.00000000000E+00  0.58510144846E+03  0.58510144846E+03  0.00000000000E+00 0.  1.
         -2   -1    0    0    0  501 -0.00000000000E+00 -0.00000000000E+00 -0.88225642118E+00  0.88225642118E+00  0.00000000000E+00 0.  1.
          2    1    1    2  502    0 -0.21648069416E+02  0.59558520469E+01  0.33696419681E+03  0.33771138716E+03  0.00000000000E+00 0.  1.
         -2    1    1    2    0  502  0.21648069416E+02 -0.59558520469E+01  0.24725499522E+03  0.24827231772E+03  0.00000000000E+00 0.  1.
<mgrwt>
<rscale>  2 0.22452418E+02</rscale>
<asrwt>0</asrwt>
<pdfrwt beam="1">  1        2 0.90015297E-01 0.22452418E+02</pdfrwt>
<pdfrwt beam="2">  1       -2 0.13573222E-03 0.22452418E+02</pdfrwt>
<totfact> 0.10838586E+06</totfact>
</mgrwt>
</event>
<event>
 4    1  0.7653521E+003  0.3141617E+02  0.7546771E-02  0.1582942E+00
         -2   -1    0    0    0  501 -0.00000000000E+00  0.00000000000E+00  0.30992308921E+02  0.30992308921E+02  0.00000000000E+00 0.  1.
          2   -1    0    0  501    0  0.00000000000E+00 -0.00000000000E+00 -0.10890392938E+03  0.10890392938E+03  0.00000000000E+00 0.  1.
          2    1    1    2  502    0  0.14559245251E+02  0.27838890657E+02 -0.97794561095E+02  0.10271685176E+03  0.00000000000E+00 0.  1.
         -2    1    1    2    0  502 -0.14559245251E+02 -0.27838890657E+02  0.19882940637E+02  0.37179386543E+02  0.00000000000E+00 0.  1.
<mgrwt>
<rscale>  2 0.31416166E+02</rscale>
<asrwt>0</asrwt>
<pdfrwt beam="2">  1        2 0.16754451E-01 0.31416166E+02</pdfrwt>
<pdfrwt beam="1">  1       -2 0.47680476E-02 0.31416166E+02</pdfrwt>
<totfact> 0.51746198E+04</totfact>
</mgrwt>
</event>
<event>
 4    1  0.7653521E+003  0.2207488E+02  0.7546771E-02  0.1706960E+00
          2   -1    0    0  501    0  0.00000000000E+00  0.00000000000E+00  0.18582502176E+04  0.18582502176E+04  0.00000000000E+00 0. -1.
         -2   -1    0    0    0  501 -0.00000000000E+00 -0.00000000000E+00 -0.50223824797E+00  0.50223824797E+00  0.00000000000E+00 0. -1.
          2    1    1    2  502    0 -0.32492825738E+01  0.21834438320E+02  0.15713310607E+04  0.15714861129E+04  0.00000000000E+00 0. -1.
         -2    1    1    2    0  502  0.32492825738E+01 -0.21834438320E+02  0.28641691862E+03  0.28726634298E+03  0.00000000000E+00 0. -1.
<mgrwt>
<rscale>  2 0.22074885E+02</rscale>
<asrwt>0</asrwt>
<pdfrwt beam="1">  1        2 0.28587914E+00 0.22074885E+02</pdfrwt>
<pdfrwt beam="2">  1       -2 0.77268911E-04 0.22074885E+02</pdfrwt>
<totfact> 0.47677497E+05</totfact>
</mgrwt>
</event>
<event>
 4    1  0.7653521E+003  0.3409795E+02  0.7546771E-02  0.1556760E+00
          2   -1    0    0  501    0  0.00000000000E+00  0.00000000000E+00  0.17561200667E+03  0.17561200667E+03  0.00000000000E+00 0. -1.
         -2   -1    0    0    0  501 -0.00000000000E+00 -0.00000000000E+00 -0.57345993928E+02  0.57345993928E+02  0.00000000000E+00 0. -1.
          2    1    1    2  502    0  0.23757156016E+02  0.24459515309E+02  0.16868202150E+03  0.17209385442E+03  0.00000000000E+00 0. -1.
         -2    1    1    2    0  502 -0.23757156016E+02 -0.24459515309E+02 -0.50416008758E+02  0.60864146180E+02  0.00000000000E+00 0. -1.
<mgrwt>
<rscale>  2 0.34097952E+02</rscale>
<asrwt>0</asrwt>
<pdfrwt beam="1">  1        2 0.27017231E-01 0.34097952E+02</pdfrwt>
<pdfrwt beam="2">  1       -2 0.88224607E-02 0.34097952E+02</pdfrwt>
<totfact> 0.12807993E+04</totfact>
</mgrwt>
</event>
<event>
 4    1  0.7653521E+003  0.2465301E+02  0.7546771E-02  0.1666036E+00
         -2   -1    0    0    0  501 -0.00000000000E+00  0.00000000000E+00  0.13289937347E+01  0.13289937347E+01  0.00000000000E+00 0.  1.
          2   -1    0    0  501    0  0.00000000000E+00 -0.00000000000E+00 -0.90308639014E+03  0.90308639014E+03  0.00000000000E+00 0.  1.
          2    1    1    2  502    0  0.20557490596E+02  0.13607376310E+02 -0.76858697928E+03  0.76898225976E+03  0.00000000000E+00 0.  1.
         -2    1    1    2    0  502 -0.20557490596E+02 -0.13607376310E+02 -0.13317041713E+03  0.13543312411E+03  0.00000000000E+00 0.  1.
<mgrwt>
<rscale>  2 0.24653014E+02</rscale>
<asrwt>0</asrwt>
<pdfrwt beam="2">  1        2 0.13893723E+00 0.24653014E+02</pdfrwt>
<pdfrwt beam="1">  1       -2 0.20445931E-03 0.24653014E+02</pdfrwt>
<totfact> 0.40109562E+05</totfact>
</mgrwt>
</event>
<event>
 4    1  0.7653521E+003  0.4039459E+02  0.7546771E-02  0.1505328E+00
          2   -1    0    0  501    0  0.00000000000E+00  0.00000000000E+00  0.18989858513E+03  0.18989858513E+03  0.00000000000E+00 0. -1.
         -2   -1    0    0    0  501 -0.00000000000E+00 -0.00000000000E+00 -0.30278363622E+02  0.30278363622E+02  0.00000000000E+00 0.  1.
          2    1    1    2  502    0  0.21384475394E+02  0.34269911808E+02  0.17297730348E+03  0.17763127586E+03  0.00000000000E+00 0. -1.
         -2    1    1    2    0  502 -0.21384475394E+02 -0.34269911808E+02 -0.13357081973E+02  0.42545672895E+02  0.00000000000E+00 0.  1.
<mgrwt>
<rscale>  2 0.40394587E+02</rscale>
<asrwt>0</asrwt>
<pdfrwt beam="1">  1        2 0.29215166E-01 0.40394587E+02</pdfrwt>
<pdfrwt beam="2">  1       -2 0.46582099E-02 0.40394587E+02</pdfrwt>
<totfact> 0.30899639E+04</totfact>
</mgrwt>
</event>
<event>
 4    1  0.7653521E+003  0.2103075E+02  0.7546771E-02  0.1725575E+00
          2   -1    0    0  501    0  0.00000000000E+00  0.00000000000E+00  0.89128542745E+03  0.89128542745E+03  0.00000000000E+00 0. -1.
         -2   -1    0    0    0  501 -0.00000000000E+00 -0.00000000000E+00 -0.83373235198E+01  0.83373235198E+01  0.00000000000E+00 0.  1.
          2    1    1    2  502    0  0.79794401402E+01 -0.19458180125E+02  0.87769360015E+03  0.87794552677E+03  0.00000000000E+00 0. -1.
         -2    1    1    2    0  502 -0.79794401402E+01  0.19458180125E+02  0.52545037768E+01  0.21677224192E+02  0.00000000000E+00 0.  1.
<mgrwt>
<rscale>  2 0.21030745E+02</rscale>
<asrwt>0</asrwt>
<pdfrwt beam="1">  1        2 0.13712076E+00 0.21030745E+02</pdfrwt>
<pdfrwt beam="2">  1       -2 0.12826659E-02 0.21030745E+02</pdfrwt>
<totfact> 0.33596851E+04</totfact>
</mgrwt>
</event>
<event>
 4    1  0.7653521E+003  0.2402297E+02  0.7546771E-02  0.1675445E+00
         -2   -1    0    0    0  501 -0.00000000000E+00  0.00000000000E+00  0.54327165535E+02  0.54327165535E+02  0.00000000000E+00 0.  1.
          2   -1    0    0  501    0  0.00000000000E+00 -0.00000000000E+00 -0.92563504442E+02  0.92563504442E+02  0.00000000000E+00 0.  1.
          2    1    1    2  502    0 -0.67495722218E+01 -0.23055288301E+02 -0.88220762197E+02  0.91433068014E+02  0.00000000000E+00 0.  1.
         -2    1    1    2    0  502  0.67495722218E+01  0.23055288301E+02  0.49984423290E+02  0.55457601963E+02  0.00000000000E+00 0.  1.
<mgrwt>
<rscale>  2 0.24022969E+02</rscale>
<asrwt>0</asrwt>
<pdfrwt beam="2">  1        2 0.14240539E-01 0.24022969E+02</pdfrwt>
<pdfrwt beam="1">  1       -2 0.83580256E-02 0.24022969E+02</pdfrwt>
<totfact> 0.26048981E+04</totfact>
</mgrwt>
</event>
<event>
 4    1  0.7653521E+003  0.2269307E+02  0.7546771E-02  0.1696534E+00
          2   -1    0    0  501    0  0.00000000000E+00  0.00000000000E+00  0.85452050408E+03  0.85452050408E+03  0.00000000000E+00 0.  1.
         -2   -1    0    0    0  501 -0.00000000000E+00 -0.00000000000E+00 -0.48267866113E+03  0.48267866113E+03  0.00000000000E+00 0.  1.
          2    1    1    2  502    0  0.11518852842E+02 -0.19552270758E+02  0.85410298387E+03  0.85440440209E+03  0.00000000000E+00 0.  1.
         -2    1    1    2    0  502 -0.11518852842E+02  0.19552270758E+02 -0.48226114092E+03  0.48279476312E+03  0.00000000000E+00 0.  1.
<mgrwt>
<rscale>  2 0.22693066E+02</rscale>
<asrwt>0</asrwt>
<pdfrwt beam="1">  1        2 0.13146469E+00 0.22693066E+02</pdfrwt>
<pdfrwt beam="2">  1       -2 0.74258256E-01 0.22693066E+02</pdfrwt>
<totfact> 0.63287019E+01</totfact>
</mgrwt>
</event>
<event>
 4    1  0.7653521E+003  0.2454498E+02  0.7546771E-02  0.1667625E+00
         -2   -1    0    0    0  501 -0.00000000000E+00  0.00000000000E+00  0.32104465168E+01  0.32104465168E+01  0.00000000000E+00 0. -1.
          2   -1    0    0  501    0  0.00000000000E+00 -0.00000000000E+00 -0.29786861425E+03  0.29786861425E+03  0.00000000000E+00 0.  1.
          2    1    1    2  502    0  0.60472866183E+01  0.23788365749E+02 -0.23889967197E+03  0.24015725949E+03  0.00000000000E+00 0.  1.
         -2    1    1    2    0  502 -0.60472866183E+01 -0.23788365749E+02 -0.55758495759E+02  0.60921801268E+02  0.00000000000E+00 0. -1.
<mgrwt>
<rscale>  2 0.24544980E+02</rscale>
<asrwt>0</asrwt>
<pdfrwt beam="2">  1        2 0.45825943E-01 0.24544980E+02</pdfrwt>
<pdfrwt beam="1">  1       -2 0.49391482E-03 0.24544980E+02</pdfrwt>
<totfact> 0.39221957E+05</totfact>
</mgrwt>
</event>
<event>
 4    1  0.7653521E+003  0.2238950E+02  0.7546771E-02  0.1701602E+00
         -2   -1    0    0    0  501 -0.00000000000E+00  0.00000000000E+00  0.17233478479E+04  0.17233478479E+04  0.00000000000E+00 0.  1.
          2   -1    0    0  501    0  0.00000000000E+00 -0.00000000000E+00 -0.12596854764E+01  0.12596854764E+01  0.00000000000E+00 0. -1.
          2    1    1    2  502    0  0.80620031525E+01  0.20887644627E+02  0.10482569503E+03  0.10719009251E+03  0.00000000000E+00 0. -1.
         -2    1    1    2    0  502 -0.80620031525E+01 -0.20887644627E+02  0.16172624674E+04  0.16174174408E+04  0.00000000000E+00 0.  1.
<mgrwt>
<rscale>  2 0.22389497E+02</rscale>
<asrwt>0</asrwt>
<pdfrwt beam="2">  1        2 0.19379914E-03 0.22389497E+02</pdfrwt>
<pdfrwt beam="1">  1       -2 0.26512855E+00 0.22389497E+02</pdfrwt>
<totfact> 0.60932690E+03</totfact>
</mgrwt>
</event>
<event>
 4    1  0.7653521E+003  0.2288297E+02  0.7546771E-02  0.1693414E+00
          2   -1    0    0  501    0  0.00000000000E+00  0.00000000000E+00  0.76207290924E+03  0.76207290924E+03  0.00000000000E+00 0.  1.
         -2   -1    0    0    0  501 -0.00000000000E+00 -0.00000000000E+00 -0.25727702081E+01  0.25727702081E+01  0.00000000000E+00 0. -1.
          2    1    1    2  502    0 -0.15765685237E+02 -0.16585337742E+02  0.70706145205E+03  0.70743164139E+03  0.00000000000E+00 0.  1.
         -2    1    1    2    0  502  0.15765685237E+02  0.16585337742E+02  0.52438686983E+02  0.57214038064E+02  0.00000000000E+00 0. -1.
<mgrwt>
<rscale>  2 0.22882969E+02</rscale>
<asrwt>0</asrwt>
<pdfrwt beam="1">  1        2 0.11724181E+00 0.22882969E+02</pdfrwt>
<pdfrwt beam="2">  1       -2 0.39581141E-03 0.22882969E+02</pdfrwt>
<totfact> 0.19850678E+05</totfact>
</mgrwt>
</event>
<event>
 4    1  0.7653521E+003  0.2143003E+02  0.7546771E-02  0.1718300E+00
         -2   -1    0    0    0  501 -0.00000000000E+00  0.00000000000E+00  0.10809897802E+01  0.10809897802E+01  0.00000000000E+00 0.  1.
          2   -1    0    0  501    0  0.00000000000E+00 -0.00000000000E+00 -0.75165198628E+03  0.75165198628E+03  0.00000000000E+00 0. -1.
          2    1    1    2  502    0  0.21061268766E+02  0.39584126455E+01 -0.62345735456E+03  0.62382555176E+03  0.00000000000E+00 0. -1.
         -2    1    1    2    0  502 -0.21061268766E+02 -0.39584126455E+01 -0.12711364194E+03  0.12890742430E+03  0.00000000000E+00 0.  1.
<mgrwt>
<rscale>  2 0.21430027E+02</rscale>
<asrwt>0</asrwt>
<pdfrwt beam="2">  1        2 0.11563843E+00 0.21430027E+02</pdfrwt>
<pdfrwt beam="1">  1       -2 0.16630661E-03 0.21430027E+02</pdfrwt>
<totfact> 0.62565598E+05</totfact>
</mgrwt>
</event>
<event>
 4    1  0.7653521E+003  0.3028380E+02  0.7546771E-02  0.1594973E+00
          2   -1    0    0  501    0  0.00000000000E+00  0.00000000000E+00  0.15133542990E+04  0.15133542990E+04  0.00000000000E+00 0. -1.
         -2   -1    0    0    0  501 -0.00000000000E+00 -0.00000000000E+00 -0.33313460207E+01  0.33313460207E+01  0.00000000000E+00 0.  1.
          2    1    1    2  502    0 -0.29644580647E+02  0.61893189785E+01  0.14409191861E+04  0.14412373884E+04  0.00000000000E+00 0. -1.
         -2    1    1    2    0  502  0.29644580647E+02 -0.61893189785E+01  0.69103766870E+02  0.75448256619E+02  0.00000000000E+00 0.  1.
<mgrwt>
<rscale>  2 0.30283805E+02</rscale>
<asrwt>0</asrwt>
<pdfrwt beam="1">  1        2 0.23282319E+00 0.30283805E+02</pdfrwt>
<pdfrwt beam="2">  1       -2 0.51251598E-03 0.30283805E+02</pdfrwt>
<totfact> 0.59360447E+04</totfact>
</mgrwt>
</event>
<event>
 4    1  0.7653521E+003  0.2718778E+02  0.7546771E-02  0.1631431E+00
          2   -1    0    0  501    0  0.00000000000E+00  0.00000000000E+00  0.14844854991E+02  0.14844854991E+02  0.00000000000E+00 0. -1.
         -2   -1    0    0    0  501 -0.00000000000E+00 -0.00000000000E+00 -0.21379765513E+03  0.21379765513E+03  0.00000000000E+00 0.  1.
          2    1    1    2  502    0 -0.98288328040E+01 -0.25348950405E+02  0.65104233203E+00  0.27195571276E+02  0.00000000000E+00 0. -1.
         -2    1    1    2    0  502  0.98288328040E+01  0.25348950405E+02 -0.19960384247E+03  0.20144693884E+03  0.00000000000E+00 0.  1.
<mgrwt>
<rscale>  2 0.27187777E+02</rscale>
<asrwt>0</asrwt>
<pdfrwt beam="1">  1        2 0.22838238E-02 0.27187777E+02</pdfrwt>
<pdfrwt beam="2">  1       -2 0.32891947E-01 0.27187777E+02</pdfrwt>
<totfact> 0.27715884E+04</totfact>
</mgrwt>
</event>
<event>
 4    1  0.7653521E+003  0.2216661E+02  0.7546771E-02  0.1705386E+00
          2   -1    0    0  501    0  0.00000000000E+00  0.00000000000E+00  0.12905679302E+04  0.12905679302E+04  0.00000000000E+00 0.  1.
         -2   -1    0    0    0  501 -0.00000000000E+00 -0.00000000000E+00 -0.89968078427E+01  0.89968078427E+01  0.00000000000E+00 0.  1.
          2    1    1    2  502    0  0.57611196698E+01  0.21404864330E+02  0.12766704323E+04  0.12768628553E+04  0.00000000000E+00 0.  1.
         -2    1    1    2    0  502 -0.57611196698E+01 -0.21404864330E+02  0.49006901422E+01  0.22701882757E+02  0.00000000000E+00 0.  1.
<mgrwt>
<rscale>  2 0.22166613E+02</rscale>
<asrwt>0</asrwt>
<pdfrwt beam="1">  1        2 0.19854877E+00 0.22166613E+02</pdfrwt>
<pdfrwt beam="2">  1       -2 0.13841253E-02 0.22166613E+02</pdfrwt>
<totfact> 0.18902007E+04</totfact>
</mgrwt>
</event>
<event>
 4    1  0.7653521E+003  0.2563783E+02  0.7546771E-02  0.1652006E+00
         -2   -1    0    0    0  501 -0.00000000000E+00  0.00000000000E+00  0.80930526009E+02  0.80930526009E+02  0.00000000000E+00 0.  1.
          2   -1    0    0  501    0  0.00000000000E+00 -0.00000000000E+00 -0.15556226588E+04  0.15556226588E+04  0.00000000000E+00 0. -1.
          2    1    1    2  502    0 -0.21221562642E+02  0.14385532649E+02 -0.15534837909E+04  0.15536953327E+04  0.00000000000E+00 0. -1.
         -2    1    1    2    0  502  0.21221562642E+02 -0.14385532649E+02  0.78791658102E+02  0.82857852114E+02  0.00000000000E+00 0.  1.
<mgrwt>
<rscale>  2 0.25637829E+02</rscale>
<asrwt>0</asrwt>
<pdfrwt beam="2">  1        2 0.23932657E+00 0.25637829E+02</pdfrwt>
<pdfrwt beam="1">  1       -2 0.12450850E-01 0.25637829E+02</pdfrwt>
<totfact> 0.62907924E+02</totfact>
</mgrwt>
</event>
<event>
 4    1  0.7653521E+003  0.4690030E+02  0.7546771E-02  0.1462816E+00
         -2   -1    0    0    0  501 -0.00000000000E+00  0.00000000000E+00  0.57984262094E+02  0.57984262094E+02  0.00000000000E+00 0. -1.
          2   -1    0    0  501    0  0.00000000000E+00 -0.00000000000E+00 -0.36918267090E+03  0.36918267090E+03  0.00000000000E+00 0.  1.
          2    1    1    2  502    0 -0.37418846397E+02 -0.28274874182E+02 -0.35791199036E+03  0.36097178757E+03  0.00000000000E+00 0.  1.
         -2    1    1    2    0  502  0.37418846397E+02  0.28274874182E+02  0.46713581557E+02  0.66195145423E+02  0.00000000000E+00 0. -1.
<mgrwt>
<rscale>  2 0.46900305E+02</rscale>
<asrwt>0</asrwt>
<pdfrwt beam="2">  1        2 0.56797333E-01 0.46900305E+02</pdfrwt>
<pdfrwt beam="1">  1       -2 0.89206558E-02 0.46900305E+02</pdfrwt>
<totfact> 0.61159861E+03</totfact>
</mgrwt>
</event>
<event>
 4    1  0.7653521E+003  0.2354762E+02  0.7546771E-02  0.1682784E+00
         -2   -1    0    0    0  501 -0.00000000000E+00  0.00000000000E+00  0.47768391649E+00  0.47768391649E+00  0.00000000000E+00 0.  1.
          2   -1    0    0  501    0  0.00000000000E+00 -0.00000000000E+00 -0.17783250046E+04  0.17783250046E+04  0.00000000000E+00 0. -1.
          2    1    1    2  502    0 -0.83066201062E+01  0.22033839660E+02 -0.36481237774E+03  0.36557155384E+03  0.00000000000E+00 0.  1.
         -2    1    1    2    0  502  0.83066201062E+01 -0.22033839660E+02 -0.14130349429E+04  0.14132311347E+04  0.00000000000E+00 0. -1.
<mgrwt>
<rscale>  2 0.23547624E+02</rscale>
<asrwt>0</asrwt>
<pdfrwt beam="2">  1        2 0.27358583E+00 0.23547624E+02</pdfrwt>
<pdfrwt beam="1">  1       -2 0.73490541E-04 0.23547624E+02</pdfrwt>
<totfact> 0.56349821E+05</totfact>
</mgrwt>
</event>
<event>
 4    1  0.7653521E+003  0.2585512E+02  0.7546771E-02  0.1649015E+00
         -2   -1    0    0    0  501 -0.00000000000E+00  0.00000000000E+00  0.20024548943E+01  0.20024548943E+01  0.00000000000E+00 0.  1.
          2   -1    0    0  501    0  0.00000000000E+00 -0.00000000000E+00 -0.13631999875E+04  0.13631999875E+04  0.00000000000E+00 0.  1.
          2    1    1    2  502    0 -0.13784649829E+02 -0.21873967263E+02 -0.12737592836E+04  0.12740216637E+04  0.00000000000E+00 0.  1.
         -2    1    1    2    0  502  0.13784649829E+02  0.21873967263E+02 -0.87438249043E+02  0.91180778734E+02  0.00000000000E+00 0.  1.
<mgrwt>
<rscale>  2 0.25855116E+02</rscale>
<asrwt>0</asrwt>
<pdfrwt beam="2">  1        2 0.20972256E+00 0.25855116E+02</pdfrwt>
<pdfrwt beam="1">  1       -2 0.30807074E-03 0.25855116E+02</pdfrwt>
<totfact> 0.13527641E+05</totfact>
</mgrwt>
</event>
<event>
 4    1  0.7653521E+003  0.4244375E+02  0.7546771E-02  0.1490961E+00
          2   -1    0    0  501    0  0.00000000000E+00  0.00000000000E+00  0.37669789063E+03  0.37669789063E+03  0.00000000000E+00 0. -1.
         -2   -1    0    0    0  501 -0.00000000000E+00 -0.00000000000E+00 -0.89471043037E+01  0.89471043037E+01  0.00000000000E+00 0.  1.
          2    1    1    2  502    0 -0.26986941723E+02 -0.32759374696E+02  0.31543277741E+03  0.31827552328E+03  0.00000000000E+00 0. -1.
         -2    1    1    2    0  502  0.26986941723E+02  0.32759374696E+02  0.52318008917E+02  0.67369471655E+02  0.00000000000E+00 0.  1.
<mgrwt>
<rscale>  2 0.42443747E+02</rscale>
<asrwt>0</asrwt>
<pdfrwt beam="1">  1        2 0.57953509E-01 0.42443747E+02</pdfrwt>
<pdfrwt beam="2">  1       -2 0.13764779E-02 0.42443747E+02</pdfrwt>
<totfact> 0.86795911E+04</totfact>
</mgrwt>
</event>
<event>
 4    1  0.7653521E+003  0.2618809E+02  0.7546771E-02  0.1644501E+00
          2   -1    0    0  501    0  0.00000000000E+00  0.00000000000E+00  0.85390585928E+01  0.85390585928E+01  0.00000000000E+00 0.  1.
         -2   -1    0    0    0  501 -0.00000000000E+00 -0.00000000000E+00 -0.80346110256E+02  0.80346110256E+02  0.00000000000E+00 0. -1.
          2    1    1    2  502    0 -0.27095064071E+01  0.26047543385E+02 -0.35031398758E+02  0.43738025108E+02  0.00000000000E+00 0.  1.
         -2    1    1    2    0  502  0.27095064071E+01 -0.26047543385E+02 -0.36775652905E+02  0.45147143741E+02  0.00000000000E+00 0. -1.
<mgrwt>
<rscale>  2 0.26188088E+02</rscale>
<asrwt>0</asrwt>
<pdfrwt beam="1">  1        2 0.13137014E-02 0.26188088E+02</pdfrwt>
<pdfrwt beam="2">  1       -2 0.12360940E-01 0.26188088E+02</pdfrwt>
<totfact> 0.27615644E+05</totfact>
</mgrwt>
</event>
<event>
 4    1  0.7653521E+003  0.2335041E+02  0.7546771E-02  0.1685892E+00
          2   -1    0    0  501    0  0.00000000000E+00  0.00000000000E+00  0.93193477944E+03  0.93193477944E+03  0.00000000000E+00 0.  1.
         -2   -1    0    0    0  501 -0.00000000000E+00 -0.00000000000E+00 -0.29242723342E+01  0.29242723342E+01  0.00000000000E+00 0.  1.
          2    1    1    2  502    0 -0.23093702011E+02  0.34529230889E+01  0.88256818295E+03  0.88287702388E+03  0.00000000000E+00 0.  1.
         -2    1    1    2    0  502  0.23093702011E+02 -0.34529230889E+01  0.46442324160E+02  0.51982027892E+02  0.00000000000E+00 0.  1.
<mgrwt>
<rscale>  2 0.23350412E+02</rscale>
<asrwt>0</asrwt>
<pdfrwt beam="1">  1        2 0.14337434E+00 0.23350412E+02</pdfrwt>
<pdfrwt beam="2">  1       -2 0.44988880E-03 0.23350412E+02</pdfrwt>
<totfact> 0.13315008E+05</totfact>
</mgrwt>
</event>
<event>
 4    1  0.7653521E+003  0.3486837E+02  0.7546771E-02  0.1549773E+00
          2   -1    0    0  501    0  0.00000000000E+00  0.00000000000E+00  0.16684045768E+02  0.16684045768E+02  0.00000000000E+00 0. -1.
         -2   -1    0    0    0  501 -0.00000000000E+00 -0.00000000000E+00 -0.83652221636E+02  0.83652221636E+02  0.00000000000E+00 0.  1.
          2    1    1    2  502    0 -0.46979211089E+01 -0.34550437251E+02 -0.15474700008E+02  0.38147994932E+02  0.00000000000E+00 0. -1.
         -2    1    1    2    0  502  0.46979211089E+01  0.34550437251E+02 -0.51493475861E+02  0.62188272473E+02  0.00000000000E+00 0.  1.
<mgrwt>
<rscale>  2 0.34868369E+02</rscale>
<asrwt>0</asrwt>
<pdfrwt beam="1">  1        2 0.25667763E-02 0.34868369E+02</pdfrwt>
<pdfrwt beam="2">  1       -2 0.12869573E-01 0.34868369E+02</pdfrwt>
<totfact> 0.11722211E+05</totfact>
</mgrwt>
</event>
<event>
 4    1  0.7653521E+003  0.3734287E+02  0.7546771E-02  0.1528728E+00
         -2   -1    0    0    0  501 -0.00000000000E+00  0.00000000000E+00  0.30899382286E+01  0.30899382286E+01  0.00000000000E+00 0. -1.
          2   -1    0    0  501    0  0.00000000000E+00 -0.00000000000E+00 -0.10052742386E+04  0.10052742386E+04  0.00000000000E+00 0.  1.
          2    1    1    2  502    0  0.19849576544E+02  0.31630436450E+02 -0.87536625839E+03  0.87616241447E+03  0.00000000000E+00 0.  1.
         -2    1    1    2    0  502 -0.19849576544E+02 -0.31630436450E+02 -0.12681804196E+03  0.13220176234E+03  0.00000000000E+00 0. -1.
<mgrwt>
<rscale>  2 0.37342873E+02</rscale>
<asrwt>0</asrwt>
<pdfrwt beam="2">  1        2 0.15465757E+00 0.37342873E+02</pdfrwt>
<pdfrwt beam="1">  1       -2 0.47537512E-03 0.37342873E+02</pdfrwt>
<totfact> 0.12366316E+05</totfact>
</mgrwt>
</event>
<event>
 4    1  0.7653521E+003  0.1099202E+03  0.7546771E-02  0.1260718E+00
         -2   -1    0    0    0  501 -0.00000000000E+00  0.00000000000E+00  0.17599401901E+03  0.17599401901E+03  0.00000000000E+00 0. -1.
          2   -1    0    0  501    0  0.00000000000E+00 -0.00000000000E+00 -0.46070976338E+03  0.46070976338E+03  0.00000000000E+00 0. -1.
          2    1    1    2  502    0  0.99571836049E+02 -0.46560724514E+02 -0.43603383981E+03  0.44967539521E+03  0.00000000000E+00 0. -1.
         -2    1    1    2    0  502 -0.99571836049E+02  0.46560724514E+02  0.15131809544E+03  0.18702838717E+03  0.00000000000E+00 0. -1.
<mgrwt>
<rscale>  2 0.10992021E+03</rscale>
<asrwt>0</asrwt>
<pdfrwt beam="2">  1        2 0.70878426E-01 0.10992021E+03</pdfrwt>
<pdfrwt beam="1">  1       -2 0.27076003E-01 0.10992021E+03</pdfrwt>
<totfact> 0.83726184E+02</totfact>
</mgrwt>
</event>
<event>
 4    1  0.7653521E+003  0.2339303E+02  0.7546771E-02  0.1685217E+00
          2   -1    0    0  501    0  0.00000000000E+00  0.00000000000E+00  0.37675874324E+02  0.37675874324E+02  0.00000000000E+00 0. -1.
         -2   -1    0    0    0  501 -0.00000000000E+00 -0.00000000000E+00 -0.18339244010E+02  0.18339244010E+02  0.00000000000E+00 0. -1.
          2    1    1    2  502    0  0.74514400144E+01  0.22174528913E+02  0.22441566325E+02  0.32416933691E+02  0.00000000000E+00 0. -1.
         -2    1    1    2    0  502 -0.74514400144E+01 -0.22174528913E+02 -0.31049360106E+01  0.23598184643E+02  0.00000000000E+00 0. -1.
<mgrwt>
<rscale>  2 0.23393027E+02</rscale>
<asrwt>0</asrwt>
<pdfrwt beam="1">  1        2 0.57962883E-02 0.23393027E+02</pdfrwt>
<pdfrwt beam="2">  1       -2 0.28214222E-02 0.23393027E+02</pdfrwt>
<totfact> 0.34476246E+05</totfact>
</mgrwt>
</event>
<event>
 4    1  0.7653521E+003  0.6948234E+02  0.7546771E-02  0.1361862E+00
          2   -1    0    0  501    0  0.00000000000E+00  0.00000000000E+00  0.21433137624E+03  0.21433137624E+03  0.00000000000E+00 0. -1.
         -2   -1    0    0    0  501 -0.00000000000E+00 -0.00000000000E+00 -0.87844244610E+02  0.87844244610E+02  0.00000000000E+00 0. -1.
          2    1    1    2  502    0  0.45028587140E+02  0.52917122503E+02  0.19352833220E+03  0.20562346869E+03  0.00000000000E+00 0. -1.
         -2    1    1    2    0  502 -0.45028587140E+02 -0.52917122503E+02 -0.67041200565E+02  0.96552152161E+02  0.00000000000E+00 0. -1.
<mgrwt>
<rscale>  2 0.69482340E+02</rscale>
<asrwt>0</asrwt>
<pdfrwt beam="1">  1        2 0.32974058E-01 0.69482340E+02</pdfrwt>
<pdfrwt beam="2">  1       -2 0.13514499E-01 0.69482340E+02</pdfrwt>
<totfact> 0.58277494E+03</totfact>
</mgrwt>
</event>
<event>
 4    1  0.7653521E+003  0.2125985E+02  0.7546771E-02  0.1721376E+00
          2   -1    0    0  501    0  0.00000000000E+00  0.00000000000E+00  0.12039255988E+04  0.12039255988E+04  0.00000000000E+00 0.  1.
         -2   -1    0    0    0  501 -0.00000000000E+00 -0.00000000000E+00 -0.45409107850E+01  0.45409107850E+01  0.00000000000E+00 0.  1.
          2    1    1    2  502    0 -0.27523895800E+01  0.21080927002E+02  0.11784091325E+04  0.11786008929E+04  0.00000000000E+00 0.  1.
         -2    1    1    2    0  502  0.27523895800E+01 -0.21080927002E+02  0.20975555487E+02  0.29865616680E+02  0.00000000000E+00 0.  1.
<mgrwt>
<rscale>  2 0.21259848E+02</rscale>
<asrwt>0</asrwt>
<pdfrwt beam="1">  1        2 0.18521907E+00 0.21259848E+02</pdfrwt>
<pdfrwt beam="2">  1       -2 0.69860262E-03 0.21259848E+02</pdfrwt>
<totfact> 0.52107419E+04</totfact>
</mgrwt>
</event>
<event>
 4    1  0.7653521E+003  0.2122455E+02  0.7546771E-02  0.1722019E+00
         -2   -1    0    0    0  501 -0.00000000000E+00  0.00000000000E+00  0.24442677529E+02  0.24442677529E+02  0.00000000000E+00 0.  1.
          2   -1    0    0  501    0  0.00000000000E+00 -0.00000000000E+00 -0.33808143165E+02  0.33808143165E+02  0.00000000000E+00 0.  1.
          2    1    1    2  502    0  0.20673746854E+02 -0.48039284825E+01 -0.24325904635E+02  0.32283605346E+02  0.00000000000E+00 0.  1.
         -2    1    1    2    0  502 -0.20673746854E+02  0.48039284825E+01  0.14960438999E+02  0.25967215348E+02  0.00000000000E+00 0.  1.
<mgrwt>
<rscale>  2 0.21224550E+02</rscale>
<asrwt>0</asrwt>
<pdfrwt beam="2">  1        2 0.52012528E-02 0.21224550E+02</pdfrwt>
<pdfrwt beam="1">  1       -2 0.37604119E-02 0.21224550E+02</pdfrwt>
<totfact> 0.25605424E+05</totfact>
</mgrwt>
</event>
<event>
 4    1  0.7653521E+003  0.3665841E+02  0.7546771E-02  0.1534348E+00
          2   -1    0    0  501    0  0.00000000000E+00  0.00000000000E+00  0.11474549137E+04  0.11474549137E+04  0.00000000000E+00 0.  1.
         -2   -1    0    0    0  501 -0.00000000000E+00 -0.00000000000E+00 -0.37883106746E+01  0.37883106746E+01  0.00000000000E+00 0. -1.
          2    1    1    2  502    0 -0.12212909154E+02  0.34564202633E+02  0.10502757193E+04  0.10509152800E+04  0.00000000000E+00 0.  1.
         -2    1    1    2    0  502  0.12212909154E+02 -0.34564202633E+02  0.93390883774E+02  0.10032794439E+03  0.00000000000E+00 0. -1.
<mgrwt>
<rscale>  2 0.36658413E+02</rscale>
<asrwt>0</asrwt>
<pdfrwt beam="1">  1        2 0.17653125E+00 0.36658413E+02</pdfrwt>
<pdfrwt beam="2">  1       -2 0.58281794E-03 0.36658413E+02</pdfrwt>
<totfact> 0.78217577E+04</totfact>
</mgrwt>
</event>
<event>
 4    1  0.7653521E+003  0.2029376E+02  0.7546771E-02  0.1739549E+00
         -2   -1    0    0    0  501 -0.00000000000E+00  0.00000000000E+00  0.91341485664E+00  0.91341485664E+00  0.00000000000E+00 0. -1.
          2   -1    0    0  501    0  0.00000000000E+00 -0.00000000000E+00 -0.60622838885E+03  0.60622838885E+03  0.00000000000E+00 0. -1.
          2    1    1    2  502    0  0.82283582988E+00  0.20277075911E+02 -0.45633167562E+03  0.45678270002E+03  0.00000000000E+00 0. -1.
         -2    1    1    2    0  502 -0.82283582988E+00 -0.20277075911E+02 -0.14898329838E+03  0.15035910369E+03  0.00000000000E+00 0. -1.
<mgrwt>
<rscale>  2 0.20293764E+02</rscale>
<asrwt>0</asrwt>
<pdfrwt beam="2">  1        2 0.93266124E-01 0.20293764E+02</pdfrwt>
<pdfrwt beam="1">  1       -2 0.14052503E-03 0.20293764E+02</pdfrwt>
<totfact> 0.96575006E+05</totfact>
</mgrwt>
</event>
<event>
 4    1  0.7653521E+003  0.2087372E+02  0.7546771E-02  0.1728491E+00
         -2   -1    0    0    0  501 -0.00000000000E+00  0.00000000000E+00  0.34823942365E+00  0.34823942365E+00  0.00000000000E+00 0. -1.
          2   -1    0    0  501    0  0.00000000000E+00 -0.00000000000E+00 -0.15009543896E+04  0.15009543896E+04  0.00000000000E+00 0. -1.
          2    1    1    2  502    0 -0.10997734499E+02 -0.17741537777E+02 -0.10565157410E+04  0.10567219234E+04  0.00000000000E+00 0. -1.
         -2    1    1    2    0  502  0.10997734499E+02  0.17741537777E+02 -0.44409040916E+03  0.44458070564E+03  0.00000000000E+00 0. -1.
<mgrwt>
<rscale>  2 0.20873723E+02</rscale>
<asrwt>0</asrwt>
<pdfrwt beam="2">  1        2 0.23092044E+00 0.20873723E+02</pdfrwt>
<pdfrwt beam="1">  1       -2 0.53574280E-04 0.20873723E+02</pdfrwt>
<totfact> 0.11105293E+06</totfact>
</mgrwt>
</event>
<event>
 4    1  0.7653521E+003  0.2618805E+02  0.7546771E-02  0.1644501E+00
         -2   -1    0    0    0  501 -0.00000000000E+00  0.00000000000E+00  0.11337334482E+03  0.11337334482E+03  0.00000000000E+00 0. -1.
          2   -1    0    0  501    0  0.00000000000E+00 -0.00000000000E+00 -0.82009810125E+03  0.82009810125E+03  0.00000000000E+00 0.  1.
          2    1    1    2  502    0  0.86534607010E+00 -0.26173744222E+02 -0.81837356026E+03  0.81879246323E+03  0.00000000000E+00 0.  1.
         -2    1    1    2    0  502 -0.86534607010E+00  0.26173744222E+02  0.11164880383E+03  0.11467898285E+03  0.00000000000E+00 0. -1.
<mgrwt>
<rscale>  2 0.26188045E+02</rscale>
<asrwt>0</asrwt>
<pdfrwt beam="2">  1        2 0.12616894E+00 0.26188045E+02</pdfrwt>
<pdfrwt beam="1">  1       -2 0.17442052E-01 0.26188045E+02</pdfrwt>
<totfact> 0.89550857E+02</totfact>
</mgrwt>
</event>
<event>
 4    1  0.7653521E+003  0.2745689E+02  0.7546771E-02  0.1628030E+00
         -2   -1    0    0    0  501 -0.00000000000E+00  0.00000000000E+00  0.41986045156E+02  0.41986045156E+02  0.00000000000E+00 0.  1.
          2   -1    0    0  501    0  0.00000000000E+00 -0.00000000000E+00 -0.27342529105E+02  0.27342529105E+02  0.00000000000E+00 0.  1.
          2    1    1    2  502    0 -0.18624156559E+02 -0.20174772449E+02 -0.12989035650E+02  0.30374260452E+02  0.00000000000E+00 0.  1.
         -2    1    1    2    0  502  0.18624156559E+02  0.20174772449E+02  0.27632551700E+02  0.38954313810E+02  0.00000000000E+00 0.  1.
<mgrwt>
<rscale>  2 0.27456887E+02</rscale>
<asrwt>0</asrwt>
<pdfrwt beam="2">  1        2 0.42065430E-02 0.27456887E+02</pdfrwt>
<pdfrwt beam="1">  1       -2 0.64593915E-02 0.27456887E+02</pdfrwt>
<totfact> 0.16544989E+05</totfact>
</mgrwt>
</event>
<event>
 4    1  0.7653521E+003  0.2749092E+02  0.7546771E-02  0.1627603E+00
         -2   -1    0    0    0  501 -0.00000000000E+00  0.00000000000E+00  0.97882937734E+02  0.97882937734E+02  0.00000000000E+00 0. -1.
          2   -1    0    0  501    0  0.00000000000E+00 -0.00000000000E+00 -0.89075581303E+01  0.89075581303E+01  0.00000000000E+00 0.  1.
          2    1    1    2  502    0 -0.25756374671E+02  0.96103933792E+01  0.24999359268E+02  0.37158020142E+02  0.00000000000E+00 0.  1.
         -2    1    1    2    0  502  0.25756374671E+02 -0.96103933792E+01  0.63976020336E+02  0.69632475722E+02  0.00000000000E+00 0. -1.
<mgrwt>
<rscale>  2 0.27490917E+02</rscale>
<asrwt>0</asrwt>
<pdfrwt beam="2">  1        2 0.13703936E-02 0.27490917E+02</pdfrwt>
<pdfrwt beam="1">  1       -2 0.15058913E-01 0.27490917E+02</pdfrwt>
<totfact> 0.19535199E+05</totfact>
</mgrwt>
</event>
<event>
 4    1  0.7653521E+003  0.2148038E+02  0.7546771E-02  0.1717397E+00
         -2   -1    0    0    0  501 -0.00000000000E+00  0.00000000000E+00  0.54245723432E+01  0.54245723432E+01  0.00000000000E+00 0. -1.
          2   -1    0    0  501    0  0.00000000000E+00 -0.00000000000E+00 -0.11034392826E+04  0.11034392826E+04  0.00000000000E+00 0.  1.
          2    1    1    2  502    0 -0.20777744902E+02  0.54490261830E+01 -0.10816416008E+04  0.10818548697E+04  0.00000000000E+00 0.  1.
         -2    1    1    2    0  502  0.20777744902E+02 -0.54490261830E+01 -0.16373109476E+02  0.27008985236E+02  0.00000000000E+00 0. -1.
<mgrwt>
<rscale>  2 0.21480376E+02</rscale>
<asrwt>0</asrwt>
<pdfrwt beam="2">  1        2 0.16976003E+00 0.21480376E+02</pdfrwt>
<pdfrwt beam="1">  1       -2 0.83454888E-03 0.21480376E+02</pdfrwt>
<totfact> 0.46227684E+04</totfact>
</mgrwt>
</event>
<event>
 4    1  0.7653521E+003  0.2812168E+02  0.7546771E-02  0.1619830E+00
         -2   -1    0    0    0  501 -0.00000000000E+00  0.00000000000E+00  0.11718674797E+02  0.11718674797E+02  0.00000000000E+00 0. -1.
          2   -1    0    0  501    0  0.00000000000E+00 -0.00000000000E+00 -0.85974677126E+02  0.85974677126E+02  0.00000000000E+00 0.  1.
          2    1    1    2  502    0 -0.27171666079E+02 -0.72477024621E+01 -0.59780731525E+02  0.66064850640E+02  0.00000000000E+00 0.  1.
         -2    1    1    2    0  502  0.27171666079E+02  0.72477024621E+01 -0.14475270805E+02  0.31628501283E+02  0.00000000000E+00 0. -1.
<mgrwt>
<rscale>  2 0.28121675E+02</rscale>
<asrwt>0</asrwt>
<pdfrwt beam="2">  1        2 0.13226873E-01 0.28121675E+02</pdfrwt>
<pdfrwt beam="1">  1       -2 0.18028731E-02 0.28121675E+02</pdfrwt>
<totfact> 0.25678906E+05</totfact>
</mgrwt>
</event>
<event>
 4    1  0.7653521E+003  0.2090310E+02  0.7546771E-02  0.1727943E+00
         -2   -1    0    0    0  501 -0.00000000000E+00  0.00000000000E+00  0.10816393307E+01  0.10816393307E+01  0.00000000000E+00 0.  1.
          2   -1    0    0  501    0  0.00000000000E+00 -0.00000000000E+00 -0.98593926203E+03  0.98593926203E+03  0.00000000000E+00 0.  1.
          2    1    1    2  502    0 -0.19848273678E+02  0.65563367436E+01 -0.87159085633E+03  0.87184147662E+03  0.00000000000E+00 0.  1.
         -2    1    1    2    0  502  0.19848273678E+02 -0.65563367436E+01 -0.11326676637E+03  0.11517942474E+03  0.00000000000E+00 0.  1.
<mgrwt>
<rscale>  2 0.20903098E+02</rscale>
<asrwt>0</asrwt>
<pdfrwt beam="2">  1        2 0.15168283E+00 0.20903098E+02</pdfrwt>
<pdfrwt beam="1">  1       -2 0.16640620E-03 0.20903098E+02</pdfrwt>
<totfact> 0.45285096E+05</totfact>
</mgrwt>
</event>
<event>
 4    1  0.7653521E+003  0.4982104E+02  0.7546771E-02  0.1446309E+00
         -2   -1    0    0    0  501 -0.00000000000E+00  0.00000000000E+00  0.12668521114E+01  0.12668521114E+01  0.00000000000E+00 0. -1.
          2   -1    0    0  501    0  0.00000000000E+00 -0.00000000000E+00 -0.20660593977E+04  0.20660593977E+04  0.00000000000E+00 0. -1.
          2    1    1    2  502    0  0.38395692538E+02  0.31747551730E+02 -0.12673714964E+04  0.12683503641E+04  0.00000000000E+00 0. -1.
         -2    1    1    2    0  502 -0.38395692538E+02 -0.31747551730E+02 -0.79742104924E+03  0.79897588575E+03  0.00000000000E+00 0. -1.
<mgrwt>
<rscale>  2 0.49821042E+02</rscale>
<asrwt>0</asrwt>
<pdfrwt beam="2">  1        2 0.31785787E+00 0.49821042E+02</pdfrwt>
<pdfrwt beam="1">  1       -2 0.19489875E-03 0.49821042E+02</pdfrwt>
<totfact> 0.12863159E+05</totfact>
</mgrwt>
</event>
<event>
 4    1  0.7653521E+003  0.3229089E+02  0.7546771E-02  0.1574064E+00
         -2   -1    0    0    0  501 -0.00000000000E+00  0.00000000000E+00  0.18487859077E+01  0.18487859077E+01  0.00000000000E+00 0. -1.
          2   -1    0    0  501    0  0.00000000000E+00 -0.00000000000E+00 -0.68774803881E+03  0.68774803881E+03  0.00000000000E+00 0. -1.
          2    1    1    2  502    0 -0.71690105494E+01  0.31485028164E+02 -0.48921199149E+03  0.49027652843E+03  0.00000000000E+00 0. -1.
         -2    1    1    2    0  502  0.71690105494E+01 -0.31485028164E+02 -0.19668726141E+03  0.19932029629E+03  0.00000000000E+00 0. -1.
<mgrwt>
<rscale>  2 0.32290892E+02</rscale>
<asrwt>0</asrwt>
<pdfrwt beam="2">  1        2 0.10580744E+00 0.32290892E+02</pdfrwt>
<pdfrwt beam="1">  1       -2 0.28442847E-03 0.32290892E+02</pdfrwt>
<totfact> 0.37698282E+05</totfact>
</mgrwt>
</event>
<event>
 4    1  0.7653521E+003  0.3218393E+02  0.7546771E-02  0.1575131E+00
         -2   -1    0    0    0  501 -0.00000000000E+00  0.00000000000E+00  0.51527620319E+00  0.51527620319E+00  0.00000000000E+00 0.  1.
          2   -1    0    0  501    0  0.00000000000E+00 -0.00000000000E+00 -0.20363600911E+04  0.20363600911E+04  0.00000000000E+00 0. -1.
          2    1    1    2  502    0  0.31229932681E+02 -0.77779045747E+01 -0.90247428922E+03  0.90304797614E+03  0.00000000000E+00 0. -1.
         -2    1    1    2    0  502 -0.31229932681E+02  0.77779045747E+01 -0.11333705257E+04  0.11338273912E+04  0.00000000000E+00 0.  1.
<mgrwt>
<rscale>  2 0.32183933E+02</rscale>
<asrwt>0</asrwt>
<pdfrwt beam="2">  1        2 0.31328224E+00 0.32183933E+02</pdfrwt>
<pdfrwt beam="1">  1       -2 0.79274255E-04 0.32183933E+02</pdfrwt>
<totfact> 0.41407313E+05</totfact>
</mgrwt>
</event>
<event>
 4    1  0.7653521E+003  0.2036435E+02  0.7546771E-02  0.1738178E+00
         -2   -1    0    0    0  501 -0.00000000000E+00  0.00000000000E+00  0.30548887060E+02  0.30548887060E+02  0.00000000000E+00 0. -1.
          2   -1    0    0  501    0  0.00000000000E+00 -0.00000000000E+00 -0.20608790068E+03  0.20608790068E+03  0.00000000000E+00 0. -1.
          2    1    1    2  502    0  0.18063874256E+02 -0.94023068754E+01 -0.20212465558E+03  0.20314793458E+03  0.00000000000E+00 0. -1.
         -2    1    1    2    0  502 -0.18063874256E+02  0.94023068754E+01  0.26585641963E+02  0.33488853165E+02  0.00000000000E+00 0. -1.
<mgrwt>
<rscale>  2 0.20364354E+02</rscale>
<asrwt>0</asrwt>
<pdfrwt beam="2">  1        2 0.31705831E-01 0.20364354E+02</pdfrwt>
<pdfrwt beam="1">  1       -2 0.46998287E-02 0.20364354E+02</pdfrwt>
<totfact> 0.24896951E+04</totfact>
</mgrwt>
</event>
<event>
 4    1  0.7653521E+003  0.2275697E+02  0.7546771E-02  0.1695480E+00
         -2   -1    0    0    0  501 -0.00000000000E+00  0.00000000000E+00  0.50177085836E+03  0.50177085836E+03  0.00000000000E+00 0.  1.
          2   -1    0    0  501    0  0.00000000000E+00 -0.00000000000E+00 -0.29655862550E+02  0.29655862550E+02  0.00000000000E+00 0.  1.
          2    1    1    2  502    0  0.12957708407E+02  0.18707684230E+02 -0.24991146658E+02  0.33799956623E+02  0.00000000000E+00 0.  1.
         -2    1    1    2    0  502 -0.12957708407E+02 -0.18707684230E+02  0.49710614246E+03  0.49762676428E+03  0.00000000000E+00 0.  1.
<mgrwt>
<rscale>  2 0.22756969E+02</rscale>
<asrwt>0</asrwt>
<pdfrwt beam="2">  1        2 0.45624408E-02 0.22756969E+02</pdfrwt>
<pdfrwt beam="1">  1       -2 0.77195510E-01 0.22756969E+02</pdfrwt>
<totfact> 0.21999114E+03</totfact>
</mgrwt>
</event>
<event>
 4    1  0.7653521E+003  0.3551963E+02  0.7546771E-02  0.1544034E+00
         -2   -1    0    0    0  501 -0.00000000000E+00  0.00000000000E+00  0.70253598889E+00  0.70253598889E+00  0.00000000000E+00 0.  1.
          2   -1    0    0  501    0  0.00000000000E+00 -0.00000000000E+00 -0.18738299139E+04  0.18738299139E+04  0.00000000000E+00 0.  1.
          2    1    1    2  502    0  0.29295018244E+02  0.20085967825E+02 -0.11277731192E+04  0.11283323325E+04  0.00000000000E+00 0.  1.
         -2    1    1    2    0  502 -0.29295018244E+02 -0.20085967825E+02 -0.74535425865E+03  0.74620011732E+03  0.00000000000E+00 0.  1.
<mgrwt>
<rscale>  2 0.35519631E+02</rscale>
<asrwt>0</asrwt>
<pdfrwt beam="2">  1        2 0.28828412E+00 0.35519631E+02</pdfrwt>
<pdfrwt beam="1">  1       -2 0.10808149E-03 0.35519631E+02</pdfrwt>
<totfact> 0.33370526E+05</totfact>
</mgrwt>
</event>
<event>
 4    1  0.7653521E+003  0.2393217E+02  0.7546771E-02  0.1676831E+00
         -2   -1    0    0    0  501 -0.00000000000E+00  0.00000000000E+00  0.14663625049E+02  0.14663625049E+02  0.00000000000E+00 0. -1.
          2   -1    0    0  501    0  0.00000000000E+00 -0.00000000000E+00 -0.46223652959E+02  0.46223652959E+02  0.00000000000E+00 0.  1.
          2    1    1    2  502    0  0.87572949012E+01 -0.22272373824E+02 -0.27765543256E+02  0.36656162402E+02  0.00000000000E+00 0.  1.
         -2    1    1    2    0  502 -0.87572949012E+01  0.22272373824E+02 -0.37944846543E+01  0.24231115606E+02  0.00000000000E+00 0. -1.
<mgrwt>
<rscale>  2 0.23932172E+02</rscale>
<asrwt>0</asrwt>
<pdfrwt beam="2">  1        2 0.71113311E-02 0.23932172E+02</pdfrwt>
<pdfrwt beam="1">  1       -2 0.22559424E-02 0.23932172E+02</pdfrwt>
<totfact> 0.36993458E+05</totfact>
</mgrwt>
</event>
<event>
 4    1  0.7653521E+003  0.2983494E+02  0.7546771E-02  0.1599920E+00
          2   -1    0    0  501    0  0.00000000000E+00  0.00000000000E+00  0.18018038236E+01  0.18018038236E+01  0.00000000000E+00 0.  1.
         -2   -1    0    0    0  501 -0.00000000000E+00 -0.00000000000E+00 -0.66054786490E+03  0.66054786490E+03  0.00000000000E+00 0.  1.
          2    1    1    2  502    0 -0.29602673428E+02 -0.37155287688E+01 -0.16308870489E+03  0.16579520226E+03  0.00000000000E+00 0.  1.
         -2    1    1    2    0  502  0.29602673428E+02  0.37155287688E+01 -0.49565735618E+03  0.49655446647E+03  0.00000000000E+00 0.  1.
<mgrwt>
<rscale>  2 0.29834936E+02</rscale>
<asrwt>0</asrwt>
<pdfrwt beam="1">  1        2 0.27720049E-03 0.29834936E+02</pdfrwt>
<pdfrwt beam="2">  1       -2 0.10162279E+00 0.29834936E+02</pdfrwt>
<totfact> 0.48547252E+04</totfact>
</mgrwt>
</event>
<event>
 4    1  0.7653521E+003  0.2056340E+02  0.7546771E-02  0.1734351E+00
         -2   -1    0    0    0  501 -0.00000000000E+00  0.00000000000E+00  0.90995760906E+00  0.90995760906E+00  0.00000000000E+00 0. -1.
          2   -1    0    0  501    0  0.00000000000E+00 -0.00000000000E+00 -0.86472796056E+03  0.86472796056E+03  0.00000000000E+00 0. -1.
          2    1    1    2  502    0 -0.69458071098E+01 -0.19354823657E+02 -0.72629286816E+03  0.72658391379E+03  0.00000000000E+00 0. -1.
         -2    1    1    2    0  502  0.69458071098E+01  0.19354823657E+02 -0.13752513479E+03  0.13905400438E+03  0.00000000000E+00 0. -1.
<mgrwt>
<rscale>  2 0.20563400E+02</rscale>
<asrwt>0</asrwt>
<pdfrwt beam="2">  1        2 0.13303546E+00 0.20563400E+02</pdfrwt>
<pdfrwt beam="1">  1       -2 0.13999307E-03 0.20563400E+02</pdfrwt>
<totfact> 0.66162077E+05</totfact>
</mgrwt>
</event>
<event>
 4    1  0.7653521E+003  0.2383081E+02  0.7546771E-02  0.1678386E+00
          2   -1    0    0  501    0  0.00000000000E+00  0.00000000000E+00  0.10486392964E+04  0.10486392964E+04  0.00000000000E+00 0. -1.
         -2   -1    0    0    0  501 -0.00000000000E+00 -0.00000000000E+00 -0.10016851000E+01  0.10016851000E+01  0.00000000000E+00 0.  1.
          2    1    1    2  502    0  0.35675268029E+01  0.23562263003E+02  0.87951585592E+03  0.87983864901E+03  0.00000000000E+00 0. -1.
         -2    1    1    2    0  502 -0.35675268029E+01 -0.23562263003E+02  0.16812175536E+03  0.16980233246E+03  0.00000000000E+00 0.  1.
<mgrwt>
<rscale>  2 0.23830810E+02</rscale>
<asrwt>0</asrwt>
<pdfrwt beam="1">  1        2 0.16132824E+00 0.23830810E+02</pdfrwt>
<pdfrwt beam="2">  1       -2 0.15410624E-03 0.23830810E+02</pdfrwt>
<totfact> 0.48075862E+05</totfact>
</mgrwt>
</event>
<event>
 4    1  0.7653521E+003  0.2041724E+02  0.7546771E-02  0.1737156E+00
          2   -1    0    0  501    0  0.00000000000E+00  0.00000000000E+00  0.41255434795E+03  0.41255434795E+03  0.00000000000E+00 0. -1.
         -2   -1    0    0    0  501 -0.00000000000E+00 -0.00000000000E+00 -0.15599104021E+01  0.15599104021E+01  0.00000000000E+00 0. -1.
          2    1    1    2  502    0  0.22794688841E+01  0.20289600994E+02  0.32838540815E+03  0.32901951337E+03  0.00000000000E+00 0. -1.
         -2    1    1    2    0  502 -0.22794688841E+01 -0.20289600994E+02  0.82609029391E+02  0.85094744984E+02  0.00000000000E+00 0. -1.
<mgrwt>
<rscale>  2 0.20417245E+02</rscale>
<asrwt>0</asrwt>
<pdfrwt beam="1">  1        2 0.63469813E-01 0.20417245E+02</pdfrwt>
<pdfrwt beam="2">  1       -2 0.23998655E-03 0.20417245E+02</pdfrwt>
<totfact> 0.70414438E+05</totfact>
</mgrwt>
</event>
<event>
 4    1  0.7653521E+003  0.2672743E+02  0.7546771E-02  0.1637362E+00
          2   -1    0    0  501    0  0.00000000000E+00  0.00000000000E+00  0.42895667358E+01  0.42895667358E+01  0.00000000000E+00 0.  1.
         -2   -1    0    0    0  501 -0.00000000000E+00 -0.00000000000E+00 -0.39495499453E+03  0.39495499453E+03  0.00000000000E+00 0. -1.
          2    1    1    2  502    0 -0.14773095298E+02  0.22273549917E+02 -0.43521463876E+02  0.51073214002E+02  0.00000000000E+00 0.  1.
         -2    1    1    2    0  502  0.14773095298E+02 -0.22273549917E+02 -0.34714396392E+03  0.34817134727E+03  0.00000000000E+00 0. -1.
<mgrwt>
<rscale>  2 0.26727427E+02</rscale>
<asrwt>0</asrwt>
<pdfrwt beam="1">  1        2 0.65993325E-03 0.26727427E+02</pdfrwt>
<pdfrwt beam="2">  1       -2 0.60762315E-01 0.26727427E+02</pdfrwt>
<totfact> 0.44365238E+04</totfact>
</mgrwt>
</event>
<event>
 4    1  0.7653521E+003  0.2694006E+02  0.7546771E-02  0.1634604E+00
         -2   -1    0    0    0  501 -0.00000000000E+00  0.00000000000E+00  0.82509928206E+02  0.82509928206E+02  0.00000000000E+00 0.  1.
          2   -1    0    0  501    0  0.00000000000E+00 -0.00000000000E+00 -0.12130860061E+04  0.12130860061E+04  0.00000000000E+00 0.  1.
          2    1    1    2  502    0  0.22668325276E+02 -0.14557262642E+02 -0.12107331339E+04  0.12110328189E+04  0.00000000000E+00 0.  1.
         -2    1    1    2    0  502 -0.22668325276E+02  0.14557262642E+02  0.80157055999E+02  0.84563115440E+02  0.00000000000E+00 0.  1.
<mgrwt>
<rscale>  2 0.26940061E+02</rscale>
<asrwt>0</asrwt>
<pdfrwt beam="2">  1        2 0.18662861E+00 0.26940061E+02</pdfrwt>
<pdfrwt beam="1">  1       -2 0.12693836E-01 0.26940061E+02</pdfrwt>
<totfact> 0.89595615E+02</totfact>
</mgrwt>
</event>
<event>
 4    1  0.7653521E+003  0.2137192E+02  0.7546771E-02  0.1719346E+00
          2   -1    0    0  501    0  0.00000000000E+00  0.00000000000E+00  0.18625823701E+04  0.18625823701E+04  0.00000000000E+00 0.  1.
         -2   -1    0    0    0  501 -0.00000000000E+00 -0.00000000000E+00 -0.48220616649E+00  0.48220616649E+00  0.00000000000E+00 0. -1.
          2    1    1    2  502    0 -0.11504277287E+00  0.21371607363E+02  0.15840828423E+04  0.15842270072E+04  0.00000000000E+00 0.  1.
         -2    1    1    2    0  502  0.11504277287E+00 -0.21371607363E+02  0.27801732154E+03  0.27883756905E+03  0.00000000000E+00 0. -1.
<mgrwt>
<rscale>  2 0.21371917E+02</rscale>
<asrwt>0</asrwt>
<pdfrwt beam="1">  1        2 0.28654537E+00 0.21371917E+02</pdfrwt>
<pdfrwt beam="2">  1       -2 0.74187055E-04 0.21371917E+02</pdfrwt>
<totfact> 0.49652691E+05</totfact>
</mgrwt>
</event>
<event>
 4    1  0.7653521E+003  0.2115948E+02  0.7546771E-02  0.1723207E+00
          2   -1    0    0  501    0  0.00000000000E+00  0.00000000000E+00  0.30380082188E+02  0.30380082188E+02  0.00000000000E+00 0.  1.
         -2   -1    0    0    0  501 -0.00000000000E+00 -0.00000000000E+00 -0.33580334378E+02  0.33580334378E+02  0.00000000000E+00 0.  1.
          2    1    1    2  502    0  0.17284567804E+02  0.12205197244E+02 -0.25556063030E+02  0.33178840871E+02  0.00000000000E+00 0.  1.
         -2    1    1    2    0  502 -0.17284567804E+02 -0.12205197244E+02  0.22355810840E+02  0.30781575695E+02  0.00000000000E+00 0.  1.
<mgrwt>
<rscale>  2 0.21159479E+02</rscale>
<asrwt>0</asrwt>
<pdfrwt beam="1">  1        2 0.46738588E-02 0.21159479E+02</pdfrwt>
<pdfrwt beam="2">  1       -2 0.51662053E-02 0.21159479E+02</pdfrwt>
<totfact> 0.18641986E+05</totfact>
</mgrwt>
</event>
<event>
 4    1  0.7653521E+003  0.2233323E+02  0.7546771E-02  0.1702552E+00
          2   -1    0    0  501    0  0.00000000000E+00  0.00000000000E+00  0.10236737974E+03  0.10236737974E+03  0.00000000000E+00 0. -1.
         -2   -1    0    0    0  501 -0.00000000000E+00 -0.00000000000E+00 -0.13006870837E+03  0.13006870837E+03  0.00000000000E+00 0. -1.
          2    1    1    2  502    0 -0.21753714795E+02 -0.50546100005E+01  0.10016983472E+03  0.10262927934E+03  0.00000000000E+00 0. -1.
         -2    1    1    2    0  502  0.21753714795E+02  0.50546100005E+01 -0.12787116334E+03  0.12980680878E+03  0.00000000000E+00 0. -1.
<mgrwt>
<rscale>  2 0.22333231E+02</rscale>
<asrwt>0</asrwt>
<pdfrwt beam="1">  1        2 0.15748828E-01 0.22333231E+02</pdfrwt>
<pdfrwt beam="2">  1       -2 0.20010571E-01 0.22333231E+02</pdfrwt>
<totfact> 0.60515176E+03</totfact>
</mgrwt>
</event>
<event>
 4    1  0.7653521E+003  0.2030117E+02  0.7546771E-02  0.1739404E+00
         -2   -1    0    0    0  501 -0.00000000000E+00  0.00000000000E+00  0.24757289449E+01  0.24757289449E+01  0.00000000000E+00 0.  1.
          2   -1    0    0  501    0  0.00000000000E+00 -0.00000000000E+00 -0.17793373125E+03  0.17793373125E+03  0.00000000000E+00 0. -1.
          2    1    1    2  502    0  0.19741705137E+02  0.47331336587E+01 -0.11062402718E+03  0.11247138688E+03  0.00000000000E+00 0. -1.
         -2    1    1    2    0  502 -0.19741705137E+02 -0.47331336587E+01 -0.64833975122E+02  0.67938073318E+02  0.00000000000E+00 0.  1.
<mgrwt>
<rscale>  2 0.20301169E+02</rscale>
<asrwt>0</asrwt>
<pdfrwt beam="2">  1        2 0.27374416E-01 0.20301169E+02</pdfrwt>
<pdfrwt beam="1">  1       -2 0.38088144E-03 0.20301169E+02</pdfrwt>
<totfact> 0.87482863E+05</totfact>
</mgrwt>
</event>
<event>
 4    1  0.7653521E+003  0.3853634E+02  0.7546771E-02  0.1519267E+00
         -2   -1    0    0    0  501 -0.00000000000E+00  0.00000000000E+00  0.42874579124E+02  0.42874579124E+02  0.00000000000E+00 0. -1.
          2   -1    0    0  501    0  0.00000000000E+00 -0.00000000000E+00 -0.52420206855E+02  0.52420206855E+02  0.00000000000E+00 0.  1.
          2    1    1    2  502    0 -0.29066272848E+02 -0.25302197954E+02 -0.32524799753E+02  0.50427294569E+02  0.00000000000E+00 0.  1.
         -2    1    1    2    0  502  0.29066272848E+02  0.25302197954E+02  0.22979172022E+02  0.44867491410E+02  0.00000000000E+00 0. -1.
<mgrwt>
<rscale>  2 0.38536339E+02</rscale>
<asrwt>0</asrwt>
<pdfrwt beam="2">  1        2 0.80646472E-02 0.38536339E+02</pdfrwt>
<pdfrwt beam="1">  1       -2 0.65960891E-02 0.38536339E+02</pdfrwt>
<totfact> 0.78034625E+04</totfact>
</mgrwt>
</event>
<event>
 4    1  0.7653521E+003  0.2955998E+02  0.7546771E-02  0.1603004E+00
          2   -1    0    0  501    0  0.00000000000E+00  0.00000000000E+00  0.45521016549E+02  0.45521016549E+02  0.00000000000E+00 0.  1.
         -2   -1    0    0    0  501 -0.00000000000E+00 -0.00000000000E+00 -0.25858041321E+02  0.25858041321E+02  0.00000000000E+00 0. -1.
          2    1    1    2  502    0 -0.22338613354E+02  0.19359208445E+02  0.27947696120E+02  0.40680048139E+02  0.00000000000E+00 0.  1.
         -2    1    1    2    0  502  0.22338613354E+02 -0.19359208445E+02 -0.82847208923E+01  0.30699009730E+02  0.00000000000E+00 0. -1.
<mgrwt>
<rscale>  2 0.29559983E+02</rscale>
<asrwt>0</asrwt>
<pdfrwt beam="1">  1        2 0.70032333E-02 0.29559983E+02</pdfrwt>
<pdfrwt beam="2">  1       -2 0.39781602E-02 0.29559983E+02</pdfrwt>
<totfact> 0.18071239E+05</totfact>
</mgrwt>
</event>
<event>
 4    1  0.7653521E+003  0.2162660E+02  0.7546771E-02  0.1714791E+00
          2   -1    0    0  501    0  0.00000000000E+00  0.00000000000E+00  0.98056518507E+01  0.98056518507E+01  0.00000000000E+00 0.  1.
         -2   -1    0    0    0  501 -0.00000000000E+00 -0.00000000000E+00 -0.14839365513E+03  0.14839365513E+03  0.00000000000E+00 0. -1.
          2    1    1    2  502    0 -0.14375382249E+02  0.16157298669E+02 -0.41353189666E+01  0.22018419063E+02  0.00000000000E+00 0.  1.
         -2    1    1    2    0  502  0.14375382249E+02 -0.16157298669E+02 -0.13445268431E+03  0.13618088792E+03  0.00000000000E+00 0. -1.
<mgrwt>
<rscale>  2 0.21626602E+02</rscale>
<asrwt>0</asrwt>
<pdfrwt beam="1">  1        2 0.15085620E-02 0.21626602E+02</pdfrwt>
<pdfrwt beam="2">  1       -2 0.22829791E-01 0.21626602E+02</pdfrwt>
<totfact> 0.83108566E+04</totfact>
</mgrwt>
</event>
<event>
 4    1  0.7653521E+003  0.2003741E+02  0.7546771E-02  0.1744585E+00
          2   -1    0    0  501    0  0.00000000000E+00  0.00000000000E+00  0.15188994574E+03  0.15188994574E+03  0.00000000000E+00 0.  1.
         -2   -1    0    0    0  501 -0.00000000000E+00 -0.00000000000E+00 -0.54471565366E+01  0.54471565366E+01  0.00000000000E+00 0.  1.
          2    1    1    2  502    0  0.51131921672E+00 -0.20030882533E+02  0.12966185456E+03  0.13120096886E+03  0.00000000000E+00 0.  1.
         -2    1    1    2    0  502 -0.51131921672E+00  0.20030882533E+02  0.16780934645E+02  0.26136133416E+02  0.00000000000E+00 0.  1.
<mgrwt>
<rscale>  2 0.20037408E+02</rscale>
<asrwt>0</asrwt>
<pdfrwt beam="1">  1        2 0.23367681E-01 0.20037408E+02</pdfrwt>
<pdfrwt beam="2">  1       -2 0.83802420E-03 0.20037408E+02</pdfrwt>
<totfact> 0.35770287E+05</totfact>
</mgrwt>
</event>
<event>
 4    1  0.7653521E+003  0.2069963E+02  0.7546771E-02  0.1731763E+00
         -2   -1    0    0    0  501 -0.00000000000E+00  0.00000000000E+00  0.62132129654E+03  0.62132129654E+03  0.00000000000E+00 0. -1.
          2   -1    0    0  501    0  0.00000000000E+00 -0.00000000000E+00 -0.79906135646E+00  0.79906135646E+00  0.00000000000E+00 0.  1.
          2    1    1    2  502    0  0.45089841236E+01  0.20202572373E+02  0.19514201387E+03  0.19623679687E+03  0.00000000000E+00 0.  1.
         -2    1    1    2    0  502 -0.45089841236E+01 -0.20202572373E+02  0.42538022131E+03  0.42588356102E+03  0.00000000000E+00 0. -1.
<mgrwt>
<rscale>  2 0.20699634E+02</rscale>
<asrwt>0</asrwt>
<pdfrwt beam="2">  1        2 0.12293301E-03 0.20699634E+02</pdfrwt>
<pdfrwt beam="1">  1       -2 0.95587506E-01 0.20699634E+02</pdfrwt>
<totfact> 0.14555411E+05</totfact>
</mgrwt>
</event>
<event>
 4    1  0.7653521E+003  0.2377351E+02  0.7546771E-02  0.1679270E+00
         -2   -1    0    0    0  501 -0.00000000000E+00  0.00000000000E+00  0.37383080201E+03  0.37383080201E+03  0.00000000000E+00 0.  1.
          2   -1    0    0  501    0  0.00000000000E+00 -0.00000000000E+00 -0.42542440937E+01  0.42542440937E+01  0.00000000000E+00 0. -1.
          2    1    1    2  502    0 -0.10899711240E+02  0.21127616971E+02  0.33009019697E+02  0.40678929255E+02  0.00000000000E+00 0. -1.
         -2    1    1    2    0  502  0.10899711240E+02 -0.21127616971E+02  0.33656753822E+03  0.33740611685E+03  0.00000000000E+00 0.  1.
<mgrwt>
<rscale>  2 0.23773513E+02</rscale>
<asrwt>0</asrwt>
<pdfrwt beam="2">  1        2 0.65449938E-03 0.23773513E+02</pdfrwt>
<pdfrwt beam="1">  1       -2 0.57512405E-01 0.23773513E+02</pdfrwt>
<totfact> 0.48539677E+04</totfact>
</mgrwt>
</event>
<event>
 4    1  0.7653521E+003  0.2083509E+02  0.7546771E-02  0.1729214E+00
          2   -1    0    0  501    0  0.00000000000E+00  0.00000000000E+00  0.60023130895E+01  0.60023130895E+01  0.00000000000E+00 0. -1.
         -2   -1    0    0    0  501 -0.00000000000E+00 -0.00000000000E+00 -0.14325548656E+03  0.14325548656E+03  0.00000000000E+00 0. -1.
          2    1    1    2  502    0  0.14436222988E+02 -0.15023202983E+02 -0.16112465235E+02  0.26338426262E+02  0.00000000000E+00 0. -1.
         -2    1    1    2    0  502 -0.14436222988E+02  0.15023202983E+02 -0.12114070824E+03  0.12291937339E+03  0.00000000000E+00 0. -1.
<mgrwt>
<rscale>  2 0.20835094E+02</rscale>
<asrwt>0</asrwt>
<pdfrwt beam="1">  1        2 0.92343275E-03 0.20835094E+02</pdfrwt>
<pdfrwt beam="2">  1       -2 0.22039306E-01 0.20835094E+02</pdfrwt>
<totfact> 0.16436460E+05</totfact>
</mgrwt>
</event>
<event>
 4    1  0.7653521E+003  0.2317310E+02  0.7546771E-02  0.1688719E+00
          2   -1    0    0  501    0  0.00000000000E+00  0.00000000000E+00  0.10940694558E+04  0.10940694558E+04  0.00000000000E+00 0.  1.
         -2   -1    0    0    0  501 -0.00000000000E+00 -0.00000000000E+00 -0.69572539402E+00  0.69572539402E+00  0.00000000000E+00 0.  1.
          2    1    1    2  502    0 -0.14513788914E+02  0.18064951751E+02  0.84374907793E+03  0.84406723610E+03  0.00000000000E+00 0.  1.
         -2    1    1    2    0  502  0.14513788914E+02 -0.18064951751E+02  0.24962465247E+03  0.25069794509E+03  0.00000000000E+00 0.  1.
<mgrwt>
<rscale>  2 0.23173100E+02</rscale>
<asrwt>0</asrwt>
<pdfrwt beam="1">  1        2 0.16831700E+00 0.23173100E+02</pdfrwt>
<pdfrwt beam="2">  1       -2 0.10703555E-03 0.23173100E+02</pdfrwt>
<totfact> 0.73053687E+05</totfact>
</mgrwt>
</event>
<event>
 4    1  0.7653521E+003  0.2579735E+02  0.7546771E-02  0.1649807E+00
         -2   -1    0    0    0  501 -0.00000000000E+00  0.00000000000E+00  0.11881179053E+01  0.11881179053E+01  0.00000000000E+00 0. -1.
          2   -1    0    0  501    0  0.00000000000E+00 -0.00000000000E+00 -0.14897591150E+04  0.14897591150E+04  0.00000000000E+00 0. -1.
          2    1    1    2  502    0  0.18163223760E+02  0.18319402539E+02 -0.13331678987E+04  0.13334174700E+04  0.00000000000E+00 0. -1.
         -2    1    1    2    0  502 -0.18163223760E+02 -0.18319402539E+02 -0.15540309838E+03  0.15752976288E+03  0.00000000000E+00 0. -1.
<mgrwt>
<rscale>  2 0.25797349E+02</rscale>
<asrwt>0</asrwt>
<pdfrwt beam="2">  1        2 0.22919436E+00 0.25797349E+02</pdfrwt>
<pdfrwt beam="1">  1       -2 0.18278685E-03 0.25797349E+02</pdfrwt>
<totfact> 0.23582148E+05</totfact>
</mgrwt>
</event>
<event>
 4    1  0.7653521E+003  0.2019235E+02  0.7546771E-02  0.1741530E+00
         -2   -1    0    0    0  501 -0.00000000000E+00  0.00000000000E+00  0.11913517656E+01  0.11913517656E+01  0.00000000000E+00 0. -1.
          2   -1    0    0  501    0  0.00000000000E+00 -0.00000000000E+00 -0.13085826346E+04  0.13085826346E+04  0.00000000000E+00 0. -1.
          2    1    1    2  502    0  0.16064877424E+02  0.12233174414E+02 -0.12164655477E+04  0.12166331245E+04  0.00000000000E+00 0. -1.
         -2    1    1    2    0  502 -0.16064877424E+02 -0.12233174414E+02 -0.90925735132E+02  0.93140861882E+02  0.00000000000E+00 0. -1.
<mgrwt>
<rscale>  2 0.20192346E+02</rscale>
<asrwt>0</asrwt>
<pdfrwt beam="2">  1        2 0.20132101E+00 0.20192346E+02</pdfrwt>
<pdfrwt beam="1">  1       -2 0.18328434E-03 0.20192346E+02</pdfrwt>
<totfact> 0.27086825E+05</totfact>
</mgrwt>
</event>
<event>
 4    1  0.7653521E+003  0.2352454E+02  0.7546771E-02  0.1683146E+00
         -2   -1    0    0    0  501 -0.00000000000E+00  0.00000000000E+00  0.19840781343E+03  0.19840781343E+03  0.00000000000E+00 0. -1.
          2   -1    0    0  501    0  0.00000000000E+00 -0.00000000000E+00 -0.79412741170E+01  0.79412741170E+01  0.00000000000E+00 0. -1.
          2    1    1    2  502    0 -0.23138692647E+01 -0.23410465229E+02  0.12130117933E+02  0.26467784839E+02  0.00000000000E+00 0. -1.
         -2    1    1    2    0  502  0.23138692647E+01  0.23410465229E+02  0.17833642138E+03  0.17988130271E+03  0.00000000000E+00 0. -1.
<mgrwt>
<rscale>  2 0.23524538E+02</rscale>
<asrwt>0</asrwt>
<pdfrwt beam="2">  1        2 0.12217346E-02 0.23524538E+02</pdfrwt>
<pdfrwt beam="1">  1       -2 0.30524275E-01 0.23524538E+02</pdfrwt>
<totfact> 0.68516941E+04</totfact>
</mgrwt>
</event>
<event>
 4    1  0.7653521E+003  0.3042775E+02  0.7546771E-02  0.1593408E+00
          2   -1    0    0  501    0  0.00000000000E+00  0.00000000000E+00  0.15895116103E+02  0.15895116103E+02  0.00000000000E+00 0.  1.
         -2   -1    0    0    0  501 -0.00000000000E+00 -0.00000000000E+00 -0.58858508026E+02  0.58858508026E+02  0.00000000000E+00 0.  1.
          2    1    1    2  502    0 -0.28338815732E+02  0.11079678608E+02 -0.17672892151E+02  0.35187765945E+02  0.00000000000E+00 0.  1.
         -2    1    1    2    0  502  0.28338815732E+02 -0.11079678608E+02 -0.25290499772E+02  0.39565858185E+02  0.00000000000E+00 0.  1.
<mgrwt>
<rscale>  2 0.30427746E+02</rscale>
<asrwt>0</asrwt>
<pdfrwt beam="1">  1        2 0.24454025E-02 0.30427746E+02</pdfrwt>
<pdfrwt beam="2">  1       -2 0.90551550E-02 0.30427746E+02</pdfrwt>
<totfact> 0.20576590E+05</totfact>
</mgrwt>
</event>
<event>
 4    1  0.7653521E+003  0.2569673E+02  0.7546771E-02  0.1651192E+00
          2   -1    0    0  501    0  0.00000000000E+00  0.00000000000E+00  0.13979972673E+03  0.13979972673E+03  0.00000000000E+00 0. -1.
         -2   -1    0    0    0  501 -0.00000000000E+00 -0.00000000000E+00 -0.55048191705E+01  0.55048191705E+01  0.00000000000E+00 0. -1.
          2    1    1    2  502    0 -0.23550192171E+02 -0.10281549578E+02  0.94521313629E+02  0.97952031848E+02  0.00000000000E+00 0. -1.
         -2    1    1    2    0  502  0.23550192171E+02  0.10281549578E+02  0.39773593935E+02  0.47352514057E+02  0.00000000000E+00 0. -1.
<mgrwt>
<rscale>  2 0.25696728E+02</rscale>
<asrwt>0</asrwt>
<pdfrwt beam="1">  1        2 0.21507648E-01 0.25696728E+02</pdfrwt>
<pdfrwt beam="2">  1       -2 0.84689536E-03 0.25696728E+02</pdfrwt>
<totfact> 0.41402513E+05</totfact>
</mgrwt>
</event>
<event>
 4    1  0.7653521E+003  0.3126726E+02  0.7546771E-02  0.1584489E+00
         -2   -1    0    0    0  501 -0.00000000000E+00  0.00000000000E+00  0.10766208201E+02  0.10766208201E+02  0.00000000000E+00 0. -1.
          2   -1    0    0  501    0  0.00000000000E+00 -0.00000000000E+00 -0.16162588799E+03  0.16162588799E+03  0.00000000000E+00 0. -1.
          2    1    1    2  502    0 -0.17655561362E+02 -0.25805482071E+02 -0.13248671184E+03  0.13612630373E+03  0.00000000000E+00 0. -1.
         -2    1    1    2    0  502  0.17655561362E+02  0.25805482071E+02 -0.18372967951E+02  0.36265792466E+02  0.00000000000E+00 0. -1.
<mgrwt>
<rscale>  2 0.31267263E+02</rscale>
<asrwt>0</asrwt>
<pdfrwt beam="2">  1        2 0.24865521E-01 0.31267263E+02</pdfrwt>
<pdfrwt beam="1">  1       -2 0.16563398E-02 0.31267263E+02</pdfrwt>
<totfact> 0.14944911E+05</totfact>
</mgrwt>
</event>
<event>
 4    1  0.7653521E+003  0.3256295E+02  0.7546771E-02  0.1571372E+00
         -2   -1    0    0    0  501 -0.00000000000E+00  0.00000000000E+00  0.34686881087E+01  0.34686881087E+01  0.00000000000E+00 0. -1.
          2   -1    0    0  501    0  0.00000000000E+00 -0.00000000000E+00 -0.65408624139E+03  0.65408624139E+03  0.00000000000E+00 0.  1.
          2    1    1    2  502    0 -0.22369645845E+02 -0.23663143061E+02 -0.56525884812E+03  0.56619600032E+03  0.00000000000E+00 0.  1.
         -2    1    1    2    0  502  0.22369645845E+02  0.23663143061E+02 -0.85358705159E+02  0.91358929181E+02  0.00000000000E+00 0. -1.
<mgrwt>
<rscale>  2 0.32562945E+02</rscale>
<asrwt>0</asrwt>
<pdfrwt beam="2">  1        2 0.10062865E+00 0.32562945E+02</pdfrwt>
<pdfrwt beam="1">  1       -2 0.53364433E-03 0.32562945E+02</pdfrwt>
<totfact> 0.17033251E+05</totfact>
</mgrwt>
</event>
<event>
 4    1  0.7653521E+003  0.6825946E+02  0.7546771E-02  0.1366114E+00
          2   -1    0    0  501    0  0.00000000000E+00  0.00000000000E+00  0.11014326315E+04  0.11014326315E+04  0.00000000000E+00 0.  1.
         -2   -1    0    0    0  501 -0.00000000000E+00 -0.00000000000E+00 -0.12410233286E+02  0.12410233286E+02  0.00000000000E+00 0.  1.
          2    1    1    2  502    0 -0.67765754641E+02  0.81948738961E+01  0.99665828004E+03  0.99899303332E+03  0.00000000000E+00 0.  1.
         -2    1    1    2    0  502  0.67765754641E+02 -0.81948738961E+01  0.92364118167E+02  0.11484983145E+03  0.00000000000E+00 0.  1.
<mgrwt>
<rscale>  2 0.68259457E+02</rscale>
<asrwt>0</asrwt>
<pdfrwt beam="1">  1        2 0.16945110E+00 0.68259457E+02</pdfrwt>
<pdfrwt beam="2">  1       -2 0.19092675E-02 0.68259457E+02</pdfrwt>
<totfact> 0.17142177E+04</totfact>
</mgrwt>
</event>
<event>
 4    1  0.7653521E+003  0.4069218E+02  0.7546771E-02  0.1503179E+00
          2   -1    0    0  501    0  0.00000000000E+00  0.00000000000E+00  0.23028799630E+04  0.23028799630E+04  0.00000000000E+00 0. -1.
         -2   -1    0    0    0  501 -0.00000000000E+00 -0.00000000000E+00 -0.16586472898E+01  0.16586472898E+01  0.00000000000E+00 0. -1.
          2    1    1    2  502    0  0.25516556058E+02  0.31697936856E+02  0.20178741416E+04  0.20182843965E+04  0.00000000000E+00 0. -1.
         -2    1    1    2    0  502 -0.25516556058E+02 -0.31697936856E+02  0.28334717413E+03  0.28625421381E+03  0.00000000000E+00 0. -1.
<mgrwt>
<rscale>  2 0.40692184E+02</rscale>
<asrwt>0</asrwt>
<pdfrwt beam="1">  1        2 0.35428667E+00 0.40692184E+02</pdfrwt>
<pdfrwt beam="2">  1       -2 0.25517835E-03 0.40692184E+02</pdfrwt>
<totfact> 0.66485306E+04</totfact>
</mgrwt>
</event>
<event>
 4    1  0.7653521E+003  0.2239827E+02  0.7546771E-02  0.1701454E+00
          2   -1    0    0  501    0  0.00000000000E+00  0.00000000000E+00  0.30199304676E+03  0.30199304676E+03  0.00000000000E+00 0. -1.
         -2   -1    0    0    0  501 -0.00000000000E+00 -0.00000000000E+00 -0.16941092962E+03  0.16941092962E+03  0.00000000000E+00 0.  1.
          2    1    1    2  502    0 -0.14422022914E+02  0.17137319694E+02  0.30083455642E+03  0.30166722197E+03  0.00000000000E+00 0. -1.
         -2    1    1    2    0  502  0.14422022914E+02 -0.17137319694E+02 -0.16825243928E+03  0.16973675440E+03  0.00000000000E+00 0.  1.
<mgrwt>
<rscale>  2 0.22398269E+02</rscale>
<asrwt>0</asrwt>
<pdfrwt beam="1">  1        2 0.46460469E-01 0.22398269E+02</pdfrwt>
<pdfrwt beam="2">  1       -2 0.26063220E-01 0.22398269E+02</pdfrwt>
<totfact> 0.12924019E+03</totfact>
</mgrwt>
</event>
<event>
 4    1  0.7653521E+003  0.2101404E+02  0.7546771E-02  0.1725883E+00
         -2   -1    0    0    0  501 -0.00000000000E+00  0.00000000000E+00  0.12745957268E+01  0.12745957268E+01  0.00000000000E+00 0. -1.
          2   -1    0    0  501    0  0.00000000000E+00 -0.00000000000E+00 -0.67358861594E+03  0.67358861594E+03  0.00000000000E+00 0.  1.
          2    1    1    2  502    0  0.10661697044E+02  0.18108492709E+02 -0.10100354770E+03  0.10316639928E+03  0.00000000000E+00 0. -1.
         -2    1    1    2    0  502 -0.10661697044E+02 -0.18108492709E+02 -0.57131047251E+03  0.57169681239E+03  0.00000000000E+00 0.  1.
<mgrwt>
<rscale>  2 0.21014037E+02</rscale>
<asrwt>0</asrwt>
<pdfrwt beam="2">  1        2 0.10362879E+00 0.21014037E+02</pdfrwt>
<pdfrwt beam="1">  1       -2 0.19609208E-03 0.21014037E+02</pdfrwt>
<totfact> 0.56367088E+05</totfact>
</mgrwt>
</event>
<event>
 4    1  0.7653521E+003  0.2087794E+02  0.7546771E-02  0.1728413E+00
         -2   -1    0    0    0  501 -0.00000000000E+00  0.00000000000E+00  0.41397386146E+01  0.41397386146E+01  0.00000000000E+00 0.  1.
          2   -1    0    0  501    0  0.00000000000E+00 -0.00000000000E+00 -0.23397399160E+03  0.23397399160E+03  0.00000000000E+00 0.  1.
          2    1    1    2  502    0 -0.12005556648E+02  0.17080831694E+02 -0.20321022299E+03  0.20427991318E+03  0.00000000000E+00 0.  1.
         -2    1    1    2    0  502  0.12005556648E+02 -0.17080831694E+02 -0.26624029993E+02  0.33833817031E+02  0.00000000000E+00 0.  1.
<mgrwt>
<rscale>  2 0.20877936E+02</rscale>
<asrwt>0</asrwt>
<pdfrwt beam="2">  1        2 0.35995999E-01 0.20877936E+02</pdfrwt>
<pdfrwt beam="1">  1       -2 0.63688286E-03 0.20877936E+02</pdfrwt>
<totfact> 0.33796134E+05</totfact>
</mgrwt>
</event>
<event>
 4    1  0.7653521E+003  0.2764649E+02  0.7546771E-02  0.1625662E+00
          2   -1    0    0  501    0  0.00000000000E+00  0.00000000000E+00  0.11399352934E+03  0.11399352934E+03  0.00000000000E+00 0.  1.
         -2   -1    0    0    0  501 -0.00000000000E+00 -0.00000000000E+00 -0.22117246067E+02  0.22117246067E+02  0.00000000000E+00 0. -1.
          2    1    1    2  502    0 -0.27636850157E+02 -0.72986344266E+00  0.10274879190E+03  0.10640320683E+03  0.00000000000E+00 0.  1.
         -2    1    1    2    0  502  0.27636850157E+02  0.72986344266E+00 -0.10872508621E+02  0.29707568581E+02  0.00000000000E+00 0. -1.
<mgrwt>
<rscale>  2 0.27646486E+02</rscale>
<asrwt>0</asrwt>
<pdfrwt beam="1">  1        2 0.17537466E-01 0.27646486E+02</pdfrwt>
<pdfrwt beam="2">  1       -2 0.34026533E-02 0.27646486E+02</pdfrwt>
<totfact> 0.77384335E+04</totfact>
</mgrwt>
</event>
<event>
 4    1  0.7653521E+003  0.2124268E+02  0.7546771E-02  0.1721688E+00
          2   -1    0    0  501    0  0.00000000000E+00  0.00000000000E+00  0.63893373630E+03  0.63893373630E+03  0.00000000000E+00 0. -1.
         -2   -1    0    0    0  501 -0.00000000000E+00 -0.00000000000E+00 -0.14954768733E+01  0.14954768733E+01  0.00000000000E+00 0. -1.
          2    1    1    2  502    0  0.19268071624E+02  0.89438760153E+01  0.55134084848E+03  0.55174992768E+03  0.00000000000E+00 0. -1.
         -2    1    1    2    0  502 -0.19268071624E+02 -0.89438760153E+01  0.86097410947E+02  0.88679285484E+02  0.00000000000E+00 0. -1.
<mgrwt>
<rscale>  2 0.21242681E+02</rscale>
<asrwt>0</asrwt>
<pdfrwt beam="1">  1        2 0.98297280E-01 0.21242681E+02</pdfrwt>
<pdfrwt beam="2">  1       -2 0.23007388E-03 0.21242681E+02</pdfrwt>
<totfact> 0.48418404E+05</totfact>
</mgrwt>
</event>
<event>
 4    1  0.7653521E+003  0.2211529E+02  0.7546771E-02  0.1706266E+00
         -2   -1    0    0    0  501 -0.00000000000E+00  0.00000000000E+00  0.63335067042E+01  0.63335067042E+01  0.00000000000E+00 0.  1.
          2   -1    0    0  501    0  0.00000000000E+00 -0.00000000000E+00 -0.11542501682E+04  0.11542501682E+04  0.00000000000E+00 0.  1.
          2    1    1    2  502    0 -0.84093029969E+01  0.20454082768E+02 -0.11345027394E+04  0.11347182697E+04  0.00000000000E+00 0.  1.
         -2    1    1    2    0  502  0.84093029969E+01 -0.20454082768E+02 -0.13413922026E+02  0.25865405137E+02  0.00000000000E+00 0.  1.
<mgrwt>
<rscale>  2 0.22115286E+02</rscale>
<asrwt>0</asrwt>
<pdfrwt beam="2">  1        2 0.17757712E+00 0.22115286E+02</pdfrwt>
<pdfrwt beam="1">  1       -2 0.97438473E-03 0.22115286E+02</pdfrwt>
<totfact> 0.35520839E+04</totfact>
</mgrwt>
</event>
<event>
 4    1  0.7653521E+003  0.2346366E+02  0.7546771E-02  0.1684103E+00
          2   -1    0    0  501    0  0.00000000000E+00  0.00000000000E+00  0.83505739802E+01  0.83505739802E+01  0.00000000000E+00 0. -1.
         -2   -1    0    0    0  501 -0.00000000000E+00 -0.00000000000E+00 -0.21783316757E+03  0.21783316757E+03  0.00000000000E+00 0.  1.
          2    1    1    2  502    0  0.13286846677E+02  0.19339156739E+02 -0.10301613310E+02  0.25625505162E+02  0.00000000000E+00 0. -1.
         -2    1    1    2    0  502 -0.13286846677E+02 -0.19339156739E+02 -0.19918098028E+03  0.20055823639E+03  0.00000000000E+00 0.  1.
<mgrwt>
<rscale>  2 0.23463659E+02</rscale>
<asrwt>0</asrwt>
<pdfrwt beam="1">  1        2 0.12847035E-02 0.23463659E+02</pdfrwt>
<pdfrwt beam="2">  1       -2 0.33512801E-01 0.23463659E+02</pdfrwt>
<totfact> 0.54531916E+04</totfact>
</mgrwt>
</event>
<event>
 4    1  0.7653521E+003  0.2416921E+02  0.7546771E-02  0.1673230E+00
          2   -1    0    0  501    0  0.00000000000E+00  0.00000000000E+00  0.36023064893E+02  0.36023064893E+02  0.00000000000E+00 0. -1.
         -2   -1    0    0    0  501 -0.00000000000E+00 -0.00000000000E+00 -0.25621062058E+02  0.25621062058E+02  0.00000000000E+00 0.  1.
          2    1    1    2  502    0 -0.10128847589E+02  0.21944415927E+02  0.23875260815E+02  0.33973210370E+02  0.00000000000E+00 0. -1.
         -2    1    1    2    0  502  0.10128847589E+02 -0.21944415927E+02 -0.13473257980E+02  0.27670916581E+02  0.00000000000E+00 0.  1.
<mgrwt>
<rscale>  2 0.24169215E+02</rscale>
<asrwt>0</asrwt>
<pdfrwt beam="1">  1        2 0.55420100E-02 0.24169215E+02</pdfrwt>
<pdfrwt beam="2">  1       -2 0.39417019E-02 0.24169215E+02</pdfrwt>
<totfact> 0.23040225E+05</totfact>
</mgrwt>
</event>
<event>
 4    1  0.7653521E+003  0.2314212E+02  0.7546771E-02  0.1689217E+00
          2   -1    0    0  501    0  0.00000000000E+00  0.00000000000E+00  0.39687148645E+00  0.39687148645E+00  0.00000000000E+00 0.  1.
         -2   -1    0    0    0  501 -0.00000000000E+00 -0.00000000000E+00 -0.19191562662E+04  0.19191562662E+04  0.00000000000E+00 0. -1.
          2    1    1    2  502    0 -0.22549605087E+02 -0.52031585151E+01 -0.43645262694E+03  0.43706573088E+03  0.00000000000E+00 0.  1.
         -2    1    1    2    0  502  0.22549605087E+02  0.52031585151E+01 -0.14823067678E+04  0.14824874068E+04  0.00000000000E+00 0. -1.
<mgrwt>
<rscale>  2 0.23142116E+02</rscale>
<asrwt>0</asrwt>
<pdfrwt beam="1">  1        2 0.61057524E-04 0.23142116E+02</pdfrwt>
<pdfrwt beam="2">  1       -2 0.29525301E+00 0.23142116E+02</pdfrwt>
<totfact> 0.19302670E+04</totfact>
</mgrwt>
</event>
<event>
 4    1  0.7653521E+003  0.2712389E+02  0.7546771E-02  0.1632245E+00
          2   -1    0    0  501    0  0.00000000000E+00  0.00000000000E+00  0.30854855409E+03  0.30854855409E+03  0.00000000000E+00 0. -1.
         -2   -1    0    0    0  501 -0.00000000000E+00 -0.00000000000E+00 -0.17976799609E+03  0.17976799609E+03  0.00000000000E+00 0.  1.
          2    1    1    2  502    0  0.47588080140E+00 -0.27119714555E+02  0.30692391534E+03  0.30812009864E+03  0.00000000000E+00 0. -1.
         -2    1    1    2    0  502 -0.47588080140E+00  0.27119714555E+02 -0.17814335734E+03  0.18019645154E+03  0.00000000000E+00 0.  1.
<mgrwt>
<rscale>  2 0.27123889E+02</rscale>
<asrwt>0</asrwt>
<pdfrwt beam="1">  1        2 0.47469008E-01 0.27123889E+02</pdfrwt>
<pdfrwt beam="2">  1       -2 0.27656615E-01 0.27123889E+02</pdfrwt>
<totfact> 0.11597775E+03</totfact>
</mgrwt>
</event>
<event>
 4    1  0.7653521E+003  0.2480463E+02  0.7546771E-02  0.1663824E+00
         -2   -1    0    0    0  501 -0.00000000000E+00  0.00000000000E+00  0.29852481616E+03  0.29852481616E+03  0.00000000000E+00 0.  1.
          2   -1    0    0  501    0  0.00000000000E+00 -0.00000000000E+00 -0.40276870450E+01  0.40276870450E+01  0.00000000000E+00 0.  1.
          2    1    1    2  502    0 -0.15028528980E+02  0.19733555706E+02  0.41540838591E+02  0.48382963685E+02  0.00000000000E+00 0.  1.
         -2    1    1    2    0  502  0.15028528980E+02 -0.19733555706E+02  0.25295629052E+03  0.25416953952E+03  0.00000000000E+00 0.  1.
<mgrwt>
<rscale>  2 0.24804635E+02</rscale>
<asrwt>0</asrwt>
<pdfrwt beam="2">  1        2 0.61964439E-03 0.24804635E+02</pdfrwt>
<pdfrwt beam="1">  1       -2 0.45926878E-01 0.24804635E+02</pdfrwt>
<totfact> 0.81128235E+04</totfact>
</mgrwt>
</event>
<event>
 4    1  0.7653521E+003  0.2246914E+02  0.7546771E-02  0.1700263E+00
          2   -1    0    0  501    0  0.00000000000E+00  0.00000000000E+00  0.56225215039E+01  0.56225215039E+01  0.00000000000E+00 0. -1.
         -2   -1    0    0    0  501 -0.00000000000E+00 -0.00000000000E+00 -0.13969425056E+03  0.13969425056E+03  0.00000000000E+00 0.  1.
          2    1    1    2  502    0 -0.13125978991E+02 -0.18236522996E+02 -0.23609552135E+02  0.32592530547E+02  0.00000000000E+00 0. -1.
         -2    1    1    2    0  502  0.13125978991E+02  0.18236522996E+02 -0.11046217692E+03  0.11272424152E+03  0.00000000000E+00 0.  1.
<mgrwt>
<rscale>  2 0.22469137E+02</rscale>
<asrwt>0</asrwt>
<pdfrwt beam="1">  1        2 0.86500323E-03 0.22469137E+02</pdfrwt>
<pdfrwt beam="2">  1       -2 0.21491425E-01 0.22469137E+02</pdfrwt>
<totfact> 0.19070439E+05</totfact>
</mgrwt>
</event>
<event>
 4    1  0.7653521E+003  0.2494862E+02  0.7546771E-02  0.1661741E+00
         -2   -1    0    0    0  501 -0.00000000000E+00  0.00000000000E+00  0.79311510840E+00  0.79311510840E+00  0.00000000000E+00 0. -1.
          2   -1    0    0  501    0  0.00000000000E+00 -0.00000000000E+00 -0.12362330641E+04  0.12362330641E+04  0.00000000000E+00 0. -1.
          2    1    1    2  502    0  0.58111346310E+01 -0.24262406324E+02 -0.99148380707E+03  0.99179764737E+03  0.00000000000E+00 0. -1.
         -2    1    1    2    0  502 -0.58111346310E+01  0.24262406324E+02 -0.24395614188E+03  0.24522853179E+03  0.00000000000E+00 0. -1.
<mgrwt>
<rscale>  2 0.24948620E+02</rscale>
<asrwt>0</asrwt>
<pdfrwt beam="2">  1        2 0.19018883E+00 0.24948620E+02</pdfrwt>
<pdfrwt beam="1">  1       -2 0.12201827E-03 0.24948620E+02</pdfrwt>
<totfact> 0.53082582E+05</totfact>
</mgrwt>
</event>
<event>
 4    1  0.7653521E+003  0.3455860E+02  0.7546771E-02  0.1552556E+00
          2   -1    0    0  501    0  0.00000000000E+00  0.00000000000E+00  0.10876915938E+04  0.10876915938E+04  0.00000000000E+00 0.  1.
         -2   -1    0    0    0  501 -0.00000000000E+00 -0.00000000000E+00 -0.42862627096E+01  0.42862627096E+01  0.00000000000E+00 0. -1.
          2    1    1    2  502    0 -0.22981316123E+02  0.25810002131E+02  0.10125940649E+04  0.10131836149E+04  0.00000000000E+00 0.  1.
         -2    1    1    2    0  502  0.22981316123E+02 -0.25810002131E+02  0.70811266145E+02  0.78794241629E+02  0.00000000000E+00 0. -1.
<mgrwt>
<rscale>  2 0.34558604E+02</rscale>
<asrwt>0</asrwt>
<pdfrwt beam="1">  1        2 0.16733695E+00 0.34558604E+02</pdfrwt>
<pdfrwt beam="2">  1       -2 0.65942590E-03 0.34558604E+02</pdfrwt>
<totfact> 0.70396647E+04</totfact>
</mgrwt>
</event>
<event>
 4    1  0.7653521E+003  0.2374675E+02  0.7546771E-02  0.1679684E+00
          2   -1    0    0  501    0  0.00000000000E+00  0.00000000000E+00  0.15426585208E+03  0.15426585208E+03  0.00000000000E+00 0.  1.
         -2   -1    0    0    0  501 -0.00000000000E+00 -0.00000000000E+00 -0.16879249009E+03  0.16879249009E+03  0.00000000000E+00 0. -1.
          2    1    1    2  502    0 -0.13794219345E+02 -0.19329453539E+02  0.15250721129E+03  0.15434493111E+03  0.00000000000E+00 0.  1.
         -2    1    1    2    0  502  0.13794219345E+02  0.19329453539E+02 -0.16703384930E+03  0.16871341107E+03  0.00000000000E+00 0. -1.
<mgrwt>
<rscale>  2 0.23746753E+02</rscale>
<asrwt>0</asrwt>
<pdfrwt beam="1">  1        2 0.23733208E-01 0.23746753E+02</pdfrwt>
<pdfrwt beam="2">  1       -2 0.25968075E-01 0.23746753E+02</pdfrwt>
<totfact> 0.25694659E+03</totfact>
</mgrwt>
</event>
<event>
 4    1  0.7653521E+003  0.4997361E+02  0.7546771E-02  0.1445484E+00
          2   -1    0    0  501    0  0.00000000000E+00  0.00000000000E+00  0.33434390496E+04  0.33434390496E+04  0.00000000000E+00 0. -1.
         -2   -1    0    0    0  501 -0.00000000000E+00 -0.00000000000E+00 -0.81252298505E+00  0.81252298505E+00  0.00000000000E+00 0. -1.
          2    1    1    2  502    0 -0.21051993533E+02  0.45323005460E+02  0.21463573750E+04  0.21469390635E+04  0.00000000000E+00 0. -1.
         -2    1    1    2    0  502  0.21051993533E+02 -0.45323005460E+02  0.11962691517E+04  0.11973125091E+04  0.00000000000E+00 0. -1.
<mgrwt>
<rscale>  2 0.49973606E+02</rscale>
<asrwt>0</asrwt>
<pdfrwt beam="1">  1        2 0.51436423E+00 0.49973606E+02</pdfrwt>
<pdfrwt beam="2">  1       -2 0.12500621E-03 0.49973606E+02</pdfrwt>
<totfact> 0.49224368E+04</totfact>
</mgrwt>
</event>
<event>
 4    1  0.7653521E+003  0.2684815E+02  0.7546771E-02  0.1635792E+00
          2   -1    0    0  501    0  0.00000000000E+00  0.00000000000E+00  0.10536755333E+04  0.10536755333E+04  0.00000000000E+00 0. -1.
         -2   -1    0    0    0  501 -0.00000000000E+00 -0.00000000000E+00 -0.66514648078E+01  0.66514648078E+01  0.00000000000E+00 0. -1.
          2    1    1    2  502    0 -0.22432394267E+02 -0.14751633747E+02  0.10256723004E+04  0.10260236308E+04  0.00000000000E+00 0. -1.
         -2    1    1    2    0  502  0.22432394267E+02  0.14751633747E+02  0.21351768016E+02  0.34303367300E+02  0.00000000000E+00 0. -1.
<mgrwt>
<rscale>  2 0.26848147E+02</rscale>
<asrwt>0</asrwt>
<pdfrwt beam="1">  1        2 0.16210380E+00 0.26848147E+02</pdfrwt>
<pdfrwt beam="2">  1       -2 0.10233031E-02 0.26848147E+02</pdfrwt>
<totfact> 0.38703337E+04</totfact>
</mgrwt>
</event>
<event>
 4    1  0.7653521E+003  0.3348279E+02  0.7546771E-02  0.1562502E+00
         -2   -1    0    0    0  501 -0.00000000000E+00  0.00000000000E+00  0.23226872229E+02  0.23226872229E+02  0.00000000000E+00 0.  1.
          2   -1    0    0  501    0  0.00000000000E+00 -0.00000000000E+00 -0.15324076091E+03  0.15324076091E+03  0.00000000000E+00 0. -1.
          2    1    1    2  502    0  0.32322580389E+02 -0.87377285567E+01 -0.13803467237E+03  0.14203755799E+03  0.00000000000E+00 0. -1.
         -2    1    1    2    0  502 -0.32322580389E+02  0.87377285567E+01  0.80207836942E+01  0.34430075144E+02  0.00000000000E+00 0.  1.
<mgrwt>
<rscale>  2 0.33482788E+02</rscale>
<asrwt>0</asrwt>
<pdfrwt beam="2">  1        2 0.23575502E-01 0.33482788E+02</pdfrwt>
<pdfrwt beam="1">  1       -2 0.35733650E-02 0.33482788E+02</pdfrwt>
<totfact> 0.54718702E+04</totfact>
</mgrwt>
</event>
<event>
 4    1  0.7653521E+003  0.2612447E+02  0.7546771E-02  0.1645357E+00
         -2   -1    0    0    0  501 -0.00000000000E+00  0.00000000000E+00  0.12768086514E+03  0.12768086514E+03  0.00000000000E+00 0. -1.
          2   -1    0    0  501    0  0.00000000000E+00 -0.00000000000E+00 -0.50216880625E+02  0.50216880625E+02  0.00000000000E+00 0. -1.
          2    1    1    2  502    0  0.24295678509E+02  0.96025084901E+01 -0.45349697876E+02  0.52336251882E+02  0.00000000000E+00 0. -1.
         -2    1    1    2    0  502 -0.24295678509E+02 -0.96025084901E+01  0.12281368239E+03  0.12556149389E+03  0.00000000000E+00 0. -1.
<mgrwt>
<rscale>  2 0.26124474E+02</rscale>
<asrwt>0</asrwt>
<pdfrwt beam="2">  1        2 0.77256740E-02 0.26124474E+02</pdfrwt>
<pdfrwt beam="1">  1       -2 0.19643210E-01 0.26124474E+02</pdfrwt>
<totfact> 0.14386346E+04</totfact>
</mgrwt>
</event>
<event>
 4    1  0.7653521E+003  0.2239034E+02  0.7546771E-02  0.1701587E+00
          2   -1    0    0  501    0  0.00000000000E+00  0.00000000000E+00  0.93064181009E+03  0.93064181009E+03  0.00000000000E+00 0. -1.
         -2   -1    0    0    0  501 -0.00000000000E+00 -0.00000000000E+00 -0.35467965268E+01  0.35467965268E+01  0.00000000000E+00 0. -1.
          2    1    1    2  502    0  0.80108853622E+01  0.20908205687E+02  0.89371050071E+03  0.89399093196E+03  0.00000000000E+00 0. -1.
         -2    1    1    2    0  502 -0.80108853622E+01 -0.20908205687E+02  0.33384512856E+02  0.40197674659E+02  0.00000000000E+00 0. -1.
<mgrwt>
<rscale>  2 0.22390341E+02</rscale>
<asrwt>0</asrwt>
<pdfrwt beam="1">  1        2 0.14317547E+00 0.22390341E+02</pdfrwt>
<pdfrwt beam="2">  1       -2 0.54566175E-03 0.22390341E+02</pdfrwt>
<totfact> 0.10205819E+05</totfact>
</mgrwt>
</event>
<event>
 4    1  0.7653521E+003  0.2082079E+02  0.7546771E-02  0.1729482E+00
         -2   -1    0    0    0  501 -0.00000000000E+00  0.00000000000E+00  0.25918635127E+03  0.25918635127E+03  0.00000000000E+00 0. -1.
          2   -1    0    0  501    0  0.00000000000E+00 -0.00000000000E+00 -0.95005359019E+03  0.95005359019E+03  0.00000000000E+00 0.  1.
          2    1    1    2  502    0  0.20261994398E+02  0.47913454148E+01 -0.94952114115E+03  0.94974938952E+03  0.00000000000E+00 0.  1.
         -2    1    1    2    0  502 -0.20261994398E+02 -0.47913454148E+01  0.25865390223E+03  0.25949055194E+03  0.00000000000E+00 0. -1.
<mgrwt>
<rscale>  2 0.20820793E+02</rscale>
<asrwt>0</asrwt>
<pdfrwt beam="2">  1        2 0.14616209E+00 0.20820793E+02</pdfrwt>
<pdfrwt beam="1">  1       -2 0.39874823E-01 0.20820793E+02</pdfrwt>
<totfact> 0.18641147E+02</totfact>
</mgrwt>
</event>
<event>
 4    1  0.7653521E+003  0.2434661E+02  0.7546771E-02  0.1670568E+00
         -2   -1    0    0    0  501 -0.00000000000E+00  0.00000000000E+00  0.49065722576E+02  0.49065722576E+02  0.00000000000E+00 0.  1.
          2   -1    0    0  501    0  0.00000000000E+00 -0.00000000000E+00 -0.54082872345E+02  0.54082872345E+02  0.00000000000E+00 0. -1.
          2    1    1    2  502    0 -0.53350090384E+01  0.23754896499E+02 -0.47959042733E+02  0.53785009147E+02  0.00000000000E+00 0. -1.
         -2    1    1    2    0  502  0.53350090384E+01 -0.23754896499E+02  0.42941892964E+02  0.49363585773E+02  0.00000000000E+00 0.  1.
<mgrwt>
<rscale>  2 0.24346610E+02</rscale>
<asrwt>0</asrwt>
<pdfrwt beam="2">  1        2 0.83204419E-02 0.24346610E+02</pdfrwt>
<pdfrwt beam="1">  1       -2 0.75485727E-02 0.24346610E+02</pdfrwt>
<totfact> 0.56004392E+04</totfact>
</mgrwt>
</event>
<event>
 4    1  0.7653521E+003  0.2384162E+02  0.7546771E-02  0.1678220E+00
         -2   -1    0    0    0  501 -0.00000000000E+00  0.00000000000E+00  0.33177566382E+03  0.33177566382E+03  0.00000000000E+00 0. -1.
          2   -1    0    0  501    0  0.00000000000E+00 -0.00000000000E+00 -0.15698238745E+02  0.15698238745E+02  0.00000000000E+00 0.  1.
          2    1    1    2  502    0 -0.31437222866E+01 -0.23633447062E+02 -0.59437524418E+01  0.24571345159E+02  0.00000000000E+00 0.  1.
         -2    1    1    2    0  502  0.31437222866E+01  0.23633447062E+02  0.32202117751E+03  0.32290255740E+03  0.00000000000E+00 0. -1.
<mgrwt>
<rscale>  2 0.23841619E+02</rscale>
<asrwt>0</asrwt>
<pdfrwt beam="2">  1        2 0.24151139E-02 0.23841619E+02</pdfrwt>
<pdfrwt beam="1">  1       -2 0.51042405E-01 0.23841619E+02</pdfrwt>
<totfact> 0.11254522E+04</totfact>
</mgrwt>
</event>
<event>
 4    1  0.7653521E+003  0.3392077E+02  0.7546771E-02  0.1558399E+00
          2   -1    0    0  501    0  0.00000000000E+00  0.00000000000E+00  0.26015489691E+03  0.26015489691E+03  0.00000000000E+00 0. -1.
         -2   -1    0    0    0  501 -0.00000000000E+00 -0.00000000000E+00 -0.48985738246E+02  0.48985738246E+02  0.00000000000E+00 0.  1.
          2    1    1    2  502    0  0.33458016344E+02 -0.55838574308E+01  0.25301193685E+03  0.25527565202E+03  0.00000000000E+00 0. -1.
         -2    1    1    2    0  502 -0.33458016344E+02  0.55838574308E+01 -0.41842778192E+02  0.53864983137E+02  0.00000000000E+00 0.  1.
<mgrwt>
<rscale>  2 0.33920765E+02</rscale>
<asrwt>0</asrwt>
<pdfrwt beam="1">  1        2 0.40023829E-01 0.33920765E+02</pdfrwt>
<pdfrwt beam="2">  1       -2 0.75362676E-02 0.33920765E+02</pdfrwt>
<totfact> 0.10819414E+04</totfact>
</mgrwt>
</event>
<event>
 4    1  0.7653521E+003  0.3065022E+02  0.7546771E-02  0.1591011E+00
          2   -1    0    0  501    0  0.00000000000E+00  0.00000000000E+00  0.51968959189E+02  0.51968959189E+02  0.00000000000E+00 0.  1.
         -2   -1    0    0    0  501 -0.00000000000E+00 -0.00000000000E+00 -0.37477193954E+02  0.37477193954E+02  0.00000000000E+00 0.  1.
          2    1    1    2  502    0 -0.29208277497E+02  0.92904623565E+01  0.39423406380E+02  0.49936370870E+02  0.00000000000E+00 0.  1.
         -2    1    1    2    0  502  0.29208277497E+02 -0.92904623565E+01 -0.24931641145E+02  0.39509782273E+02  0.00000000000E+00 0.  1.
<mgrwt>
<rscale>  2 0.30650223E+02</rscale>
<asrwt>0</asrwt>
<pdfrwt beam="1">  1        2 0.79952245E-02 0.30650223E+02</pdfrwt>
<pdfrwt beam="2">  1       -2 0.57657221E-02 0.30650223E+02</pdfrwt>
<totfact> 0.91402855E+04</totfact>
</mgrwt>
</event>
<event>
 4    1  0.7653521E+003  0.2394574E+02  0.7546771E-02  0.1676623E+00
         -2   -1    0    0    0  501 -0.00000000000E+00  0.00000000000E+00  0.12022101716E+02  0.12022101716E+02  0.00000000000E+00 0. -1.
          2   -1    0    0  501    0  0.00000000000E+00 -0.00000000000E+00 -0.48067530990E+02  0.48067530990E+02  0.00000000000E+00 0.  1.
          2    1    1    2  502    0 -0.20576073985E+02  0.12248396588E+02 -0.15378871048E+02  0.28458877601E+02  0.00000000000E+00 0.  1.
         -2    1    1    2    0  502  0.20576073985E+02 -0.12248396588E+02 -0.20666558226E+02  0.31630755105E+02  0.00000000000E+00 0. -1.
<mgrwt>
<rscale>  2 0.23945743E+02</rscale>
<asrwt>0</asrwt>
<pdfrwt beam="2">  1        2 0.73950048E-02 0.23945743E+02</pdfrwt>
<pdfrwt beam="1">  1       -2 0.18495541E-02 0.23945743E+02</pdfrwt>
<totfact> 0.46409373E+05</totfact>
</mgrwt>
</event>
<event>
 4    1  0.7653521E+003  0.2219601E+02  0.7546771E-02  0.1704884E+00
         -2   -1    0    0    0  501 -0.00000000000E+00  0.00000000000E+00  0.65619865927E+01  0.65619865927E+01  0.00000000000E+00 0. -1.
          2   -1    0    0  501    0  0.00000000000E+00 -0.00000000000E+00 -0.89310466518E+02  0.89310466518E+02  0.00000000000E+00 0. -1.
          2    1    1    2  502    0 -0.15434342240E+02 -0.15951303746E+02 -0.60510086386E+02  0.64452568343E+02  0.00000000000E+00 0. -1.
         -2    1    1    2    0  502  0.15434342240E+02  0.15951303746E+02 -0.22238393539E+02  0.31419884768E+02  0.00000000000E+00 0. -1.
<mgrwt>
<rscale>  2 0.22196013E+02</rscale>
<asrwt>0</asrwt>
<pdfrwt beam="2">  1        2 0.13740070E-01 0.22196013E+02</pdfrwt>
<pdfrwt beam="1">  1       -2 0.10095366E-02 0.22196013E+02</pdfrwt>
<totfact> 0.50707110E+05</totfact>
</mgrwt>
</event>
<event>
 4    1  0.7653521E+003  0.4180356E+02  0.7546771E-02  0.1495344E+00
          2   -1    0    0  501    0  0.00000000000E+00  0.00000000000E+00  0.27296565000E+03  0.27296565000E+03  0.00000000000E+00 0.  1.
         -2   -1    0    0    0  501 -0.00000000000E+00 -0.00000000000E+00 -0.21695653975E+02  0.21695653975E+02  0.00000000000E+00 0. -1.
          2    1    1    2  502    0  0.31615356154E+02 -0.27349711697E+02  0.24933274107E+03  0.25281288188E+03  0.00000000000E+00 0.  1.
         -2    1    1    2    0  502 -0.31615356154E+02  0.27349711697E+02  0.19372549493E+01  0.41848422090E+02  0.00000000000E+00 0. -1.
<mgrwt>
<rscale>  2 0.41803558E+02</rscale>
<asrwt>0</asrwt>
<pdfrwt beam="1">  1        2 0.41994713E-01 0.41803558E+02</pdfrwt>
<pdfrwt beam="2">  1       -2 0.33377931E-02 0.41803558E+02</pdfrwt>
<totfact> 0.34532281E+04</totfact>
</mgrwt>
</event>
<event>
 4    1  0.7653521E+003  0.2007814E+02  0.7546771E-02  0.1743779E+00
          2   -1    0    0  501    0  0.00000000000E+00  0.00000000000E+00  0.14156273304E+04  0.14156273304E+04  0.00000000000E+00 0. -1.
         -2   -1    0    0    0  501 -0.00000000000E+00 -0.00000000000E+00 -0.10526089991E+01  0.10526089991E+01  0.00000000000E+00 0.  1.
          2    1    1    2  502    0 -0.86304904550E+01 -0.18128603193E+02  0.13122695767E+04  0.13124231686E+04  0.00000000000E+00 0. -1.
         -2    1    1    2    0  502  0.86304904550E+01  0.18128603193E+02  0.10230514467E+03  0.10425677074E+03  0.00000000000E+00 0.  1.
<mgrwt>
<rscale>  2 0.20078138E+02</rscale>
<asrwt>0</asrwt>
<pdfrwt beam="1">  1        2 0.21778730E+00 0.20078138E+02</pdfrwt>
<pdfrwt beam="2">  1       -2 0.16194098E-03 0.20078138E+02</pdfrwt>
<totfact> 0.28300070E+05</totfact>
</mgrwt>
</event>
<event>
 4    1  0.7653521E+003  0.2920723E+02  0.7546771E-02  0.1607021E+00
          2   -1    0    0  501    0  0.00000000000E+00  0.00000000000E+00  0.16079897817E+04  0.16079897817E+04  0.00000000000E+00 0.  1.
         -2   -1    0    0    0  501 -0.00000000000E+00 -0.00000000000E+00 -0.33003057313E+02  0.33003057313E+02  0.00000000000E+00 0.  1.
          2    1    1    2  502    0 -0.13715340502E+02  0.25786656885E+02  0.16013684422E+04  0.16016347742E+04  0.00000000000E+00 0.  1.
         -2    1    1    2    0  502  0.13715340502E+02 -0.25786656885E+02 -0.26381717759E+02  0.39358064870E+02  0.00000000000E+00 0.  1.
<mgrwt>
<rscale>  2 0.29207229E+02</rscale>
<asrwt>0</asrwt>
<pdfrwt beam="1">  1        2 0.24738298E+00 0.29207229E+02</pdfrwt>
<pdfrwt beam="2">  1       -2 0.50773947E-02 0.29207229E+02</pdfrwt>
<totfact> 0.22337871E+03</totfact>
</mgrwt>
</event>
<event>
 4    1  0.7653521E+003  0.5096780E+02  0.7546771E-02  0.1440190E+00
          2   -1    0    0  501    0  0.00000000000E+00  0.00000000000E+00  0.45682402725E+02  0.45682402725E+02  0.00000000000E+00 0. -1.
         -2   -1    0    0    0  501 -0.00000000000E+00 -0.00000000000E+00 -0.77891849722E+02  0.77891849722E+02  0.00000000000E+00 0. -1.
          2    1    1    2  502    0 -0.13769806142E+02  0.49072487980E+02  0.15998014585E+02  0.53419594798E+02  0.00000000000E+00 0. -1.
         -2    1    1    2    0  502  0.13769806142E+02 -0.49072487980E+02 -0.48207461582E+02  0.70154657649E+02  0.00000000000E+00 0. -1.
<mgrwt>
<rscale>  2 0.50967800E+02</rscale>
<asrwt>0</asrwt>
<pdfrwt beam="1">  1        2 0.70280621E-02 0.50967800E+02</pdfrwt>
<pdfrwt beam="2">  1       -2 0.11983361E-01 0.50967800E+02</pdfrwt>
<totfact> 0.39410372E+04</totfact>
</mgrwt>
</event>
<event>
 4    1  0.7653521E+003  0.2466780E+02  0.7546771E-02  0.1665820E+00
          2   -1    0    0  501    0  0.00000000000E+00  0.00000000000E+00  0.45522858430E+01  0.45522858430E+01  0.00000000000E+00 0. -1.
         -2   -1    0    0    0  501 -0.00000000000E+00 -0.00000000000E+00 -0.30923055528E+03  0.30923055528E+03  0.00000000000E+00 0.  1.
          2    1    1    2  502    0 -0.22225357336E+02  0.10702051875E+02 -0.34124171033E+02  0.42106525287E+02  0.00000000000E+00 0. -1.
         -2    1    1    2    0  502  0.22225357336E+02 -0.10702051875E+02 -0.27055409840E+03  0.27167631583E+03  0.00000000000E+00 0.  1.
<mgrwt>
<rscale>  2 0.24667801E+02</rscale>
<asrwt>0</asrwt>
<pdfrwt beam="1">  1        2 0.70035153E-03 0.24667801E+02</pdfrwt>
<pdfrwt beam="2">  1       -2 0.47573941E-01 0.24667801E+02</pdfrwt>
<totfact> 0.64561032E+04</totfact>
</mgrwt>
</event>
<event>
 4    1  0.7653521E+003  0.2181133E+02  0.7546771E-02  0.1711536E+00
         -2   -1    0    0    0  501 -0.00000000000E+00  0.00000000000E+00  0.80608811550E+01  0.80608811550E+01  0.00000000000E+00 0.  1.
          2   -1    0    0  501    0  0.00000000000E+00 -0.00000000000E+00 -0.16145133613E+03  0.16145133613E+03  0.00000000000E+00 0.  1.
          2    1    1    2  502    0 -0.54330617562E+00  0.21804558506E+02 -0.14420578109E+03  0.14584595041E+03  0.00000000000E+00 0.  1.
         -2    1    1    2    0  502  0.54330617562E+00 -0.21804558506E+02 -0.91846738902E+01  0.23666266873E+02  0.00000000000E+00 0.  1.
<mgrwt>
<rscale>  2 0.21811326E+02</rscale>
<asrwt>0</asrwt>
<pdfrwt beam="2">  1        2 0.24838667E-01 0.21811326E+02</pdfrwt>
<pdfrwt beam="1">  1       -2 0.12401356E-02 0.21811326E+02</pdfrwt>
<totfact> 0.20297173E+05</totfact>
</mgrwt>
</event>
<event>
 4    1  0.7653521E+003  0.2008706E+02  0.7546771E-02  0.1743602E+00
         -2   -1    0    0    0  501 -0.00000000000E+00  0.00000000000E+00  0.11969958222E+01  0.11969958222E+01  0.00000000000E+00 0. -1.
          2   -1    0    0  501    0  0.00000000000E+00 -0.00000000000E+00 -0.38828832723E+03  0.38828832723E+03  0.00000000000E+00 0. -1.
          2    1    1    2  502    0  0.18327180199E+02  0.82221838785E+01 -0.26426387185E+03  0.26502619457E+03  0.00000000000E+00 0. -1.
         -2    1    1    2    0  502 -0.18327180199E+02 -0.82221838785E+01 -0.12282745956E+03  0.12445912848E+03  0.00000000000E+00 0. -1.
<mgrwt>
<rscale>  2 0.20087057E+02</rscale>
<asrwt>0</asrwt>
<pdfrwt beam="2">  1        2 0.59736639E-01 0.20087057E+02</pdfrwt>
<pdfrwt beam="1">  1       -2 0.18415329E-03 0.20087057E+02</pdfrwt>
<totfact> 0.10539978E+06</totfact>
</mgrwt>
</event>
<event>
 4    1  0.7653521E+003  0.2572381E+02  0.7546771E-02  0.1650818E+00
          2   -1    0    0  501    0  0.00000000000E+00  0.00000000000E+00  0.37749456573E+03  0.37749456573E+03  0.00000000000E+00 0. -1.
         -2   -1    0    0    0  501 -0.00000000000E+00 -0.00000000000E+00 -0.17610223369E+01  0.17610223369E+01  0.00000000000E+00 0. -1.
          2    1    1    2  502    0  0.50344936047E+01  0.25226331509E+02  0.17499620552E+03  0.17687675334E+03  0.00000000000E+00 0. -1.
         -2    1    1    2    0  502 -0.50344936047E+01 -0.25226331509E+02  0.20073733788E+03  0.20237883473E+03  0.00000000000E+00 0. -1.
<mgrwt>
<rscale>  2 0.25723814E+02</rscale>
<asrwt>0</asrwt>
<pdfrwt beam="1">  1        2 0.58076023E-01 0.25723814E+02</pdfrwt>
<pdfrwt beam="2">  1       -2 0.27092681E-03 0.25723814E+02</pdfrwt>
<totfact> 0.70286001E+05</totfact>
</mgrwt>
</event>
<event>
 4    1  0.7653521E+003  0.3097860E+02  0.7546771E-02  0.1587517E+00
         -2   -1    0    0    0  501 -0.00000000000E+00  0.00000000000E+00  0.31603830692E+02  0.31603830692E+02  0.00000000000E+00 0.  1.
          2   -1    0    0  501    0  0.00000000000E+00 -0.00000000000E+00 -0.29940418360E+03  0.29940418360E+03  0.00000000000E+00 0. -1.
          2    1    1    2  502    0 -0.43918056656E+01  0.30665711572E+02 -0.29078710077E+03  0.29243257650E+03  0.00000000000E+00 0. -1.
         -2    1    1    2    0  502  0.43918056656E+01 -0.30665711572E+02  0.22986747866E+02  0.38575437790E+02  0.00000000000E+00 0.  1.
<mgrwt>
<rscale>  2 0.30978603E+02</rscale>
<asrwt>0</asrwt>
<pdfrwt beam="2">  1        2 0.46062181E-01 0.30978603E+02</pdfrwt>
<pdfrwt beam="1">  1       -2 0.48621279E-02 0.30978603E+02</pdfrwt>
<totfact> 0.17552282E+04</totfact>
</mgrwt>
</event>
<event>
 4    1  0.7653521E+003  0.4157261E+02  0.7546771E-02  0.1496948E+00
          2   -1    0    0  501    0  0.00000000000E+00  0.00000000000E+00  0.11289679480E+04  0.11289679480E+04  0.00000000000E+00 0. -1.
         -2   -1    0    0    0  501 -0.00000000000E+00 -0.00000000000E+00 -0.44675955027E+03  0.44675955027E+03  0.00000000000E+00 0.  1.
          2    1    1    2  502    0  0.51309040146E+01 -0.41254762180E+02  0.11276169563E+04  0.11283830385E+04  0.00000000000E+00 0. -1.
         -2    1    1    2    0  502 -0.51309040146E+01  0.41254762180E+02 -0.44540855857E+03  0.44734445970E+03  0.00000000000E+00 0.  1.
<mgrwt>
<rscale>  2 0.41572606E+02</rscale>
<asrwt>0</asrwt>
<pdfrwt beam="1">  1        2 0.17368738E+00 0.41572606E+02</pdfrwt>
<pdfrwt beam="2">  1       -2 0.68732239E-01 0.41572606E+02</pdfrwt>
<totfact> 0.50497697E+01</totfact>
</mgrwt>
</event>
<event>
 4    1  0.7653521E+003  0.2013172E+02  0.7546771E-02  0.1742721E+00
         -2   -1    0    0    0  501 -0.00000000000E+00  0.00000000000E+00  0.57714962832E+00  0.57714962832E+00  0.00000000000E+00 0. -1.
          2   -1    0    0  501    0  0.00000000000E+00 -0.00000000000E+00 -0.80583077355E+03  0.80583077355E+03  0.00000000000E+00 0. -1.
          2    1    1    2  502    0  0.15492884959E+02  0.12855210210E+02 -0.25804765748E+03  0.25883175895E+03  0.00000000000E+00 0. -1.
         -2    1    1    2    0  502 -0.15492884959E+02 -0.12855210210E+02 -0.54720596645E+03  0.54757616423E+03  0.00000000000E+00 0. -1.
<mgrwt>
<rscale>  2 0.20131724E+02</rscale>
<asrwt>0</asrwt>
<pdfrwt beam="2">  1        2 0.12397328E+00 0.20131724E+02</pdfrwt>
<pdfrwt beam="1">  1       -2 0.88792739E-04 0.20131724E+02</pdfrwt>
<totfact> 0.12936034E+06</totfact>
</mgrwt>
</event>
<event>
 4    1  0.7653521E+003  0.3250675E+02  0.7546771E-02  0.1571926E+00
          2   -1    0    0  501    0  0.00000000000E+00  0.00000000000E+00  0.15243940972E+04  0.15243940972E+04  0.00000000000E+00 0.  1.
         -2   -1    0    0    0  501 -0.00000000000E+00 -0.00000000000E+00 -0.21852101483E+01  0.21852101483E+01  0.00000000000E+00 0.  1.
          2    1    1    2  502    0 -0.29585856752E+02  0.13467218320E+02  0.13918158339E+04  0.13921953901E+04  0.00000000000E+00 0.  1.
         -2    1    1    2    0  502  0.29585856752E+02 -0.13467218320E+02  0.13039305322E+03  0.13438391725E+03  0.00000000000E+00 0.  1.
<mgrwt>
<rscale>  2 0.32506751E+02</rscale>
<asrwt>0</asrwt>
<pdfrwt beam="1">  1        2 0.23452132E+00 0.32506751E+02</pdfrwt>
<pdfrwt beam="2">  1       -2 0.33618739E-03 0.32506751E+02</pdfrwt>
<totfact> 0.10491421E+05</totfact>
</mgrwt>
</event>
<event>
 4    1  0.7653521E+003  0.4763474E+02  0.7546771E-02  0.1458533E+00
         -2   -1    0    0    0  501 -0.00000000000E+00  0.00000000000E+00  0.22175265386E+02  0.22175265386E+02  0.00000000000E+00 0.  1.
          2   -1    0    0  501    0  0.00000000000E+00 -0.00000000000E+00 -0.22066440742E+03  0.22066440742E+03  0.00000000000E+00 0.  1.
          2    1    1    2  502    0  0.39141818982E+02 -0.27147494031E+02 -0.18816253005E+03  0.19409844446E+03  0.00000000000E+00 0.  1.
         -2    1    1    2    0  502 -0.39141818982E+02  0.27147494031E+02 -0.10326611977E+02  0.48741228342E+02  0.00000000000E+00 0.  1.
<mgrwt>
<rscale>  2 0.47634740E+02</rscale>
<asrwt>0</asrwt>
<pdfrwt beam="2">  1        2 0.33948370E-01 0.47634740E+02</pdfrwt>
<pdfrwt beam="1">  1       -2 0.34115794E-02 0.47634740E+02</pdfrwt>
<totfact> 0.42482377E+04</totfact>
</mgrwt>
</event>
<event>
 4    1  0.7653521E+003  0.2090087E+02  0.7546771E-02  0.1727985E+00
         -2   -1    0    0    0  501 -0.00000000000E+00  0.00000000000E+00  0.18439401075E+01  0.18439401075E+01  0.00000000000E+00 0. -1.
          2   -1    0    0  501    0  0.00000000000E+00 -0.00000000000E+00 -0.15662244485E+04  0.15662244485E+04  0.00000000000E+00 0. -1.
          2    1    1    2  502    0 -0.20606796831E+02 -0.34937793687E+01 -0.15044975153E+04  0.15046426886E+04  0.00000000000E+00 0. -1.
         -2    1    1    2    0  502  0.20606796831E+02  0.34937793687E+01 -0.59882993080E+02  0.63425700076E+02  0.00000000000E+00 0. -1.
<mgrwt>
<rscale>  2 0.20900875E+02</rscale>
<asrwt>0</asrwt>
<pdfrwt beam="2">  1        2 0.24095795E+00 0.20900875E+02</pdfrwt>
<pdfrwt beam="1">  1       -2 0.28368270E-03 0.20900875E+02</pdfrwt>
<totfact> 0.11583132E+05</totfact>
</mgrwt>
</event>
<event>
 4    1  0.7653521E+003  0.2184564E+02  0.7546771E-02  0.1710935E+00
          2   -1    0    0  501    0  0.00000000000E+00  0.00000000000E+00  0.43225077635E+03  0.43225077635E+03  0.00000000000E+00 0.  1.
         -2   -1    0    0    0  501 -0.00000000000E+00 -0.00000000000E+00 -0.76836375761E+02  0.76836375761E+02  0.00000000000E+00 0.  1.
          2    1    1    2  502    0 -0.80903495892E+01 -0.20292317495E+02  0.43041538986E+03  0.43096941856E+03  0.00000000000E+00 0.  1.
         -2    1    1    2    0  502  0.80903495892E+01  0.20292317495E+02 -0.75000989263E+02  0.78117733558E+02  0.00000000000E+00 0.  1.
<mgrwt>
<rscale>  2 0.21845638E+02</rscale>
<asrwt>0</asrwt>
<pdfrwt beam="1">  1        2 0.66500118E-01 0.21845638E+02</pdfrwt>
<pdfrwt beam="2">  1       -2 0.11820981E-01 0.21845638E+02</pdfrwt>
<totfact> 0.31708248E+03</totfact>
</mgrwt>
</event>
<event>
 4    1  0.7653521E+003  0.2081484E+02  0.7546771E-02  0.1729593E+00
          2   -1    0    0  501    0  0.00000000000E+00  0.00000000000E+00  0.41534149663E+03  0.41534149663E+03  0.00000000000E+00 0.  1.
         -2   -1    0    0    0  501 -0.00000000000E+00 -0.00000000000E+00 -0.15478731596E+03  0.15478731596E+03  0.00000000000E+00 0. -1.
          2    1    1    2  502    0  0.18441357672E+02  0.96526594762E+01  0.41437932632E+03  0.41490177583E+03  0.00000000000E+00 0.  1.
         -2    1    1    2    0  502 -0.18441357672E+02 -0.96526594762E+01 -0.15382514565E+03  0.15522703676E+03  0.00000000000E+00 0. -1.
<mgrwt>
<rscale>  2 0.20814839E+02</rscale>
<asrwt>0</asrwt>
<pdfrwt beam="1">  1        2 0.63898691E-01 0.20814839E+02</pdfrwt>
<pdfrwt beam="2">  1       -2 0.23813433E-01 0.20814839E+02</pdfrwt>
<totfact> 0.10923188E+03</totfact>
</mgrwt>
</event>
<event>
 4    1  0.7653521E+003  0.3093090E+02  0.7546771E-02  0.1588021E+00
         -2   -1    0    0    0  501 -0.00000000000E+00  0.00000000000E+00  0.12710402857E+02  0.12710402857E+02  0.00000000000E+00 0.  1.
          2   -1    0    0  501    0  0.00000000000E+00 -0.00000000000E+00 -0.21867720672E+03  0.21867720672E+03  0.00000000000E+00 0.  1.
          2    1    1    2  502    0  0.29975580982E+02  0.76279048233E+01 -0.19667331519E+03  0.19909071624E+03  0.00000000000E+00 0.  1.
         -2    1    1    2    0  502 -0.29975580982E+02 -0.76279048233E+01 -0.92934886734E+01  0.32296893332E+02  0.00000000000E+00 0.  1.
<mgrwt>
<rscale>  2 0.30930897E+02</rscale>
<asrwt>0</asrwt>
<pdfrwt beam="2">  1        2 0.33642646E-01 0.30930897E+02</pdfrwt>
<pdfrwt beam="1">  1       -2 0.19554467E-02 0.30930897E+02</pdfrwt>
<totfact> 0.86770886E+04</totfact>
</mgrwt>
</event>
<event>
 4    1  0.7653521E+003  0.3036389E+02  0.7546771E-02  0.1594101E+00
          2   -1    0    0  501    0  0.00000000000E+00  0.00000000000E+00  0.48044984997E+03  0.48044984997E+03  0.00000000000E+00 0.  1.
         -2   -1    0    0    0  501 -0.00000000000E+00 -0.00000000000E+00 -0.52639603787E+01  0.52639603787E+01  0.00000000000E+00 0.  1.
          2    1    1    2  502    0 -0.17922626080E+02  0.24510101254E+02  0.43118700457E+03  0.43225478425E+03  0.00000000000E+00 0.  1.
         -2    1    1    2    0  502  0.17922626080E+02 -0.24510101254E+02  0.43998885012E+02  0.53459026099E+02  0.00000000000E+00 0.  1.
<mgrwt>
<rscale>  2 0.30363886E+02</rscale>
<asrwt>0</asrwt>
<pdfrwt beam="1">  1        2 0.73915327E-01 0.30363886E+02</pdfrwt>
<pdfrwt beam="2">  1       -2 0.80984044E-03 0.30363886E+02</pdfrwt>
<totfact> 0.13151302E+05</totfact>
</mgrwt>
</event>
<event>
 4    1  0.7653521E+003  0.2264273E+02  0.7546771E-02  0.1697368E+00
         -2   -1    0    0    0  501 -0.00000000000E+00  0.00000000000E+00  0.93929780352E+02  0.93929780352E+02  0.00000000000E+00 0. -1.
          2   -1    0    0  501    0  0.00000000000E+00 -0.00000000000E+00 -0.45970103040E+03  0.45970103040E+03  0.00000000000E+00 0.  1.
          2    1    1    2  502    0  0.37612771398E+01  0.22328146854E+02 -0.45805273865E+03  0.45861204163E+03  0.00000000000E+00 0.  1.
         -2    1    1    2    0  502 -0.37612771398E+01 -0.22328146854E+02  0.92281488597E+02  0.95018769122E+02  0.00000000000E+00 0. -1.
<mgrwt>
<rscale>  2 0.22642733E+02</rscale>
<asrwt>0</asrwt>
<pdfrwt beam="2">  1        2 0.70723236E-01 0.22642733E+02</pdfrwt>
<pdfrwt beam="1">  1       -2 0.14450735E-01 0.22642733E+02</pdfrwt>
<totfact> 0.22018408E+03</totfact>
</mgrwt>
</event>
<event>
 4    1  0.7653521E+003  0.4230760E+02  0.7546771E-02  0.1491886E+00
          2   -1    0    0  501    0  0.00000000000E+00  0.00000000000E+00  0.14404677110E+04  0.14404677110E+04  0.00000000000E+00 0. -1.
         -2   -1    0    0    0  501 -0.00000000000E+00 -0.00000000000E+00 -0.19362260396E+01  0.19362260396E+01  0.00000000000E+00 0.  1.
          2    1    1    2  502    0  0.46240607545E+00 -0.42305074233E+02  0.11509237903E+04  0.11517011349E+04  0.00000000000E+00 0. -1.
         -2    1    1    2    0  502 -0.46240607545E+00  0.42305074233E+02  0.28760769466E+03  0.29070280210E+03  0.00000000000E+00 0.  1.
<mgrwt>
<rscale>  2 0.42307601E+02</rscale>
<asrwt>0</asrwt>
<pdfrwt beam="1">  1        2 0.22160956E+00 0.42307601E+02</pdfrwt>
<pdfrwt beam="2">  1       -2 0.29788208E-03 0.42307601E+02</pdfrwt>
<totfact> 0.14199087E+05</totfact>
</mgrwt>
</event>
<event>
 4    1  0.7653521E+003  0.4984649E+02  0.7546771E-02  0.1446171E+00
         -2   -1    0    0    0  501 -0.00000000000E+00  0.00000000000E+00  0.15059868182E+03  0.15059868182E+03  0.00000000000E+00 0. -1.
          2   -1    0    0  501    0  0.00000000000E+00 -0.00000000000E+00 -0.31254063123E+03  0.31254063123E+03  0.00000000000E+00 0. -1.
          2    1    1    2  502    0 -0.79810634885E+01  0.49203407150E+02 -0.30634562777E+03  0.31037447753E+03  0.00000000000E+00 0. -1.
         -2    1    1    2    0  502  0.79810634885E+01 -0.49203407150E+02  0.14440367835E+03  0.15276483552E+03  0.00000000000E+00 0. -1.
<mgrwt>
<rscale>  2 0.49846491E+02</rscale>
<asrwt>0</asrwt>
<pdfrwt beam="2">  1        2 0.48083174E-01 0.49846491E+02</pdfrwt>
<pdfrwt beam="1">  1       -2 0.23169028E-01 0.49846491E+02</pdfrwt>
<totfact> 0.16001656E+03</totfact>
</mgrwt>
</event>
<event>
 4    1  0.7653521E+003  0.5240773E+02  0.7546771E-02  0.1432771E+00
          2   -1    0    0  501    0  0.00000000000E+00  0.00000000000E+00  0.12925270784E+03  0.12925270784E+03  0.00000000000E+00 0. -1.
         -2   -1    0    0    0  501 -0.00000000000E+00 -0.00000000000E+00 -0.21916687782E+02  0.21916687782E+02  0.00000000000E+00 0. -1.
          2    1    1    2  502    0  0.47513815380E+02  0.22113514896E+02  0.66854622649E+02  0.84947694275E+02  0.00000000000E+00 0. -1.
         -2    1    1    2    0  502 -0.47513815380E+02 -0.22113514896E+02  0.40481397408E+02  0.66221701346E+02  0.00000000000E+00 0. -1.
<mgrwt>
<rscale>  2 0.52407730E+02</rscale>
<asrwt>0</asrwt>
<pdfrwt beam="1">  1        2 0.19885032E-01 0.52407730E+02</pdfrwt>
<pdfrwt beam="2">  1       -2 0.33717982E-02 0.52407730E+02</pdfrwt>
<totfact> 0.77520126E+04</totfact>
</mgrwt>
</event>
<event>
 4    1  0.7653521E+003  0.2666865E+02  0.7546771E-02  0.1638130E+00
         -2   -1    0    0    0  501 -0.00000000000E+00  0.00000000000E+00  0.21495760920E+03  0.21495760920E+03  0.00000000000E+00 0.  1.
          2   -1    0    0  501    0  0.00000000000E+00 -0.00000000000E+00 -0.62307829439E+02  0.62307829439E+02  0.00000000000E+00 0. -1.
          2    1    1    2  502    0  0.20026390103E+02 -0.17611371311E+02 -0.58576823146E+02  0.64361952346E+02  0.00000000000E+00 0. -1.
         -2    1    1    2    0  502 -0.20026390103E+02  0.17611371311E+02  0.21122660290E+03  0.21290348629E+03  0.00000000000E+00 0.  1.
<mgrwt>
<rscale>  2 0.26668646E+02</rscale>
<asrwt>0</asrwt>
<pdfrwt beam="2">  1        2 0.95858200E-02 0.26668646E+02</pdfrwt>
<pdfrwt beam="1">  1       -2 0.33070401E-01 0.26668646E+02</pdfrwt>
<totfact> 0.46673550E+03</totfact>
</mgrwt>
</event>
<event>
 4    1  0.7653521E+003  0.4924608E+02  0.7546771E-02  0.1449451E+00
          2   -1    0    0  501    0  0.00000000000E+00  0.00000000000E+00  0.16032766957E+04  0.16032766957E+04  0.00000000000E+00 0. -1.
         -2   -1    0    0    0  501 -0.00000000000E+00 -0.00000000000E+00 -0.16509189995E+01  0.16509189995E+01  0.00000000000E+00 0. -1.
          2    1    1    2  502    0 -0.48481474528E+02 -0.86442274176E+01  0.10330571626E+04  0.10342302825E+04  0.00000000000E+00 0. -1.
         -2    1    1    2    0  502  0.48481474528E+02  0.86442274176E+01  0.56856861411E+03  0.57069733221E+03  0.00000000000E+00 0. -1.
<mgrwt>
<rscale>  2 0.49246076E+02</rscale>
<asrwt>0</asrwt>
<pdfrwt beam="1">  1        2 0.24665671E+00 0.49246076E+02</pdfrwt>
<pdfrwt beam="2">  1       -2 0.25398882E-03 0.49246076E+02</pdfrwt>
<totfact> 0.15038994E+05</totfact>
</mgrwt>
</event>
<event>
 4    1  0.7653521E+003  0.2315567E+02  0.7546771E-02  0.1688999E+00
          2   -1    0    0  501    0  0.00000000000E+00  0.00000000000E+00  0.45717095947E+01  0.45717095947E+01  0.00000000000E+00 0.  1.
         -2   -1    0    0    0  501 -0.00000000000E+00 -0.00000000000E+00 -0.15150547011E+03  0.15150547011E+03  0.00000000000E+00 0. -1.
          2    1    1    2  502    0 -0.23109278484E+02  0.14650699092E+01 -0.36377546021E+02  0.43122048147E+02  0.00000000000E+00 0.  1.
         -2    1    1    2    0  502  0.23109278484E+02 -0.14650699092E+01 -0.11055621450E+03  0.11295513156E+03  0.00000000000E+00 0. -1.
<mgrwt>
<rscale>  2 0.23155673E+02</rscale>
<asrwt>0</asrwt>
<pdfrwt beam="1">  1        2 0.70334012E-03 0.23155673E+02</pdfrwt>
<pdfrwt beam="2">  1       -2 0.23308528E-01 0.23155673E+02</pdfrwt>
<totfact> 0.22082088E+05</totfact>
</mgrwt>
</event>
<event>
 4    1  0.7653521E+003  0.2380477E+02  0.7546771E-02  0.1678788E+00
         -2   -1    0    0    0  501 -0.00000000000E+00  0.00000000000E+00  0.24317478974E+03  0.24317478974E+03  0.00000000000E+00 0.  1.
          2   -1    0    0  501    0  0.00000000000E+00 -0.00000000000E+00 -0.67963003497E+03  0.67963003497E+03  0.00000000000E+00 0.  1.
          2    1    1    2  502    0 -0.22420071914E+02  0.80004781123E+01 -0.67883833681E+03  0.67925558871E+03  0.00000000000E+00 0.  1.
         -2    1    1    2    0  502  0.22420071914E+02 -0.80004781123E+01  0.24238309157E+03  0.24354923600E+03  0.00000000000E+00 0.  1.
<mgrwt>
<rscale>  2 0.23804774E+02</rscale>
<asrwt>0</asrwt>
<pdfrwt beam="2">  1        2 0.10455847E+00 0.23804774E+02</pdfrwt>
<pdfrwt beam="1">  1       -2 0.37411506E-01 0.23804774E+02</pdfrwt>
<totfact> 0.30564683E+02</totfact>
</mgrwt>
</event>
<event>
 4    1  0.7653521E+003  0.2155668E+02  0.7546771E-02  0.1716034E+00
          2   -1    0    0  501    0  0.00000000000E+00  0.00000000000E+00  0.39134724145E+01  0.39134724145E+01  0.00000000000E+00 0. -1.
         -2   -1    0    0    0  501 -0.00000000000E+00 -0.00000000000E+00 -0.11966106200E+03  0.11966106200E+03  0.00000000000E+00 0.  1.
          2    1    1    2  502    0  0.35911868467E+01 -0.21255434072E+02 -0.63291340755E+02  0.66861677478E+02  0.00000000000E+00 0. -1.
         -2    1    1    2    0  502 -0.35911868467E+01  0.21255434072E+02 -0.52456248832E+02  0.56712856939E+02  0.00000000000E+00 0.  1.
<mgrwt>
<rscale>  2 0.21556683E+02</rscale>
<asrwt>0</asrwt>
<pdfrwt beam="1">  1        2 0.60207273E-03 0.21556683E+02</pdfrwt>
<pdfrwt beam="2">  1       -2 0.18409393E-01 0.21556683E+02</pdfrwt>
<totfact> 0.38746859E+05</totfact>
</mgrwt>
</event>
<event>
 4    1  0.7653521E+003  0.2597902E+02  0.7546771E-02  0.1647325E+00
          2   -1    0    0  501    0  0.00000000000E+00  0.00000000000E+00  0.32933850883E+02  0.32933850883E+02  0.00000000000E+00 0.  1.
         -2   -1    0    0    0  501 -0.00000000000E+00 -0.00000000000E+00 -0.16651908031E+03  0.16651908031E+03  0.00000000000E+00 0.  1.
          2    1    1    2  502    0  0.13308037705E+02  0.22311560877E+02  0.26595973643E+02  0.37178695921E+02  0.00000000000E+00 0.  1.
         -2    1    1    2    0  502 -0.13308037705E+02 -0.22311560877E+02 -0.16018120307E+03  0.16227423527E+03  0.00000000000E+00 0.  1.
<mgrwt>
<rscale>  2 0.25979023E+02</rscale>
<asrwt>0</asrwt>
<pdfrwt beam="1">  1        2 0.50667463E-02 0.25979023E+02</pdfrwt>
<pdfrwt beam="2">  1       -2 0.25618320E-01 0.25979023E+02</pdfrwt>
<totfact> 0.15464267E+04</totfact>
</mgrwt>
</event>
<event>
 4    1  0.7653521E+003  0.2566753E+02  0.7546771E-02  0.1651595E+00
         -2   -1    0    0    0  501 -0.00000000000E+00  0.00000000000E+00  0.45502027850E+02  0.45502027850E+02  0.00000000000E+00 0. -1.
          2   -1    0    0  501    0  0.00000000000E+00 -0.00000000000E+00 -0.10540591525E+04  0.10540591525E+04  0.00000000000E+00 0. -1.
          2    1    1    2  502    0  0.20347045355E+02 -0.15646718295E+02 -0.10502700972E+04  0.10505836945E+04  0.00000000000E+00 0. -1.
         -2    1    1    2    0  502 -0.20347045355E+02  0.15646718295E+02  0.41712972519E+02  0.48977485894E+02  0.00000000000E+00 0. -1.
<mgrwt>
<rscale>  2 0.25667529E+02</rscale>
<asrwt>0</asrwt>
<pdfrwt beam="2">  1        2 0.16216292E+00 0.25667529E+02</pdfrwt>
<pdfrwt beam="1">  1       -2 0.70003130E-02 0.25667529E+02</pdfrwt>
<totfact> 0.26247278E+03</totfact>
</mgrwt>
</event>
<event>
 4    1  0.7653521E+003  0.3700746E+02  0.7546771E-02  0.1531464E+00
         -2   -1    0    0    0  501 -0.00000000000E+00  0.00000000000E+00  0.22051576382E+01  0.22051576382E+01  0.00000000000E+00 0.  1.
          2   -1    0    0  501    0  0.00000000000E+00 -0.00000000000E+00 -0.62837883064E+03  0.62837883064E+03  0.00000000000E+00 0.  1.
          2    1    1    2  502    0 -0.16349746907E+02  0.33199971800E+02 -0.34709570374E+03  0.34906300277E+03  0.00000000000E+00 0.  1.
         -2    1    1    2    0  502  0.16349746907E+02 -0.33199971800E+02 -0.27907796926E+03  0.28152098551E+03  0.00000000000E+00 0.  1.
<mgrwt>
<rscale>  2 0.37007463E+02</rscale>
<asrwt>0</asrwt>
<pdfrwt beam="2">  1        2 0.96673746E-01 0.37007463E+02</pdfrwt>
<pdfrwt beam="1">  1       -2 0.33925474E-03 0.37007463E+02</pdfrwt>
<totfact> 0.33858581E+05</totfact>
</mgrwt>
</event>
<event>
 4    1  0.7653521E+003  0.2665422E+02  0.7546771E-02  0.1638319E+00
          2   -1    0    0  501    0  0.00000000000E+00  0.00000000000E+00  0.80682632592E+03  0.80682632592E+03  0.00000000000E+00 0. -1.
         -2   -1    0    0    0  501 -0.00000000000E+00 -0.00000000000E+00 -0.16059000148E+02  0.16059000148E+02  0.00000000000E+00 0.  1.
          2    1    1    2  502    0  0.13450732538E+01 -0.26620263191E+02  0.79538721114E+03  0.79583369072E+03  0.00000000000E+00 0. -1.
         -2    1    1    2    0  502 -0.13450732538E+01  0.26620263191E+02 -0.46198853667E+01  0.27051635352E+02  0.00000000000E+00 0.  1.
<mgrwt>
<rscale>  2 0.26654224E+02</rscale>
<asrwt>0</asrwt>
<pdfrwt beam="1">  1        2 0.12412710E+00 0.26654224E+02</pdfrwt>
<pdfrwt beam="2">  1       -2 0.24706160E-02 0.26654224E+02</pdfrwt>
<totfact> 0.15940627E+04</totfact>
</mgrwt>
</event>
<event>
 4    1  0.7653521E+003  0.2366490E+02  0.7546771E-02  0.1680954E+00
         -2   -1    0    0    0  501 -0.00000000000E+00  0.00000000000E+00  0.34069556519E+03  0.34069556519E+03  0.00000000000E+00 0.  1.
          2   -1    0    0  501    0  0.00000000000E+00 -0.00000000000E+00 -0.12133308527E+03  0.12133308527E+03  0.00000000000E+00 0. -1.
          2    1    1    2  502    0 -0.20111241103E+02 -0.12472580856E+02 -0.11976290024E+03  0.12207857947E+03  0.00000000000E+00 0. -1.
         -2    1    1    2    0  502  0.20111241103E+02  0.12472580856E+02  0.33912538016E+03  0.33995007098E+03  0.00000000000E+00 0.  1.
<mgrwt>
<rscale>  2 0.23664896E+02</rscale>
<asrwt>0</asrwt>
<pdfrwt beam="2">  1        2 0.18666629E-01 0.23664896E+02</pdfrwt>
<pdfrwt beam="1">  1       -2 0.52414702E-01 0.23664896E+02</pdfrwt>
<totfact> 0.94083675E+02</totfact>
</mgrwt>
</event>
<event>
 4    1  0.7653521E+003  0.2443912E+02  0.7546771E-02  0.1669191E+00
         -2   -1    0    0    0  501 -0.00000000000E+00  0.00000000000E+00  0.75440713518E+00  0.75440713518E+00  0.00000000000E+00 0. -1.
          2   -1    0    0  501    0  0.00000000000E+00 -0.00000000000E+00 -0.11987319300E+04  0.11987319300E+04  0.00000000000E+00 0.  1.
          2    1    1    2  502    0  0.19290194696E+02 -0.15005294306E+02 -0.94846208428E+03  0.94877689463E+03  0.00000000000E+00 0.  1.
         -2    1    1    2    0  502 -0.19290194696E+02  0.15005294306E+02 -0.24951543857E+03  0.25070944249E+03  0.00000000000E+00 0. -1.
<mgrwt>
<rscale>  2 0.24439118E+02</rscale>
<asrwt>0</asrwt>
<pdfrwt beam="2">  1        2 0.18442045E+00 0.24439118E+02</pdfrwt>
<pdfrwt beam="1">  1       -2 0.11606254E-03 0.24439118E+02</pdfrwt>
<totfact> 0.58893538E+05</totfact>
</mgrwt>
</event>
<event>
 4    1  0.7653521E+003  0.2481884E+02  0.7546771E-02  0.1663618E+00
         -2   -1    0    0    0  501 -0.00000000000E+00  0.00000000000E+00  0.22029278859E+01  0.22029278859E+01  0.00000000000E+00 0. -1.
          2   -1    0    0  501    0  0.00000000000E+00 -0.00000000000E+00 -0.45907335459E+03  0.45907335459E+03  0.00000000000E+00 0.  1.
          2    1    1    2  502    0  0.15790020559E+02 -0.19148111412E+02 -0.37263683613E+03  0.37346242991E+03  0.00000000000E+00 0.  1.
         -2    1    1    2    0  502 -0.15790020559E+02  0.19148111412E+02 -0.84233590576E+02  0.87813852559E+02  0.00000000000E+00 0. -1.
<mgrwt>
<rscale>  2 0.24818842E+02</rscale>
<asrwt>0</asrwt>
<pdfrwt beam="2">  1        2 0.70626650E-01 0.24818842E+02</pdfrwt>
<pdfrwt beam="1">  1       -2 0.33891208E-03 0.24818842E+02</pdfrwt>
<totfact> 0.42437159E+05</totfact>
</mgrwt>
</event>
<event>
 4    1  0.7653521E+003  0.2411771E+02  0.7546771E-02  0.1674008E+00
         -2   -1    0    0    0  501 -0.00000000000E+00  0.00000000000E+00  0.81689337783E+02  0.81689337783E+02  0.00000000000E+00 0. -1.
          2   -1    0    0  501    0  0.00000000000E+00 -0.00000000000E+00 -0.95839171654E+01  0.95839171654E+01  0.00000000000E+00 0. -1.
          2    1    1    2  502    0  0.77454037107E+01 -0.22840154355E+02  0.12915212315E+02  0.27358118333E+02  0.00000000000E+00 0. -1.
         -2    1    1    2    0  502 -0.77454037107E+01  0.22840154355E+02  0.59190208303E+02  0.63915136615E+02  0.00000000000E+00 0. -1.
<mgrwt>
<rscale>  2 0.24117710E+02</rscale>
<asrwt>0</asrwt>
<pdfrwt beam="2">  1        2 0.14744488E-02 0.24117710E+02</pdfrwt>
<pdfrwt beam="1">  1       -2 0.12567590E-01 0.24117710E+02</pdfrwt>
<totfact> 0.22628446E+05</totfact>
</mgrwt>
</event>
<event>
 4    1  0.7653521E+003  0.3165915E+02  0.7546771E-02  0.1580441E+00
         -2   -1    0    0    0  501 -0.00000000000E+00  0.00000000000E+00  0.79608603957E+01  0.79608603957E+01  0.00000000000E+00 0.  1.
          2   -1    0    0  501    0  0.00000000000E+00 -0.00000000000E+00 -0.67467617013E+03  0.67467617013E+03  0.00000000000E+00 0. -1.
          2    1    1    2  502    0  0.25429446927E+02  0.18858545284E+02 -0.64118580626E+03  0.64196693034E+03  0.00000000000E+00 0. -1.
         -2    1    1    2    0  502 -0.25429446927E+02 -0.18858545284E+02 -0.25529503468E+02  0.40670100180E+02  0.00000000000E+00 0.  1.
<mgrwt>
<rscale>  2 0.31659146E+02</rscale>
<asrwt>0</asrwt>
<pdfrwt beam="2">  1        2 0.10379632E+00 0.31659146E+02</pdfrwt>
<pdfrwt beam="1">  1       -2 0.12247479E-02 0.31659146E+02</pdfrwt>
<totfact> 0.52679631E+04</totfact>
</mgrwt>
</event>
<event>
 4    1  0.7653521E+003  0.3803249E+02  0.7546771E-02  0.1523210E+00
         -2   -1    0    0    0  501 -0.00000000000E+00  0.00000000000E+00  0.93491520032E+03  0.93491520032E+03  0.00000000000E+00 0. -1.
          2   -1    0    0  501    0  0.00000000000E+00 -0.00000000000E+00 -0.26664802168E+01  0.26664802168E+01  0.00000000000E+00 0. -1.
          2    1    1    2  502    0 -0.37305810865E+02 -0.73991045204E+01  0.16239576398E+03  0.16678985110E+03  0.00000000000E+00 0. -1.
         -2    1    1    2    0  502  0.37305810865E+02  0.73991045204E+01  0.76985295612E+03  0.77079182943E+03  0.00000000000E+00 0. -1.
<mgrwt>
<rscale>  2 0.38032490E+02</rscale>
<asrwt>0</asrwt>
<pdfrwt beam="2">  1        2 0.41022847E-03 0.38032490E+02</pdfrwt>
<pdfrwt beam="1">  1       -2 0.14383285E+00 0.38032490E+02</pdfrwt>
<totfact> 0.13496431E+04</totfact>
</mgrwt>
</event>
<event>
 4    1  0.7653521E+003  0.2048143E+02  0.7546771E-02  0.1735920E+00
         -2   -1    0    0    0  501 -0.00000000000E+00  0.00000000000E+00  0.49287791810E+02  0.49287791810E+02  0.00000000000E+00 0. -1.
          2   -1    0    0  501    0  0.00000000000E+00 -0.00000000000E+00 -0.11737174262E+02  0.11737174262E+02  0.00000000000E+00 0. -1.
          2    1    1    2  502    0  0.12298008872E+02  0.16378278854E+02  0.27782991608E+01  0.20669010297E+02  0.00000000000E+00 0. -1.
         -2    1    1    2    0  502 -0.12298008872E+02 -0.16378278854E+02  0.34772318388E+02  0.40355955775E+02  0.00000000000E+00 0. -1.
<mgrwt>
<rscale>  2 0.20481432E+02</rscale>
<asrwt>0</asrwt>
<pdfrwt beam="2">  1        2 0.18057191E-02 0.20481432E+02</pdfrwt>
<pdfrwt beam="1">  1       -2 0.75827371E-02 0.20481432E+02</pdfrwt>
<totfact> 0.35119798E+05</totfact>
</mgrwt>
</event>
<event>
 4    1  0.7653521E+003  0.2007667E+02  0.7546771E-02  0.1743808E+00
         -2   -1    0    0    0  501 -0.00000000000E+00  0.00000000000E+00  0.29298600004E+02  0.29298600004E+02  0.00000000000E+00 0. -1.
          2   -1    0    0  501    0  0.00000000000E+00 -0.00000000000E+00 -0.17096709107E+03  0.17096709107E+03  0.00000000000E+00 0.  1.
          2    1    1    2  502    0 -0.95975087044E+00  0.20053717518E+02 -0.16685385757E+03  0.16805737857E+03  0.00000000000E+00 0.  1.
         -2    1    1    2    0  502  0.95975087044E+00 -0.20053717518E+02  0.25185366504E+02  0.32208312497E+02  0.00000000000E+00 0. -1.
<mgrwt>
<rscale>  2 0.20076671E+02</rscale>
<asrwt>0</asrwt>
<pdfrwt beam="2">  1        2 0.26302629E-01 0.20076671E+02</pdfrwt>
<pdfrwt beam="1">  1       -2 0.45074770E-02 0.20076671E+02</pdfrwt>
<totfact> 0.31796457E+04</totfact>
</mgrwt>
</event>
<event>
 4    1  0.7653521E+003  0.4706744E+02  0.7546771E-02  0.1461833E+00
          2   -1    0    0  501    0  0.00000000000E+00  0.00000000000E+00  0.46470796217E+03  0.46470796217E+03  0.00000000000E+00 0. -1.
         -2   -1    0    0    0  501 -0.00000000000E+00 -0.00000000000E+00 -0.10265485053E+02  0.10265485053E+02  0.00000000000E+00 0. -1.
          2    1    1    2  502    0 -0.39914039377E+02  0.24944198291E+02  0.40102703801E+03  0.40377967851E+03  0.00000000000E+00 0. -1.
         -2    1    1    2    0  502  0.39914039377E+02 -0.24944198291E+02  0.53415439109E+02  0.71193768709E+02  0.00000000000E+00 0. -1.
<mgrwt>
<rscale>  2 0.47067436E+02</rscale>
<asrwt>0</asrwt>
<pdfrwt beam="1">  1        2 0.71493517E-01 0.47067436E+02</pdfrwt>
<pdfrwt beam="2">  1       -2 0.15793057E-02 0.47067436E+02</pdfrwt>
<totfact> 0.58798481E+04</totfact>
</mgrwt>
</event>
<event>
 4    1  0.7653521E+003  0.2136762E+02  0.7546771E-02  0.1719424E+00
          2   -1    0    0  501    0  0.00000000000E+00  0.00000000000E+00  0.88822018421E+03  0.88822018421E+03  0.00000000000E+00 0. -1.
         -2   -1    0    0    0  501 -0.00000000000E+00 -0.00000000000E+00 -0.12617403588E+02  0.12617403588E+02  0.00000000000E+00 0.  1.
          2    1    1    2  502    0 -0.16584640276E+02  0.13473114621E+02  0.87894973985E+03  0.87920942914E+03  0.00000000000E+00 0. -1.
         -2    1    1    2    0  502  0.16584640276E+02 -0.13473114621E+02 -0.33469592303E+01  0.21628158654E+02  0.00000000000E+00 0.  1.
<mgrwt>
<rscale>  2 0.21367618E+02</rscale>
<asrwt>0</asrwt>
<pdfrwt beam="1">  1        2 0.13664921E+00 0.21367618E+02</pdfrwt>
<pdfrwt beam="2">  1       -2 0.19411397E-02 0.21367618E+02</pdfrwt>
<totfact> 0.19252472E+04</totfact>
</mgrwt>
</event>
<event>
 4    1  0.7653521E+003  0.3373476E+02  0.7546771E-02  0.1560132E+00
          2   -1    0    0  501    0  0.00000000000E+00  0.00000000000E+00  0.27677918245E+03  0.27677918245E+03  0.00000000000E+00 0.  1.
         -2   -1    0    0    0  501 -0.00000000000E+00 -0.00000000000E+00 -0.63640357367E+02  0.63640357367E+02  0.00000000000E+00 0. -1.
          2    1    1    2  502    0  0.17608908849E+01  0.33688773590E+02  0.27118888559E+03  0.27327906226E+03  0.00000000000E+00 0.  1.
         -2    1    1    2    0  502 -0.17608908849E+01 -0.33688773590E+02 -0.58050060502E+02  0.67140477560E+02  0.00000000000E+00 0. -1.
<mgrwt>
<rscale>  2 0.33734763E+02</rscale>
<asrwt>0</asrwt>
<pdfrwt beam="1">  1        2 0.42581412E-01 0.33734763E+02</pdfrwt>
<pdfrwt beam="2">  1       -2 0.97908243E-02 0.33734763E+02</pdfrwt>
<totfact> 0.68758501E+03</totfact>
</mgrwt>
</event>
<event>
 4    1  0.7653521E+003  0.2150895E+02  0.7546771E-02  0.1716885E+00
          2   -1    0    0  501    0  0.00000000000E+00  0.00000000000E+00  0.76379000103E+03  0.76379000103E+03  0.00000000000E+00 0. -1.
         -2   -1    0    0    0  501 -0.00000000000E+00 -0.00000000000E+00 -0.34917050026E+02  0.34917050026E+02  0.00000000000E+00 0. -1.
          2    1    1    2  502    0 -0.21446052835E+02 -0.16437579599E+01  0.76031103312E+03  0.76061521297E+03  0.00000000000E+00 0. -1.
         -2    1    1    2    0  502  0.21446052835E+02  0.16437579599E+01 -0.31438082108E+02  0.38091838090E+02  0.00000000000E+00 0. -1.
<mgrwt>
<rscale>  2 0.21508954E+02</rscale>
<asrwt>0</asrwt>
<pdfrwt beam="1">  1        2 0.11750614E+00 0.21508954E+02</pdfrwt>
<pdfrwt beam="2">  1       -2 0.53718544E-02 0.21508954E+02</pdfrwt>
<totfact> 0.55553920E+03</totfact>
</mgrwt>
</event>
<event>
 4    1  0.7653521E+003  0.2421769E+02  0.7546771E-02  0.1672499E+00
         -2   -1    0    0    0  501 -0.00000000000E+00  0.00000000000E+00  0.85679890592E+03  0.85679890592E+03  0.00000000000E+00 0.  1.
          2   -1    0    0  501    0  0.00000000000E+00 -0.00000000000E+00 -0.76542490316E+03  0.76542490316E+03  0.00000000000E+00 0. -1.
          2    1    1    2  502    0 -0.16263831453E+02 -0.17943925657E+02 -0.76506213265E+03  0.76544533671E+03  0.00000000000E+00 0. -1.
         -2    1    1    2    0  502  0.16263831453E+02  0.17943925657E+02  0.85643613540E+03  0.85677847236E+03  0.00000000000E+00 0.  1.
<mgrwt>
<rscale>  2 0.24217694E+02</rscale>
<asrwt>0</asrwt>
<pdfrwt beam="2">  1        2 0.11775768E+00 0.24217694E+02</pdfrwt>
<pdfrwt beam="1">  1       -2 0.13181522E+00 0.24217694E+02</pdfrwt>
<totfact> 0.20040699E+01</totfact>
</mgrwt>
</event>
<event>
 4    1  0.7653521E+003  0.2288990E+02  0.7546771E-02  0.1693301E+00
          2   -1    0    0  501    0  0.00000000000E+00  0.00000000000E+00  0.39714126409E+03  0.39714126409E+03  0.00000000000E+00 0.  1.
         -2   -1    0    0    0  501 -0.00000000000E+00 -0.00000000000E+00 -0.43623467905E+02  0.43623467905E+02  0.00000000000E+00 0.  1.
          2    1    1    2  502    0  0.19346691691E+02  0.12233277893E+02  0.39378318496E+03  0.39444789811E+03  0.00000000000E+00 0.  1.
         -2    1    1    2    0  502 -0.19346691691E+02 -0.12233277893E+02 -0.40265388778E+02  0.46316833881E+02  0.00000000000E+00 0.  1.
<mgrwt>
<rscale>  2 0.22889901E+02</rscale>
<asrwt>0</asrwt>
<pdfrwt beam="1">  1        2 0.61098654E-01 0.22889901E+02</pdfrwt>
<pdfrwt beam="2">  1       -2 0.67113030E-02 0.22889901E+02</pdfrwt>
<totfact> 0.79893629E+03</totfact>
</mgrwt>
</event>
<event>
 4    1  0.7653521E+003  0.3769442E+02  0.7546771E-02  0.1525898E+00
         -2   -1    0    0    0  501 -0.00000000000E+00  0.00000000000E+00  0.29528724487E+02  0.29528724487E+02  0.00000000000E+00 0. -1.
          2   -1    0    0  501    0  0.00000000000E+00 -0.00000000000E+00 -0.35943652445E+03  0.35943652445E+03  0.00000000000E+00 0. -1.
          2    1    1    2  502    0 -0.32726898987E+02  0.18703451985E+02 -0.34595117917E+03  0.34799868879E+03  0.00000000000E+00 0. -1.
         -2    1    1    2    0  502  0.32726898987E+02 -0.18703451985E+02  0.16043379207E+02  0.40966560142E+02  0.00000000000E+00 0. -1.
<mgrwt>
<rscale>  2 0.37694416E+02</rscale>
<asrwt>0</asrwt>
<pdfrwt beam="2">  1        2 0.55297927E-01 0.37694416E+02</pdfrwt>
<pdfrwt beam="1">  1       -2 0.45428807E-02 0.37694416E+02</pdfrwt>
<totfact> 0.16561781E+04</totfact>
</mgrwt>
</event>
<event>
 4    1  0.7653521E+003  0.3072520E+02  0.7546771E-02  0.1590208E+00
          2   -1    0    0  501    0  0.00000000000E+00  0.00000000000E+00  0.56875643372E+03  0.56875643372E+03  0.00000000000E+00 0.  1.
         -2   -1    0    0    0  501 -0.00000000000E+00 -0.00000000000E+00 -0.25356124557E+01  0.25356124557E+01  0.00000000000E+00 0.  1.
          2    1    1    2  502    0 -0.27330103389E+02  0.14039350960E+02  0.45098514108E+03  0.45203056910E+03  0.00000000000E+00 0.  1.
         -2    1    1    2    0  502  0.27330103389E+02 -0.14039350960E+02  0.11523568019E+03  0.11926147708E+03  0.00000000000E+00 0.  1.
<mgrwt>
<rscale>  2 0.30725200E+02</rscale>
<asrwt>0</asrwt>
<pdfrwt beam="1">  1        2 0.87500888E-01 0.30725200E+02</pdfrwt>
<pdfrwt beam="2">  1       -2 0.39009468E-03 0.30725200E+02</pdfrwt>
<totfact> 0.29821571E+05</totfact>
</mgrwt>
</event>
<event>
 4    1  0.7653521E+003  0.5987813E+02  0.7546771E-02  0.1398344E+00
          2   -1    0    0  501    0  0.00000000000E+00  0.00000000000E+00  0.10739449507E+03  0.10739449507E+03  0.00000000000E+00 0.  1.
         -2   -1    0    0    0  501 -0.00000000000E+00 -0.00000000000E+00 -0.74038109910E+02  0.74038109910E+02  0.00000000000E+00 0. -1.
          2    1    1    2  502    0  0.35898048908E+02 -0.47924079731E+02 -0.50542574795E+02  0.78357764136E+02  0.00000000000E+00 0. -1.
         -2    1    1    2    0  502 -0.35898048908E+02  0.47924079731E+02  0.83898959958E+02  0.10307484085E+03  0.00000000000E+00 0.  1.
<mgrwt>
<rscale>  2 0.59878134E+02</rscale>
<asrwt>0</asrwt>
<pdfrwt beam="1">  1        2 0.16522230E-01 0.59878134E+02</pdfrwt>
<pdfrwt beam="2">  1       -2 0.11390478E-01 0.59878134E+02</pdfrwt>
<totfact> 0.15902930E+04</totfact>
</mgrwt>
</event>
<event>
 4    1  0.7653521E+003  0.2004868E+02  0.7546771E-02  0.1744362E+00
          2   -1    0    0  501    0  0.00000000000E+00  0.00000000000E+00  0.51080679098E+03  0.51080679098E+03  0.00000000000E+00 0. -1.
         -2   -1    0    0    0  501 -0.00000000000E+00 -0.00000000000E+00 -0.11301650877E+01  0.11301650877E+01  0.00000000000E+00 0. -1.
          2    1    1    2  502    0 -0.12425739499E+01 -0.20010140487E+02  0.39590858416E+03  0.39641588859E+03  0.00000000000E+00 0. -1.
         -2    1    1    2    0  502  0.12425739499E+01  0.20010140487E+02  0.11376804173E+03  0.11552106748E+03  0.00000000000E+00 0. -1.
<mgrwt>
<rscale>  2 0.20048684E+02</rscale>
<asrwt>0</asrwt>
<pdfrwt beam="1">  1        2 0.78585476E-01 0.20048684E+02</pdfrwt>
<pdfrwt beam="2">  1       -2 0.17387196E-03 0.20048684E+02</pdfrwt>
<totfact> 0.86586910E+05</totfact>
</mgrwt>
</event>
<event>
 4    1  0.7653521E+003  0.2189477E+02  0.7546771E-02  0.1710078E+00
         -2   -1    0    0    0  501 -0.00000000000E+00  0.00000000000E+00  0.56726208741E+01  0.56726208741E+01  0.00000000000E+00 0. -1.
          2   -1    0    0  501    0  0.00000000000E+00 -0.00000000000E+00 -0.93265380737E+02  0.93265380737E+02  0.00000000000E+00 0. -1.
          2    1    1    2  502    0  0.19983342670E+02  0.89469040973E+01 -0.58955129420E+02  0.62889493257E+02  0.00000000000E+00 0. -1.
         -2    1    1    2    0  502 -0.19983342670E+02 -0.89469040973E+01 -0.28637630443E+02  0.36048508354E+02  0.00000000000E+00 0. -1.
<mgrwt>
<rscale>  2 0.21894773E+02</rscale>
<asrwt>0</asrwt>
<pdfrwt beam="2">  1        2 0.14348520E-01 0.21894773E+02</pdfrwt>
<pdfrwt beam="1">  1       -2 0.87271091E-03 0.21894773E+02</pdfrwt>
<totfact> 0.58576527E+05</totfact>
</mgrwt>
</event>
<event>
 4    1  0.7653521E+003  0.3126138E+02  0.7546771E-02  0.1584550E+00
         -2   -1    0    0    0  501 -0.00000000000E+00  0.00000000000E+00  0.22141258260E+03  0.22141258260E+03  0.00000000000E+00 0.  1.
          2   -1    0    0  501    0  0.00000000000E+00 -0.00000000000E+00 -0.18976129558E+02  0.18976129558E+02  0.00000000000E+00 0.  1.
          2    1    1    2  502    0  0.87309694486E+01  0.30017400185E+02 -0.40737948365E+01  0.31525702938E+02  0.00000000000E+00 0.  1.
         -2    1    1    2    0  502 -0.87309694486E+01 -0.30017400185E+02  0.20651024788E+03  0.20886300922E+03  0.00000000000E+00 0.  1.
<mgrwt>
<rscale>  2 0.31261384E+02</rscale>
<asrwt>0</asrwt>
<pdfrwt beam="2">  1        2 0.29194047E-02 0.31261384E+02</pdfrwt>
<pdfrwt beam="1">  1       -2 0.34063472E-01 0.31261384E+02</pdfrwt>
<totfact> 0.19546913E+04</totfact>
</mgrwt>
</event>
<event>
 4    1  0.7653521E+003  0.2826578E+02  0.7546771E-02  0.1618089E+00
         -2   -1    0    0    0  501 -0.00000000000E+00  0.00000000000E+00  0.80107894475E+01  0.80107894475E+01  0.00000000000E+00 0. -1.
          2   -1    0    0  501    0  0.00000000000E+00 -0.00000000000E+00 -0.15432908680E+04  0.15432908680E+04  0.00000000000E+00 0. -1.
          2    1    1    2  502    0 -0.28115178344E+02  0.29139437517E+01 -0.15178091871E+04  0.15180723576E+04  0.00000000000E+00 0. -1.
         -2    1    1    2    0  502  0.28115178344E+02 -0.29139437517E+01 -0.17470891395E+02  0.33229299837E+02  0.00000000000E+00 0. -1.
<mgrwt>
<rscale>  2 0.28265780E+02</rscale>
<asrwt>0</asrwt>
<pdfrwt beam="2">  1        2 0.23742925E+00 0.28265780E+02</pdfrwt>
<pdfrwt beam="1">  1       -2 0.12324298E-02 0.28265780E+02</pdfrwt>
<totfact> 0.17252139E+04</totfact>
</mgrwt>
</event>
<event>
 4    1  0.7653521E+003  0.2536481E+02  0.7546771E-02  0.1655817E+00
          2   -1    0    0  501    0  0.00000000000E+00  0.00000000000E+00  0.12891250229E+04  0.12891250229E+04  0.00000000000E+00 0. -1.
         -2   -1    0    0    0  501 -0.00000000000E+00 -0.00000000000E+00 -0.86607897139E+00  0.86607897139E+00  0.00000000000E+00 0. -1.
          2    1    1    2  502    0 -0.14626034241E+02  0.20723237889E+02  0.10639965236E+04  0.10642988188E+04  0.00000000000E+00 0. -1.
         -2    1    1    2    0  502  0.14626034241E+02 -0.20723237889E+02  0.22426242029E+03  0.22569228304E+03  0.00000000000E+00 0. -1.
<mgrwt>
<rscale>  2 0.25364808E+02</rscale>
<asrwt>0</asrwt>
<pdfrwt beam="1">  1        2 0.19832539E+00 0.25364808E+02</pdfrwt>
<pdfrwt beam="2">  1       -2 0.13324395E-03 0.25364808E+02</pdfrwt>
<totfact> 0.44669837E+05</totfact>
</mgrwt>
</event>
<event>
 4    1  0.7653521E+003  0.2230242E+02  0.7546771E-02  0.1703074E+00
         -2   -1    0    0    0  501 -0.00000000000E+00  0.00000000000E+00  0.43419978340E+01  0.43419978340E+01  0.00000000000E+00 0. -1.
          2   -1    0    0  501    0  0.00000000000E+00 -0.00000000000E+00 -0.47951706182E+03  0.47951706182E+03  0.00000000000E+00 0. -1.
          2    1    1    2  502    0  0.10833819130E+02  0.19494262042E+02 -0.44864983128E+03  0.44920381676E+03  0.00000000000E+00 0. -1.
         -2    1    1    2    0  502 -0.10833819130E+02 -0.19494262042E+02 -0.26525232705E+02  0.34655242887E+02  0.00000000000E+00 0. -1.
<mgrwt>
<rscale>  2 0.22302419E+02</rscale>
<asrwt>0</asrwt>
<pdfrwt beam="2">  1        2 0.73771871E-01 0.22302419E+02</pdfrwt>
<pdfrwt beam="1">  1       -2 0.66799953E-03 0.22302419E+02</pdfrwt>
<totfact> 0.15907695E+05</totfact>
</mgrwt>
</event>
<event>
 4    1  0.7653521E+003  0.3548497E+02  0.7546771E-02  0.1544336E+00
         -2   -1    0    0    0  501 -0.00000000000E+00  0.00000000000E+00  0.25659303982E+01  0.25659303982E+01  0.00000000000E+00 0.  1.
          2   -1    0    0  501    0  0.00000000000E+00 -0.00000000000E+00 -0.72912386566E+03  0.72912386566E+03  0.00000000000E+00 0.  1.
          2    1    1    2  502    0 -0.34155980967E+02 -0.96204067765E+01 -0.57246967067E+03  0.57356839792E+03  0.00000000000E+00 0.  1.
         -2    1    1    2    0  502  0.34155980967E+02  0.96204067765E+01 -0.15408826459E+03  0.15812139813E+03  0.00000000000E+00 0.  1.
<mgrwt>
<rscale>  2 0.35484972E+02</rscale>
<asrwt>0</asrwt>
<pdfrwt beam="2">  1        2 0.11217292E+00 0.35484972E+02</pdfrwt>
<pdfrwt beam="1">  1       -2 0.39475847E-03 0.35484972E+02</pdfrwt>
<totfact> 0.23173258E+05</totfact>
</mgrwt>
</event>
<event>
 4    1  0.7653521E+003  0.2048679E+02  0.7546771E-02  0.1735817E+00
         -2   -1    0    0    0  501 -0.00000000000E+00  0.00000000000E+00  0.11026803568E+03  0.11026803568E+03  0.00000000000E+00 0. -1.
          2   -1    0    0  501    0  0.00000000000E+00 -0.00000000000E+00 -0.83565067344E+01  0.83565067344E+01  0.00000000000E+00 0.  1.
          2    1    1    2  502    0 -0.13957159456E+02  0.14996869077E+02  0.71884569254E+01  0.21711340243E+02  0.00000000000E+00 0.  1.
         -2    1    1    2    0  502  0.13957159456E+02 -0.14996869077E+02  0.94723072021E+02  0.96913202172E+02  0.00000000000E+00 0. -1.
<mgrwt>
<rscale>  2 0.20486786E+02</rscale>
<asrwt>0</asrwt>
<pdfrwt beam="2">  1        2 0.12856165E-02 0.20486786E+02</pdfrwt>
<pdfrwt beam="1">  1       -2 0.16964312E-01 0.20486786E+02</pdfrwt>
<totfact> 0.16189454E+05</totfact>
</mgrwt>
</event>
<event>
 4    1  0.7653521E+003  0.9285752E+02  0.7546771E-02  0.1296076E+00
          2   -1    0    0  501    0  0.00000000000E+00  0.00000000000E+00  0.15841028630E+04  0.15841028630E+04  0.00000000000E+00 0. -1.
         -2   -1    0    0    0  501 -0.00000000000E+00 -0.00000000000E+00 -0.23473135947E+02  0.23473135947E+02  0.00000000000E+00 0.  1.
          2    1    1    2  502    0 -0.89771221609E+02 -0.23741258107E+02  0.14847703867E+04  0.14876712072E+04  0.00000000000E+00 0. -1.
         -2    1    1    2    0  502  0.89771221609E+02  0.23741258107E+02  0.75859340407E+02  0.11990479178E+03  0.00000000000E+00 0.  1.
<mgrwt>
<rscale>  2 0.92857523E+02</rscale>
<asrwt>0</asrwt>
<pdfrwt beam="1">  1        2 0.24370805E+00 0.92857523E+02</pdfrwt>
<pdfrwt beam="2">  1       -2 0.36112529E-02 0.92857523E+02</pdfrwt>
<totfact> 0.38834023E+03</totfact>
</mgrwt>
</event>
<event>
 4    1  0.7653521E+003  0.2215553E+02  0.7546771E-02  0.1705576E+00
          2   -1    0    0  501    0  0.00000000000E+00  0.00000000000E+00  0.45800418145E+03  0.45800418145E+03  0.00000000000E+00 0.  1.
         -2   -1    0    0    0  501 -0.00000000000E+00 -0.00000000000E+00 -0.10974046909E+02  0.10974046909E+02  0.00000000000E+00 0.  1.
          2    1    1    2  502    0 -0.16684368816E+02  0.14577360793E+02  0.44625966197E+03  0.44680930330E+03  0.00000000000E+00 0.  1.
         -2    1    1    2    0  502  0.16684368816E+02 -0.14577360793E+02  0.77047257248E+00  0.22168925064E+02  0.00000000000E+00 0.  1.
<mgrwt>
<rscale>  2 0.22155532E+02</rscale>
<asrwt>0</asrwt>
<pdfrwt beam="1">  1        2 0.70462167E-01 0.22155532E+02</pdfrwt>
<pdfrwt beam="2">  1       -2 0.16883153E-02 0.22155532E+02</pdfrwt>
<totfact> 0.47460153E+04</totfact>
</mgrwt>
</event>
<event>
 4    1  0.7653521E+003  0.2492183E+02  0.7546771E-02  0.1662127E+00
          2   -1    0    0  501    0  0.00000000000E+00  0.00000000000E+00  0.14322943332E+03  0.14322943332E+03  0.00000000000E+00 0. -1.
         -2   -1    0    0    0  501 -0.00000000000E+00 -0.00000000000E+00 -0.82198214887E+02  0.82198214887E+02  0.00000000000E+00 0. -1.
          2    1    1    2  502    0 -0.14597175048E+02 -0.20199512587E+02  0.14021603100E+03  0.14241359899E+03  0.00000000000E+00 0. -1.
         -2    1    1    2    0  502  0.14597175048E+02  0.20199512587E+02 -0.79184812560E+02  0.83014049222E+02  0.00000000000E+00 0. -1.
<mgrwt>
<rscale>  2 0.24921834E+02</rscale>
<asrwt>0</asrwt>
<pdfrwt beam="1">  1        2 0.22035297E-01 0.24921834E+02</pdfrwt>
<pdfrwt beam="2">  1       -2 0.12645879E-01 0.24921834E+02</pdfrwt>
<totfact> 0.88055370E+03</totfact>
</mgrwt>
</event>
<event>
 4    1  0.7653521E+003  0.2135888E+02  0.7546771E-02  0.1719582E+00
         -2   -1    0    0    0  501 -0.00000000000E+00  0.00000000000E+00  0.88853017131E+02  0.88853017131E+02  0.00000000000E+00 0. -1.
          2   -1    0    0  501    0  0.00000000000E+00 -0.00000000000E+00 -0.67596823017E+03  0.67596823017E+03  0.00000000000E+00 0. -1.
          2    1    1    2  502    0  0.21241854782E+02  0.22327906167E+01 -0.67451315487E+03  0.67485124127E+03  0.00000000000E+00 0. -1.
         -2    1    1    2    0  502 -0.21241854782E+02 -0.22327906167E+01  0.87397941833E+02  0.89970006030E+02  0.00000000000E+00 0. -1.
<mgrwt>
<rscale>  2 0.21358880E+02</rscale>
<asrwt>0</asrwt>
<pdfrwt beam="2">  1        2 0.10399511E+00 0.21358880E+02</pdfrwt>
<pdfrwt beam="1">  1       -2 0.13669695E-01 0.21358880E+02</pdfrwt>
<totfact> 0.16064500E+03</totfact>
</mgrwt>
</event>
<event>
 4    1  0.7653521E+003  0.2108474E+02  0.7546771E-02  0.1724579E+00
         -2   -1    0    0    0  501 -0.00000000000E+00  0.00000000000E+00  0.19327242859E+01  0.19327242859E+01  0.00000000000E+00 0.  1.
          2   -1    0    0  501    0  0.00000000000E+00 -0.00000000000E+00 -0.57235116582E+03  0.57235116582E+03  0.00000000000E+00 0. -1.
          2    1    1    2  502    0  0.89420935340E+01 -0.19094638965E+02 -0.50727837181E+03  0.50771637041E+03  0.00000000000E+00 0. -1.
         -2    1    1    2    0  502 -0.89420935340E+01  0.19094638965E+02 -0.63140069721E+02  0.66567519695E+02  0.00000000000E+00 0.  1.
<mgrwt>
<rscale>  2 0.21084740E+02</rscale>
<asrwt>0</asrwt>
<pdfrwt beam="2">  1        2 0.88053967E-01 0.21084740E+02</pdfrwt>
<pdfrwt beam="1">  1       -2 0.29734239E-03 0.21084740E+02</pdfrwt>
<totfact> 0.38563407E+05</totfact>
</mgrwt>
</event>
<event>
 4    1  0.7653521E+003  0.2288339E+02  0.7546771E-02  0.1693407E+00
         -2   -1    0    0    0  501 -0.00000000000E+00  0.00000000000E+00  0.11387255317E+01  0.11387255317E+01  0.00000000000E+00 0.  1.
          2   -1    0    0  501    0  0.00000000000E+00 -0.00000000000E+00 -0.92337773126E+03  0.92337773126E+03  0.00000000000E+00 0. -1.
          2    1    1    2  502    0  0.18869128544E+02  0.12946258393E+02 -0.78863364960E+03  0.78896557777E+03  0.00000000000E+00 0. -1.
         -2    1    1    2    0  502 -0.18869128544E+02 -0.12946258393E+02 -0.13360535613E+03  0.13555087902E+03  0.00000000000E+00 0.  1.
<mgrwt>
<rscale>  2 0.22883392E+02</rscale>
<asrwt>0</asrwt>
<pdfrwt beam="2">  1        2 0.14205794E+00 0.22883392E+02</pdfrwt>
<pdfrwt beam="1">  1       -2 0.17518875E-03 0.22883392E+02</pdfrwt>
<totfact> 0.46989533E+05</totfact>
</mgrwt>
</event>
<event>
 4    1  0.7653521E+003  0.3656788E+02  0.7546771E-02  0.1535102E+00
         -2   -1    0    0    0  501 -0.00000000000E+00  0.00000000000E+00  0.88830142750E+00  0.88830142750E+00  0.00000000000E+00 0. -1.
          2   -1    0    0  501    0  0.00000000000E+00 -0.00000000000E+00 -0.21242160009E+04  0.21242160009E+04  0.00000000000E+00 0. -1.
          2    1    1    2  502    0 -0.34082723542E+02  0.13250573517E+02 -0.16351820169E+04  0.16355908529E+04  0.00000000000E+00 0. -1.
         -2    1    1    2    0  502  0.34082723542E+02 -0.13250573517E+02 -0.48814568257E+03  0.48951344941E+03  0.00000000000E+00 0. -1.
<mgrwt>
<rscale>  2 0.36567879E+02</rscale>
<asrwt>0</asrwt>
<pdfrwt beam="2">  1        2 0.32679749E+00 0.36567879E+02</pdfrwt>
<pdfrwt beam="1">  1       -2 0.13666384E-03 0.36567879E+02</pdfrwt>
<totfact> 0.18585286E+05</totfact>
</mgrwt>
</event>
<event>
 4    1  0.7653521E+003  0.2629702E+02  0.7546771E-02  0.1643042E+00
          2   -1    0    0  501    0  0.00000000000E+00  0.00000000000E+00  0.15525919084E+04  0.15525919084E+04  0.00000000000E+00 0.  1.
         -2   -1    0    0    0  501 -0.00000000000E+00 -0.00000000000E+00 -0.58880138389E+00  0.58880138389E+00  0.00000000000E+00 0.  1.
          2    1    1    2  502    0  0.23267963185E+02  0.12252956219E+02  0.11592459857E+04  0.11595442158E+04  0.00000000000E+00 0.  1.
         -2    1    1    2    0  502 -0.23267963185E+02 -0.12252956219E+02  0.39275712128E+03  0.39363649394E+03  0.00000000000E+00 0.  1.
<mgrwt>
<rscale>  2 0.26297016E+02</rscale>
<asrwt>0</asrwt>
<pdfrwt beam="1">  1        2 0.23885702E+00 0.26297016E+02</pdfrwt>
<pdfrwt beam="2">  1       -2 0.90586071E-04 0.26297016E+02</pdfrwt>
<totfact> 0.56080760E+05</totfact>
</mgrwt>
</event>
<event>
 4    1  0.7653521E+003  0.2298302E+02  0.7546771E-02  0.1691786E+00
         -2   -1    0    0    0  501 -0.00000000000E+00  0.00000000000E+00  0.94919087687E+00  0.94919087687E+00  0.00000000000E+00 0. -1.
          2   -1    0    0  501    0  0.00000000000E+00 -0.00000000000E+00 -0.61383235458E+03  0.61383235458E+03  0.00000000000E+00 0. -1.
          2    1    1    2  502    0 -0.66866757995E+01 -0.21988800526E+02 -0.40038984062E+03  0.40104892900E+03  0.00000000000E+00 0. -1.
         -2    1    1    2    0  502  0.66866757995E+01  0.21988800526E+02 -0.21249332309E+03  0.21373261646E+03  0.00000000000E+00 0. -1.
<mgrwt>
<rscale>  2 0.22983015E+02</rscale>
<asrwt>0</asrwt>
<pdfrwt beam="2">  1        2 0.94435924E-01 0.22983015E+02</pdfrwt>
<pdfrwt beam="1">  1       -2 0.14602909E-03 0.22983015E+02</pdfrwt>
<totfact> 0.94321506E+05</totfact>
</mgrwt>
</event>
<event>
 4    1  0.7653521E+003  0.2651989E+02  0.7546771E-02  0.1640084E+00
         -2   -1    0    0    0  501 -0.00000000000E+00  0.00000000000E+00  0.35344417636E+03  0.35344417636E+03  0.00000000000E+00 0. -1.
          2   -1    0    0  501    0  0.00000000000E+00 -0.00000000000E+00 -0.11989813071E+04  0.11989813071E+04  0.00000000000E+00 0. -1.
          2    1    1    2  502    0 -0.12445687201E+02  0.23418140151E+02 -0.11983369284E+04  0.11986303427E+04  0.00000000000E+00 0. -1.
         -2    1    1    2    0  502  0.12445687201E+02 -0.23418140151E+02  0.35279979766E+03  0.35379514079E+03  0.00000000000E+00 0. -1.
<mgrwt>
<rscale>  2 0.26519887E+02</rscale>
<asrwt>0</asrwt>
<pdfrwt beam="2">  1        2 0.18445866E+00 0.26519887E+02</pdfrwt>
<pdfrwt beam="1">  1       -2 0.54376026E-01 0.26519887E+02</pdfrwt>
<totfact> 0.76394317E+01</totfact>
</mgrwt>
</event>
<event>
 4    1  0.7653521E+003  0.2154834E+02  0.7546771E-02  0.1716182E+00
          2   -1    0    0  501    0  0.00000000000E+00  0.00000000000E+00  0.11647371603E+04  0.11647371603E+04  0.00000000000E+00 0. -1.
         -2   -1    0    0    0  501 -0.00000000000E+00 -0.00000000000E+00 -0.27361697229E+01  0.27361697229E+01  0.00000000000E+00 0.  1.
          2    1    1    2  502    0  0.20640226325E+02 -0.61896862687E+01  0.11205389516E+04  0.11207461234E+04  0.00000000000E+00 0. -1.
         -2    1    1    2    0  502 -0.20640226325E+02  0.61896862687E+01  0.41462038994E+02  0.46727206597E+02  0.00000000000E+00 0.  1.
<mgrwt>
<rscale>  2 0.21548345E+02</rscale>
<asrwt>0</asrwt>
<pdfrwt beam="1">  1        2 0.17918994E+00 0.21548345E+02</pdfrwt>
<pdfrwt beam="2">  1       -2 0.42095012E-03 0.21548345E+02</pdfrwt>
<totfact> 0.10760020E+05</totfact>
</mgrwt>
</event>
<event>
 4    1  0.7653521E+003  0.2019917E+02  0.7546771E-02  0.1741396E+00
          2   -1    0    0  501    0  0.00000000000E+00  0.00000000000E+00  0.82311851217E+02  0.82311851217E+02  0.00000000000E+00 0. -1.
         -2   -1    0    0    0  501 -0.00000000000E+00 -0.00000000000E+00 -0.80380603377E+01  0.80380603377E+01  0.00000000000E+00 0. -1.
          2    1    1    2  502    0 -0.11235043084E+02 -0.16786317873E+02  0.65106317758E+02  0.68167728969E+02  0.00000000000E+00 0. -1.
         -2    1    1    2    0  502  0.11235043084E+02  0.16786317873E+02  0.91674731207E+01  0.22182182585E+02  0.00000000000E+00 0. -1.
<mgrwt>
<rscale>  2 0.20199175E+02</rscale>
<asrwt>0</asrwt>
<pdfrwt beam="1">  1        2 0.12663361E-01 0.20199175E+02</pdfrwt>
<pdfrwt beam="2">  1       -2 0.12366247E-02 0.20199175E+02</pdfrwt>
<totfact> 0.40982886E+05</totfact>
</mgrwt>
</event>
<event>
 4    1  0.7653521E+003  0.2459428E+02  0.7546771E-02  0.1666899E+00
         -2   -1    0    0    0  501 -0.00000000000E+00  0.00000000000E+00  0.17003542500E+03  0.17003542500E+03  0.00000000000E+00 0. -1.
          2   -1    0    0  501    0  0.00000000000E+00 -0.00000000000E+00 -0.12588623477E+02  0.12588623477E+02  0.00000000000E+00 0.  1.
          2    1    1    2  502    0 -0.23408373129E+02 -0.75449610318E+01  0.13818381944E+01  0.24633064087E+02  0.00000000000E+00 0.  1.
         -2    1    1    2    0  502  0.23408373129E+02  0.75449610318E+01  0.15606496333E+03  0.15799098439E+03  0.00000000000E+00 0. -1.
<mgrwt>
<rscale>  2 0.24594275E+02</rscale>
<asrwt>0</asrwt>
<pdfrwt beam="2">  1        2 0.19367114E-02 0.24594275E+02</pdfrwt>
<pdfrwt beam="1">  1       -2 0.26159295E-01 0.24594275E+02</pdfrwt>
<totfact> 0.49658471E+04</totfact>
</mgrwt>
</event>
<event>
 4    1  0.7653521E+003  0.2200362E+02  0.7546771E-02  0.1708189E+00
         -2   -1    0    0    0  501 -0.00000000000E+00  0.00000000000E+00  0.96250665774E+00  0.96250665774E+00  0.00000000000E+00 0.  1.
          2   -1    0    0  501    0  0.00000000000E+00 -0.00000000000E+00 -0.50350941921E+03  0.50350941921E+03  0.00000000000E+00 0.  1.
          2    1    1    2  502    0  0.21849077307E+02  0.26032224709E+01 -0.24339983770E+03  0.24439238929E+03  0.00000000000E+00 0.  1.
         -2    1    1    2    0  502 -0.21849077307E+02 -0.26032224709E+01 -0.25914707485E+03  0.26007953658E+03  0.00000000000E+00 0.  1.
<mgrwt>
<rscale>  2 0.22003623E+02</rscale>
<asrwt>0</asrwt>
<pdfrwt beam="2">  1        2 0.77462976E-01 0.22003623E+02</pdfrwt>
<pdfrwt beam="1">  1       -2 0.14807797E-03 0.22003623E+02</pdfrwt>
<totfact> 0.11191749E+06</totfact>
</mgrwt>
</event>
<event>
 4    1  0.7653521E+003  0.3172113E+02  0.7546771E-02  0.1579808E+00
          2   -1    0    0  501    0  0.00000000000E+00  0.00000000000E+00  0.28529880303E+03  0.28529880303E+03  0.00000000000E+00 0. -1.
         -2   -1    0    0    0  501 -0.00000000000E+00 -0.00000000000E+00 -0.61929274969E+02  0.61929274969E+02  0.00000000000E+00 0.  1.
          2    1    1    2  502    0  0.31594843591E+02  0.28276638687E+01  0.28028259133E+03  0.28207190719E+03  0.00000000000E+00 0. -1.
         -2    1    1    2    0  502 -0.31594843591E+02 -0.28276638687E+01 -0.56913063265E+02  0.65156170811E+02  0.00000000000E+00 0.  1.
<mgrwt>
<rscale>  2 0.31721126E+02</rscale>
<asrwt>0</asrwt>
<pdfrwt beam="1">  1        2 0.43892123E-01 0.31721126E+02</pdfrwt>
<pdfrwt beam="2">  1       -2 0.95275809E-02 0.31721126E+02</pdfrwt>
<totfact> 0.68999643E+03</totfact>
</mgrwt>
</event>
<event>
 4    1  0.7653521E+003  0.2283713E+02  0.7546771E-02  0.1694164E+00
          2   -1    0    0  501    0  0.00000000000E+00  0.00000000000E+00  0.11685582100E+03  0.11685582100E+03  0.00000000000E+00 0. -1.
         -2   -1    0    0    0  501 -0.00000000000E+00 -0.00000000000E+00 -0.48413776844E+01  0.48413776844E+01  0.00000000000E+00 0. -1.
          2    1    1    2  502    0 -0.41751065765E+00  0.22833314656E+02  0.73016828047E+02  0.76504847894E+02  0.00000000000E+00 0. -1.
         -2    1    1    2    0  502  0.41751065765E+00 -0.22833314656E+02  0.38997615273E+02  0.45192350794E+02  0.00000000000E+00 0. -1.
<mgrwt>
<rscale>  2 0.22837131E+02</rscale>
<asrwt>0</asrwt>
<pdfrwt beam="1">  1        2 0.17977816E-01 0.22837131E+02</pdfrwt>
<pdfrwt beam="2">  1       -2 0.74482743E-03 0.22837131E+02</pdfrwt>
<totfact> 0.57510416E+05</totfact>
</mgrwt>
</event>
<event>
 4    1  0.7653521E+003  0.2067167E+02  0.7546771E-02  0.1732292E+00
          2   -1    0    0  501    0  0.00000000000E+00  0.00000000000E+00  0.11195990333E+04  0.11195990333E+04  0.00000000000E+00 0.  1.
         -2   -1    0    0    0  501 -0.00000000000E+00 -0.00000000000E+00 -0.10283668335E+01  0.10283668335E+01  0.00000000000E+00 0.  1.
          2    1    1    2  502    0 -0.25932944212E+01  0.20508355670E+02  0.10036171766E+04  0.10038300429E+04  0.00000000000E+00 0.  1.
         -2    1    1    2    0  502  0.25932944212E+01 -0.20508355670E+02  0.11495348988E+03  0.11679735727E+03  0.00000000000E+00 0.  1.
<mgrwt>
<rscale>  2 0.20671667E+02</rscale>
<asrwt>0</asrwt>
<pdfrwt beam="1">  1        2 0.17224503E+00 0.20671667E+02</pdfrwt>
<pdfrwt beam="2">  1       -2 0.15821118E-03 0.20671667E+02</pdfrwt>
<totfact> 0.41041338E+05</totfact>
</mgrwt>
</event>
<event>
 4    1  0.7653521E+003  0.3107726E+02  0.7546771E-02  0.1586477E+00
         -2   -1    0    0    0  501 -0.00000000000E+00  0.00000000000E+00  0.21519045012E+02  0.21519045012E+02  0.00000000000E+00 0.  1.
          2   -1    0    0  501    0  0.00000000000E+00 -0.00000000000E+00 -0.68000573754E+02  0.68000573754E+02  0.00000000000E+00 0. -1.
          2    1    1    2  502    0 -0.44682225101E+01  0.30754356032E+02  0.28581362894E+01  0.31208402240E+02  0.00000000000E+00 0. -1.
         -2    1    1    2    0  502  0.44682225101E+01 -0.30754356032E+02 -0.49339665031E+02  0.58311216526E+02  0.00000000000E+00 0.  1.
<mgrwt>
<rscale>  2 0.31077265E+02</rscale>
<asrwt>0</asrwt>
<pdfrwt beam="2">  1        2 0.10461627E-01 0.31077265E+02</pdfrwt>
<pdfrwt beam="1">  1       -2 0.33106224E-02 0.31077265E+02</pdfrwt>
<totfact> 0.14753933E+05</totfact>
</mgrwt>
</event>
<event>
 4    1  0.7653521E+003  0.2167902E+02  0.7546771E-02  0.1713863E+00
          2   -1    0    0  501    0  0.00000000000E+00  0.00000000000E+00  0.18888404050E+04  0.18888404050E+04  0.00000000000E+00 0. -1.
         -2   -1    0    0    0  501 -0.00000000000E+00 -0.00000000000E+00 -0.29505011843E+00  0.29505011843E+00  0.00000000000E+00 0.  1.
          2    1    1    2  502    0  0.21655182774E+02 -0.10162670811E+01  0.13181692757E+04  0.13183475335E+04  0.00000000000E+00 0. -1.
         -2    1    1    2    0  502 -0.21655182774E+02  0.10162670811E+01  0.57037607926E+03  0.57078792167E+03  0.00000000000E+00 0.  1.
<mgrwt>
<rscale>  2 0.21679016E+02</rscale>
<asrwt>0</asrwt>
<pdfrwt beam="1">  1        2 0.29058115E+00 0.21679016E+02</pdfrwt>
<pdfrwt beam="2">  1       -2 0.45393838E-04 0.21679016E+02</pdfrwt>
<totfact> 0.92226492E+05</totfact>
</mgrwt>
</event>
<event>
 4    1  0.7653521E+003  0.2260162E+02  0.7546771E-02  0.1698050E+00
          2   -1    0    0  501    0  0.00000000000E+00  0.00000000000E+00  0.53862540870E+03  0.53862540870E+03  0.00000000000E+00 0.  1.
         -2   -1    0    0    0  501 -0.00000000000E+00 -0.00000000000E+00 -0.62222838912E+01  0.62222838912E+01  0.00000000000E+00 0.  1.
          2    1    1    2  502    0 -0.16715415716E+02 -0.15212759691E+02  0.51700612170E+03  0.51749991599E+03  0.00000000000E+00 0.  1.
         -2    1    1    2    0  502  0.16715415716E+02  0.15212759691E+02  0.15397003107E+02  0.27347776594E+02  0.00000000000E+00 0.  1.
<mgrwt>
<rscale>  2 0.22601619E+02</rscale>
<asrwt>0</asrwt>
<pdfrwt beam="1">  1        2 0.82865411E-01 0.22601619E+02</pdfrwt>
<pdfrwt beam="2">  1       -2 0.95727487E-03 0.22601619E+02</pdfrwt>
<totfact> 0.87397694E+04</totfact>
</mgrwt>
</event>
<event>
 4    1  0.7653521E+003  0.2025701E+02  0.7546771E-02  0.1740265E+00
         -2   -1    0    0    0  501 -0.00000000000E+00  0.00000000000E+00  0.13170189531E+03  0.13170189531E+03  0.00000000000E+00 0. -1.
          2   -1    0    0  501    0  0.00000000000E+00 -0.00000000000E+00 -0.10047842263E+03  0.10047842263E+03  0.00000000000E+00 0. -1.
          2    1    1    2  502    0  0.15735855597E+02 -0.12756534621E+02 -0.98664337315E+02  0.10072237976E+03  0.00000000000E+00 0. -1.
         -2    1    1    2    0  502 -0.15735855597E+02  0.12756534621E+02  0.12988780999E+03  0.13145793818E+03  0.00000000000E+00 0. -1.
<mgrwt>
<rscale>  2 0.20257007E+02</rscale>
<asrwt>0</asrwt>
<pdfrwt beam="2">  1        2 0.15458219E-01 0.20257007E+02</pdfrwt>
<pdfrwt beam="1">  1       -2 0.20261830E-01 0.20257007E+02</pdfrwt>
<totfact> 0.59688860E+03</totfact>
</mgrwt>
</event>
<event>
 4    1  0.7653521E+003  0.2242654E+02  0.7546771E-02  0.1700978E+00
         -2   -1    0    0    0  501 -0.00000000000E+00  0.00000000000E+00  0.22450259164E+01  0.22450259164E+01  0.00000000000E+00 0.  1.
          2   -1    0    0  501    0  0.00000000000E+00 -0.00000000000E+00 -0.24990862321E+03  0.24990862321E+03  0.00000000000E+00 0.  1.
          2    1    1    2  502    0 -0.27017575783E+01 -0.22263207065E+02 -0.16440389595E+03  0.16592646228E+03  0.00000000000E+00 0.  1.
         -2    1    1    2    0  502  0.27017575783E+01  0.22263207065E+02 -0.83259701350E+02  0.86227186848E+02  0.00000000000E+00 0.  1.
<mgrwt>
<rscale>  2 0.22426544E+02</rscale>
<asrwt>0</asrwt>
<pdfrwt beam="2">  1        2 0.38447482E-01 0.22426544E+02</pdfrwt>
<pdfrwt beam="1">  1       -2 0.34538859E-03 0.22426544E+02</pdfrwt>
<totfact> 0.73253768E+05</totfact>
</mgrwt>
</event>
<event>
 4    1  0.7653521E+003  0.2778356E+02  0.7546771E-02  0.1623965E+00
          2   -1    0    0  501    0  0.00000000000E+00  0.00000000000E+00  0.11898516178E+03  0.11898516178E+03  0.00000000000E+00 0.  1.
         -2   -1    0    0    0  501 -0.00000000000E+00 -0.00000000000E+00 -0.59701504964E+02  0.59701504964E+02  0.00000000000E+00 0. -1.
          2    1    1    2  502    0 -0.21574460749E+02  0.17506256523E+02  0.11399125557E+03  0.11732831168E+03  0.00000000000E+00 0.  1.
         -2    1    1    2    0  502  0.21574460749E+02 -0.17506256523E+02 -0.54707598760E+02  0.61358355064E+02  0.00000000000E+00 0. -1.
<mgrwt>
<rscale>  2 0.27783563E+02</rscale>
<asrwt>0</asrwt>
<pdfrwt beam="1">  1        2 0.18305409E-01 0.27783563E+02</pdfrwt>
<pdfrwt beam="2">  1       -2 0.91848469E-02 0.27783563E+02</pdfrwt>
<totfact> 0.17665520E+04</totfact>
</mgrwt>
</event>
<event>
 4    1  0.7653521E+003  0.2446559E+02  0.7546771E-02  0.1668799E+00
          2   -1    0    0  501    0  0.00000000000E+00  0.00000000000E+00  0.39798498518E+02  0.39798498518E+02  0.00000000000E+00 0. -1.
         -2   -1    0    0    0  501 -0.00000000000E+00 -0.00000000000E+00 -0.49307855889E+02  0.49307855889E+02  0.00000000000E+00 0.  1.
          2    1    1    2  502    0 -0.24281830126E+02 -0.29929888584E+01  0.32387275470E+02  0.40589418189E+02  0.00000000000E+00 0. -1.
         -2    1    1    2    0  502  0.24281830126E+02  0.29929888584E+01 -0.41896632841E+02  0.48516936218E+02  0.00000000000E+00 0.  1.
<mgrwt>
<rscale>  2 0.24465593E+02</rscale>
<asrwt>0</asrwt>
<pdfrwt beam="1">  1        2 0.61228460E-02 0.24465593E+02</pdfrwt>
<pdfrwt beam="2">  1       -2 0.75858239E-02 0.24465593E+02</pdfrwt>
<totfact> 0.80237527E+04</totfact>
</mgrwt>
</event>
<event>
 4    1  0.7653521E+003  0.5333271E+02  0.7546771E-02  0.1428152E+00
         -2   -1    0    0    0  501 -0.00000000000E+00  0.00000000000E+00  0.20557595121E+03  0.20557595121E+03  0.00000000000E+00 0. -1.
          2   -1    0    0  501    0  0.00000000000E+00 -0.00000000000E+00 -0.84491925283E+02  0.84491925283E+02  0.00000000000E+00 0.  1.
          2    1    1    2  502    0 -0.36845572656E+02  0.38558801982E+02 -0.72086195637E+02  0.89670491446E+02  0.00000000000E+00 0.  1.
         -2    1    1    2    0  502  0.36845572656E+02 -0.38558801982E+02  0.19317022156E+03  0.20039738504E+03  0.00000000000E+00 0. -1.
<mgrwt>
<rscale>  2 0.53332705E+02</rscale>
<asrwt>0</asrwt>
<pdfrwt beam="2">  1        2 0.12998758E-01 0.53332705E+02</pdfrwt>
<pdfrwt beam="1">  1       -2 0.31627069E-01 0.53332705E+02</pdfrwt>
<totfact> 0.38270253E+03</totfact>
</mgrwt>
</event>
<event>
 4    1  0.7653521E+003  0.2049694E+02  0.7546771E-02  0.1735623E+00
         -2   -1    0    0    0  501 -0.00000000000E+00  0.00000000000E+00  0.56914573950E+02  0.56914573950E+02  0.00000000000E+00 0.  1.
          2   -1    0    0  501    0  0.00000000000E+00 -0.00000000000E+00 -0.16388041173E+02  0.16388041173E+02  0.00000000000E+00 0. -1.
          2    1    1    2  502    0  0.13067806927E+02  0.15791046658E+02 -0.69074328831E+01  0.21629548342E+02  0.00000000000E+00 0. -1.
         -2    1    1    2    0  502 -0.13067806927E+02 -0.15791046658E+02  0.47433965660E+02  0.51673066782E+02  0.00000000000E+00 0.  1.
<mgrwt>
<rscale>  2 0.20496944E+02</rscale>
<asrwt>0</asrwt>
<pdfrwt beam="2">  1        2 0.25212371E-02 0.20496944E+02</pdfrwt>
<pdfrwt beam="1">  1       -2 0.87560882E-02 0.20496944E+02</pdfrwt>
<totfact> 0.18632747E+05</totfact>
</mgrwt>
</event>
<event>
 4    1  0.7653521E+003  0.2185583E+02  0.7546771E-02  0.1710757E+00
          2   -1    0    0  501    0  0.00000000000E+00  0.00000000000E+00  0.14752279645E+02  0.14752279645E+02  0.00000000000E+00 0.  1.
         -2   -1    0    0    0  501 -0.00000000000E+00 -0.00000000000E+00 -0.91331560613E+02  0.91331560613E+02  0.00000000000E+00 0.  1.
          2    1    1    2  502    0  0.11737358879E+02  0.18436699717E+02  0.43247991559E+01  0.22279617987E+02  0.00000000000E+00 0.  1.
         -2    1    1    2    0  502 -0.11737358879E+02 -0.18436699717E+02 -0.80904080123E+02  0.83804222271E+02  0.00000000000E+00 0.  1.
<mgrwt>
<rscale>  2 0.21855834E+02</rscale>
<asrwt>0</asrwt>
<pdfrwt beam="1">  1        2 0.22695815E-02 0.21855834E+02</pdfrwt>
<pdfrwt beam="2">  1       -2 0.14051009E-01 0.21855834E+02</pdfrwt>
<totfact> 0.10662813E+05</totfact>
</mgrwt>
</event>
<event>
 4    1  0.7653521E+003  0.3656535E+02  0.7546771E-02  0.1535124E+00
          2   -1    0    0  501    0  0.00000000000E+00  0.00000000000E+00  0.54597312472E+02  0.54597312472E+02  0.00000000000E+00 0. -1.
         -2   -1    0    0    0  501 -0.00000000000E+00 -0.00000000000E+00 -0.84640107130E+02  0.84640107130E+02  0.00000000000E+00 0. -1.
          2    1    1    2  502    0 -0.36253905179E+02 -0.47622713231E+01  0.43668082090E+02  0.56955476140E+02  0.00000000000E+00 0. -1.
         -2    1    1    2    0  502  0.36253905179E+02  0.47622713231E+01 -0.73710876749E+02  0.82281943462E+02  0.00000000000E+00 0. -1.
<mgrwt>
<rscale>  2 0.36565351E+02</rscale>
<asrwt>0</asrwt>
<pdfrwt beam="1">  1        2 0.83995866E-02 0.36565351E+02</pdfrwt>
<pdfrwt beam="2">  1       -2 0.13021555E-01 0.36565351E+02</pdfrwt>
<totfact> 0.26406864E+04</totfact>
</mgrwt>
</event>
<event>
 4    1  0.7653521E+003  0.3000761E+02  0.7546771E-02  0.1598005E+00
          2   -1    0    0  501    0  0.00000000000E+00  0.00000000000E+00  0.20234670977E+04  0.20234670977E+04  0.00000000000E+00 0.  1.
         -2   -1    0    0    0  501 -0.00000000000E+00 -0.00000000000E+00 -0.10458929428E+01  0.10458929428E+01  0.00000000000E+00 0. -1.
          2    1    1    2  502    0 -0.27955118652E+02  0.10907258902E+02  0.17784713665E+04  0.17787245032E+04  0.00000000000E+00 0.  1.
         -2    1    1    2    0  502  0.27955118652E+02 -0.10907258902E+02  0.24394983829E+03  0.24578848744E+03  0.00000000000E+00 0. -1.
<mgrwt>
<rscale>  2 0.30007615E+02</rscale>
<asrwt>0</asrwt>
<pdfrwt beam="1">  1        2 0.31129950E+00 0.30007615E+02</pdfrwt>
<pdfrwt beam="2">  1       -2 0.16090823E-03 0.30007615E+02</pdfrwt>
<totfact> 0.16130734E+05</totfact>
</mgrwt>
</event>
<event>
 4    1  0.7653521E+003  0.2110040E+02  0.7546771E-02  0.1724291E+00
         -2   -1    0    0    0  501 -0.00000000000E+00  0.00000000000E+00  0.27170530301E+02  0.27170530301E+02  0.00000000000E+00 0. -1.
          2   -1    0    0  501    0  0.00000000000E+00 -0.00000000000E+00 -0.48634121231E+03  0.48634121231E+03  0.00000000000E+00 0. -1.
          2    1    1    2  502    0 -0.20471477923E+02 -0.51132794889E+01 -0.48197868632E+03  0.48244033942E+03  0.00000000000E+00 0. -1.
         -2    1    1    2    0  502  0.20471477923E+02  0.51132794889E+01  0.22808004311E+02  0.31071403189E+02  0.00000000000E+00 0. -1.
<mgrwt>
<rscale>  2 0.21100404E+02</rscale>
<asrwt>0</asrwt>
<pdfrwt beam="2">  1        2 0.74821723E-01 0.21100404E+02</pdfrwt>
<pdfrwt beam="1">  1       -2 0.41800817E-02 0.21100404E+02</pdfrwt>
<totfact> 0.12665237E+04</totfact>
</mgrwt>
</event>
<event>
 4    1  0.7653521E+003  0.2694066E+02  0.7546771E-02  0.1634597E+00
          2   -1    0    0  501    0  0.00000000000E+00  0.00000000000E+00  0.11063239241E+04  0.11063239241E+04  0.00000000000E+00 0. -1.
         -2   -1    0    0    0  501 -0.00000000000E+00 -0.00000000000E+00 -0.65620389271E+00  0.65620389271E+00  0.00000000000E+00 0.  1.
          2    1    1    2  502    0 -0.12565115836E+02  0.23831012459E+02  0.56142179368E+03  0.56206781594E+03  0.00000000000E+00 0. -1.
         -2    1    1    2    0  502  0.12565115836E+02 -0.23831012459E+02  0.54424592650E+03  0.54491231203E+03  0.00000000000E+00 0.  1.
<mgrwt>
<rscale>  2 0.26940662E+02</rscale>
<asrwt>0</asrwt>
<pdfrwt beam="1">  1        2 0.17020219E+00 0.26940662E+02</pdfrwt>
<pdfrwt beam="2">  1       -2 0.10095533E-03 0.26940662E+02</pdfrwt>
<totfact> 0.81112521E+05</totfact>
</mgrwt>
</event>
<event>
 4    1  0.7653521E+003  0.4077353E+02  0.7546771E-02  0.1502595E+00
          2   -1    0    0  501    0  0.00000000000E+00  0.00000000000E+00  0.93791218395E+03  0.93791218395E+03  0.00000000000E+00 0.  1.
         -2   -1    0    0    0  501 -0.00000000000E+00 -0.00000000000E+00 -0.12843401170E+03  0.12843401170E+03  0.00000000000E+00 0. -1.
          2    1    1    2  502    0  0.16854438178E+02  0.37126925610E+02  0.93422020794E+03  0.93510955381E+03  0.00000000000E+00 0.  1.
         -2    1    1    2    0  502 -0.16854438178E+02 -0.37126925610E+02 -0.12474203570E+03  0.13123664184E+03  0.00000000000E+00 0. -1.
<mgrwt>
<rscale>  2 0.40773529E+02</rscale>
<asrwt>0</asrwt>
<pdfrwt beam="1">  1        2 0.14429418E+00 0.40773529E+02</pdfrwt>
<pdfrwt beam="2">  1       -2 0.19759079E-01 0.40773529E+02</pdfrwt>
<totfact> 0.62830226E+02</totfact>
</mgrwt>
</event>
<event>
 4    1  0.7653521E+003  0.2432741E+02  0.7546771E-02  0.1670855E+00
          2   -1    0    0  501    0  0.00000000000E+00  0.00000000000E+00  0.83563677530E+03  0.83563677530E+03  0.00000000000E+00 0.  1.
         -2   -1    0    0    0  501 -0.00000000000E+00 -0.00000000000E+00 -0.53352293319E+01  0.53352293319E+01  0.00000000000E+00 0.  1.
          2    1    1    2  502    0  0.97774137268E+01 -0.22276105331E+02  0.80673458943E+03  0.80710130744E+03  0.00000000000E+00 0.  1.
         -2    1    1    2    0  502 -0.97774137268E+01  0.22276105331E+02  0.23566956542E+02  0.33870697196E+02  0.00000000000E+00 0.  1.
<mgrwt>
<rscale>  2 0.24327406E+02</rscale>
<asrwt>0</asrwt>
<pdfrwt beam="1">  1        2 0.12855940E+00 0.24327406E+02</pdfrwt>
<pdfrwt beam="2">  1       -2 0.82080518E-03 0.24327406E+02</pdfrwt>
<totfact> 0.68060446E+04</totfact>
</mgrwt>
</event>
<event>
 4    1  0.7653521E+003  0.4547137E+02  0.7546771E-02  0.1471420E+00
          2   -1    0    0  501    0  0.00000000000E+00  0.00000000000E+00  0.24988267142E+03  0.24988267142E+03  0.00000000000E+00 0. -1.
         -2   -1    0    0    0  501 -0.00000000000E+00 -0.00000000000E+00 -0.58219836140E+02  0.58219836140E+02  0.00000000000E+00 0.  1.
          2    1    1    2  502    0 -0.42644421550E+02 -0.15782856756E+02  0.23851610666E+03  0.24281181683E+03  0.00000000000E+00 0. -1.
         -2    1    1    2    0  502  0.42644421550E+02  0.15782856756E+02 -0.46853271380E+02  0.65290690728E+02  0.00000000000E+00 0.  1.
<mgrwt>
<rscale>  2 0.45471367E+02</rscale>
<asrwt>0</asrwt>
<pdfrwt beam="1">  1        2 0.38443488E-01 0.45471367E+02</pdfrwt>
<pdfrwt beam="2">  1       -2 0.89568980E-02 0.45471367E+02</pdfrwt>
<totfact> 0.90190835E+03</totfact>
</mgrwt>
</event>
<event>
 4    1  0.7653521E+003  0.2255855E+02  0.7546771E-02  0.1698767E+00
         -2   -1    0    0    0  501 -0.00000000000E+00  0.00000000000E+00  0.11962905214E+03  0.11962905214E+03  0.00000000000E+00 0. -1.
          2   -1    0    0  501    0  0.00000000000E+00 -0.00000000000E+00 -0.22181444502E+02  0.22181444502E+02  0.00000000000E+00 0. -1.
          2    1    1    2  502    0 -0.76781981273E+01  0.21211635694E+02 -0.15020892683E+02  0.27101945175E+02  0.00000000000E+00 0. -1.
         -2    1    1    2    0  502  0.76781981273E+01 -0.21211635694E+02  0.11246850032E+03  0.11470855147E+03  0.00000000000E+00 0. -1.
<mgrwt>
<rscale>  2 0.22558551E+02</rscale>
<asrwt>0</asrwt>
<pdfrwt beam="2">  1        2 0.34125300E-02 0.22558551E+02</pdfrwt>
<pdfrwt beam="1">  1       -2 0.18404469E-01 0.22558551E+02</pdfrwt>
<totfact> 0.42114597E+04</totfact>
</mgrwt>
</event>
<event>
 4    1  0.7653521E+003  0.2085636E+02  0.7546771E-02  0.1728816E+00
          2   -1    0    0  501    0  0.00000000000E+00  0.00000000000E+00  0.97509685209E+02  0.97509685209E+02  0.00000000000E+00 0. -1.
         -2   -1    0    0    0  501 -0.00000000000E+00 -0.00000000000E+00 -0.54514444928E+01  0.54514444928E+01  0.00000000000E+00 0. -1.
          2    1    1    2  502    0  0.20055815035E+02  0.57229573612E+01  0.67972764697E+02  0.71100525302E+02  0.00000000000E+00 0. -1.
         -2    1    1    2    0  502 -0.20055815035E+02 -0.57229573612E+01  0.24085476020E+02  0.31860604400E+02  0.00000000000E+00 0. -1.
<mgrwt>
<rscale>  2 0.20856365E+02</rscale>
<asrwt>0</asrwt>
<pdfrwt beam="1">  1        2 0.15001489E-01 0.20856365E+02</pdfrwt>
<pdfrwt beam="2">  1       -2 0.83868384E-03 0.20856365E+02</pdfrwt>
<totfact> 0.57940112E+05</totfact>
</mgrwt>
</event>
<event>
 4    1  0.7653521E+003  0.2761819E+02  0.7546771E-02  0.1626014E+00
          2   -1    0    0  501    0  0.00000000000E+00  0.00000000000E+00  0.50448981924E+02  0.50448981924E+02  0.00000000000E+00 0.  1.
         -2   -1    0    0    0  501 -0.00000000000E+00 -0.00000000000E+00 -0.24807831396E+02  0.24807831396E+02  0.00000000000E+00 0. -1.
          2    1    1    2  502    0 -0.20646622842E+02 -0.18343427548E+02  0.36335602310E+02  0.45640337030E+02  0.00000000000E+00 0.  1.
         -2    1    1    2    0  502  0.20646622842E+02  0.18343427548E+02 -0.10694451781E+02  0.29616476291E+02  0.00000000000E+00 0. -1.
<mgrwt>
<rscale>  2 0.27618189E+02</rscale>
<asrwt>0</asrwt>
<pdfrwt beam="1">  1        2 0.77613818E-02 0.27618189E+02</pdfrwt>
<pdfrwt beam="2">  1       -2 0.38165895E-02 0.27618189E+02</pdfrwt>
<totfact> 0.16653843E+05</totfact>
</mgrwt>
</event>
<event>
 4    1  0.7653521E+003  0.2159353E+02  0.7546771E-02  0.1715378E+00
          2   -1    0    0  501    0  0.00000000000E+00  0.00000000000E+00  0.18189202497E+03  0.18189202497E+03  0.00000000000E+00 0. -1.
         -2   -1    0    0    0  501 -0.00000000000E+00 -0.00000000000E+00 -0.25994953272E+01  0.25994953272E+01  0.00000000000E+00 0. -1.
          2    1    1    2  502    0  0.21306993882E+02  0.35060568874E+01  0.10050096304E+03  0.10279457182E+03  0.00000000000E+00 0. -1.
         -2    1    1    2    0  502 -0.21306993882E+02 -0.35060568874E+01  0.78791566607E+02  0.81696948484E+02  0.00000000000E+00 0. -1.
<mgrwt>
<rscale>  2 0.21593527E+02</rscale>
<asrwt>0</asrwt>
<pdfrwt beam="1">  1        2 0.27983378E-01 0.21593527E+02</pdfrwt>
<pdfrwt beam="2">  1       -2 0.39992250E-03 0.21593527E+02</pdfrwt>
<totfact> 0.81848176E+05</totfact>
</mgrwt>
</event>
<event>
 4    1  0.7653521E+003  0.2320258E+02  0.7546771E-02  0.1688247E+00
          2   -1    0    0  501    0  0.00000000000E+00  0.00000000000E+00  0.35115995712E+02  0.35115995712E+02  0.00000000000E+00 0. -1.
         -2   -1    0    0    0  501 -0.00000000000E+00 -0.00000000000E+00 -0.29357378514E+03  0.29357378514E+03  0.00000000000E+00 0. -1.
          2    1    1    2  502    0  0.20238422164E+02 -0.11347508111E+02  0.30767282879E+02  0.38535507882E+02  0.00000000000E+00 0. -1.
         -2    1    1    2    0  502 -0.20238422164E+02  0.11347508111E+02 -0.28922507231E+03  0.29015427297E+03  0.00000000000E+00 0. -1.
<mgrwt>
<rscale>  2 0.23202579E+02</rscale>
<asrwt>0</asrwt>
<pdfrwt beam="1">  1        2 0.54024606E-02 0.23202579E+02</pdfrwt>
<pdfrwt beam="2">  1       -2 0.45165200E-01 0.23202579E+02</pdfrwt>
<totfact> 0.51623685E+03</totfact>
</mgrwt>
</event>
<event>
 4    1  0.7653521E+003  0.3328712E+02  0.7546771E-02  0.1564360E+00
         -2   -1    0    0    0  501 -0.00000000000E+00  0.00000000000E+00  0.17044978040E+02  0.17044978040E+02  0.00000000000E+00 0.  1.
          2   -1    0    0  501    0  0.00000000000E+00 -0.00000000000E+00 -0.85463746610E+03  0.85463746610E+03  0.00000000000E+00 0.  1.
          2    1    1    2  502    0  0.20715477349E+02  0.26055732465E+02 -0.83773395976E+03  0.83839502594E+03  0.00000000000E+00 0.  1.
         -2    1    1    2    0  502 -0.20715477349E+02 -0.26055732465E+02  0.14147169577E+00  0.33287418199E+02  0.00000000000E+00 0.  1.
<mgrwt>
<rscale>  2 0.33287118E+02</rscale>
<asrwt>0</asrwt>
<pdfrwt beam="2">  1        2 0.13148265E+00 0.33287118E+02</pdfrwt>
<pdfrwt beam="1">  1       -2 0.26223050E-02 0.33287118E+02</pdfrwt>
<totfact> 0.14107735E+04</totfact>
</mgrwt>
</event>
<event>
 4    1  0.7653521E+003  0.2038172E+02  0.7546771E-02  0.1737842E+00
         -2   -1    0    0    0  501 -0.00000000000E+00  0.00000000000E+00  0.82474503205E+02  0.82474503205E+02  0.00000000000E+00 0.  1.
          2   -1    0    0  501    0  0.00000000000E+00 -0.00000000000E+00 -0.23597855315E+02  0.23597855315E+02  0.00000000000E+00 0.  1.
          2    1    1    2  502    0 -0.18432429556E+02  0.86982809789E+01 -0.17598317700E+02  0.26927965709E+02  0.00000000000E+00 0.  1.
         -2    1    1    2    0  502  0.18432429556E+02 -0.86982809789E+01  0.76474965590E+02  0.79144392811E+02  0.00000000000E+00 0.  1.
<mgrwt>
<rscale>  2 0.20381721E+02</rscale>
<asrwt>0</asrwt>
<pdfrwt beam="2">  1        2 0.36304393E-02 0.20381721E+02</pdfrwt>
<pdfrwt beam="1">  1       -2 0.12688385E-01 0.20381721E+02</pdfrwt>
<totfact> 0.67782465E+04</totfact>
</mgrwt>
</event>
<event>
 4    1  0.7653521E+003  0.2684372E+02  0.7546771E-02  0.1635850E+00
         -2   -1    0    0    0  501 -0.00000000000E+00  0.00000000000E+00  0.81978454074E+01  0.81978454074E+01  0.00000000000E+00 0. -1.
          2   -1    0    0  501    0  0.00000000000E+00 -0.00000000000E+00 -0.38327641908E+03  0.38327641908E+03  0.00000000000E+00 0.  1.
          2    1    1    2  502    0  0.16172153313E+02 -0.21425375202E+02 -0.35937188736E+03  0.36037305486E+03  0.00000000000E+00 0.  1.
         -2    1    1    2    0  502 -0.16172153313E+02  0.21425375202E+02 -0.15706686314E+02  0.31101209627E+02  0.00000000000E+00 0. -1.
<mgrwt>
<rscale>  2 0.26843719E+02</rscale>
<asrwt>0</asrwt>
<pdfrwt beam="2">  1        2 0.58965611E-01 0.26843719E+02</pdfrwt>
<pdfrwt beam="1">  1       -2 0.12612068E-02 0.26843719E+02</pdfrwt>
<totfact> 0.87834223E+04</totfact>
</mgrwt>
</event>
<event>
 4    1  0.7653521E+003  0.2014492E+02  0.7546771E-02  0.1742461E+00
         -2   -1    0    0    0  501 -0.00000000000E+00  0.00000000000E+00  0.85181005030E+02  0.85181005030E+02  0.00000000000E+00 0.  1.
          2   -1    0    0  501    0  0.00000000000E+00 -0.00000000000E+00 -0.78358575494E+01  0.78358575494E+01  0.00000000000E+00 0.  1.
          2    1    1    2  502    0 -0.64634487194E+01 -0.19079879586E+02  0.95536070390E+01  0.22295501381E+02  0.00000000000E+00 0.  1.
         -2    1    1    2    0  502  0.64634487194E+01  0.19079879586E+02  0.67791540442E+02  0.70721361199E+02  0.00000000000E+00 0.  1.
<mgrwt>
<rscale>  2 0.20144924E+02</rscale>
<asrwt>0</asrwt>
<pdfrwt beam="2">  1        2 0.12055166E-02 0.20144924E+02</pdfrwt>
<pdfrwt beam="1">  1       -2 0.13104769E-01 0.20144924E+02</pdfrwt>
<totfact> 0.26072800E+05</totfact>
</mgrwt>
</event>
<event>
 4    1  0.7653521E+003  0.3414986E+02  0.7546771E-02  0.1556282E+00
          2   -1    0    0  501    0  0.00000000000E+00  0.00000000000E+00  0.14118812599E+04  0.14118812599E+04  0.00000000000E+00 0. -1.
         -2   -1    0    0    0  501 -0.00000000000E+00 -0.00000000000E+00 -0.40111832961E+01  0.40111832961E+01  0.00000000000E+00 0.  1.
          2    1    1    2  502    0  0.32216884627E+02 -0.11326320014E+02  0.13347925297E+04  0.13352293101E+04  0.00000000000E+00 0. -1.
         -2    1    1    2    0  502 -0.32216884627E+02  0.11326320014E+02  0.73077546842E+02  0.80663133045E+02  0.00000000000E+00 0.  1.
<mgrwt>
<rscale>  2 0.34149864E+02</rscale>
<asrwt>0</asrwt>
<pdfrwt beam="1">  1        2 0.21721211E+00 0.34149864E+02</pdfrwt>
<pdfrwt beam="2">  1       -2 0.61710625E-03 0.34149864E+02</pdfrwt>
<totfact> 0.52598857E+04</totfact>
</mgrwt>
</event>
<event>
 4    1  0.7653521E+003  0.2232591E+02  0.7546771E-02  0.1702676E+00
         -2   -1    0    0    0  501 -0.00000000000E+00  0.00000000000E+00  0.14098196156E+01  0.14098196156E+01  0.00000000000E+00 0. -1.
          2   -1    0    0  501    0  0.00000000000E+00 -0.00000000000E+00 -0.38588579621E+03  0.38588579621E+03  0.00000000000E+00 0. -1.
          2    1    1    2  502    0 -0.21815919973E+02  0.47446098107E+01 -0.13618405428E+03  0.13800196494E+03  0.00000000000E+00 0. -1.
         -2    1    1    2    0  502  0.21815919973E+02 -0.47446098107E+01 -0.24829192231E+03  0.24929365088E+03  0.00000000000E+00 0. -1.
<mgrwt>
<rscale>  2 0.22325908E+02</rscale>
<asrwt>0</asrwt>
<pdfrwt beam="2">  1        2 0.59367024E-01 0.22325908E+02</pdfrwt>
<pdfrwt beam="1">  1       -2 0.21689541E-03 0.22325908E+02</pdfrwt>
<totfact> 0.88481876E+05</totfact>
</mgrwt>
</event>
<event>
 4    1  0.7653521E+003  0.2777792E+02  0.7546771E-02  0.1624035E+00
         -2   -1    0    0    0  501 -0.00000000000E+00  0.00000000000E+00  0.57666222072E+03  0.57666222072E+03  0.00000000000E+00 0.  1.
          2   -1    0    0  501    0  0.00000000000E+00 -0.00000000000E+00 -0.35057032666E+03  0.35057032666E+03  0.00000000000E+00 0. -1.
          2    1    1    2  502    0 -0.12210336515E+02 -0.24950359832E+02 -0.34968470867E+03  0.35078627146E+03  0.00000000000E+00 0. -1.
         -2    1    1    2    0  502  0.12210336515E+02  0.24950359832E+02  0.57577660272E+03  0.57644627592E+03  0.00000000000E+00 0.  1.
<mgrwt>
<rscale>  2 0.27777919E+02</rscale>
<asrwt>0</asrwt>
<pdfrwt beam="2">  1        2 0.53933897E-01 0.27777919E+02</pdfrwt>
<pdfrwt beam="1">  1       -2 0.88717264E-01 0.27777919E+02</pdfrwt>
<totfact> 0.10969203E+02</totfact>
</mgrwt>
</event>
<event>
 4    1  0.7653521E+003  0.2273896E+02  0.7546771E-02  0.1695777E+00
         -2   -1    0    0    0  501 -0.00000000000E+00  0.00000000000E+00  0.44690136703E+01  0.44690136703E+01  0.00000000000E+00 0.  1.
          2   -1    0    0  501    0  0.00000000000E+00 -0.00000000000E+00 -0.12711790927E+04  0.12711790927E+04  0.00000000000E+00 0. -1.
          2    1    1    2  502    0  0.17930134099E+02 -0.13984649940E+02 -0.12414603100E+04  0.12416685393E+04  0.00000000000E+00 0. -1.
         -2    1    1    2    0  502 -0.17930134099E+02  0.13984649940E+02 -0.25249768997E+02  0.33979567054E+02  0.00000000000E+00 0.  1.
<mgrwt>
<rscale>  2 0.22738957E+02</rscale>
<asrwt>0</asrwt>
<pdfrwt beam="2">  1        2 0.19556606E+00 0.22738957E+02</pdfrwt>
<pdfrwt beam="1">  1       -2 0.68754040E-03 0.22738957E+02</pdfrwt>
<totfact> 0.49908748E+04</totfact>
</mgrwt>
</event>
<event>
 4    1  0.7653521E+003  0.3930257E+02  0.7546771E-02  0.1513407E+00
         -2   -1    0    0    0  501 -0.00000000000E+00  0.00000000000E+00  0.11525371548E+02  0.11525371548E+02  0.00000000000E+00 0. -1.
          2   -1    0    0  501    0  0.00000000000E+00 -0.00000000000E+00 -0.44573255151E+03  0.44573255151E+03  0.00000000000E+00 0. -1.
          2    1    1    2  502    0 -0.39224694008E+02 -0.24729125384E+01 -0.40829460921E+03  0.41018188627E+03  0.00000000000E+00 0. -1.
         -2    1    1    2    0  502  0.39224694008E+02  0.24729125384E+01 -0.25912570754E+02  0.47076036786E+02  0.00000000000E+00 0. -1.
<mgrwt>
<rscale>  2 0.39302569E+02</rscale>
<asrwt>0</asrwt>
<pdfrwt beam="2">  1        2 0.68574237E-01 0.39302569E+02</pdfrwt>
<pdfrwt beam="1">  1       -2 0.17731341E-02 0.39302569E+02</pdfrwt>
<totfact> 0.50684770E+04</totfact>
</mgrwt>
</event>
<event>
 4    1  0.7653521E+003  0.2928647E+02  0.7546771E-02  0.1606112E+00
         -2   -1    0    0    0  501 -0.00000000000E+00  0.00000000000E+00  0.30228677038E+01  0.30228677038E+01  0.00000000000E+00 0. -1.
          2   -1    0    0  501    0  0.00000000000E+00 -0.00000000000E+00 -0.52754052149E+03  0.52754052149E+03  0.00000000000E+00 0.  1.
          2    1    1    2  502    0 -0.14598986047E+01  0.29250057123E+02 -0.44260213272E+03  0.44357000015E+03  0.00000000000E+00 0.  1.
         -2    1    1    2    0  502  0.14598986047E+01 -0.29250057123E+02 -0.81915521071E+02  0.86993389047E+02  0.00000000000E+00 0. -1.
<mgrwt>
<rscale>  2 0.29286467E+02</rscale>
<asrwt>0</asrwt>
<pdfrwt beam="2">  1        2 0.81160056E-01 0.29286467E+02</pdfrwt>
<pdfrwt beam="1">  1       -2 0.46505671E-03 0.29286467E+02</pdfrwt>
<totfact> 0.25140550E+05</totfact>
</mgrwt>
</event>
<event>
 4    1  0.7653521E+003  0.2280189E+02  0.7546771E-02  0.1694742E+00
         -2   -1    0    0    0  501 -0.00000000000E+00  0.00000000000E+00  0.14266109411E+02  0.14266109411E+02  0.00000000000E+00 0. -1.
          2   -1    0    0  501    0  0.00000000000E+00 -0.00000000000E+00 -0.28407448073E+03  0.28407448073E+03  0.00000000000E+00 0. -1.
          2    1    1    2  502    0 -0.21196719108E+02 -0.84038770064E+01 -0.27417738539E+03  0.27512390792E+03  0.00000000000E+00 0. -1.
         -2    1    1    2    0  502  0.21196719108E+02  0.84038770064E+01  0.43690140663E+01  0.23216682226E+02  0.00000000000E+00 0. -1.
<mgrwt>
<rscale>  2 0.22801887E+02</rscale>
<asrwt>0</asrwt>
<pdfrwt beam="2">  1        2 0.43703764E-01 0.22801887E+02</pdfrwt>
<pdfrwt beam="1">  1       -2 0.21947862E-02 0.22801887E+02</pdfrwt>
<totfact> 0.53393089E+04</totfact>
</mgrwt>
</event>
<event>
 4    1  0.7653521E+003  0.4632519E+02  0.7546771E-02  0.1466234E+00
          2   -1    0    0  501    0  0.00000000000E+00  0.00000000000E+00  0.15367360818E+04  0.15367360818E+04  0.00000000000E+00 0. -1.
         -2   -1    0    0    0  501 -0.00000000000E+00 -0.00000000000E+00 -0.55594124096E+01  0.55594124096E+01  0.00000000000E+00 0. -1.
          2    1    1    2  502    0 -0.54405459536E+01 -0.46004601409E+02  0.14328908634E+04  0.14336395116E+04  0.00000000000E+00 0. -1.
         -2    1    1    2    0  502  0.54405459536E+01  0.46004601409E+02  0.98285805986E+02  0.10865598258E+03  0.00000000000E+00 0. -1.
<mgrwt>
<rscale>  2 0.46325186E+02</rscale>
<asrwt>0</asrwt>
<pdfrwt beam="1">  1        2 0.23642060E+00 0.46325186E+02</pdfrwt>
<pdfrwt beam="2">  1       -2 0.85529544E-03 0.46325186E+02</pdfrwt>
<totfact> 0.30333061E+04</totfact>
</mgrwt>
</event>
<event>
 4    1  0.7653521E+003  0.2252906E+02  0.7546771E-02  0.1699260E+00
         -2   -1    0    0    0  501 -0.00000000000E+00  0.00000000000E+00  0.26258973147E+02  0.26258973147E+02  0.00000000000E+00 0. -1.
          2   -1    0    0  501    0  0.00000000000E+00 -0.00000000000E+00 -0.16060672322E+04  0.16060672322E+04  0.00000000000E+00 0.  1.
          2    1    1    2  502    0 -0.11811445881E+02  0.19184590077E+02 -0.16011411185E+04  0.16012996097E+04  0.00000000000E+00 0.  1.
         -2    1    1    2    0  502  0.11811445881E+02 -0.19184590077E+02  0.21332859385E+02  0.31026595685E+02  0.00000000000E+00 0. -1.
<mgrwt>
<rscale>  2 0.22529065E+02</rscale>
<asrwt>0</asrwt>
<pdfrwt beam="2">  1        2 0.24708727E+00 0.22529065E+02</pdfrwt>
<pdfrwt beam="1">  1       -2 0.40398420E-02 0.22529065E+02</pdfrwt>
<totfact> 0.30622613E+03</totfact>
</mgrwt>
</event>
<event>
 4    1  0.7653521E+003  0.4647546E+02  0.7546771E-02  0.1465335E+00
         -2   -1    0    0    0  501 -0.00000000000E+00  0.00000000000E+00  0.24041208344E+01  0.24041208344E+01  0.00000000000E+00 0.  1.
          2   -1    0    0  501    0  0.00000000000E+00 -0.00000000000E+00 -0.13142665940E+04  0.13142665940E+04  0.00000000000E+00 0. -1.
          2    1    1    2  502    0 -0.44221473173E+02  0.14297883236E+02 -0.10262361211E+04  0.10272879559E+04  0.00000000000E+00 0. -1.
         -2    1    1    2    0  502  0.44221473173E+02 -0.14297883236E+02 -0.28562635200E+03  0.28938275884E+03  0.00000000000E+00 0.  1.
<mgrwt>
<rscale>  2 0.46475458E+02</rscale>
<asrwt>0</asrwt>
<pdfrwt beam="2">  1        2 0.20219547E+00 0.46475458E+02</pdfrwt>
<pdfrwt beam="1">  1       -2 0.36986362E-03 0.46475458E+02</pdfrwt>
<totfact> 0.12413616E+05</totfact>
</mgrwt>
</event>
<event>
 4    1  0.7653521E+003  0.2568392E+02  0.7546771E-02  0.1651368E+00
          2   -1    0    0  501    0  0.00000000000E+00  0.00000000000E+00  0.12647945203E+04  0.12647945203E+04  0.00000000000E+00 0. -1.
         -2   -1    0    0    0  501 -0.00000000000E+00 -0.00000000000E+00 -0.10134062025E+02  0.10134062025E+02  0.00000000000E+00 0. -1.
          2    1    1    2  502    0  0.25550091710E+02  0.26184922936E+01  0.12481740320E+04  0.12484382555E+04  0.00000000000E+00 0. -1.
         -2    1    1    2    0  502 -0.25550091710E+02 -0.26184922936E+01  0.64864262720E+01  0.26490326801E+02  0.00000000000E+00 0. -1.
<mgrwt>
<rscale>  2 0.25683919E+02</rscale>
<asrwt>0</asrwt>
<pdfrwt beam="1">  1        2 0.19458365E+00 0.25683919E+02</pdfrwt>
<pdfrwt beam="2">  1       -2 0.15590875E-02 0.25683919E+02</pdfrwt>
<totfact> 0.16866041E+04</totfact>
</mgrwt>
</event>
<event>
 4    1  0.7653521E+003  0.2929586E+02  0.7546771E-02  0.1606005E+00
         -2   -1    0    0    0  501 -0.00000000000E+00  0.00000000000E+00  0.88343556648E+02  0.88343556648E+02  0.00000000000E+00 0. -1.
          2   -1    0    0  501    0  0.00000000000E+00 -0.00000000000E+00 -0.97391733774E+01  0.97391733774E+01  0.00000000000E+00 0. -1.
          2    1    1    2  502    0  0.94199362152E+01 -0.27740065756E+02  0.41751856490E+02  0.51004548491E+02  0.00000000000E+00 0. -1.
         -2    1    1    2    0  502 -0.94199362152E+01  0.27740065756E+02  0.36852526780E+02  0.47078181534E+02  0.00000000000E+00 0. -1.
<mgrwt>
<rscale>  2 0.29295858E+02</rscale>
<asrwt>0</asrwt>
<pdfrwt beam="2">  1        2 0.14983344E-02 0.29295858E+02</pdfrwt>
<pdfrwt beam="1">  1       -2 0.13591316E-01 0.29295858E+02</pdfrwt>
<totfact> 0.20753845E+05</totfact>
</mgrwt>
</event>
<event>
 4    1  0.7653521E+003  0.3299394E+02  0.7546771E-02  0.1567172E+00
         -2   -1    0    0    0  501 -0.00000000000E+00  0.00000000000E+00  0.20614861868E+02  0.20614861868E+02  0.00000000000E+00 0. -1.
          2   -1    0    0  501    0  0.00000000000E+00 -0.00000000000E+00 -0.29856141892E+03  0.29856141892E+03  0.00000000000E+00 0. -1.
          2    1    1    2  502    0 -0.20988686993E+02  0.25457313187E+02 -0.28376203385E+03  0.28567375033E+03  0.00000000000E+00 0. -1.
         -2    1    1    2    0  502  0.20988686993E+02 -0.25457313187E+02  0.58154767960E+01  0.33502530453E+02  0.00000000000E+00 0. -1.
<mgrwt>
<rscale>  2 0.32993935E+02</rscale>
<asrwt>0</asrwt>
<pdfrwt beam="2">  1        2 0.45932526E-01 0.32993935E+02</pdfrwt>
<pdfrwt beam="1">  1       -2 0.31715172E-02 0.32993935E+02</pdfrwt>
<totfact> 0.32638461E+04</totfact>
</mgrwt>
</event>
<event>
 4    1  0.7653521E+003  0.3068189E+02  0.7546771E-02  0.1590671E+00
         -2   -1    0    0    0  501 -0.00000000000E+00  0.00000000000E+00  0.50615911248E+02  0.50615911248E+02  0.00000000000E+00 0. -1.
          2   -1    0    0  501    0  0.00000000000E+00 -0.00000000000E+00 -0.19095929567E+04  0.19095929567E+04  0.00000000000E+00 0.  1.
          2    1    1    2  502    0  0.20904850599E+02 -0.22458091316E+02 -0.19048084169E+04  0.19050555067E+04  0.00000000000E+00 0.  1.
         -2    1    1    2    0  502 -0.20904850599E+02  0.22458091316E+02  0.45831371450E+02  0.55153361213E+02  0.00000000000E+00 0. -1.
<mgrwt>
<rscale>  2 0.30681894E+02</rscale>
<asrwt>0</asrwt>
<pdfrwt beam="2">  1        2 0.29378352E+00 0.30681894E+02</pdfrwt>
<pdfrwt beam="1">  1       -2 0.77870637E-02 0.30681894E+02</pdfrwt>
<totfact> 0.86452355E+02</totfact>
</mgrwt>
</event>
<event>
 4    1  0.7653521E+003  0.2306124E+02  0.7546771E-02  0.1690519E+00
          2   -1    0    0  501    0  0.00000000000E+00  0.00000000000E+00  0.93692390147E+03  0.93692390147E+03  0.00000000000E+00 0. -1.
         -2   -1    0    0    0  501 -0.00000000000E+00 -0.00000000000E+00 -0.59263322357E+00  0.59263322357E+00  0.00000000000E+00 0. -1.
          2    1    1    2  502    0  0.22877871920E+02 -0.29022485939E+01  0.37186925448E+03  0.37258363155E+03  0.00000000000E+00 0. -1.
         -2    1    1    2    0  502 -0.22877871920E+02  0.29022485939E+01  0.56446201376E+03  0.56493290314E+03  0.00000000000E+00 0. -1.
<mgrwt>
<rscale>  2 0.23061236E+02</rscale>
<asrwt>0</asrwt>
<pdfrwt beam="1">  1        2 0.14414095E+00 0.23061236E+02</pdfrwt>
<pdfrwt beam="2">  1       -2 0.91175092E-04 0.23061236E+02</pdfrwt>
<totfact> 0.10948928E+06</totfact>
</mgrwt>
</event>
<event>
 4    1  0.7653521E+003  0.2392004E+02  0.7546771E-02  0.1677016E+00
          2   -1    0    0  501    0  0.00000000000E+00  0.00000000000E+00  0.38195896879E+01  0.38195896879E+01  0.00000000000E+00 0.  1.
         -2   -1    0    0    0  501 -0.00000000000E+00 -0.00000000000E+00 -0.49571723408E+03  0.49571723408E+03  0.00000000000E+00 0.  1.
          2    1    1    2  502    0  0.15804819991E+02  0.17954834076E+02 -0.37304000064E+02  0.44314295914E+02  0.00000000000E+00 0.  1.
         -2    1    1    2    0  502 -0.15804819991E+02 -0.17954834076E+02 -0.45459364432E+03  0.45522252785E+03  0.00000000000E+00 0.  1.
<mgrwt>
<rscale>  2 0.23920042E+02</rscale>
<asrwt>0</asrwt>
<pdfrwt beam="1">  1        2 0.58762882E-03 0.23920042E+02</pdfrwt>
<pdfrwt beam="2">  1       -2 0.76264237E-01 0.23920042E+02</pdfrwt>
<totfact> 0.31636977E+04</totfact>
</mgrwt>
</event>
<event>
 4    1  0.7653521E+003  0.2854944E+02  0.7546771E-02  0.1614699E+00
         -2   -1    0    0    0  501 -0.00000000000E+00  0.00000000000E+00  0.51928561990E+01  0.51928561990E+01  0.00000000000E+00 0. -1.
          2   -1    0    0  501    0  0.00000000000E+00 -0.00000000000E+00 -0.17989173724E+04  0.17989173724E+04  0.00000000000E+00 0. -1.
          2    1    1    2  502    0 -0.17855476960E+02  0.22276730430E+02 -0.17586660537E+04  0.17588977683E+04  0.00000000000E+00 0. -1.
         -2    1    1    2    0  502  0.17855476960E+02 -0.22276730430E+02 -0.35058462488E+02  0.45212460319E+02  0.00000000000E+00 0. -1.
<mgrwt>
<rscale>  2 0.28549444E+02</rscale>
<asrwt>0</asrwt>
<pdfrwt beam="2">  1        2 0.27675681E+00 0.28549444E+02</pdfrwt>
<pdfrwt beam="1">  1       -2 0.79890012E-03 0.28549444E+02</pdfrwt>
<totfact> 0.23620724E+04</totfact>
</mgrwt>
</event>
<event>
 4    1  0.7653521E+003  0.2319817E+02  0.7546771E-02  0.1688318E+00
          2   -1    0    0  501    0  0.00000000000E+00  0.00000000000E+00  0.42661462740E+02  0.42661462740E+02  0.00000000000E+00 0. -1.
         -2   -1    0    0    0  501 -0.00000000000E+00 -0.00000000000E+00 -0.50961082290E+02  0.50961082290E+02  0.00000000000E+00 0. -1.
          2    1    1    2  502    0  0.22690615915E+02 -0.48260605194E+01  0.36456563853E+02  0.43211525762E+02  0.00000000000E+00 0. -1.
         -2    1    1    2    0  502 -0.22690615915E+02  0.48260605194E+01 -0.44756183403E+02  0.50411019267E+02  0.00000000000E+00 0. -1.
<mgrwt>
<rscale>  2 0.23198166E+02</rscale>
<asrwt>0</asrwt>
<pdfrwt beam="1">  1        2 0.65633020E-02 0.23198166E+02</pdfrwt>
<pdfrwt beam="2">  1       -2 0.78401665E-02 0.23198166E+02</pdfrwt>
<totfact> 0.69436978E+04</totfact>
</mgrwt>
</event>
<event>
 4    1  0.7653521E+003  0.3534202E+02  0.7546771E-02  0.1545584E+00
         -2   -1    0    0    0  501 -0.00000000000E+00  0.00000000000E+00  0.36103889980E+01  0.36103889980E+01  0.00000000000E+00 0. -1.
          2   -1    0    0  501    0  0.00000000000E+00 -0.00000000000E+00 -0.38827254281E+03  0.38827254281E+03  0.00000000000E+00 0.  1.
          2    1    1    2  502    0  0.34237079140E+02  0.87681489678E+01 -0.25701277630E+03  0.25943134970E+03  0.00000000000E+00 0.  1.
         -2    1    1    2    0  502 -0.34237079140E+02 -0.87681489678E+01 -0.12764937751E+03  0.13245158210E+03  0.00000000000E+00 0. -1.
<mgrwt>
<rscale>  2 0.35342015E+02</rscale>
<asrwt>0</asrwt>
<pdfrwt beam="2">  1        2 0.59734244E-01 0.35342015E+02</pdfrwt>
<pdfrwt beam="1">  1       -2 0.55544440E-03 0.35342015E+02</pdfrwt>
<totfact> 0.28238494E+05</totfact>
</mgrwt>
</event>
<event>
 4    1  0.7653521E+003  0.3225338E+02  0.7546771E-02  0.1574438E+00
         -2   -1    0    0    0  501 -0.00000000000E+00  0.00000000000E+00  0.14007950442E+03  0.14007950442E+03  0.00000000000E+00 0. -1.
          2   -1    0    0  501    0  0.00000000000E+00 -0.00000000000E+00 -0.79236390168E+02  0.79236390168E+02  0.00000000000E+00 0. -1.
          2    1    1    2  502    0  0.22435398780E+02 -0.23171817930E+02 -0.73971192766E+02  0.80697073205E+02  0.00000000000E+00 0. -1.
         -2    1    1    2    0  502 -0.22435398780E+02  0.23171817930E+02  0.13481430702E+03  0.13861882138E+03  0.00000000000E+00 0. -1.
<mgrwt>
<rscale>  2 0.32253376E+02</rscale>
<asrwt>0</asrwt>
<pdfrwt beam="2">  1        2 0.12190214E-01 0.32253376E+02</pdfrwt>
<pdfrwt beam="1">  1       -2 0.21550693E-01 0.32253376E+02</pdfrwt>
<totfact> 0.75053363E+03</totfact>
</mgrwt>
</event>
<event>
 4    1  0.7653521E+003  0.2366334E+02  0.7546771E-02  0.1680978E+00
         -2   -1    0    0    0  501 -0.00000000000E+00  0.00000000000E+00  0.10831324181E+03  0.10831324181E+03  0.00000000000E+00 0.  1.
          2   -1    0    0  501    0  0.00000000000E+00 -0.00000000000E+00 -0.23023273039E+02  0.23023273039E+02  0.00000000000E+00 0.  1.
          2    1    1    2  502    0  0.23636296502E+02 -0.11310882156E+01 -0.15182427662E+02  0.28115120177E+02  0.00000000000E+00 0.  1.
         -2    1    1    2    0  502 -0.23636296502E+02  0.11310882156E+01  0.10047239643E+03  0.10322139467E+03  0.00000000000E+00 0.  1.
<mgrwt>
<rscale>  2 0.23663344E+02</rscale>
<asrwt>0</asrwt>
<pdfrwt beam="2">  1        2 0.35420421E-02 0.23663344E+02</pdfrwt>
<pdfrwt beam="1">  1       -2 0.16663575E-01 0.23663344E+02</pdfrwt>
<totfact> 0.47559774E+04</totfact>
</mgrwt>
</event>
<event>
 4    1  0.7653521E+003  0.2037289E+02  0.7546771E-02  0.1738013E+00
         -2   -1    0    0    0  501 -0.00000000000E+00  0.00000000000E+00  0.44511238682E+01  0.44511238682E+01  0.00000000000E+00 0. -1.
          2   -1    0    0  501    0  0.00000000000E+00 -0.00000000000E+00 -0.38877949791E+03  0.38877949791E+03  0.00000000000E+00 0.  1.
          2    1    1    2  502    0  0.20114776352E+02 -0.32327388798E+01 -0.36358680915E+03  0.36415714000E+03  0.00000000000E+00 0.  1.
         -2    1    1    2    0  502 -0.20114776352E+02  0.32327388798E+01 -0.20741564896E+02  0.29073481778E+02  0.00000000000E+00 0. -1.
<mgrwt>
<rscale>  2 0.20372894E+02</rscale>
<asrwt>0</asrwt>
<pdfrwt beam="2">  1        2 0.59812216E-01 0.20372894E+02</pdfrwt>
<pdfrwt beam="1">  1       -2 0.68478846E-03 0.20372894E+02</pdfrwt>
<totfact> 0.18502375E+05</totfact>
</mgrwt>
</event>
<event>
 4    1  0.7653521E+003  0.2551163E+02  0.7546771E-02  0.1653760E+00
          2   -1    0    0  501    0  0.00000000000E+00  0.00000000000E+00  0.77998641646E+03  0.77998641646E+03  0.00000000000E+00 0.  1.
         -2   -1    0    0    0  501 -0.00000000000E+00 -0.00000000000E+00 -0.13419545185E+01  0.13419545185E+01  0.00000000000E+00 0.  1.
          2    1    1    2  502    0 -0.14473688122E+02 -0.21008462400E+02  0.62957241093E+03  0.63008909191E+03  0.00000000000E+00 0.  1.
         -2    1    1    2    0  502  0.14473688122E+02  0.21008462400E+02  0.14907205101E+03  0.15123927906E+03  0.00000000000E+00 0.  1.
<mgrwt>
<rscale>  2 0.25511628E+02</rscale>
<asrwt>0</asrwt>
<pdfrwt beam="1">  1        2 0.11999755E+00 0.25511628E+02</pdfrwt>
<pdfrwt beam="2">  1       -2 0.20645516E-03 0.25511628E+02</pdfrwt>
<totfact> 0.47368861E+05</totfact>
</mgrwt>
</event>
<event>
 4    1  0.7653521E+003  0.3149813E+02  0.7546771E-02  0.1582096E+00
          2   -1    0    0  501    0  0.00000000000E+00  0.00000000000E+00  0.39140047970E+02  0.39140047970E+02  0.00000000000E+00 0. -1.
         -2   -1    0    0    0  501 -0.00000000000E+00 -0.00000000000E+00 -0.15157815232E+03  0.15157815232E+03  0.00000000000E+00 0. -1.
          2    1    1    2  502    0 -0.29359749149E+02  0.11407785228E+02  0.30802120513E+02  0.44055681381E+02  0.00000000000E+00 0. -1.
         -2    1    1    2    0  502  0.29359749149E+02 -0.11407785228E+02 -0.14324022486E+03  0.14666251891E+03  0.00000000000E+00 0. -1.
<mgrwt>
<rscale>  2 0.31498134E+02</rscale>
<asrwt>0</asrwt>
<pdfrwt beam="1">  1        2 0.60215459E-02 0.31498134E+02</pdfrwt>
<pdfrwt beam="2">  1       -2 0.23319716E-01 0.31498134E+02</pdfrwt>
<totfact> 0.15133534E+04</totfact>
</mgrwt>
</event>
<event>
 4    1  0.7653521E+003  0.2021326E+02  0.7546771E-02  0.1741120E+00
         -2   -1    0    0    0  501 -0.00000000000E+00  0.00000000000E+00  0.12268547748E+03  0.12268547748E+03  0.00000000000E+00 0. -1.
          2   -1    0    0  501    0  0.00000000000E+00 -0.00000000000E+00 -0.55322529755E+03  0.55322529755E+03  0.00000000000E+00 0.  1.
          2    1    1    2  502    0 -0.82188789697E+01  0.18466889608E+02 -0.55220656052E+03  0.55257638519E+03  0.00000000000E+00 0.  1.
         -2    1    1    2    0  502  0.82188789697E+01 -0.18466889608E+02  0.12166674046E+03  0.12333438984E+03  0.00000000000E+00 0. -1.
<mgrwt>
<rscale>  2 0.20213263E+02</rscale>
<asrwt>0</asrwt>
<pdfrwt beam="2">  1        2 0.85111584E-01 0.20213263E+02</pdfrwt>
<pdfrwt beam="1">  1       -2 0.18874689E-01 0.20213263E+02</pdfrwt>
<totfact> 0.11925122E+03</totfact>
</mgrwt>
</event>
<event>
 4    1  0.7653521E+003  0.4216764E+02  0.7546771E-02  0.1492840E+00
         -2   -1    0    0    0  501 -0.00000000000E+00  0.00000000000E+00  0.82930526952E+01  0.82930526952E+01  0.00000000000E+00 0.  1.
          2   -1    0    0  501    0  0.00000000000E+00 -0.00000000000E+00 -0.12864252507E+04  0.12864252507E+04  0.00000000000E+00 0. -1.
          2    1    1    2  502    0  0.20954119943E+02 -0.36592818377E+02 -0.12300199836E+04  0.12307425683E+04  0.00000000000E+00 0. -1.
         -2    1    1    2    0  502 -0.20954119943E+02  0.36592818377E+02 -0.48112214406E+02  0.63975735044E+02  0.00000000000E+00 0.  1.
<mgrwt>
<rscale>  2 0.42167636E+02</rscale>
<asrwt>0</asrwt>
<pdfrwt beam="2">  1        2 0.19791142E+00 0.42167636E+02</pdfrwt>
<pdfrwt beam="1">  1       -2 0.12758552E-02 0.42167636E+02</pdfrwt>
<totfact> 0.22989127E+04</totfact>
</mgrwt>
</event>
<event>
 4    1  0.7653521E+003  0.3117144E+02  0.7546771E-02  0.1585490E+00
         -2   -1    0    0    0  501 -0.00000000000E+00  0.00000000000E+00  0.65059554250E+01  0.65059554250E+01  0.00000000000E+00 0. -1.
          2   -1    0    0  501    0  0.00000000000E+00 -0.00000000000E+00 -0.33556692938E+03  0.33556692938E+03  0.00000000000E+00 0. -1.
          2    1    1    2  502    0  0.30853365546E+02 -0.44416736253E+01 -0.29194230128E+03  0.29360171305E+03  0.00000000000E+00 0. -1.
         -2    1    1    2    0  502 -0.30853365546E+02  0.44416736253E+01 -0.37118672679E+02  0.48471171758E+02  0.00000000000E+00 0. -1.
<mgrwt>
<rscale>  2 0.31171439E+02</rscale>
<asrwt>0</asrwt>
<pdfrwt beam="2">  1        2 0.51625676E-01 0.31171439E+02</pdfrwt>
<pdfrwt beam="1">  1       -2 0.10009163E-02 0.31171439E+02</pdfrwt>
<totfact> 0.14214423E+05</totfact>
</mgrwt>
</event>
<event>
 4    1  0.7653521E+003  0.2163500E+02  0.7546771E-02  0.1714642E+00
          2   -1    0    0  501    0  0.00000000000E+00  0.00000000000E+00  0.15197337323E+01  0.15197337323E+01  0.00000000000E+00 0.  1.
         -2   -1    0    0    0  501 -0.00000000000E+00 -0.00000000000E+00 -0.33930202936E+03  0.33930202936E+03  0.00000000000E+00 0.  1.
          2    1    1    2  502    0 -0.87144833098E+01 -0.19802302304E+02 -0.11712911671E+03  0.11911046712E+03  0.00000000000E+00 0.  1.
         -2    1    1    2    0  502  0.87144833098E+01  0.19802302304E+02 -0.22065317892E+03  0.22171129597E+03  0.00000000000E+00 0.  1.
<mgrwt>
<rscale>  2 0.21635004E+02</rscale>
<asrwt>0</asrwt>
<pdfrwt beam="1">  1        2 0.23380497E-03 0.21635004E+02</pdfrwt>
<pdfrwt beam="2">  1       -2 0.52200360E-01 0.21635004E+02</pdfrwt>
<totfact> 0.22002351E+05</totfact>
</mgrwt>
</event>
<event>
 4    1  0.7653521E+003  0.3483938E+02  0.7546771E-02  0.1550032E+00
          2   -1    0    0  501    0  0.00000000000E+00  0.00000000000E+00  0.39265628358E+02  0.39265628358E+02  0.00000000000E+00 0.  1.
         -2   -1    0    0    0  501 -0.00000000000E+00 -0.00000000000E+00 -0.14535137780E+03  0.14535137780E+03  0.00000000000E+00 0.  1.
          2    1    1    2  502    0  0.30195869627E+01 -0.34708274313E+02  0.28863881289E+02  0.45242743665E+02  0.00000000000E+00 0.  1.
         -2    1    1    2    0  502 -0.30195869627E+01  0.34708274313E+02 -0.13494963074E+03  0.13937426250E+03  0.00000000000E+00 0.  1.
<mgrwt>
<rscale>  2 0.34839377E+02</rscale>
<asrwt>0</asrwt>
<pdfrwt beam="1">  1        2 0.60408659E-02 0.34839377E+02</pdfrwt>
<pdfrwt beam="2">  1       -2 0.22361751E-01 0.34839377E+02</pdfrwt>
<totfact> 0.16429886E+04</totfact>
</mgrwt>
</event>
<event>
 4    1  0.7653521E+003  0.2058813E+02  0.7546771E-02  0.1733879E+00
         -2   -1    0    0    0  501 -0.00000000000E+00  0.00000000000E+00  0.86193436172E+01  0.86193436172E+01  0.00000000000E+00 0. -1.
          2   -1    0    0  501    0  0.00000000000E+00 -0.00000000000E+00 -0.55604643181E+02  0.55604643181E+02  0.00000000000E+00 0. -1.
          2    1    1    2  502    0 -0.11486416594E+02 -0.17086062152E+02 -0.34410726493E+02  0.40099493560E+02  0.00000000000E+00 0. -1.
         -2    1    1    2    0  502  0.11486416594E+02  0.17086062152E+02 -0.12574573071E+02  0.24124493237E+02  0.00000000000E+00 0. -1.
<mgrwt>
<rscale>  2 0.20588135E+02</rscale>
<asrwt>0</asrwt>
<pdfrwt beam="2">  1        2 0.85545606E-02 0.20588135E+02</pdfrwt>
<pdfrwt beam="1">  1       -2 0.13260528E-02 0.20588135E+02</pdfrwt>
<totfact> 0.58641624E+05</totfact>
</mgrwt>
</event>
<event>
 4    1  0.7653521E+003  0.3053356E+02  0.7546771E-02  0.1592265E+00
         -2   -1    0    0    0  501 -0.00000000000E+00  0.00000000000E+00  0.43602859434E+03  0.43602859434E+03  0.00000000000E+00 0.  1.
          2   -1    0    0  501    0  0.00000000000E+00 -0.00000000000E+00 -0.30564526117E+01  0.30564526117E+01  0.00000000000E+00 0.  1.
          2    1    1    2  502    0  0.30353372648E+02 -0.33122255587E+01  0.96148618302E+02  0.10088039884E+03  0.00000000000E+00 0.  1.
         -2    1    1    2    0  502 -0.30353372648E+02  0.33122255587E+01  0.33682352342E+03  0.33820464811E+03  0.00000000000E+00 0.  1.
<mgrwt>
<rscale>  2 0.30533556E+02</rscale>
<asrwt>0</asrwt>
<pdfrwt beam="2">  1        2 0.47022382E-03 0.30533556E+02</pdfrwt>
<pdfrwt beam="1">  1       -2 0.67081273E-01 0.30533556E+02</pdfrwt>
<totfact> 0.58825701E+04</totfact>
</mgrwt>
</event>
<event>
 4    1  0.7653521E+003  0.2048753E+02  0.7546771E-02  0.1735803E+00
          2   -1    0    0  501    0  0.00000000000E+00  0.00000000000E+00  0.41786120193E+02  0.41786120193E+02  0.00000000000E+00 0. -1.
         -2   -1    0    0    0  501 -0.00000000000E+00 -0.00000000000E+00 -0.20497195787E+02  0.20497195787E+02  0.00000000000E+00 0.  1.
          2    1    1    2  502    0  0.19148189550E+02  0.72859991077E+01  0.32882659676E+02  0.38742847771E+02  0.00000000000E+00 0. -1.
         -2    1    1    2    0  502 -0.19148189550E+02 -0.72859991077E+01 -0.11593735270E+02  0.23540468210E+02  0.00000000000E+00 0.  1.
<mgrwt>
<rscale>  2 0.20487531E+02</rscale>
<asrwt>0</asrwt>
<pdfrwt beam="1">  1        2 0.64286339E-02 0.20487531E+02</pdfrwt>
<pdfrwt beam="2">  1       -2 0.31534147E-02 0.20487531E+02</pdfrwt>
<totfact> 0.25078283E+05</totfact>
</mgrwt>
</event>
<event>
 4    1  0.7653521E+003  0.3428668E+02  0.7546771E-02  0.1555028E+00
          2   -1    0    0  501    0  0.00000000000E+00  0.00000000000E+00  0.81239376447E+02  0.81239376447E+02  0.00000000000E+00 0.  1.
         -2   -1    0    0    0  501 -0.00000000000E+00 -0.00000000000E+00 -0.63960844997E+02  0.63960844997E+02  0.00000000000E+00 0.  1.
          2    1    1    2  502    0 -0.30286567598E+02  0.16071721498E+02  0.72500942699E+02  0.80199520579E+02  0.00000000000E+00 0.  1.
         -2    1    1    2    0  502  0.30286567598E+02 -0.16071721498E+02 -0.55222411250E+02  0.65000700866E+02  0.00000000000E+00 0.  1.
<mgrwt>
<rscale>  2 0.34286680E+02</rscale>
<asrwt>0</asrwt>
<pdfrwt beam="1">  1        2 0.12498366E-01 0.34286680E+02</pdfrwt>
<pdfrwt beam="2">  1       -2 0.98401300E-02 0.34286680E+02</pdfrwt>
<totfact> 0.25203670E+04</totfact>
</mgrwt>
</event>
<event>
 4    1  0.7653521E+003  0.2463431E+02  0.7546771E-02  0.1666311E+00
          2   -1    0    0  501    0  0.00000000000E+00  0.00000000000E+00  0.15676115009E+02  0.15676115009E+02  0.00000000000E+00 0. -1.
         -2   -1    0    0    0  501 -0.00000000000E+00 -0.00000000000E+00 -0.69451096161E+02  0.69451096161E+02  0.00000000000E+00 0. -1.
          2    1    1    2  502    0 -0.37763888939E+01  0.24343133463E+02  0.14294568435E+01  0.24675749365E+02  0.00000000000E+00 0. -1.
         -2    1    1    2    0  502  0.37763888939E+01 -0.24343133463E+02 -0.55204437996E+02  0.60451461804E+02  0.00000000000E+00 0. -1.
<mgrwt>
<rscale>  2 0.24634311E+02</rscale>
<asrwt>0</asrwt>
<pdfrwt beam="1">  1        2 0.24117100E-02 0.24634311E+02</pdfrwt>
<pdfrwt beam="2">  1       -2 0.10684784E-01 0.24634311E+02</pdfrwt>
<totfact> 0.15455228E+05</totfact>
</mgrwt>
</event>
<event>
 4    1  0.7653521E+003  0.2964906E+02  0.7546771E-02  0.1602001E+00
         -2   -1    0    0    0  501 -0.00000000000E+00  0.00000000000E+00  0.15360902339E+02  0.15360902339E+02  0.00000000000E+00 0.  1.
          2   -1    0    0  501    0  0.00000000000E+00 -0.00000000000E+00 -0.40306296731E+03  0.40306296731E+03  0.00000000000E+00 0.  1.
          2    1    1    2  502    0  0.28759852768E+02  0.72067759190E+01 -0.38764254091E+03  0.38877475004E+03  0.00000000000E+00 0.  1.
         -2    1    1    2    0  502 -0.28759852768E+02 -0.72067759190E+01 -0.59524065959E-01  0.29649119607E+02  0.00000000000E+00 0.  1.
<mgrwt>
<rscale>  2 0.29649060E+02</rscale>
<asrwt>0</asrwt>
<pdfrwt beam="2">  1        2 0.62009676E-01 0.29649060E+02</pdfrwt>
<pdfrwt beam="1">  1       -2 0.23632162E-02 0.29649060E+02</pdfrwt>
<totfact> 0.35844634E+04</totfact>
</mgrwt>
</event>
<event>
 4    1  0.7653521E+003  0.2179846E+02  0.7546771E-02  0.1711761E+00
          2   -1    0    0  501    0  0.00000000000E+00  0.00000000000E+00  0.21501772205E+03  0.21501772205E+03  0.00000000000E+00 0. -1.
         -2   -1    0    0    0  501 -0.00000000000E+00 -0.00000000000E+00 -0.37013390032E+01  0.37013390032E+01  0.00000000000E+00 0.  1.
          2    1    1    2  502    0  0.15136308905E+02  0.15686459393E+02  0.17507688540E+03  0.17642870701E+03  0.00000000000E+00 0. -1.
         -2    1    1    2    0  502 -0.15136308905E+02 -0.15686459393E+02  0.36239497653E+02  0.42290354050E+02  0.00000000000E+00 0.  1.
<mgrwt>
<rscale>  2 0.21798460E+02</rscale>
<asrwt>0</asrwt>
<pdfrwt beam="1">  1        2 0.33079640E-01 0.21798460E+02</pdfrwt>
<pdfrwt beam="2">  1       -2 0.56943694E-03 0.21798460E+02</pdfrwt>
<totfact> 0.43261814E+05</totfact>
</mgrwt>
</event>
<event>
 4    1  0.7653521E+003  0.6000591E+02  0.7546771E-02  0.1397807E+00
          2   -1    0    0  501    0  0.00000000000E+00  0.00000000000E+00  0.19009623241E+04  0.19009623241E+04  0.00000000000E+00 0. -1.
         -2   -1    0    0    0  501 -0.00000000000E+00 -0.00000000000E+00 -0.18963215933E+01  0.18963215933E+01  0.00000000000E+00 0. -1.
          2    1    1    2  502    0  0.20536302130E+02  0.56382349893E+02  0.98172452053E+03  0.98355668027E+03  0.00000000000E+00 0. -1.
         -2    1    1    2    0  502 -0.20536302130E+02 -0.56382349893E+02  0.91734148200E+03  0.91930196546E+03  0.00000000000E+00 0. -1.
<mgrwt>
<rscale>  2 0.60005909E+02</rscale>
<asrwt>0</asrwt>
<pdfrwt beam="1">  1        2 0.29245422E+00 0.60005909E+02</pdfrwt>
<pdfrwt beam="2">  1       -2 0.29174330E-03 0.60005909E+02</pdfrwt>
<totfact> 0.91393636E+04</totfact>
</mgrwt>
</event>
<event>
 4    1  0.7653521E+003  0.3100358E+02  0.7546771E-02  0.1587253E+00
          2   -1    0    0  501    0  0.00000000000E+00  0.00000000000E+00  0.24562498991E+03  0.24562498991E+03  0.00000000000E+00 0.  1.
         -2   -1    0    0    0  501 -0.00000000000E+00 -0.00000000000E+00 -0.55109398316E+01  0.55109398316E+01  0.00000000000E+00 0. -1.
          2    1    1    2  502    0 -0.30944990865E+02 -0.19050989528E+01  0.18766465749E+03  0.19020842656E+03  0.00000000000E+00 0.  1.
         -2    1    1    2    0  502  0.30944990865E+02  0.19050989528E+01  0.52449392588E+02  0.60927503187E+02  0.00000000000E+00 0. -1.
<mgrwt>
<rscale>  2 0.31003578E+02</rscale>
<asrwt>0</asrwt>
<pdfrwt beam="1">  1        2 0.37788451E-01 0.31003578E+02</pdfrwt>
<pdfrwt beam="2">  1       -2 0.84783709E-03 0.31003578E+02</pdfrwt>
<totfact> 0.24341861E+05</totfact>
</mgrwt>
</event>
<event>
 4    1  0.7653521E+003  0.5611166E+02  0.7546771E-02  0.1414914E+00
          2   -1    0    0  501    0  0.00000000000E+00  0.00000000000E+00  0.14063147491E+02  0.14063147491E+02  0.00000000000E+00 0. -1.
         -2   -1    0    0    0  501 -0.00000000000E+00 -0.00000000000E+00 -0.59306216261E+03  0.59306216261E+03  0.00000000000E+00 0. -1.
          2    1    1    2  502    0 -0.31937390267E+02  0.46135899420E+02 -0.49993698075E+02  0.75152431495E+02  0.00000000000E+00 0. -1.
         -2    1    1    2    0  502  0.31937390267E+02 -0.46135899420E+02 -0.52900531704E+03  0.53197287860E+03  0.00000000000E+00 0. -1.
<mgrwt>
<rscale>  2 0.56111658E+02</rscale>
<asrwt>0</asrwt>
<pdfrwt beam="1">  1        2 0.21635617E-02 0.56111658E+02</pdfrwt>
<pdfrwt beam="2">  1       -2 0.91240312E-01 0.56111658E+02</pdfrwt>
<totfact> 0.44833648E+03</totfact>
</mgrwt>
</event>
<event>
 4    1  0.7653521E+003  0.2746708E+02  0.7546771E-02  0.1627902E+00
         -2   -1    0    0    0  501 -0.00000000000E+00  0.00000000000E+00  0.16005056910E+02  0.16005056910E+02  0.00000000000E+00 0.  1.
          2   -1    0    0  501    0  0.00000000000E+00 -0.00000000000E+00 -0.55162222906E+03  0.55162222906E+03  0.00000000000E+00 0.  1.
          2    1    1    2  502    0 -0.24933838117E+01 -0.27353676852E+02 -0.53922514561E+03  0.53992425233E+03  0.00000000000E+00 0.  1.
         -2    1    1    2    0  502  0.24933838117E+01  0.27353676852E+02  0.36079734604E+01  0.27703033636E+02  0.00000000000E+00 0.  1.
<mgrwt>
<rscale>  2 0.27467082E+02</rscale>
<asrwt>0</asrwt>
<pdfrwt beam="2">  1        2 0.84864962E-01 0.27467082E+02</pdfrwt>
<pdfrwt beam="1">  1       -2 0.24623163E-02 0.27467082E+02</pdfrwt>
<totfact> 0.24294194E+04</totfact>
</mgrwt>
</event>
<event>
 4    1  0.7653521E+003  0.2796197E+02  0.7546771E-02  0.1621774E+00
         -2   -1    0    0    0  501 -0.00000000000E+00  0.00000000000E+00  0.40342226413E+02  0.40342226413E+02  0.00000000000E+00 0. -1.
          2   -1    0    0  501    0  0.00000000000E+00 -0.00000000000E+00 -0.28728071811E+03  0.28728071811E+03  0.00000000000E+00 0.  1.
          2    1    1    2  502    0 -0.27750245204E+02 -0.34344927770E+01 -0.28165858798E+03  0.28304316284E+03  0.00000000000E+00 0.  1.
         -2    1    1    2    0  502  0.27750245204E+02  0.34344927770E+01  0.34720096278E+02  0.44579781685E+02  0.00000000000E+00 0. -1.
<mgrwt>
<rscale>  2 0.27961971E+02</rscale>
<asrwt>0</asrwt>
<pdfrwt beam="2">  1        2 0.44197032E-01 0.27961971E+02</pdfrwt>
<pdfrwt beam="1">  1       -2 0.62064965E-02 0.27961971E+02</pdfrwt>
<totfact> 0.12674782E+04</totfact>
</mgrwt>
</event>
<event>
 4    1  0.7653521E+003  0.2041224E+02  0.7546771E-02  0.1737252E+00
         -2   -1    0    0    0  501 -0.00000000000E+00  0.00000000000E+00  0.11053669148E+01  0.11053669148E+01  0.00000000000E+00 0. -1.
          2   -1    0    0  501    0  0.00000000000E+00 -0.00000000000E+00 -0.60917776347E+03  0.60917776347E+03  0.00000000000E+00 0. -1.
          2    1    1    2  502    0  0.18495893122E+02  0.86348873498E+01 -0.49244179159E+03  0.49286466443E+03  0.00000000000E+00 0. -1.
         -2    1    1    2    0  502 -0.18495893122E+02 -0.86348873498E+01 -0.11563060496E+03  0.11741846595E+03  0.00000000000E+00 0. -1.
<mgrwt>
<rscale>  2 0.20412235E+02</rscale>
<asrwt>0</asrwt>
<pdfrwt beam="2">  1        2 0.93719704E-01 0.20412235E+02</pdfrwt>
<pdfrwt beam="1">  1       -2 0.17005636E-03 0.20412235E+02</pdfrwt>
<totfact> 0.74918975E+05</totfact>
</mgrwt>
</event>
<event>
 4    1  0.7653521E+003  0.5401619E+02  0.7546771E-02  0.1424809E+00
         -2   -1    0    0    0  501 -0.00000000000E+00  0.00000000000E+00  0.15372753025E+03  0.15372753025E+03  0.00000000000E+00 0. -1.
          2   -1    0    0  501    0  0.00000000000E+00 -0.00000000000E+00 -0.40915259808E+02  0.40915259808E+02  0.00000000000E+00 0. -1.
          2    1    1    2  502    0 -0.28286241414E+02  0.46017796506E+02 -0.14852422268E+02  0.56020920162E+02  0.00000000000E+00 0. -1.
         -2    1    1    2    0  502  0.28286241414E+02 -0.46017796506E+02  0.12766469271E+03  0.13862186989E+03  0.00000000000E+00 0. -1.
<mgrwt>
<rscale>  2 0.54016192E+02</rscale>
<asrwt>0</asrwt>
<pdfrwt beam="2">  1        2 0.62946554E-02 0.54016192E+02</pdfrwt>
<pdfrwt beam="1">  1       -2 0.23650389E-01 0.54016192E+02</pdfrwt>
<totfact> 0.15161369E+04</totfact>
</mgrwt>
</event>
<event>
 4    1  0.7653521E+003  0.2338262E+02  0.7546771E-02  0.1685382E+00
         -2   -1    0    0    0  501 -0.00000000000E+00  0.00000000000E+00  0.24268910865E+01  0.24268910865E+01  0.00000000000E+00 0.  1.
          2   -1    0    0  501    0  0.00000000000E+00 -0.00000000000E+00 -0.17607413058E+04  0.17607413058E+04  0.00000000000E+00 0.  1.
          2    1    1    2  502    0 -0.37728623595E+01 -0.23076231143E+02 -0.17024122974E+04  0.17025728699E+04  0.00000000000E+00 0.  1.
         -2    1    1    2    0  502  0.37728623595E+01  0.23076231143E+02 -0.55902117316E+02  0.60595327003E+02  0.00000000000E+00 0.  1.
<mgrwt>
<rscale>  2 0.23382620E+02</rscale>
<asrwt>0</asrwt>
<pdfrwt beam="2">  1        2 0.27088315E+00 0.23382620E+02</pdfrwt>
<pdfrwt beam="1">  1       -2 0.37336803E-03 0.23382620E+02</pdfrwt>
<totfact> 0.66659298E+04</totfact>
</mgrwt>
</event>
<event>
 4    1  0.7653521E+003  0.3822658E+02  0.7546771E-02  0.1521683E+00
          2   -1    0    0  501    0  0.00000000000E+00  0.00000000000E+00  0.68887040926E+03  0.68887040926E+03  0.00000000000E+00 0.  1.
         -2   -1    0    0    0  501 -0.00000000000E+00 -0.00000000000E+00 -0.47069518359E+01  0.47069518359E+01  0.00000000000E+00 0. -1.
          2    1    1    2  502    0 -0.99317594382E-01  0.38226449660E+02  0.59911163217E+03  0.60032992523E+03  0.00000000000E+00 0.  1.
         -2    1    1    2    0  502  0.99317594382E-01 -0.38226449660E+02  0.85051825249E+02  0.93247435867E+02  0.00000000000E+00 0. -1.
<mgrwt>
<rscale>  2 0.38226579E+02</rscale>
<asrwt>0</asrwt>
<pdfrwt beam="1">  1        2 0.10597998E+00 0.38226579E+02</pdfrwt>
<pdfrwt beam="2">  1       -2 0.72414698E-03 0.38226579E+02</pdfrwt>
<totfact> 0.10957385E+05</totfact>
</mgrwt>
</event>
<event>
 4    1  0.7653521E+003  0.2365716E+02  0.7546771E-02  0.1681074E+00
         -2   -1    0    0    0  501 -0.00000000000E+00  0.00000000000E+00  0.72331149810E+02  0.72331149810E+02  0.00000000000E+00 0.  1.
          2   -1    0    0  501    0  0.00000000000E+00 -0.00000000000E+00 -0.11124735824E+03  0.11124735824E+03  0.00000000000E+00 0.  1.
          2    1    1    2  502    0  0.89680889554E+01 -0.21891422338E+02 -0.10799777056E+03  0.11055848876E+03  0.00000000000E+00 0.  1.
         -2    1    1    2    0  502 -0.89680889554E+01  0.21891422338E+02  0.69081562126E+02  0.73020019291E+02  0.00000000000E+00 0.  1.
<mgrwt>
<rscale>  2 0.23657155E+02</rscale>
<asrwt>0</asrwt>
<pdfrwt beam="2">  1        2 0.17114978E-01 0.23657155E+02</pdfrwt>
<pdfrwt beam="1">  1       -2 0.11127869E-01 0.23657155E+02</pdfrwt>
<totfact> 0.13879632E+04</totfact>
</mgrwt>
</event>
<event>
 4    1  0.7653521E+003  0.3887720E+02  0.7546771E-02  0.1516640E+00
          2   -1    0    0  501    0  0.00000000000E+00  0.00000000000E+00  0.77300944751E+03  0.77300944751E+03  0.00000000000E+00 0. -1.
         -2   -1    0    0    0  501 -0.00000000000E+00 -0.00000000000E+00 -0.19597670067E+01  0.19597670067E+01  0.00000000000E+00 0.  1.
          2    1    1    2  502    0  0.30249698059E+02 -0.24421113698E+02  0.36694420662E+03  0.36899794823E+03  0.00000000000E+00 0. -1.
         -2    1    1    2    0  502 -0.30249698059E+02  0.24421113698E+02  0.40410547388E+03  0.40597126629E+03  0.00000000000E+00 0.  1.
<mgrwt>
<rscale>  2 0.38877198E+02</rscale>
<asrwt>0</asrwt>
<pdfrwt beam="1">  1        2 0.11892429E+00 0.38877198E+02</pdfrwt>
<pdfrwt beam="2">  1       -2 0.30150323E-03 0.38877198E+02</pdfrwt>
<totfact> 0.31884786E+05</totfact>
</mgrwt>
</event>
<event>
 4    1  0.7653521E+003  0.2537129E+02  0.7546771E-02  0.1655725E+00
         -2   -1    0    0    0  501 -0.00000000000E+00  0.00000000000E+00  0.24242557010E+01  0.24242557010E+01  0.00000000000E+00 0.  1.
          2   -1    0    0  501    0  0.00000000000E+00 -0.00000000000E+00 -0.31242808633E+03  0.31242808633E+03  0.00000000000E+00 0.  1.
          2    1    1    2  502    0  0.10838480760E+02 -0.22939698765E+02 -0.21599756838E+03  0.21748253261E+03  0.00000000000E+00 0.  1.
         -2    1    1    2    0  502 -0.10838480760E+02  0.22939698765E+02 -0.94006262257E+02  0.97369809429E+02  0.00000000000E+00 0.  1.
<mgrwt>
<rscale>  2 0.25371292E+02</rscale>
<asrwt>0</asrwt>
<pdfrwt beam="2">  1        2 0.48065837E-01 0.25371292E+02</pdfrwt>
<pdfrwt beam="1">  1       -2 0.37296259E-03 0.25371292E+02</pdfrwt>
<totfact> 0.55052820E+05</totfact>
</mgrwt>
</event>
<event>
 4    1  0.7653521E+003  0.2329578E+02  0.7546771E-02  0.1686760E+00
          2   -1    0    0  501    0  0.00000000000E+00  0.00000000000E+00  0.33337990583E+03  0.33337990583E+03  0.00000000000E+00 0.  1.
         -2   -1    0    0    0  501 -0.00000000000E+00 -0.00000000000E+00 -0.32209232984E+01  0.32209232984E+01  0.00000000000E+00 0. -1.
          2    1    1    2  502    0  0.29712313932E+01 -0.23105519913E+02  0.28344156128E+03  0.28439727834E+03  0.00000000000E+00 0.  1.
         -2    1    1    2    0  502 -0.29712313932E+01  0.23105519913E+02  0.46717421244E+02  0.52203550781E+02  0.00000000000E+00 0. -1.
<mgrwt>
<rscale>  2 0.23295778E+02</rscale>
<asrwt>0</asrwt>
<pdfrwt beam="1">  1        2 0.51289189E-01 0.23295778E+02</pdfrwt>
<pdfrwt beam="2">  1       -2 0.49552692E-03 0.23295778E+02</pdfrwt>
<totfact> 0.34430969E+05</totfact>
</mgrwt>
</event>
<event>
 4    1  0.7653521E+003  0.2618704E+02  0.7546771E-02  0.1644515E+00
         -2   -1    0    0    0  501 -0.00000000000E+00  0.00000000000E+00  0.32877852601E+03  0.32877852601E+03  0.00000000000E+00 0.  1.
          2   -1    0    0  501    0  0.00000000000E+00 -0.00000000000E+00 -0.20249351666E+02  0.20249351666E+02  0.00000000000E+00 0. -1.
          2    1    1    2  502    0 -0.25931646516E+02  0.36483935998E+01 -0.11017251191E+02  0.28410225108E+02  0.00000000000E+00 0. -1.
         -2    1    1    2    0  502  0.25931646516E+02 -0.36483935998E+01  0.31954642554E+03  0.32061765257E+03  0.00000000000E+00 0.  1.
<mgrwt>
<rscale>  2 0.26187040E+02</rscale>
<asrwt>0</asrwt>
<pdfrwt beam="2">  1        2 0.31152851E-02 0.26187040E+02</pdfrwt>
<pdfrwt beam="1">  1       -2 0.50581308E-01 0.26187040E+02</pdfrwt>
<totfact> 0.84288444E+03</totfact>
</mgrwt>
</event>
<event>
 4    1  0.7653521E+003  0.2042565E+02  0.7546771E-02  0.1736994E+00
          2   -1    0    0  501    0  0.00000000000E+00  0.00000000000E+00  0.10487770847E+04  0.10487770847E+04  0.00000000000E+00 0.  1.
         -2   -1    0    0    0  501 -0.00000000000E+00 -0.00000000000E+00 -0.65608785671E+00  0.65608785671E+00  0.00000000000E+00 0.  1.
          2    1    1    2  502    0 -0.59321903253E+00 -0.20417033771E+02  0.85328553831E+03  0.85352997432E+03  0.00000000000E+00 0.  1.
         -2    1    1    2    0  502  0.59321903253E+00  0.20417033771E+02  0.19483545855E+03  0.19590319825E+03  0.00000000000E+00 0.  1.
<mgrwt>
<rscale>  2 0.20425650E+02</rscale>
<asrwt>0</asrwt>
<pdfrwt beam="1">  1        2 0.16134898E+00 0.20425650E+02</pdfrwt>
<pdfrwt beam="2">  1       -2 0.10093743E-03 0.20425650E+02</pdfrwt>
<totfact> 0.80277936E+05</totfact>
</mgrwt>
</event>
<event>
 4    1  0.7653521E+003  0.2257755E+02  0.7546771E-02  0.1698451E+00
         -2   -1    0    0    0  501 -0.00000000000E+00  0.00000000000E+00  0.13442078066E+03  0.13442078066E+03  0.00000000000E+00 0. -1.
          2   -1    0    0  501    0  0.00000000000E+00 -0.00000000000E+00 -0.16066836481E+04  0.16066836481E+04  0.00000000000E+00 0.  1.
          2    1    1    2  502    0 -0.20925891690E+02 -0.84766049693E+01 -0.16056556835E+04  0.16058144101E+04  0.00000000000E+00 0.  1.
         -2    1    1    2    0  502  0.20925891690E+02  0.84766049693E+01  0.13339281605E+03  0.13529001866E+03  0.00000000000E+00 0. -1.
<mgrwt>
<rscale>  2 0.22577550E+02</rscale>
<asrwt>0</asrwt>
<pdfrwt beam="2">  1        2 0.24718210E+00 0.22577550E+02</pdfrwt>
<pdfrwt beam="1">  1       -2 0.20680120E-01 0.22577550E+02</pdfrwt>
<totfact> 0.26933455E+02</totfact>
</mgrwt>
</event>
<event>
 4    1  0.7653521E+003  0.2018093E+02  0.7546771E-02  0.1741754E+00
          2   -1    0    0  501    0  0.00000000000E+00  0.00000000000E+00  0.14210142777E+04  0.14210142777E+04  0.00000000000E+00 0. -1.
         -2   -1    0    0    0  501 -0.00000000000E+00 -0.00000000000E+00 -0.68765777481E+01  0.68765777481E+01  0.00000000000E+00 0.  1.
          2    1    1    2  502    0  0.90760306775E+01 -0.18024859986E+02  0.14059778685E+04  0.14061226962E+04  0.00000000000E+00 0. -1.
         -2    1    1    2    0  502 -0.90760306775E+01  0.18024859986E+02  0.81598314662E+01  0.21768159314E+02  0.00000000000E+00 0.  1.
<mgrwt>
<rscale>  2 0.20180929E+02</rscale>
<asrwt>0</asrwt>
<pdfrwt beam="1">  1        2 0.21861735E+00 0.20180929E+02</pdfrwt>
<pdfrwt beam="2">  1       -2 0.10579362E-02 0.20180929E+02</pdfrwt>
<totfact> 0.23227119E+04</totfact>
</mgrwt>
</event>
<event>
 4    1  0.7653521E+003  0.3597913E+02  0.7546771E-02  0.1540074E+00
         -2   -1    0    0    0  501 -0.00000000000E+00  0.00000000000E+00  0.67739519976E+01  0.67739519976E+01  0.00000000000E+00 0.  1.
          2   -1    0    0  501    0  0.00000000000E+00 -0.00000000000E+00 -0.20483122708E+03  0.20483122708E+03  0.00000000000E+00 0. -1.
          2    1    1    2  502    0  0.23375413382E+02  0.27351199178E+02 -0.12642309132E+03  0.13144312864E+03  0.00000000000E+00 0. -1.
         -2    1    1    2    0  502 -0.23375413382E+02 -0.27351199178E+02 -0.71634183759E+02  0.80162050436E+02  0.00000000000E+00 0.  1.
<mgrwt>
<rscale>  2 0.35979133E+02</rscale>
<asrwt>0</asrwt>
<pdfrwt beam="2">  1        2 0.31512495E-01 0.35979133E+02</pdfrwt>
<pdfrwt beam="1">  1       -2 0.10421465E-02 0.35979133E+02</pdfrwt>
<totfact> 0.22879719E+05</totfact>
</mgrwt>
</event>
<event>
 4    1  0.7653521E+003  0.3416641E+02  0.7546771E-02  0.1556130E+00
         -2   -1    0    0    0  501 -0.00000000000E+00  0.00000000000E+00  0.11414502844E+03  0.11414502844E+03  0.00000000000E+00 0.  1.
          2   -1    0    0  501    0  0.00000000000E+00 -0.00000000000E+00 -0.10717242638E+02  0.10717242638E+02  0.00000000000E+00 0. -1.
          2    1    1    2  502    0  0.21834804927E+02  0.26278980918E+02  0.38359204239E+02  0.51368979882E+02  0.00000000000E+00 0. -1.
         -2    1    1    2    0  502 -0.21834804927E+02 -0.26278980918E+02  0.65068581562E+02  0.73493291195E+02  0.00000000000E+00 0.  1.
<mgrwt>
<rscale>  2 0.34166410E+02</rscale>
<asrwt>0</asrwt>
<pdfrwt beam="2">  1        2 0.16488066E-02 0.34166410E+02</pdfrwt>
<pdfrwt beam="1">  1       -2 0.17560773E-01 0.34166410E+02</pdfrwt>
<totfact> 0.12721777E+05</totfact>
</mgrwt>
</event>
<event>
 4    1  0.7653521E+003  0.2401723E+02  0.7546771E-02  0.1675533E+00
         -2   -1    0    0    0  501 -0.00000000000E+00  0.00000000000E+00  0.83715955694E+01  0.83715955694E+01  0.00000000000E+00 0.  1.
          2   -1    0    0  501    0  0.00000000000E+00 -0.00000000000E+00 -0.12856009269E+03  0.12856009269E+03  0.00000000000E+00 0. -1.
          2    1    1    2  502    0  0.23221725660E+02 -0.61301737086E+01 -0.10673355983E+03  0.10940237825E+03  0.00000000000E+00 0. -1.
         -2    1    1    2    0  502 -0.23221725660E+02  0.61301737086E+01 -0.13454937295E+02  0.27529310016E+02  0.00000000000E+00 0.  1.
<mgrwt>
<rscale>  2 0.24017235E+02</rscale>
<asrwt>0</asrwt>
<pdfrwt beam="2">  1        2 0.19778475E-01 0.24017235E+02</pdfrwt>
<pdfrwt beam="1">  1       -2 0.12879378E-02 0.24017235E+02</pdfrwt>
<totfact> 0.25128964E+05</totfact>
</mgrwt>
</event>
<event>
 4    1  0.7653521E+003  0.2054367E+02  0.7546771E-02  0.1734728E+00
          2   -1    0    0  501    0  0.00000000000E+00  0.00000000000E+00  0.13335992750E+04  0.13335992750E+04  0.00000000000E+00 0. -1.
         -2   -1    0    0    0  501 -0.00000000000E+00 -0.00000000000E+00 -0.41239360436E+02  0.41239360436E+02  0.00000000000E+00 0.  1.
          2    1    1    2  502    0 -0.74689729386E+01  0.19137841334E+02  0.13309565846E+04  0.13311151238E+04  0.00000000000E+00 0. -1.
         -2    1    1    2    0  502  0.74689729386E+01 -0.19137841334E+02 -0.38596670100E+02  0.43723511644E+02  0.00000000000E+00 0.  1.
<mgrwt>
<rscale>  2 0.20543674E+02</rscale>
<asrwt>0</asrwt>
<pdfrwt beam="1">  1        2 0.20516909E+00 0.20543674E+02</pdfrwt>
<pdfrwt beam="2">  1       -2 0.63445180E-02 0.20543674E+02</pdfrwt>
<totfact> 0.21604544E+03</totfact>
</mgrwt>
</event>
<event>
 4    1  0.7653521E+003  0.2522790E+02  0.7546771E-02  0.1657750E+00
          2   -1    0    0  501    0  0.00000000000E+00  0.00000000000E+00  0.27451460354E+03  0.27451460354E+03  0.00000000000E+00 0. -1.
         -2   -1    0    0    0  501 -0.00000000000E+00 -0.00000000000E+00 -0.61735285592E+01  0.61735285592E+01  0.00000000000E+00 0.  1.
          2    1    1    2  502    0  0.79886826879E+01  0.23929647686E+02  0.24507377021E+03  0.24636882907E+03  0.00000000000E+00 0. -1.
         -2    1    1    2    0  502 -0.79886826879E+01 -0.23929647686E+02  0.23267304767E+02  0.34319303032E+02  0.00000000000E+00 0.  1.
<mgrwt>
<rscale>  2 0.25227903E+02</rscale>
<asrwt>0</asrwt>
<pdfrwt beam="1">  1        2 0.42233006E-01 0.25227903E+02</pdfrwt>
<pdfrwt beam="2">  1       -2 0.94977384E-03 0.25227903E+02</pdfrwt>
<totfact> 0.17730454E+05</totfact>
</mgrwt>
</event>
<event>
 4    1  0.7653521E+003  0.2434944E+02  0.7546771E-02  0.1670526E+00
          2   -1    0    0  501    0  0.00000000000E+00  0.00000000000E+00  0.21945721147E+03  0.21945721147E+03  0.00000000000E+00 0.  1.
         -2   -1    0    0    0  501 -0.00000000000E+00 -0.00000000000E+00 -0.17729938559E+03  0.17729938559E+03  0.00000000000E+00 0. -1.
          2    1    1    2  502    0  0.31589789207E+01 -0.24143650138E+02  0.21793999059E+03  0.21929599743E+03  0.00000000000E+00 0.  1.
         -2    1    1    2    0  502 -0.31589789207E+01  0.24143650138E+02 -0.17578216471E+03  0.17746059963E+03  0.00000000000E+00 0. -1.
<mgrwt>
<rscale>  2 0.24349435E+02</rscale>
<asrwt>0</asrwt>
<pdfrwt beam="1">  1        2 0.33762648E-01 0.24349435E+02</pdfrwt>
<pdfrwt beam="2">  1       -2 0.27276828E-01 0.24349435E+02</pdfrwt>
<totfact> 0.16544488E+03</totfact>
</mgrwt>
</event>
<event>
 4    1  0.7653521E+003  0.6335733E+02  0.7546771E-02  0.1384259E+00
         -2   -1    0    0    0  501 -0.00000000000E+00  0.00000000000E+00  0.22637157234E+01  0.22637157234E+01  0.00000000000E+00 0.  1.
          2   -1    0    0  501    0  0.00000000000E+00 -0.00000000000E+00 -0.18446564432E+04  0.18446564432E+04  0.00000000000E+00 0.  1.
          2    1    1    2  502    0  0.62293539989E+02  0.11561401371E+02 -0.11028758723E+04  0.11046942295E+04  0.00000000000E+00 0.  1.
         -2    1    1    2    0  502 -0.62293539989E+02 -0.11561401371E+02 -0.73951685517E+03  0.74222592935E+03  0.00000000000E+00 0.  1.
<mgrwt>
<rscale>  2 0.63357329E+02</rscale>
<asrwt>0</asrwt>
<pdfrwt beam="2">  1        2 0.28379273E+00 0.63357329E+02</pdfrwt>
<pdfrwt beam="1">  1       -2 0.34826466E-03 0.63357329E+02</pdfrwt>
<totfact> 0.76801390E+04</totfact>
</mgrwt>
</event>
<event>
 4    1  0.7653521E+003  0.2876291E+03  0.7546771E-02  0.1091594E+00
          2   -1    0    0  501    0  0.00000000000E+00  0.00000000000E+00  0.16336201158E+03  0.16336201158E+03  0.00000000000E+00 0. -1.
         -2   -1    0    0    0  501 -0.00000000000E+00 -0.00000000000E+00 -0.74600390432E+03  0.74600390432E+03  0.00000000000E+00 0.  1.
          2    1    1    2  502    0  0.27544659831E+03 -0.82823113685E+02 -0.33651440780E+02  0.28959094624E+03  0.00000000000E+00 0. -1.
         -2    1    1    2    0  502 -0.27544659831E+03  0.82823113685E+02 -0.54899045196E+03  0.61977496966E+03  0.00000000000E+00 0.  1.
<mgrwt>
<rscale>  2 0.28762910E+03</rscale>
<asrwt>0</asrwt>
<pdfrwt beam="1">  1        2 0.25132617E-01 0.28762910E+03</pdfrwt>
<pdfrwt beam="2">  1       -2 0.11476983E+00 0.28762910E+03</pdfrwt>
<totfact> 0.13286309E+02</totfact>
</mgrwt>
</event>
<event>
 4    1  0.7653521E+003  0.2422343E+02  0.7546771E-02  0.1672413E+00
          2   -1    0    0  501    0  0.00000000000E+00  0.00000000000E+00  0.33624774167E+03  0.33624774167E+03  0.00000000000E+00 0.  1.
         -2   -1    0    0    0  501 -0.00000000000E+00 -0.00000000000E+00 -0.41911848072E+02  0.41911848072E+02  0.00000000000E+00 0. -1.
          2    1    1    2  502    0  0.23865537778E+02  0.41485726099E+01  0.33226957381E+03  0.33315138335E+03  0.00000000000E+00 0.  1.
         -2    1    1    2    0  502 -0.23865537778E+02 -0.41485726099E+01 -0.37933680212E+02  0.45008206391E+02  0.00000000000E+00 0. -1.
<mgrwt>
<rscale>  2 0.24223430E+02</rscale>
<asrwt>0</asrwt>
<pdfrwt beam="1">  1        2 0.51730420E-01 0.24223430E+02</pdfrwt>
<pdfrwt beam="2">  1       -2 0.64479768E-02 0.24223430E+02</pdfrwt>
<totfact> 0.10055404E+04</totfact>
</mgrwt>
</event>
<event>
 4    1  0.7653521E+003  0.2038663E+02  0.7546771E-02  0.1737747E+00
          2   -1    0    0  501    0  0.00000000000E+00  0.00000000000E+00  0.14459464802E+04  0.14459464802E+04  0.00000000000E+00 0. -1.
         -2   -1    0    0    0  501 -0.00000000000E+00 -0.00000000000E+00 -0.71773849955E+02  0.71773849955E+02  0.00000000000E+00 0.  1.
          2    1    1    2  502    0  0.20125234790E+02  0.32541903046E+01  0.14444254432E+04  0.14445693046E+04  0.00000000000E+00 0. -1.
         -2    1    1    2    0  502 -0.20125234790E+02 -0.32541903046E+01 -0.70252812891E+02  0.73151025618E+02  0.00000000000E+00 0.  1.
<mgrwt>
<rscale>  2 0.20386634E+02</rscale>
<asrwt>0</asrwt>
<pdfrwt beam="1">  1        2 0.22245328E+00 0.20386634E+02</pdfrwt>
<pdfrwt beam="2">  1       -2 0.11042132E-01 0.20386634E+02</pdfrwt>
<totfact> 0.84923818E+02</totfact>
</mgrwt>
</event>
<event>
 4    1  0.7653521E+003  0.2211754E+02  0.7546771E-02  0.1706227E+00
          2   -1    0    0  501    0  0.00000000000E+00  0.00000000000E+00  0.69225528731E+03  0.69225528731E+03  0.00000000000E+00 0.  1.
         -2   -1    0    0    0  501 -0.00000000000E+00 -0.00000000000E+00 -0.15698095658E+03  0.15698095658E+03  0.00000000000E+00 0. -1.
          2    1    1    2  502    0  0.18212736731E+02  0.12549181018E+02  0.69129849291E+03  0.69165221898E+03  0.00000000000E+00 0.  1.
         -2    1    1    2    0  502 -0.18212736731E+02 -0.12549181018E+02 -0.15602416218E+03  0.15758402491E+03  0.00000000000E+00 0. -1.
<mgrwt>
<rscale>  2 0.22117543E+02</rscale>
<asrwt>0</asrwt>
<pdfrwt beam="1">  1        2 0.10650081E+00 0.22117543E+02</pdfrwt>
<pdfrwt beam="2">  1       -2 0.24150917E-01 0.22117543E+02</pdfrwt>
<totfact> 0.63505262E+02</totfact>
</mgrwt>
</event>
<event>
 4    1  0.7653521E+003  0.3962458E+02  0.7546771E-02  0.1510992E+00
          2   -1    0    0  501    0  0.00000000000E+00  0.00000000000E+00  0.29310764087E+02  0.29310764087E+02  0.00000000000E+00 0.  1.
         -2   -1    0    0    0  501 -0.00000000000E+00 -0.00000000000E+00 -0.78284702966E+02  0.78284702966E+02  0.00000000000E+00 0.  1.
          2    1    1    2  502    0  0.36831572774E+02 -0.14613108496E+02  0.57420588404E+01  0.40038468160E+02  0.00000000000E+00 0.  1.
         -2    1    1    2    0  502 -0.36831572774E+02  0.14613108496E+02 -0.54715997719E+02  0.67556998892E+02  0.00000000000E+00 0.  1.
<mgrwt>
<rscale>  2 0.39624584E+02</rscale>
<asrwt>0</asrwt>
<pdfrwt beam="1">  1        2 0.45093484E-02 0.39624584E+02</pdfrwt>
<pdfrwt beam="2">  1       -2 0.12043800E-01 0.39624584E+02</pdfrwt>
<totfact> 0.64969881E+04</totfact>
</mgrwt>
</event>
<event>
 4    1  0.7653521E+003  0.3390880E+02  0.7546771E-02  0.1558510E+00
          2   -1    0    0  501    0  0.00000000000E+00  0.00000000000E+00  0.70494723242E+03  0.70494723242E+03  0.00000000000E+00 0.  1.
         -2   -1    0    0    0  501 -0.00000000000E+00 -0.00000000000E+00 -0.17647118915E+01  0.17647118915E+01  0.00000000000E+00 0.  1.
          2    1    1    2  502    0 -0.31333197858E+02 -0.12962914207E+02  0.44883779780E+03  0.45011684613E+03  0.00000000000E+00 0.  1.
         -2    1    1    2    0  502  0.31333197858E+02  0.12962914207E+02  0.25434472273E+03  0.25659509818E+03  0.00000000000E+00 0.  1.
<mgrwt>
<rscale>  2 0.33908796E+02</rscale>
<asrwt>0</asrwt>
<pdfrwt beam="1">  1        2 0.10845320E+00 0.33908796E+02</pdfrwt>
<pdfrwt beam="2">  1       -2 0.27149470E-03 0.33908796E+02</pdfrwt>
<totfact> 0.39523283E+05</totfact>
</mgrwt>
</event>
<event>
 4    1  0.7653521E+003  0.4112270E+02  0.7546771E-02  0.1500108E+00
          2   -1    0    0  501    0  0.00000000000E+00  0.00000000000E+00  0.15926915869E+03  0.15926915869E+03  0.00000000000E+00 0. -1.
         -2   -1    0    0    0  501 -0.00000000000E+00 -0.00000000000E+00 -0.22160632445E+02  0.22160632445E+02  0.00000000000E+00 0. -1.
          2    1    1    2  502    0  0.39535202471E+02  0.11315674859E+02  0.13402467377E+03  0.14019161855E+03  0.00000000000E+00 0. -1.
         -2    1    1    2    0  502 -0.39535202471E+02 -0.11315674859E+02  0.30838524707E+01  0.41238172583E+02  0.00000000000E+00 0. -1.
<mgrwt>
<rscale>  2 0.41122703E+02</rscale>
<asrwt>0</asrwt>
<pdfrwt beam="1">  1        2 0.24502947E-01 0.41122703E+02</pdfrwt>
<pdfrwt beam="2">  1       -2 0.34093282E-02 0.41122703E+02</pdfrwt>
<totfact> 0.58340318E+04</totfact>
</mgrwt>
</event>
<event>
 4    1  0.7653521E+003  0.2216648E+02  0.7546771E-02  0.1705389E+00
          2   -1    0    0  501    0  0.00000000000E+00  0.00000000000E+00  0.55668290537E+03  0.55668290537E+03  0.00000000000E+00 0. -1.
         -2   -1    0    0    0  501 -0.00000000000E+00 -0.00000000000E+00 -0.88279963674E+00  0.88279963674E+00  0.00000000000E+00 0. -1.
          2    1    1    2  502    0  0.18564108201E+02  0.12113056427E+02  0.27418613371E+03  0.27508069392E+03  0.00000000000E+00 0. -1.
         -2    1    1    2    0  502 -0.18564108201E+02 -0.12113056427E+02  0.28161397202E+03  0.28248501109E+03  0.00000000000E+00 0. -1.
<mgrwt>
<rscale>  2 0.22166478E+02</rscale>
<asrwt>0</asrwt>
<pdfrwt beam="1">  1        2 0.85643244E-01 0.22166478E+02</pdfrwt>
<pdfrwt beam="2">  1       -2 0.13581577E-03 0.22166478E+02</pdfrwt>
<totfact> 0.11352357E+06</totfact>
</mgrwt>
</event>
<event>
 4    1  0.7653521E+003  0.2753670E+02  0.7546771E-02  0.1627030E+00
          2   -1    0    0  501    0  0.00000000000E+00  0.00000000000E+00  0.49273711381E+03  0.49273711381E+03  0.00000000000E+00 0. -1.
         -2   -1    0    0    0  501 -0.00000000000E+00 -0.00000000000E+00 -0.87958067826E+01  0.87958067826E+01  0.00000000000E+00 0.  1.
          2    1    1    2  502    0  0.16262071189E+02 -0.22221947970E+02  0.46974645146E+03  0.47055286482E+03  0.00000000000E+00 0. -1.
         -2    1    1    2    0  502 -0.16262071189E+02  0.22221947970E+02  0.14194855563E+02  0.30980055768E+02  0.00000000000E+00 0.  1.
<mgrwt>
<rscale>  2 0.27536702E+02</rscale>
<asrwt>0</asrwt>
<pdfrwt beam="1">  1        2 0.75805688E-01 0.27536702E+02</pdfrwt>
<pdfrwt beam="2">  1       -2 0.13532014E-02 0.27536702E+02</pdfrwt>
<totfact> 0.62305153E+04</totfact>
</mgrwt>
</event>
<event>
 4    1  0.7653521E+003  0.2109897E+02  0.7546771E-02  0.1724317E+00
         -2   -1    0    0    0  501 -0.00000000000E+00  0.00000000000E+00  0.30816744323E+01  0.30816744323E+01  0.00000000000E+00 0. -1.
          2   -1    0    0  501    0  0.00000000000E+00 -0.00000000000E+00 -0.50132693213E+03  0.50132693213E+03  0.00000000000E+00 0.  1.
          2    1    1    2  502    0 -0.30808896043E+01  0.20872818167E+02 -0.46191083368E+03  0.46239245743E+03  0.00000000000E+00 0.  1.
         -2    1    1    2    0  502  0.30808896043E+01 -0.20872818167E+02 -0.36334424013E+02  0.42016149126E+02  0.00000000000E+00 0. -1.
<mgrwt>
<rscale>  2 0.21098967E+02</rscale>
<asrwt>0</asrwt>
<pdfrwt beam="2">  1        2 0.77127269E-01 0.21098967E+02</pdfrwt>
<pdfrwt beam="1">  1       -2 0.47410346E-03 0.21098967E+02</pdfrwt>
<totfact> 0.23724269E+05</totfact>
</mgrwt>
</event>
<event>
 4    1  0.7653521E+003  0.4144521E+02  0.7546771E-02  0.1497838E+00
          2   -1    0    0  501    0  0.00000000000E+00  0.00000000000E+00  0.13439726063E+03  0.13439726063E+03  0.00000000000E+00 0. -1.
         -2   -1    0    0    0  501 -0.00000000000E+00 -0.00000000000E+00 -0.34208284073E+02  0.34208284073E+02  0.00000000000E+00 0.  1.
          2    1    1    2  502    0 -0.15518674413E+02  0.38430143589E+02  0.11681536600E+03  0.12394972741E+03  0.00000000000E+00 0. -1.
         -2    1    1    2    0  502  0.15518674413E+02 -0.38430143589E+02 -0.16626389444E+02  0.44655817289E+02  0.00000000000E+00 0.  1.
<mgrwt>
<rscale>  2 0.41445207E+02</rscale>
<asrwt>0</asrwt>
<pdfrwt beam="1">  1        2 0.20676501E-01 0.41445207E+02</pdfrwt>
<pdfrwt beam="2">  1       -2 0.52628130E-02 0.41445207E+02</pdfrwt>
<totfact> 0.37510672E+04</totfact>
</mgrwt>
</event>
<event>
 4    1  0.7653521E+003  0.2598135E+02  0.7546771E-02  0.1647294E+00
          2   -1    0    0  501    0  0.00000000000E+00  0.00000000000E+00  0.16749879295E+04  0.16749879295E+04  0.00000000000E+00 0. -1.
         -2   -1    0    0    0  501 -0.00000000000E+00 -0.00000000000E+00 -0.13618425191E+01  0.13618425191E+01  0.00000000000E+00 0.  1.
          2    1    1    2  502    0  0.70156444226E+01 -0.25016224979E+02  0.15401175535E+04  0.15403366870E+04  0.00000000000E+00 0. -1.
         -2    1    1    2    0  502 -0.70156444226E+01  0.25016224979E+02  0.13350853348E+03  0.13601308500E+03  0.00000000000E+00 0.  1.
<mgrwt>
<rscale>  2 0.25981354E+02</rscale>
<asrwt>0</asrwt>
<pdfrwt beam="1">  1        2 0.25768880E+00 0.25981354E+02</pdfrwt>
<pdfrwt beam="2">  1       -2 0.20951557E-03 0.25981354E+02</pdfrwt>
<totfact> 0.16104742E+05</totfact>
</mgrwt>
</event>
<event>
 4    1  0.7653521E+003  0.2196142E+02  0.7546771E-02  0.1708920E+00
         -2   -1    0    0    0  501 -0.00000000000E+00  0.00000000000E+00  0.57550323252E+00  0.57550323252E+00  0.00000000000E+00 0.  1.
          2   -1    0    0  501    0  0.00000000000E+00 -0.00000000000E+00 -0.13510174506E+04  0.13510174506E+04  0.00000000000E+00 0.  1.
          2    1    1    2  502    0 -0.13876326565E+02  0.17022087283E+02 -0.10916373875E+04  0.10918582737E+04  0.00000000000E+00 0.  1.
         -2    1    1    2    0  502  0.13876326565E+02 -0.17022087283E+02 -0.25880455979E+03  0.25973468013E+03  0.00000000000E+00 0.  1.
<mgrwt>
<rscale>  2 0.21961418E+02</rscale>
<asrwt>0</asrwt>
<pdfrwt beam="2">  1        2 0.20784987E+00 0.21961418E+02</pdfrwt>
<pdfrwt beam="1">  1       -2 0.88538519E-04 0.21961418E+02</pdfrwt>
<totfact> 0.68758042E+05</totfact>
</mgrwt>
</event>
<event>
 4    1  0.7653521E+003  0.2160598E+02  0.7546771E-02  0.1715157E+00
         -2   -1    0    0    0  501 -0.00000000000E+00  0.00000000000E+00  0.13305677956E+03  0.13305677956E+03  0.00000000000E+00 0. -1.
          2   -1    0    0  501    0  0.00000000000E+00 -0.00000000000E+00 -0.15680612289E+04  0.15680612289E+04  0.00000000000E+00 0.  1.
          2    1    1    2  502    0  0.39548253373E+01  0.21240943952E+02 -0.15671091664E+04  0.15672581018E+04  0.00000000000E+00 0.  1.
         -2    1    1    2    0  502 -0.39548253373E+01 -0.21240943952E+02  0.13210471704E+03  0.13385990664E+03  0.00000000000E+00 0. -1.
<mgrwt>
<rscale>  2 0.21605979E+02</rscale>
<asrwt>0</asrwt>
<pdfrwt beam="2">  1        2 0.24124020E+00 0.21605979E+02</pdfrwt>
<pdfrwt beam="1">  1       -2 0.20470273E-01 0.21605979E+02</pdfrwt>
<totfact> 0.28583840E+02</totfact>
</mgrwt>
</event>
<event>
 4    1  0.7653521E+003  0.4991952E+02  0.7546771E-02  0.1445776E+00
          2   -1    0    0  501    0  0.00000000000E+00  0.00000000000E+00  0.68211850492E+03  0.68211850492E+03  0.00000000000E+00 0. -1.
         -2   -1    0    0    0  501 -0.00000000000E+00 -0.00000000000E+00 -0.26910361162E+03  0.26910361162E+03  0.00000000000E+00 0.  1.
          2    1    1    2  502    0 -0.33624860124E+02 -0.36896167877E+02  0.67887910249E+03  0.68071197597E+03  0.00000000000E+00 0. -1.
         -2    1    1    2    0  502  0.33624860124E+02  0.36896167877E+02 -0.26586420920E+03  0.27051014058E+03  0.00000000000E+00 0.  1.
<mgrwt>
<rscale>  2 0.49919519E+02</rscale>
<asrwt>0</asrwt>
<pdfrwt beam="1">  1        2 0.10494131E+00 0.49919519E+02</pdfrwt>
<pdfrwt beam="2">  1       -2 0.41400556E-01 0.49919519E+02</pdfrwt>
<totfact> 0.25235204E+02</totfact>
</mgrwt>
</event>
<event>
 4    1  0.7653521E+003  0.3106885E+02  0.7546771E-02  0.1586566E+00
          2   -1    0    0  501    0  0.00000000000E+00  0.00000000000E+00  0.32157867319E+02  0.32157867319E+02  0.00000000000E+00 0.  1.
         -2   -1    0    0    0  501 -0.00000000000E+00 -0.00000000000E+00 -0.11215918792E+03  0.11215918792E+03  0.00000000000E+00 0. -1.
          2    1    1    2  502    0  0.90529017544E+01  0.29720671714E+02  0.21751781688E+02  0.37926420394E+02  0.00000000000E+00 0.  1.
         -2    1    1    2    0  502 -0.90529017544E+01 -0.29720671714E+02 -0.10175310229E+03  0.10639063485E+03  0.00000000000E+00 0. -1.
<mgrwt>
<rscale>  2 0.31068849E+02</rscale>
<asrwt>0</asrwt>
<pdfrwt beam="1">  1        2 0.49473643E-02 0.31068849E+02</pdfrwt>
<pdfrwt beam="2">  1       -2 0.17255260E-01 0.31068849E+02</pdfrwt>
<totfact> 0.31404856E+04</totfact>
</mgrwt>
</event>
<event>
 4    1  0.7653521E+003  0.2431425E+02  0.7546771E-02  0.1671051E+00
         -2   -1    0    0    0  501 -0.00000000000E+00  0.00000000000E+00  0.15844803692E+03  0.15844803692E+03  0.00000000000E+00 0.  1.
          2   -1    0    0  501    0  0.00000000000E+00 -0.00000000000E+00 -0.43624572319E+01  0.43624572319E+01  0.00000000000E+00 0.  1.
          2    1    1    2  502    0 -0.73794886247E+01 -0.23167345903E+02  0.46073570899E+02  0.52095649568E+02  0.00000000000E+00 0.  1.
         -2    1    1    2    0  502  0.73794886247E+01  0.23167345903E+02  0.10801200879E+03  0.11071484459E+03  0.00000000000E+00 0.  1.
<mgrwt>
<rscale>  2 0.24314250E+02</rscale>
<asrwt>0</asrwt>
<pdfrwt beam="2">  1        2 0.67114739E-03 0.24314250E+02</pdfrwt>
<pdfrwt beam="1">  1       -2 0.24376617E-01 0.24314250E+02</pdfrwt>
<totfact> 0.22128987E+05</totfact>
</mgrwt>
</event>
<event>
 4    1  0.7653521E+003  0.3942924E+02  0.7546771E-02  0.1512454E+00
         -2   -1    0    0    0  501 -0.00000000000E+00  0.00000000000E+00  0.29654326182E+01  0.29654326182E+01  0.00000000000E+00 0. -1.
          2   -1    0    0  501    0  0.00000000000E+00 -0.00000000000E+00 -0.56372108937E+03  0.56372108937E+03  0.00000000000E+00 0. -1.
          2    1    1    2  502    0  0.38479393670E+02 -0.86024102516E+01 -0.35534159040E+03  0.35752246233E+03  0.00000000000E+00 0. -1.
         -2    1    1    2    0  502 -0.38479393670E+02  0.86024102516E+01 -0.20541406635E+03  0.20916405966E+03  0.00000000000E+00 0. -1.
<mgrwt>
<rscale>  2 0.39429243E+02</rscale>
<asrwt>0</asrwt>
<pdfrwt beam="2">  1        2 0.86726223E-01 0.39429243E+02</pdfrwt>
<pdfrwt beam="1">  1       -2 0.45622092E-03 0.39429243E+02</pdfrwt>
<totfact> 0.25783576E+05</totfact>
</mgrwt>
</event>
<event>
 4    1  0.7653521E+003  0.2076535E+02  0.7546771E-02  0.1730523E+00
          2   -1    0    0  501    0  0.00000000000E+00  0.00000000000E+00  0.97105467941E+00  0.97105467941E+00  0.00000000000E+00 0.  1.
         -2   -1    0    0    0  501 -0.00000000000E+00 -0.00000000000E+00 -0.85320194007E+03  0.85320194007E+03  0.00000000000E+00 0.  1.
          2    1    1    2  502    0 -0.12984727747E+01 -0.20724715204E+02 -0.13036147473E+03  0.13200497697E+03  0.00000000000E+00 0.  1.
         -2    1    1    2    0  502  0.12984727747E+01  0.20724715204E+02 -0.72186941066E+03  0.72216801777E+03  0.00000000000E+00 0.  1.
<mgrwt>
<rscale>  2 0.20765352E+02</rscale>
<asrwt>0</asrwt>
<pdfrwt beam="1">  1        2 0.14939273E-03 0.20765352E+02</pdfrwt>
<pdfrwt beam="2">  1       -2 0.13126210E+00 0.20765352E+02</pdfrwt>
<totfact> 0.54947275E+04</totfact>
</mgrwt>
</event>
<event>
 4    1  0.7653521E+003  0.2255093E+02  0.7546771E-02  0.1698895E+00
          2   -1    0    0  501    0  0.00000000000E+00  0.00000000000E+00  0.53203909435E+03  0.53203909435E+03  0.00000000000E+00 0. -1.
         -2   -1    0    0    0  501 -0.00000000000E+00 -0.00000000000E+00 -0.70295946553E+01  0.70295946553E+01  0.00000000000E+00 0.  1.
          2    1    1    2  502    0  0.26846180885E+01 -0.22390557975E+02  0.51304504896E+03  0.51354042346E+03  0.00000000000E+00 0. -1.
         -2    1    1    2    0  502 -0.26846180885E+01  0.22390557975E+02  0.11964450740E+02  0.25528265554E+02  0.00000000000E+00 0.  1.
<mgrwt>
<rscale>  2 0.22550926E+02</rscale>
<asrwt>0</asrwt>
<pdfrwt beam="1">  1        2 0.81852137E-01 0.22550926E+02</pdfrwt>
<pdfrwt beam="2">  1       -2 0.10814765E-02 0.22550926E+02</pdfrwt>
<totfact> 0.75010396E+04</totfact>
</mgrwt>
</event>
<event>
 4    1  0.7653521E+003  0.2876906E+02  0.7546771E-02  0.1612108E+00
         -2   -1    0    0    0  501 -0.00000000000E+00  0.00000000000E+00  0.77048926791E+01  0.77048926791E+01  0.00000000000E+00 0.  1.
          2   -1    0    0  501    0  0.00000000000E+00 -0.00000000000E+00 -0.10744514516E+03  0.10744514516E+03  0.00000000000E+00 0.  1.
          2    1    1    2  502    0 -0.21951004300E+02 -0.18596004783E+02 -0.48985743250E+02  0.56808987189E+02  0.00000000000E+00 0.  1.
         -2    1    1    2    0  502  0.21951004300E+02  0.18596004783E+02 -0.50754509229E+02  0.58341050648E+02  0.00000000000E+00 0.  1.
<mgrwt>
<rscale>  2 0.28769060E+02</rscale>
<asrwt>0</asrwt>
<pdfrwt beam="2">  1        2 0.16530021E-01 0.28769060E+02</pdfrwt>
<pdfrwt beam="1">  1       -2 0.11853682E-02 0.28769060E+02</pdfrwt>
<totfact> 0.35886620E+05</totfact>
</mgrwt>
</event>
<event>
 4    1  0.7653521E+003  0.2023239E+02  0.7546771E-02  0.1740746E+00
          2   -1    0    0  501    0  0.00000000000E+00  0.00000000000E+00  0.11207229508E+03  0.11207229508E+03  0.00000000000E+00 0.  1.
         -2   -1    0    0    0  501 -0.00000000000E+00 -0.00000000000E+00 -0.81951868841E+02  0.81951868841E+02  0.00000000000E+00 0. -1.
          2    1    1    2  502    0  0.10655850776E+02  0.17198909017E+02  0.10988576675E+03  0.11173285713E+03  0.00000000000E+00 0.  1.
         -2    1    1    2    0  502 -0.10655850776E+02 -0.17198909017E+02 -0.79765340512E+02  0.82291306796E+02  0.00000000000E+00 0. -1.
<mgrwt>
<rscale>  2 0.20232391E+02</rscale>
<asrwt>0</asrwt>
<pdfrwt beam="1">  1        2 0.17241892E-01 0.20232391E+02</pdfrwt>
<pdfrwt beam="2">  1       -2 0.12607980E-01 0.20232391E+02</pdfrwt>
<totfact> 0.11108660E+04</totfact>
</mgrwt>
</event>
<event>
 4    1  0.7653521E+003  0.2477776E+02  0.7546771E-02  0.1664215E+00
         -2   -1    0    0    0  501 -0.00000000000E+00  0.00000000000E+00  0.26848439748E+03  0.26848439748E+03  0.00000000000E+00 0.  1.
          2   -1    0    0  501    0  0.00000000000E+00 -0.00000000000E+00 -0.29384384467E+01  0.29384384467E+01  0.00000000000E+00 0.  1.
          2    1    1    2  502    0  0.22071966690E+02  0.11259036867E+02  0.68858130463E+02  0.73180460203E+02  0.00000000000E+00 0.  1.
         -2    1    1    2    0  502 -0.22071966690E+02 -0.11259036867E+02  0.19668782857E+03  0.19824237573E+03  0.00000000000E+00 0.  1.
<mgrwt>
<rscale>  2 0.24777765E+02</rscale>
<asrwt>0</asrwt>
<pdfrwt beam="2">  1        2 0.45206766E-03 0.24777765E+02</pdfrwt>
<pdfrwt beam="1">  1       -2 0.41305273E-01 0.24777765E+02</pdfrwt>
<totfact> 0.14943697E+05</totfact>
</mgrwt>
</event>
<event>
 4    1  0.7653521E+003  0.2094235E+02  0.7546771E-02  0.1727213E+00
          2   -1    0    0  501    0  0.00000000000E+00  0.00000000000E+00  0.78211319995E+03  0.78211319995E+03  0.00000000000E+00 0.  1.
         -2   -1    0    0    0  501 -0.00000000000E+00 -0.00000000000E+00 -0.19692714781E+02  0.19692714781E+02  0.00000000000E+00 0. -1.
          2    1    1    2  502    0  0.12911228764E+01 -0.20902512230E+02  0.77636396387E+03  0.77664637153E+03  0.00000000000E+00 0.  1.
         -2    1    1    2    0  502 -0.12911228764E+01  0.20902512230E+02 -0.13943478701E+02  0.25159543201E+02  0.00000000000E+00 0. -1.
<mgrwt>
<rscale>  2 0.20942350E+02</rscale>
<asrwt>0</asrwt>
<pdfrwt beam="1">  1        2 0.12032508E+00 0.20942350E+02</pdfrwt>
<pdfrwt beam="2">  1       -2 0.30296490E-02 0.20942350E+02</pdfrwt>
<totfact> 0.12038378E+04</totfact>
</mgrwt>
</event>
<event>
 4    1  0.7653521E+003  0.2671686E+02  0.7546771E-02  0.1637500E+00
          2   -1    0    0  501    0  0.00000000000E+00  0.00000000000E+00  0.24121330074E+03  0.24121330074E+03  0.00000000000E+00 0. -1.
         -2   -1    0    0    0  501 -0.00000000000E+00 -0.00000000000E+00 -0.31776773214E+01  0.31776773214E+01  0.00000000000E+00 0.  1.
          2    1    1    2  502    0  0.72836075165E+01  0.25704858911E+02  0.15106095705E+03  0.15340535667E+03  0.00000000000E+00 0. -1.
         -2    1    1    2    0  502 -0.72836075165E+01 -0.25704858911E+02  0.86974666367E+02  0.90985621390E+02  0.00000000000E+00 0.  1.
<mgrwt>
<rscale>  2 0.26716862E+02</rscale>
<asrwt>0</asrwt>
<pdfrwt beam="1">  1        2 0.37109724E-01 0.26716862E+02</pdfrwt>
<pdfrwt beam="2">  1       -2 0.48887362E-03 0.26716862E+02</pdfrwt>
<totfact> 0.50245020E+05</totfact>
</mgrwt>
</event>
<event>
 4    1  0.7653521E+003  0.2556854E+02  0.7546771E-02  0.1652968E+00
          2   -1    0    0  501    0  0.00000000000E+00  0.00000000000E+00  0.10003968689E+02  0.10003968689E+02  0.00000000000E+00 0. -1.
         -2   -1    0    0    0  501 -0.00000000000E+00 -0.00000000000E+00 -0.71105061053E+02  0.71105061053E+02  0.00000000000E+00 0.  1.
          2    1    1    2  502    0  0.25507416503E+02 -0.17668379024E+01 -0.19012051628E+02  0.31862330736E+02  0.00000000000E+00 0. -1.
         -2    1    1    2    0  502 -0.25507416503E+02  0.17668379024E+01 -0.42089040737E+02  0.49246699006E+02  0.00000000000E+00 0.  1.
<mgrwt>
<rscale>  2 0.25568536E+02</rscale>
<asrwt>0</asrwt>
<pdfrwt beam="1">  1        2 0.15390722E-02 0.25568536E+02</pdfrwt>
<pdfrwt beam="2">  1       -2 0.10939240E-01 0.25568536E+02</pdfrwt>
<totfact> 0.26868262E+05</totfact>
</mgrwt>
</event>
<event>
 4    1  0.7653521E+003  0.3567213E+02  0.7546771E-02  0.1542712E+00
          2   -1    0    0  501    0  0.00000000000E+00  0.00000000000E+00  0.50690582126E+03  0.50690582126E+03  0.00000000000E+00 0.  1.
         -2   -1    0    0    0  501 -0.00000000000E+00 -0.00000000000E+00 -0.39983855563E+01  0.39983855563E+01  0.00000000000E+00 0. -1.
          2    1    1    2  502    0  0.61706701817E+01 -0.35134369428E+02  0.40729290159E+03  0.40885206220E+03  0.00000000000E+00 0.  1.
         -2    1    1    2    0  502 -0.61706701817E+01  0.35134369428E+02  0.95614534119E+02  0.10205214461E+03  0.00000000000E+00 0. -1.
<mgrwt>
<rscale>  2 0.35672133E+02</rscale>
<asrwt>0</asrwt>
<pdfrwt beam="1">  1        2 0.77985460E-01 0.35672133E+02</pdfrwt>
<pdfrwt beam="2">  1       -2 0.61513664E-03 0.35672133E+02</pdfrwt>
<totfact> 0.18754481E+05</totfact>
</mgrwt>
</event>
<event>
 4    1  0.7653521E+003  0.3165398E+02  0.7546771E-02  0.1580494E+00
         -2   -1    0    0    0  501 -0.00000000000E+00  0.00000000000E+00  0.15172381740E+03  0.15172381740E+03  0.00000000000E+00 0. -1.
          2   -1    0    0  501    0  0.00000000000E+00 -0.00000000000E+00 -0.68166369137E+02  0.68166369137E+02  0.00000000000E+00 0.  1.
          2    1    1    2  502    0  0.35595493268E+01 -0.31453208073E+02 -0.62705001937E+02  0.70241668242E+02  0.00000000000E+00 0.  1.
         -2    1    1    2    0  502 -0.35595493268E+01  0.31453208073E+02  0.14626245020E+03  0.14964851830E+03  0.00000000000E+00 0. -1.
<mgrwt>
<rscale>  2 0.31653984E+02</rscale>
<asrwt>0</asrwt>
<pdfrwt beam="2">  1        2 0.10487134E-01 0.31653984E+02</pdfrwt>
<pdfrwt beam="1">  1       -2 0.23342126E-01 0.31653984E+02</pdfrwt>
<totfact> 0.78002312E+03</totfact>
</mgrwt>
</event>
<event>
 4    1  0.7653521E+003  0.2113132E+02  0.7546771E-02  0.1723723E+00
          2   -1    0    0  501    0  0.00000000000E+00  0.00000000000E+00  0.12673179728E+03  0.12673179728E+03  0.00000000000E+00 0.  1.
         -2   -1    0    0    0  501 -0.00000000000E+00 -0.00000000000E+00 -0.74252652383E+01  0.74252652383E+01  0.00000000000E+00 0.  1.
          2    1    1    2  502    0 -0.38227024210E+01 -0.20782674670E+02  0.10827843710E+03  0.11032113380E+03  0.00000000000E+00 0.  1.
         -2    1    1    2    0  502  0.38227024210E+01  0.20782674670E+02  0.11028094941E+02  0.23835928726E+02  0.00000000000E+00 0.  1.
<mgrwt>
<rscale>  2 0.21131318E+02</rscale>
<asrwt>0</asrwt>
<pdfrwt beam="1">  1        2 0.19497198E-01 0.21131318E+02</pdfrwt>
<pdfrwt beam="2">  1       -2 0.11423486E-02 0.21131318E+02</pdfrwt>
<totfact> 0.28944337E+05</totfact>
</mgrwt>
</event>
<event>
 4    1  0.7653521E+003  0.3175880E+02  0.7546771E-02  0.1579423E+00
          2   -1    0    0  501    0  0.00000000000E+00  0.00000000000E+00  0.78942997408E+03  0.78942997408E+03  0.00000000000E+00 0.  1.
         -2   -1    0    0    0  501 -0.00000000000E+00 -0.00000000000E+00 -0.70728370832E+01  0.70728370832E+01  0.00000000000E+00 0.  1.
          2    1    1    2  502    0 -0.96666500962E+01 -0.30251893951E+02  0.75166916064E+03  0.75233978246E+03  0.00000000000E+00 0.  1.
         -2    1    1    2    0  502  0.96666500962E+01  0.30251893951E+02  0.30687976362E+02  0.44163028710E+02  0.00000000000E+00 0.  1.
<mgrwt>
<rscale>  2 0.31758797E+02</rscale>
<asrwt>0</asrwt>
<pdfrwt beam="1">  1        2 0.12145070E+00 0.31758797E+02</pdfrwt>
<pdfrwt beam="2">  1       -2 0.10881294E-02 0.31758797E+02</pdfrwt>
<totfact> 0.51991186E+04</totfact>
</mgrwt>
</event>
<event>
 4    1  0.7653521E+003  0.3619619E+02  0.7546771E-02  0.1538228E+00
          2   -1    0    0  501    0  0.00000000000E+00  0.00000000000E+00  0.41077456854E+03  0.41077456854E+03  0.00000000000E+00 0.  1.
         -2   -1    0    0    0  501 -0.00000000000E+00 -0.00000000000E+00 -0.18195454314E+02  0.18195454314E+02  0.00000000000E+00 0.  1.
          2    1    1    2  502    0 -0.27368931418E+01  0.36092565147E+02  0.39107090387E+03  0.39274242921E+03  0.00000000000E+00 0.  1.
         -2    1    1    2    0  502  0.27368931418E+01 -0.36092565147E+02  0.15082103519E+01  0.36227593646E+02  0.00000000000E+00 0.  1.
<mgrwt>
<rscale>  2 0.36196185E+02</rscale>
<asrwt>0</asrwt>
<pdfrwt beam="1">  1        2 0.63196080E-01 0.36196185E+02</pdfrwt>
<pdfrwt beam="2">  1       -2 0.27993010E-02 0.36196185E+02</pdfrwt>
<totfact> 0.28662065E+04</totfact>
</mgrwt>
</event>
<event>
 4    1  0.7653521E+003  0.2490875E+02  0.7546771E-02  0.1662316E+00
         -2   -1    0    0    0  501 -0.00000000000E+00  0.00000000000E+00  0.50151276189E+03  0.50151276189E+03  0.00000000000E+00 0.  1.
          2   -1    0    0  501    0  0.00000000000E+00 -0.00000000000E+00 -0.43875319210E+02  0.43875319210E+02  0.00000000000E+00 0.  1.
          2    1    1    2  502    0 -0.24778475932E+02 -0.25441844895E+01 -0.40003264261E+02  0.47124376874E+02  0.00000000000E+00 0.  1.
         -2    1    1    2    0  502  0.24778475932E+02  0.25441844895E+01  0.49764070694E+03  0.49826370422E+03  0.00000000000E+00 0.  1.
<mgrwt>
<rscale>  2 0.24908748E+02</rscale>
<asrwt>0</asrwt>
<pdfrwt beam="2">  1        2 0.67500495E-02 0.24908748E+02</pdfrwt>
<pdfrwt beam="1">  1       -2 0.77155805E-01 0.24908748E+02</pdfrwt>
<totfact> 0.13833884E+03</totfact>
</mgrwt>
</event>
<event>
 4    1  0.7653521E+003  0.2255604E+02  0.7546771E-02  0.1698809E+00
         -2   -1    0    0    0  501 -0.00000000000E+00  0.00000000000E+00  0.17295511039E+01  0.17295511039E+01  0.00000000000E+00 0.  1.
          2   -1    0    0  501    0  0.00000000000E+00 -0.00000000000E+00 -0.10620936995E+04  0.10620936995E+04  0.00000000000E+00 0. -1.
          2    1    1    2  502    0 -0.21544260406E+02  0.66798155763E+01 -0.98247337904E+03  0.98273227057E+03  0.00000000000E+00 0. -1.
         -2    1    1    2    0  502  0.21544260406E+02 -0.66798155763E+01 -0.77890769382E+02  0.81090980062E+02  0.00000000000E+00 0.  1.
<mgrwt>
<rscale>  2 0.22556043E+02</rscale>
<asrwt>0</asrwt>
<pdfrwt beam="2">  1        2 0.16339875E+00 0.22556043E+02</pdfrwt>
<pdfrwt beam="1">  1       -2 0.26608525E-03 0.22556043E+02</pdfrwt>
<totfact> 0.22609243E+05</totfact>
</mgrwt>
</event>
<event>
 4    1  0.7653521E+003  0.3093139E+02  0.7546771E-02  0.1588016E+00
          2   -1    0    0  501    0  0.00000000000E+00  0.00000000000E+00  0.32274985249E+02  0.32274985249E+02  0.00000000000E+00 0.  1.
         -2   -1    0    0    0  501 -0.00000000000E+00 -0.00000000000E+00 -0.43640076643E+02  0.43640076643E+02  0.00000000000E+00 0.  1.
          2    1    1    2  502    0 -0.12819802197E+02 -0.28149663172E+02  0.15813698525E+02  0.34739371412E+02  0.00000000000E+00 0.  1.
         -2    1    1    2    0  502  0.12819802197E+02  0.28149663172E+02 -0.27178789919E+02  0.41175690480E+02  0.00000000000E+00 0.  1.
<mgrwt>
<rscale>  2 0.30931390E+02</rscale>
<asrwt>0</asrwt>
<pdfrwt beam="1">  1        2 0.49653823E-02 0.30931390E+02</pdfrwt>
<pdfrwt beam="2">  1       -2 0.67138580E-02 0.30931390E+02</pdfrwt>
<totfact> 0.13107376E+05</totfact>
</mgrwt>
</event>
<event>
 4    1  0.7653521E+003  0.2430141E+02  0.7546771E-02  0.1671244E+00
         -2   -1    0    0    0  501 -0.00000000000E+00  0.00000000000E+00  0.21091412741E+01  0.21091412741E+01  0.00000000000E+00 0.  1.
          2   -1    0    0  501    0  0.00000000000E+00 -0.00000000000E+00 -0.16776237678E+04  0.16776237678E+04  0.00000000000E+00 0. -1.
          2    1    1    2  502    0 -0.51383019643E+01  0.23751976025E+02 -0.16043385161E+04  0.16045225560E+04  0.00000000000E+00 0. -1.
         -2    1    1    2    0  502  0.51383019643E+01 -0.23751976025E+02 -0.71176110419E+02  0.75210353054E+02  0.00000000000E+00 0.  1.
<mgrwt>
<rscale>  2 0.24301410E+02</rscale>
<asrwt>0</asrwt>
<pdfrwt beam="2">  1        2 0.25809750E+00 0.24301410E+02</pdfrwt>
<pdfrwt beam="1">  1       -2 0.32448134E-03 0.24301410E+02</pdfrwt>
<totfact> 0.88473056E+04</totfact>
</mgrwt>
</event>
<event>
 4    1  0.7653521E+003  0.4705241E+02  0.7546771E-02  0.1461921E+00
          2   -1    0    0  501    0  0.00000000000E+00  0.00000000000E+00  0.25140229607E+03  0.25140229607E+03  0.00000000000E+00 0.  1.
         -2   -1    0    0    0  501 -0.00000000000E+00 -0.00000000000E+00 -0.53411346786E+03  0.53411346786E+03  0.00000000000E+00 0. -1.
          2    1    1    2  502    0  0.46138630011E+02  0.92280195752E+01  0.24815099460E+03  0.25257245623E+03  0.00000000000E+00 0.  1.
         -2    1    1    2    0  502 -0.46138630011E+02 -0.92280195752E+01 -0.53086216639E+03  0.53294330771E+03  0.00000000000E+00 0. -1.
<mgrwt>
<rscale>  2 0.47052413E+02</rscale>
<asrwt>0</asrwt>
<pdfrwt beam="1">  1        2 0.38677276E-01 0.47052413E+02</pdfrwt>
<pdfrwt beam="2">  1       -2 0.82171303E-01 0.47052413E+02</pdfrwt>
<totfact> 0.18120311E+02</totfact>
</mgrwt>
</event>
<event>
 4    1  0.7653521E+003  0.2517868E+02  0.7546771E-02  0.1658449E+00
         -2   -1    0    0    0  501 -0.00000000000E+00  0.00000000000E+00  0.34999930063E+02  0.34999930063E+02  0.00000000000E+00 0.  1.
          2   -1    0    0  501    0  0.00000000000E+00 -0.00000000000E+00 -0.96982149525E+02  0.96982149525E+02  0.00000000000E+00 0. -1.
          2    1    1    2  502    0  0.72827791080E+00 -0.25168141911E+02 -0.90501349722E+02  0.93938597272E+02  0.00000000000E+00 0. -1.
         -2    1    1    2    0  502 -0.72827791080E+00  0.25168141911E+02  0.28519130260E+02  0.38043482316E+02  0.00000000000E+00 0.  1.
<mgrwt>
<rscale>  2 0.25178677E+02</rscale>
<asrwt>0</asrwt>
<pdfrwt beam="2">  1        2 0.14920330E-01 0.25178677E+02</pdfrwt>
<pdfrwt beam="1">  1       -2 0.53846047E-02 0.25178677E+02</pdfrwt>
<totfact> 0.47230857E+04</totfact>
</mgrwt>
</event>
<event>
 4    1  0.7653521E+003  0.2004116E+02  0.7546771E-02  0.1744511E+00
          2   -1    0    0  501    0  0.00000000000E+00  0.00000000000E+00  0.89328527778E+03  0.89328527778E+03  0.00000000000E+00 0. -1.
         -2   -1    0    0    0  501 -0.00000000000E+00 -0.00000000000E+00 -0.76749294222E+00  0.76749294222E+00  0.00000000000E+00 0.  1.
          2    1    1    2  502    0 -0.93679968077E+01 -0.17716907790E+02  0.73394286185E+03  0.73421643447E+03  0.00000000000E+00 0. -1.
         -2    1    1    2    0  502  0.93679968077E+01  0.17716907790E+02  0.15857492299E+03  0.15983633625E+03  0.00000000000E+00 0.  1.
<mgrwt>
<rscale>  2 0.20041162E+02</rscale>
<asrwt>0</asrwt>
<pdfrwt beam="1">  1        2 0.13742767E+00 0.20041162E+02</pdfrwt>
<pdfrwt beam="2">  1       -2 0.11807655E-03 0.20041162E+02</pdfrwt>
<totfact> 0.79022272E+05</totfact>
</mgrwt>
</event>
<event>
 4    1  0.7653521E+003  0.2020069E+02  0.7546771E-02  0.1741366E+00
         -2   -1    0    0    0  501 -0.00000000000E+00  0.00000000000E+00  0.26527107020E+03  0.26527107020E+03  0.00000000000E+00 0.  1.
          2   -1    0    0  501    0  0.00000000000E+00 -0.00000000000E+00 -0.44304485410E+01  0.44304485410E+01  0.00000000000E+00 0.  1.
          2    1    1    2  502    0 -0.16566513609E+02 -0.11559342963E+02  0.21467239157E+02  0.29477281759E+02  0.00000000000E+00 0.  1.
         -2    1    1    2    0  502  0.16566513609E+02  0.11559342963E+02  0.23937338251E+03  0.24022423699E+03  0.00000000000E+00 0.  1.
<mgrwt>
<rscale>  2 0.20200688E+02</rscale>
<asrwt>0</asrwt>
<pdfrwt beam="2">  1        2 0.68160768E-03 0.20200688E+02</pdfrwt>
<pdfrwt beam="1">  1       -2 0.40810921E-01 0.20200688E+02</pdfrwt>
<totfact> 0.84068274E+04</totfact>
</mgrwt>
</event>
<event>
 4    1  0.7653521E+003  0.2198899E+02  0.7546771E-02  0.1708442E+00
          2   -1    0    0  501    0  0.00000000000E+00  0.00000000000E+00  0.84395247351E+03  0.84395247351E+03  0.00000000000E+00 0. -1.
         -2   -1    0    0    0  501 -0.00000000000E+00 -0.00000000000E+00 -0.66839815502E+00  0.66839815502E+00  0.00000000000E+00 0. -1.
          2    1    1    2  502    0  0.12849766265E+02 -0.17843743289E+02  0.58125584924E+03  0.58167162381E+03  0.00000000000E+00 0. -1.
         -2    1    1    2    0  502 -0.12849766265E+02  0.17843743289E+02  0.26202822611E+03  0.26294924785E+03  0.00000000000E+00 0. -1.
<mgrwt>
<rscale>  2 0.21988990E+02</rscale>
<asrwt>0</asrwt>
<pdfrwt beam="1">  1        2 0.12983799E+00 0.21988990E+02</pdfrwt>
<pdfrwt beam="2">  1       -2 0.10283116E-03 0.21988990E+02</pdfrwt>
<totfact> 0.10419346E+06</totfact>
</mgrwt>
</event>
<event>
 4    1  0.7653521E+003  0.2218218E+02  0.7546771E-02  0.1705120E+00
          2   -1    0    0  501    0  0.00000000000E+00  0.00000000000E+00  0.10765257245E+04  0.10765257245E+04  0.00000000000E+00 0. -1.
         -2   -1    0    0    0  501 -0.00000000000E+00 -0.00000000000E+00 -0.13081413447E+01  0.13081413447E+01  0.00000000000E+00 0.  1.
          2    1    1    2  502    0 -0.17443930436E+02  0.13702495553E+02  0.97229626656E+03  0.97254926819E+03  0.00000000000E+00 0. -1.
         -2    1    1    2    0  502  0.17443930436E+02 -0.13702495553E+02  0.10292131662E+03  0.10528459768E+03  0.00000000000E+00 0.  1.
<mgrwt>
<rscale>  2 0.22182180E+02</rscale>
<asrwt>0</asrwt>
<pdfrwt beam="1">  1        2 0.16561863E+00 0.22182180E+02</pdfrwt>
<pdfrwt beam="2">  1       -2 0.20125337E-03 0.22182180E+02</pdfrwt>
<totfact> 0.32041467E+05</totfact>
</mgrwt>
</event>
<event>
 4    1  0.7653521E+003  0.2241144E+02  0.7546771E-02  0.1701232E+00
         -2   -1    0    0    0  501 -0.00000000000E+00  0.00000000000E+00  0.13770036538E+01  0.13770036538E+01  0.00000000000E+00 0.  1.
          2   -1    0    0  501    0  0.00000000000E+00 -0.00000000000E+00 -0.96389424522E+03  0.96389424522E+03  0.00000000000E+00 0. -1.
          2    1    1    2  502    0 -0.19913317483E+02  0.10282632955E+02 -0.86176992985E+03  0.86206129988E+03  0.00000000000E+00 0. -1.
         -2    1    1    2    0  502  0.19913317483E+02 -0.10282632955E+02 -0.10074731172E+03  0.10320994900E+03  0.00000000000E+00 0.  1.
<mgrwt>
<rscale>  2 0.22411442E+02</rscale>
<asrwt>0</asrwt>
<pdfrwt beam="2">  1        2 0.14829133E+00 0.22411442E+02</pdfrwt>
<pdfrwt beam="1">  1       -2 0.21184685E-03 0.22411442E+02</pdfrwt>
<totfact> 0.34494089E+05</totfact>
</mgrwt>
</event>
<event>
 4    1  0.7653521E+003  0.2280955E+02  0.7546771E-02  0.1694616E+00
          2   -1    0    0  501    0  0.00000000000E+00  0.00000000000E+00  0.31007311223E+03  0.31007311223E+03  0.00000000000E+00 0.  1.
         -2   -1    0    0    0  501 -0.00000000000E+00 -0.00000000000E+00 -0.77267706658E+01  0.77267706658E+01  0.00000000000E+00 0. -1.
          2    1    1    2  502    0  0.15120300862E+02 -0.17077826197E+02  0.29176543189E+03  0.29265567292E+03  0.00000000000E+00 0.  1.
         -2    1    1    2    0  502 -0.15120300862E+02  0.17077826197E+02  0.10580909672E+02  0.25144209974E+02  0.00000000000E+00 0. -1.
<mgrwt>
<rscale>  2 0.22809552E+02</rscale>
<asrwt>0</asrwt>
<pdfrwt beam="1">  1        2 0.47703546E-01 0.22809552E+02</pdfrwt>
<pdfrwt beam="2">  1       -2 0.11887342E-02 0.22809552E+02</pdfrwt>
<totfact> 0.11312053E+05</totfact>
</mgrwt>
</event>
<event>
 4    1  0.7653521E+003  0.2116028E+02  0.7546771E-02  0.1723193E+00
          2   -1    0    0  501    0  0.00000000000E+00  0.00000000000E+00  0.40874623587E+03  0.40874623587E+03  0.00000000000E+00 0.  1.
         -2   -1    0    0    0  501 -0.00000000000E+00 -0.00000000000E+00 -0.14695068372E+01  0.14695068372E+01  0.00000000000E+00 0. -1.
          2    1    1    2  502    0  0.21128800742E+02 -0.11537661427E+01  0.30712172623E+03  0.30784982073E+03  0.00000000000E+00 0.  1.
         -2    1    1    2    0  502 -0.21128800742E+02  0.11537661427E+01  0.10015500280E+03  0.10236592198E+03  0.00000000000E+00 0. -1.
<mgrwt>
<rscale>  2 0.21160279E+02</rscale>
<asrwt>0</asrwt>
<pdfrwt beam="1">  1        2 0.62883946E-01 0.21160279E+02</pdfrwt>
<pdfrwt beam="2">  1       -2 0.22607830E-03 0.21160279E+02</pdfrwt>
<totfact> 0.77786320E+05</totfact>
</mgrwt>
</event>
<event>
 4    1  0.7653521E+003  0.2100698E+02  0.7546771E-02  0.1726014E+00
         -2   -1    0    0    0  501 -0.00000000000E+00  0.00000000000E+00  0.90933668834E+01  0.90933668834E+01  0.00000000000E+00 0.  1.
          2   -1    0    0  501    0  0.00000000000E+00 -0.00000000000E+00 -0.61234220825E+02  0.61234220825E+02  0.00000000000E+00 0. -1.
          2    1    1    2  502    0  0.20929254741E+02 -0.18054156646E+01 -0.42087657553E+02  0.47038964147E+02  0.00000000000E+00 0. -1.
         -2    1    1    2    0  502 -0.20929254741E+02  0.18054156646E+01 -0.10053196389E+02  0.23288623561E+02  0.00000000000E+00 0.  1.
<mgrwt>
<rscale>  2 0.21006981E+02</rscale>
<asrwt>0</asrwt>
<pdfrwt beam="2">  1        2 0.94206494E-02 0.21006981E+02</pdfrwt>
<pdfrwt beam="1">  1       -2 0.13989795E-02 0.21006981E+02</pdfrwt>
<totfact> 0.49096808E+05</totfact>
</mgrwt>
</event>
<event>
 4    1  0.7653521E+003  0.5437355E+02  0.7546771E-02  0.1423085E+00
         -2   -1    0    0    0  501 -0.00000000000E+00  0.00000000000E+00  0.20661594464E+03  0.20661594464E+03  0.00000000000E+00 0. -1.
          2   -1    0    0  501    0  0.00000000000E+00 -0.00000000000E+00 -0.92436606107E+02  0.92436606107E+02  0.00000000000E+00 0. -1.
          2    1    1    2  502    0 -0.28118141576E+02 -0.46538724715E+02 -0.80377051681E+02  0.97040987323E+02  0.00000000000E+00 0. -1.
         -2    1    1    2    0  502  0.28118141576E+02  0.46538724715E+02  0.19455639021E+03  0.20201156342E+03  0.00000000000E+00 0. -1.
<mgrwt>
<rscale>  2 0.54373549E+02</rscale>
<asrwt>0</asrwt>
<pdfrwt beam="2">  1        2 0.14221016E-01 0.54373549E+02</pdfrwt>
<pdfrwt beam="1">  1       -2 0.31787068E-01 0.54373549E+02</pdfrwt>
<totfact> 0.34263937E+03</totfact>
</mgrwt>
</event>
<event>
 4    1  0.7653521E+003  0.2489703E+02  0.7546771E-02  0.1662485E+00
         -2   -1    0    0    0  501 -0.00000000000E+00  0.00000000000E+00  0.97300001064E+00  0.97300001064E+00  0.00000000000E+00 0. -1.
          2   -1    0    0  501    0  0.00000000000E+00 -0.00000000000E+00 -0.19324073258E+04  0.19324073258E+04  0.00000000000E+00 0.  1.
          2    1    1    2  502    0 -0.24626507988E+02  0.36602291355E+01 -0.17571801284E+04  0.17573564994E+04  0.00000000000E+00 0.  1.
         -2    1    1    2    0  502  0.24626507988E+02 -0.36602291355E+01 -0.17425419735E+03  0.17602382642E+03  0.00000000000E+00 0. -1.
<mgrwt>
<rscale>  2 0.24897031E+02</rscale>
<asrwt>0</asrwt>
<pdfrwt beam="2">  1        2 0.29729318E+00 0.24897031E+02</pdfrwt>
<pdfrwt beam="1">  1       -2 0.14969244E-03 0.24897031E+02</pdfrwt>
<totfact> 0.18922172E+05</totfact>
</mgrwt>
</event>
<event>
 4    1  0.7653521E+003  0.2302286E+02  0.7546771E-02  0.1691140E+00
         -2   -1    0    0    0  501 -0.00000000000E+00  0.00000000000E+00  0.11148476756E+01  0.11148476756E+01  0.00000000000E+00 0.  1.
          2   -1    0    0  501    0  0.00000000000E+00 -0.00000000000E+00 -0.48514295822E+03  0.48514295822E+03  0.00000000000E+00 0. -1.
          2    1    1    2  502    0  0.15869006980E+02 -0.16680128034E+02 -0.27638374235E+03  0.27734099064E+03  0.00000000000E+00 0. -1.
         -2    1    1    2    0  502 -0.15869006980E+02  0.16680128034E+02 -0.20764436820E+03  0.20891681526E+03  0.00000000000E+00 0.  1.
<mgrwt>
<rscale>  2 0.23022859E+02</rscale>
<asrwt>0</asrwt>
<pdfrwt beam="2">  1        2 0.74637446E-01 0.23022859E+02</pdfrwt>
<pdfrwt beam="1">  1       -2 0.17151487E-03 0.23022859E+02</pdfrwt>
<totfact> 0.97108989E+05</totfact>
</mgrwt>
</event>
<event>
 4    1  0.7653521E+003  0.2138090E+02  0.7546771E-02  0.1719184E+00
         -2   -1    0    0    0  501 -0.00000000000E+00  0.00000000000E+00  0.65445081149E+02  0.65445081149E+02  0.00000000000E+00 0.  1.
          2   -1    0    0  501    0  0.00000000000E+00 -0.00000000000E+00 -0.12455208326E+04  0.12455208326E+04  0.00000000000E+00 0.  1.
          2    1    1    2  502    0  0.78494481284E+01  0.19887908357E+02 -0.12436802072E+04  0.12438639799E+04  0.00000000000E+00 0.  1.
         -2    1    1    2    0  502 -0.78494481284E+01 -0.19887908357E+02  0.63604455746E+02  0.67101933843E+02  0.00000000000E+00 0.  1.
<mgrwt>
<rscale>  2 0.21380896E+02</rscale>
<asrwt>0</asrwt>
<pdfrwt beam="2">  1        2 0.19161859E+00 0.21380896E+02</pdfrwt>
<pdfrwt beam="1">  1       -2 0.10068474E-01 0.21380896E+02</pdfrwt>
<totfact> 0.12178162E+03</totfact>
</mgrwt>
</event>
<event>
 4    1  0.7653521E+003  0.6976202E+02  0.7546771E-02  0.1360904E+00
         -2   -1    0    0    0  501 -0.00000000000E+00  0.00000000000E+00  0.90122590167E+03  0.90122590167E+03  0.00000000000E+00 0.  1.
          2   -1    0    0  501    0  0.00000000000E+00 -0.00000000000E+00 -0.30964020353E+02  0.30964020353E+02  0.00000000000E+00 0. -1.
          2    1    1    2  502    0  0.44337512271E+02  0.53860232166E+02  0.11625314258E+02  0.70724023746E+02  0.00000000000E+00 0. -1.
         -2    1    1    2    0  502 -0.44337512271E+02 -0.53860232166E+02  0.85863656706E+03  0.86146589828E+03  0.00000000000E+00 0.  1.
<mgrwt>
<rscale>  2 0.69762021E+02</rscale>
<asrwt>0</asrwt>
<pdfrwt beam="2">  1        2 0.47636961E-02 0.69762021E+02</pdfrwt>
<pdfrwt beam="1">  1       -2 0.13865012E+00 0.69762021E+02</pdfrwt>
<totfact> 0.61482679E+02</totfact>
</mgrwt>
</event>
<event>
 4    1  0.7653521E+003  0.4031720E+02  0.7546771E-02  0.1505890E+00
          2   -1    0    0  501    0  0.00000000000E+00  0.00000000000E+00  0.73659827969E+03  0.73659827969E+03  0.00000000000E+00 0. -1.
         -2   -1    0    0    0  501 -0.00000000000E+00 -0.00000000000E+00 -0.63438318921E+01  0.63438318921E+01  0.00000000000E+00 0. -1.
          2    1    1    2  502    0 -0.25184387898E+01 -0.40238463093E+02  0.66511050255E+03  0.66633134179E+03  0.00000000000E+00 0. -1.
         -2    1    1    2    0  502  0.25184387898E+01  0.40238463093E+02  0.65143945246E+02  0.76610769793E+02  0.00000000000E+00 0. -1.
<mgrwt>
<rscale>  2 0.40317198E+02</rscale>
<asrwt>0</asrwt>
<pdfrwt beam="1">  1        2 0.11332274E+00 0.40317198E+02</pdfrwt>
<pdfrwt beam="2">  1       -2 0.97597472E-03 0.40317198E+02</pdfrwt>
<totfact> 0.68045454E+04</totfact>
</mgrwt>
</event>
<event>
 4    1  0.7653521E+003  0.2523548E+02  0.7546771E-02  0.1657642E+00
          2   -1    0    0  501    0  0.00000000000E+00  0.00000000000E+00  0.16516268763E+04  0.16516268763E+04  0.00000000000E+00 0. -1.
         -2   -1    0    0    0  501 -0.00000000000E+00 -0.00000000000E+00 -0.21282672378E+01  0.21282672378E+01  0.00000000000E+00 0.  1.
          2    1    1    2  502    0 -0.19469214238E+02  0.16055502190E+02  0.15729846553E+04  0.15731870694E+04  0.00000000000E+00 0. -1.
         -2    1    1    2    0  502  0.19469214238E+02 -0.16055502190E+02  0.76513953812E+02  0.80568074208E+02  0.00000000000E+00 0.  1.
<mgrwt>
<rscale>  2 0.25235480E+02</rscale>
<asrwt>0</asrwt>
<pdfrwt beam="1">  1        2 0.25409542E+00 0.25235480E+02</pdfrwt>
<pdfrwt beam="2">  1       -2 0.32742705E-03 0.25235480E+02</pdfrwt>
<totfact> 0.90507188E+04</totfact>
</mgrwt>
</event>
<event>
 4    1  0.7653521E+003  0.3350122E+02  0.7546771E-02  0.1562328E+00
         -2   -1    0    0    0  501 -0.00000000000E+00  0.00000000000E+00  0.72810013171E+01  0.72810013171E+01  0.00000000000E+00 0. -1.
          2   -1    0    0  501    0  0.00000000000E+00 -0.00000000000E+00 -0.33522709869E+03  0.33522709869E+03  0.00000000000E+00 0.  1.
          2    1    1    2  502    0 -0.14666489511E+02  0.30120185684E+02 -0.28983915450E+03  0.29176885883E+03  0.00000000000E+00 0.  1.
         -2    1    1    2    0  502  0.14666489511E+02 -0.30120185684E+02 -0.38106942866E+02  0.50739241173E+02  0.00000000000E+00 0. -1.
<mgrwt>
<rscale>  2 0.33501216E+02</rscale>
<asrwt>0</asrwt>
<pdfrwt beam="2">  1        2 0.51573391E-01 0.33501216E+02</pdfrwt>
<pdfrwt beam="1">  1       -2 0.11201542E-02 0.33501216E+02</pdfrwt>
<totfact> 0.12387501E+05</totfact>
</mgrwt>
</event>
<event>
 4    1  0.7653521E+003  0.2897736E+02  0.7546771E-02  0.1609676E+00
          2   -1    0    0  501    0  0.00000000000E+00  0.00000000000E+00  0.89010874942E+00  0.89010874942E+00  0.00000000000E+00 0. -1.
         -2   -1    0    0    0  501 -0.00000000000E+00 -0.00000000000E+00 -0.13102966225E+04  0.13102966225E+04  0.00000000000E+00 0. -1.
          2    1    1    2  502    0  0.23759697460E+02 -0.16588071272E+02 -0.30776752573E+03  0.30912867422E+03  0.00000000000E+00 0. -1.
         -2    1    1    2    0  502 -0.23759697460E+02  0.16588071272E+02 -0.10016389880E+04  0.10020580570E+04  0.00000000000E+00 0. -1.
<mgrwt>
<rscale>  2 0.28977359E+02</rscale>
<asrwt>0</asrwt>
<pdfrwt beam="1">  1        2 0.13693964E-03 0.28977359E+02</pdfrwt>
<pdfrwt beam="2">  1       -2 0.20158434E+00 0.28977359E+02</pdfrwt>
<totfact> 0.22977512E+04</totfact>
</mgrwt>
</event>
<event>
 4    1  0.7653521E+003  0.3425668E+02  0.7546771E-02  0.1555302E+00
         -2   -1    0    0    0  501 -0.00000000000E+00  0.00000000000E+00  0.25689857157E+02  0.25689857157E+02  0.00000000000E+00 0.  1.
          2   -1    0    0  501    0  0.00000000000E+00 -0.00000000000E+00 -0.20677089782E+03  0.20677089782E+03  0.00000000000E+00 0. -1.
          2    1    1    2  502    0 -0.34134155508E+02  0.28947158370E+01 -0.19313170874E+03  0.19614631496E+03  0.00000000000E+00 0. -1.
         -2    1    1    2    0  502  0.34134155508E+02 -0.28947158370E+01  0.12050668083E+02  0.36314440010E+02  0.00000000000E+00 0.  1.
<mgrwt>
<rscale>  2 0.34256677E+02</rscale>
<asrwt>0</asrwt>
<pdfrwt beam="2">  1        2 0.31810907E-01 0.34256677E+02</pdfrwt>
<pdfrwt beam="1">  1       -2 0.39522857E-02 0.34256677E+02</pdfrwt>
<totfact> 0.34866364E+04</totfact>
</mgrwt>
</event>
<event>
 4    1  0.7653521E+003  0.4695830E+02  0.7546771E-02  0.1462474E+00
         -2   -1    0    0    0  501 -0.00000000000E+00  0.00000000000E+00  0.69279960651E+03  0.69279960651E+03  0.00000000000E+00 0. -1.
          2   -1    0    0  501    0  0.00000000000E+00 -0.00000000000E+00 -0.12835344009E+02  0.12835344009E+02  0.00000000000E+00 0.  1.
          2    1    1    2  502    0  0.33899530819E+02  0.32494670693E+02  0.34021214992E+02  0.57987282077E+02  0.00000000000E+00 0.  1.
         -2    1    1    2    0  502 -0.33899530819E+02 -0.32494670693E+02  0.64594304751E+03  0.64764766845E+03  0.00000000000E+00 0. -1.
<mgrwt>
<rscale>  2 0.46958299E+02</rscale>
<asrwt>0</asrwt>
<pdfrwt beam="2">  1        2 0.19746689E-02 0.46958299E+02</pdfrwt>
<pdfrwt beam="1">  1       -2 0.10658453E+00 0.46958299E+02</pdfrwt>
<totfact> 0.34855948E+03</totfact>
</mgrwt>
</event>
<event>
 4    1  0.7653521E+003  0.5079518E+02  0.7546771E-02  0.1441099E+00
          2   -1    0    0  501    0  0.00000000000E+00  0.00000000000E+00  0.43121245469E+03  0.43121245469E+03  0.00000000000E+00 0.  1.
         -2   -1    0    0    0  501 -0.00000000000E+00 -0.00000000000E+00 -0.78093349687E+01  0.78093349687E+01  0.00000000000E+00 0. -1.
          2    1    1    2  502    0  0.50396903280E+02  0.63484141579E+01  0.31784237894E+03  0.32187564070E+03  0.00000000000E+00 0.  1.
         -2    1    1    2    0  502 -0.50396903280E+02 -0.63484141579E+01  0.10556074077E+03  0.11714614896E+03  0.00000000000E+00 0. -1.
<mgrwt>
<rscale>  2 0.50795179E+02</rscale>
<asrwt>0</asrwt>
<pdfrwt beam="1">  1        2 0.66340359E-01 0.50795179E+02</pdfrwt>
<pdfrwt beam="2">  1       -2 0.12014365E-02 0.50795179E+02</pdfrwt>
<totfact> 0.94325095E+04</totfact>
</mgrwt>
</event>
<event>
 4    1  0.7653521E+003  0.3133423E+02  0.7546771E-02  0.1583792E+00
         -2   -1    0    0    0  501 -0.00000000000E+00  0.00000000000E+00  0.15618116831E+02  0.15618116831E+02  0.00000000000E+00 0. -1.
          2   -1    0    0  501    0  0.00000000000E+00 -0.00000000000E+00 -0.27128065517E+03  0.27128065517E+03  0.00000000000E+00 0. -1.
          2    1    1    2  502    0  0.31297738026E+02  0.15117360038E+01 -0.25356575033E+03  0.25549446861E+03  0.00000000000E+00 0. -1.
         -2    1    1    2    0  502 -0.31297738026E+02 -0.15117360038E+01 -0.20967880077E+01  0.31404303387E+02  0.00000000000E+00 0. -1.
<mgrwt>
<rscale>  2 0.31334227E+02</rscale>
<asrwt>0</asrwt>
<pdfrwt beam="2">  1        2 0.41735483E-01 0.31334227E+02</pdfrwt>
<pdfrwt beam="1">  1       -2 0.24027873E-02 0.31334227E+02</pdfrwt>
<totfact> 0.52549422E+04</totfact>
</mgrwt>
</event>
<event>
 4    1  0.7653521E+003  0.2275005E+02  0.7546771E-02  0.1695594E+00
          2   -1    0    0  501    0  0.00000000000E+00  0.00000000000E+00  0.40776344827E+02  0.40776344827E+02  0.00000000000E+00 0. -1.
         -2   -1    0    0    0  501 -0.00000000000E+00 -0.00000000000E+00 -0.17062256639E+02  0.17062256639E+02  0.00000000000E+00 0. -1.
          2    1    1    2  502    0  0.22668687487E+02  0.19221822859E+01 -0.27777116518E+01  0.22918984689E+02  0.00000000000E+00 0. -1.
         -2    1    1    2    0  502 -0.22668687487E+02 -0.19221822859E+01  0.26491799839E+02  0.34919616777E+02  0.00000000000E+00 0. -1.
<mgrwt>
<rscale>  2 0.22750048E+02</rscale>
<asrwt>0</asrwt>
<pdfrwt beam="1">  1        2 0.62732838E-02 0.22750048E+02</pdfrwt>
<pdfrwt beam="2">  1       -2 0.26249626E-02 0.22750048E+02</pdfrwt>
<totfact> 0.34343088E+05</totfact>
</mgrwt>
</event>
<event>
 4    1  0.7653521E+003  0.2203948E+02  0.7546771E-02  0.1707570E+00
         -2   -1    0    0    0  501 -0.00000000000E+00  0.00000000000E+00  0.26649341935E+01  0.26649341935E+01  0.00000000000E+00 0. -1.
          2   -1    0    0  501    0  0.00000000000E+00 -0.00000000000E+00 -0.55062894348E+03  0.55062894348E+03  0.00000000000E+00 0.  1.
          2    1    1    2  502    0 -0.20609808650E+02 -0.78086034230E+01 -0.50025449220E+03  0.50073974824E+03  0.00000000000E+00 0.  1.
         -2    1    1    2    0  502  0.20609808650E+02  0.78086034230E+01 -0.47709517084E+02  0.52554129432E+02  0.00000000000E+00 0. -1.
<mgrwt>
<rscale>  2 0.22039476E+02</rscale>
<asrwt>0</asrwt>
<pdfrwt beam="2">  1        2 0.84712281E-01 0.22039476E+02</pdfrwt>
<pdfrwt beam="1">  1       -2 0.40998922E-03 0.22039476E+02</pdfrwt>
<totfact> 0.26494180E+05</totfact>
</mgrwt>
</event>
<event>
 4    1  0.7653521E+003  0.2177181E+02  0.7546771E-02  0.1712229E+00
         -2   -1    0    0    0  501 -0.00000000000E+00  0.00000000000E+00  0.28766714580E+00  0.28766714580E+00  0.00000000000E+00 0. -1.
          2   -1    0    0  501    0  0.00000000000E+00 -0.00000000000E+00 -0.16991807921E+04  0.16991807921E+04  0.00000000000E+00 0. -1.
          2    1    1    2  502    0  0.12885675986E+02  0.17549091755E+02 -0.70165097197E+03  0.70198867351E+03  0.00000000000E+00 0. -1.
         -2    1    1    2    0  502 -0.12885675986E+02 -0.17549091755E+02 -0.99724215296E+03  0.99747978571E+03  0.00000000000E+00 0. -1.
<mgrwt>
<rscale>  2 0.21771811E+02</rscale>
<asrwt>0</asrwt>
<pdfrwt beam="2">  1        2 0.26142034E+00 0.21771811E+02</pdfrwt>
<pdfrwt beam="1">  1       -2 0.44255144E-04 0.21771811E+02</pdfrwt>
<totfact> 0.11679122E+06</totfact>
</mgrwt>
</event>
<event>
 4    1  0.7653521E+003  0.2113363E+02  0.7546771E-02  0.1723681E+00
         -2   -1    0    0    0  501 -0.00000000000E+00  0.00000000000E+00  0.58809191475E+01  0.58809191475E+01  0.00000000000E+00 0.  1.
          2   -1    0    0  501    0  0.00000000000E+00 -0.00000000000E+00 -0.95547055457E+03  0.95547055457E+03  0.00000000000E+00 0. -1.
          2    1    1    2  502    0 -0.20803218555E+02 -0.37224389570E+01 -0.93597178400E+03  0.93621034543E+03  0.00000000000E+00 0. -1.
         -2    1    1    2    0  502  0.20803218555E+02  0.37224389570E+01 -0.13617851424E+02  0.25141128285E+02  0.00000000000E+00 0.  1.
<mgrwt>
<rscale>  2 0.21133633E+02</rscale>
<asrwt>0</asrwt>
<pdfrwt beam="2">  1        2 0.14699540E+00 0.21133633E+02</pdfrwt>
<pdfrwt beam="1">  1       -2 0.90475724E-03 0.21133633E+02</pdfrwt>
<totfact> 0.49563813E+04</totfact>
</mgrwt>
</event>
<event>
 4    1  0.7653521E+003  0.2249387E+02  0.7546771E-02  0.1699848E+00
         -2   -1    0    0    0  501 -0.00000000000E+00  0.00000000000E+00  0.22276784215E+00  0.22276784215E+00  0.00000000000E+00 0. -1.
          2   -1    0    0  501    0  0.00000000000E+00 -0.00000000000E+00 -0.24075942560E+04  0.24075942560E+04  0.00000000000E+00 0. -1.
          2    1    1    2  502    0  0.18762836519E+02  0.12406829877E+02 -0.91724522786E+03  0.91752099784E+03  0.00000000000E+00 0. -1.
         -2    1    1    2    0  502 -0.18762836519E+02 -0.12406829877E+02 -0.14901262603E+04  0.14902960260E+04  0.00000000000E+00 0. -1.
<mgrwt>
<rscale>  2 0.22493865E+02</rscale>
<asrwt>0</asrwt>
<pdfrwt beam="2">  1        2 0.37038140E+00 0.22493865E+02</pdfrwt>
<pdfrwt beam="1">  1       -2 0.34273615E-04 0.22493865E+02</pdfrwt>
<totfact> 0.76790685E+05</totfact>
</mgrwt>
</event>
<event>
 4    1  0.7653521E+003  0.3314996E+02  0.7546771E-02  0.1565671E+00
          2   -1    0    0  501    0  0.00000000000E+00  0.00000000000E+00  0.15478645244E+04  0.15478645244E+04  0.00000000000E+00 0.  1.
         -2   -1    0    0    0  501 -0.00000000000E+00 -0.00000000000E+00 -0.89560138888E+01  0.89560138888E+01  0.00000000000E+00 0. -1.
          2    1    1    2  502    0  0.27382163165E+02 -0.18685207759E+02  0.15163746132E+04  0.15167369210E+04  0.00000000000E+00 0.  1.
         -2    1    1    2    0  502 -0.27382163165E+02  0.18685207759E+02  0.22533897269E+02  0.40083617286E+02  0.00000000000E+00 0. -1.
<mgrwt>
<rscale>  2 0.33149960E+02</rscale>
<asrwt>0</asrwt>
<pdfrwt beam="1">  1        2 0.23813279E+00 0.33149960E+02</pdfrwt>
<pdfrwt beam="2">  1       -2 0.13778495E-02 0.33149960E+02</pdfrwt>
<totfact> 0.14976214E+04</totfact>
</mgrwt>
</event>
<event>
 4    1  0.7653521E+003  0.2421086E+02  0.7546771E-02  0.1672602E+00
          2   -1    0    0  501    0  0.00000000000E+00  0.00000000000E+00  0.79236156016E+03  0.79236156016E+03  0.00000000000E+00 0. -1.
         -2   -1    0    0    0  501 -0.00000000000E+00 -0.00000000000E+00 -0.15919607724E+02  0.15919607724E+02  0.00000000000E+00 0.  1.
          2    1    1    2  502    0  0.21006354820E+02 -0.12037398336E+02  0.78285982667E+03  0.78323411195E+03  0.00000000000E+00 0. -1.
         -2    1    1    2    0  502 -0.21006354820E+02  0.12037398336E+02 -0.64178742336E+01  0.25047055939E+02  0.00000000000E+00 0.  1.
<mgrwt>
<rscale>  2 0.24210863E+02</rscale>
<asrwt>0</asrwt>
<pdfrwt beam="1">  1        2 0.12190175E+00 0.24210863E+02</pdfrwt>
<pdfrwt beam="2">  1       -2 0.24491710E-02 0.24210863E+02</pdfrwt>
<totfact> 0.16252538E+04</totfact>
</mgrwt>
</event>
<event>
 4    1  0.7653521E+003  0.2696980E+02  0.7546771E-02  0.1634221E+00
         -2   -1    0    0    0  501 -0.00000000000E+00  0.00000000000E+00  0.36542376179E+03  0.36542376179E+03  0.00000000000E+00 0.  1.
          2   -1    0    0  501    0  0.00000000000E+00 -0.00000000000E+00 -0.54841614025E+01  0.54841614025E+01  0.00000000000E+00 0.  1.
          2    1    1    2  502    0  0.21006217799E+02 -0.16914762530E+02  0.31949131126E+02  0.41810493388E+02  0.00000000000E+00 0.  1.
         -2    1    1    2    0  502 -0.21006217799E+02  0.16914762530E+02  0.32799046926E+03  0.32909742981E+03  0.00000000000E+00 0.  1.
<mgrwt>
<rscale>  2 0.26969805E+02</rscale>
<asrwt>0</asrwt>
<pdfrwt beam="2">  1        2 0.84371743E-03 0.26969805E+02</pdfrwt>
<pdfrwt beam="1">  1       -2 0.56219021E-01 0.26969805E+02</pdfrwt>
<totfact> 0.37506633E+04</totfact>
</mgrwt>
</event>
<event>
 4    1  0.7653521E+003  0.2322524E+02  0.7546771E-02  0.1687885E+00
         -2   -1    0    0    0  501 -0.00000000000E+00  0.00000000000E+00  0.77293839176E+01  0.77293839176E+01  0.00000000000E+00 0.  1.
          2   -1    0    0  501    0  0.00000000000E+00 -0.00000000000E+00 -0.18513073544E+03  0.18513073544E+03  0.00000000000E+00 0.  1.
          2    1    1    2  502    0  0.19450025779E+02 -0.12692841076E+02 -0.16481561160E+03  0.16644397720E+03  0.00000000000E+00 0.  1.
         -2    1    1    2    0  502 -0.19450025779E+02  0.12692841076E+02 -0.12585739922E+02  0.26416142162E+02  0.00000000000E+00 0.  1.
<mgrwt>
<rscale>  2 0.23225239E+02</rscale>
<asrwt>0</asrwt>
<pdfrwt beam="2">  1        2 0.28481653E-01 0.23225239E+02</pdfrwt>
<pdfrwt beam="1">  1       -2 0.11891359E-02 0.23225239E+02</pdfrwt>
<totfact> 0.18995974E+05</totfact>
</mgrwt>
</event>
<event>
 4    1  0.7653521E+003  0.2497752E+02  0.7546771E-02  0.1661325E+00
         -2   -1    0    0    0  501 -0.00000000000E+00  0.00000000000E+00  0.10681080990E+02  0.10681080990E+02  0.00000000000E+00 0. -1.
          2   -1    0    0  501    0  0.00000000000E+00 -0.00000000000E+00 -0.34337222942E+03  0.34337222942E+03  0.00000000000E+00 0. -1.
          2    1    1    2  502    0 -0.23336512826E+02  0.89041289437E+01 -0.32761429049E+03  0.32856506155E+03  0.00000000000E+00 0. -1.
         -2    1    1    2    0  502  0.23336512826E+02 -0.89041289437E+01 -0.50768579420E+01  0.25488248855E+02  0.00000000000E+00 0. -1.
<mgrwt>
<rscale>  2 0.24977517E+02</rscale>
<asrwt>0</asrwt>
<pdfrwt beam="2">  1        2 0.52826494E-01 0.24977517E+02</pdfrwt>
<pdfrwt beam="1">  1       -2 0.16432433E-02 0.24977517E+02</pdfrwt>
<totfact> 0.67169600E+04</totfact>
</mgrwt>
</event>
<event>
 4    1  0.7653521E+003  0.2225731E+02  0.7546771E-02  0.1703840E+00
         -2   -1    0    0    0  501 -0.00000000000E+00  0.00000000000E+00  0.13846819351E+03  0.13846819351E+03  0.00000000000E+00 0. -1.
          2   -1    0    0  501    0  0.00000000000E+00 -0.00000000000E+00 -0.15940161591E+03  0.15940161591E+03  0.00000000000E+00 0.  1.
          2    1    1    2  502    0  0.18629313853E+02 -0.12179349326E+02 -0.15772077450E+03  0.15928349128E+03  0.00000000000E+00 0.  1.
         -2    1    1    2    0  502 -0.18629313853E+02  0.12179349326E+02  0.13678735209E+03  0.13858631815E+03  0.00000000000E+00 0. -1.
<mgrwt>
<rscale>  2 0.22257311E+02</rscale>
<asrwt>0</asrwt>
<pdfrwt beam="2">  1        2 0.24523326E-01 0.22257311E+02</pdfrwt>
<pdfrwt beam="1">  1       -2 0.21302799E-01 0.22257311E+02</pdfrwt>
<totfact> 0.34183949E+03</totfact>
</mgrwt>
</event>
<event>
 4    1  0.7653521E+003  0.2094329E+02  0.7546771E-02  0.1727195E+00
         -2   -1    0    0    0  501 -0.00000000000E+00  0.00000000000E+00  0.14353059265E+02  0.14353059265E+02  0.00000000000E+00 0.  1.
          2   -1    0    0  501    0  0.00000000000E+00 -0.00000000000E+00 -0.95059282566E+02  0.95059282566E+02  0.00000000000E+00 0.  1.
          2    1    1    2  502    0 -0.20349008762E+02  0.49537006714E+01 -0.85415936548E+02  0.87946026199E+02  0.00000000000E+00 0.  1.
         -2    1    1    2    0  502  0.20349008762E+02 -0.49537006714E+01  0.47097132465E+01  0.21466315631E+02  0.00000000000E+00 0.  1.
<mgrwt>
<rscale>  2 0.20943288E+02</rscale>
<asrwt>0</asrwt>
<pdfrwt beam="2">  1        2 0.14624506E-01 0.20943288E+02</pdfrwt>
<pdfrwt beam="1">  1       -2 0.22081629E-02 0.20943288E+02</pdfrwt>
<totfact> 0.16059520E+05</totfact>
</mgrwt>
</event>
<event>
 4    1  0.7653521E+003  0.2242841E+02  0.7546771E-02  0.1700946E+00
          2   -1    0    0  501    0  0.00000000000E+00  0.00000000000E+00  0.18635428627E+03  0.18635428627E+03  0.00000000000E+00 0.  1.
         -2   -1    0    0    0  501 -0.00000000000E+00 -0.00000000000E+00 -0.27137690098E+01  0.27137690098E+01  0.00000000000E+00 0.  1.
          2    1    1    2  502    0 -0.78965722065E+01 -0.20992314313E+02  0.84926475143E+02  0.87838142586E+02  0.00000000000E+00 0.  1.
         -2    1    1    2    0  502  0.78965722065E+01  0.20992314313E+02  0.98714042116E+02  0.10122991269E+03  0.00000000000E+00 0.  1.
<mgrwt>
<rscale>  2 0.22428411E+02</rscale>
<asrwt>0</asrwt>
<pdfrwt beam="1">  1        2 0.28669880E-01 0.22428411E+02</pdfrwt>
<pdfrwt beam="2">  1       -2 0.41750307E-03 0.22428411E+02</pdfrwt>
<totfact> 0.76346263E+05</totfact>
</mgrwt>
</event>
<event>
 4    1  0.7653521E+003  0.2428751E+02  0.7546771E-02  0.1671452E+00
          2   -1    0    0  501    0  0.00000000000E+00  0.00000000000E+00  0.11833533857E+04  0.11833533857E+04  0.00000000000E+00 0.  1.
         -2   -1    0    0    0  501 -0.00000000000E+00 -0.00000000000E+00 -0.13932161379E+03  0.13932161379E+03  0.00000000000E+00 0.  1.
          2    1    1    2  502    0 -0.24213801027E+02  0.18908108621E+01  0.11821692123E+04  0.11824186779E+04  0.00000000000E+00 0.  1.
         -2    1    1    2    0  502  0.24213801027E+02 -0.18908108621E+01 -0.13813744036E+03  0.14025632162E+03  0.00000000000E+00 0.  1.
<mgrwt>
<rscale>  2 0.24287514E+02</rscale>
<asrwt>0</asrwt>
<pdfrwt beam="1">  1        2 0.18205436E+00 0.24287514E+02</pdfrwt>
<pdfrwt beam="2">  1       -2 0.21434095E-01 0.24287514E+02</pdfrwt>
<totfact> 0.40573789E+02</totfact>
</mgrwt>
</event>
<event>
 4    1  0.7653521E+003  0.2347169E+02  0.7546771E-02  0.1683976E+00
          2   -1    0    0  501    0  0.00000000000E+00  0.00000000000E+00  0.36468851288E+02  0.36468851288E+02  0.00000000000E+00 0.  1.
         -2   -1    0    0    0  501 -0.00000000000E+00 -0.00000000000E+00 -0.23343196971E+02  0.23343196971E+02  0.00000000000E+00 0. -1.
          2    1    1    2  502    0 -0.69843095320E+01 -0.22408475739E+02  0.24327303445E+02  0.33804408847E+02  0.00000000000E+00 0.  1.
         -2    1    1    2    0  502  0.69843095320E+01  0.22408475739E+02 -0.11201649128E+02  0.26007639412E+02  0.00000000000E+00 0. -1.
<mgrwt>
<rscale>  2 0.23471693E+02</rscale>
<asrwt>0</asrwt>
<pdfrwt beam="1">  1        2 0.56105925E-02 0.23471693E+02</pdfrwt>
<pdfrwt beam="2">  1       -2 0.35912611E-02 0.23471693E+02</pdfrwt>
<totfact> 0.25650550E+05</totfact>
</mgrwt>
</event>
<event>
 4    1  0.7653521E+003  0.5627881E+02  0.7546771E-02  0.1414146E+00
         -2   -1    0    0    0  501 -0.00000000000E+00  0.00000000000E+00  0.57683085076E+01  0.57683085076E+01  0.00000000000E+00 0. -1.
          2   -1    0    0  501    0  0.00000000000E+00 -0.00000000000E+00 -0.60068810024E+03  0.60068810024E+03  0.00000000000E+00 0. -1.
          2    1    1    2  502    0 -0.74137472870E+00 -0.56273930930E+02 -0.38633360423E+03  0.39041126866E+03  0.00000000000E+00 0. -1.
         -2    1    1    2    0  502  0.74137472870E+00  0.56273930930E+02 -0.20858618750E+03  0.21604514008E+03  0.00000000000E+00 0. -1.
<mgrwt>
<rscale>  2 0.56278814E+02</rscale>
<asrwt>0</asrwt>
<pdfrwt beam="2">  1        2 0.92413499E-01 0.56278814E+02</pdfrwt>
<pdfrwt beam="1">  1       -2 0.88743261E-03 0.56278814E+02</pdfrwt>
<totfact> 0.10302480E+05</totfact>
</mgrwt>
</event>
<event>
 4    1  0.7653521E+003  0.2536935E+02  0.7546771E-02  0.1655753E+00
          2   -1    0    0  501    0  0.00000000000E+00  0.00000000000E+00  0.25181398367E+03  0.25181398367E+03  0.00000000000E+00 0. -1.
         -2   -1    0    0    0  501 -0.00000000000E+00 -0.00000000000E+00 -0.16393891159E+02  0.16393891159E+02  0.00000000000E+00 0. -1.
          2    1    1    2  502    0 -0.15047239472E+02 -0.20425091957E+02  0.24091764724E+03  0.24224969875E+03  0.00000000000E+00 0. -1.
         -2    1    1    2    0  502  0.15047239472E+02  0.20425091957E+02 -0.54975547245E+01  0.25958176075E+02  0.00000000000E+00 0. -1.
<mgrwt>
<rscale>  2 0.25369348E+02</rscale>
<asrwt>0</asrwt>
<pdfrwt beam="1">  1        2 0.38740610E-01 0.25369348E+02</pdfrwt>
<pdfrwt beam="2">  1       -2 0.25221373E-02 0.25369348E+02</pdfrwt>
<totfact> 0.50771382E+04</totfact>
</mgrwt>
</event>
<event>
 4    1  0.7653521E+003  0.2436228E+02  0.7546771E-02  0.1670334E+00
         -2   -1    0    0    0  501 -0.00000000000E+00  0.00000000000E+00  0.85577306860E+02  0.85577306860E+02  0.00000000000E+00 0.  1.
          2   -1    0    0  501    0  0.00000000000E+00 -0.00000000000E+00 -0.13142788092E+03  0.13142788092E+03  0.00000000000E+00 0.  1.
          2    1    1    2  502    0  0.14125576064E+02  0.19849155494E+02 -0.12852622246E+03  0.13081479555E+03  0.00000000000E+00 0.  1.
         -2    1    1    2    0  502 -0.14125576064E+02 -0.19849155494E+02  0.82675648408E+02  0.86190392229E+02  0.00000000000E+00 0.  1.
<mgrwt>
<rscale>  2 0.24362284E+02</rscale>
<asrwt>0</asrwt>
<pdfrwt beam="2">  1        2 0.20219674E-01 0.24362284E+02</pdfrwt>
<pdfrwt beam="1">  1       -2 0.13165740E-01 0.24362284E+02</pdfrwt>
<totfact> 0.90361848E+03</totfact>
</mgrwt>
</event>
<event>
 4    1  0.7653521E+003  0.2146465E+02  0.7546771E-02  0.1717679E+00
          2   -1    0    0  501    0  0.00000000000E+00  0.00000000000E+00  0.79515405013E+03  0.79515405013E+03  0.00000000000E+00 0. -1.
         -2   -1    0    0    0  501 -0.00000000000E+00 -0.00000000000E+00 -0.38938621299E+01  0.38938621299E+01  0.00000000000E+00 0.  1.
          2    1    1    2  502    0  0.18223326368E+02  0.11342023633E+02  0.76423194888E+03  0.76453332355E+03  0.00000000000E+00 0. -1.
         -2    1    1    2    0  502 -0.18223326368E+02 -0.11342023633E+02  0.27028239111E+02  0.34514588705E+02  0.00000000000E+00 0.  1.
<mgrwt>
<rscale>  2 0.21464648E+02</rscale>
<asrwt>0</asrwt>
<pdfrwt beam="1">  1        2 0.12233126E+00 0.21464648E+02</pdfrwt>
<pdfrwt beam="2">  1       -2 0.59905634E-03 0.21464648E+02</pdfrwt>
<totfact> 0.10713446E+05</totfact>
</mgrwt>
</event>
<event>
 4    1  0.7653521E+003  0.2295065E+02  0.7546771E-02  0.1692311E+00
          2   -1    0    0  501    0  0.00000000000E+00  0.00000000000E+00  0.34246314860E+01  0.34246314860E+01  0.00000000000E+00 0.  1.
         -2   -1    0    0    0  501 -0.00000000000E+00 -0.00000000000E+00 -0.15780564604E+03  0.15780564604E+03  0.00000000000E+00 0.  1.
          2    1    1    2  502    0 -0.63986503856E+01 -0.22040621352E+02 -0.90023294491E+02  0.92902773195E+02  0.00000000000E+00 0.  1.
         -2    1    1    2    0  502  0.63986503856E+01  0.22040621352E+02 -0.64357720060E+02  0.68327504328E+02  0.00000000000E+00 0.  1.
<mgrwt>
<rscale>  2 0.22950648E+02</rscale>
<asrwt>0</asrwt>
<pdfrwt beam="1">  1        2 0.52686642E-03 0.22950648E+02</pdfrwt>
<pdfrwt beam="2">  1       -2 0.24277790E-01 0.22950648E+02</pdfrwt>
<totfact> 0.30065093E+05</totfact>
</mgrwt>
</event>
<event>
 4    1  0.7653521E+003  0.2290759E+02  0.7546771E-02  0.1693012E+00
          2   -1    0    0  501    0  0.00000000000E+00  0.00000000000E+00  0.13691969940E+01  0.13691969940E+01  0.00000000000E+00 0. -1.
         -2   -1    0    0    0  501 -0.00000000000E+00 -0.00000000000E+00 -0.57974937480E+03  0.57974937480E+03  0.00000000000E+00 0.  1.
          2    1    1    2  502    0  0.18425698504E+02 -0.13610709542E+02 -0.12003514970E+03  0.12220145230E+03  0.00000000000E+00 0. -1.
         -2    1    1    2    0  502 -0.18425698504E+02  0.13610709542E+02 -0.45834502810E+03  0.45891711949E+03  0.00000000000E+00 0.  1.
<mgrwt>
<rscale>  2 0.22907592E+02</rscale>
<asrwt>0</asrwt>
<pdfrwt beam="1">  1        2 0.21064512E-03 0.22907592E+02</pdfrwt>
<pdfrwt beam="2">  1       -2 0.89192453E-01 0.22907592E+02</pdfrwt>
<totfact> 0.86360667E+04</totfact>
</mgrwt>
</event>
<event>
 4    1  0.7653521E+003  0.2557474E+02  0.7546771E-02  0.1652881E+00
         -2   -1    0    0    0  501 -0.00000000000E+00  0.00000000000E+00  0.14611012071E+02  0.14611012071E+02  0.00000000000E+00 0.  1.
          2   -1    0    0  501    0  0.00000000000E+00 -0.00000000000E+00 -0.10351901996E+03  0.10351901996E+03  0.00000000000E+00 0.  1.
          2    1    1    2  502    0 -0.14463189071E+02 -0.21092263300E+02 -0.88951714199E+02  0.92555253055E+02  0.00000000000E+00 0.  1.
         -2    1    1    2    0  502  0.14463189071E+02  0.21092263300E+02  0.43706312812E-01  0.25574778972E+02  0.00000000000E+00 0.  1.
<mgrwt>
<rscale>  2 0.25574742E+02</rscale>
<asrwt>0</asrwt>
<pdfrwt beam="2">  1        2 0.15926003E-01 0.25574742E+02</pdfrwt>
<pdfrwt beam="1">  1       -2 0.22478480E-02 0.25574742E+02</pdfrwt>
<totfact> 0.15039488E+05</totfact>
</mgrwt>
</event>
<event>
 4    1  0.7653521E+003  0.2090406E+02  0.7546771E-02  0.1727925E+00
         -2   -1    0    0    0  501 -0.00000000000E+00  0.00000000000E+00  0.84234807982E+03  0.84234807982E+03  0.00000000000E+00 0.  1.
          2   -1    0    0  501    0  0.00000000000E+00 -0.00000000000E+00 -0.12456174291E+02  0.12456174291E+02  0.00000000000E+00 0.  1.
          2    1    1    2  502    0 -0.20305158084E+02  0.49679415864E+01 -0.34614895353E+01  0.21188718655E+02  0.00000000000E+00 0.  1.
         -2    1    1    2    0  502  0.20305158084E+02 -0.49679415864E+01  0.83335339507E+03  0.83361553546E+03  0.00000000000E+00 0.  1.
<mgrwt>
<rscale>  2 0.20904064E+02</rscale>
<asrwt>0</asrwt>
<pdfrwt beam="2">  1        2 0.19163352E-02 0.20904064E+02</pdfrwt>
<pdfrwt beam="1">  1       -2 0.12959197E+00 0.20904064E+02</pdfrwt>
<totfact> 0.20479054E+03</totfact>
</mgrwt>
</event>
<event>
 4    1  0.7653521E+003  0.5782007E+02  0.7546771E-02  0.1407214E+00
          2   -1    0    0  501    0  0.00000000000E+00  0.00000000000E+00  0.50624491664E+03  0.50624491664E+03  0.00000000000E+00 0. -1.
         -2   -1    0    0    0  501 -0.00000000000E+00 -0.00000000000E+00 -0.47301932490E+02  0.47301932490E+02  0.00000000000E+00 0.  1.
          2    1    1    2  502    0 -0.52823409159E+02  0.23512727682E+02  0.48619874131E+03  0.48962473076E+03  0.00000000000E+00 0. -1.
         -2    1    1    2    0  502  0.52823409159E+02 -0.23512727682E+02 -0.27255757164E+02  0.63922118369E+02  0.00000000000E+00 0.  1.
<mgrwt>
<rscale>  2 0.57820074E+02</rscale>
<asrwt>0</asrwt>
<pdfrwt beam="1">  1        2 0.77883830E-01 0.57820074E+02</pdfrwt>
<pdfrwt beam="2">  1       -2 0.72772207E-02 0.57820074E+02</pdfrwt>
<totfact> 0.60971902E+03</totfact>
</mgrwt>
</event>
<event>
 4    1  0.7653521E+003  0.3936668E+02  0.7546771E-02  0.1512924E+00
         -2   -1    0    0    0  501 -0.00000000000E+00  0.00000000000E+00  0.31813104093E+01  0.31813104093E+01  0.00000000000E+00 0.  1.
          2   -1    0    0  501    0  0.00000000000E+00 -0.00000000000E+00 -0.50525004166E+03  0.50525004166E+03  0.00000000000E+00 0.  1.
          2    1    1    2  502    0 -0.35924357654E+02 -0.16098942868E+02 -0.29916698202E+03  0.30174595037E+03  0.00000000000E+00 0.  1.
         -2    1    1    2    0  502  0.35924357654E+02  0.16098942868E+02 -0.20290174923E+03  0.20668540170E+03  0.00000000000E+00 0.  1.
<mgrwt>
<rscale>  2 0.39366679E+02</rscale>
<asrwt>0</asrwt>
<pdfrwt beam="2">  1        2 0.77730801E-01 0.39366679E+02</pdfrwt>
<pdfrwt beam="1">  1       -2 0.48943221E-03 0.39366679E+02</pdfrwt>
<totfact> 0.26273377E+05</totfact>
</mgrwt>
</event>
<event>
 4    1  0.7653521E+003  0.2260310E+02  0.7546771E-02  0.1698026E+00
          2   -1    0    0  501    0  0.00000000000E+00  0.00000000000E+00  0.22243221636E+04  0.22243221636E+04  0.00000000000E+00 0. -1.
         -2   -1    0    0    0  501 -0.00000000000E+00 -0.00000000000E+00 -0.29624700086E+00  0.29624700086E+00  0.00000000000E+00 0.  1.
          2    1    1    2  502    0 -0.20710427909E+02 -0.90541978396E+01  0.16392448033E+04  0.16394006300E+04  0.00000000000E+00 0. -1.
         -2    1    1    2    0  502  0.20710427909E+02  0.90541978396E+01  0.58478111325E+03  0.58521778060E+03  0.00000000000E+00 0.  1.
<mgrwt>
<rscale>  2 0.22603104E+02</rscale>
<asrwt>0</asrwt>
<pdfrwt beam="1">  1        2 0.34219004E+00 0.22603104E+02</pdfrwt>
<pdfrwt beam="2">  1       -2 0.45578243E-04 0.22603104E+02</pdfrwt>
<totfact> 0.64685753E+05</totfact>
</mgrwt>
</event>
<event>
 4    1  0.7653521E+003  0.2035546E+02  0.7546771E-02  0.1738350E+00
          2   -1    0    0  501    0  0.00000000000E+00  0.00000000000E+00  0.13982993961E+03  0.13982993961E+03  0.00000000000E+00 0. -1.
         -2   -1    0    0    0  501 -0.00000000000E+00 -0.00000000000E+00 -0.30595451846E+01  0.30595451846E+01  0.00000000000E+00 0.  1.
          2    1    1    2  502    0  0.13975543341E+02 -0.14799623778E+02  0.81063093575E+02  0.83579721318E+02  0.00000000000E+00 0. -1.
         -2    1    1    2    0  502 -0.13975543341E+02  0.14799623778E+02  0.55707300853E+02  0.59309763480E+02  0.00000000000E+00 0.  1.
<mgrwt>
<rscale>  2 0.20355458E+02</rscale>
<asrwt>0</asrwt>
<pdfrwt beam="1">  1        2 0.21512293E-01 0.20355458E+02</pdfrwt>
<pdfrwt beam="2">  1       -2 0.47069937E-03 0.20355458E+02</pdfrwt>
<totfact> 0.84680338E+05</totfact>
</mgrwt>
</event>
<event>
 4    1  0.7653521E+003  0.2647638E+02  0.7546771E-02  0.1640659E+00
          2   -1    0    0  501    0  0.00000000000E+00  0.00000000000E+00  0.10344778038E+03  0.10344778038E+03  0.00000000000E+00 0.  1.
         -2   -1    0    0    0  501 -0.00000000000E+00 -0.00000000000E+00 -0.14283059393E+02  0.14283059393E+02  0.00000000000E+00 0. -1.
          2    1    1    2  502    0 -0.20076271630E+01  0.26400153752E+02  0.87257439891E+02  0.91185851431E+02  0.00000000000E+00 0.  1.
         -2    1    1    2    0  502  0.20076271630E+01 -0.26400153752E+02  0.19072810967E+01  0.26544988343E+02  0.00000000000E+00 0. -1.
<mgrwt>
<rscale>  2 0.26476380E+02</rscale>
<asrwt>0</asrwt>
<pdfrwt beam="1">  1        2 0.15915043E-01 0.26476380E+02</pdfrwt>
<pdfrwt beam="2">  1       -2 0.21973938E-02 0.26476380E+02</pdfrwt>
<totfact> 0.15665544E+05</totfact>
</mgrwt>
</event>
<event>
 4    1  0.7653521E+003  0.2602421E+02  0.7546771E-02  0.1646712E+00
         -2   -1    0    0    0  501 -0.00000000000E+00  0.00000000000E+00  0.56611634375E+01  0.56611634375E+01  0.00000000000E+00 0.  1.
          2   -1    0    0  501    0  0.00000000000E+00 -0.00000000000E+00 -0.22656308237E+03  0.22656308237E+03  0.00000000000E+00 0.  1.
          2    1    1    2  502    0 -0.14060151313E+02 -0.21899125953E+02 -0.19021989602E+03  0.19199184465E+03  0.00000000000E+00 0.  1.
         -2    1    1    2    0  502  0.14060151313E+02  0.21899125953E+02 -0.30682022915E+02  0.40232401154E+02  0.00000000000E+00 0.  1.
<mgrwt>
<rscale>  2 0.26024211E+02</rscale>
<asrwt>0</asrwt>
<pdfrwt beam="2">  1        2 0.34855862E-01 0.26024211E+02</pdfrwt>
<pdfrwt beam="1">  1       -2 0.87094814E-03 0.26024211E+02</pdfrwt>
<totfact> 0.24346282E+05</totfact>
</mgrwt>
</event>
<event>
 4    1  0.7653521E+003  0.2192493E+02  0.7546771E-02  0.1709554E+00
          2   -1    0    0  501    0  0.00000000000E+00  0.00000000000E+00  0.25666950945E+03  0.25666950945E+03  0.00000000000E+00 0.  1.
         -2   -1    0    0    0  501 -0.00000000000E+00 -0.00000000000E+00 -0.44493422052E+01  0.44493422052E+01  0.00000000000E+00 0. -1.
          2    1    1    2  502    0 -0.19325794149E+02 -0.10354522201E+02  0.22546173387E+03  0.22652526546E+03  0.00000000000E+00 0.  1.
         -2    1    1    2    0  502  0.19325794149E+02  0.10354522201E+02  0.26758433370E+02  0.34593586196E+02  0.00000000000E+00 0. -1.
<mgrwt>
<rscale>  2 0.21924928E+02</rscale>
<asrwt>0</asrwt>
<pdfrwt beam="1">  1        2 0.39487605E-01 0.21924928E+02</pdfrwt>
<pdfrwt beam="2">  1       -2 0.68451438E-03 0.21924928E+02</pdfrwt>
<totfact> 0.28391081E+05</totfact>
</mgrwt>
</event>
<event>
 4    1  0.7653521E+003  0.3195325E+02  0.7546771E-02  0.1577450E+00
          2   -1    0    0  501    0  0.00000000000E+00  0.00000000000E+00  0.13647776562E+02  0.13647776562E+02  0.00000000000E+00 0.  1.
         -2   -1    0    0    0  501 -0.00000000000E+00 -0.00000000000E+00 -0.10876883421E+03  0.10876883421E+03  0.00000000000E+00 0.  1.
          2    1    1    2  502    0  0.89078852188E+01  0.30686475671E+02 -0.13360606948E+02  0.34634029887E+02  0.00000000000E+00 0.  1.
         -2    1    1    2    0  502 -0.89078852188E+01 -0.30686475671E+02 -0.81760450698E+02  0.87782580883E+02  0.00000000000E+00 0.  1.
<mgrwt>
<rscale>  2 0.31953250E+02</rscale>
<asrwt>0</asrwt>
<pdfrwt beam="1">  1        2 0.20996579E-02 0.31953250E+02</pdfrwt>
<pdfrwt beam="2">  1       -2 0.16733667E-01 0.31953250E+02</pdfrwt>
<totfact> 0.98675127E+04</totfact>
</mgrwt>
</event>
<event>
 4    1  0.7653521E+003  0.2676738E+02  0.7546771E-02  0.1636841E+00
         -2   -1    0    0    0  501 -0.00000000000E+00  0.00000000000E+00  0.10093360391E+02  0.10093360391E+02  0.00000000000E+00 0. -1.
          2   -1    0    0  501    0  0.00000000000E+00 -0.00000000000E+00 -0.25049890195E+03  0.25049890195E+03  0.00000000000E+00 0.  1.
          2    1    1    2  502    0 -0.99956485706E+01  0.24831021108E+02 -0.23050284476E+03  0.23205183481E+03  0.00000000000E+00 0.  1.
         -2    1    1    2    0  502  0.99956485706E+01 -0.24831021108E+02 -0.99026968073E+01  0.28540427532E+02  0.00000000000E+00 0. -1.
<mgrwt>
<rscale>  2 0.26767379E+02</rscale>
<asrwt>0</asrwt>
<pdfrwt beam="2">  1        2 0.38538290E-01 0.26767379E+02</pdfrwt>
<pdfrwt beam="1">  1       -2 0.15528248E-02 0.26767379E+02</pdfrwt>
<totfact> 0.10075755E+05</totfact>
</mgrwt>
</event>
<event>
 4    1  0.7653521E+003  0.2266457E+02  0.7546771E-02  0.1697006E+00
         -2   -1    0    0    0  501 -0.00000000000E+00  0.00000000000E+00  0.41221909063E+02  0.41221909063E+02  0.00000000000E+00 0.  1.
          2   -1    0    0  501    0  0.00000000000E+00 -0.00000000000E+00 -0.48274980941E+03  0.48274980941E+03  0.00000000000E+00 0.  1.
          2    1    1    2  502    0 -0.58085409260E+01  0.21907615705E+02 -0.47934633239E+03  0.47988184916E+03  0.00000000000E+00 0.  1.
         -2    1    1    2    0  502  0.58085409260E+01 -0.21907615705E+02  0.37818432047E+02  0.44089869313E+02  0.00000000000E+00 0.  1.
<mgrwt>
<rscale>  2 0.22664571E+02</rscale>
<asrwt>0</asrwt>
<pdfrwt beam="2">  1        2 0.74269196E-01 0.22664571E+02</pdfrwt>
<pdfrwt beam="1">  1       -2 0.63418326E-02 0.22664571E+02</pdfrwt>
<totfact> 0.71291407E+03</totfact>
</mgrwt>
</event>
<event>
 4    1  0.7653521E+003  0.4607908E+02  0.7546771E-02  0.1467715E+00
         -2   -1    0    0    0  501 -0.00000000000E+00  0.00000000000E+00  0.42191803040E+01  0.42191803040E+01  0.00000000000E+00 0.  1.
          2   -1    0    0  501    0  0.00000000000E+00 -0.00000000000E+00 -0.74380053146E+03  0.74380053146E+03  0.00000000000E+00 0.  1.
          2    1    1    2  502    0  0.40232869226E+02 -0.22463249710E+02 -0.58248822526E+03  0.58430797866E+03  0.00000000000E+00 0.  1.
         -2    1    1    2    0  502 -0.40232869226E+02  0.22463249710E+02 -0.15709312590E+03  0.16371173311E+03  0.00000000000E+00 0.  1.
<mgrwt>
<rscale>  2 0.46079077E+02</rscale>
<asrwt>0</asrwt>
<pdfrwt beam="2">  1        2 0.11443076E+00 0.46079077E+02</pdfrwt>
<pdfrwt beam="1">  1       -2 0.64910516E-03 0.46079077E+02</pdfrwt>
<totfact> 0.12083133E+05</totfact>
</mgrwt>
</event>
<event>
 4    1  0.7653521E+003  0.2727573E+02  0.7546771E-02  0.1630314E+00
          2   -1    0    0  501    0  0.00000000000E+00  0.00000000000E+00  0.21389910871E+03  0.21389910871E+03  0.00000000000E+00 0.  1.
         -2   -1    0    0    0  501 -0.00000000000E+00 -0.00000000000E+00 -0.10867150875E+04  0.10867150875E+04  0.00000000000E+00 0.  1.
          2    1    1    2  502    0 -0.38125682946E+01 -0.27007953117E+02  0.21285759649E+03  0.21459804657E+03  0.00000000000E+00 0.  1.
         -2    1    1    2    0  502  0.38125682946E+01  0.27007953117E+02 -0.10856735753E+04  0.10860161496E+04  0.00000000000E+00 0.  1.
<mgrwt>
<rscale>  2 0.27275726E+02</rscale>
<asrwt>0</asrwt>
<pdfrwt beam="1">  1        2 0.32907556E-01 0.27275726E+02</pdfrwt>
<pdfrwt beam="2">  1       -2 0.16718693E+00 0.27275726E+02</pdfrwt>
<totfact> 0.40878233E+01</totfact>
</mgrwt>
</event>
<event>
 4    1  0.7653521E+003  0.2742101E+02  0.7546771E-02  0.1628480E+00
         -2   -1    0    0    0  501 -0.00000000000E+00  0.00000000000E+00  0.95095349759E+02  0.95095349759E+02  0.00000000000E+00 0.  1.
          2   -1    0    0  501    0  0.00000000000E+00 -0.00000000000E+00 -0.10437602969E+02  0.10437602969E+02  0.00000000000E+00 0.  1.
          2    1    1    2  502    0 -0.12715385704E+02 -0.24294669583E+02  0.16346670832E+02  0.31923747447E+02  0.00000000000E+00 0.  1.
         -2    1    1    2    0  502  0.12715385704E+02  0.24294669583E+02  0.68311075958E+02  0.73609205282E+02  0.00000000000E+00 0.  1.
<mgrwt>
<rscale>  2 0.27421014E+02</rscale>
<asrwt>0</asrwt>
<pdfrwt beam="2">  1        2 0.16057851E-02 0.27421014E+02</pdfrwt>
<pdfrwt beam="1">  1       -2 0.14630053E-01 0.27421014E+02</pdfrwt>
<totfact> 0.16613924E+05</totfact>
</mgrwt>
</event>
<event>
 4    1  0.7653521E+003  0.3677424E+02  0.7546771E-02  0.1533387E+00
          2   -1    0    0  501    0  0.00000000000E+00  0.00000000000E+00  0.50701572829E+03  0.50701572829E+03  0.00000000000E+00 0.  1.
         -2   -1    0    0    0  501 -0.00000000000E+00 -0.00000000000E+00 -0.75945986856E+01  0.75945986856E+01  0.00000000000E+00 0. -1.
          2    1    1    2  502    0 -0.87971987216E+01 -0.35706495560E+02  0.45696419259E+03  0.45844150973E+03  0.00000000000E+00 0.  1.
         -2    1    1    2    0  502  0.87971987216E+01  0.35706495560E+02  0.42456937013E+02  0.56168817248E+02  0.00000000000E+00 0. -1.
<mgrwt>
<rscale>  2 0.36774237E+02</rscale>
<asrwt>0</asrwt>
<pdfrwt beam="1">  1        2 0.78002393E-01 0.36774237E+02</pdfrwt>
<pdfrwt beam="2">  1       -2 0.11684002E-02 0.36774237E+02</pdfrwt>
<totfact> 0.78231855E+04</totfact>
</mgrwt>
</event>
<event>
 4    1  0.7653521E+003  0.2998720E+02  0.7546771E-02  0.1598230E+00
          2   -1    0    0  501    0  0.00000000000E+00  0.00000000000E+00  0.28269735098E+03  0.28269735098E+03  0.00000000000E+00 0. -1.
         -2   -1    0    0    0  501 -0.00000000000E+00 -0.00000000000E+00 -0.27640790631E+02  0.27640790631E+02  0.00000000000E+00 0.  1.
          2    1    1    2  502    0  0.29983930787E+02 -0.44273417326E+00  0.27349611988E+03  0.27513516625E+03  0.00000000000E+00 0. -1.
         -2    1    1    2    0  502 -0.29983930787E+02  0.44273417326E+00 -0.18439559526E+02  0.35202975365E+02  0.00000000000E+00 0.  1.
<mgrwt>
<rscale>  2 0.29987199E+02</rscale>
<asrwt>0</asrwt>
<pdfrwt beam="1">  1        2 0.43491898E-01 0.29987199E+02</pdfrwt>
<pdfrwt beam="2">  1       -2 0.42524295E-02 0.29987199E+02</pdfrwt>
<totfact> 0.22398357E+04</totfact>
</mgrwt>
</event>
<event>
 4    1  0.7653521E+003  0.2062838E+02  0.7546771E-02  0.1733113E+00
          2   -1    0    0  501    0  0.00000000000E+00  0.00000000000E+00  0.16343848454E+03  0.16343848454E+03  0.00000000000E+00 0.  1.
         -2   -1    0    0    0  501 -0.00000000000E+00 -0.00000000000E+00 -0.77233895191E+02  0.77233895191E+02  0.00000000000E+00 0.  1.
          2    1    1    2  502    0 -0.67949350892E+01 -0.19477139648E+02  0.16139278644E+03  0.16270575167E+03  0.00000000000E+00 0.  1.
         -2    1    1    2    0  502  0.67949350892E+01  0.19477139648E+02 -0.75188197083E+02  0.77966628069E+02  0.00000000000E+00 0.  1.
<mgrwt>
<rscale>  2 0.20628381E+02</rscale>
<asrwt>0</asrwt>
<pdfrwt beam="1">  1        2 0.25144382E-01 0.20628381E+02</pdfrwt>
<pdfrwt beam="2">  1       -2 0.11882138E-01 0.20628381E+02</pdfrwt>
<totfact> 0.82053240E+03</totfact>
</mgrwt>
</event>
<event>
 4    1  0.7653521E+003  0.2099579E+02  0.7546771E-02  0.1726221E+00
         -2   -1    0    0    0  501 -0.00000000000E+00  0.00000000000E+00  0.50140546358E+02  0.50140546358E+02  0.00000000000E+00 0.  1.
          2   -1    0    0  501    0  0.00000000000E+00 -0.00000000000E+00 -0.34648745717E+03  0.34648745717E+03  0.00000000000E+00 0. -1.
          2    1    1    2  502    0 -0.20483700914E+02 -0.46088231773E+01 -0.34395528735E+03  0.34459550628E+03  0.00000000000E+00 0. -1.
         -2    1    1    2    0  502  0.20483700914E+02  0.46088231773E+01  0.47608376532E+02  0.52032497251E+02  0.00000000000E+00 0.  1.
<mgrwt>
<rscale>  2 0.20995791E+02</rscale>
<asrwt>0</asrwt>
<pdfrwt beam="2">  1        2 0.53305763E-01 0.20995791E+02</pdfrwt>
<pdfrwt beam="1">  1       -2 0.77139302E-02 0.20995791E+02</pdfrwt>
<totfact> 0.73806213E+03</totfact>
</mgrwt>
</event>
<event>
 4    1  0.7653521E+003  0.3795317E+02  0.7546771E-02  0.1523838E+00
          2   -1    0    0  501    0  0.00000000000E+00  0.00000000000E+00  0.36047907390E+03  0.36047907390E+03  0.00000000000E+00 0. -1.
         -2   -1    0    0    0  501 -0.00000000000E+00 -0.00000000000E+00 -0.22893543437E+02  0.22893543437E+02  0.00000000000E+00 0.  1.
          2    1    1    2  502    0 -0.33483179898E+02  0.17869512009E+02  0.34294869587E+03  0.34504238985E+03  0.00000000000E+00 0. -1.
         -2    1    1    2    0  502  0.33483179898E+02 -0.17869512009E+02 -0.53631654114E+01  0.38330227481E+02  0.00000000000E+00 0.  1.
<mgrwt>
<rscale>  2 0.37953166E+02</rscale>
<asrwt>0</asrwt>
<pdfrwt beam="1">  1        2 0.55458315E-01 0.37953166E+02</pdfrwt>
<pdfrwt beam="2">  1       -2 0.35220839E-02 0.37953166E+02</pdfrwt>
<totfact> 0.23792374E+04</totfact>
</mgrwt>
</event>
<event>
 4    1  0.7653521E+003  0.2040445E+02  0.7546771E-02  0.1737403E+00
         -2   -1    0    0    0  501 -0.00000000000E+00  0.00000000000E+00  0.27294586266E+02  0.27294586266E+02  0.00000000000E+00 0.  1.
          2   -1    0    0  501    0  0.00000000000E+00 -0.00000000000E+00 -0.31599067498E+02  0.31599067498E+02  0.00000000000E+00 0. -1.
          2    1    1    2  502    0  0.10478308040E+02 -0.17508471432E+02 -0.23330957691E+02  0.30994759203E+02  0.00000000000E+00 0. -1.
         -2    1    1    2    0  502 -0.10478308040E+02  0.17508471432E+02  0.19026476458E+02  0.27898894561E+02  0.00000000000E+00 0.  1.
<mgrwt>
<rscale>  2 0.20404448E+02</rscale>
<asrwt>0</asrwt>
<pdfrwt beam="2">  1        2 0.48613950E-02 0.20404448E+02</pdfrwt>
<pdfrwt beam="1">  1       -2 0.41991671E-02 0.20404448E+02</pdfrwt>
<totfact> 0.23547321E+05</totfact>
</mgrwt>
</event>
<event>
 4    1  0.7653521E+003  0.2708033E+02  0.7546771E-02  0.1632802E+00
          2   -1    0    0  501    0  0.00000000000E+00  0.00000000000E+00  0.27480394939E+03  0.27480394939E+03  0.00000000000E+00 0. -1.
         -2   -1    0    0    0  501 -0.00000000000E+00 -0.00000000000E+00 -0.44025580957E+01  0.44025580957E+01  0.00000000000E+00 0.  1.
          2    1    1    2  502    0  0.19923928566E+02 -0.18340694521E+02  0.22281223188E+03  0.22445185382E+03  0.00000000000E+00 0. -1.
         -2    1    1    2    0  502 -0.19923928566E+02  0.18340694521E+02  0.47589159414E+02  0.54754653672E+02  0.00000000000E+00 0.  1.
<mgrwt>
<rscale>  2 0.27080325E+02</rscale>
<asrwt>0</asrwt>
<pdfrwt beam="1">  1        2 0.42277517E-01 0.27080325E+02</pdfrwt>
<pdfrwt beam="2">  1       -2 0.67731684E-03 0.27080325E+02</pdfrwt>
<totfact> 0.28512789E+05</totfact>
</mgrwt>
</event>
<event>
 4    1  0.7653521E+003  0.2109457E+02  0.7546771E-02  0.1724398E+00
         -2   -1    0    0    0  501 -0.00000000000E+00  0.00000000000E+00  0.18424042002E+01  0.18424042002E+01  0.00000000000E+00 0.  1.
          2   -1    0    0  501    0  0.00000000000E+00 -0.00000000000E+00 -0.82231836035E+03  0.82231836035E+03  0.00000000000E+00 0.  1.
          2    1    1    2  502    0 -0.20842343744E+02 -0.32523192145E+01 -0.75655508510E+03  0.75684911155E+03  0.00000000000E+00 0.  1.
         -2    1    1    2    0  502  0.20842343744E+02  0.32523192145E+01 -0.63920871052E+02  0.67311652996E+02  0.00000000000E+00 0.  1.
<mgrwt>
<rscale>  2 0.21094570E+02</rscale>
<asrwt>0</asrwt>
<pdfrwt beam="2">  1        2 0.12651056E+00 0.21094570E+02</pdfrwt>
<pdfrwt beam="1">  1       -2 0.28344669E-03 0.21094570E+02</pdfrwt>
<totfact> 0.27830098E+05</totfact>
</mgrwt>
</event>
<event>
 4    1  0.7653521E+003  0.2853523E+02  0.7546771E-02  0.1614868E+00
         -2   -1    0    0    0  501 -0.00000000000E+00  0.00000000000E+00  0.16035524224E+02  0.16035524224E+02  0.00000000000E+00 0. -1.
          2   -1    0    0  501    0  0.00000000000E+00 -0.00000000000E+00 -0.88468215665E+02  0.88468215665E+02  0.00000000000E+00 0. -1.
          2    1    1    2  502    0  0.28494041819E+02  0.15325541741E+01 -0.70321490256E+02  0.75890520708E+02  0.00000000000E+00 0. -1.
         -2    1    1    2    0  502 -0.28494041819E+02 -0.15325541741E+01 -0.21112011854E+01  0.28613219181E+02  0.00000000000E+00 0. -1.
<mgrwt>
<rscale>  2 0.28535226E+02</rscale>
<asrwt>0</asrwt>
<pdfrwt beam="2">  1        2 0.13610495E-01 0.28535226E+02</pdfrwt>
<pdfrwt beam="1">  1       -2 0.24670037E-02 0.28535226E+02</pdfrwt>
<totfact> 0.16165874E+05</totfact>
</mgrwt>
</event>
<event>
 4    1  0.7653521E+003  0.2128238E+02  0.7546771E-02  0.1720967E+00
          2   -1    0    0  501    0  0.00000000000E+00  0.00000000000E+00  0.39883946858E+02  0.39883946858E+02  0.00000000000E+00 0.  1.
         -2   -1    0    0    0  501 -0.00000000000E+00 -0.00000000000E+00 -0.94353137610E+02  0.94353137610E+02  0.00000000000E+00 0.  1.
          2    1    1    2  502    0  0.11860349760E+02 -0.17671212465E+02  0.35715261699E+02  0.41575468303E+02  0.00000000000E+00 0.  1.
         -2    1    1    2    0  502 -0.11860349760E+02  0.17671212465E+02 -0.90184452451E+02  0.92661616165E+02  0.00000000000E+00 0.  1.
<mgrwt>
<rscale>  2 0.21282379E+02</rscale>
<asrwt>0</asrwt>
<pdfrwt beam="1">  1        2 0.61359919E-02 0.21282379E+02</pdfrwt>
<pdfrwt beam="2">  1       -2 0.14515867E-01 0.21282379E+02</pdfrwt>
<totfact> 0.29341988E+04</totfact>
</mgrwt>
</event>
<event>
 4    1  0.7653521E+003  0.2450648E+02  0.7546771E-02  0.1668193E+00
          2   -1    0    0  501    0  0.00000000000E+00  0.00000000000E+00  0.12464222131E+04  0.12464222131E+04  0.00000000000E+00 0. -1.
         -2   -1    0    0    0  501 -0.00000000000E+00 -0.00000000000E+00 -0.11054401329E+01  0.11054401329E+01  0.00000000000E+00 0. -1.
          2    1    1    2  502    0  0.11313940630E+02  0.21738495289E+02  0.10911567601E+04  0.10914319230E+04  0.00000000000E+00 0. -1.
         -2    1    1    2    0  502 -0.11313940630E+02 -0.21738495289E+02  0.15416001289E+03  0.15609573025E+03  0.00000000000E+00 0. -1.
<mgrwt>
<rscale>  2 0.24506477E+02</rscale>
<asrwt>0</asrwt>
<pdfrwt beam="1">  1        2 0.19175614E+00 0.24506477E+02</pdfrwt>
<pdfrwt beam="2">  1       -2 0.17006871E-03 0.24506477E+02</pdfrwt>
<totfact> 0.33649670E+05</totfact>
</mgrwt>
</event>
<event>
 4    1  0.7653521E+003  0.2305984E+02  0.7546771E-02  0.1690542E+00
          2   -1    0    0  501    0  0.00000000000E+00  0.00000000000E+00  0.23836890666E+03  0.23836890666E+03  0.00000000000E+00 0. -1.
         -2   -1    0    0    0  501 -0.00000000000E+00 -0.00000000000E+00 -0.15907870673E+02  0.15907870673E+02  0.00000000000E+00 0. -1.
          2    1    1    2  502    0 -0.67817593900E+01  0.22040056696E+02  0.22911781843E+03  0.23027533754E+03  0.00000000000E+00 0. -1.
         -2    1    1    2    0  502  0.67817593900E+01 -0.22040056696E+02 -0.66567824392E+01  0.24001439791E+02  0.00000000000E+00 0. -1.
<mgrwt>
<rscale>  2 0.23059843E+02</rscale>
<asrwt>0</asrwt>
<pdfrwt beam="1">  1        2 0.36672137E-01 0.23059843E+02</pdfrwt>
<pdfrwt beam="2">  1       -2 0.24473649E-02 0.23059843E+02</pdfrwt>
<totfact> 0.54802004E+04</totfact>
</mgrwt>
</event>
<event>
 4    1  0.7653521E+003  0.2283005E+02  0.7546771E-02  0.1694280E+00
          2   -1    0    0  501    0  0.00000000000E+00  0.00000000000E+00  0.16819240690E+03  0.16819240690E+03  0.00000000000E+00 0.  1.
         -2   -1    0    0    0  501 -0.00000000000E+00 -0.00000000000E+00 -0.37311344602E+01  0.37311344602E+01  0.00000000000E+00 0. -1.
          2    1    1    2  502    0 -0.20698836564E+02 -0.96316754232E+01  0.11761609979E+03  0.11981134310E+03  0.00000000000E+00 0.  1.
         -2    1    1    2    0  502  0.20698836564E+02  0.96316754232E+01  0.46845172656E+02  0.52112198262E+02  0.00000000000E+00 0. -1.
<mgrwt>
<rscale>  2 0.22830046E+02</rscale>
<asrwt>0</asrwt>
<pdfrwt beam="1">  1        2 0.25875749E-01 0.22830046E+02</pdfrwt>
<pdfrwt beam="2">  1       -2 0.57402082E-03 0.22830046E+02</pdfrwt>
<totfact> 0.55679426E+05</totfact>
</mgrwt>
</event>
<event>
 4    1  0.7653521E+003  0.3830228E+02  0.7546771E-02  0.1521090E+00
         -2   -1    0    0    0  501 -0.00000000000E+00  0.00000000000E+00  0.10152093701E+03  0.10152093701E+03  0.00000000000E+00 0.  1.
          2   -1    0    0  501    0  0.00000000000E+00 -0.00000000000E+00 -0.44591472861E+02  0.44591472861E+02  0.00000000000E+00 0.  1.
          2    1    1    2  502    0 -0.14837068449E+02  0.35311840993E+02 -0.31598299440E+02  0.49653975088E+02  0.00000000000E+00 0.  1.
         -2    1    1    2    0  502  0.14837068449E+02 -0.35311840993E+02  0.88527763593E+02  0.96458434786E+02  0.00000000000E+00 0.  1.
<mgrwt>
<rscale>  2 0.38302281E+02</rscale>
<asrwt>0</asrwt>
<pdfrwt beam="2">  1        2 0.68602266E-02 0.38302281E+02</pdfrwt>
<pdfrwt beam="1">  1       -2 0.15618606E-01 0.38302281E+02</pdfrwt>
<totfact> 0.25544188E+04</totfact>
</mgrwt>
</event>
<event>
 4    1  0.7653521E+003  0.3186676E+02  0.7546771E-02  0.1578326E+00
          2   -1    0    0  501    0  0.00000000000E+00  0.00000000000E+00  0.22722651494E+04  0.22722651494E+04  0.00000000000E+00 0. -1.
         -2   -1    0    0    0  501 -0.00000000000E+00 -0.00000000000E+00 -0.26018851348E+01  0.26018851348E+01  0.00000000000E+00 0. -1.
          2    1    1    2  502    0 -0.21253580487E+02 -0.23743957047E+02  0.21699820005E+04  0.21702159737E+04  0.00000000000E+00 0. -1.
         -2    1    1    2    0  502  0.21253580487E+02  0.23743957047E+02  0.99681263763E+02  0.10465106079E+03  0.00000000000E+00 0. -1.
<mgrwt>
<rscale>  2 0.31866757E+02</rscale>
<asrwt>0</asrwt>
<pdfrwt beam="1">  1        2 0.34957767E+00 0.31866757E+02</pdfrwt>
<pdfrwt beam="2">  1       -2 0.40029184E-03 0.31866757E+02</pdfrwt>
<totfact> 0.36342462E+04</totfact>
</mgrwt>
</event>
<event>
 4    1  0.7653521E+003  0.2311571E+02  0.7546771E-02  0.1689641E+00
         -2   -1    0    0    0  501 -0.00000000000E+00  0.00000000000E+00  0.20672497488E+02  0.20672497488E+02  0.00000000000E+00 0.  1.
          2   -1    0    0  501    0  0.00000000000E+00 -0.00000000000E+00 -0.29532531006E+03  0.29532531006E+03  0.00000000000E+00 0.  1.
          2    1    1    2  502    0  0.70384685574E+01 -0.22018088237E+02 -0.28825276464E+03  0.28917813294E+03  0.00000000000E+00 0.  1.
         -2    1    1    2    0  502 -0.70384685574E+01  0.22018088237E+02  0.13599952074E+02  0.26819674600E+02  0.00000000000E+00 0.  1.
<mgrwt>
<rscale>  2 0.23115714E+02</rscale>
<asrwt>0</asrwt>
<pdfrwt beam="2">  1        2 0.45434660E-01 0.23115714E+02</pdfrwt>
<pdfrwt beam="1">  1       -2 0.31803844E-02 0.23115714E+02</pdfrwt>
<totfact> 0.30846650E+04</totfact>
</mgrwt>
</event>
<event>
 4    1  0.7653521E+003  0.4269620E+02  0.7546771E-02  0.1489259E+00
          2   -1    0    0  501    0  0.00000000000E+00  0.00000000000E+00  0.67130647882E+03  0.67130647882E+03  0.00000000000E+00 0. -1.
         -2   -1    0    0    0  501 -0.00000000000E+00 -0.00000000000E+00 -0.19297849474E+02  0.19297849474E+02  0.00000000000E+00 0.  1.
          2    1    1    2  502    0  0.80514923253E+01  0.41930165436E+02  0.64609072772E+03  0.64749995657E+03  0.00000000000E+00 0. -1.
         -2    1    1    2    0  502 -0.80514923253E+01 -0.41930165436E+02  0.59179016182E+01  0.43104371723E+02  0.00000000000E+00 0.  1.
<mgrwt>
<rscale>  2 0.42696198E+02</rscale>
<asrwt>0</asrwt>
<pdfrwt beam="1">  1        2 0.10327790E+00 0.42696198E+02</pdfrwt>
<pdfrwt beam="2">  1       -2 0.29689004E-02 0.42696198E+02</pdfrwt>
<totfact> 0.16083341E+04</totfact>
</mgrwt>
</event>
<event>
 4    1  0.7653521E+003  0.2046453E+02  0.7546771E-02  0.1736245E+00
          2   -1    0    0  501    0  0.00000000000E+00  0.00000000000E+00  0.24042029198E+03  0.24042029198E+03  0.00000000000E+00 0.  1.
         -2   -1    0    0    0  501 -0.00000000000E+00 -0.00000000000E+00 -0.64650195352E+02  0.64650195352E+02  0.00000000000E+00 0.  1.
          2    1    1    2  502    0  0.36840842735E+01  0.20130190716E+02  0.23835130250E+03  0.23922821835E+03  0.00000000000E+00 0.  1.
         -2    1    1    2    0  502 -0.36840842735E+01 -0.20130190716E+02 -0.62581205872E+02  0.65842268974E+02  0.00000000000E+00 0.  1.
<mgrwt>
<rscale>  2 0.20464532E+02</rscale>
<asrwt>0</asrwt>
<pdfrwt beam="1">  1        2 0.36987737E-01 0.20464532E+02</pdfrwt>
<pdfrwt beam="2">  1       -2 0.99461840E-02 0.20464532E+02</pdfrwt>
<totfact> 0.72510152E+03</totfact>
</mgrwt>
</event>
<event>
 4    1  0.7653521E+003  0.2376138E+02  0.7546771E-02  0.1679458E+00
          2   -1    0    0  501    0  0.00000000000E+00  0.00000000000E+00  0.54378740484E+02  0.54378740484E+02  0.00000000000E+00 0.  1.
         -2   -1    0    0    0  501 -0.00000000000E+00 -0.00000000000E+00 -0.83119798902E+02  0.83119798902E+02  0.00000000000E+00 0.  1.
          2    1    1    2  502    0  0.21719031125E+02  0.96377739275E+01  0.49941700757E+02  0.55306206467E+02  0.00000000000E+00 0.  1.
         -2    1    1    2    0  502 -0.21719031125E+02 -0.96377739275E+01 -0.78682759175E+02  0.82192332919E+02  0.00000000000E+00 0.  1.
<mgrwt>
<rscale>  2 0.23761376E+02</rscale>
<asrwt>0</asrwt>
<pdfrwt beam="1">  1        2 0.83659601E-02 0.23761376E+02</pdfrwt>
<pdfrwt beam="2">  1       -2 0.12787661E-01 0.23761376E+02</pdfrwt>
<totfact> 0.25229174E+04</totfact>
</mgrwt>
</event>
<event>
 4    1  0.7653521E+003  0.4958694E+02  0.7546771E-02  0.1447582E+00
         -2   -1    0    0    0  501 -0.00000000000E+00  0.00000000000E+00  0.17661767817E+03  0.17661767817E+03  0.00000000000E+00 0. -1.
          2   -1    0    0  501    0  0.00000000000E+00 -0.00000000000E+00 -0.32386762295E+03  0.32386762295E+03  0.00000000000E+00 0.  1.
          2    1    1    2  502    0 -0.18220665483E+02  0.46118024670E+02 -0.31843000635E+03  0.32226779826E+03  0.00000000000E+00 0.  1.
         -2    1    1    2    0  502  0.18220665483E+02 -0.46118024670E+02  0.17118006156E+03  0.17821750286E+03  0.00000000000E+00 0. -1.
<mgrwt>
<rscale>  2 0.49586942E+02</rscale>
<asrwt>0</asrwt>
<pdfrwt beam="2">  1        2 0.49825787E-01 0.49586942E+02</pdfrwt>
<pdfrwt beam="1">  1       -2 0.27171951E-01 0.49586942E+02</pdfrwt>
<totfact> 0.11756534E+03</totfact>
</mgrwt>
</event>
<event>
 4    1  0.7653521E+003  0.2050910E+02  0.7546771E-02  0.1735390E+00
         -2   -1    0    0    0  501 -0.00000000000E+00  0.00000000000E+00  0.17260103454E+01  0.17260103454E+01  0.00000000000E+00 0. -1.
          2   -1    0    0  501    0  0.00000000000E+00 -0.00000000000E+00 -0.85032714284E+03  0.85032714284E+03  0.00000000000E+00 0. -1.
          2    1    1    2  502    0 -0.10010786310E+02  0.17899921375E+02 -0.78413752801E+03  0.78440568959E+03  0.00000000000E+00 0. -1.
         -2    1    1    2    0  502  0.10010786310E+02 -0.17899921375E+02 -0.64463604493E+02  0.67647463604E+02  0.00000000000E+00 0. -1.
<mgrwt>
<rscale>  2 0.20509096E+02</rscale>
<asrwt>0</asrwt>
<pdfrwt beam="2">  1        2 0.13081918E+00 0.20509096E+02</pdfrwt>
<pdfrwt beam="1">  1       -2 0.26554083E-03 0.20509096E+02</pdfrwt>
<totfact> 0.28982690E+05</totfact>
</mgrwt>
</event>
<event>
 4    1  0.7653521E+003  0.2517814E+02  0.7546771E-02  0.1658456E+00
         -2   -1    0    0    0  501 -0.00000000000E+00  0.00000000000E+00  0.20300979270E+02  0.20300979270E+02  0.00000000000E+00 0.  1.
          2   -1    0    0  501    0  0.00000000000E+00 -0.00000000000E+00 -0.33133173637E+03  0.33133173637E+03  0.00000000000E+00 0. -1.
          2    1    1    2  502    0 -0.23714682769E+02  0.84588842009E+01 -0.32284166697E+03  0.32382198942E+03  0.00000000000E+00 0. -1.
         -2    1    1    2    0  502  0.23714682769E+02 -0.84588842009E+01  0.11810909871E+02  0.27810726218E+02  0.00000000000E+00 0.  1.
<mgrwt>
<rscale>  2 0.25178143E+02</rscale>
<asrwt>0</asrwt>
<pdfrwt beam="2">  1        2 0.50974114E-01 0.25178143E+02</pdfrwt>
<pdfrwt beam="1">  1       -2 0.31232276E-02 0.25178143E+02</pdfrwt>
<totfact> 0.28690328E+04</totfact>
</mgrwt>
</event>
<event>
 4    1  0.7653521E+003  0.5400200E+02  0.7546771E-02  0.1424878E+00
         -2   -1    0    0    0  501 -0.00000000000E+00  0.00000000000E+00  0.44616788193E+01  0.44616788193E+01  0.00000000000E+00 0. -1.
          2   -1    0    0  501    0  0.00000000000E+00 -0.00000000000E+00 -0.31492691624E+04  0.31492691624E+04  0.00000000000E+00 0. -1.
          2    1    1    2  502    0  0.34256016493E+02  0.41746149600E+02 -0.29761287228E+04  0.29766186169E+04  0.00000000000E+00 0. -1.
         -2    1    1    2    0  502 -0.34256016493E+02 -0.41746149600E+02 -0.16867876078E+03  0.17711222434E+03  0.00000000000E+00 0. -1.
<mgrwt>
<rscale>  2 0.54001997E+02</rscale>
<asrwt>0</asrwt>
<pdfrwt beam="2">  1        2 0.48450145E+00 0.54001997E+02</pdfrwt>
<pdfrwt beam="1">  1       -2 0.68641425E-03 0.54001997E+02</pdfrwt>
<totfact> 0.62275611E+03</totfact>
</mgrwt>
</event>
<event>
 4    1  0.7653521E+003  0.3408361E+02  0.7546771E-02  0.1556892E+00
          2   -1    0    0  501    0  0.00000000000E+00  0.00000000000E+00  0.70393043910E+03  0.70393043910E+03  0.00000000000E+00 0. -1.
         -2   -1    0    0    0  501 -0.00000000000E+00 -0.00000000000E+00 -0.40813626795E+02  0.40813626795E+02  0.00000000000E+00 0.  1.
          2    1    1    2  502    0 -0.28901063698E+02  0.18067131020E+02  0.69632434566E+03  0.69715800724E+03  0.00000000000E+00 0. -1.
         -2    1    1    2    0  502  0.28901063698E+02 -0.18067131020E+02 -0.33207533357E+02  0.47586058650E+02  0.00000000000E+00 0.  1.
<mgrwt>
<rscale>  2 0.34083613E+02</rscale>
<asrwt>0</asrwt>
<pdfrwt beam="1">  1        2 0.10829698E+00 0.34083613E+02</pdfrwt>
<pdfrwt beam="2">  1       -2 0.62790200E-02 0.34083613E+02</pdfrwt>
<totfact> 0.50796480E+03</totfact>
</mgrwt>
</event>
<event>
 4    1  0.7653521E+003  0.3221492E+02  0.7546771E-02  0.1574822E+00
          2   -1    0    0  501    0  0.00000000000E+00  0.00000000000E+00  0.10937752288E+04  0.10937752288E+04  0.00000000000E+00 0. -1.
         -2   -1    0    0    0  501 -0.00000000000E+00 -0.00000000000E+00 -0.27764792091E+01  0.27764792091E+01  0.00000000000E+00 0. -1.
          2    1    1    2  502    0 -0.99894491725E+00 -0.32199430781E+02  0.99033435154E+03  0.99085817808E+03  0.00000000000E+00 0. -1.
         -2    1    1    2    0  502  0.99894491725E+00  0.32199430781E+02  0.10066439808E+03  0.10569352996E+03  0.00000000000E+00 0. -1.
<mgrwt>
<rscale>  2 0.32214923E+02</rscale>
<asrwt>0</asrwt>
<pdfrwt beam="1">  1        2 0.16827277E+00 0.32214923E+02</pdfrwt>
<pdfrwt beam="2">  1       -2 0.42715152E-03 0.32214923E+02</pdfrwt>
<totfact> 0.12450817E+05</totfact>
</mgrwt>
</event>
<event>
 4    1  0.7653521E+003  0.2005722E+02  0.7546771E-02  0.1744193E+00
          2   -1    0    0  501    0  0.00000000000E+00  0.00000000000E+00  0.16943761499E+03  0.16943761499E+03  0.00000000000E+00 0. -1.
         -2   -1    0    0    0  501 -0.00000000000E+00 -0.00000000000E+00 -0.18930656263E+02  0.18930656263E+02  0.00000000000E+00 0. -1.
          2    1    1    2  502    0  0.18137903316E+02 -0.85620367386E+01  0.16333353717E+03  0.16456043380E+03  0.00000000000E+00 0. -1.
         -2    1    1    2    0  502 -0.18137903316E+02  0.85620367386E+01 -0.12826578437E+02  0.23807837453E+02  0.00000000000E+00 0. -1.
<mgrwt>
<rscale>  2 0.20057218E+02</rscale>
<asrwt>0</asrwt>
<pdfrwt beam="1">  1        2 0.26067324E-01 0.20057218E+02</pdfrwt>
<pdfrwt beam="2">  1       -2 0.29124088E-02 0.20057218E+02</pdfrwt>
<totfact> 0.58930008E+04</totfact>
</mgrwt>
</event>
<event>
 4    1  0.7653521E+003  0.2926840E+02  0.7546771E-02  0.1606319E+00
         -2   -1    0    0    0  501 -0.00000000000E+00  0.00000000000E+00  0.24256189171E+01  0.24256189171E+01  0.00000000000E+00 0. -1.
          2   -1    0    0  501    0  0.00000000000E+00 -0.00000000000E+00 -0.15784560844E+04  0.15784560844E+04  0.00000000000E+00 0.  1.
          2    1    1    2  502    0  0.18043963291E+02  0.23044616312E+02 -0.14844382391E+04  0.14847267509E+04  0.00000000000E+00 0.  1.
         -2    1    1    2    0  502 -0.18043963291E+02 -0.23044616312E+02 -0.91592226360E+02  0.96154952456E+02  0.00000000000E+00 0. -1.
<mgrwt>
<rscale>  2 0.29268395E+02</rscale>
<asrwt>0</asrwt>
<pdfrwt beam="2">  1        2 0.24283931E+00 0.29268395E+02</pdfrwt>
<pdfrwt beam="1">  1       -2 0.37317227E-03 0.29268395E+02</pdfrwt>
<totfact> 0.84351499E+04</totfact>
</mgrwt>
</event>
<event>
 4    1  0.7653521E+003  0.2970861E+02  0.7546771E-02  0.1601332E+00
         -2   -1    0    0    0  501 -0.00000000000E+00  0.00000000000E+00  0.90259163944E+02  0.90259163944E+02  0.00000000000E+00 0. -1.
          2   -1    0    0  501    0  0.00000000000E+00 -0.00000000000E+00 -0.98335173557E+01  0.98335173557E+01  0.00000000000E+00 0. -1.
          2    1    1    2  502    0 -0.83949856001E+01 -0.28497815820E+02  0.36470185014E+02  0.47039086775E+02  0.00000000000E+00 0. -1.
         -2    1    1    2    0  502  0.83949856001E+01  0.28497815820E+02  0.43955461574E+02  0.53053594524E+02  0.00000000000E+00 0. -1.
<mgrwt>
<rscale>  2 0.29708606E+02</rscale>
<asrwt>0</asrwt>
<pdfrwt beam="2">  1        2 0.15128489E-02 0.29708606E+02</pdfrwt>
<pdfrwt beam="1">  1       -2 0.13886025E-01 0.29708606E+02</pdfrwt>
<totfact> 0.19898690E+05</totfact>
</mgrwt>
</event>
<event>
 4    1  0.7653521E+003  0.2611030E+02  0.7546771E-02  0.1645548E+00
          2   -1    0    0  501    0  0.00000000000E+00  0.00000000000E+00  0.13381617576E+04  0.13381617576E+04  0.00000000000E+00 0.  1.
         -2   -1    0    0    0  501 -0.00000000000E+00 -0.00000000000E+00 -0.12291207671E+01  0.12291207671E+01  0.00000000000E+00 0.  1.
          2    1    1    2  502    0  0.25114563741E+02 -0.71418744454E+01  0.11809053708E+04  0.11811939902E+04  0.00000000000E+00 0.  1.
         -2    1    1    2    0  502 -0.25114563741E+02  0.71418744454E+01  0.15602726605E+03  0.15819688819E+03  0.00000000000E+00 0.  1.
<mgrwt>
<rscale>  2 0.26110298E+02</rscale>
<asrwt>0</asrwt>
<pdfrwt beam="1">  1        2 0.20586987E+00 0.26110298E+02</pdfrwt>
<pdfrwt beam="2">  1       -2 0.18909657E-03 0.26110298E+02</pdfrwt>
<totfact> 0.26740082E+05</totfact>
</mgrwt>
</event>
<event>
 4    1  0.7653521E+003  0.2737843E+02  0.7546771E-02  0.1629016E+00
          2   -1    0    0  501    0  0.00000000000E+00  0.00000000000E+00  0.75312292494E+02  0.75312292494E+02  0.00000000000E+00 0. -1.
         -2   -1    0    0    0  501 -0.00000000000E+00 -0.00000000000E+00 -0.10235401447E+02  0.10235401447E+02  0.00000000000E+00 0. -1.
          2    1    1    2  502    0  0.16212444489E+02  0.22062079121E+02  0.39644128680E+02  0.48179203296E+02  0.00000000000E+00 0. -1.
         -2    1    1    2    0  502 -0.16212444489E+02 -0.22062079121E+02  0.25432762367E+02  0.37368490645E+02  0.00000000000E+00 0. -1.
<mgrwt>
<rscale>  2 0.27378435E+02</rscale>
<asrwt>0</asrwt>
<pdfrwt beam="1">  1        2 0.11586506E-01 0.27378435E+02</pdfrwt>
<pdfrwt beam="2">  1       -2 0.15746772E-02 0.27378435E+02</pdfrwt>
<totfact> 0.35676641E+05</totfact>
</mgrwt>
</event>
<event>
 4    1  0.7653521E+003  0.2468115E+02  0.7546771E-02  0.1665624E+00
          2   -1    0    0  501    0  0.00000000000E+00  0.00000000000E+00  0.76577597408E+03  0.76577597408E+03  0.00000000000E+00 0. -1.
         -2   -1    0    0    0  501 -0.00000000000E+00 -0.00000000000E+00 -0.83206587966E+00  0.83206587966E+00  0.00000000000E+00 0. -1.
          2    1    1    2  502    0  0.18191647338E+02  0.16680018520E+02  0.46284761045E+03  0.46350519905E+03  0.00000000000E+00 0. -1.
         -2    1    1    2    0  502 -0.18191647338E+02 -0.16680018520E+02  0.30209629775E+03  0.30310284090E+03  0.00000000000E+00 0. -1.
<mgrwt>
<rscale>  2 0.24681148E+02</rscale>
<asrwt>0</asrwt>
<pdfrwt beam="1">  1        2 0.11781112E+00 0.24681148E+02</pdfrwt>
<pdfrwt beam="2">  1       -2 0.12801075E-03 0.24681148E+02</pdfrwt>
<totfact> 0.90309816E+05</totfact>
</mgrwt>
</event>
<event>
 4    1  0.7653521E+003  0.2182483E+02  0.7546771E-02  0.1711299E+00
          2   -1    0    0  501    0  0.00000000000E+00  0.00000000000E+00  0.12627705200E+02  0.12627705200E+02  0.00000000000E+00 0. -1.
         -2   -1    0    0    0  501 -0.00000000000E+00 -0.00000000000E+00 -0.24629087646E+03  0.24629087646E+03  0.00000000000E+00 0.  1.
          2    1    1    2  502    0  0.19935691841E+02  0.88820824159E+01  0.23023219870E+01  0.21945930916E+02  0.00000000000E+00 0. -1.
         -2    1    1    2    0  502 -0.19935691841E+02 -0.88820824159E+01 -0.23596549325E+03  0.23697265075E+03  0.00000000000E+00 0.  1.
<mgrwt>
<rscale>  2 0.21824830E+02</rscale>
<asrwt>0</asrwt>
<pdfrwt beam="1">  1        2 0.19427239E-02 0.21824830E+02</pdfrwt>
<pdfrwt beam="2">  1       -2 0.37890903E-01 0.21824830E+02</pdfrwt>
<totfact> 0.25308095E+04</totfact>
</mgrwt>
</event>
<event>
 4    1  0.7653521E+003  0.2069665E+02  0.7546771E-02  0.1731819E+00
         -2   -1    0    0    0  501 -0.00000000000E+00  0.00000000000E+00  0.34440045835E+01  0.34440045835E+01  0.00000000000E+00 0.  1.
          2   -1    0    0  501    0  0.00000000000E+00 -0.00000000000E+00 -0.43687741944E+03  0.43687741944E+03  0.00000000000E+00 0. -1.
          2    1    1    2  502    0  0.60370278135E+01  0.19796604696E+02 -0.40291944852E+03  0.40345065777E+03  0.00000000000E+00 0. -1.
         -2    1    1    2    0  502 -0.60370278135E+01 -0.19796604696E+02 -0.30513966340E+02  0.36870766254E+02  0.00000000000E+00 0.  1.
<mgrwt>
<rscale>  2 0.20696649E+02</rscale>
<asrwt>0</asrwt>
<pdfrwt beam="2">  1        2 0.67211934E-01 0.20696649E+02</pdfrwt>
<pdfrwt beam="1">  1       -2 0.52984668E-03 0.20696649E+02</pdfrwt>
<totfact> 0.23339770E+05</totfact>
</mgrwt>
</event>
<event>
 4    1  0.7653521E+003  0.2352956E+02  0.7546771E-02  0.1683067E+00
         -2   -1    0    0    0  501 -0.00000000000E+00  0.00000000000E+00  0.25252026007E+03  0.25252026007E+03  0.00000000000E+00 0.  1.
          2   -1    0    0  501    0  0.00000000000E+00 -0.00000000000E+00 -0.97995332645E+02  0.97995332645E+02  0.00000000000E+00 0.  1.
          2    1    1    2  502    0 -0.19365026948E+02 -0.13365476965E+02 -0.96023712952E+02  0.98864521909E+02  0.00000000000E+00 0.  1.
         -2    1    1    2    0  502  0.19365026948E+02  0.13365476965E+02  0.25054864037E+03  0.25165107080E+03  0.00000000000E+00 0.  1.
<mgrwt>
<rscale>  2 0.23529561E+02</rscale>
<asrwt>0</asrwt>
<pdfrwt beam="2">  1        2 0.15076205E-01 0.23529561E+02</pdfrwt>
<pdfrwt beam="1">  1       -2 0.38849271E-01 0.23529561E+02</pdfrwt>
<totfact> 0.20694111E+03</totfact>
</mgrwt>
</event>
<event>
 4    1  0.7653521E+003  0.2105944E+02  0.7546771E-02  0.1725045E+00
         -2   -1    0    0    0  501 -0.00000000000E+00  0.00000000000E+00  0.11547386790E+03  0.11547386790E+03  0.00000000000E+00 0.  1.
          2   -1    0    0  501    0  0.00000000000E+00 -0.00000000000E+00 -0.16589402320E+02  0.16589402320E+02  0.00000000000E+00 0.  1.
          2    1    1    2  502    0  0.19097645889E+02  0.88758047741E+01 -0.84432613752E+01  0.22688954395E+02  0.00000000000E+00 0.  1.
         -2    1    1    2    0  502 -0.19097645889E+02 -0.88758047741E+01  0.10732772696E+03  0.10937431583E+03  0.00000000000E+00 0.  1.
<mgrwt>
<rscale>  2 0.21059439E+02</rscale>
<asrwt>0</asrwt>
<pdfrwt beam="2">  1        2 0.25522158E-02 0.21059439E+02</pdfrwt>
<pdfrwt beam="1">  1       -2 0.17765210E-01 0.21059439E+02</pdfrwt>
<totfact> 0.63142900E+04</totfact>
</mgrwt>
</event>
<event>
 4    1  0.7653521E+003  0.2242148E+02  0.7546771E-02  0.1701063E+00
         -2   -1    0    0    0  501 -0.00000000000E+00  0.00000000000E+00  0.78868898510E+00  0.78868898510E+00  0.00000000000E+00 0. -1.
          2   -1    0    0  501    0  0.00000000000E+00 -0.00000000000E+00 -0.13177237756E+04  0.13177237756E+04  0.00000000000E+00 0. -1.
          2    1    1    2  502    0  0.84882249069E+01  0.20752654463E+02 -0.11321583015E+04  0.11323802993E+04  0.00000000000E+00 0. -1.
         -2    1    1    2    0  502 -0.84882249069E+01 -0.20752654463E+02 -0.18477678508E+03  0.18613216523E+03  0.00000000000E+00 0. -1.
<mgrwt>
<rscale>  2 0.22421477E+02</rscale>
<asrwt>0</asrwt>
<pdfrwt beam="2">  1        2 0.20272660E+00 0.22421477E+02</pdfrwt>
<pdfrwt beam="1">  1       -2 0.12133685E-03 0.22421477E+02</pdfrwt>
<totfact> 0.47419885E+05</totfact>
</mgrwt>
</event>
<event>
 4    1  0.7653521E+003  0.2087850E+02  0.7546771E-02  0.1728402E+00
          2   -1    0    0  501    0  0.00000000000E+00  0.00000000000E+00  0.73311569900E+02  0.73311569900E+02  0.00000000000E+00 0. -1.
         -2   -1    0    0    0  501 -0.00000000000E+00 -0.00000000000E+00 -0.27194267795E+03  0.27194267795E+03  0.00000000000E+00 0.  1.
          2    1    1    2  502    0 -0.16205144286E+02 -0.13164533871E+02  0.71413897282E+02  0.74403335801E+02  0.00000000000E+00 0. -1.
         -2    1    1    2    0  502  0.16205144286E+02  0.13164533871E+02 -0.27004500533E+03  0.27085091205E+03  0.00000000000E+00 0.  1.
<mgrwt>
<rscale>  2 0.20878497E+02</rscale>
<asrwt>0</asrwt>
<pdfrwt beam="1">  1        2 0.11278703E-01 0.20878497E+02</pdfrwt>
<pdfrwt beam="2">  1       -2 0.41837334E-01 0.20878497E+02</pdfrwt>
<totfact> 0.24655262E+03</totfact>
</mgrwt>
</event>
<event>
 4    1  0.7653521E+003  0.2382116E+02  0.7546771E-02  0.1678535E+00
          2   -1    0    0  501    0  0.00000000000E+00  0.00000000000E+00  0.20146876764E+03  0.20146876764E+03  0.00000000000E+00 0.  1.
         -2   -1    0    0    0  501 -0.00000000000E+00 -0.00000000000E+00 -0.28224061163E+01  0.28224061163E+01  0.00000000000E+00 0.  1.
          2    1    1    2  502    0 -0.20380683611E+02  0.12331885000E+02  0.10397441707E+03  0.10666830391E+03  0.00000000000E+00 0.  1.
         -2    1    1    2    0  502  0.20380683611E+02 -0.12331885000E+02  0.94671944445E+02  0.97622869847E+02  0.00000000000E+00 0.  1.
<mgrwt>
<rscale>  2 0.23821160E+02</rscale>
<asrwt>0</asrwt>
<pdfrwt beam="1">  1        2 0.30995184E-01 0.23821160E+02</pdfrwt>
<pdfrwt beam="2">  1       -2 0.43421648E-03 0.23821160E+02</pdfrwt>
<totfact> 0.68237539E+05</totfact>
</mgrwt>
</event>
<event>
 4    1  0.7653521E+003  0.3342170E+02  0.7546771E-02  0.1563080E+00
         -2   -1    0    0    0  501 -0.00000000000E+00  0.00000000000E+00  0.24596677850E+02  0.24596677850E+02  0.00000000000E+00 0.  1.
          2   -1    0    0  501    0  0.00000000000E+00 -0.00000000000E+00 -0.79726583333E+02  0.79726583333E+02  0.00000000000E+00 0.  1.
          2    1    1    2  502    0 -0.33411559924E+02 -0.82341813161E+00 -0.61785129882E+02  0.70245374427E+02  0.00000000000E+00 0.  1.
         -2    1    1    2    0  502  0.33411559924E+02  0.82341813161E+00  0.66552243983E+01  0.34077886756E+02  0.00000000000E+00 0.  1.
<mgrwt>
<rscale>  2 0.33421705E+02</rscale>
<asrwt>0</asrwt>
<pdfrwt beam="2">  1        2 0.12265629E-01 0.33421705E+02</pdfrwt>
<pdfrwt beam="1">  1       -2 0.37841042E-02 0.33421705E+02</pdfrwt>
<totfact> 0.10336366E+05</totfact>
</mgrwt>
</event>
<event>
 4    1  0.7653521E+003  0.3837951E+02  0.7546771E-02  0.1520487E+00
          2   -1    0    0  501    0  0.00000000000E+00  0.00000000000E+00  0.21381947018E+03  0.21381947018E+03  0.00000000000E+00 0.  1.
         -2   -1    0    0    0  501 -0.00000000000E+00 -0.00000000000E+00 -0.71593209843E+01  0.71593209843E+01  0.00000000000E+00 0.  1.
          2    1    1    2  502    0  0.22090290234E+02  0.31384798750E+02  0.12480264162E+03  0.13057061642E+03  0.00000000000E+00 0.  1.
         -2    1    1    2    0  502 -0.22090290234E+02 -0.31384798750E+02  0.81857507568E+02  0.90408174743E+02  0.00000000000E+00 0.  1.
<mgrwt>
<rscale>  2 0.38379506E+02</rscale>
<asrwt>0</asrwt>
<pdfrwt beam="1">  1        2 0.32895298E-01 0.38379506E+02</pdfrwt>
<pdfrwt beam="2">  1       -2 0.11014342E-02 0.38379506E+02</pdfrwt>
<totfact> 0.20586103E+05</totfact>
</mgrwt>
</event>
<event>
 4    1  0.7653521E+003  0.2696463E+02  0.7546771E-02  0.1634288E+00
         -2   -1    0    0    0  501 -0.00000000000E+00  0.00000000000E+00  0.21858177843E+04  0.21858177843E+04  0.00000000000E+00 0.  1.
          2   -1    0    0  501    0  0.00000000000E+00 -0.00000000000E+00 -0.44558514622E+00  0.44558514622E+00  0.00000000000E+00 0.  1.
          2    1    1    2  502    0  0.25585474482E+02  0.85132116318E+01  0.54233458070E+03  0.54300450155E+03  0.00000000000E+00 0.  1.
         -2    1    1    2    0  502 -0.25585474482E+02 -0.85132116318E+01  0.16430376184E+04  0.16432588679E+04  0.00000000000E+00 0.  1.
<mgrwt>
<rscale>  2 0.26964630E+02</rscale>
<asrwt>0</asrwt>
<pdfrwt beam="2">  1        2 0.68553311E-04 0.26964630E+02</pdfrwt>
<pdfrwt beam="1">  1       -2 0.33627107E+00 0.26964630E+02</pdfrwt>
<totfact> 0.10314846E+04</totfact>
</mgrwt>
</event>
<event>
 4    1  0.7653521E+003  0.4458546E+02  0.7546771E-02  0.1476946E+00
         -2   -1    0    0    0  501 -0.00000000000E+00  0.00000000000E+00  0.29339442326E+02  0.29339442326E+02  0.00000000000E+00 0.  1.
          2   -1    0    0  501    0  0.00000000000E+00 -0.00000000000E+00 -0.19777678913E+03  0.19777678913E+03  0.00000000000E+00 0. -1.
          2    1    1    2  502    0  0.41889904686E+02 -0.15267590769E+02 -0.17629337502E+03  0.18184393726E+03  0.00000000000E+00 0. -1.
         -2    1    1    2    0  502 -0.41889904686E+02  0.15267590769E+02  0.78560282140E+01  0.45272294196E+02  0.00000000000E+00 0.  1.
<mgrwt>
<rscale>  2 0.44585462E+02</rscale>
<asrwt>0</asrwt>
<pdfrwt beam="2">  1        2 0.30427197E-01 0.44585462E+02</pdfrwt>
<pdfrwt beam="1">  1       -2 0.45137605E-02 0.44585462E+02</pdfrwt>
<totfact> 0.31481785E+04</totfact>
</mgrwt>
</event>
<event>
 4    1  0.7653521E+003  0.2360202E+02  0.7546771E-02  0.1681933E+00
          2   -1    0    0  501    0  0.00000000000E+00  0.00000000000E+00  0.25286908163E+03  0.25286908163E+03  0.00000000000E+00 0.  1.
         -2   -1    0    0    0  501 -0.00000000000E+00 -0.00000000000E+00 -0.13389998167E+02  0.13389998167E+02  0.00000000000E+00 0. -1.
          2    1    1    2  502    0  0.83415078353E+01 -0.22078821921E+02  0.24142596952E+03  0.24257690304E+03  0.00000000000E+00 0.  1.
         -2    1    1    2    0  502 -0.83415078353E+01  0.22078821921E+02 -0.19468860610E+01  0.23682176752E+02  0.00000000000E+00 0. -1.
<mgrwt>
<rscale>  2 0.23602015E+02</rscale>
<asrwt>0</asrwt>
<pdfrwt beam="1">  1        2 0.38902932E-01 0.23602015E+02</pdfrwt>
<pdfrwt beam="2">  1       -2 0.20599999E-02 0.23602015E+02</pdfrwt>
<totfact> 0.65847498E+04</totfact>
</mgrwt>
</event>
<event>
 4    1  0.7653521E+003  0.2226842E+02  0.7546771E-02  0.1703651E+00
         -2   -1    0    0    0  501 -0.00000000000E+00  0.00000000000E+00  0.90192522953E+02  0.90192522953E+02  0.00000000000E+00 0. -1.
          2   -1    0    0  501    0  0.00000000000E+00 -0.00000000000E+00 -0.26291787114E+03  0.26291787114E+03  0.00000000000E+00 0.  1.
          2    1    1    2  502    0  0.23653024971E+01  0.22142447507E+02 -0.26106208795E+03  0.26201010744E+03  0.00000000000E+00 0.  1.
         -2    1    1    2    0  502 -0.23653024971E+01 -0.22142447507E+02  0.88336739758E+02  0.91100286655E+02  0.00000000000E+00 0. -1.
<mgrwt>
<rscale>  2 0.22268422E+02</rscale>
<asrwt>0</asrwt>
<pdfrwt beam="2">  1        2 0.40448903E-01 0.22268422E+02</pdfrwt>
<pdfrwt beam="1">  1       -2 0.13875773E-01 0.22268422E+02</pdfrwt>
<totfact> 0.40603671E+03</totfact>
</mgrwt>
</event>
<event>
 4    1  0.7653521E+003  0.2432637E+02  0.7546771E-02  0.1670870E+00
         -2   -1    0    0    0  501 -0.00000000000E+00  0.00000000000E+00  0.84412678362E+02  0.84412678362E+02  0.00000000000E+00 0.  1.
          2   -1    0    0  501    0  0.00000000000E+00 -0.00000000000E+00 -0.53411828201E+02  0.53411828201E+02  0.00000000000E+00 0. -1.
          2    1    1    2  502    0  0.29143035127E+01  0.24151169914E+02 -0.48730340160E+02  0.54464834759E+02  0.00000000000E+00 0. -1.
         -2    1    1    2    0  502 -0.29143035127E+01 -0.24151169914E+02  0.79731190321E+02  0.83359671804E+02  0.00000000000E+00 0.  1.
<mgrwt>
<rscale>  2 0.24326368E+02</rscale>
<asrwt>0</asrwt>
<pdfrwt beam="2">  1        2 0.82172043E-02 0.24326368E+02</pdfrwt>
<pdfrwt beam="1">  1       -2 0.12986566E-01 0.24326368E+02</pdfrwt>
<totfact> 0.25283437E+04</totfact>
</mgrwt>
</event>
<event>
 4    1  0.7653521E+003  0.3148021E+02  0.7546771E-02  0.1582281E+00
          2   -1    0    0  501    0  0.00000000000E+00  0.00000000000E+00  0.36211093399E+03  0.36211093399E+03  0.00000000000E+00 0. -1.
         -2   -1    0    0    0  501 -0.00000000000E+00 -0.00000000000E+00 -0.20457396925E+02  0.20457396925E+02  0.00000000000E+00 0.  1.
          2    1    1    2  502    0 -0.31220258929E+02  0.40371852707E+01  0.34885699531E+03  0.35027447325E+03  0.00000000000E+00 0. -1.
         -2    1    1    2    0  502  0.31220258929E+02 -0.40371852707E+01 -0.72034582437E+01  0.32293857669E+02  0.00000000000E+00 0.  1.
<mgrwt>
<rscale>  2 0.31480207E+02</rscale>
<asrwt>0</asrwt>
<pdfrwt beam="1">  1        2 0.55709370E-01 0.31480207E+02</pdfrwt>
<pdfrwt beam="2">  1       -2 0.31472921E-02 0.31480207E+02</pdfrwt>
<totfact> 0.26986334E+04</totfact>
</mgrwt>
</event>
<event>
 4    1  0.7653521E+003  0.2609133E+02  0.7546771E-02  0.1645804E+00
          2   -1    0    0  501    0  0.00000000000E+00  0.00000000000E+00  0.10145607888E+03  0.10145607888E+03  0.00000000000E+00 0.  1.
         -2   -1    0    0    0  501 -0.00000000000E+00 -0.00000000000E+00 -0.38670816224E+03  0.38670816224E+03  0.00000000000E+00 0. -1.
          2    1    1    2  502    0  0.13452094762E+02 -0.22356171416E+02  0.99329247280E+02  0.10269886377E+03  0.00000000000E+00 0.  1.
         -2    1    1    2    0  502 -0.13452094762E+02  0.22356171416E+02 -0.38458133064E+03  0.38546537735E+03  0.00000000000E+00 0. -1.
<mgrwt>
<rscale>  2 0.26091325E+02</rscale>
<asrwt>0</asrwt>
<pdfrwt beam="1">  1        2 0.15608627E-01 0.26091325E+02</pdfrwt>
<pdfrwt beam="2">  1       -2 0.59493564E-01 0.26091325E+02</pdfrwt>
<totfact> 0.89910904E+02</totfact>
</mgrwt>
</event>
<event>
 4    1  0.7653521E+003  0.2168931E+02  0.7546771E-02  0.1713681E+00
          2   -1    0    0  501    0  0.00000000000E+00  0.00000000000E+00  0.49946762314E+03  0.49946762314E+03  0.00000000000E+00 0. -1.
         -2   -1    0    0    0  501 -0.00000000000E+00 -0.00000000000E+00 -0.11368076098E+01  0.11368076098E+01  0.00000000000E+00 0. -1.
          2    1    1    2  502    0 -0.11342164905E+02  0.18487334467E+02  0.35281924218E+03  0.35348528102E+03  0.00000000000E+00 0. -1.
         -2    1    1    2    0  502  0.11342164905E+02 -0.18487334467E+02  0.14551157335E+03  0.14711914974E+03  0.00000000000E+00 0. -1.
<mgrwt>
<rscale>  2 0.21689312E+02</rscale>
<asrwt>0</asrwt>
<pdfrwt beam="1">  1        2 0.76840998E-01 0.21689312E+02</pdfrwt>
<pdfrwt beam="2">  1       -2 0.17489388E-03 0.21689312E+02</pdfrwt>
<totfact> 0.90164895E+05</totfact>
</mgrwt>
</event>
<event>
 4    1  0.7653521E+003  0.2188547E+02  0.7546771E-02  0.1710240E+00
          2   -1    0    0  501    0  0.00000000000E+00  0.00000000000E+00  0.11011517669E+04  0.11011517669E+04  0.00000000000E+00 0. -1.
         -2   -1    0    0    0  501 -0.00000000000E+00 -0.00000000000E+00 -0.55512997498E+00  0.55512997498E+00  0.00000000000E+00 0. -1.
          2    1    1    2  502    0  0.29987617008E+01 -0.21679046600E+02  0.80657516813E+03  0.80687203166E+03  0.00000000000E+00 0. -1.
         -2    1    1    2    0  502 -0.29987617008E+01  0.21679046600E+02  0.29402146881E+03  0.29483486523E+03  0.00000000000E+00 0. -1.
<mgrwt>
<rscale>  2 0.21885466E+02</rscale>
<asrwt>0</asrwt>
<pdfrwt beam="1">  1        2 0.16940622E+00 0.21885466E+02</pdfrwt>
<pdfrwt beam="2">  1       -2 0.85405493E-04 0.21885466E+02</pdfrwt>
<totfact> 0.95844981E+05</totfact>
</mgrwt>
</event>
<event>
 4    1  0.7653521E+003  0.3357621E+02  0.7546771E-02  0.1561620E+00
         -2   -1    0    0    0  501 -0.00000000000E+00  0.00000000000E+00  0.92787990497E+01  0.92787990497E+01  0.00000000000E+00 0. -1.
          2   -1    0    0  501    0  0.00000000000E+00 -0.00000000000E+00 -0.34032541275E+03  0.34032541275E+03  0.00000000000E+00 0. -1.
          2    1    1    2  502    0  0.37552731558E+01  0.33365549366E+02 -0.30569155491E+03  0.30752998017E+03  0.00000000000E+00 0. -1.
         -2    1    1    2    0  502 -0.37552731558E+01 -0.33365549366E+02 -0.25355058794E+02  0.42074231632E+02  0.00000000000E+00 0. -1.
<mgrwt>
<rscale>  2 0.33576211E+02</rscale>
<asrwt>0</asrwt>
<pdfrwt beam="2">  1        2 0.52357750E-01 0.33576211E+02</pdfrwt>
<pdfrwt beam="1">  1       -2 0.14275077E-02 0.33576211E+02</pdfrwt>
<totfact> 0.87409897E+04</totfact>
</mgrwt>
</event>
<event>
 4    1  0.7653521E+003  0.2117152E+02  0.7546771E-02  0.1722987E+00
         -2   -1    0    0    0  501 -0.00000000000E+00  0.00000000000E+00  0.19986697679E+01  0.19986697679E+01  0.00000000000E+00 0. -1.
          2   -1    0    0  501    0  0.00000000000E+00 -0.00000000000E+00 -0.52309456852E+03  0.52309456852E+03  0.00000000000E+00 0.  1.
          2    1    1    2  502    0  0.74748151648E+01  0.19808084604E+02 -0.45898720947E+03  0.45947523495E+03  0.00000000000E+00 0.  1.
         -2    1    1    2    0  502 -0.74748151648E+01 -0.19808084604E+02 -0.62108689285E+02  0.65618003338E+02  0.00000000000E+00 0. -1.
<mgrwt>
<rscale>  2 0.21171516E+02</rscale>
<asrwt>0</asrwt>
<pdfrwt beam="2">  1        2 0.80476130E-01 0.21171516E+02</pdfrwt>
<pdfrwt beam="1">  1       -2 0.30748749E-03 0.21171516E+02</pdfrwt>
<totfact> 0.40475241E+05</totfact>
</mgrwt>
</event>
<event>
 4    1  0.7653521E+003  0.4793721E+02  0.7546771E-02  0.1456796E+00
          2   -1    0    0  501    0  0.00000000000E+00  0.00000000000E+00  0.16845628124E+04  0.16845628124E+04  0.00000000000E+00 0. -1.
         -2   -1    0    0    0  501 -0.00000000000E+00 -0.00000000000E+00 -0.31211544643E+02  0.31211544643E+02  0.00000000000E+00 0. -1.
          2    1    1    2  502    0 -0.43234792556E+02  0.20705773271E+02  0.16656058686E+04  0.16662955578E+04  0.00000000000E+00 0. -1.
         -2    1    1    2    0  502  0.43234792556E+02 -0.20705773271E+02 -0.12254600854E+02  0.49478799260E+02  0.00000000000E+00 0. -1.
<mgrwt>
<rscale>  2 0.47937212E+02</rscale>
<asrwt>0</asrwt>
<pdfrwt beam="1">  1        2 0.25916344E+00 0.47937212E+02</pdfrwt>
<pdfrwt beam="2">  1       -2 0.48017774E-02 0.47937212E+02</pdfrwt>
<totfact> 0.22526426E+03</totfact>
</mgrwt>
</event>
<event>
 4    1  0.7653521E+003  0.2375137E+02  0.7546771E-02  0.1679612E+00
          2   -1    0    0  501    0  0.00000000000E+00  0.00000000000E+00  0.15267626634E+04  0.15267626634E+04  0.00000000000E+00 0.  1.
         -2   -1    0    0    0  501 -0.00000000000E+00 -0.00000000000E+00 -0.12062040307E+02  0.12062040307E+02  0.00000000000E+00 0. -1.
          2    1    1    2  502    0  0.23176066865E+02 -0.51959130787E+01  0.15148864236E+04  0.15150726068E+04  0.00000000000E+00 0.  1.
         -2    1    1    2    0  502 -0.23176066865E+02  0.51959130787E+01 -0.18580041789E+00  0.23752096957E+02  0.00000000000E+00 0. -1.
<mgrwt>
<rscale>  2 0.23751370E+02</rscale>
<asrwt>0</asrwt>
<pdfrwt beam="1">  1        2 0.23488641E+00 0.23751370E+02</pdfrwt>
<pdfrwt beam="2">  1       -2 0.18556997E-02 0.23751370E+02</pdfrwt>
<totfact> 0.98466069E+03</totfact>
</mgrwt>
</event>
<event>
 4    1  0.7653521E+003  0.3122928E+02  0.7546771E-02  0.1584885E+00
          2   -1    0    0  501    0  0.00000000000E+00  0.00000000000E+00  0.34482531525E+03  0.34482531525E+03  0.00000000000E+00 0.  1.
         -2   -1    0    0    0  501 -0.00000000000E+00 -0.00000000000E+00 -0.25978747494E+02  0.25978747494E+02  0.00000000000E+00 0. -1.
          2    1    1    2  502    0  0.29053125724E+02  0.11453563285E+02  0.33444224918E+03  0.33589713643E+03  0.00000000000E+00 0.  1.
         -2    1    1    2    0  502 -0.29053125724E+02 -0.11453563285E+02 -0.15595681417E+02  0.34906926320E+02  0.00000000000E+00 0. -1.
<mgrwt>
<rscale>  2 0.31229285E+02</rscale>
<asrwt>0</asrwt>
<pdfrwt beam="1">  1        2 0.53050045E-01 0.31229285E+02</pdfrwt>
<pdfrwt beam="2">  1       -2 0.39967306E-02 0.31229285E+02</pdfrwt>
<totfact> 0.20187257E+04</totfact>
</mgrwt>
</event>
<event>
 4    1  0.7653521E+003  0.3061555E+02  0.7546771E-02  0.1591383E+00
         -2   -1    0    0    0  501 -0.00000000000E+00  0.00000000000E+00  0.10166634935E+03  0.10166634935E+03  0.00000000000E+00 0. -1.
          2   -1    0    0  501    0  0.00000000000E+00 -0.00000000000E+00 -0.12811534975E+02  0.12811534975E+02  0.00000000000E+00 0. -1.
          2    1    1    2  502    0 -0.29622841023E+02  0.77329947527E+01  0.14119085891E+02  0.33714396102E+02  0.00000000000E+00 0. -1.
         -2    1    1    2    0  502  0.29622841023E+02 -0.77329947527E+01  0.74735728486E+02  0.80763488226E+02  0.00000000000E+00 0. -1.
<mgrwt>
<rscale>  2 0.30615550E+02</rscale>
<asrwt>0</asrwt>
<pdfrwt beam="2">  1        2 0.19710054E-02 0.30615550E+02</pdfrwt>
<pdfrwt beam="1">  1       -2 0.15640976E-01 0.30615550E+02</pdfrwt>
<totfact> 0.11797653E+05</totfact>
</mgrwt>
</event>
<event>
 4    1  0.7653521E+003  0.2213597E+02  0.7546771E-02  0.1705911E+00
          2   -1    0    0  501    0  0.00000000000E+00  0.00000000000E+00  0.40751167231E+02  0.40751167231E+02  0.00000000000E+00 0. -1.
         -2   -1    0    0    0  501 -0.00000000000E+00 -0.00000000000E+00 -0.16812806342E+02  0.16812806342E+02  0.00000000000E+00 0.  1.
          2    1    1    2  502    0 -0.80220563309E+01  0.20631237385E+02  0.27329630582E+02  0.35169732037E+02  0.00000000000E+00 0. -1.
         -2    1    1    2    0  502  0.80220563309E+01 -0.20631237385E+02 -0.33912696933E+01  0.22394241535E+02  0.00000000000E+00 0.  1.
<mgrwt>
<rscale>  2 0.22135974E+02</rscale>
<asrwt>0</asrwt>
<pdfrwt beam="1">  1        2 0.62694103E-02 0.22135974E+02</pdfrwt>
<pdfrwt beam="2">  1       -2 0.25865856E-02 0.22135974E+02</pdfrwt>
<totfact> 0.34785443E+05</totfact>
</mgrwt>
</event>
<event>
 4    1  0.7653521E+003  0.2247520E+02  0.7546771E-02  0.1700161E+00
         -2   -1    0    0    0  501 -0.00000000000E+00  0.00000000000E+00  0.36278995376E+02  0.36278995376E+02  0.00000000000E+00 0.  1.
          2   -1    0    0  501    0  0.00000000000E+00 -0.00000000000E+00 -0.24471274665E+03  0.24471274665E+03  0.00000000000E+00 0. -1.
          2    1    1    2  502    0 -0.60098696534E+00  0.22467161550E+02 -0.24065726430E+03  0.24170447532E+03  0.00000000000E+00 0. -1.
         -2    1    1    2    0  502  0.60098696534E+00 -0.22467161550E+02  0.32223513022E+02  0.39287266702E+02  0.00000000000E+00 0.  1.
<mgrwt>
<rscale>  2 0.22475198E+02</rscale>
<asrwt>0</asrwt>
<pdfrwt beam="2">  1        2 0.37648116E-01 0.22475198E+02</pdfrwt>
<pdfrwt beam="1">  1       -2 0.55813837E-02 0.22475198E+02</pdfrwt>
<totfact> 0.16733176E+04</totfact>
</mgrwt>
</event>
<event>
 4    1  0.7653521E+003  0.2368407E+02  0.7546771E-02  0.1680656E+00
         -2   -1    0    0    0  501 -0.00000000000E+00  0.00000000000E+00  0.16888898147E+03  0.16888898147E+03  0.00000000000E+00 0. -1.
          2   -1    0    0  501    0  0.00000000000E+00 -0.00000000000E+00 -0.18982416841E+03  0.18982416841E+03  0.00000000000E+00 0. -1.
          2    1    1    2  502    0 -0.22607973976E+02 -0.70579637587E+01 -0.18824815623E+03  0.18973218932E+03  0.00000000000E+00 0. -1.
         -2    1    1    2    0  502  0.22607973976E+02  0.70579637587E+01  0.16731296928E+03  0.16898096056E+03  0.00000000000E+00 0. -1.
<mgrwt>
<rscale>  2 0.23684074E+02</rscale>
<asrwt>0</asrwt>
<pdfrwt beam="2">  1        2 0.29203718E-01 0.23684074E+02</pdfrwt>
<pdfrwt beam="1">  1       -2 0.25982920E-01 0.23684074E+02</pdfrwt>
<totfact> 0.20736237E+03</totfact>
</mgrwt>
</event>
<event>
 4    1  0.7653521E+003  0.2377200E+02  0.7546771E-02  0.1679293E+00
         -2   -1    0    0    0  501 -0.00000000000E+00  0.00000000000E+00  0.43397102935E+03  0.43397102935E+03  0.00000000000E+00 0. -1.
          2   -1    0    0  501    0  0.00000000000E+00 -0.00000000000E+00 -0.97771229456E+01  0.97771229456E+01  0.00000000000E+00 0.  1.
          2    1    1    2  502    0  0.59439209688E+01  0.23016906188E+02  0.55259165818E+01  0.24405817360E+02  0.00000000000E+00 0.  1.
         -2    1    1    2    0  502 -0.59439209688E+01 -0.23016906188E+02  0.41866798982E+03  0.41934233493E+03  0.00000000000E+00 0. -1.
<mgrwt>
<rscale>  2 0.23772004E+02</rscale>
<asrwt>0</asrwt>
<pdfrwt beam="2">  1        2 0.15041731E-02 0.23772004E+02</pdfrwt>
<pdfrwt beam="1">  1       -2 0.66764759E-01 0.23772004E+02</pdfrwt>
<totfact> 0.12183957E+04</totfact>
</mgrwt>
</event>
<event>
 4    1  0.7653521E+003  0.2621778E+02  0.7546771E-02  0.1644102E+00
          2   -1    0    0  501    0  0.00000000000E+00  0.00000000000E+00  0.54419021187E+03  0.54419021187E+03  0.00000000000E+00 0.  1.
         -2   -1    0    0    0  501 -0.00000000000E+00 -0.00000000000E+00 -0.19625827830E+01  0.19625827830E+01  0.00000000000E+00 0. -1.
          2    1    1    2  502    0 -0.49619063934E+01  0.25743961462E+02  0.43413933697E+03  0.43493026564E+03  0.00000000000E+00 0.  1.
         -2    1    1    2    0  502  0.49619063934E+01 -0.25743961462E+02  0.10808829212E+03  0.11122252901E+03  0.00000000000E+00 0. -1.
<mgrwt>
<rscale>  2 0.26217782E+02</rscale>
<asrwt>0</asrwt>
<pdfrwt beam="1">  1        2 0.83721451E-01 0.26217782E+02</pdfrwt>
<pdfrwt beam="2">  1       -2 0.30193625E-03 0.26217782E+02</pdfrwt>
<totfact> 0.42294504E+05</totfact>
</mgrwt>
</event>
<event>
 4    1  0.7653521E+003  0.2093654E+02  0.7546771E-02  0.1727321E+00
         -2   -1    0    0    0  501 -0.00000000000E+00  0.00000000000E+00  0.29302211197E+00  0.29302211197E+00  0.00000000000E+00 0. -1.
          2   -1    0    0  501    0  0.00000000000E+00 -0.00000000000E+00 -0.19083951131E+04  0.19083951131E+04  0.00000000000E+00 0. -1.
          2    1    1    2  502    0  0.14341449804E+02 -0.15253242501E+02 -0.13977291491E+04  0.13978859441E+04  0.00000000000E+00 0. -1.
         -2    1    1    2    0  502 -0.14341449804E+02  0.15253242501E+02 -0.51037294197E+03  0.51080219115E+03  0.00000000000E+00 0. -1.
<mgrwt>
<rscale>  2 0.20936537E+02</rscale>
<asrwt>0</asrwt>
<pdfrwt beam="2">  1        2 0.29359964E+00 0.20936537E+02</pdfrwt>
<pdfrwt beam="1">  1       -2 0.45080265E-04 0.20936537E+02</pdfrwt>
<totfact> 0.90264080E+05</totfact>
</mgrwt>
</event>
<event>
 4    1  0.7653521E+003  0.2154133E+02  0.7546771E-02  0.1716307E+00
          2   -1    0    0  501    0  0.00000000000E+00  0.00000000000E+00  0.13804214027E+04  0.13804214027E+04  0.00000000000E+00 0.  1.
         -2   -1    0    0    0  501 -0.00000000000E+00 -0.00000000000E+00 -0.91507360895E+01  0.91507360895E+01  0.00000000000E+00 0.  1.
          2    1    1    2  502    0  0.13734203431E+02 -0.16595194385E+02  0.13675406019E+04  0.13677102495E+04  0.00000000000E+00 0.  1.
         -2    1    1    2    0  502 -0.13734203431E+02  0.16595194385E+02  0.37300647454E+01  0.21861889296E+02  0.00000000000E+00 0.  1.
<mgrwt>
<rscale>  2 0.21541328E+02</rscale>
<asrwt>0</asrwt>
<pdfrwt beam="1">  1        2 0.21237236E+00 0.21541328E+02</pdfrwt>
<pdfrwt beam="2">  1       -2 0.14078066E-02 0.21541328E+02</pdfrwt>
<totfact> 0.16652262E+04</totfact>
</mgrwt>
</event>
<event>
 4    1  0.7653521E+003  0.2283555E+02  0.7546771E-02  0.1694190E+00
          2   -1    0    0  501    0  0.00000000000E+00  0.00000000000E+00  0.52372693865E+03  0.52372693865E+03  0.00000000000E+00 0.  1.
         -2   -1    0    0    0  501 -0.00000000000E+00 -0.00000000000E+00 -0.22062164204E+01  0.22062164204E+01  0.00000000000E+00 0.  1.
          2    1    1    2  502    0  0.15859681148E+02 -0.16429637312E+02  0.45555011222E+03  0.45612209682E+03  0.00000000000E+00 0.  1.
         -2    1    1    2    0  502 -0.15859681148E+02  0.16429637312E+02  0.65970610008E+02  0.69811058244E+02  0.00000000000E+00 0.  1.
<mgrwt>
<rscale>  2 0.22835553E+02</rscale>
<asrwt>0</asrwt>
<pdfrwt beam="1">  1        2 0.80573276E-01 0.22835553E+02</pdfrwt>
<pdfrwt beam="2">  1       -2 0.33941833E-03 0.22835553E+02</pdfrwt>
<totfact> 0.36220298E+05</totfact>
</mgrwt>
</event>
<event>
 4    1  0.7653521E+003  0.2372409E+02  0.7546771E-02  0.1680035E+00
          2   -1    0    0  501    0  0.00000000000E+00  0.00000000000E+00  0.35066867473E+01  0.35066867473E+01  0.00000000000E+00 0.  1.
         -2   -1    0    0    0  501 -0.00000000000E+00 -0.00000000000E+00 -0.66928026056E+03  0.66928026056E+03  0.00000000000E+00 0. -1.
          2    1    1    2  502    0  0.18169225738E+02  0.15254889345E+02 -0.39589826944E+02  0.46153946855E+02  0.00000000000E+00 0.  1.
         -2    1    1    2    0  502 -0.18169225738E+02 -0.15254889345E+02 -0.62618374687E+03  0.62663300045E+03  0.00000000000E+00 0. -1.
<mgrwt>
<rscale>  2 0.23724089E+02</rscale>
<asrwt>0</asrwt>
<pdfrwt beam="1">  1        2 0.53949078E-03 0.23724089E+02</pdfrwt>
<pdfrwt beam="2">  1       -2 0.10296610E+00 0.23724089E+02</pdfrwt>
<totfact> 0.18462173E+04</totfact>
</mgrwt>
</event>
<event>
 4    1  0.7653521E+003  0.2744844E+02  0.7546771E-02  0.1628136E+00
         -2   -1    0    0    0  501 -0.00000000000E+00  0.00000000000E+00  0.88642370457E+01  0.88642370457E+01  0.00000000000E+00 0. -1.
          2   -1    0    0  501    0  0.00000000000E+00 -0.00000000000E+00 -0.22913118744E+03  0.22913118744E+03  0.00000000000E+00 0.  1.
          2    1    1    2  502    0  0.63964070467E+01  0.26692750303E+02 -0.20451409716E+03  0.20634784437E+03  0.00000000000E+00 0.  1.
         -2    1    1    2    0  502 -0.63964070467E+01 -0.26692750303E+02 -0.15752853238E+02  0.31647580112E+02  0.00000000000E+00 0. -1.
<mgrwt>
<rscale>  2 0.27448442E+02</rscale>
<asrwt>0</asrwt>
<pdfrwt beam="2">  1        2 0.35250948E-01 0.27448442E+02</pdfrwt>
<pdfrwt beam="1">  1       -2 0.13637289E-02 0.27448442E+02</pdfrwt>
<totfact> 0.13242197E+05</totfact>
</mgrwt>
</event>
<event>
 4    1  0.7653521E+003  0.2452753E+02  0.7546771E-02  0.1667882E+00
          2   -1    0    0  501    0  0.00000000000E+00  0.00000000000E+00  0.13413518549E+04  0.13413518549E+04  0.00000000000E+00 0. -1.
         -2   -1    0    0    0  501 -0.00000000000E+00 -0.00000000000E+00 -0.23855077402E+01  0.23855077402E+01  0.00000000000E+00 0. -1.
          2    1    1    2  502    0  0.24506488870E+02  0.10158602767E+01  0.12749067849E+04  0.12751427018E+04  0.00000000000E+00 0. -1.
         -2    1    1    2    0  502 -0.24506488870E+02 -0.10158602767E+01  0.64059562335E+02  0.68594660837E+02  0.00000000000E+00 0. -1.
<mgrwt>
<rscale>  2 0.24527535E+02</rscale>
<asrwt>0</asrwt>
<pdfrwt beam="1">  1        2 0.20636122E+00 0.24527535E+02</pdfrwt>
<pdfrwt beam="2">  1       -2 0.36700226E-03 0.24527535E+02</pdfrwt>
<totfact> 0.10853084E+05</totfact>
</mgrwt>
</event>
<event>
 4    1  0.7653521E+003  0.2691052E+02  0.7546771E-02  0.1634986E+00
          2   -1    0    0  501    0  0.00000000000E+00  0.00000000000E+00  0.88662964494E+01  0.88662964494E+01  0.00000000000E+00 0.  1.
         -2   -1    0    0    0  501 -0.00000000000E+00 -0.00000000000E+00 -0.88504055043E+02  0.88504055043E+02  0.00000000000E+00 0.  1.
          2    1    1    2  502    0  0.25104797344E+02 -0.96915016966E+01 -0.26297559362E+02  0.37626289789E+02  0.00000000000E+00 0.  1.
         -2    1    1    2    0  502 -0.25104797344E+02  0.96915016966E+01 -0.53340199231E+02  0.59744061704E+02  0.00000000000E+00 0.  1.
<mgrwt>
<rscale>  2 0.26910519E+02</rscale>
<asrwt>0</asrwt>
<pdfrwt beam="1">  1        2 0.13640456E-02 0.26910519E+02</pdfrwt>
<pdfrwt beam="2">  1       -2 0.13616008E-01 0.26910519E+02</pdfrwt>
<totfact> 0.22845154E+05</totfact>
</mgrwt>
</event>
<event>
 4    1  0.7653521E+003  0.2198586E+02  0.7546771E-02  0.1708497E+00
         -2   -1    0    0    0  501 -0.00000000000E+00  0.00000000000E+00  0.14495391075E+03  0.14495391075E+03  0.00000000000E+00 0. -1.
          2   -1    0    0  501    0  0.00000000000E+00 -0.00000000000E+00 -0.45124617392E+01  0.45124617392E+01  0.00000000000E+00 0. -1.
          2    1    1    2  502    0  0.41342829864E+01 -0.21593648459E+02  0.32040781922E+02  0.38858585354E+02  0.00000000000E+00 0. -1.
         -2    1    1    2    0  502 -0.41342829864E+01  0.21593648459E+02  0.10840066709E+03  0.11060778714E+03  0.00000000000E+00 0. -1.
<mgrwt>
<rscale>  2 0.21985858E+02</rscale>
<asrwt>0</asrwt>
<pdfrwt beam="2">  1        2 0.69422499E-03 0.21985858E+02</pdfrwt>
<pdfrwt beam="1">  1       -2 0.22300598E-01 0.21985858E+02</pdfrwt>
<totfact> 0.23768506E+05</totfact>
</mgrwt>
</event>
<event>
 4    1  0.7653521E+003  0.2368062E+02  0.7546771E-02  0.1680709E+00
         -2   -1    0    0    0  501 -0.00000000000E+00  0.00000000000E+00  0.12635059220E+02  0.12635059220E+02  0.00000000000E+00 0. -1.
          2   -1    0    0  501    0  0.00000000000E+00 -0.00000000000E+00 -0.52118408788E+02  0.52118408788E+02  0.00000000000E+00 0.  1.
          2    1    1    2  502    0  0.63916409598E+01  0.22801728724E+02 -0.32215542980E+02  0.39982660197E+02  0.00000000000E+00 0.  1.
         -2    1    1    2    0  502 -0.63916409598E+01 -0.22801728724E+02 -0.72678065877E+01  0.24770807810E+02  0.00000000000E+00 0. -1.
<mgrwt>
<rscale>  2 0.23680623E+02</rscale>
<asrwt>0</asrwt>
<pdfrwt beam="2">  1        2 0.80182169E-02 0.23680623E+02</pdfrwt>
<pdfrwt beam="1">  1       -2 0.19438552E-02 0.23680623E+02</pdfrwt>
<totfact> 0.39258459E+05</totfact>
</mgrwt>
</event>
<event>
 4    1  0.7653521E+003  0.3137826E+02  0.7546771E-02  0.1583335E+00
         -2   -1    0    0    0  501 -0.00000000000E+00  0.00000000000E+00  0.43903055233E+01  0.43903055233E+01  0.00000000000E+00 0.  1.
          2   -1    0    0  501    0  0.00000000000E+00 -0.00000000000E+00 -0.26291725985E+03  0.26291725985E+03  0.00000000000E+00 0. -1.
          2    1    1    2  502    0  0.13233307305E+02  0.28451250755E+02 -0.78017909781E+02  0.84091547366E+02  0.00000000000E+00 0.  1.
         -2    1    1    2    0  502 -0.13233307305E+02 -0.28451250755E+02 -0.18050904455E+03  0.18321601801E+03  0.00000000000E+00 0. -1.
<mgrwt>
<rscale>  2 0.31378258E+02</rscale>
<asrwt>0</asrwt>
<pdfrwt beam="2">  1        2 0.40448810E-01 0.31378258E+02</pdfrwt>
<pdfrwt beam="1">  1       -2 0.67543161E-03 0.31378258E+02</pdfrwt>
<totfact> 0.31075813E+05</totfact>
</mgrwt>
</event>
<event>
 4    1  0.7653521E+003  0.2776713E+02  0.7546771E-02  0.1624168E+00
         -2   -1    0    0    0  501 -0.00000000000E+00  0.00000000000E+00  0.29810686613E+01  0.29810686613E+01  0.00000000000E+00 0. -1.
          2   -1    0    0  501    0  0.00000000000E+00 -0.00000000000E+00 -0.80820679882E+03  0.80820679882E+03  0.00000000000E+00 0.  1.
          2    1    1    2  502    0  0.23373391329E+02  0.14989925817E+02 -0.73707103585E+03  0.73759387551E+03  0.00000000000E+00 0.  1.
         -2    1    1    2    0  502 -0.23373391329E+02 -0.14989925817E+02 -0.68154694310E+02  0.73593991975E+02  0.00000000000E+00 0. -1.
<mgrwt>
<rscale>  2 0.27767126E+02</rscale>
<asrwt>0</asrwt>
<pdfrwt beam="2">  1        2 0.12433950E+00 0.27767126E+02</pdfrwt>
<pdfrwt beam="1">  1       -2 0.45862597E-03 0.27767126E+02</pdfrwt>
<totfact> 0.15946009E+05</totfact>
</mgrwt>
</event>
<event>
 4    1  0.7653521E+003  0.2613602E+02  0.7546771E-02  0.1645201E+00
          2   -1    0    0  501    0  0.00000000000E+00  0.00000000000E+00  0.17518941832E+03  0.17518941832E+03  0.00000000000E+00 0.  1.
         -2   -1    0    0    0  501 -0.00000000000E+00 -0.00000000000E+00 -0.92655863314E+02  0.92655863314E+02  0.00000000000E+00 0.  1.
          2    1    1    2  502    0  0.25638412987E+02 -0.50757532315E+01  0.17234125456E+03  0.17431178823E+03  0.00000000000E+00 0.  1.
         -2    1    1    2    0  502 -0.25638412987E+02  0.50757532315E+01 -0.89807699550E+02  0.93533493412E+02  0.00000000000E+00 0.  1.
<mgrwt>
<rscale>  2 0.26136019E+02</rscale>
<asrwt>0</asrwt>
<pdfrwt beam="1">  1        2 0.26952218E-01 0.26136019E+02</pdfrwt>
<pdfrwt beam="2">  1       -2 0.14254748E-01 0.26136019E+02</pdfrwt>
<totfact> 0.59770213E+03</totfact>
</mgrwt>
</event>
<event>
 4    1  0.7653521E+003  0.2092296E+02  0.7546771E-02  0.1727573E+00
         -2   -1    0    0    0  501 -0.00000000000E+00  0.00000000000E+00  0.27989115793E+01  0.27989115793E+01  0.00000000000E+00 0.  1.
          2   -1    0    0  501    0  0.00000000000E+00 -0.00000000000E+00 -0.71463566504E+03  0.71463566504E+03  0.00000000000E+00 0.  1.
          2    1    1    2  502    0  0.18857333905E+02  0.90648380492E+01 -0.67295971828E+03  0.67328489718E+03  0.00000000000E+00 0.  1.
         -2    1    1    2    0  502 -0.18857333905E+02 -0.90648380492E+01 -0.38877035172E+02  0.44149679440E+02  0.00000000000E+00 0.  1.
<mgrwt>
<rscale>  2 0.20922962E+02</rscale>
<asrwt>0</asrwt>
<pdfrwt beam="2">  1        2 0.10994398E+00 0.20922962E+02</pdfrwt>
<pdfrwt beam="1">  1       -2 0.43060165E-03 0.20922962E+02</pdfrwt>
<totfact> 0.18617552E+05</totfact>
</mgrwt>
</event>
<event>
 4    1  0.7653521E+003  0.2128784E+02  0.7546771E-02  0.1720868E+00
          2   -1    0    0  501    0  0.00000000000E+00  0.00000000000E+00  0.58237031661E+01  0.58237031661E+01  0.00000000000E+00 0.  1.
         -2   -1    0    0    0  501 -0.00000000000E+00 -0.00000000000E+00 -0.22210366642E+03  0.22210366642E+03  0.00000000000E+00 0.  1.
          2    1    1    2  502    0  0.85486722989E+01 -0.19495958015E+02 -0.16284613103E+02  0.26802253653E+02  0.00000000000E+00 0.  1.
         -2    1    1    2    0  502 -0.85486722989E+01  0.19495958015E+02 -0.19999535016E+03  0.20112511594E+03  0.00000000000E+00 0.  1.
<mgrwt>
<rscale>  2 0.21287841E+02</rscale>
<asrwt>0</asrwt>
<pdfrwt beam="1">  1        2 0.89595434E-03 0.21287841E+02</pdfrwt>
<pdfrwt beam="2">  1       -2 0.34169795E-01 0.21287841E+02</pdfrwt>
<totfact> 0.82046784E+04</totfact>
</mgrwt>
</event>
<event>
 4    1  0.7653521E+003  0.2798499E+02  0.7546771E-02  0.1621493E+00
          2   -1    0    0  501    0  0.00000000000E+00  0.00000000000E+00  0.90716958559E+02  0.90716958559E+02  0.00000000000E+00 0. -1.
         -2   -1    0    0    0  501 -0.00000000000E+00 -0.00000000000E+00 -0.12164378311E+02  0.12164378311E+02  0.00000000000E+00 0.  1.
          2    1    1    2  502    0 -0.10810850873E+02 -0.25812494921E+02  0.66992500121E+02  0.72602716637E+02  0.00000000000E+00 0. -1.
         -2    1    1    2    0  502  0.10810850873E+02  0.25812494921E+02  0.11560080127E+02  0.30278620233E+02  0.00000000000E+00 0.  1.
<mgrwt>
<rscale>  2 0.27984985E+02</rscale>
<asrwt>0</asrwt>
<pdfrwt beam="1">  1        2 0.13956455E-01 0.27984985E+02</pdfrwt>
<pdfrwt beam="2">  1       -2 0.18714429E-02 0.27984985E+02</pdfrwt>
<totfact> 0.22936936E+05</totfact>
</mgrwt>
</event>
<event>
 4    1  0.7653521E+003  0.3506497E+02  0.7546771E-02  0.1548024E+00
          2   -1    0    0  501    0  0.00000000000E+00  0.00000000000E+00  0.43495688015E+01  0.43495688015E+01  0.00000000000E+00 0. -1.
         -2   -1    0    0    0  501 -0.00000000000E+00 -0.00000000000E+00 -0.28455193499E+03  0.28455193499E+03  0.00000000000E+00 0. -1.
          2    1    1    2  502    0  0.31722997598E+02 -0.14939989355E+02 -0.12839638384E+03  0.13309839684E+03  0.00000000000E+00 0. -1.
         -2    1    1    2    0  502 -0.31722997598E+02  0.14939989355E+02 -0.15180598235E+03  0.15580310696E+03  0.00000000000E+00 0. -1.
<mgrwt>
<rscale>  2 0.35064966E+02</rscale>
<asrwt>0</asrwt>
<pdfrwt beam="1">  1        2 0.66916449E-03 0.35064966E+02</pdfrwt>
<pdfrwt beam="2">  1       -2 0.43777217E-01 0.35064966E+02</pdfrwt>
<totfact> 0.87527061E+04</totfact>
</mgrwt>
</event>
<event>
 4    1  0.7653521E+003  0.2274783E+02  0.7546771E-02  0.1695631E+00
          2   -1    0    0  501    0  0.00000000000E+00  0.00000000000E+00  0.25124455115E+03  0.25124455115E+03  0.00000000000E+00 0.  1.
         -2   -1    0    0    0  501 -0.00000000000E+00 -0.00000000000E+00 -0.62152660639E+02  0.62152660639E+02  0.00000000000E+00 0. -1.
          2    1    1    2  502    0  0.22714341534E+02  0.12339118714E+01  0.24862635478E+03  0.24966483160E+03  0.00000000000E+00 0.  1.
         -2    1    1    2    0  502 -0.22714341534E+02 -0.12339118714E+01 -0.59534464262E+02  0.63732380190E+02  0.00000000000E+00 0. -1.
<mgrwt>
<rscale>  2 0.22747832E+02</rscale>
<asrwt>0</asrwt>
<pdfrwt beam="1">  1        2 0.38653007E-01 0.22747832E+02</pdfrwt>
<pdfrwt beam="2">  1       -2 0.95619480E-02 0.22747832E+02</pdfrwt>
<totfact> 0.74681025E+03</totfact>
</mgrwt>
</event>
<event>
 4    1  0.7653521E+003  0.3322623E+02  0.7546771E-02  0.1564941E+00
         -2   -1    0    0    0  501 -0.00000000000E+00  0.00000000000E+00  0.26710408893E+01  0.26710408893E+01  0.00000000000E+00 0.  1.
          2   -1    0    0  501    0  0.00000000000E+00 -0.00000000000E+00 -0.99001295045E+03  0.99001295045E+03  0.00000000000E+00 0.  1.
          2    1    1    2  502    0 -0.33197510467E+02 -0.13812301190E+01 -0.87249245088E+03  0.87312488187E+03  0.00000000000E+00 0.  1.
         -2    1    1    2    0  502  0.33197510467E+02  0.13812301190E+01 -0.11484945867E+03  0.11955910946E+03  0.00000000000E+00 0.  1.
<mgrwt>
<rscale>  2 0.33226232E+02</rscale>
<asrwt>0</asrwt>
<pdfrwt beam="2">  1        2 0.15230984E+00 0.33226232E+02</pdfrwt>
<pdfrwt beam="1">  1       -2 0.41092894E-03 0.33226232E+02</pdfrwt>
<totfact> 0.15032549E+05</totfact>
</mgrwt>
</event>
<event>
 4    1  0.7653521E+003  0.4550358E+02  0.7546771E-02  0.1471222E+00
         -2   -1    0    0    0  501 -0.00000000000E+00  0.00000000000E+00  0.34233788266E+02  0.34233788266E+02  0.00000000000E+00 0.  1.
          2   -1    0    0  501    0  0.00000000000E+00 -0.00000000000E+00 -0.71191530445E+02  0.71191530445E+02  0.00000000000E+00 0.  1.
          2    1    1    2  502    0  0.29882487662E+02 -0.34316364853E+02 -0.38922479584E+02  0.59879340198E+02  0.00000000000E+00 0.  1.
         -2    1    1    2    0  502 -0.29882487662E+02  0.34316364853E+02  0.19647374054E+01  0.45545978513E+02  0.00000000000E+00 0.  1.
<mgrwt>
<rscale>  2 0.45503582E+02</rscale>
<asrwt>0</asrwt>
<pdfrwt beam="2">  1        2 0.10952543E-01 0.45503582E+02</pdfrwt>
<pdfrwt beam="1">  1       -2 0.52667366E-02 0.45503582E+02</pdfrwt>
<totfact> 0.77929054E+04</totfact>
</mgrwt>
</event>
<event>
 4    1  0.7653521E+003  0.3308328E+02  0.7546771E-02  0.1566311E+00
         -2   -1    0    0    0  501 -0.00000000000E+00  0.00000000000E+00  0.88706205386E+01  0.88706205386E+01  0.00000000000E+00 0. -1.
          2   -1    0    0  501    0  0.00000000000E+00 -0.00000000000E+00 -0.49709148230E+03  0.49709148230E+03  0.00000000000E+00 0. -1.
          2    1    1    2  502    0  0.16641950033E+02  0.28592817636E+02 -0.46345909992E+03  0.46463839813E+03  0.00000000000E+00 0. -1.
         -2    1    1    2    0  502 -0.16641950033E+02 -0.28592817636E+02 -0.24761761847E+02  0.41323704711E+02  0.00000000000E+00 0. -1.
<mgrwt>
<rscale>  2 0.33083285E+02</rscale>
<asrwt>0</asrwt>
<pdfrwt beam="2">  1        2 0.76475618E-01 0.33083285E+02</pdfrwt>
<pdfrwt beam="1">  1       -2 0.13647107E-02 0.33083285E+02</pdfrwt>
<totfact> 0.63202381E+04</totfact>
</mgrwt>
</event>
<event>
 4    1  0.7653521E+003  0.2045099E+02  0.7546771E-02  0.1736506E+00
         -2   -1    0    0    0  501 -0.00000000000E+00  0.00000000000E+00  0.57706725354E+01  0.57706725354E+01  0.00000000000E+00 0.  1.
          2   -1    0    0  501    0  0.00000000000E+00 -0.00000000000E+00 -0.46858252716E+03  0.46858252716E+03  0.00000000000E+00 0. -1.
          2    1    1    2  502    0  0.85162265427E+01  0.18593458023E+02 -0.44946997915E+03  0.44993500081E+03  0.00000000000E+00 0. -1.
         -2    1    1    2    0  502 -0.85162265427E+01 -0.18593458023E+02 -0.13341875479E+02  0.24418198891E+02  0.00000000000E+00 0.  1.
<mgrwt>
<rscale>  2 0.20450985E+02</rscale>
<asrwt>0</asrwt>
<pdfrwt beam="2">  1        2 0.72089614E-01 0.20450985E+02</pdfrwt>
<pdfrwt beam="1">  1       -2 0.88779584E-03 0.20450985E+02</pdfrwt>
<totfact> 0.10875962E+05</totfact>
</mgrwt>
</event>
<event>
 4    1  0.7653521E+003  0.2473285E+02  0.7546771E-02  0.1664869E+00
          2   -1    0    0  501    0  0.00000000000E+00  0.00000000000E+00  0.35085192545E+03  0.35085192545E+03  0.00000000000E+00 0. -1.
         -2   -1    0    0    0  501 -0.00000000000E+00 -0.00000000000E+00 -0.22631617326E+01  0.22631617326E+01  0.00000000000E+00 0. -1.
          2    1    1    2  502    0 -0.83022160307E+01  0.23297775072E+02  0.89691425912E+02  0.93039050922E+02  0.00000000000E+00 0. -1.
         -2    1    1    2    0  502  0.83022160307E+01 -0.23297775072E+02  0.25889733781E+03  0.26007603626E+03  0.00000000000E+00 0. -1.
<mgrwt>
<rscale>  2 0.24732847E+02</rscale>
<asrwt>0</asrwt>
<pdfrwt beam="1">  1        2 0.53977176E-01 0.24732847E+02</pdfrwt>
<pdfrwt beam="2">  1       -2 0.34817901E-03 0.24732847E+02</pdfrwt>
<totfact> 0.53420176E+05</totfact>
</mgrwt>
</event>
<event>
 4    1  0.7653521E+003  0.2283847E+02  0.7546771E-02  0.1694142E+00
         -2   -1    0    0    0  501 -0.00000000000E+00  0.00000000000E+00  0.75253062116E+01  0.75253062116E+01  0.00000000000E+00 0. -1.
          2   -1    0    0  501    0  0.00000000000E+00 -0.00000000000E+00 -0.46487739598E+03  0.46487739598E+03  0.00000000000E+00 0. -1.
          2    1    1    2  502    0 -0.66683775294E+01  0.21843270623E+02 -0.44655846194E+03  0.44714209784E+03  0.00000000000E+00 0. -1.
         -2    1    1    2    0  502  0.66683775294E+01 -0.21843270623E+02 -0.10793627823E+02  0.25260604347E+02  0.00000000000E+00 0. -1.
<mgrwt>
<rscale>  2 0.22838470E+02</rscale>
<asrwt>0</asrwt>
<pdfrwt beam="2">  1        2 0.71519642E-01 0.22838470E+02</pdfrwt>
<pdfrwt beam="1">  1       -2 0.11577387E-02 0.22838470E+02</pdfrwt>
<totfact> 0.78599643E+04</totfact>
</mgrwt>
</event>
<event>
 4    1  0.7653521E+003  0.2018643E+02  0.7546771E-02  0.1741646E+00
         -2   -1    0    0    0  501 -0.00000000000E+00  0.00000000000E+00  0.24202372526E+03  0.24202372526E+03  0.00000000000E+00 0. -1.
          2   -1    0    0  501    0  0.00000000000E+00 -0.00000000000E+00 -0.11044771839E+03  0.11044771839E+03  0.00000000000E+00 0. -1.
          2    1    1    2  502    0  0.12050958121E+02  0.16194634127E+02 -0.10909927489E+03  0.11095108629E+03  0.00000000000E+00 0. -1.
         -2    1    1    2    0  502 -0.12050958121E+02 -0.16194634127E+02  0.24067528176E+03  0.24152035736E+03  0.00000000000E+00 0. -1.
<mgrwt>
<rscale>  2 0.20186425E+02</rscale>
<asrwt>0</asrwt>
<pdfrwt beam="2">  1        2 0.16991957E-01 0.20186425E+02</pdfrwt>
<pdfrwt beam="1">  1       -2 0.37234419E-01 0.20186425E+02</pdfrwt>
<totfact> 0.19290372E+03</totfact>
</mgrwt>
</event>
<event>
 4    1  0.7653521E+003  0.3453879E+02  0.7546771E-02  0.1552735E+00
          2   -1    0    0  501    0  0.00000000000E+00  0.00000000000E+00  0.13368216239E+03  0.13368216239E+03  0.00000000000E+00 0. -1.
         -2   -1    0    0    0  501 -0.00000000000E+00 -0.00000000000E+00 -0.60719352548E+02  0.60719352548E+02  0.00000000000E+00 0.  1.
          2    1    1    2  502    0  0.11929991854E+02 -0.32413013088E+02  0.12625592559E+03  0.13089494592E+03  0.00000000000E+00 0. -1.
         -2    1    1    2    0  502 -0.11929991854E+02  0.32413013088E+02 -0.53293115740E+02  0.63506569017E+02  0.00000000000E+00 0.  1.
<mgrwt>
<rscale>  2 0.34538792E+02</rscale>
<asrwt>0</asrwt>
<pdfrwt beam="1">  1        2 0.20566486E-01 0.34538792E+02</pdfrwt>
<pdfrwt beam="2">  1       -2 0.93414389E-02 0.34538792E+02</pdfrwt>
<totfact> 0.15718321E+04</totfact>
</mgrwt>
</event>
<event>
 4    1  0.7653521E+003  0.2252756E+02  0.7546771E-02  0.1699285E+00
         -2   -1    0    0    0  501 -0.00000000000E+00  0.00000000000E+00  0.19102936334E+01  0.19102936334E+01  0.00000000000E+00 0.  1.
          2   -1    0    0  501    0  0.00000000000E+00 -0.00000000000E+00 -0.39229235038E+03  0.39229235038E+03  0.00000000000E+00 0. -1.
          2    1    1    2  502    0  0.12460052289E+01  0.22493076306E+02 -0.30717472335E+03  0.30799967804E+03  0.00000000000E+00 0. -1.
         -2    1    1    2    0  502 -0.12460052289E+01 -0.22493076306E+02 -0.83207333393E+02  0.86202965965E+02  0.00000000000E+00 0.  1.
<mgrwt>
<rscale>  2 0.22527561E+02</rscale>
<asrwt>0</asrwt>
<pdfrwt beam="2">  1        2 0.60352702E-01 0.22527561E+02</pdfrwt>
<pdfrwt beam="1">  1       -2 0.29389117E-03 0.22527561E+02</pdfrwt>
<totfact> 0.58331085E+05</totfact>
</mgrwt>
</event>
<event>
 4    1  0.7653521E+003  0.2271314E+02  0.7546771E-02  0.1696203E+00
         -2   -1    0    0    0  501 -0.00000000000E+00  0.00000000000E+00  0.13119975083E+02  0.13119975083E+02  0.00000000000E+00 0. -1.
          2   -1    0    0  501    0  0.00000000000E+00 -0.00000000000E+00 -0.39553847287E+02  0.39553847287E+02  0.00000000000E+00 0. -1.
          2    1    1    2  502    0  0.50400388415E+01  0.22146874880E+02 -0.11194734744E+02  0.25322088074E+02  0.00000000000E+00 0. -1.
         -2    1    1    2    0  502 -0.50400388415E+01 -0.22146874880E+02 -0.15239137460E+02  0.27351734296E+02  0.00000000000E+00 0. -1.
<mgrwt>
<rscale>  2 0.22713137E+02</rscale>
<asrwt>0</asrwt>
<pdfrwt beam="2">  1        2 0.60852073E-02 0.22713137E+02</pdfrwt>
<pdfrwt beam="1">  1       -2 0.20184577E-02 0.22713137E+02</pdfrwt>
<totfact> 0.51126143E+05</totfact>
</mgrwt>
</event>
<event>
 4    1  0.7653521E+003  0.2324479E+02  0.7546771E-02  0.1687573E+00
         -2   -1    0    0    0  501 -0.00000000000E+00  0.00000000000E+00  0.35909485362E+03  0.35909485362E+03  0.00000000000E+00 0.  1.
          2   -1    0    0  501    0  0.00000000000E+00 -0.00000000000E+00 -0.65319059306E+02  0.65319059306E+02  0.00000000000E+00 0. -1.
          2    1    1    2  502    0 -0.75900795703E+01 -0.21970681459E+02 -0.62860647445E+02  0.67020751628E+02  0.00000000000E+00 0. -1.
         -2    1    1    2    0  502  0.75900795703E+01  0.21970681459E+02  0.35663644176E+03  0.35739316129E+03  0.00000000000E+00 0.  1.
<mgrwt>
<rscale>  2 0.23244788E+02</rscale>
<asrwt>0</asrwt>
<pdfrwt beam="2">  1        2 0.10049086E-01 0.23244788E+02</pdfrwt>
<pdfrwt beam="1">  1       -2 0.55245361E-01 0.23244788E+02</pdfrwt>
<totfact> 0.16874280E+03</totfact>
</mgrwt>
</event>
<event>
 4    1  0.7653521E+003  0.2053748E+02  0.7546771E-02  0.1734846E+00
         -2   -1    0    0    0  501 -0.00000000000E+00  0.00000000000E+00  0.17495262640E+01  0.17495262640E+01  0.00000000000E+00 0. -1.
          2   -1    0    0  501    0  0.00000000000E+00 -0.00000000000E+00 -0.82588247999E+03  0.82588247999E+03  0.00000000000E+00 0.  1.
          2    1    1    2  502    0  0.12781501833E+02 -0.16075490472E+02 -0.76028360387E+03  0.76056094200E+03  0.00000000000E+00 0.  1.
         -2    1    1    2    0  502 -0.12781501833E+02  0.16075490472E+02 -0.63849349849E+02  0.67071064246E+02  0.00000000000E+00 0. -1.
<mgrwt>
<rscale>  2 0.20537482E+02</rscale>
<asrwt>0</asrwt>
<pdfrwt beam="2">  1        2 0.12705926E+00 0.20537482E+02</pdfrwt>
<pdfrwt beam="1">  1       -2 0.26915701E-03 0.20537482E+02</pdfrwt>
<totfact> 0.29445497E+05</totfact>
</mgrwt>
</event>
<event>
 4    1  0.7653521E+003  0.4797818E+02  0.7546771E-02  0.1456562E+00
          2   -1    0    0  501    0  0.00000000000E+00  0.00000000000E+00  0.33781967000E+04  0.33781967000E+04  0.00000000000E+00 0. -1.
         -2   -1    0    0    0  501 -0.00000000000E+00 -0.00000000000E+00 -0.52994571616E+01  0.52994571616E+01  0.00000000000E+00 0.  1.
          2    1    1    2  502    0  0.17260455870E+02 -0.44765857834E+02  0.32656940245E+04  0.32660464429E+04  0.00000000000E+00 0. -1.
         -2    1    1    2    0  502 -0.17260455870E+02  0.44765857834E+02  0.10720321837E+03  0.11744971432E+03  0.00000000000E+00 0.  1.
<mgrwt>
<rscale>  2 0.47978176E+02</rscale>
<asrwt>0</asrwt>
<pdfrwt beam="1">  1        2 0.51972085E+00 0.47978176E+02</pdfrwt>
<pdfrwt beam="2">  1       -2 0.81530380E-03 0.47978176E+02</pdfrwt>
<totfact> 0.35968624E+03</totfact>
</mgrwt>
</event>
<event>
 4    1  0.7653521E+003  0.2069510E+02  0.7546771E-02  0.1731848E+00
         -2   -1    0    0    0  501 -0.00000000000E+00  0.00000000000E+00  0.13960683744E+02  0.13960683744E+02  0.00000000000E+00 0.  1.
          2   -1    0    0  501    0  0.00000000000E+00 -0.00000000000E+00 -0.40110882077E+02  0.40110882077E+02  0.00000000000E+00 0.  1.
          2    1    1    2  502    0 -0.14288107292E+02 -0.14971206789E+02 -0.26185865879E+02  0.33376438015E+02  0.00000000000E+00 0.  1.
         -2    1    1    2    0  502  0.14288107292E+02  0.14971206789E+02  0.35667545800E-01  0.20695127806E+02  0.00000000000E+00 0.  1.
<mgrwt>
<rscale>  2 0.20695097E+02</rscale>
<asrwt>0</asrwt>
<pdfrwt beam="2">  1        2 0.61709048E-02 0.20695097E+02</pdfrwt>
<pdfrwt beam="1">  1       -2 0.21477975E-02 0.20695097E+02</pdfrwt>
<totfact> 0.44825076E+05</totfact>
</mgrwt>
</event>
<event>
 4    1  0.7653521E+003  0.2982929E+02  0.7546771E-02  0.1599983E+00
          2   -1    0    0  501    0  0.00000000000E+00  0.00000000000E+00  0.42341595791E+03  0.42341595791E+03  0.00000000000E+00 0.  1.
         -2   -1    0    0    0  501 -0.00000000000E+00 -0.00000000000E+00 -0.96703723172E+01  0.96703723172E+01  0.00000000000E+00 0.  1.
          2    1    1    2  502    0 -0.29586650145E+02  0.37969448858E+01  0.39844829006E+03  0.39956329475E+03  0.00000000000E+00 0.  1.
         -2    1    1    2    0  502  0.29586650145E+02 -0.37969448858E+01  0.15297295535E+02  0.33523035482E+02  0.00000000000E+00 0.  1.
<mgrwt>
<rscale>  2 0.29829292E+02</rscale>
<asrwt>0</asrwt>
<pdfrwt beam="1">  1        2 0.65140902E-01 0.29829292E+02</pdfrwt>
<pdfrwt beam="2">  1       -2 0.14877499E-02 0.29829292E+02</pdfrwt>
<totfact> 0.64785897E+04</totfact>
</mgrwt>
</event>
<event>
 4    1  0.7653521E+003  0.2121738E+02  0.7546771E-02  0.1722149E+00
          2   -1    0    0  501    0  0.00000000000E+00  0.00000000000E+00  0.61757509934E+03  0.61757509934E+03  0.00000000000E+00 0.  1.
         -2   -1    0    0    0  501 -0.00000000000E+00 -0.00000000000E+00 -0.23695263878E+02  0.23695263878E+02  0.00000000000E+00 0.  1.
          2    1    1    2  502    0  0.21089283782E+02 -0.23279317680E+01  0.61260468509E+03  0.61297200373E+03  0.00000000000E+00 0.  1.
         -2    1    1    2    0  502 -0.21089283782E+02  0.23279317680E+01 -0.18724849624E+02  0.28298359496E+02  0.00000000000E+00 0.  1.
<mgrwt>
<rscale>  2 0.21217379E+02</rscale>
<asrwt>0</asrwt>
<pdfrwt beam="1">  1        2 0.95011542E-01 0.21217379E+02</pdfrwt>
<pdfrwt beam="2">  1       -2 0.36454257E-02 0.21217379E+02</pdfrwt>
<totfact> 0.12028890E+04</totfact>
</mgrwt>
</event>
<event>
 4    1  0.7653521E+003  0.2093276E+02  0.7546771E-02  0.1727391E+00
          2   -1    0    0  501    0  0.00000000000E+00  0.00000000000E+00  0.10733234438E+04  0.10733234438E+04  0.00000000000E+00 0.  1.
         -2   -1    0    0    0  501 -0.00000000000E+00 -0.00000000000E+00 -0.45468068172E+01  0.45468068172E+01  0.00000000000E+00 0.  1.
          2    1    1    2  502    0 -0.16059786476E+01 -0.20871064674E+02  0.10485596814E+04  0.10487686046E+04  0.00000000000E+00 0.  1.
         -2    1    1    2    0  502  0.16059786476E+01  0.20871064674E+02  0.20216955547E+02  0.29101645995E+02  0.00000000000E+00 0.  1.
<mgrwt>
<rscale>  2 0.20932762E+02</rscale>
<asrwt>0</asrwt>
<pdfrwt beam="1">  1        2 0.16512648E+00 0.20932762E+02</pdfrwt>
<pdfrwt beam="2">  1       -2 0.69950959E-03 0.20932762E+02</pdfrwt>
<totfact> 0.60437462E+04</totfact>
</mgrwt>
</event>
<event>
 4    1  0.7653521E+003  0.2071110E+02  0.7546771E-02  0.1731546E+00
         -2   -1    0    0    0  501 -0.00000000000E+00  0.00000000000E+00  0.51185128503E+00  0.51185128503E+00  0.00000000000E+00 0. -1.
          2   -1    0    0  501    0  0.00000000000E+00 -0.00000000000E+00 -0.10421165368E+04  0.10421165368E+04  0.00000000000E+00 0. -1.
          2    1    1    2  502    0  0.10019423704E+02  0.18126245109E+02 -0.75149968738E+03  0.75178502894E+03  0.00000000000E+00 0. -1.
         -2    1    1    2    0  502 -0.10019423704E+02 -0.18126245109E+02 -0.29010499810E+03  0.29084335911E+03  0.00000000000E+00 0. -1.
<mgrwt>
<rscale>  2 0.20711099E+02</rscale>
<asrwt>0</asrwt>
<pdfrwt beam="2">  1        2 0.16032548E+00 0.20711099E+02</pdfrwt>
<pdfrwt beam="1">  1       -2 0.78746419E-04 0.20711099E+02</pdfrwt>
<totfact> 0.11249387E+06</totfact>
</mgrwt>
</event>
<event>
 4    1  0.7653521E+003  0.2776062E+02  0.7546771E-02  0.1624249E+00
         -2   -1    0    0    0  501 -0.00000000000E+00  0.00000000000E+00  0.24977810553E+01  0.24977810553E+01  0.00000000000E+00 0.  1.
          2   -1    0    0  501    0  0.00000000000E+00 -0.00000000000E+00 -0.81976110156E+03  0.81976110156E+03  0.00000000000E+00 0.  1.
          2    1    1    2  502    0 -0.61135374164E+01 -0.27079077406E+02 -0.73330125751E+03  0.73382653675E+03  0.00000000000E+00 0.  1.
         -2    1    1    2    0  502  0.61135374164E+01  0.27079077406E+02 -0.83962062995E+02  0.88432345866E+02  0.00000000000E+00 0.  1.
<mgrwt>
<rscale>  2 0.27760615E+02</rscale>
<asrwt>0</asrwt>
<pdfrwt beam="2">  1        2 0.12611722E+00 0.27760615E+02</pdfrwt>
<pdfrwt beam="1">  1       -2 0.38427362E-03 0.27760615E+02</pdfrwt>
<totfact> 0.19903808E+05</totfact>
</mgrwt>
</event>
<event>
 4    1  0.7653521E+003  0.2011512E+02  0.7546771E-02  0.1743048E+00
          2   -1    0    0  501    0  0.00000000000E+00  0.00000000000E+00  0.17132428015E+03  0.17132428015E+03  0.00000000000E+00 0. -1.
         -2   -1    0    0    0  501 -0.00000000000E+00 -0.00000000000E+00 -0.54569900371E+01  0.54569900371E+01  0.00000000000E+00 0.  1.
          2    1    1    2  502    0  0.20100384434E+02 -0.76976607155E+00  0.14950382923E+03  0.15085096270E+03  0.00000000000E+00 0. -1.
         -2    1    1    2    0  502 -0.20100384434E+02  0.76976607155E+00  0.16363460887E+02  0.25930307487E+02  0.00000000000E+00 0.  1.
<mgrwt>
<rscale>  2 0.20115119E+02</rscale>
<asrwt>0</asrwt>
<pdfrwt beam="1">  1        2 0.26357577E-01 0.20115119E+02</pdfrwt>
<pdfrwt beam="2">  1       -2 0.83953706E-03 0.20115119E+02</pdfrwt>
<totfact> 0.31572665E+05</totfact>
</mgrwt>
</event>
<event>
 4    1  0.7653521E+003  0.3337058E+02  0.7546771E-02  0.1563565E+00
         -2   -1    0    0    0  501 -0.00000000000E+00  0.00000000000E+00  0.23870406212E+02  0.23870406212E+02  0.00000000000E+00 0. -1.
          2   -1    0    0  501    0  0.00000000000E+00 -0.00000000000E+00 -0.13832364257E+04  0.13832364257E+04  0.00000000000E+00 0. -1.
          2    1    1    2  502    0  0.25466825025E+01  0.33273266799E+02 -0.13712704676E+04  0.13716764528E+04  0.00000000000E+00 0. -1.
         -2    1    1    2    0  502 -0.25466825025E+01 -0.33273266799E+02  0.11904448148E+02  0.35430379068E+02  0.00000000000E+00 0. -1.
<mgrwt>
<rscale>  2 0.33370584E+02</rscale>
<asrwt>0</asrwt>
<pdfrwt beam="2">  1        2 0.21280565E+00 0.33370584E+02</pdfrwt>
<pdfrwt beam="1">  1       -2 0.36723694E-02 0.33370584E+02</pdfrwt>
<totfact> 0.45795155E+03</totfact>
</mgrwt>
</event>
<event>
 4    1  0.7653521E+003  0.3935798E+02  0.7546771E-02  0.1512990E+00
          2   -1    0    0  501    0  0.00000000000E+00  0.00000000000E+00  0.83145459529E+01  0.83145459529E+01  0.00000000000E+00 0. -1.
         -2   -1    0    0    0  501 -0.00000000000E+00 -0.00000000000E+00 -0.21647377787E+03  0.21647377787E+03  0.00000000000E+00 0. -1.
          2    1    1    2  502    0 -0.55436071320E+01  0.38965616991E+02 -0.62121901513E+02  0.73540339509E+02  0.00000000000E+00 0. -1.
         -2    1    1    2    0  502  0.55436071320E+01 -0.38965616991E+02 -0.14603733041E+03  0.15124798432E+03  0.00000000000E+00 0. -1.
<mgrwt>
<rscale>  2 0.39357984E+02</rscale>
<asrwt>0</asrwt>
<pdfrwt beam="1">  1        2 0.12791611E-02 0.39357984E+02</pdfrwt>
<pdfrwt beam="2">  1       -2 0.33303653E-01 0.39357984E+02</pdfrwt>
<totfact> 0.62469293E+04</totfact>
</mgrwt>
</event>
<event>
 4    1  0.7653521E+003  0.2755141E+02  0.7546771E-02  0.1626847E+00
         -2   -1    0    0    0  501 -0.00000000000E+00  0.00000000000E+00  0.19191613620E+02  0.19191613620E+02  0.00000000000E+00 0.  1.
          2   -1    0    0  501    0  0.00000000000E+00 -0.00000000000E+00 -0.10720427386E+03  0.10720427386E+03  0.00000000000E+00 0. -1.
          2    1    1    2  502    0  0.12774802257E+02  0.24410749840E+02 -0.94210041751E+02  0.98156060675E+02  0.00000000000E+00 0. -1.
         -2    1    1    2    0  502 -0.12774802257E+02 -0.24410749840E+02  0.61973815100E+01  0.28239826806E+02  0.00000000000E+00 0.  1.
<mgrwt>
<rscale>  2 0.27551412E+02</rscale>
<asrwt>0</asrwt>
<pdfrwt beam="2">  1        2 0.16492965E-01 0.27551412E+02</pdfrwt>
<pdfrwt beam="1">  1       -2 0.29525559E-02 0.27551412E+02</pdfrwt>
<totfact> 0.10086868E+05</totfact>
</mgrwt>
</event>
<event>
 4    1  0.7653521E+003  0.2313725E+02  0.7546771E-02  0.1689295E+00
          2   -1    0    0  501    0  0.00000000000E+00  0.00000000000E+00  0.75776552572E+02  0.75776552572E+02  0.00000000000E+00 0. -1.
         -2   -1    0    0    0  501 -0.00000000000E+00 -0.00000000000E+00 -0.20400936186E+02  0.20400936186E+02  0.00000000000E+00 0.  1.
          2    1    1    2  502    0  0.10095458308E+02  0.20818602782E+02  0.66568711042E+02  0.70475001171E+02  0.00000000000E+00 0. -1.
         -2    1    1    2    0  502 -0.10095458308E+02 -0.20818602782E+02 -0.11193094655E+02  0.25702487588E+02  0.00000000000E+00 0.  1.
<mgrwt>
<rscale>  2 0.23137254E+02</rscale>
<asrwt>0</asrwt>
<pdfrwt beam="1">  1        2 0.11657931E-01 0.23137254E+02</pdfrwt>
<pdfrwt beam="2">  1       -2 0.31386056E-02 0.23137254E+02</pdfrwt>
<totfact> 0.13058823E+05</totfact>
</mgrwt>
</event>
<event>
 4    1  0.7653521E+003  0.2753341E+02  0.7546771E-02  0.1627072E+00
          2   -1    0    0  501    0  0.00000000000E+00  0.00000000000E+00  0.47551346550E+03  0.47551346550E+03  0.00000000000E+00 0.  1.
         -2   -1    0    0    0  501 -0.00000000000E+00 -0.00000000000E+00 -0.16094310061E+01  0.16094310061E+01  0.00000000000E+00 0.  1.
          2    1    1    2  502    0  0.56158811905E+01 -0.26954602790E+02  0.26011916245E+03  0.26157229862E+03  0.00000000000E+00 0.  1.
         -2    1    1    2    0  502 -0.56158811905E+01  0.26954602790E+02  0.21378487205E+03  0.21555059789E+03  0.00000000000E+00 0.  1.
<mgrwt>
<rscale>  2 0.27533411E+02</rscale>
<asrwt>0</asrwt>
<pdfrwt beam="1">  1        2 0.73155806E-01 0.27533411E+02</pdfrwt>
<pdfrwt beam="2">  1       -2 0.24760515E-03 0.27533411E+02</pdfrwt>
<totfact> 0.64177124E+05</totfact>
</mgrwt>
</event>
<event>
 4    1  0.7653521E+003  0.2080069E+02  0.7546771E-02  0.1729859E+00
         -2   -1    0    0    0  501 -0.00000000000E+00  0.00000000000E+00  0.38732495609E+02  0.38732495609E+02  0.00000000000E+00 0.  1.
          2   -1    0    0  501    0  0.00000000000E+00 -0.00000000000E+00 -0.70162064376E+02  0.70162064376E+02  0.00000000000E+00 0. -1.
          2    1    1    2  502    0  0.19391740991E+02 -0.75252277283E+01 -0.65639921858E+02  0.68856866125E+02  0.00000000000E+00 0. -1.
         -2    1    1    2    0  502 -0.19391740991E+02  0.75252277283E+01  0.34210353091E+02  0.40037693860E+02  0.00000000000E+00 0.  1.
<mgrwt>
<rscale>  2 0.20800689E+02</rscale>
<asrwt>0</asrwt>
<pdfrwt beam="2">  1        2 0.10794164E-01 0.20800689E+02</pdfrwt>
<pdfrwt beam="1">  1       -2 0.59588456E-02 0.20800689E+02</pdfrwt>
<totfact> 0.56272473E+04</totfact>
</mgrwt>
</event>
<event>
 4    1  0.7653521E+003  0.2714877E+02  0.7546771E-02  0.1631928E+00
         -2   -1    0    0    0  501 -0.00000000000E+00  0.00000000000E+00  0.12609852497E+02  0.12609852497E+02  0.00000000000E+00 0.  1.
          2   -1    0    0  501    0  0.00000000000E+00 -0.00000000000E+00 -0.13708144806E+04  0.13708144806E+04  0.00000000000E+00 0. -1.
          2    1    1    2  502    0  0.22119122377E+02 -0.15741668592E+02 -0.13559067207E+04  0.13561784879E+04  0.00000000000E+00 0. -1.
         -2    1    1    2    0  502 -0.22119122377E+02  0.15741668592E+02 -0.22979074181E+01  0.27245845248E+02  0.00000000000E+00 0.  1.
<mgrwt>
<rscale>  2 0.27148770E+02</rscale>
<asrwt>0</asrwt>
<pdfrwt beam="2">  1        2 0.21089450E+00 0.27148770E+02</pdfrwt>
<pdfrwt beam="1">  1       -2 0.19399776E-02 0.27148770E+02</pdfrwt>
<totfact> 0.11148254E+04</totfact>
</mgrwt>
</event>
<event>
 4    1  0.7653521E+003  0.2988879E+02  0.7546771E-02  0.1599321E+00
         -2   -1    0    0    0  501 -0.00000000000E+00  0.00000000000E+00  0.13779732259E+02  0.13779732259E+02  0.00000000000E+00 0. -1.
          2   -1    0    0  501    0  0.00000000000E+00 -0.00000000000E+00 -0.47827702180E+03  0.47827702180E+03  0.00000000000E+00 0. -1.
          2    1    1    2  502    0 -0.58325179260E+01  0.29314190370E+02 -0.46099562964E+03  0.46196353814E+03  0.00000000000E+00 0. -1.
         -2    1    1    2    0  502  0.58325179260E+01 -0.29314190370E+02 -0.35016599013E+01  0.30093215921E+02  0.00000000000E+00 0. -1.
<mgrwt>
<rscale>  2 0.29888794E+02</rscale>
<asrwt>0</asrwt>
<pdfrwt beam="2">  1        2 0.73581078E-01 0.29888794E+02</pdfrwt>
<pdfrwt beam="1">  1       -2 0.21199589E-02 0.29888794E+02</pdfrwt>
<totfact> 0.35119397E+04</totfact>
</mgrwt>
</event>
<event>
 4    1  0.7653521E+003  0.2199859E+02  0.7546771E-02  0.1708276E+00
          2   -1    0    0  501    0  0.00000000000E+00  0.00000000000E+00  0.43895798555E+02  0.43895798555E+02  0.00000000000E+00 0.  1.
         -2   -1    0    0    0  501 -0.00000000000E+00 -0.00000000000E+00 -0.23314041901E+02  0.23314041901E+02  0.00000000000E+00 0. -1.
          2    1    1    2  502    0  0.15680799986E+02 -0.15428890258E+02  0.34689109537E+02  0.41076422230E+02  0.00000000000E+00 0.  1.
         -2    1    1    2    0  502 -0.15680799986E+02  0.15428890258E+02 -0.14107352883E+02  0.26133418225E+02  0.00000000000E+00 0. -1.
<mgrwt>
<rscale>  2 0.21998594E+02</rscale>
<asrwt>0</asrwt>
<pdfrwt beam="1">  1        2 0.67531998E-02 0.21998594E+02</pdfrwt>
<pdfrwt beam="2">  1       -2 0.35867757E-02 0.21998594E+02</pdfrwt>
<totfact> 0.20179624E+05</totfact>
</mgrwt>
</event>
<event>
 4    1  0.7653521E+003  0.2656967E+02  0.7546771E-02  0.1639429E+00
          2   -1    0    0  501    0  0.00000000000E+00  0.00000000000E+00  0.15509011829E+04  0.15509011829E+04  0.00000000000E+00 0. -1.
         -2   -1    0    0    0  501 -0.00000000000E+00 -0.00000000000E+00 -0.19305030664E+03  0.19305030664E+03  0.00000000000E+00 0.  1.
          2    1    1    2  502    0  0.26554574342E+02 -0.89557461784E+00  0.15498725785E+04  0.15501003054E+04  0.00000000000E+00 0. -1.
         -2    1    1    2    0  502 -0.26554574342E+02  0.89557461784E+00 -0.19202170219E+03  0.19385118412E+03  0.00000000000E+00 0.  1.
<mgrwt>
<rscale>  2 0.26569672E+02</rscale>
<asrwt>0</asrwt>
<pdfrwt beam="1">  1        2 0.23860017E+00 0.26569672E+02</pdfrwt>
<pdfrwt beam="2">  1       -2 0.29700048E-01 0.26569672E+02</pdfrwt>
<totfact> 0.15529169E+02</totfact>
</mgrwt>
</event>
<event>
 4    1  0.7653521E+003  0.2959512E+02  0.7546771E-02  0.1602608E+00
         -2   -1    0    0    0  501 -0.00000000000E+00  0.00000000000E+00  0.31902369504E+02  0.31902369504E+02  0.00000000000E+00 0. -1.
          2   -1    0    0  501    0  0.00000000000E+00 -0.00000000000E+00 -0.48985177865E+02  0.48985177865E+02  0.00000000000E+00 0.  1.
          2    1    1    2  502    0 -0.27965218542E+02 -0.96859593718E+01 -0.35354425833E+02  0.46106471162E+02  0.00000000000E+00 0.  1.
         -2    1    1    2    0  502  0.27965218542E+02  0.96859593718E+01  0.18271617472E+02  0.34781076206E+02  0.00000000000E+00 0. -1.
<mgrwt>
<rscale>  2 0.29595122E+02</rscale>
<asrwt>0</asrwt>
<pdfrwt beam="2">  1        2 0.75361812E-02 0.29595122E+02</pdfrwt>
<pdfrwt beam="1">  1       -2 0.49080569E-02 0.29595122E+02</pdfrwt>
<totfact> 0.12270356E+05</totfact>
</mgrwt>
</event>
<event>
 4    1  0.7653521E+003  0.2975869E+02  0.7546771E-02  0.1600771E+00
          2   -1    0    0  501    0  0.00000000000E+00  0.00000000000E+00  0.81841120905E+03  0.81841120905E+03  0.00000000000E+00 0. -1.
         -2   -1    0    0    0  501 -0.00000000000E+00 -0.00000000000E+00 -0.12676918716E+01  0.12676918716E+01  0.00000000000E+00 0.  1.
          2    1    1    2  502    0  0.13244988190E+02  0.26648636914E+02  0.56539829805E+03  0.56618090307E+03  0.00000000000E+00 0. -1.
         -2    1    1    2    0  502 -0.13244988190E+02 -0.26648636914E+02  0.25174521913E+03  0.25349799785E+03  0.00000000000E+00 0.  1.
<mgrwt>
<rscale>  2 0.29758689E+02</rscale>
<asrwt>0</asrwt>
<pdfrwt beam="1">  1        2 0.12590899E+00 0.29758689E+02</pdfrwt>
<pdfrwt beam="2">  1       -2 0.19503017E-03 0.29758689E+02</pdfrwt>
<totfact> 0.50368215E+05</totfact>
</mgrwt>
</event>
<event>
 4    1  0.7653521E+003  0.2060523E+02  0.7546771E-02  0.1733553E+00
         -2   -1    0    0    0  501 -0.00000000000E+00  0.00000000000E+00  0.64086997106E+00  0.64086997106E+00  0.00000000000E+00 0. -1.
          2   -1    0    0  501    0  0.00000000000E+00 -0.00000000000E+00 -0.12030974646E+04  0.12030974646E+04  0.00000000000E+00 0. -1.
          2    1    1    2  502    0 -0.18624777055E+02 -0.88143714112E+01 -0.10046778621E+04  0.10048891392E+04  0.00000000000E+00 0. -1.
         -2    1    1    2    0  502  0.18624777055E+02  0.88143714112E+01 -0.19777873247E+03  0.19884919533E+03  0.00000000000E+00 0. -1.
<mgrwt>
<rscale>  2 0.20605229E+02</rscale>
<asrwt>0</asrwt>
<pdfrwt beam="2">  1        2 0.18509051E+00 0.20605229E+02</pdfrwt>
<pdfrwt beam="1">  1       -2 0.98596128E-04 0.20605229E+02</pdfrwt>
<totfact> 0.69240180E+05</totfact>
</mgrwt>
</event>
<event>
 4    1  0.7653521E+003  0.2768698E+02  0.7546771E-02  0.1625160E+00
          2   -1    0    0  501    0  0.00000000000E+00  0.00000000000E+00  0.19261503646E+03  0.19261503646E+03  0.00000000000E+00 0. -1.
         -2   -1    0    0    0  501 -0.00000000000E+00 -0.00000000000E+00 -0.42675294356E+01  0.42675294356E+01  0.00000000000E+00 0.  1.
          2    1    1    2  502    0 -0.27614788527E+02  0.19978338531E+01  0.68612227466E+02  0.73987874975E+02  0.00000000000E+00 0.  1.
         -2    1    1    2    0  502  0.27614788527E+02 -0.19978338531E+01  0.11973527956E+03  0.12289469092E+03  0.00000000000E+00 0. -1.
<mgrwt>
<rscale>  2 0.27686976E+02</rscale>
<asrwt>0</asrwt>
<pdfrwt beam="1">  1        2 0.29633076E-01 0.27686976E+02</pdfrwt>
<pdfrwt beam="2">  1       -2 0.65654314E-03 0.27686976E+02</pdfrwt>
<totfact> 0.42799238E+05</totfact>
</mgrwt>
</event>
<event>
 4    1  0.7653521E+003  0.2729003E+02  0.7546771E-02  0.1630133E+00
         -2   -1    0    0    0  501 -0.00000000000E+00  0.00000000000E+00  0.47062806073E+02  0.47062806073E+02  0.00000000000E+00 0.  1.
          2   -1    0    0  501    0  0.00000000000E+00 -0.00000000000E+00 -0.58789291341E+02  0.58789291341E+02  0.00000000000E+00 0.  1.
          2    1    1    2  502    0 -0.18016224939E+02 -0.20497832098E+02 -0.51108879078E+02  0.57938441491E+02  0.00000000000E+00 0.  1.
         -2    1    1    2    0  502  0.18016224939E+02  0.20497832098E+02  0.39382393809E+02  0.47913655923E+02  0.00000000000E+00 0.  1.
<mgrwt>
<rscale>  2 0.27290025E+02</rscale>
<asrwt>0</asrwt>
<pdfrwt beam="2">  1        2 0.90445064E-02 0.27290025E+02</pdfrwt>
<pdfrwt beam="1">  1       -2 0.72404317E-02 0.27290025E+02</pdfrwt>
<totfact> 0.55316929E+04</totfact>
</mgrwt>
</event>
<event>
 4    1  0.7653521E+003  0.2397394E+02  0.7546771E-02  0.1676192E+00
         -2   -1    0    0    0  501 -0.00000000000E+00  0.00000000000E+00  0.34735113953E+01  0.34735113953E+01  0.00000000000E+00 0.  1.
          2   -1    0    0  501    0  0.00000000000E+00 -0.00000000000E+00 -0.33874680785E+03  0.33874680785E+03  0.00000000000E+00 0.  1.
          2    1    1    2  502    0 -0.22260516935E+02  0.89005163929E+01 -0.29001730633E+03  0.29100650813E+03  0.00000000000E+00 0.  1.
         -2    1    1    2    0  502  0.22260516935E+02 -0.89005163929E+01 -0.45255990128E+02  0.51213811113E+02  0.00000000000E+00 0.  1.
<mgrwt>
<rscale>  2 0.23973940E+02</rscale>
<asrwt>0</asrwt>
<pdfrwt beam="2">  1        2 0.52114894E-01 0.23973940E+02</pdfrwt>
<pdfrwt beam="1">  1       -2 0.53438636E-03 0.23973940E+02</pdfrwt>
<totfact> 0.30875719E+05</totfact>
</mgrwt>
</event>
<event>
 4    1  0.7653521E+003  0.2875477E+02  0.7546771E-02  0.1612275E+00
          2   -1    0    0  501    0  0.00000000000E+00  0.00000000000E+00  0.66142259719E+03  0.66142259719E+03  0.00000000000E+00 0. -1.
         -2   -1    0    0    0  501 -0.00000000000E+00 -0.00000000000E+00 -0.30953192500E+01  0.30953192500E+01  0.00000000000E+00 0. -1.
          2    1    1    2  502    0  0.93094595553E+01  0.27206077913E+02  0.58570023558E+03  0.58640566392E+03  0.00000000000E+00 0. -1.
         -2    1    1    2    0  502 -0.93094595553E+01 -0.27206077913E+02  0.72627042359E+02  0.78112252524E+02  0.00000000000E+00 0. -1.
<mgrwt>
<rscale>  2 0.28754769E+02</rscale>
<asrwt>0</asrwt>
<pdfrwt beam="1">  1        2 0.10175721E+00 0.28754769E+02</pdfrwt>
<pdfrwt beam="2">  1       -2 0.47620349E-03 0.28754769E+02</pdfrwt>
<totfact> 0.19098662E+05</totfact>
</mgrwt>
</event>
<event>
 4    1  0.7653521E+003  0.2024763E+02  0.7546771E-02  0.1740448E+00
          2   -1    0    0  501    0  0.00000000000E+00  0.00000000000E+00  0.20231522722E+04  0.20231522722E+04  0.00000000000E+00 0. -1.
         -2   -1    0    0    0  501 -0.00000000000E+00 -0.00000000000E+00 -0.25053225463E+00  0.25053225463E+00  0.00000000000E+00 0. -1.
          2    1    1    2  502    0 -0.47338117415E+01 -0.19686482523E+02  0.14537992026E+04  0.14539401941E+04  0.00000000000E+00 0. -1.
         -2    1    1    2    0  502  0.47338117415E+01  0.19686482523E+02  0.56910253728E+03  0.56946261027E+03  0.00000000000E+00 0. -1.
<mgrwt>
<rscale>  2 0.20247631E+02</rscale>
<asrwt>0</asrwt>
<pdfrwt beam="1">  1        2 0.31124111E+00 0.20247631E+02</pdfrwt>
<pdfrwt beam="2">  1       -2 0.38545044E-04 0.20247631E+02</pdfrwt>
<totfact> 0.97138025E+05</totfact>
</mgrwt>
</event>
<event>
 4    1  0.7653521E+003  0.2366192E+02  0.7546771E-02  0.1681000E+00
         -2   -1    0    0    0  501 -0.00000000000E+00  0.00000000000E+00  0.11480845333E+01  0.11480845333E+01  0.00000000000E+00 0.  1.
          2   -1    0    0  501    0  0.00000000000E+00 -0.00000000000E+00 -0.49303788633E+03  0.49303788633E+03  0.00000000000E+00 0.  1.
          2    1    1    2  502    0  0.23374430415E+02  0.36771833028E+01 -0.22016109963E+03  0.22142898515E+03  0.00000000000E+00 0.  1.
         -2    1    1    2    0  502 -0.23374430415E+02 -0.36771833028E+01 -0.27172870217E+03  0.27275698571E+03  0.00000000000E+00 0.  1.
<mgrwt>
<rscale>  2 0.23661915E+02</rscale>
<asrwt>0</asrwt>
<pdfrwt beam="2">  1        2 0.75851828E-01 0.23661915E+02</pdfrwt>
<pdfrwt beam="1">  1       -2 0.17662875E-03 0.23661915E+02</pdfrwt>
<totfact> 0.92694540E+05</totfact>
</mgrwt>
</event>
<event>
 4    1  0.7653521E+003  0.2402668E+02  0.7546771E-02  0.1675389E+00
         -2   -1    0    0    0  501 -0.00000000000E+00  0.00000000000E+00  0.42398197665E+01  0.42398197665E+01  0.00000000000E+00 0. -1.
          2   -1    0    0  501    0  0.00000000000E+00 -0.00000000000E+00 -0.17389663620E+04  0.17389663620E+04  0.00000000000E+00 0. -1.
          2    1    1    2  502    0  0.20136351416E+02  0.13107574881E+02 -0.17041486928E+04  0.17043180596E+04  0.00000000000E+00 0. -1.
         -2    1    1    2    0  502 -0.20136351416E+02 -0.13107574881E+02 -0.30577849395E+02  0.38888122110E+02  0.00000000000E+00 0. -1.
<mgrwt>
<rscale>  2 0.24026676E+02</rscale>
<asrwt>0</asrwt>
<pdfrwt beam="2">  1        2 0.26753327E+00 0.24026676E+02</pdfrwt>
<pdfrwt beam="1">  1       -2 0.65228001E-03 0.24026676E+02</pdfrwt>
<totfact> 0.32427352E+04</totfact>
</mgrwt>
</event>
<event>
 4    1  0.7653521E+003  0.2012298E+02  0.7546771E-02  0.1742894E+00
         -2   -1    0    0    0  501 -0.00000000000E+00  0.00000000000E+00  0.11306733773E+01  0.11306733773E+01  0.00000000000E+00 0. -1.
          2   -1    0    0  501    0  0.00000000000E+00 -0.00000000000E+00 -0.11714794947E+04  0.11714794947E+04  0.00000000000E+00 0.  1.
          2    1    1    2  502    0  0.93063544707E+01 -0.17841691223E+02 -0.10737069204E+04  0.10738954721E+04  0.00000000000E+00 0.  1.
         -2    1    1    2    0  502 -0.93063544707E+01  0.17841691223E+02 -0.96641900971E+02  0.98714695980E+02  0.00000000000E+00 0. -1.
<mgrwt>
<rscale>  2 0.20122976E+02</rscale>
<asrwt>0</asrwt>
<pdfrwt beam="2">  1        2 0.18022747E+00 0.20122976E+02</pdfrwt>
<pdfrwt beam="1">  1       -2 0.17394989E-03 0.20122976E+02</pdfrwt>
<totfact> 0.33854451E+05</totfact>
</mgrwt>
</event>
<event>
 4    1  0.7653521E+003  0.2077822E+02  0.7546771E-02  0.1730281E+00
         -2   -1    0    0    0  501 -0.00000000000E+00  0.00000000000E+00  0.33442449620E+01  0.33442449620E+01  0.00000000000E+00 0. -1.
          2   -1    0    0  501    0  0.00000000000E+00 -0.00000000000E+00 -0.10634885307E+04  0.10634885307E+04  0.00000000000E+00 0.  1.
          2    1    1    2  502    0  0.16502702180E+02 -0.12625187747E+02 -0.10300654813E+04  0.10302750266E+04  0.00000000000E+00 0.  1.
         -2    1    1    2    0  502 -0.16502702180E+02  0.12625187747E+02 -0.30078804469E+02  0.36557749154E+02  0.00000000000E+00 0. -1.
<mgrwt>
<rscale>  2 0.20778223E+02</rscale>
<asrwt>0</asrwt>
<pdfrwt beam="2">  1        2 0.16361378E+00 0.20778223E+02</pdfrwt>
<pdfrwt beam="1">  1       -2 0.51449872E-03 0.20778223E+02</pdfrwt>
<totfact> 0.92079799E+04</totfact>
</mgrwt>
</event>
<event>
 4    1  0.7653521E+003  0.2098374E+02  0.7546771E-02  0.1726444E+00
          2   -1    0    0  501    0  0.00000000000E+00  0.00000000000E+00  0.17882490945E+01  0.17882490945E+01  0.00000000000E+00 0.  1.
         -2   -1    0    0    0  501 -0.00000000000E+00 -0.00000000000E+00 -0.55978742546E+03  0.55978742546E+03  0.00000000000E+00 0. -1.
          2    1    1    2  502    0 -0.19596142188E+02 -0.75038926731E+01 -0.68850951641E+02  0.71977571060E+02  0.00000000000E+00 0.  1.
         -2    1    1    2    0  502  0.19596142188E+02  0.75038926731E+01 -0.48914822473E+03  0.48959810349E+03  0.00000000000E+00 0. -1.
<mgrwt>
<rscale>  2 0.20983736E+02</rscale>
<asrwt>0</asrwt>
<pdfrwt beam="1">  1        2 0.27511494E-03 0.20983736E+02</pdfrwt>
<pdfrwt beam="2">  1       -2 0.86121237E-01 0.20983736E+02</pdfrwt>
<totfact> 0.63896063E+04</totfact>
</mgrwt>
</event>
<event>
 4    1  0.7653521E+003  0.2035542E+02  0.7546771E-02  0.1738351E+00
          2   -1    0    0  501    0  0.00000000000E+00  0.00000000000E+00  0.30610167017E+03  0.30610167017E+03  0.00000000000E+00 0. -1.
         -2   -1    0    0    0  501 -0.00000000000E+00 -0.00000000000E+00 -0.15678314871E+02  0.15678314871E+02  0.00000000000E+00 0. -1.
          2    1    1    2  502    0 -0.17428626873E+02 -0.10515984804E+02  0.29899957097E+03  0.29969165222E+03  0.00000000000E+00 0. -1.
         -2    1    1    2    0  502  0.17428626873E+02  0.10515984804E+02 -0.85762156782E+01  0.22088332813E+02  0.00000000000E+00 0. -1.
<mgrwt>
<rscale>  2 0.20355416E+02</rscale>
<asrwt>0</asrwt>
<pdfrwt beam="1">  1        2 0.47092560E-01 0.20355416E+02</pdfrwt>
<pdfrwt beam="2">  1       -2 0.24120487E-02 0.20355416E+02</pdfrwt>
<totfact> 0.42554987E+04</totfact>
</mgrwt>
</event>
<event>
 4    1  0.7653521E+003  0.2958726E+02  0.7546771E-02  0.1602696E+00
         -2   -1    0    0    0  501 -0.00000000000E+00  0.00000000000E+00  0.27816506138E+02  0.27816506138E+02  0.00000000000E+00 0. -1.
          2   -1    0    0  501    0  0.00000000000E+00 -0.00000000000E+00 -0.12032198041E+03  0.12032198041E+03  0.00000000000E+00 0.  1.
          2    1    1    2  502    0  0.19849054830E+02 -0.21941302615E+02 -0.10990255942E+03  0.11381554510E+03  0.00000000000E+00 0.  1.
         -2    1    1    2    0  502 -0.19849054830E+02  0.21941302615E+02  0.17397085151E+02  0.34322941451E+02  0.00000000000E+00 0. -1.
<mgrwt>
<rscale>  2 0.29587256E+02</rscale>
<asrwt>0</asrwt>
<pdfrwt beam="2">  1        2 0.18511074E-01 0.29587256E+02</pdfrwt>
<pdfrwt beam="1">  1       -2 0.42794625E-02 0.29587256E+02</pdfrwt>
<totfact> 0.53537920E+04</totfact>
</mgrwt>
</event>
<event>
 4    1  0.7653521E+003  0.2115832E+02  0.7546771E-02  0.1723228E+00
          2   -1    0    0  501    0  0.00000000000E+00  0.00000000000E+00  0.58751401931E+03  0.58751401931E+03  0.00000000000E+00 0.  1.
         -2   -1    0    0    0  501 -0.00000000000E+00 -0.00000000000E+00 -0.42968984804E+02  0.42968984804E+02  0.00000000000E+00 0. -1.
          2    1    1    2  502    0 -0.21115761189E+02  0.13413870655E+01  0.58470638265E+03  0.58508907749E+03  0.00000000000E+00 0.  1.
         -2    1    1    2    0  502  0.21115761189E+02 -0.13413870655E+01 -0.40161348141E+02  0.45393926624E+02  0.00000000000E+00 0. -1.
<mgrwt>
<rscale>  2 0.21158324E+02</rscale>
<asrwt>0</asrwt>
<pdfrwt beam="1">  1        2 0.90386767E-01 0.21158324E+02</pdfrwt>
<pdfrwt beam="2">  1       -2 0.66106135E-02 0.21158324E+02</pdfrwt>
<totfact> 0.54538092E+03</totfact>
</mgrwt>
</event>
<event>
 4    1  0.7653521E+003  0.3924628E+02  0.7546771E-02  0.1513832E+00
         -2   -1    0    0    0  501 -0.00000000000E+00  0.00000000000E+00  0.20771446618E+03  0.20771446618E+03  0.00000000000E+00 0.  1.
          2   -1    0    0  501    0  0.00000000000E+00 -0.00000000000E+00 -0.23568175159E+02  0.23568175159E+02  0.00000000000E+00 0.  1.
          2    1    1    2  502    0  0.34310829107E+01  0.39096008168E+02 -0.36627165375E+01  0.39416819723E+02  0.00000000000E+00 0.  1.
         -2    1    1    2    0  502 -0.34310829107E+01 -0.39096008168E+02  0.18780900756E+03  0.19186582161E+03  0.00000000000E+00 0.  1.
<mgrwt>
<rscale>  2 0.39246276E+02</rscale>
<asrwt>0</asrwt>
<pdfrwt beam="2">  1        2 0.36258732E-02 0.39246276E+02</pdfrwt>
<pdfrwt beam="1">  1       -2 0.31956070E-01 0.39246276E+02</pdfrwt>
<totfact> 0.17253049E+04</totfact>
</mgrwt>
</event>
<event>
 4    1  0.7653521E+003  0.2580998E+02  0.7546771E-02  0.1649633E+00
          2   -1    0    0  501    0  0.00000000000E+00  0.00000000000E+00  0.33831033860E+02  0.33831033860E+02  0.00000000000E+00 0.  1.
         -2   -1    0    0    0  501 -0.00000000000E+00 -0.00000000000E+00 -0.10357536240E+03  0.10357536240E+03  0.00000000000E+00 0.  1.
          2    1    1    2  502    0 -0.51639252525E+01  0.25288115366E+02  0.26956539848E+02  0.37320369014E+02  0.00000000000E+00 0.  1.
         -2    1    1    2    0  502  0.51639252525E+01 -0.25288115366E+02 -0.96700868386E+02  0.10008602724E+03  0.00000000000E+00 0.  1.
<mgrwt>
<rscale>  2 0.25809977E+02</rscale>
<asrwt>0</asrwt>
<pdfrwt beam="1">  1        2 0.52047746E-02 0.25809977E+02</pdfrwt>
<pdfrwt beam="2">  1       -2 0.15934671E-01 0.25809977E+02</pdfrwt>
<totfact> 0.32260334E+04</totfact>
</mgrwt>
</event>
<event>
 4    1  0.7653521E+003  0.2388744E+02  0.7546771E-02  0.1677516E+00
          2   -1    0    0  501    0  0.00000000000E+00  0.00000000000E+00  0.72939700696E+03  0.72939700696E+03  0.00000000000E+00 0. -1.
         -2   -1    0    0    0  501 -0.00000000000E+00 -0.00000000000E+00 -0.28153484462E+02  0.28153484462E+02  0.00000000000E+00 0.  1.
          2    1    1    2  502    0 -0.90589804064E+01  0.22103047951E+02  0.72409740067E+03  0.72449130810E+03  0.00000000000E+00 0. -1.
         -2    1    1    2    0  502  0.90589804064E+01 -0.22103047951E+02 -0.22853878170E+02  0.33059183325E+02  0.00000000000E+00 0.  1.
<mgrwt>
<rscale>  2 0.23887441E+02</rscale>
<asrwt>0</asrwt>
<pdfrwt beam="1">  1        2 0.11221491E+00 0.23887441E+02</pdfrwt>
<pdfrwt beam="2">  1       -2 0.43313059E-02 0.23887441E+02</pdfrwt>
<totfact> 0.80263482E+03</totfact>
</mgrwt>
</event>
<event>
 4    1  0.7653521E+003  0.2301773E+02  0.7546771E-02  0.1691223E+00
          2   -1    0    0  501    0  0.00000000000E+00  0.00000000000E+00  0.24936738979E+03  0.24936738979E+03  0.00000000000E+00 0.  1.
         -2   -1    0    0    0  501 -0.00000000000E+00 -0.00000000000E+00 -0.28242620755E+01  0.28242620755E+01  0.00000000000E+00 0. -1.
          2    1    1    2  502    0 -0.16527466594E+02 -0.16020573534E+02  0.18603113526E+03  0.18744972450E+03  0.00000000000E+00 0.  1.
         -2    1    1    2    0  502  0.16527466594E+02  0.16020573534E+02  0.60511992453E+02  0.64741927366E+02  0.00000000000E+00 0. -1.
<mgrwt>
<rscale>  2 0.23017731E+02</rscale>
<asrwt>0</asrwt>
<pdfrwt beam="1">  1        2 0.38364197E-01 0.23017731E+02</pdfrwt>
<pdfrwt beam="2">  1       -2 0.43450205E-03 0.23017731E+02</pdfrwt>
<totfact> 0.54481265E+05</totfact>
</mgrwt>
</event>
<event>
 4    1  0.7653521E+003  0.2180672E+02  0.7546771E-02  0.1711616E+00
         -2   -1    0    0    0  501 -0.00000000000E+00  0.00000000000E+00  0.39314323876E+03  0.39314323876E+03  0.00000000000E+00 0. -1.
          2   -1    0    0  501    0  0.00000000000E+00 -0.00000000000E+00 -0.25825703552E+01  0.25825703552E+01  0.00000000000E+00 0. -1.
          2    1    1    2  502    0 -0.56271699138E+01  0.21068175028E+02  0.51010970039E+02  0.55476590599E+02  0.00000000000E+00 0. -1.
         -2    1    1    2    0  502  0.56271699138E+01 -0.21068175028E+02  0.33954969837E+03  0.34024921852E+03  0.00000000000E+00 0. -1.
<mgrwt>
<rscale>  2 0.21806720E+02</rscale>
<asrwt>0</asrwt>
<pdfrwt beam="2">  1        2 0.39731883E-03 0.21806720E+02</pdfrwt>
<pdfrwt beam="1">  1       -2 0.60483528E-01 0.21806720E+02</pdfrwt>
<totfact> 0.82617692E+04</totfact>
</mgrwt>
</event>
<event>
 4    1  0.7653521E+003  0.7219672E+02  0.7546771E-02  0.1352778E+00
         -2   -1    0    0    0  501 -0.00000000000E+00  0.00000000000E+00  0.10552504625E+03  0.10552504625E+03  0.00000000000E+00 0. -1.
          2   -1    0    0  501    0  0.00000000000E+00 -0.00000000000E+00 -0.70092744103E+02  0.70092744103E+02  0.00000000000E+00 0. -1.
          2    1    1    2  502    0 -0.18000898307E+02  0.69916624316E+02 -0.30000258699E+02  0.78181725599E+02  0.00000000000E+00 0. -1.
         -2    1    1    2    0  502  0.18000898307E+02 -0.69916624316E+02  0.65432560845E+02  0.97436064752E+02  0.00000000000E+00 0. -1.
<mgrwt>
<rscale>  2 0.72196722E+02</rscale>
<asrwt>0</asrwt>
<pdfrwt beam="2">  1        2 0.10783499E-01 0.72196722E+02</pdfrwt>
<pdfrwt beam="1">  1       -2 0.16234622E-01 0.72196722E+02</pdfrwt>
<totfact> 0.15199868E+04</totfact>
</mgrwt>
</event>
<event>
 4    1  0.7653521E+003  0.3656124E+02  0.7546771E-02  0.1535158E+00
          2   -1    0    0  501    0  0.00000000000E+00  0.00000000000E+00  0.61110945282E+03  0.61110945282E+03  0.00000000000E+00 0. -1.
         -2   -1    0    0    0  501 -0.00000000000E+00 -0.00000000000E+00 -0.41615661560E+01  0.41615661560E+01  0.00000000000E+00 0. -1.
          2    1    1    2  502    0 -0.23364367896E+02  0.28121705112E+02  0.51536027518E+03  0.51665553053E+03  0.00000000000E+00 0. -1.
         -2    1    1    2    0  502  0.23364367896E+02 -0.28121705112E+02  0.91587611482E+02  0.98615488452E+02  0.00000000000E+00 0. -1.
<mgrwt>
<rscale>  2 0.36561236E+02</rscale>
<asrwt>0</asrwt>
<pdfrwt beam="1">  1        2 0.94016768E-01 0.36561236E+02</pdfrwt>
<pdfrwt beam="2">  1       -2 0.64024143E-03 0.36561236E+02</pdfrwt>
<totfact> 0.14655452E+05</totfact>
</mgrwt>
</event>
<event>
 4    1  0.7653521E+003  0.3161291E+02  0.7546771E-02  0.1580915E+00
         -2   -1    0    0    0  501 -0.00000000000E+00  0.00000000000E+00  0.62528593620E+02  0.62528593620E+02  0.00000000000E+00 0. -1.
          2   -1    0    0  501    0  0.00000000000E+00 -0.00000000000E+00 -0.83967705242E+03  0.83967705242E+03  0.00000000000E+00 0. -1.
          2    1    1    2  502    0  0.11734973838E+02  0.29354159795E+02 -0.83536320092E+03  0.83596115565E+03  0.00000000000E+00 0. -1.
         -2    1    1    2    0  502 -0.11734973838E+02 -0.29354159795E+02  0.58214742113E+02  0.66244490394E+02  0.00000000000E+00 0. -1.
<mgrwt>
<rscale>  2 0.31612914E+02</rscale>
<asrwt>0</asrwt>
<pdfrwt beam="2">  1        2 0.12918108E+00 0.31612914E+02</pdfrwt>
<pdfrwt beam="1">  1       -2 0.96197838E-02 0.31612914E+02</pdfrwt>
<totfact> 0.21975383E+03</totfact>
</mgrwt>
</event>
<event>
 4    1  0.7653521E+003  0.3339916E+02  0.7546771E-02  0.1563294E+00
          2   -1    0    0  501    0  0.00000000000E+00  0.00000000000E+00  0.73211155226E+02  0.73211155226E+02  0.00000000000E+00 0. -1.
         -2   -1    0    0    0  501 -0.00000000000E+00 -0.00000000000E+00 -0.17092218961E+02  0.17092218961E+02  0.00000000000E+00 0.  1.
          2    1    1    2  502    0  0.31241888338E+02  0.11808833160E+02  0.42935774652E+02  0.54396552027E+02  0.00000000000E+00 0. -1.
         -2    1    1    2    0  502 -0.31241888338E+02 -0.11808833160E+02  0.13183161613E+02  0.35906822160E+02  0.00000000000E+00 0.  1.
<mgrwt>
<rscale>  2 0.33399164E+02</rscale>
<asrwt>0</asrwt>
<pdfrwt beam="1">  1        2 0.11263254E-01 0.33399164E+02</pdfrwt>
<pdfrwt beam="2">  1       -2 0.26295722E-02 0.33399164E+02</pdfrwt>
<totfact> 0.19052428E+05</totfact>
</mgrwt>
</event>
<event>
 4    1  0.7653521E+003  0.2366727E+02  0.7546771E-02  0.1680917E+00
          2   -1    0    0  501    0  0.00000000000E+00  0.00000000000E+00  0.99267816077E+02  0.99267816077E+02  0.00000000000E+00 0.  1.
         -2   -1    0    0    0  501 -0.00000000000E+00 -0.00000000000E+00 -0.57018483949E+01  0.57018483949E+01  0.00000000000E+00 0.  1.
          2    1    1    2  502    0 -0.23625576514E+02  0.14042170965E+01  0.52128056520E+02  0.57249226788E+02  0.00000000000E+00 0.  1.
         -2    1    1    2    0  502  0.23625576514E+02 -0.14042170965E+01  0.41437911162E+02  0.47720437684E+02  0.00000000000E+00 0.  1.
<mgrwt>
<rscale>  2 0.23667270E+02</rscale>
<asrwt>0</asrwt>
<pdfrwt beam="1">  1        2 0.15271970E-01 0.23667270E+02</pdfrwt>
<pdfrwt beam="2">  1       -2 0.87720752E-03 0.23667270E+02</pdfrwt>
<totfact> 0.55672093E+05</totfact>
</mgrwt>
</event>
<event>
 4    1  0.7653521E+003  0.3187273E+02  0.7546771E-02  0.1578265E+00
          2   -1    0    0  501    0  0.00000000000E+00  0.00000000000E+00  0.84568889124E+03  0.84568889124E+03  0.00000000000E+00 0. -1.
         -2   -1    0    0    0  501 -0.00000000000E+00 -0.00000000000E+00 -0.83310709770E+01  0.83310709770E+01  0.00000000000E+00 0.  1.
          2    1    1    2  502    0  0.20596096166E+02 -0.24324298868E+02  0.81370646743E+03  0.81433045247E+03  0.00000000000E+00 0. -1.
         -2    1    1    2    0  502 -0.20596096166E+02  0.24324298868E+02  0.23651352834E+02  0.39689509742E+02  0.00000000000E+00 0.  1.
<mgrwt>
<rscale>  2 0.31872726E+02</rscale>
<asrwt>0</asrwt>
<pdfrwt beam="1">  1        2 0.13010592E+00 0.31872726E+02</pdfrwt>
<pdfrwt beam="2">  1       -2 0.12817039E-02 0.31872726E+02</pdfrwt>
<totfact> 0.38345237E+04</totfact>
</mgrwt>
</event>
<event>
 4    1  0.7653521E+003  0.4260044E+02  0.7546771E-02  0.1489903E+00
         -2   -1    0    0    0  501 -0.00000000000E+00  0.00000000000E+00  0.10488157301E+02  0.10488157301E+02  0.00000000000E+00 0. -1.
          2   -1    0    0  501    0  0.00000000000E+00 -0.00000000000E+00 -0.26466485323E+03  0.26466485323E+03  0.00000000000E+00 0. -1.
          2    1    1    2  502    0  0.42184859100E+02  0.59359302235E+01 -0.20803880564E+03  0.21235569749E+03  0.00000000000E+00 0. -1.
         -2    1    1    2    0  502 -0.42184859100E+02 -0.59359302235E+01 -0.46137890293E+02  0.62797313045E+02  0.00000000000E+00 0. -1.
<mgrwt>
<rscale>  2 0.42600441E+02</rscale>
<asrwt>0</asrwt>
<pdfrwt beam="2">  1        2 0.40717669E-01 0.42600441E+02</pdfrwt>
<pdfrwt beam="1">  1       -2 0.16135627E-02 0.42600441E+02</pdfrwt>
<totfact> 0.99582151E+04</totfact>
</mgrwt>
</event>
<event>
 4    1  0.7653521E+003  0.4006011E+02  0.7546771E-02  0.1507770E+00
          2   -1    0    0  501    0  0.00000000000E+00  0.00000000000E+00  0.51234028135E+01  0.51234028135E+01  0.00000000000E+00 0.  1.
         -2   -1    0    0    0  501 -0.00000000000E+00 -0.00000000000E+00 -0.93604971268E+03  0.93604971268E+03  0.00000000000E+00 0.  1.
          2    1    1    2  502    0 -0.13188527882E+02  0.37826910199E+02 -0.81605127821E+02  0.90907696536E+02  0.00000000000E+00 0.  1.
         -2    1    1    2    0  502  0.13188527882E+02 -0.37826910199E+02 -0.84932118205E+03  0.85026541896E+03  0.00000000000E+00 0.  1.
<mgrwt>
<rscale>  2 0.40060110E+02</rscale>
<asrwt>0</asrwt>
<pdfrwt beam="1">  1        2 0.78821604E-03 0.40060110E+02</pdfrwt>
<pdfrwt beam="2">  1       -2 0.14400761E+00 0.40060110E+02</pdfrwt>
<totfact> 0.56669481E+03</totfact>
</mgrwt>
</event>
<event>
 4    1  0.7653521E+003  0.3588030E+02  0.7546771E-02  0.1540919E+00
         -2   -1    0    0    0  501 -0.00000000000E+00  0.00000000000E+00  0.15158780561E+03  0.15158780561E+03  0.00000000000E+00 0.  1.
          2   -1    0    0  501    0  0.00000000000E+00 -0.00000000000E+00 -0.29458776132E+02  0.29458776132E+02  0.00000000000E+00 0. -1.
          2    1    1    2  502    0 -0.79626788221E+01 -0.34985588371E+02 -0.15303440164E+02  0.39007575271E+02  0.00000000000E+00 0. -1.
         -2    1    1    2    0  502  0.79626788221E+01  0.34985588371E+02  0.13743246964E+03  0.14203900647E+03  0.00000000000E+00 0.  1.
<mgrwt>
<rscale>  2 0.35880296E+02</rscale>
<asrwt>0</asrwt>
<pdfrwt beam="2">  1        2 0.45321195E-02 0.35880296E+02</pdfrwt>
<pdfrwt beam="1">  1       -2 0.23321200E-01 0.35880296E+02</pdfrwt>
<totfact> 0.22000217E+04</totfact>
</mgrwt>
</event>
<event>
 4    1  0.7653521E+003  0.2745815E+02  0.7546771E-02  0.1628014E+00
         -2   -1    0    0    0  501 -0.00000000000E+00  0.00000000000E+00  0.77380170358E+01  0.77380170358E+01  0.00000000000E+00 0.  1.
          2   -1    0    0  501    0  0.00000000000E+00 -0.00000000000E+00 -0.66292639971E+03  0.66292639971E+03  0.00000000000E+00 0. -1.
          2    1    1    2  502    0  0.10854824534E+02  0.25221470728E+02 -0.63730460413E+03  0.63789584436E+03  0.00000000000E+00 0. -1.
         -2    1    1    2    0  502 -0.10854824534E+02 -0.25221470728E+02 -0.17883778540E+02  0.32768572386E+02  0.00000000000E+00 0.  1.
<mgrwt>
<rscale>  2 0.27458146E+02</rscale>
<asrwt>0</asrwt>
<pdfrwt beam="2">  1        2 0.10198870E+00 0.27458146E+02</pdfrwt>
<pdfrwt beam="1">  1       -2 0.11904639E-02 0.27458146E+02</pdfrwt>
<totfact> 0.54411083E+04</totfact>
</mgrwt>
</event>
<event>
 4    1  0.7653521E+003  0.2474140E+02  0.7546771E-02  0.1664744E+00
         -2   -1    0    0    0  501 -0.00000000000E+00  0.00000000000E+00  0.28901942020E+02  0.28901942020E+02  0.00000000000E+00 0. -1.
          2   -1    0    0  501    0  0.00000000000E+00 -0.00000000000E+00 -0.15879365491E+04  0.15879365491E+04  0.00000000000E+00 0.  1.
          2    1    1    2  502    0 -0.79481631233E+01 -0.23429974841E+02 -0.15825271308E+04  0.15827205239E+04  0.00000000000E+00 0.  1.
         -2    1    1    2    0  502  0.79481631233E+01  0.23429974841E+02  0.23492523714E+02  0.34117967239E+02  0.00000000000E+00 0. -1.
<mgrwt>
<rscale>  2 0.24741403E+02</rscale>
<asrwt>0</asrwt>
<pdfrwt beam="2">  1        2 0.24429790E+00 0.24741403E+02</pdfrwt>
<pdfrwt beam="1">  1       -2 0.44464532E-02 0.24741403E+02</pdfrwt>
<totfact> 0.27403347E+03</totfact>
</mgrwt>
</event>
<event>
 4    1  0.7653521E+003  0.3082258E+02  0.7546771E-02  0.1589170E+00
          2   -1    0    0  501    0  0.00000000000E+00  0.00000000000E+00  0.78624718347E+02  0.78624718347E+02  0.00000000000E+00 0.  1.
         -2   -1    0    0    0  501 -0.00000000000E+00 -0.00000000000E+00 -0.71409127765E+03  0.71409127765E+03  0.00000000000E+00 0.  1.
          2    1    1    2  502    0 -0.27944395213E+02  0.13005465031E+02  0.75257031720E+02  0.81324363925E+02  0.00000000000E+00 0.  1.
         -2    1    1    2    0  502  0.27944395213E+02 -0.13005465031E+02 -0.71072359103E+03  0.71139163207E+03  0.00000000000E+00 0.  1.
<mgrwt>
<rscale>  2 0.30822578E+02</rscale>
<asrwt>0</asrwt>
<pdfrwt beam="1">  1        2 0.12096110E-01 0.30822578E+02</pdfrwt>
<pdfrwt beam="2">  1       -2 0.10986020E+00 0.30822578E+02</pdfrwt>
<totfact> 0.32807683E+02</totfact>
</mgrwt>
</event>
<event>
 4    1  0.7653521E+003  0.2301903E+02  0.7546771E-02  0.1691202E+00
         -2   -1    0    0    0  501 -0.00000000000E+00  0.00000000000E+00  0.12213707510E+01  0.12213707510E+01  0.00000000000E+00 0.  1.
          2   -1    0    0  501    0  0.00000000000E+00 -0.00000000000E+00 -0.80779277070E+03  0.80779277070E+03  0.00000000000E+00 0. -1.
          2    1    1    2  502    0 -0.16650534435E+02 -0.15894514515E+02 -0.67850965065E+03  0.67890000877E+03  0.00000000000E+00 0. -1.
         -2    1    1    2    0  502  0.16650534435E+02  0.15894514515E+02 -0.12806174930E+03  0.13011413268E+03  0.00000000000E+00 0.  1.
<mgrwt>
<rscale>  2 0.23019033E+02</rscale>
<asrwt>0</asrwt>
<pdfrwt beam="2">  1        2 0.12427593E+00 0.23019033E+02</pdfrwt>
<pdfrwt beam="1">  1       -2 0.18790301E-03 0.23019033E+02</pdfrwt>
<totfact> 0.50147115E+05</totfact>
</mgrwt>
</event>
<event>
 4    1  0.7653521E+003  0.2409302E+02  0.7546771E-02  0.1674382E+00
          2   -1    0    0  501    0  0.00000000000E+00  0.00000000000E+00  0.12788616697E+04  0.12788616697E+04  0.00000000000E+00 0.  1.
         -2   -1    0    0    0  501 -0.00000000000E+00 -0.00000000000E+00 -0.35048967693E+01  0.35048967693E+01  0.00000000000E+00 0. -1.
          2    1    1    2  502    0 -0.17847878019E+02  0.16184151646E+02  0.12359047516E+04  0.12361395667E+04  0.00000000000E+00 0.  1.
         -2    1    1    2    0  502  0.17847878019E+02 -0.16184151646E+02  0.39452021363E+02  0.46226999729E+02  0.00000000000E+00 0. -1.
<mgrwt>
<rscale>  2 0.24093018E+02</rscale>
<asrwt>0</asrwt>
<pdfrwt beam="1">  1        2 0.19674758E+00 0.24093018E+02</pdfrwt>
<pdfrwt beam="2">  1       -2 0.53921591E-03 0.24093018E+02</pdfrwt>
<totfact> 0.69289925E+04</totfact>
</mgrwt>
</event>
<event>
 4    1  0.7653521E+003  0.2055543E+02  0.7546771E-02  0.1734503E+00
          2   -1    0    0  501    0  0.00000000000E+00  0.00000000000E+00  0.16074054806E+04  0.16074054806E+04  0.00000000000E+00 0.  1.
         -2   -1    0    0    0  501 -0.00000000000E+00 -0.00000000000E+00 -0.93901494734E+00  0.93901494734E+00  0.00000000000E+00 0.  1.
          2    1    1    2  502    0 -0.12360905611E+02 -0.16423571742E+02  0.14856274314E+04  0.14857696291E+04  0.00000000000E+00 0.  1.
         -2    1    1    2    0  502  0.12360905611E+02  0.16423571742E+02  0.12083903425E+03  0.12257486649E+03  0.00000000000E+00 0.  1.
<mgrwt>
<rscale>  2 0.20555430E+02</rscale>
<asrwt>0</asrwt>
<pdfrwt beam="1">  1        2 0.24729095E+00 0.20555430E+02</pdfrwt>
<pdfrwt beam="2">  1       -2 0.14446512E-03 0.20555430E+02</pdfrwt>
<totfact> 0.26906624E+05</totfact>
</mgrwt>
</event>
<event>
 4    1  0.7653521E+003  0.2215618E+02  0.7546771E-02  0.1705565E+00
          2   -1    0    0  501    0  0.00000000000E+00  0.00000000000E+00  0.28886765229E+02  0.28886765229E+02  0.00000000000E+00 0.  1.
         -2   -1    0    0    0  501 -0.00000000000E+00 -0.00000000000E+00 -0.46978266463E+02  0.46978266463E+02  0.00000000000E+00 0. -1.
          2    1    1    2  502    0  0.20682961935E+02  0.79442621977E+01  0.21259036717E+02  0.30705746342E+02  0.00000000000E+00 0.  1.
         -2    1    1    2    0  502 -0.20682961935E+02 -0.79442621977E+01 -0.39350537951E+02  0.45159285350E+02  0.00000000000E+00 0. -1.
<mgrwt>
<rscale>  2 0.22156178E+02</rscale>
<asrwt>0</asrwt>
<pdfrwt beam="1">  1        2 0.44441177E-02 0.22156178E+02</pdfrwt>
<pdfrwt beam="2">  1       -2 0.72274256E-02 0.22156178E+02</pdfrwt>
<totfact> 0.12412025E+05</totfact>
</mgrwt>
</event>
<event>
 4    1  0.7653521E+003  0.2132968E+02  0.7546771E-02  0.1720109E+00
         -2   -1    0    0    0  501 -0.00000000000E+00  0.00000000000E+00  0.28778850003E+03  0.28778850003E+03  0.00000000000E+00 0.  1.
          2   -1    0    0  501    0  0.00000000000E+00 -0.00000000000E+00 -0.12329434635E+02  0.12329434635E+02  0.00000000000E+00 0.  1.
          2    1    1    2  502    0 -0.56935814782E+01  0.20555741863E+02 -0.23793485756E+01  0.21461982510E+02  0.00000000000E+00 0.  1.
         -2    1    1    2    0  502  0.56935814782E+01 -0.20555741863E+02  0.27783841397E+03  0.27865595216E+03  0.00000000000E+00 0.  1.
<mgrwt>
<rscale>  2 0.21329683E+02</rscale>
<asrwt>0</asrwt>
<pdfrwt beam="2">  1        2 0.18968363E-02 0.21329683E+02</pdfrwt>
<pdfrwt beam="1">  1       -2 0.44275149E-01 0.21329683E+02</pdfrwt>
<totfact> 0.19558404E+04</totfact>
</mgrwt>
</event>
<event>
 4    1  0.7653521E+003  0.2187928E+02  0.7546771E-02  0.1710348E+00
         -2   -1    0    0    0  501 -0.00000000000E+00  0.00000000000E+00  0.38066575678E+01  0.38066575678E+01  0.00000000000E+00 0. -1.
          2   -1    0    0  501    0  0.00000000000E+00 -0.00000000000E+00 -0.13962767685E+04  0.13962767685E+04  0.00000000000E+00 0.  1.
          2    1    1    2  502    0  0.15239996101E+02 -0.15698581253E+02 -0.13640088401E+04  0.13641843053E+04  0.00000000000E+00 0.  1.
         -2    1    1    2    0  502 -0.15239996101E+02  0.15698581253E+02 -0.28461270796E+02  0.35899120739E+02  0.00000000000E+00 0. -1.
<mgrwt>
<rscale>  2 0.21879281E+02</rscale>
<asrwt>0</asrwt>
<pdfrwt beam="2">  1        2 0.21481215E+00 0.21879281E+02</pdfrwt>
<pdfrwt beam="1">  1       -2 0.58563871E-03 0.21879281E+02</pdfrwt>
<totfact> 0.53483049E+04</totfact>
</mgrwt>
</event>
<event>
 4    1  0.7653521E+003  0.2606523E+02  0.7546771E-02  0.1646157E+00
          2   -1    0    0  501    0  0.00000000000E+00  0.00000000000E+00  0.16249451332E+03  0.16249451332E+03  0.00000000000E+00 0. -1.
         -2   -1    0    0    0  501 -0.00000000000E+00 -0.00000000000E+00 -0.64466497488E+01  0.64466497488E+01  0.00000000000E+00 0.  1.
          2    1    1    2  502    0  0.19647161071E+02  0.17128486735E+02  0.12810009388E+03  0.13072501691E+03  0.00000000000E+00 0. -1.
         -2    1    1    2    0  502 -0.19647161071E+02 -0.17128486735E+02  0.27947769693E+02  0.38216146153E+02  0.00000000000E+00 0.  1.
<mgrwt>
<rscale>  2 0.26065226E+02</rscale>
<asrwt>0</asrwt>
<pdfrwt beam="1">  1        2 0.24999153E-01 0.26065226E+02</pdfrwt>
<pdfrwt beam="2">  1       -2 0.99179240E-03 0.26065226E+02</pdfrwt>
<totfact> 0.28662827E+05</totfact>
</mgrwt>
</event>
<event>
 4    1  0.7653521E+003  0.2136726E+02  0.7546771E-02  0.1719430E+00
         -2   -1    0    0    0  501 -0.00000000000E+00  0.00000000000E+00  0.20326703578E+03  0.20326703578E+03  0.00000000000E+00 0. -1.
          2   -1    0    0  501    0  0.00000000000E+00 -0.00000000000E+00 -0.71556637751E+03  0.71556637751E+03  0.00000000000E+00 0. -1.
          2    1    1    2  502    0  0.17218139042E+02 -0.12652883522E+02 -0.71484477379E+03  0.71516404439E+03  0.00000000000E+00 0. -1.
         -2    1    1    2    0  502 -0.17218139042E+02  0.12652883522E+02  0.20254543207E+03  0.20366936889E+03  0.00000000000E+00 0. -1.
<mgrwt>
<rscale>  2 0.21367259E+02</rscale>
<asrwt>0</asrwt>
<pdfrwt beam="2">  1        2 0.11008714E+00 0.21367259E+02</pdfrwt>
<pdfrwt beam="1">  1       -2 0.31271851E-01 0.21367259E+02</pdfrwt>
<totfact> 0.39568382E+02</totfact>
</mgrwt>
</event>
<event>
 4    1  0.7653521E+003  0.2303829E+02  0.7546771E-02  0.1690890E+00
         -2   -1    0    0    0  501 -0.00000000000E+00  0.00000000000E+00  0.29204101611E+03  0.29204101611E+03  0.00000000000E+00 0.  1.
          2   -1    0    0  501    0  0.00000000000E+00 -0.00000000000E+00 -0.14974134194E+02  0.14974134194E+02  0.00000000000E+00 0.  1.
          2    1    1    2  502    0 -0.23002558855E+02  0.12826116845E+01 -0.53572107583E+01  0.23652959936E+02  0.00000000000E+00 0.  1.
         -2    1    1    2    0  502  0.23002558855E+02 -0.12826116845E+01  0.28242409267E+03  0.28336219036E+03  0.00000000000E+00 0.  1.
<mgrwt>
<rscale>  2 0.23038290E+02</rscale>
<asrwt>0</asrwt>
<pdfrwt beam="2">  1        2 0.23037132E-02 0.23038290E+02</pdfrwt>
<pdfrwt beam="1">  1       -2 0.44929383E-01 0.23038290E+02</pdfrwt>
<totfact> 0.15095232E+04</totfact>
</mgrwt>
</event>
<event>
 4    1  0.7653521E+003  0.2921397E+02  0.7546771E-02  0.1606943E+00
          2   -1    0    0  501    0  0.00000000000E+00  0.00000000000E+00  0.73351735165E+01  0.73351735165E+01  0.00000000000E+00 0.  1.
         -2   -1    0    0    0  501 -0.00000000000E+00 -0.00000000000E+00 -0.61991546325E+03  0.61991546325E+03  0.00000000000E+00 0. -1.
          2    1    1    2  502    0 -0.28070168561E+02 -0.80945493495E+01 -0.23624947548E+02  0.37571188947E+02  0.00000000000E+00 0.  1.
         -2    1    1    2    0  502  0.28070168561E+02  0.80945493495E+01 -0.58895534219E+03  0.58967944782E+03  0.00000000000E+00 0. -1.
<mgrwt>
<rscale>  2 0.29213971E+02</rscale>
<asrwt>0</asrwt>
<pdfrwt beam="1">  1        2 0.11284886E-02 0.29213971E+02</pdfrwt>
<pdfrwt beam="2">  1       -2 0.95371581E-01 0.29213971E+02</pdfrwt>
<totfact> 0.86783516E+03</totfact>
</mgrwt>
</event>
<event>
 4    1  0.7653521E+003  0.2112829E+02  0.7546771E-02  0.1723779E+00
          2   -1    0    0  501    0  0.00000000000E+00  0.00000000000E+00  0.35710286940E+02  0.35710286940E+02  0.00000000000E+00 0. -1.
         -2   -1    0    0    0  501 -0.00000000000E+00 -0.00000000000E+00 -0.16391645891E+03  0.16391645891E+03  0.00000000000E+00 0.  1.
          2    1    1    2  502    0  0.17869169058E+02 -0.11273758400E+02  0.31828790289E+02  0.38203098337E+02  0.00000000000E+00 0. -1.
         -2    1    1    2    0  502 -0.17869169058E+02  0.11273758400E+02 -0.16003496226E+03  0.16142364751E+03  0.00000000000E+00 0.  1.
<mgrwt>
<rscale>  2 0.21128295E+02</rscale>
<asrwt>0</asrwt>
<pdfrwt beam="1">  1        2 0.54938903E-02 0.21128295E+02</pdfrwt>
<pdfrwt beam="2">  1       -2 0.25217917E-01 0.21128295E+02</pdfrwt>
<totfact> 0.13847176E+04</totfact>
</mgrwt>
</event>
<event>
 4    1  0.7653521E+003  0.2856195E+02  0.7546771E-02  0.1614551E+00
          2   -1    0    0  501    0  0.00000000000E+00  0.00000000000E+00  0.23797650169E+03  0.23797650169E+03  0.00000000000E+00 0.  1.
         -2   -1    0    0    0  501 -0.00000000000E+00 -0.00000000000E+00 -0.85802440553E+01  0.85802440553E+01  0.00000000000E+00 0. -1.
          2    1    1    2  502    0  0.69385233574E+01  0.27706346697E+02  0.21022709002E+03  0.21215846467E+03  0.00000000000E+00 0.  1.
         -2    1    1    2    0  502 -0.69385233574E+01 -0.27706346697E+02  0.19169167612E+02  0.34398281071E+02  0.00000000000E+00 0. -1.
<mgrwt>
<rscale>  2 0.28561946E+02</rscale>
<asrwt>0</asrwt>
<pdfrwt beam="1">  1        2 0.36611764E-01 0.28561946E+02</pdfrwt>
<pdfrwt beam="2">  1       -2 0.13200377E-02 0.28561946E+02</pdfrwt>
<totfact> 0.13452932E+05</totfact>
</mgrwt>
</event>
<event>
 4    1  0.7653521E+003  0.4803305E+02  0.7546771E-02  0.1456249E+00
          2   -1    0    0  501    0  0.00000000000E+00  0.00000000000E+00  0.40416405466E+03  0.40416405466E+03  0.00000000000E+00 0. -1.
         -2   -1    0    0    0  501 -0.00000000000E+00 -0.00000000000E+00 -0.10653698479E+02  0.10653698479E+02  0.00000000000E+00 0.  1.
          2    1    1    2  502    0  0.37637051559E+02  0.29843366534E+02  0.33806378121E+03  0.34145906686E+03  0.00000000000E+00 0. -1.
         -2    1    1    2    0  502 -0.37637051559E+02 -0.29843366534E+02  0.55446574967E+02  0.73358686273E+02  0.00000000000E+00 0.  1.
<mgrwt>
<rscale>  2 0.48033053E+02</rscale>
<asrwt>0</asrwt>
<pdfrwt beam="1">  1        2 0.62179073E-01 0.48033053E+02</pdfrwt>
<pdfrwt beam="2">  1       -2 0.16390308E-02 0.48033053E+02</pdfrwt>
<totfact> 0.64682004E+04</totfact>
</mgrwt>
</event>
<event>
 4    1  0.7653521E+003  0.2928942E+02  0.7546771E-02  0.1606079E+00
         -2   -1    0    0    0  501 -0.00000000000E+00  0.00000000000E+00  0.46407861086E+01  0.46407861086E+01  0.00000000000E+00 0.  1.
          2   -1    0    0  501    0  0.00000000000E+00 -0.00000000000E+00 -0.54567205480E+03  0.54567205480E+03  0.00000000000E+00 0. -1.
          2    1    1    2  502    0 -0.26462323944E+02 -0.12554503628E+02 -0.49426284504E+03  0.49512991238E+03  0.00000000000E+00 0. -1.
         -2    1    1    2    0  502  0.26462323944E+02  0.12554503628E+02 -0.46768423655E+02  0.55182928529E+02  0.00000000000E+00 0.  1.
<mgrwt>
<rscale>  2 0.29289420E+02</rscale>
<asrwt>0</asrwt>
<pdfrwt beam="2">  1        2 0.83949536E-01 0.29289420E+02</pdfrwt>
<pdfrwt beam="1">  1       -2 0.71396719E-03 0.29289420E+02</pdfrwt>
<totfact> 0.13585628E+05</totfact>
</mgrwt>
</event>
<event>
 4    1  0.7653521E+003  0.2369706E+02  0.7546771E-02  0.1680454E+00
          2   -1    0    0  501    0  0.00000000000E+00  0.00000000000E+00  0.26762731387E+03  0.26762731387E+03  0.00000000000E+00 0. -1.
         -2   -1    0    0    0  501 -0.00000000000E+00 -0.00000000000E+00 -0.30382261858E+01  0.30382261858E+01  0.00000000000E+00 0. -1.
          2    1    1    2  502    0 -0.20274632145E+02  0.12267432739E+02  0.20756940471E+03  0.20891770721E+03  0.00000000000E+00 0. -1.
         -2    1    1    2    0  502  0.20274632145E+02 -0.12267432739E+02  0.57019682980E+02  0.61747832851E+02  0.00000000000E+00 0. -1.
<mgrwt>
<rscale>  2 0.23697059E+02</rscale>
<asrwt>0</asrwt>
<pdfrwt beam="1">  1        2 0.41173414E-01 0.23697059E+02</pdfrwt>
<pdfrwt beam="2">  1       -2 0.46741962E-03 0.23697059E+02</pdfrwt>
<totfact> 0.46470019E+05</totfact>
</mgrwt>
</event>
<event>
 4    1  0.7653521E+003  0.2722689E+02  0.7546771E-02  0.1630933E+00
         -2   -1    0    0    0  501 -0.00000000000E+00  0.00000000000E+00  0.12831851901E+02  0.12831851901E+02  0.00000000000E+00 0. -1.
          2   -1    0    0  501    0  0.00000000000E+00 -0.00000000000E+00 -0.59282504570E+02  0.59282504570E+02  0.00000000000E+00 0.  1.
          2    1    1    2  502    0 -0.15120417148E+02  0.22642356168E+02 -0.28983648794E+02  0.39766257116E+02  0.00000000000E+00 0.  1.
         -2    1    1    2    0  502  0.15120417148E+02 -0.22642356168E+02 -0.17467003875E+02  0.32348099355E+02  0.00000000000E+00 0. -1.
<mgrwt>
<rscale>  2 0.27226886E+02</rscale>
<asrwt>0</asrwt>
<pdfrwt beam="2">  1        2 0.91203855E-02 0.27226886E+02</pdfrwt>
<pdfrwt beam="1">  1       -2 0.19741310E-02 0.27226886E+02</pdfrwt>
<totfact> 0.34402628E+05</totfact>
</mgrwt>
</event>
<event>
 4    1  0.7653521E+003  0.3221847E+02  0.7546771E-02  0.1574786E+00
          2   -1    0    0  501    0  0.00000000000E+00  0.00000000000E+00  0.11318772828E+03  0.11318772828E+03  0.00000000000E+00 0. -1.
         -2   -1    0    0    0  501 -0.00000000000E+00 -0.00000000000E+00 -0.12606982329E+02  0.12606982329E+02  0.00000000000E+00 0.  1.
          2    1    1    2  502    0  0.29820384582E+02  0.12197306881E+02  0.83127160450E+02  0.89152422492E+02  0.00000000000E+00 0. -1.
         -2    1    1    2    0  502 -0.29820384582E+02 -0.12197306881E+02  0.17453585504E+02  0.36642288121E+02  0.00000000000E+00 0.  1.
<mgrwt>
<rscale>  2 0.32218467E+02</rscale>
<asrwt>0</asrwt>
<pdfrwt beam="1">  1        2 0.17413496E-01 0.32218467E+02</pdfrwt>
<pdfrwt beam="2">  1       -2 0.19395358E-02 0.32218467E+02</pdfrwt>
<totfact> 0.17703589E+05</totfact>
</mgrwt>
</event>
<event>
 4    1  0.7653521E+003  0.2516903E+02  0.7546771E-02  0.1658586E+00
          2   -1    0    0  501    0  0.00000000000E+00  0.00000000000E+00  0.28146619211E+03  0.28146619211E+03  0.00000000000E+00 0.  1.
         -2   -1    0    0    0  501 -0.00000000000E+00 -0.00000000000E+00 -0.29843871451E+01  0.29843871451E+01  0.00000000000E+00 0.  1.
          2    1    1    2  502    0 -0.24447702380E+02 -0.59824602830E+01  0.20976239575E+03  0.21126699376E+03  0.00000000000E+00 0.  1.
         -2    1    1    2    0  502  0.24447702380E+02  0.59824602830E+01  0.68719409218E+02  0.73183585495E+02  0.00000000000E+00 0.  1.
<mgrwt>
<rscale>  2 0.25169028E+02</rscale>
<asrwt>0</asrwt>
<pdfrwt beam="1">  1        2 0.43302470E-01 0.25169028E+02</pdfrwt>
<pdfrwt beam="2">  1       -2 0.45913671E-03 0.25169028E+02</pdfrwt>
<totfact> 0.46083072E+05</totfact>
</mgrwt>
</event>
<event>
 4    1  0.7653521E+003  0.4477087E+02  0.7546771E-02  0.1475777E+00
          2   -1    0    0  501    0  0.00000000000E+00  0.00000000000E+00  0.67282858726E+03  0.67282858726E+03  0.00000000000E+00 0.  1.
         -2   -1    0    0    0  501 -0.00000000000E+00 -0.00000000000E+00 -0.80107446962E+01  0.80107446962E+01  0.00000000000E+00 0. -1.
          2    1    1    2  502    0 -0.72348177395E+01 -0.44182437791E+02  0.60220320626E+03  0.60386516047E+03  0.00000000000E+00 0.  1.
         -2    1    1    2    0  502  0.72348177395E+01  0.44182437791E+02  0.62614636303E+02  0.76974171488E+02  0.00000000000E+00 0. -1.
<mgrwt>
<rscale>  2 0.44770865E+02</rscale>
<asrwt>0</asrwt>
<pdfrwt beam="1">  1        2 0.10351205E+00 0.44770865E+02</pdfrwt>
<pdfrwt beam="2">  1       -2 0.12324228E-02 0.44770865E+02</pdfrwt>
<totfact> 0.55472650E+04</totfact>
</mgrwt>
</event>
<event>
 4    1  0.7653521E+003  0.2392657E+02  0.7546771E-02  0.1676917E+00
          2   -1    0    0  501    0  0.00000000000E+00  0.00000000000E+00  0.10501340405E+03  0.10501340405E+03  0.00000000000E+00 0.  1.
         -2   -1    0    0    0  501 -0.00000000000E+00 -0.00000000000E+00 -0.94213957071E+01  0.94213957071E+01  0.00000000000E+00 0. -1.
          2    1    1    2  502    0  0.21489132770E+02  0.10521297082E+02  0.84937558301E+02  0.88243239569E+02  0.00000000000E+00 0.  1.
         -2    1    1    2    0  502 -0.21489132770E+02 -0.10521297082E+02  0.10654450045E+02  0.26191560192E+02  0.00000000000E+00 0. -1.
<mgrwt>
<rscale>  2 0.23926565E+02</rscale>
<asrwt>0</asrwt>
<pdfrwt beam="1">  1        2 0.16155908E-01 0.23926565E+02</pdfrwt>
<pdfrwt beam="2">  1       -2 0.14494456E-02 0.23926565E+02</pdfrwt>
<totfact> 0.26568176E+05</totfact>
</mgrwt>
</event>
<event>
 4    1  0.7653521E+003  0.2129562E+02  0.7546771E-02  0.1720727E+00
          2   -1    0    0  501    0  0.00000000000E+00  0.00000000000E+00  0.10570864642E+04  0.10570864642E+04  0.00000000000E+00 0. -1.
         -2   -1    0    0    0  501 -0.00000000000E+00 -0.00000000000E+00 -0.14484655130E+02  0.14484655130E+02  0.00000000000E+00 0. -1.
          2    1    1    2  502    0  0.21188617866E+02 -0.21320878777E+01  0.10490922660E+04  0.10493083846E+04  0.00000000000E+00 0. -1.
         -2    1    1    2    0  502 -0.21188617866E+02  0.21320878777E+01 -0.64904569745E+01  0.22262734727E+02  0.00000000000E+00 0. -1.
<mgrwt>
<rscale>  2 0.21295618E+02</rscale>
<asrwt>0</asrwt>
<pdfrwt beam="1">  1        2 0.16262863E+00 0.21295618E+02</pdfrwt>
<pdfrwt beam="2">  1       -2 0.22284093E-02 0.21295618E+02</pdfrwt>
<totfact> 0.12873436E+04</totfact>
</mgrwt>
</event>
<event>
 4    1  0.7653521E+003  0.2767530E+02  0.7546771E-02  0.1625305E+00
         -2   -1    0    0    0  501 -0.00000000000E+00  0.00000000000E+00  0.18794620124E+03  0.18794620124E+03  0.00000000000E+00 0.  1.
          2   -1    0    0  501    0  0.00000000000E+00 -0.00000000000E+00 -0.13154796590E+04  0.13154796590E+04  0.00000000000E+00 0. -1.
          2    1    1    2  502    0 -0.27127200802E+02 -0.54806276944E+01 -0.13143143911E+04  0.13146057359E+04  0.00000000000E+00 0. -1.
         -2    1    1    2    0  502  0.27127200802E+02  0.54806276944E+01  0.18678093331E+03  0.18882012433E+03  0.00000000000E+00 0.  1.
<mgrwt>
<rscale>  2 0.27675301E+02</rscale>
<asrwt>0</asrwt>
<pdfrwt beam="2">  1        2 0.20238149E+00 0.27675301E+02</pdfrwt>
<pdfrwt beam="1">  1       -2 0.28914799E-01 0.27675301E+02</pdfrwt>
<totfact> 0.21076986E+02</totfact>
</mgrwt>
</event>
<event>
 4    1  0.7653521E+003  0.2290489E+02  0.7546771E-02  0.1693056E+00
         -2   -1    0    0    0  501 -0.00000000000E+00  0.00000000000E+00  0.22580911553E+02  0.22580911553E+02  0.00000000000E+00 0. -1.
          2   -1    0    0  501    0  0.00000000000E+00 -0.00000000000E+00 -0.22139603620E+03  0.22139603620E+03  0.00000000000E+00 0.  1.
          2    1    1    2  502    0  0.12444387766E+02 -0.19229438596E+02 -0.21481787826E+03  0.21603554086E+03  0.00000000000E+00 0.  1.
         -2    1    1    2    0  502 -0.12444387766E+02  0.19229438596E+02  0.16002753616E+02  0.27941406888E+02  0.00000000000E+00 0. -1.
<mgrwt>
<rscale>  2 0.22904892E+02</rscale>
<asrwt>0</asrwt>
<pdfrwt beam="2">  1        2 0.34060930E-01 0.22904892E+02</pdfrwt>
<pdfrwt beam="1">  1       -2 0.34739862E-02 0.22904892E+02</pdfrwt>
<totfact> 0.36229297E+04</totfact>
</mgrwt>
</event>
<event>
 4    1  0.7653521E+003  0.2058232E+02  0.7546771E-02  0.1733990E+00
          2   -1    0    0  501    0  0.00000000000E+00  0.00000000000E+00  0.85734209981E+02  0.85734209981E+02  0.00000000000E+00 0.  1.
         -2   -1    0    0    0  501 -0.00000000000E+00 -0.00000000000E+00 -0.10544011397E+04  0.10544011397E+04  0.00000000000E+00 0. -1.
          2    1    1    2  502    0 -0.18749515930E+02 -0.84904291893E+01  0.84396892280E+02  0.86870404408E+02  0.00000000000E+00 0.  1.
         -2    1    1    2    0  502  0.18749515930E+02  0.84904291893E+01 -0.10530638220E+04  0.10532649452E+04  0.00000000000E+00 0. -1.
<mgrwt>
<rscale>  2 0.20582316E+02</rscale>
<asrwt>0</asrwt>
<pdfrwt beam="1">  1        2 0.13189879E-01 0.20582316E+02</pdfrwt>
<pdfrwt beam="2">  1       -2 0.16221556E+00 0.20582316E+02</pdfrwt>
<totfact> 0.11547849E+02</totfact>
</mgrwt>
</event>
<event>
 4    1  0.7653521E+003  0.2085778E+02  0.7546771E-02  0.1728789E+00
         -2   -1    0    0    0  501 -0.00000000000E+00  0.00000000000E+00  0.37056781574E+01  0.37056781574E+01  0.00000000000E+00 0.  1.
          2   -1    0    0  501    0  0.00000000000E+00 -0.00000000000E+00 -0.34520605768E+03  0.34520605768E+03  0.00000000000E+00 0. -1.
          2    1    1    2  502    0 -0.11706518096E+02 -0.17262810422E+02 -0.31246944595E+03  0.31316481578E+03  0.00000000000E+00 0. -1.
         -2    1    1    2    0  502  0.11706518096E+02  0.17262810422E+02 -0.29030933575E+02  0.35746920061E+02  0.00000000000E+00 0.  1.
<mgrwt>
<rscale>  2 0.20857785E+02</rscale>
<asrwt>0</asrwt>
<pdfrwt beam="2">  1        2 0.53108626E-01 0.20857785E+02</pdfrwt>
<pdfrwt beam="1">  1       -2 0.57010432E-03 0.20857785E+02</pdfrwt>
<totfact> 0.26733488E+05</totfact>
</mgrwt>
</event>
<event>
 4    1  0.7653521E+003  0.2044932E+02  0.7546771E-02  0.1736538E+00
          2   -1    0    0  501    0  0.00000000000E+00  0.00000000000E+00  0.57121095948E+03  0.57121095948E+03  0.00000000000E+00 0. -1.
         -2   -1    0    0    0  501 -0.00000000000E+00 -0.00000000000E+00 -0.82541049117E+00  0.82541049117E+00  0.00000000000E+00 0. -1.
          2    1    1    2  502    0 -0.16906107756E+02 -0.11504698578E+02  0.38136738846E+03  0.38191525179E+03  0.00000000000E+00 0. -1.
         -2    1    1    2    0  502  0.16906107756E+02  0.11504698578E+02  0.18901816052E+03  0.19012111817E+03  0.00000000000E+00 0. -1.
<mgrwt>
<rscale>  2 0.20449317E+02</rscale>
<asrwt>0</asrwt>
<pdfrwt beam="1">  1        2 0.87878293E-01 0.20449317E+02</pdfrwt>
<pdfrwt beam="2">  1       -2 0.12698669E-03 0.20449317E+02</pdfrwt>
<totfact> 0.11758707E+06</totfact>
</mgrwt>
</event>
<event>
 4    1  0.7653521E+003  0.2560188E+02  0.7546771E-02  0.1652504E+00
          2   -1    0    0  501    0  0.00000000000E+00  0.00000000000E+00  0.22003989591E+03  0.22003989591E+03  0.00000000000E+00 0.  1.
         -2   -1    0    0    0  501 -0.00000000000E+00 -0.00000000000E+00 -0.12217942919E+02  0.12217942919E+02  0.00000000000E+00 0.  1.
          2    1    1    2  502    0 -0.20051099770E+02  0.15918852586E+02  0.20489600857E+03  0.20648929947E+03  0.00000000000E+00 0.  1.
         -2    1    1    2    0  502  0.20051099770E+02 -0.15918852586E+02  0.29259444194E+01  0.25768539353E+02  0.00000000000E+00 0.  1.
<mgrwt>
<rscale>  2 0.25601884E+02</rscale>
<asrwt>0</asrwt>
<pdfrwt beam="1">  1        2 0.33852289E-01 0.25601884E+02</pdfrwt>
<pdfrwt beam="2">  1       -2 0.18796837E-02 0.25601884E+02</pdfrwt>
<totfact> 0.87395303E+04</totfact>
</mgrwt>
</event>
<event>
 4    1  0.7653521E+003  0.4347943E+02  0.7546771E-02  0.1484064E+00
         -2   -1    0    0    0  501 -0.00000000000E+00  0.00000000000E+00  0.57123603943E+01  0.57123603943E+01  0.00000000000E+00 0. -1.
          2   -1    0    0  501    0  0.00000000000E+00 -0.00000000000E+00 -0.39620190503E+03  0.39620190503E+03  0.00000000000E+00 0. -1.
          2    1    1    2  502    0 -0.83347380421E+00 -0.43471415574E+02 -0.11368629008E+03  0.12171701279E+03  0.00000000000E+00 0. -1.
         -2    1    1    2    0  502  0.83347380421E+00  0.43471415574E+02 -0.27680325455E+03  0.28019725263E+03  0.00000000000E+00 0. -1.
<mgrwt>
<rscale>  2 0.43479427E+02</rscale>
<asrwt>0</asrwt>
<pdfrwt beam="2">  1        2 0.60954156E-01 0.43479427E+02</pdfrwt>
<pdfrwt beam="1">  1       -2 0.87882443E-03 0.43479427E+02</pdfrwt>
<totfact> 0.15426238E+05</totfact>
</mgrwt>
</event>
<event>
 4    1  0.7653521E+003  0.2556521E+02  0.7546771E-02  0.1653014E+00
         -2   -1    0    0    0  501 -0.00000000000E+00  0.00000000000E+00  0.39278159880E+01  0.39278159880E+01  0.00000000000E+00 0. -1.
          2   -1    0    0  501    0  0.00000000000E+00 -0.00000000000E+00 -0.33415626167E+03  0.33415626167E+03  0.00000000000E+00 0. -1.
          2    1    1    2  502    0  0.36811512373E+01  0.25298793920E+02 -0.28488811644E+03  0.28603289800E+03  0.00000000000E+00 0. -1.
         -2    1    1    2    0  502 -0.36811512373E+01 -0.25298793920E+02 -0.45340329239E+02  0.52051179657E+02  0.00000000000E+00 0. -1.
<mgrwt>
<rscale>  2 0.25565208E+02</rscale>
<asrwt>0</asrwt>
<pdfrwt beam="2">  1        2 0.51408659E-01 0.25565208E+02</pdfrwt>
<pdfrwt beam="1">  1       -2 0.60427935E-03 0.25565208E+02</pdfrwt>
<totfact> 0.26987842E+05</totfact>
</mgrwt>
</event>
<event>
 4    1  0.7653521E+003  0.2136286E+02  0.7546771E-02  0.1719510E+00
          2   -1    0    0  501    0  0.00000000000E+00  0.00000000000E+00  0.80473848696E+03  0.80473848696E+03  0.00000000000E+00 0.  1.
         -2   -1    0    0    0  501 -0.00000000000E+00 -0.00000000000E+00 -0.12607927751E+03  0.12607927751E+03  0.00000000000E+00 0.  1.
          2    1    1    2  502    0  0.15775338385E+02  0.14405217488E+02  0.80369060110E+03  0.80397447340E+03  0.00000000000E+00 0.  1.
         -2    1    1    2    0  502 -0.15775338385E+02 -0.14405217488E+02 -0.12503139164E+03  0.12684329107E+03  0.00000000000E+00 0.  1.
<mgrwt>
<rscale>  2 0.21362855E+02</rscale>
<asrwt>0</asrwt>
<pdfrwt beam="1">  1        2 0.12380592E+00 0.21362855E+02</pdfrwt>
<pdfrwt beam="2">  1       -2 0.19396812E-01 0.21362855E+02</pdfrwt>
<totfact> 0.76747407E+02</totfact>
</mgrwt>
</event>
<event>
 4    1  0.7653521E+003  0.2348327E+02  0.7546771E-02  0.1683794E+00
         -2   -1    0    0    0  501 -0.00000000000E+00  0.00000000000E+00  0.18805459142E+03  0.18805459142E+03  0.00000000000E+00 0.  1.
          2   -1    0    0  501    0  0.00000000000E+00 -0.00000000000E+00 -0.21686409893E+02  0.21686409893E+02  0.00000000000E+00 0.  1.
          2    1    1    2  502    0 -0.17173534609E+02 -0.16016663505E+02 -0.14338630215E+02  0.27514725462E+02  0.00000000000E+00 0.  1.
         -2    1    1    2    0  502  0.17173534609E+02  0.16016663505E+02  0.18070681174E+03  0.18222627585E+03  0.00000000000E+00 0.  1.
<mgrwt>
<rscale>  2 0.23483266E+02</rscale>
<asrwt>0</asrwt>
<pdfrwt beam="2">  1        2 0.33363709E-02 0.23483266E+02</pdfrwt>
<pdfrwt beam="1">  1       -2 0.28931475E-01 0.23483266E+02</pdfrwt>
<totfact> 0.20753518E+04</totfact>
</mgrwt>
</event>
<event>
 4    1  0.7653521E+003  0.3683355E+02  0.7546771E-02  0.1532896E+00
         -2   -1    0    0    0  501 -0.00000000000E+00  0.00000000000E+00  0.21529086799E+01  0.21529086799E+01  0.00000000000E+00 0.  1.
          2   -1    0    0  501    0  0.00000000000E+00 -0.00000000000E+00 -0.63634542100E+03  0.63634542100E+03  0.00000000000E+00 0.  1.
          2    1    1    2  502    0  0.36528741896E+02 -0.47287985209E+01 -0.34853169849E+03  0.35047261715E+03  0.00000000000E+00 0.  1.
         -2    1    1    2    0  502 -0.36528741896E+02  0.47287985209E+01 -0.28566081383E+03  0.28802571253E+03  0.00000000000E+00 0.  1.
<mgrwt>
<rscale>  2 0.36833552E+02</rscale>
<asrwt>0</asrwt>
<pdfrwt beam="2">  1        2 0.97899290E-01 0.36833552E+02</pdfrwt>
<pdfrwt beam="1">  1       -2 0.33121674E-03 0.36833552E+02</pdfrwt>
<totfact> 0.34465734E+05</totfact>
</mgrwt>
</event>
<event>
 4    1  0.7653521E+003  0.2287265E+02  0.7546771E-02  0.1693583E+00
         -2   -1    0    0    0  501 -0.00000000000E+00  0.00000000000E+00  0.46824058936E+01  0.46824058936E+01  0.00000000000E+00 0.  1.
          2   -1    0    0  501    0  0.00000000000E+00 -0.00000000000E+00 -0.12900232046E+03  0.12900232046E+03  0.00000000000E+00 0. -1.
          2    1    1    2  502    0 -0.21233833418E+02  0.85019046895E+01 -0.86619456591E+02  0.89588438568E+02  0.00000000000E+00 0. -1.
         -2    1    1    2    0  502  0.21233833418E+02 -0.85019046895E+01 -0.37700457980E+02  0.44096287790E+02  0.00000000000E+00 0.  1.
<mgrwt>
<rscale>  2 0.22872649E+02</rscale>
<asrwt>0</asrwt>
<pdfrwt beam="2">  1        2 0.19846511E-01 0.22872649E+02</pdfrwt>
<pdfrwt beam="1">  1       -2 0.72037015E-03 0.22872649E+02</pdfrwt>
<totfact> 0.54159915E+05</totfact>
</mgrwt>
</event>
<event>
 4    1  0.7653521E+003  0.2880759E+02  0.7546771E-02  0.1611656E+00
          2   -1    0    0  501    0  0.00000000000E+00  0.00000000000E+00  0.20697338023E+04  0.20697338023E+04  0.00000000000E+00 0.  1.
         -2   -1    0    0    0  501 -0.00000000000E+00 -0.00000000000E+00 -0.59091001964E+01  0.59091001964E+01  0.00000000000E+00 0. -1.
          2    1    1    2  502    0  0.16626414959E+02  0.23525297654E+02  0.20339049625E+04  0.20341089631E+04  0.00000000000E+00 0.  1.
         -2    1    1    2    0  502 -0.16626414959E+02 -0.23525297654E+02  0.29919739634E+02  0.41533939422E+02  0.00000000000E+00 0. -1.
<mgrwt>
<rscale>  2 0.28807591E+02</rscale>
<asrwt>0</asrwt>
<pdfrwt beam="1">  1        2 0.31842001E+00 0.28807591E+02</pdfrwt>
<pdfrwt beam="2">  1       -2 0.90909399E-03 0.28807591E+02</pdfrwt>
<totfact> 0.14779459E+04</totfact>
</mgrwt>
</event>
<event>
 4    1  0.7653521E+003  0.2088372E+02  0.7546771E-02  0.1728304E+00
         -2   -1    0    0    0  501 -0.00000000000E+00  0.00000000000E+00  0.11265112522E+01  0.11265112522E+01  0.00000000000E+00 0.  1.
          2   -1    0    0  501    0  0.00000000000E+00 -0.00000000000E+00 -0.14020130479E+04  0.14020130479E+04  0.00000000000E+00 0. -1.
          2    1    1    2  502    0  0.15079588386E+02 -0.14447694145E+02 -0.12973388602E+04  0.12975069356E+04  0.00000000000E+00 0. -1.
         -2    1    1    2    0  502 -0.15079588386E+02  0.14447694145E+02 -0.10354767643E+03  0.10563262349E+03  0.00000000000E+00 0.  1.
<mgrwt>
<rscale>  2 0.20883722E+02</rscale>
<asrwt>0</asrwt>
<pdfrwt beam="2">  1        2 0.21569395E+00 0.20883722E+02</pdfrwt>
<pdfrwt beam="1">  1       -2 0.17330971E-03 0.20883722E+02</pdfrwt>
<totfact> 0.26527690E+05</totfact>
</mgrwt>
</event>
<event>
 4    1  0.7653521E+003  0.2041465E+02  0.7546771E-02  0.1737206E+00
          2   -1    0    0  501    0  0.00000000000E+00  0.00000000000E+00  0.10924774318E+04  0.10924774318E+04  0.00000000000E+00 0. -1.
         -2   -1    0    0    0  501 -0.00000000000E+00 -0.00000000000E+00 -0.38341401800E+00  0.38341401800E+00  0.00000000000E+00 0. -1.
          2    1    1    2  502    0  0.19893518837E+02 -0.45832239340E+01  0.58485825433E+03  0.58521443565E+03  0.00000000000E+00 0. -1.
         -2    1    1    2    0  502 -0.19893518837E+02  0.45832239340E+01  0.50723576344E+03  0.50764641016E+03  0.00000000000E+00 0. -1.
<mgrwt>
<rscale>  2 0.20414652E+02</rscale>
<asrwt>0</asrwt>
<pdfrwt beam="1">  1        2 0.16807096E+00 0.20414652E+02</pdfrwt>
<pdfrwt beam="2">  1       -2 0.58987647E-04 0.20414652E+02</pdfrwt>
<totfact> 0.15376933E+06</totfact>
</mgrwt>
</event>
<event>
 4    1  0.7653521E+003  0.2343550E+02  0.7546771E-02  0.1684546E+00
          2   -1    0    0  501    0  0.00000000000E+00  0.00000000000E+00  0.69113024795E+02  0.69113024795E+02  0.00000000000E+00 0. -1.
         -2   -1    0    0    0  501 -0.00000000000E+00 -0.00000000000E+00 -0.12048336260E+03  0.12048336260E+03  0.00000000000E+00 0.  1.
          2    1    1    2  502    0 -0.18045201257E+02  0.14953042079E+02  0.65933393814E+02  0.69974532336E+02  0.00000000000E+00 0. -1.
         -2    1    1    2    0  502  0.18045201257E+02 -0.14953042079E+02 -0.11730373161E+03  0.11962185505E+03  0.00000000000E+00 0.  1.
<mgrwt>
<rscale>  2 0.23435502E+02</rscale>
<asrwt>0</asrwt>
<pdfrwt beam="1">  1        2 0.10632773E-01 0.23435502E+02</pdfrwt>
<pdfrwt beam="2">  1       -2 0.18535902E-01 0.23435502E+02</pdfrwt>
<totfact> 0.10686214E+04</totfact>
</mgrwt>
</event>
<event>
 4    1  0.7653521E+003  0.2254461E+02  0.7546771E-02  0.1699000E+00
         -2   -1    0    0    0  501 -0.00000000000E+00  0.00000000000E+00  0.87383936907E+02  0.87383936907E+02  0.00000000000E+00 0.  1.
          2   -1    0    0  501    0  0.00000000000E+00 -0.00000000000E+00 -0.10328010658E+03  0.10328010658E+03  0.00000000000E+00 0. -1.
          2    1    1    2  502    0 -0.15123303114E+01 -0.22493827566E+02 -0.10055681718E+03  0.10305305868E+03  0.00000000000E+00 0. -1.
         -2    1    1    2    0  502  0.15123303114E+01  0.22493827566E+02  0.84660647510E+02  0.87610984805E+02  0.00000000000E+00 0.  1.
<mgrwt>
<rscale>  2 0.22544610E+02</rscale>
<asrwt>0</asrwt>
<pdfrwt beam="2">  1        2 0.15889247E-01 0.22544610E+02</pdfrwt>
<pdfrwt beam="1">  1       -2 0.13443683E-01 0.22544610E+02</pdfrwt>
<totfact> 0.11200512E+04</totfact>
</mgrwt>
</event>
<event>
 4    1  0.7653521E+003  0.2802772E+02  0.7546771E-02  0.1620972E+00
          2   -1    0    0  501    0  0.00000000000E+00  0.00000000000E+00  0.10213233495E+04  0.10213233495E+04  0.00000000000E+00 0.  1.
         -2   -1    0    0    0  501 -0.00000000000E+00 -0.00000000000E+00 -0.33382019325E+01  0.33382019325E+01  0.00000000000E+00 0. -1.
          2    1    1    2  502    0  0.24246580572E+02  0.14059029369E+02  0.95844156375E+03  0.95885128362E+03  0.00000000000E+00 0.  1.
         -2    1    1    2    0  502 -0.24246580572E+02 -0.14059029369E+02  0.59543583860E+02  0.65810267855E+02  0.00000000000E+00 0. -1.
<mgrwt>
<rscale>  2 0.28027718E+02</rscale>
<asrwt>0</asrwt>
<pdfrwt beam="1">  1        2 0.15712642E+00 0.28027718E+02</pdfrwt>
<pdfrwt beam="2">  1       -2 0.51357034E-03 0.28027718E+02</pdfrwt>
<totfact> 0.10333550E+05</totfact>
</mgrwt>
</event>
<event>
 4    1  0.7653521E+003  0.5617616E+02  0.7546771E-02  0.1414617E+00
         -2   -1    0    0    0  501 -0.00000000000E+00  0.00000000000E+00  0.17414788561E+03  0.17414788561E+03  0.00000000000E+00 0.  1.
          2   -1    0    0  501    0  0.00000000000E+00 -0.00000000000E+00 -0.45957297636E+02  0.45957297636E+02  0.00000000000E+00 0.  1.
          2    1    1    2  502    0  0.35737163666E+02 -0.43343007020E+02 -0.21554741205E+02  0.60169493872E+02  0.00000000000E+00 0.  1.
         -2    1    1    2    0  502 -0.35737163666E+02  0.43343007020E+02  0.14974532918E+03  0.15993568938E+03  0.00000000000E+00 0.  1.
<mgrwt>
<rscale>  2 0.56176162E+02</rscale>
<asrwt>0</asrwt>
<pdfrwt beam="2">  1        2 0.70703536E-02 0.56176162E+02</pdfrwt>
<pdfrwt beam="1">  1       -2 0.26791982E-01 0.56176162E+02</pdfrwt>
<totfact> 0.10658833E+04</totfact>
</mgrwt>
</event>
<event>
 4    1  0.7653521E+003  0.3200828E+02  0.7546771E-02  0.1576895E+00
         -2   -1    0    0    0  501 -0.00000000000E+00  0.00000000000E+00  0.42146931929E+01  0.42146931929E+01  0.00000000000E+00 0.  1.
          2   -1    0    0  501    0  0.00000000000E+00 -0.00000000000E+00 -0.70048591927E+03  0.70048591927E+03  0.00000000000E+00 0. -1.
          2    1    1    2  502    0 -0.27243574661E+02 -0.16802314496E+02 -0.63285910604E+03  0.63366803473E+03  0.00000000000E+00 0. -1.
         -2    1    1    2    0  502  0.27243574661E+02  0.16802314496E+02 -0.63412120039E+02  0.71032577741E+02  0.00000000000E+00 0.  1.
<mgrwt>
<rscale>  2 0.32008282E+02</rscale>
<asrwt>0</asrwt>
<pdfrwt beam="2">  1        2 0.10776698E+00 0.32008282E+02</pdfrwt>
<pdfrwt beam="1">  1       -2 0.64841483E-03 0.32008282E+02</pdfrwt>
<totfact> 0.12081058E+05</totfact>
</mgrwt>
</event>
<event>
 4    1  0.7653521E+003  0.3350114E+02  0.7546771E-02  0.1562328E+00
         -2   -1    0    0    0  501 -0.00000000000E+00  0.00000000000E+00  0.43042255966E+01  0.43042255966E+01  0.00000000000E+00 0.  1.
          2   -1    0    0  501    0  0.00000000000E+00 -0.00000000000E+00 -0.34448873160E+03  0.34448873160E+03  0.00000000000E+00 0.  1.
          2    1    1    2  502    0  0.29659494894E+02  0.15576933353E+02 -0.25607545057E+03  0.25825755143E+03  0.00000000000E+00 0.  1.
         -2    1    1    2    0  502 -0.29659494894E+02 -0.15576933353E+02 -0.84109055436E+02  0.90535405761E+02  0.00000000000E+00 0.  1.
<mgrwt>
<rscale>  2 0.33501142E+02</rscale>
<asrwt>0</asrwt>
<pdfrwt beam="2">  1        2 0.52998259E-01 0.33501142E+02</pdfrwt>
<pdfrwt beam="1">  1       -2 0.66218864E-03 0.33501142E+02</pdfrwt>
<totfact> 0.24747617E+05</totfact>
</mgrwt>
</event>
<event>
 4    1  0.7653521E+003  0.2382095E+02  0.7546771E-02  0.1678538E+00
          2   -1    0    0  501    0  0.00000000000E+00  0.00000000000E+00  0.15272985637E+02  0.15272985637E+02  0.00000000000E+00 0. -1.
         -2   -1    0    0    0  501 -0.00000000000E+00 -0.00000000000E+00 -0.12877447922E+03  0.12877447922E+03  0.00000000000E+00 0.  1.
          2    1    1    2  502    0  0.20199964504E+02 -0.12625334799E+02  0.40010753929E+01  0.24154632041E+02  0.00000000000E+00 0. -1.
         -2    1    1    2    0  502 -0.20199964504E+02  0.12625334799E+02 -0.11750256897E+03  0.11989283281E+03  0.00000000000E+00 0.  1.
<mgrwt>
<rscale>  2 0.23820950E+02</rscale>
<asrwt>0</asrwt>
<pdfrwt beam="1">  1        2 0.23496901E-02 0.23820950E+02</pdfrwt>
<pdfrwt beam="2">  1       -2 0.19811459E-01 0.23820950E+02</pdfrwt>
<totfact> 0.60765716E+04</totfact>
</mgrwt>
</event>
<event>
 4    1  0.7653521E+003  0.2987175E+02  0.7546771E-02  0.1599511E+00
          2   -1    0    0  501    0  0.00000000000E+00  0.00000000000E+00  0.94107862500E+03  0.94107862500E+03  0.00000000000E+00 0.  1.
         -2   -1    0    0    0  501 -0.00000000000E+00 -0.00000000000E+00 -0.31769930851E+01  0.31769930851E+01  0.00000000000E+00 0.  1.
          2    1    1    2  502    0 -0.32498445018E+01  0.29694443695E+02  0.86439690363E+03  0.86491290225E+03  0.00000000000E+00 0.  1.
         -2    1    1    2    0  502  0.32498445018E+01 -0.29694443695E+02  0.73504728283E+02  0.79342715832E+02  0.00000000000E+00 0.  1.
<mgrwt>
<rscale>  2 0.29871750E+02</rscale>
<asrwt>0</asrwt>
<pdfrwt beam="1">  1        2 0.14478110E+00 0.29871750E+02</pdfrwt>
<pdfrwt beam="2">  1       -2 0.48876892E-03 0.29871750E+02</pdfrwt>
<totfact> 0.12398667E+05</totfact>
</mgrwt>
</event>
<event>
 4    1  0.7653521E+003  0.2144647E+02  0.7546771E-02  0.1718005E+00
         -2   -1    0    0    0  501 -0.00000000000E+00  0.00000000000E+00  0.13436154452E+03  0.13436154452E+03  0.00000000000E+00 0.  1.
          2   -1    0    0  501    0  0.00000000000E+00 -0.00000000000E+00 -0.29974308189E+02  0.29974308189E+02  0.00000000000E+00 0.  1.
          2    1    1    2  502    0 -0.19325947359E+02 -0.92983158098E+01 -0.25140083087E+02  0.33045040412E+02  0.00000000000E+00 0.  1.
         -2    1    1    2    0  502  0.19325947359E+02  0.92983158098E+01  0.12952731941E+03  0.13129081229E+03  0.00000000000E+00 0.  1.
<mgrwt>
<rscale>  2 0.21446466E+02</rscale>
<asrwt>0</asrwt>
<pdfrwt beam="2">  1        2 0.46114321E-02 0.21446466E+02</pdfrwt>
<pdfrwt beam="1">  1       -2 0.20671007E-01 0.21446466E+02</pdfrwt>
<totfact> 0.23809570E+04</totfact>
</mgrwt>
</event>
<event>
 4    1  0.7653521E+003  0.6024917E+02  0.7546771E-02  0.1396789E+00
          2   -1    0    0  501    0  0.00000000000E+00  0.00000000000E+00  0.22705612932E+04  0.22705612932E+04  0.00000000000E+00 0. -1.
         -2   -1    0    0    0  501 -0.00000000000E+00 -0.00000000000E+00 -0.41813039619E+01  0.41813039619E+01  0.00000000000E+00 0. -1.
          2    1    1    2  502    0  0.58563914348E+02 -0.14150279573E+02  0.20270606983E+04  0.20279558765E+04  0.00000000000E+00 0. -1.
         -2    1    1    2    0  502 -0.58563914348E+02  0.14150279573E+02  0.23931929096E+03  0.24678672068E+03  0.00000000000E+00 0. -1.
<mgrwt>
<rscale>  2 0.60249170E+02</rscale>
<asrwt>0</asrwt>
<pdfrwt beam="1">  1        2 0.34931614E+00 0.60249170E+02</pdfrwt>
<pdfrwt beam="2">  1       -2 0.64327935E-03 0.60249170E+02</pdfrwt>
<totfact> 0.20106454E+04</totfact>
</mgrwt>
</event>
<event>
 4    1  0.7653521E+003  0.6132646E+02  0.7546771E-02  0.1392348E+00
         -2   -1    0    0    0  501 -0.00000000000E+00  0.00000000000E+00  0.53291848563E+02  0.53291848563E+02  0.00000000000E+00 0. -1.
          2   -1    0    0  501    0  0.00000000000E+00 -0.00000000000E+00 -0.54904973560E+03  0.54904973560E+03  0.00000000000E+00 0.  1.
          2    1    1    2  502    0 -0.50130458552E+02 -0.35325222777E+02 -0.52902868488E+03  0.53257138833E+03  0.00000000000E+00 0.  1.
         -2    1    1    2    0  502  0.50130458552E+02  0.35325222777E+02  0.33270797838E+02  0.69770195841E+02  0.00000000000E+00 0. -1.
<mgrwt>
<rscale>  2 0.61326456E+02</rscale>
<asrwt>0</asrwt>
<pdfrwt beam="2">  1        2 0.84469184E-01 0.61326456E+02</pdfrwt>
<pdfrwt beam="1">  1       -2 0.81987466E-02 0.61326456E+02</pdfrwt>
<totfact> 0.46916644E+03</totfact>
</mgrwt>
</event>
<event>
 4    1  0.7653521E+003  0.2139477E+02  0.7546771E-02  0.1718934E+00
         -2   -1    0    0    0  501 -0.00000000000E+00  0.00000000000E+00  0.82381982253E+00  0.82381982253E+00  0.00000000000E+00 0. -1.
          2   -1    0    0  501    0  0.00000000000E+00 -0.00000000000E+00 -0.79907337133E+03  0.79907337133E+03  0.00000000000E+00 0. -1.
          2    1    1    2  502    0 -0.82256553953E+01 -0.19750306436E+02 -0.61988105662E+03  0.62025015950E+03  0.00000000000E+00 0. -1.
         -2    1    1    2    0  502  0.82256553953E+01  0.19750306436E+02 -0.17836849490E+03  0.17964703166E+03  0.00000000000E+00 0. -1.
<mgrwt>
<rscale>  2 0.21394766E+02</rscale>
<asrwt>0</asrwt>
<pdfrwt beam="2">  1        2 0.12293455E+00 0.21394766E+02</pdfrwt>
<pdfrwt beam="1">  1       -2 0.12674132E-03 0.21394766E+02</pdfrwt>
<totfact> 0.83528348E+05</totfact>
</mgrwt>
</event>
<event>
 4    1  0.7653521E+003  0.2607218E+02  0.7546771E-02  0.1646063E+00
          2   -1    0    0  501    0  0.00000000000E+00  0.00000000000E+00  0.54072981465E+02  0.54072981465E+02  0.00000000000E+00 0.  1.
         -2   -1    0    0    0  501 -0.00000000000E+00 -0.00000000000E+00 -0.13955273254E+02  0.13955273254E+02  0.00000000000E+00 0.  1.
          2    1    1    2  502    0  0.12372095267E+01  0.26042811952E+02  0.30771084887E+02  0.40331357613E+02  0.00000000000E+00 0.  1.
         -2    1    1    2    0  502 -0.12372095267E+01 -0.26042811952E+02  0.93466233236E+01  0.27696897107E+02  0.00000000000E+00 0.  1.
<mgrwt>
<rscale>  2 0.26072183E+02</rscale>
<asrwt>0</asrwt>
<pdfrwt beam="1">  1        2 0.83189201E-02 0.26072183E+02</pdfrwt>
<pdfrwt beam="2">  1       -2 0.21469651E-02 0.26072183E+02</pdfrwt>
<totfact> 0.33717115E+05</totfact>
</mgrwt>
</event>
<event>
 4    1  0.7653521E+003  0.2186513E+02  0.7546771E-02  0.1710595E+00
          2   -1    0    0  501    0  0.00000000000E+00  0.00000000000E+00  0.12530320611E+04  0.12530320611E+04  0.00000000000E+00 0.  1.
         -2   -1    0    0    0  501 -0.00000000000E+00 -0.00000000000E+00 -0.39805698978E+00  0.39805698978E+00  0.00000000000E+00 0.  1.
          2    1    1    2  502    0  0.19692860347E+02 -0.95013258130E+01  0.75397294621E+03  0.75428992275E+03  0.00000000000E+00 0.  1.
         -2    1    1    2    0  502 -0.19692860347E+02  0.95013258130E+01  0.49866105791E+03  0.49914019535E+03  0.00000000000E+00 0.  1.
<mgrwt>
<rscale>  2 0.21865131E+02</rscale>
<asrwt>0</asrwt>
<pdfrwt beam="1">  1        2 0.19277101E+00 0.21865131E+02</pdfrwt>
<pdfrwt beam="2">  1       -2 0.61240540E-04 0.21865131E+02</pdfrwt>
<totfact> 0.12426664E+06</totfact>
</mgrwt>
</event>
<event>
 4    1  0.7653521E+003  0.3427986E+02  0.7546771E-02  0.1555090E+00
          2   -1    0    0  501    0  0.00000000000E+00  0.00000000000E+00  0.47950927852E+03  0.47950927852E+03  0.00000000000E+00 0.  1.
         -2   -1    0    0    0  501 -0.00000000000E+00 -0.00000000000E+00 -0.56133557937E+01  0.56133557937E+01  0.00000000000E+00 0.  1.
          2    1    1    2  502    0  0.22158652719E+02  0.26155363230E+02  0.41901852031E+03  0.42041839788E+03  0.00000000000E+00 0.  1.
         -2    1    1    2    0  502 -0.22158652719E+02 -0.26155363230E+02  0.54877402414E+02  0.64704236428E+02  0.00000000000E+00 0.  1.
<mgrwt>
<rscale>  2 0.34279862E+02</rscale>
<asrwt>0</asrwt>
<pdfrwt beam="1">  1        2 0.73770626E-01 0.34279862E+02</pdfrwt>
<pdfrwt beam="2">  1       -2 0.86359358E-03 0.34279862E+02</pdfrwt>
<totfact> 0.12384977E+05</totfact>
</mgrwt>
</event>
<event>
 4    1  0.7653521E+003  0.6730340E+02  0.7546771E-02  0.1369511E+00
          2   -1    0    0  501    0  0.00000000000E+00  0.00000000000E+00  0.11248458684E+03  0.11248458684E+03  0.00000000000E+00 0. -1.
         -2   -1    0    0    0  501 -0.00000000000E+00 -0.00000000000E+00 -0.42974640667E+02  0.42974640667E+02  0.00000000000E+00 0.  1.
          2    1    1    2  502    0 -0.15227083939E+02  0.65558247149E+02  0.54255205107E+02  0.86448684985E+02  0.00000000000E+00 0. -1.
         -2    1    1    2    0  502  0.15227083939E+02 -0.65558247149E+02  0.15254741070E+02  0.69010542526E+02  0.00000000000E+00 0.  1.
<mgrwt>
<rscale>  2 0.67303402E+02</rscale>
<asrwt>0</asrwt>
<pdfrwt beam="1">  1        2 0.17305321E-01 0.67303402E+02</pdfrwt>
<pdfrwt beam="2">  1       -2 0.66114832E-02 0.67303402E+02</pdfrwt>
<totfact> 0.35103285E+04</totfact>
</mgrwt>
</event>
<event>
 4    1  0.7653521E+003  0.2046784E+02  0.7546771E-02  0.1736181E+00
          2   -1    0    0  501    0  0.00000000000E+00  0.00000000000E+00  0.25254288717E+02  0.25254288717E+02  0.00000000000E+00 0.  1.
         -2   -1    0    0    0  501 -0.00000000000E+00 -0.00000000000E+00 -0.25281700985E+02  0.25281700985E+02  0.00000000000E+00 0. -1.
          2    1    1    2  502    0 -0.86987918172E+01  0.18527371194E+02  0.14803141644E+02  0.25259957739E+02  0.00000000000E+00 0.  1.
         -2    1    1    2    0  502  0.86987918172E+01 -0.18527371194E+02 -0.14830553912E+02  0.25276031963E+02  0.00000000000E+00 0. -1.
<mgrwt>
<rscale>  2 0.20467840E+02</rscale>
<asrwt>0</asrwt>
<pdfrwt beam="1">  1        2 0.38852752E-02 0.20467840E+02</pdfrwt>
<pdfrwt beam="2">  1       -2 0.38894924E-02 0.20467840E+02</pdfrwt>
<totfact> 0.34551347E+05</totfact>
</mgrwt>
</event>
<event>
 4    1  0.7653521E+003  0.2360273E+02  0.7546771E-02  0.1681922E+00
          2   -1    0    0  501    0  0.00000000000E+00  0.00000000000E+00  0.12615330965E+01  0.12615330965E+01  0.00000000000E+00 0.  1.
         -2   -1    0    0    0  501 -0.00000000000E+00 -0.00000000000E+00 -0.55481457931E+03  0.55481457931E+03  0.00000000000E+00 0.  1.
          2    1    1    2  502    0  0.17328214426E+02  0.16025662094E+02 -0.15117705322E+03  0.15300846474E+03  0.00000000000E+00 0.  1.
         -2    1    1    2    0  502 -0.17328214426E+02 -0.16025662094E+02 -0.40237599300E+03  0.40306764767E+03  0.00000000000E+00 0.  1.
<mgrwt>
<rscale>  2 0.23602730E+02</rscale>
<asrwt>0</asrwt>
<pdfrwt beam="1">  1        2 0.19408196E-03 0.23602730E+02</pdfrwt>
<pdfrwt beam="2">  1       -2 0.85356114E-01 0.23602730E+02</pdfrwt>
<totfact> 0.10667746E+05</totfact>
</mgrwt>
</event>
<event>
 4    1  0.7653521E+003  0.3234327E+02  0.7546771E-02  0.1573543E+00
          2   -1    0    0  501    0  0.00000000000E+00  0.00000000000E+00  0.15052808751E+03  0.15052808751E+03  0.00000000000E+00 0.  1.
         -2   -1    0    0    0  501 -0.00000000000E+00 -0.00000000000E+00 -0.71951048427E+01  0.71951048427E+01  0.00000000000E+00 0.  1.
          2    1    1    2  502    0  0.27760281225E+02  0.16596765124E+02  0.57094496452E+02  0.65619108127E+02  0.00000000000E+00 0.  1.
         -2    1    1    2    0  502 -0.27760281225E+02 -0.16596765124E+02  0.86238486211E+02  0.92104084221E+02  0.00000000000E+00 0.  1.
<mgrwt>
<rscale>  2 0.32343266E+02</rscale>
<asrwt>0</asrwt>
<pdfrwt beam="1">  1        2 0.23158165E-01 0.32343266E+02</pdfrwt>
<pdfrwt beam="2">  1       -2 0.11069393E-02 0.32343266E+02</pdfrwt>
<totfact> 0.28282244E+05</totfact>
</mgrwt>
</event>
<event>
 4    1  0.7653521E+003  0.2309067E+02  0.7546771E-02  0.1690045E+00
          2   -1    0    0  501    0  0.00000000000E+00  0.00000000000E+00  0.10467895823E+04  0.10467895823E+04  0.00000000000E+00 0.  1.
         -2   -1    0    0    0  501 -0.00000000000E+00 -0.00000000000E+00 -0.13983922210E+01  0.13983922210E+01  0.00000000000E+00 0.  1.
          2    1    1    2  502    0 -0.22111353098E+02  0.66533524308E+01  0.94058044503E+03  0.94086383320E+03  0.00000000000E+00 0.  1.
         -2    1    1    2    0  502  0.22111353098E+02 -0.66533524308E+01  0.10481074504E+03  0.10732414132E+03  0.00000000000E+00 0.  1.
<mgrwt>
<rscale>  2 0.23090670E+02</rscale>
<asrwt>0</asrwt>
<pdfrwt beam="1">  1        2 0.16104393E+00 0.23090670E+02</pdfrwt>
<pdfrwt beam="2">  1       -2 0.21513810E-03 0.23090670E+02</pdfrwt>
<totfact> 0.30719634E+05</totfact>
</mgrwt>
</event>
<event>
 4    1  0.7653521E+003  0.2284004E+02  0.7546771E-02  0.1694116E+00
         -2   -1    0    0    0  501 -0.00000000000E+00  0.00000000000E+00  0.11058888074E+01  0.11058888074E+01  0.00000000000E+00 0.  1.
          2   -1    0    0  501    0  0.00000000000E+00 -0.00000000000E+00 -0.57014165728E+03  0.57014165728E+03  0.00000000000E+00 0.  1.
          2    1    1    2  502    0  0.59880598288E+01 -0.22041106545E+02 -0.40319132891E+03  0.40383773344E+03  0.00000000000E+00 0.  1.
         -2    1    1    2    0  502 -0.59880598288E+01  0.22041106545E+02 -0.16584443956E+03  0.16740981265E+03  0.00000000000E+00 0.  1.
<mgrwt>
<rscale>  2 0.22840036E+02</rscale>
<asrwt>0</asrwt>
<pdfrwt beam="2">  1        2 0.87714020E-01 0.22840036E+02</pdfrwt>
<pdfrwt beam="1">  1       -2 0.17013690E-03 0.22840036E+02</pdfrwt>
<totfact> 0.83063822E+05</totfact>
</mgrwt>
</event>
<event>
 4    1  0.7653521E+003  0.2962579E+02  0.7546771E-02  0.1602262E+00
         -2   -1    0    0    0  501 -0.00000000000E+00  0.00000000000E+00  0.16329288385E+02  0.16329288385E+02  0.00000000000E+00 0. -1.
          2   -1    0    0  501    0  0.00000000000E+00 -0.00000000000E+00 -0.86131885704E+03  0.86131885704E+03  0.00000000000E+00 0.  1.
          2    1    1    2  502    0 -0.12849843042E+02 -0.26693990804E+02 -0.84740623913E+03  0.84792394808E+03  0.00000000000E+00 0.  1.
         -2    1    1    2    0  502  0.12849843042E+02  0.26693990804E+02  0.24166704804E+01  0.29724197339E+02  0.00000000000E+00 0. -1.
<mgrwt>
<rscale>  2 0.29625793E+02</rscale>
<asrwt>0</asrwt>
<pdfrwt beam="2">  1        2 0.13251057E+00 0.29625793E+02</pdfrwt>
<pdfrwt beam="1">  1       -2 0.25121987E-02 0.29625793E+02</pdfrwt>
<totfact> 0.14633870E+04</totfact>
</mgrwt>
</event>
<event>
 4    1  0.7653521E+003  0.2003708E+02  0.7546771E-02  0.1744592E+00
          2   -1    0    0  501    0  0.00000000000E+00  0.00000000000E+00  0.61426479298E+03  0.61426479298E+03  0.00000000000E+00 0. -1.
         -2   -1    0    0    0  501 -0.00000000000E+00 -0.00000000000E+00 -0.98247380575E+00  0.98247380575E+00  0.00000000000E+00 0. -1.
          2    1    1    2  502    0 -0.19639700756E+02  0.39707175480E+01  0.48462181483E+03  0.48503586244E+03  0.00000000000E+00 0. -1.
         -2    1    1    2    0  502  0.19639700756E+02 -0.39707175480E+01  0.12866050435E+03  0.13021140435E+03  0.00000000000E+00 0. -1.
<mgrwt>
<rscale>  2 0.20037077E+02</rscale>
<asrwt>0</asrwt>
<pdfrwt beam="1">  1        2 0.94501969E-01 0.20037077E+02</pdfrwt>
<pdfrwt beam="2">  1       -2 0.15115031E-03 0.20037077E+02</pdfrwt>
<totfact> 0.86210398E+05</totfact>
</mgrwt>
</event>
<event>
 4    1  0.7653521E+003  0.2298888E+02  0.7546771E-02  0.1691690E+00
         -2   -1    0    0    0  501 -0.00000000000E+00  0.00000000000E+00  0.28496633349E+01  0.28496633349E+01  0.00000000000E+00 0.  1.
          2   -1    0    0  501    0  0.00000000000E+00 -0.00000000000E+00 -0.10804613238E+04  0.10804613238E+04  0.00000000000E+00 0. -1.
          2    1    1    2  502    0 -0.22413512101E+02 -0.51110756141E+01 -0.10317880146E+04  0.10320440862E+04  0.00000000000E+00 0. -1.
         -2    1    1    2    0  502  0.22413512101E+02  0.51110756141E+01 -0.45823645782E+02  0.51266900934E+02  0.00000000000E+00 0.  1.
<mgrwt>
<rscale>  2 0.22988880E+02</rscale>
<asrwt>0</asrwt>
<pdfrwt beam="2">  1        2 0.16622466E+00 0.22988880E+02</pdfrwt>
<pdfrwt beam="1">  1       -2 0.43841016E-03 0.22988880E+02</pdfrwt>
<totfact> 0.11415246E+05</totfact>
</mgrwt>
</event>
<event>
 4    1  0.7653521E+003  0.2016278E+02  0.7546771E-02  0.1742110E+00
         -2   -1    0    0    0  501 -0.00000000000E+00  0.00000000000E+00  0.55015395861E+02  0.55015395861E+02  0.00000000000E+00 0. -1.
          2   -1    0    0  501    0  0.00000000000E+00 -0.00000000000E+00 -0.64776476387E+03  0.64776476387E+03  0.00000000000E+00 0.  1.
          2    1    1    2  502    0 -0.15867636053E+01 -0.20100250447E+02 -0.64575473231E+03  0.64606943295E+03  0.00000000000E+00 0.  1.
         -2    1    1    2    0  502  0.15867636053E+01  0.20100250447E+02  0.53005364306E+02  0.56710726780E+02  0.00000000000E+00 0. -1.
<mgrwt>
<rscale>  2 0.20162785E+02</rscale>
<asrwt>0</asrwt>
<pdfrwt beam="2">  1        2 0.99656120E-01 0.20162785E+02</pdfrwt>
<pdfrwt beam="1">  1       -2 0.84639068E-02 0.20162785E+02</pdfrwt>
<totfact> 0.34251868E+03</totfact>
</mgrwt>
</event>
<event>
 4    1  0.7653521E+003  0.3359947E+02  0.7546771E-02  0.1561401E+00
         -2   -1    0    0    0  501 -0.00000000000E+00  0.00000000000E+00  0.25674998162E+01  0.25674998162E+01  0.00000000000E+00 0. -1.
          2   -1    0    0  501    0  0.00000000000E+00 -0.00000000000E+00 -0.12241089697E+04  0.12241089697E+04  0.00000000000E+00 0.  1.
          2    1    1    2  502    0 -0.27907879481E+02 -0.18710286367E+02 -0.11017485015E+04  0.11022607156E+04  0.00000000000E+00 0.  1.
         -2    1    1    2    0  502  0.27907879481E+02  0.18710286367E+02 -0.11979296835E+03  0.12441575390E+03  0.00000000000E+00 0. -1.
<mgrwt>
<rscale>  2 0.33599473E+02</rscale>
<asrwt>0</asrwt>
<pdfrwt beam="2">  1        2 0.18832406E+00 0.33599473E+02</pdfrwt>
<pdfrwt beam="1">  1       -2 0.39500081E-03 0.33599473E+02</pdfrwt>
<totfact> 0.11935073E+05</totfact>
</mgrwt>
</event>
<event>
 4    1  0.7653521E+003  0.2374918E+02  0.7546771E-02  0.1679646E+00
         -2   -1    0    0    0  501 -0.00000000000E+00  0.00000000000E+00  0.13469767832E+01  0.13469767832E+01  0.00000000000E+00 0. -1.
          2   -1    0    0  501    0  0.00000000000E+00 -0.00000000000E+00 -0.47700571667E+03  0.47700571667E+03  0.00000000000E+00 0.  1.
          2    1    1    2  502    0  0.11921189610E+02 -0.20540414546E+02 -0.32142618410E+03  0.32230236613E+03  0.00000000000E+00 0.  1.
         -2    1    1    2    0  502 -0.11921189610E+02  0.20540414546E+02 -0.15423255579E+03  0.15605032732E+03  0.00000000000E+00 0. -1.
<mgrwt>
<rscale>  2 0.23749177E+02</rscale>
<asrwt>0</asrwt>
<pdfrwt beam="2">  1        2 0.73385560E-01 0.23749177E+02</pdfrwt>
<pdfrwt beam="1">  1       -2 0.20722701E-03 0.23749177E+02</pdfrwt>
<totfact> 0.77629498E+05</totfact>
</mgrwt>
</event>
<event>
 4    1  0.7653521E+003  0.2825360E+02  0.7546771E-02  0.1618236E+00
         -2   -1    0    0    0  501 -0.00000000000E+00  0.00000000000E+00  0.38354649649E+02  0.38354649649E+02  0.00000000000E+00 0. -1.
          2   -1    0    0  501    0  0.00000000000E+00 -0.00000000000E+00 -0.50686596725E+02  0.50686596725E+02  0.00000000000E+00 0. -1.
          2    1    1    2  502    0  0.36590727785E+01 -0.28015657892E+02 -0.40345041170E+02  0.49254322122E+02  0.00000000000E+00 0. -1.
         -2    1    1    2    0  502 -0.36590727785E+01  0.28015657892E+02  0.28013094094E+02  0.39786924252E+02  0.00000000000E+00 0. -1.
<mgrwt>
<rscale>  2 0.28253600E+02</rscale>
<asrwt>0</asrwt>
<pdfrwt beam="2">  1        2 0.77979379E-02 0.28253600E+02</pdfrwt>
<pdfrwt beam="1">  1       -2 0.59007154E-02 0.28253600E+02</pdfrwt>
<totfact> 0.89405307E+04</totfact>
</mgrwt>
</event>
<event>
 4    1  0.7653521E+003  0.4226360E+02  0.7546771E-02  0.1492185E+00
         -2   -1    0    0    0  501 -0.00000000000E+00  0.00000000000E+00  0.19991937374E+01  0.19991937374E+01  0.00000000000E+00 0.  1.
          2   -1    0    0  501    0  0.00000000000E+00 -0.00000000000E+00 -0.17155764871E+04  0.17155764871E+04  0.00000000000E+00 0. -1.
          2    1    1    2  502    0 -0.41522365311E+02  0.78806541207E+01 -0.14512805601E+04  0.14518958212E+04  0.00000000000E+00 0. -1.
         -2    1    1    2    0  502  0.41522365311E+02 -0.78806541207E+01 -0.26229673332E+03  0.26567985968E+03  0.00000000000E+00 0.  1.
<mgrwt>
<rscale>  2 0.42263596E+02</rscale>
<asrwt>0</asrwt>
<pdfrwt beam="2">  1        2 0.26393474E+00 0.42263596E+02</pdfrwt>
<pdfrwt beam="1">  1       -2 0.30756839E-03 0.42263596E+02</pdfrwt>
<totfact> 0.99831348E+04</totfact>
</mgrwt>
</event>
<event>
 4    1  0.7653521E+003  0.3029559E+02  0.7546771E-02  0.1594844E+00
          2   -1    0    0  501    0  0.00000000000E+00  0.00000000000E+00  0.89808309590E+02  0.89808309590E+02  0.00000000000E+00 0. -1.
         -2   -1    0    0    0  501 -0.00000000000E+00 -0.00000000000E+00 -0.11834807661E+02  0.11834807661E+02  0.00000000000E+00 0.  1.
          2    1    1    2  502    0  0.24872148131E+02 -0.17297367445E+02  0.57760677077E+02  0.65223603776E+02  0.00000000000E+00 0. -1.
         -2    1    1    2    0  502 -0.24872148131E+02  0.17297367445E+02  0.20212824853E+02  0.36419513475E+02  0.00000000000E+00 0.  1.
<mgrwt>
<rscale>  2 0.30295588E+02</rscale>
<asrwt>0</asrwt>
<pdfrwt beam="1">  1        2 0.13816663E-01 0.30295588E+02</pdfrwt>
<pdfrwt beam="2">  1       -2 0.18207397E-02 0.30295588E+02</pdfrwt>
<totfact> 0.24593926E+05</totfact>
</mgrwt>
</event>
<event>
 4    1  0.7653521E+003  0.3039194E+02  0.7546771E-02  0.1593796E+00
         -2   -1    0    0    0  501 -0.00000000000E+00  0.00000000000E+00  0.14598964036E+02  0.14598964036E+02  0.00000000000E+00 0. -1.
          2   -1    0    0  501    0  0.00000000000E+00 -0.00000000000E+00 -0.14926067332E+03  0.14926067332E+03  0.00000000000E+00 0.  1.
          2    1    1    2  502    0  0.26201731775E+02  0.15399319509E+02 -0.12951735590E+03  0.13303539104E+03  0.00000000000E+00 0.  1.
         -2    1    1    2    0  502 -0.26201731775E+02 -0.15399319509E+02 -0.51443533833E+01  0.30824246318E+02  0.00000000000E+00 0. -1.
<mgrwt>
<rscale>  2 0.30391936E+02</rscale>
<asrwt>0</asrwt>
<pdfrwt beam="2">  1        2 0.22963179E-01 0.30391936E+02</pdfrwt>
<pdfrwt beam="1">  1       -2 0.22459946E-02 0.30391936E+02</pdfrwt>
<totfact> 0.10585345E+05</totfact>
</mgrwt>
</event>
<event>
 4    1  0.7653521E+003  0.2149910E+02  0.7546771E-02  0.1717062E+00
          2   -1    0    0  501    0  0.00000000000E+00  0.00000000000E+00  0.10380411734E+03  0.10380411734E+03  0.00000000000E+00 0.  1.
         -2   -1    0    0    0  501 -0.00000000000E+00 -0.00000000000E+00 -0.88181807142E+01  0.88181807142E+01  0.00000000000E+00 0.  1.
          2    1    1    2  502    0 -0.86771989330E+01 -0.19670222455E+02  0.87113433301E+02  0.89727151377E+02  0.00000000000E+00 0.  1.
         -2    1    1    2    0  502  0.86771989330E+01  0.19670222455E+02  0.78725033247E+01  0.22895146677E+02  0.00000000000E+00 0.  1.
<mgrwt>
<rscale>  2 0.21499103E+02</rscale>
<asrwt>0</asrwt>
<pdfrwt beam="1">  1        2 0.15969863E-01 0.21499103E+02</pdfrwt>
<pdfrwt beam="2">  1       -2 0.13566433E-02 0.21499103E+02</pdfrwt>
<totfact> 0.28549412E+05</totfact>
</mgrwt>
</event>
<event>
 4    1  0.7653521E+003  0.2069994E+02  0.7546771E-02  0.1731757E+00
          2   -1    0    0  501    0  0.00000000000E+00  0.00000000000E+00  0.11808099942E+02  0.11808099942E+02  0.00000000000E+00 0.  1.
         -2   -1    0    0    0  501 -0.00000000000E+00 -0.00000000000E+00 -0.37004076102E+02  0.37004076102E+02  0.00000000000E+00 0. -1.
          2    1    1    2  502    0  0.46458484639E+01  0.20171853145E+02 -0.92019286817E+01  0.22653102629E+02  0.00000000000E+00 0.  1.
         -2    1    1    2    0  502 -0.46458484639E+01 -0.20171853145E+02 -0.15994047477E+02  0.26159073415E+02  0.00000000000E+00 0. -1.
<mgrwt>
<rscale>  2 0.20699941E+02</rscale>
<asrwt>0</asrwt>
<pdfrwt beam="1">  1        2 0.18166308E-02 0.20699941E+02</pdfrwt>
<pdfrwt beam="2">  1       -2 0.56929348E-02 0.20699941E+02</pdfrwt>
<totfact> 0.52800325E+05</totfact>
</mgrwt>
</event>
<event>
 4    1  0.7653521E+003  0.4123972E+02  0.7546771E-02  0.1499282E+00
          2   -1    0    0  501    0  0.00000000000E+00  0.00000000000E+00  0.21223704201E+03  0.21223704201E+03  0.00000000000E+00 0.  1.
         -2   -1    0    0    0  501 -0.00000000000E+00 -0.00000000000E+00 -0.15931288243E+02  0.15931288243E+02  0.00000000000E+00 0.  1.
          2    1    1    2  502    0 -0.41018050832E+02  0.42701655959E+01  0.17858099375E+03  0.18328089408E+03  0.00000000000E+00 0.  1.
         -2    1    1    2    0  502  0.41018050832E+02 -0.42701655959E+01  0.17724760024E+02  0.44887436173E+02  0.00000000000E+00 0.  1.
<mgrwt>
<rscale>  2 0.41239724E+02</rscale>
<asrwt>0</asrwt>
<pdfrwt beam="1">  1        2 0.32651851E-01 0.41239724E+02</pdfrwt>
<pdfrwt beam="2">  1       -2 0.24509676E-02 0.41239724E+02</pdfrwt>
<totfact> 0.69034598E+04</totfact>
</mgrwt>
</event>
<event>
 4    1  0.7653521E+003  0.3247198E+02  0.7546771E-02  0.1572269E+00
         -2   -1    0    0    0  501 -0.00000000000E+00  0.00000000000E+00  0.87355258798E+02  0.87355258798E+02  0.00000000000E+00 0.  1.
          2   -1    0    0  501    0  0.00000000000E+00 -0.00000000000E+00 -0.16565681571E+04  0.16565681571E+04  0.00000000000E+00 0. -1.
          2    1    1    2  502    0 -0.11294924875E+02 -0.30444282311E+02 -0.16533855725E+04  0.16537044116E+04  0.00000000000E+00 0. -1.
         -2    1    1    2    0  502  0.11294924875E+02  0.30444282311E+02  0.84172674193E+02  0.90219004285E+02  0.00000000000E+00 0.  1.
<mgrwt>
<rscale>  2 0.32471983E+02</rscale>
<asrwt>0</asrwt>
<pdfrwt beam="2">  1        2 0.25485666E+00 0.32471983E+02</pdfrwt>
<pdfrwt beam="1">  1       -2 0.13439269E-01 0.32471983E+02</pdfrwt>
<totfact> 0.49910302E+02</totfact>
</mgrwt>
</event>
<event>
 4    1  0.7653521E+003  0.3250543E+02  0.7546771E-02  0.1571939E+00
          2   -1    0    0  501    0  0.00000000000E+00  0.00000000000E+00  0.11249743933E+04  0.11249743933E+04  0.00000000000E+00 0. -1.
         -2   -1    0    0    0  501 -0.00000000000E+00 -0.00000000000E+00 -0.15526362719E+02  0.15526362719E+02  0.00000000000E+00 0.  1.
          2    1    1    2  502    0 -0.19192200279E+02 -0.26234752123E+02  0.11074575023E+04  0.11079344395E+04  0.00000000000E+00 0. -1.
         -2    1    1    2    0  502  0.19192200279E+02  0.26234752123E+02  0.19905282804E+01  0.32566316546E+02  0.00000000000E+00 0.  1.
<mgrwt>
<rscale>  2 0.32505427E+02</rscale>
<asrwt>0</asrwt>
<pdfrwt beam="1">  1        2 0.17307292E+00 0.32505427E+02</pdfrwt>
<pdfrwt beam="2">  1       -2 0.23886721E-02 0.32505427E+02</pdfrwt>
<totfact> 0.11315394E+04</totfact>
</mgrwt>
</event>
<event>
 4    1  0.7653521E+003  0.2357378E+02  0.7546771E-02  0.1682375E+00
         -2   -1    0    0    0  501 -0.00000000000E+00  0.00000000000E+00  0.49461101016E+01  0.49461101016E+01  0.00000000000E+00 0.  1.
          2   -1    0    0  501    0  0.00000000000E+00 -0.00000000000E+00 -0.81452002877E+03  0.81452002877E+03  0.00000000000E+00 0.  1.
          2    1    1    2  502    0  0.22669379674E+02 -0.64670082799E+01 -0.78521240478E+03  0.78556619300E+03  0.00000000000E+00 0.  1.
         -2    1    1    2    0  502 -0.22669379674E+02  0.64670082799E+01 -0.24361513888E+02  0.33899945867E+02  0.00000000000E+00 0.  1.
<mgrwt>
<rscale>  2 0.23573777E+02</rscale>
<asrwt>0</asrwt>
<pdfrwt beam="2">  1        2 0.12531077E+00 0.23573777E+02</pdfrwt>
<pdfrwt beam="1">  1       -2 0.76094001E-03 0.23573777E+02</pdfrwt>
<totfact> 0.77144037E+04</totfact>
</mgrwt>
</event>
<event>
 4    1  0.7653521E+003  0.2201136E+02  0.7546771E-02  0.1708056E+00
          2   -1    0    0  501    0  0.00000000000E+00  0.00000000000E+00  0.31451581408E+02  0.31451581408E+02  0.00000000000E+00 0.  1.
         -2   -1    0    0    0  501 -0.00000000000E+00 -0.00000000000E+00 -0.21025149314E+02  0.21025149314E+02  0.00000000000E+00 0. -1.
          2    1    1    2  502    0  0.21906310594E+02  0.21478611944E+01  0.18779338316E+02  0.28933774367E+02  0.00000000000E+00 0.  1.
         -2    1    1    2    0  502 -0.21906310594E+02 -0.21478611944E+01 -0.83529062215E+01  0.23542956354E+02  0.00000000000E+00 0. -1.
<mgrwt>
<rscale>  2 0.22011355E+02</rscale>
<asrwt>0</asrwt>
<pdfrwt beam="1">  1        2 0.48387048E-02 0.22011355E+02</pdfrwt>
<pdfrwt beam="2">  1       -2 0.32346383E-02 0.22011355E+02</pdfrwt>
<totfact> 0.34877102E+05</totfact>
</mgrwt>
</event>
<event>
 4    1  0.7653521E+003  0.4790711E+02  0.7546771E-02  0.1456968E+00
         -2   -1    0    0    0  501 -0.00000000000E+00  0.00000000000E+00  0.33823585812E+03  0.33823585812E+03  0.00000000000E+00 0. -1.
          2   -1    0    0  501    0  0.00000000000E+00 -0.00000000000E+00 -0.17445585157E+02  0.17445585157E+02  0.00000000000E+00 0.  1.
          2    1    1    2  502    0 -0.13313328643E+01  0.47888604952E+02  0.21377695636E+02  0.52460430823E+02  0.00000000000E+00 0.  1.
         -2    1    1    2    0  502  0.13313328643E+01 -0.47888604952E+02  0.29941257733E+03  0.30322101245E+03  0.00000000000E+00 0. -1.
<mgrwt>
<rscale>  2 0.47907107E+02</rscale>
<asrwt>0</asrwt>
<pdfrwt beam="2">  1        2 0.26839364E-02 0.47907107E+02</pdfrwt>
<pdfrwt beam="1">  1       -2 0.52036281E-01 0.47907107E+02</pdfrwt>
<totfact> 0.10626709E+04</totfact>
</mgrwt>
</event>
<event>
 4    1  0.7653521E+003  0.3082293E+02  0.7546771E-02  0.1589166E+00
          2   -1    0    0  501    0  0.00000000000E+00  0.00000000000E+00  0.13460893716E+04  0.13460893716E+04  0.00000000000E+00 0.  1.
         -2   -1    0    0    0  501 -0.00000000000E+00 -0.00000000000E+00 -0.58747349614E+01  0.58747349614E+01  0.00000000000E+00 0. -1.
          2    1    1    2  502    0  0.15251644181E+02  0.26785081852E+02  0.13041844338E+04  0.13045486156E+04  0.00000000000E+00 0.  1.
         -2    1    1    2    0  502 -0.15251644181E+02 -0.26785081852E+02  0.36030202812E+02  0.47415490873E+02  0.00000000000E+00 0. -1.
<mgrwt>
<rscale>  2 0.30822934E+02</rscale>
<asrwt>0</asrwt>
<pdfrwt beam="1">  1        2 0.20709043E+00 0.30822934E+02</pdfrwt>
<pdfrwt beam="2">  1       -2 0.90380645E-03 0.30822934E+02</pdfrwt>
<totfact> 0.33185821E+04</totfact>
</mgrwt>
</event>
<event>
 4    1  0.7653521E+003  0.9085011E+02  0.7546771E-02  0.1300806E+00
          2   -1    0    0  501    0  0.00000000000E+00  0.00000000000E+00  0.13012340311E+04  0.13012340311E+04  0.00000000000E+00 0. -1.
         -2   -1    0    0    0  501 -0.00000000000E+00 -0.00000000000E+00 -0.69916474911E+02  0.69916474911E+02  0.00000000000E+00 0. -1.
          2    1    1    2  502    0  0.67392690964E+01  0.90599810126E+02  0.12693961372E+04  0.12726430358E+04  0.00000000000E+00 0. -1.
         -2    1    1    2    0  502 -0.67392690964E+01 -0.90599810126E+02 -0.38078581083E+02  0.98507470174E+02  0.00000000000E+00 0. -1.
<mgrwt>
<rscale>  2 0.90850115E+02</rscale>
<asrwt>0</asrwt>
<pdfrwt beam="1">  1        2 0.20018983E+00 0.90850115E+02</pdfrwt>
<pdfrwt beam="2">  1       -2 0.10756382E-01 0.90850115E+02</pdfrwt>
<totfact> 0.10482708E+03</totfact>
</mgrwt>
</event>
<event>
 4    1  0.7653521E+003  0.3574584E+02  0.7546771E-02  0.1542075E+00
         -2   -1    0    0    0  501 -0.00000000000E+00  0.00000000000E+00  0.15159265667E+01  0.15159265667E+01  0.00000000000E+00 0. -1.
          2   -1    0    0  501    0  0.00000000000E+00 -0.00000000000E+00 -0.16943259808E+04  0.16943259808E+04  0.00000000000E+00 0. -1.
          2    1    1    2  502    0 -0.17414253265E+02  0.31217121465E+02 -0.14474845722E+04  0.14479258792E+04  0.00000000000E+00 0. -1.
         -2    1    1    2    0  502  0.17414253265E+02 -0.31217121465E+02 -0.24532548211E+03  0.24791602825E+03  0.00000000000E+00 0. -1.
<mgrwt>
<rscale>  2 0.35745837E+02</rscale>
<asrwt>0</asrwt>
<pdfrwt beam="2">  1        2 0.26066550E+00 0.35745837E+02</pdfrwt>
<pdfrwt beam="1">  1       -2 0.23321950E-03 0.35745837E+02</pdfrwt>
<totfact> 0.14480870E+05</totfact>
</mgrwt>
</event>
<event>
 4    1  0.7653521E+003  0.2082845E+02  0.7546771E-02  0.1729338E+00
          2   -1    0    0  501    0  0.00000000000E+00  0.00000000000E+00  0.10013862078E+03  0.10013862078E+03  0.00000000000E+00 0.  1.
         -2   -1    0    0    0  501 -0.00000000000E+00 -0.00000000000E+00 -0.36818645903E+03  0.36818645903E+03  0.00000000000E+00 0.  1.
          2    1    1    2  502    0  0.19593527359E+02 -0.70652773095E+01  0.98756916075E+02  0.10092944531E+03  0.00000000000E+00 0.  1.
         -2    1    1    2    0  502 -0.19593527359E+02  0.70652773095E+01 -0.36680475433E+03  0.36739563451E+03  0.00000000000E+00 0.  1.
<mgrwt>
<rscale>  2 0.20828453E+02</rscale>
<asrwt>0</asrwt>
<pdfrwt beam="1">  1        2 0.15405942E-01 0.20828453E+02</pdfrwt>
<pdfrwt beam="2">  1       -2 0.56644071E-01 0.20828453E+02</pdfrwt>
<totfact> 0.98536443E+02</totfact>
</mgrwt>
</event>
<event>
 4    1  0.7653521E+003  0.2911414E+02  0.7546771E-02  0.1608092E+00
         -2   -1    0    0    0  501 -0.00000000000E+00  0.00000000000E+00  0.11236278304E+02  0.11236278304E+02  0.00000000000E+00 0.  1.
          2   -1    0    0  501    0  0.00000000000E+00 -0.00000000000E+00 -0.16678357875E+03  0.16678357875E+03  0.00000000000E+00 0. -1.
          2    1    1    2  502    0  0.16784071425E+02 -0.23789243009E+02 -0.14364666285E+03  0.14656738002E+03  0.00000000000E+00 0. -1.
         -2    1    1    2    0  502 -0.16784071425E+02  0.23789243009E+02 -0.11900637590E+02  0.31452477034E+02  0.00000000000E+00 0.  1.
<mgrwt>
<rscale>  2 0.29114140E+02</rscale>
<asrwt>0</asrwt>
<pdfrwt beam="2">  1        2 0.25659008E-01 0.29114140E+02</pdfrwt>
<pdfrwt beam="1">  1       -2 0.17286585E-02 0.29114140E+02</pdfrwt>
<totfact> 0.13411217E+05</totfact>
</mgrwt>
</event>
<event>
 4    1  0.7653521E+003  0.2137868E+02  0.7546771E-02  0.1719224E+00
         -2   -1    0    0    0  501 -0.00000000000E+00  0.00000000000E+00  0.59280316925E+01  0.59280316925E+01  0.00000000000E+00 0. -1.
          2   -1    0    0  501    0  0.00000000000E+00 -0.00000000000E+00 -0.15060532588E+03  0.15060532588E+03  0.00000000000E+00 0. -1.
          2    1    1    2  502    0  0.21351964122E+02 -0.10684571218E+01 -0.12701729588E+03  0.12880388746E+03  0.00000000000E+00 0. -1.
         -2    1    1    2    0  502 -0.21351964122E+02  0.10684571218E+01 -0.17659998310E+02  0.27729470113E+02  0.00000000000E+00 0. -1.
<mgrwt>
<rscale>  2 0.21378680E+02</rscale>
<asrwt>0</asrwt>
<pdfrwt beam="2">  1        2 0.23170049E-01 0.21378680E+02</pdfrwt>
<pdfrwt beam="1">  1       -2 0.91200491E-03 0.21378680E+02</pdfrwt>
<totfact> 0.32841248E+05</totfact>
</mgrwt>
</event>
<event>
 4    1  0.7653521E+003  0.2003159E+02  0.7546771E-02  0.1744701E+00
          2   -1    0    0  501    0  0.00000000000E+00  0.00000000000E+00  0.18928930215E+03  0.18928930215E+03  0.00000000000E+00 0. -1.
         -2   -1    0    0    0  501 -0.00000000000E+00 -0.00000000000E+00 -0.12464537235E+03  0.12464537235E+03  0.00000000000E+00 0. -1.
          2    1    1    2  502    0  0.17995748390E+02  0.87987188152E+01  0.18794880432E+03  0.18901327323E+03  0.00000000000E+00 0. -1.
         -2    1    1    2    0  502 -0.17995748390E+02 -0.87987188152E+01 -0.12330487453E+03  0.12492140127E+03  0.00000000000E+00 0. -1.
<mgrwt>
<rscale>  2 0.20031585E+02</rscale>
<asrwt>0</asrwt>
<pdfrwt beam="1">  1        2 0.29121431E-01 0.20031585E+02</pdfrwt>
<pdfrwt beam="2">  1       -2 0.19176211E-01 0.20031585E+02</pdfrwt>
<totfact> 0.33557762E+03</totfact>
</mgrwt>
</event>
<event>
 4    1  0.7653521E+003  0.3175070E+02  0.7546771E-02  0.1579506E+00
         -2   -1    0    0    0  501 -0.00000000000E+00  0.00000000000E+00  0.14770414644E+02  0.14770414644E+02  0.00000000000E+00 0. -1.
          2   -1    0    0  501    0  0.00000000000E+00 -0.00000000000E+00 -0.60220648468E+03  0.60220648468E+03  0.00000000000E+00 0.  1.
          2    1    1    2  502    0  0.31703769304E+02  0.17256098786E+01 -0.58419949122E+03  0.58506166534E+03  0.00000000000E+00 0.  1.
         -2    1    1    2    0  502 -0.31703769304E+02 -0.17256098786E+01 -0.32365788200E+01  0.31915233980E+02  0.00000000000E+00 0. -1.
<mgrwt>
<rscale>  2 0.31750696E+02</rscale>
<asrwt>0</asrwt>
<pdfrwt beam="2">  1        2 0.92647136E-01 0.31750696E+02</pdfrwt>
<pdfrwt beam="1">  1       -2 0.22723719E-02 0.31750696E+02</pdfrwt>
<totfact> 0.25338883E+04</totfact>
</mgrwt>
</event>
<event>
 4    1  0.7653521E+003  0.5158813E+02  0.7546771E-02  0.1436959E+00
          2   -1    0    0  501    0  0.00000000000E+00  0.00000000000E+00  0.72773194083E+02  0.72773194083E+02  0.00000000000E+00 0.  1.
         -2   -1    0    0    0  501 -0.00000000000E+00 -0.00000000000E+00 -0.12694003059E+03  0.12694003059E+03  0.00000000000E+00 0. -1.
          2    1    1    2  502    0  0.40663179727E+02  0.31746514206E+02  0.57170303703E+02  0.77005058115E+02  0.00000000000E+00 0.  1.
         -2    1    1    2    0  502 -0.40663179727E+02 -0.31746514206E+02 -0.11133714021E+03  0.12270816656E+03  0.00000000000E+00 0. -1.
<mgrwt>
<rscale>  2 0.51588132E+02</rscale>
<asrwt>0</asrwt>
<pdfrwt beam="1">  1        2 0.11195876E-01 0.51588132E+02</pdfrwt>
<pdfrwt beam="2">  1       -2 0.19529235E-01 0.51588132E+02</pdfrwt>
<totfact> 0.10333659E+04</totfact>
</mgrwt>
</event>
<event>
 4    1  0.7653521E+003  0.3532376E+02  0.7546771E-02  0.1545744E+00
         -2   -1    0    0    0  501 -0.00000000000E+00  0.00000000000E+00  0.27275592499E+03  0.27275592499E+03  0.00000000000E+00 0. -1.
          2   -1    0    0  501    0  0.00000000000E+00 -0.00000000000E+00 -0.10927029534E+04  0.10927029534E+04  0.00000000000E+00 0. -1.
          2    1    1    2  502    0 -0.34955540994E+02  0.50870738707E+01 -0.10912723097E+04  0.10918438634E+04  0.00000000000E+00 0. -1.
         -2    1    1    2    0  502  0.34955540994E+02 -0.50870738707E+01  0.27132528127E+03  0.27361501498E+03  0.00000000000E+00 0. -1.
<mgrwt>
<rscale>  2 0.35323762E+02</rscale>
<asrwt>0</asrwt>
<pdfrwt beam="2">  1        2 0.16810815E+00 0.35323762E+02</pdfrwt>
<pdfrwt beam="1">  1       -2 0.41962450E-01 0.35323762E+02</pdfrwt>
<totfact> 0.13981698E+02</totfact>
</mgrwt>
</event>
<event>
 4    1  0.7653521E+003  0.5061883E+02  0.7546771E-02  0.1442032E+00
          2   -1    0    0  501    0  0.00000000000E+00  0.00000000000E+00  0.57330379626E+03  0.57330379626E+03  0.00000000000E+00 0. -1.
         -2   -1    0    0    0  501 -0.00000000000E+00 -0.00000000000E+00 -0.51553614381E+02  0.51553614381E+02  0.00000000000E+00 0. -1.
          2    1    1    2  502    0  0.76504877930E+01 -0.50037349002E+02  0.55945425541E+03  0.56173955722E+03  0.00000000000E+00 0. -1.
         -2    1    1    2    0  502 -0.76504877930E+01  0.50037349002E+02 -0.37704073532E+02  0.63117853413E+02  0.00000000000E+00 0. -1.
<mgrwt>
<rscale>  2 0.50618833E+02</rscale>
<asrwt>0</asrwt>
<pdfrwt beam="1">  1        2 0.88200580E-01 0.50618833E+02</pdfrwt>
<pdfrwt beam="2">  1       -2 0.79313257E-02 0.50618833E+02</pdfrwt>
<totfact> 0.46437167E+03</totfact>
</mgrwt>
</event>
<event>
 4    1  0.7653521E+003  0.2196188E+02  0.7546771E-02  0.1708912E+00
          2   -1    0    0  501    0  0.00000000000E+00  0.00000000000E+00  0.57076868105E+02  0.57076868105E+02  0.00000000000E+00 0.  1.
         -2   -1    0    0    0  501 -0.00000000000E+00 -0.00000000000E+00 -0.13402313902E+03  0.13402313902E+03  0.00000000000E+00 0. -1.
          2    1    1    2  502    0  0.21794373306E+02 -0.27072715702E+01  0.54015516198E+02  0.58309519096E+02  0.00000000000E+00 0.  1.
         -2    1    1    2    0  502 -0.21794373306E+02  0.27072715702E+01 -0.13096178711E+03  0.13279048803E+03  0.00000000000E+00 0. -1.
<mgrwt>
<rscale>  2 0.21961877E+02</rscale>
<asrwt>0</asrwt>
<pdfrwt beam="1">  1        2 0.87810567E-02 0.21961877E+02</pdfrwt>
<pdfrwt beam="2">  1       -2 0.20618944E-01 0.21961877E+02</pdfrwt>
<totfact> 0.11109155E+04</totfact>
</mgrwt>
</event>
<event>
 4    1  0.7653521E+003  0.2115651E+02  0.7546771E-02  0.1723262E+00
          2   -1    0    0  501    0  0.00000000000E+00  0.00000000000E+00  0.11123051676E+04  0.11123051676E+04  0.00000000000E+00 0. -1.
         -2   -1    0    0    0  501 -0.00000000000E+00 -0.00000000000E+00 -0.52670162614E+01  0.52670162614E+01  0.00000000000E+00 0.  1.
          2    1    1    2  502    0  0.20827389247E+02  0.37172226876E+01  0.10905351676E+04  0.10907403677E+04  0.00000000000E+00 0. -1.
         -2    1    1    2    0  502 -0.20827389247E+02 -0.37172226876E+01  0.16502983709E+02  0.26831816164E+02  0.00000000000E+00 0.  1.
<mgrwt>
<rscale>  2 0.21156509E+02</rscale>
<asrwt>0</asrwt>
<pdfrwt beam="1">  1        2 0.17112369E+00 0.21156509E+02</pdfrwt>
<pdfrwt beam="2">  1       -2 0.81031108E-03 0.21156509E+02</pdfrwt>
<totfact> 0.47462015E+04</totfact>
</mgrwt>
</event>
<event>
 4    1  0.7653521E+003  0.3695829E+02  0.7546771E-02  0.1531868E+00
         -2   -1    0    0    0  501 -0.00000000000E+00  0.00000000000E+00  0.11130118690E+01  0.11130118690E+01  0.00000000000E+00 0.  1.
          2   -1    0    0  501    0  0.00000000000E+00 -0.00000000000E+00 -0.17891077872E+04  0.17891077872E+04  0.00000000000E+00 0.  1.
          2    1    1    2  502    0  0.11845268242E+02 -0.35008636008E+02 -0.13956251528E+04  0.13961144230E+04  0.00000000000E+00 0.  1.
         -2    1    1    2    0  502 -0.11845268242E+02  0.35008636008E+02 -0.39236962257E+03  0.39410637611E+03  0.00000000000E+00 0.  1.
<mgrwt>
<rscale>  2 0.36958287E+02</rscale>
<asrwt>0</asrwt>
<pdfrwt beam="2">  1        2 0.27524624E+00 0.36958287E+02</pdfrwt>
<pdfrwt beam="1">  1       -2 0.17123329E-03 0.36958287E+02</pdfrwt>
<totfact> 0.19901569E+05</totfact>
</mgrwt>
</event>
<event>
 4    1  0.7653521E+003  0.2061119E+02  0.7546771E-02  0.1733440E+00
          2   -1    0    0  501    0  0.00000000000E+00  0.00000000000E+00  0.27576318826E+03  0.27576318826E+03  0.00000000000E+00 0.  1.
         -2   -1    0    0    0  501 -0.00000000000E+00 -0.00000000000E+00 -0.14442712215E+02  0.14442712215E+02  0.00000000000E+00 0.  1.
          2    1    1    2  502    0 -0.19989871003E+02 -0.50225541168E+01  0.26780634307E+03  0.26859832162E+03  0.00000000000E+00 0.  1.
         -2    1    1    2    0  502  0.19989871003E+02  0.50225541168E+01 -0.64858670251E+01  0.21607578847E+02  0.00000000000E+00 0.  1.
<mgrwt>
<rscale>  2 0.20611186E+02</rscale>
<asrwt>0</asrwt>
<pdfrwt beam="1">  1        2 0.42425102E-01 0.20611186E+02</pdfrwt>
<pdfrwt beam="2">  1       -2 0.22219559E-02 0.20611186E+02</pdfrwt>
<totfact> 0.52892080E+04</totfact>
</mgrwt>
</event>
<event>
 4    1  0.7653521E+003  0.2051112E+02  0.7546771E-02  0.1735351E+00
         -2   -1    0    0    0  501 -0.00000000000E+00  0.00000000000E+00  0.64653954107E+01  0.64653954107E+01  0.00000000000E+00 0. -1.
          2   -1    0    0  501    0  0.00000000000E+00 -0.00000000000E+00 -0.33736858875E+03  0.33736858875E+03  0.00000000000E+00 0. -1.
          2    1    1    2  502    0  0.18983688383E+02 -0.77669512625E+01 -0.31990192890E+03  0.32055880906E+03  0.00000000000E+00 0. -1.
         -2    1    1    2    0  502 -0.18983688383E+02  0.77669512625E+01 -0.11001264446E+02  0.23275175100E+02  0.00000000000E+00 0. -1.
<mgrwt>
<rscale>  2 0.20511118E+02</rscale>
<asrwt>0</asrwt>
<pdfrwt beam="2">  1        2 0.51902862E-01 0.20511118E+02</pdfrwt>
<pdfrwt beam="1">  1       -2 0.99467618E-03 0.20511118E+02</pdfrwt>
<totfact> 0.12905169E+05</totfact>
</mgrwt>
</event>
<event>
 4    1  0.7653521E+003  0.3571360E+02  0.7546771E-02  0.1542353E+00
         -2   -1    0    0    0  501 -0.00000000000E+00  0.00000000000E+00  0.57288241466E+02  0.57288241466E+02  0.00000000000E+00 0.  1.
          2   -1    0    0  501    0  0.00000000000E+00 -0.00000000000E+00 -0.22344992369E+02  0.22344992369E+02  0.00000000000E+00 0.  1.
          2    1    1    2  502    0 -0.14891530185E+02  0.32460804829E+02  0.15073464740E+02  0.38764298789E+02  0.00000000000E+00 0.  1.
         -2    1    1    2    0  502  0.14891530185E+02 -0.32460804829E+02  0.19869784357E+02  0.40868935046E+02  0.00000000000E+00 0.  1.
<mgrwt>
<rscale>  2 0.35713604E+02</rscale>
<asrwt>0</asrwt>
<pdfrwt beam="2">  1        2 0.34376912E-02 0.35713604E+02</pdfrwt>
<pdfrwt beam="1">  1       -2 0.88135756E-02 0.35713604E+02</pdfrwt>
<totfact> 0.14408095E+05</totfact>
</mgrwt>
</event>
<event>
 4    1  0.7653521E+003  0.2074993E+02  0.7546771E-02  0.1730813E+00
         -2   -1    0    0    0  501 -0.00000000000E+00  0.00000000000E+00  0.12788720319E+04  0.12788720319E+04  0.00000000000E+00 0. -1.
          2   -1    0    0  501    0  0.00000000000E+00 -0.00000000000E+00 -0.31431145656E+03  0.31431145656E+03  0.00000000000E+00 0. -1.
          2    1    1    2  502    0 -0.87240238644E+01 -0.18826869186E+02 -0.31388471187E+03  0.31456982046E+03  0.00000000000E+00 0. -1.
         -2    1    1    2    0  502  0.87240238644E+01  0.18826869186E+02  0.12784452872E+04  0.12786136680E+04  0.00000000000E+00 0. -1.
<mgrwt>
<rscale>  2 0.20749930E+02</rscale>
<asrwt>0</asrwt>
<pdfrwt beam="2">  1        2 0.48355609E-01 0.20749930E+02</pdfrwt>
<pdfrwt beam="1">  1       -2 0.19674954E+00 0.20749930E+02</pdfrwt>
<totfact> 0.18405062E+01</totfact>
</mgrwt>
</event>
<event>
 4    1  0.7653521E+003  0.4611231E+02  0.7546771E-02  0.1467515E+00
         -2   -1    0    0    0  501 -0.00000000000E+00  0.00000000000E+00  0.34981918079E+01  0.34981918079E+01  0.00000000000E+00 0. -1.
          2   -1    0    0  501    0  0.00000000000E+00 -0.00000000000E+00 -0.10563928447E+04  0.10563928447E+04  0.00000000000E+00 0.  1.
          2    1    1    2  502    0 -0.45687751502E+02 -0.62429429526E+01 -0.87176972054E+03  0.87298842525E+03  0.00000000000E+00 0.  1.
         -2    1    1    2    0  502  0.45687751502E+02  0.62429429526E+01 -0.18112493230E+03  0.18690261120E+03  0.00000000000E+00 0. -1.
<mgrwt>
<rscale>  2 0.46112308E+02</rscale>
<asrwt>0</asrwt>
<pdfrwt beam="2">  1        2 0.16252201E+00 0.46112308E+02</pdfrwt>
<pdfrwt beam="1">  1       -2 0.53818324E-03 0.46112308E+02</pdfrwt>
<totfact> 0.10138184E+05</totfact>
</mgrwt>
</event>
<event>
 4    1  0.7653521E+003  0.2109334E+02  0.7546771E-02  0.1724421E+00
         -2   -1    0    0    0  501 -0.00000000000E+00  0.00000000000E+00  0.76584592350E+00  0.76584592350E+00  0.00000000000E+00 0.  1.
          2   -1    0    0  501    0  0.00000000000E+00 -0.00000000000E+00 -0.80865645977E+03  0.80865645977E+03  0.00000000000E+00 0. -1.
          2    1    1    2  502    0  0.14529594551E+02 -0.15291171844E+02 -0.61869734236E+03  0.61905680717E+03  0.00000000000E+00 0. -1.
         -2    1    1    2    0  502 -0.14529594551E+02  0.15291171844E+02 -0.18919327148E+03  0.19036549852E+03  0.00000000000E+00 0.  1.
<mgrwt>
<rscale>  2 0.21093341E+02</rscale>
<asrwt>0</asrwt>
<pdfrwt beam="2">  1        2 0.12440918E+00 0.21093341E+02</pdfrwt>
<pdfrwt beam="1">  1       -2 0.11782198E-03 0.21093341E+02</pdfrwt>
<totfact> 0.90302722E+05</totfact>
</mgrwt>
</event>
<event>
 4    1  0.7653521E+003  0.2107276E+02  0.7546771E-02  0.1724800E+00
          2   -1    0    0  501    0  0.00000000000E+00  0.00000000000E+00  0.32051389585E+03  0.32051389585E+03  0.00000000000E+00 0.  1.
         -2   -1    0    0    0  501 -0.00000000000E+00 -0.00000000000E+00 -0.54619285579E+02  0.54619285579E+02  0.00000000000E+00 0. -1.
          2    1    1    2  502    0  0.13095656328E+02  0.16509541881E+02  0.31811971990E+03  0.31881690259E+03  0.00000000000E+00 0.  1.
         -2    1    1    2    0  502 -0.13095656328E+02 -0.16509541881E+02 -0.52225109623E+02  0.56316278845E+02  0.00000000000E+00 0. -1.
<mgrwt>
<rscale>  2 0.21072759E+02</rscale>
<asrwt>0</asrwt>
<pdfrwt beam="1">  1        2 0.49309829E-01 0.21072759E+02</pdfrwt>
<pdfrwt beam="2">  1       -2 0.84029672E-02 0.21072759E+02</pdfrwt>
<totfact> 0.70351160E+03</totfact>
</mgrwt>
</event>
<event>
 4    1  0.7653521E+003  0.3420278E+02  0.7546771E-02  0.1555796E+00
          2   -1    0    0  501    0  0.00000000000E+00  0.00000000000E+00  0.27474308629E+03  0.27474308629E+03  0.00000000000E+00 0.  1.
         -2   -1    0    0    0  501 -0.00000000000E+00 -0.00000000000E+00 -0.27714363909E+02  0.27714363909E+02  0.00000000000E+00 0.  1.
          2    1    1    2  502    0 -0.11408915034E+02  0.32243868557E+02  0.26264188106E+03  0.26485956295E+03  0.00000000000E+00 0.  1.
         -2    1    1    2    0  502  0.11408915034E+02 -0.32243868557E+02 -0.15613158675E+02  0.37597887249E+02  0.00000000000E+00 0.  1.
<mgrwt>
<rscale>  2 0.34202784E+02</rscale>
<asrwt>0</asrwt>
<pdfrwt beam="1">  1        2 0.42268165E-01 0.34202784E+02</pdfrwt>
<pdfrwt beam="2">  1       -2 0.42637485E-02 0.34202784E+02</pdfrwt>
<totfact> 0.23441241E+04</totfact>
</mgrwt>
</event>
<event>
 4    1  0.7653521E+003  0.2123885E+02  0.7546771E-02  0.1721758E+00
          2   -1    0    0  501    0  0.00000000000E+00  0.00000000000E+00  0.11295788558E+04  0.11295788558E+04  0.00000000000E+00 0. -1.
         -2   -1    0    0    0  501 -0.00000000000E+00 -0.00000000000E+00 -0.74982256105E+00  0.74982256105E+00  0.00000000000E+00 0. -1.
          2    1    1    2  502    0  0.85483408340E+01 -0.19442595440E+02  0.95080574998E+03  0.95104293428E+03  0.00000000000E+00 0. -1.
         -2    1    1    2    0  502 -0.85483408340E+01  0.19442595440E+02  0.17802328325E+03  0.17928574407E+03  0.00000000000E+00 0. -1.
<mgrwt>
<rscale>  2 0.21238848E+02</rscale>
<asrwt>0</asrwt>
<pdfrwt beam="1">  1        2 0.17378000E+00 0.21238848E+02</pdfrwt>
<pdfrwt beam="2">  1       -2 0.11535822E-03 0.21238848E+02</pdfrwt>
<totfact> 0.61909660E+05</totfact>
</mgrwt>
</event>
<event>
 4    1  0.7653521E+003  0.2009779E+02  0.7546771E-02  0.1743390E+00
          2   -1    0    0  501    0  0.00000000000E+00  0.00000000000E+00  0.37434285810E+03  0.37434285810E+03  0.00000000000E+00 0. -1.
         -2   -1    0    0    0  501 -0.00000000000E+00 -0.00000000000E+00 -0.11013464285E+01  0.11013464285E+01  0.00000000000E+00 0. -1.
          2    1    1    2  502    0 -0.18682464649E+02  0.74085440015E+01  0.21335241772E+03  0.21429693221E+03  0.00000000000E+00 0. -1.
         -2    1    1    2    0  502  0.18682464649E+02 -0.74085440015E+01  0.15988909395E+03  0.16114727232E+03  0.00000000000E+00 0. -1.
<mgrwt>
<rscale>  2 0.20097786E+02</rscale>
<asrwt>0</asrwt>
<pdfrwt beam="1">  1        2 0.57591108E-01 0.20097786E+02</pdfrwt>
<pdfrwt beam="2">  1       -2 0.16943821E-03 0.20097786E+02</pdfrwt>
<totfact> 0.12191390E+06</totfact>
</mgrwt>
</event>
<event>
 4    1  0.7653521E+003  0.2792853E+02  0.7546771E-02  0.1622183E+00
          2   -1    0    0  501    0  0.00000000000E+00  0.00000000000E+00  0.41334008804E+02  0.41334008804E+02  0.00000000000E+00 0. -1.
         -2   -1    0    0    0  501 -0.00000000000E+00 -0.00000000000E+00 -0.39654348850E+02  0.39654348850E+02  0.00000000000E+00 0. -1.
          2    1    1    2  502    0 -0.14916438616E+02 -0.23611492197E+02  0.30156039979E+02  0.41102183056E+02  0.00000000000E+00 0. -1.
         -2    1    1    2    0  502  0.14916438616E+02  0.23611492197E+02 -0.28476380025E+02  0.39886174598E+02  0.00000000000E+00 0. -1.
<mgrwt>
<rscale>  2 0.27928529E+02</rscale>
<asrwt>0</asrwt>
<pdfrwt beam="1">  1        2 0.63590783E-02 0.27928529E+02</pdfrwt>
<pdfrwt beam="2">  1       -2 0.61006691E-02 0.27928529E+02</pdfrwt>
<totfact> 0.10855728E+05</totfact>
</mgrwt>
</event>
<event>
 4    1  0.7653521E+003  0.2846762E+02  0.7546771E-02  0.1615672E+00
         -2   -1    0    0    0  501 -0.00000000000E+00  0.00000000000E+00  0.17674396800E+01  0.17674396800E+01  0.00000000000E+00 0.  1.
          2   -1    0    0  501    0  0.00000000000E+00 -0.00000000000E+00 -0.65110766171E+03  0.65110766171E+03  0.00000000000E+00 0. -1.
          2    1    1    2  502    0  0.28190779693E+02 -0.39604786376E+01 -0.50220698564E+03  0.50301318261E+03  0.00000000000E+00 0. -1.
         -2    1    1    2    0  502 -0.28190779693E+02  0.39604786376E+01 -0.14713323639E+03  0.14986191878E+03  0.00000000000E+00 0.  1.
<mgrwt>
<rscale>  2 0.28467621E+02</rscale>
<asrwt>0</asrwt>
<pdfrwt beam="2">  1        2 0.10017042E+00 0.28467621E+02</pdfrwt>
<pdfrwt beam="1">  1       -2 0.27191377E-03 0.28467621E+02</pdfrwt>
<totfact> 0.41183020E+05</totfact>
</mgrwt>
</event>
<event>
 4    1  0.7653521E+003  0.4554612E+02  0.7546771E-02  0.1470961E+00
          2   -1    0    0  501    0  0.00000000000E+00  0.00000000000E+00  0.10492679439E+02  0.10492679439E+02  0.00000000000E+00 0. -1.
         -2   -1    0    0    0  501 -0.00000000000E+00 -0.00000000000E+00 -0.22438866039E+03  0.22438866039E+03  0.00000000000E+00 0.  1.
          2    1    1    2  502    0  0.22925795088E+02  0.39355523965E+02 -0.66448897210E+02  0.80559948407E+02  0.00000000000E+00 0. -1.
         -2    1    1    2    0  502 -0.22925795088E+02 -0.39355523965E+02 -0.14744708374E+03  0.15432139142E+03  0.00000000000E+00 0.  1.
<mgrwt>
<rscale>  2 0.45546123E+02</rscale>
<asrwt>0</asrwt>
<pdfrwt beam="1">  1        2 0.16142584E-02 0.45546123E+02</pdfrwt>
<pdfrwt beam="2">  1       -2 0.34521332E-01 0.45546123E+02</pdfrwt>
<totfact> 0.44327537E+04</totfact>
</mgrwt>
</event>
<event>
 4    1  0.7653521E+003  0.2772866E+02  0.7546771E-02  0.1624644E+00
         -2   -1    0    0    0  501 -0.00000000000E+00  0.00000000000E+00  0.28779433970E+02  0.28779433970E+02  0.00000000000E+00 0. -1.
          2   -1    0    0  501    0  0.00000000000E+00 -0.00000000000E+00 -0.43670294930E+02  0.43670294930E+02  0.00000000000E+00 0. -1.
          2    1    1    2  502    0  0.22362022422E+01  0.27638339790E+02 -0.30016411081E+02  0.40863961641E+02  0.00000000000E+00 0. -1.
         -2    1    1    2    0  502 -0.22362022422E+01 -0.27638339790E+02  0.15125550121E+02  0.31585767258E+02  0.00000000000E+00 0. -1.
<mgrwt>
<rscale>  2 0.27728657E+02</rscale>
<asrwt>0</asrwt>
<pdfrwt beam="2">  1        2 0.67185069E-02 0.27728657E+02</pdfrwt>
<pdfrwt beam="1">  1       -2 0.44276052E-02 0.27728657E+02</pdfrwt>
<totfact> 0.16055623E+05</totfact>
</mgrwt>
</event>
<event>
 4    1  0.7653521E+003  0.2043386E+02  0.7546771E-02  0.1736835E+00
         -2   -1    0    0    0  501 -0.00000000000E+00  0.00000000000E+00  0.13803233856E+03  0.13803233856E+03  0.00000000000E+00 0.  1.
          2   -1    0    0  501    0  0.00000000000E+00 -0.00000000000E+00 -0.54243952638E+03  0.54243952638E+03  0.00000000000E+00 0. -1.
          2    1    1    2  502    0  0.20393336238E+02 -0.12862151291E+01 -0.54148952235E+03  0.54187493513E+03  0.00000000000E+00 0. -1.
         -2    1    1    2    0  502 -0.20393336238E+02  0.12862151291E+01  0.13708233453E+03  0.13859692981E+03  0.00000000000E+00 0.  1.
<mgrwt>
<rscale>  2 0.20433857E+02</rscale>
<asrwt>0</asrwt>
<pdfrwt beam="2">  1        2 0.83452235E-01 0.20433857E+02</pdfrwt>
<pdfrwt beam="1">  1       -2 0.21235744E-01 0.20433857E+02</pdfrwt>
<totfact> 0.10076270E+03</totfact>
</mgrwt>
</event>
<event>
 4    1  0.7653521E+003  0.4210164E+02  0.7546771E-02  0.1493292E+00
          2   -1    0    0  501    0  0.00000000000E+00  0.00000000000E+00  0.69164185068E+03  0.69164185068E+03  0.00000000000E+00 0. -1.
         -2   -1    0    0    0  501 -0.00000000000E+00 -0.00000000000E+00 -0.69635979549E+01  0.69635979549E+01  0.00000000000E+00 0.  1.
          2    1    1    2  502    0 -0.10313900711E+02 -0.40818768015E+02  0.62002272397E+03  0.62145050214E+03  0.00000000000E+00 0. -1.
         -2    1    1    2    0  502  0.10313900711E+02  0.40818768015E+02  0.64655528758E+02  0.77154946498E+02  0.00000000000E+00 0.  1.
<mgrwt>
<rscale>  2 0.42101643E+02</rscale>
<asrwt>0</asrwt>
<pdfrwt beam="1">  1        2 0.10640638E+00 0.42101643E+02</pdfrwt>
<pdfrwt beam="2">  1       -2 0.10713233E-02 0.42101643E+02</pdfrwt>
<totfact> 0.64691028E+04</totfact>
</mgrwt>
</event>
<event>
 4    1  0.7653521E+003  0.2176082E+02  0.7546771E-02  0.1712422E+00
          2   -1    0    0  501    0  0.00000000000E+00  0.00000000000E+00  0.15550676027E+04  0.15550676027E+04  0.00000000000E+00 0.  1.
         -2   -1    0    0    0  501 -0.00000000000E+00 -0.00000000000E+00 -0.93207402788E+01  0.93207402788E+01  0.00000000000E+00 0.  1.
          2    1    1    2  502    0  0.20945577641E+02 -0.59005322373E+01  0.15421843065E+04  0.15423378258E+04  0.00000000000E+00 0.  1.
         -2    1    1    2    0  502 -0.20945577641E+02  0.59005322373E+01  0.35625558599E+01  0.22050517174E+02  0.00000000000E+00 0.  1.
<mgrwt>
<rscale>  2 0.21760825E+02</rscale>
<asrwt>0</asrwt>
<pdfrwt beam="1">  1        2 0.23924096E+00 0.21760825E+02</pdfrwt>
<pdfrwt beam="2">  1       -2 0.14339613E-02 0.21760825E+02</pdfrwt>
<totfact> 0.13450569E+04</totfact>
</mgrwt>
</event>
<event>
 4    1  0.7653521E+003  0.2592733E+02  0.7546771E-02  0.1648029E+00
         -2   -1    0    0    0  501 -0.00000000000E+00  0.00000000000E+00  0.43874402507E+02  0.43874402507E+02  0.00000000000E+00 0.  1.
          2   -1    0    0  501    0  0.00000000000E+00 -0.00000000000E+00 -0.94311518922E+03  0.94311518922E+03  0.00000000000E+00 0.  1.
          2    1    1    2  502    0  0.16590816187E+02 -0.19924137497E+02 -0.93909017964E+03  0.93944802513E+03  0.00000000000E+00 0.  1.
         -2    1    1    2    0  502 -0.16590816187E+02  0.19924137497E+02  0.39849392930E+02  0.47541566588E+02  0.00000000000E+00 0.  1.
<mgrwt>
<rscale>  2 0.25927330E+02</rscale>
<asrwt>0</asrwt>
<pdfrwt beam="2">  1        2 0.14509463E+00 0.25927330E+02</pdfrwt>
<pdfrwt beam="1">  1       -2 0.67499086E-02 0.25927330E+02</pdfrwt>
<totfact> 0.31845381E+03</totfact>
</mgrwt>
</event>
<event>
 4    1  0.7653521E+003  0.2518609E+02  0.7546771E-02  0.1658343E+00
          2   -1    0    0  501    0  0.00000000000E+00  0.00000000000E+00  0.17681415343E+02  0.17681415343E+02  0.00000000000E+00 0.  1.
         -2   -1    0    0    0  501 -0.00000000000E+00 -0.00000000000E+00 -0.36256945436E+02  0.36256945436E+02  0.00000000000E+00 0.  1.
          2    1    1    2  502    0 -0.54854405576E+01 -0.24581474028E+02 -0.65234439767E+01  0.26017191333E+02  0.00000000000E+00 0.  1.
         -2    1    1    2    0  502  0.54854405576E+01  0.24581474028E+02 -0.12052086117E+02  0.27921169447E+02  0.00000000000E+00 0.  1.
<mgrwt>
<rscale>  2 0.25186086E+02</rscale>
<asrwt>0</asrwt>
<pdfrwt beam="1">  1        2 0.27202178E-02 0.25186086E+02</pdfrwt>
<pdfrwt beam="2">  1       -2 0.55779915E-02 0.25186086E+02</pdfrwt>
<totfact> 0.34572377E+05</totfact>
</mgrwt>
</event>
<event>
 4    1  0.7653521E+003  0.2953247E+02  0.7546771E-02  0.1603315E+00
         -2   -1    0    0    0  501 -0.00000000000E+00  0.00000000000E+00  0.13294765092E+02  0.13294765092E+02  0.00000000000E+00 0. -1.
          2   -1    0    0  501    0  0.00000000000E+00 -0.00000000000E+00 -0.85219990994E+02  0.85219990994E+02  0.00000000000E+00 0.  1.
          2    1    1    2  502    0 -0.20772854935E+02  0.20991797211E+02 -0.59595925028E+02  0.66511963828E+02  0.00000000000E+00 0.  1.
         -2    1    1    2    0  502  0.20772854935E+02 -0.20991797211E+02 -0.12329300874E+02  0.32002792258E+02  0.00000000000E+00 0. -1.
<mgrwt>
<rscale>  2 0.29532475E+02</rscale>
<asrwt>0</asrwt>
<pdfrwt beam="2">  1        2 0.13110768E-01 0.29532475E+02</pdfrwt>
<pdfrwt beam="1">  1       -2 0.20453485E-02 0.29532475E+02</pdfrwt>
<totfact> 0.22064182E+05</totfact>
</mgrwt>
</event>
<event>
 4    1  0.7653521E+003  0.2281438E+02  0.7546771E-02  0.1694537E+00
         -2   -1    0    0    0  501 -0.00000000000E+00  0.00000000000E+00  0.77948739664E+00  0.77948739664E+00  0.00000000000E+00 0.  1.
          2   -1    0    0  501    0  0.00000000000E+00 -0.00000000000E+00 -0.73635479121E+03  0.73635479121E+03  0.00000000000E+00 0.  1.
          2    1    1    2  502    0  0.46411926763E+01 -0.22337305969E+02 -0.48029422438E+03  0.48083577017E+03  0.00000000000E+00 0.  1.
         -2    1    1    2    0  502 -0.46411926763E+01  0.22337305969E+02 -0.25528107944E+03  0.25629850843E+03  0.00000000000E+00 0.  1.
<mgrwt>
<rscale>  2 0.22814379E+02</rscale>
<asrwt>0</asrwt>
<pdfrwt beam="2">  1        2 0.11328554E+00 0.22814379E+02</pdfrwt>
<pdfrwt beam="1">  1       -2 0.11992094E-03 0.22814379E+02</pdfrwt>
<totfact> 0.10038100E+06</totfact>
</mgrwt>
</event>
<event>
 4    1  0.7653521E+003  0.2047480E+02  0.7546771E-02  0.1736048E+00
         -2   -1    0    0    0  501 -0.00000000000E+00  0.00000000000E+00  0.29886680531E+01  0.29886680531E+01  0.00000000000E+00 0. -1.
          2   -1    0    0  501    0  0.00000000000E+00 -0.00000000000E+00 -0.16814022294E+03  0.16814022294E+03  0.00000000000E+00 0. -1.
          2    1    1    2  502    0 -0.19965788346E+02  0.45370430071E+01 -0.11741236318E+03  0.11918422920E+03  0.00000000000E+00 0. -1.
         -2    1    1    2    0  502  0.19965788346E+02 -0.45370430071E+01 -0.47739191706E+02  0.51944661788E+02  0.00000000000E+00 0. -1.
<mgrwt>
<rscale>  2 0.20474801E+02</rscale>
<asrwt>0</asrwt>
<pdfrwt beam="2">  1        2 0.25867727E-01 0.20474801E+02</pdfrwt>
<pdfrwt beam="1">  1       -2 0.45979507E-03 0.20474801E+02</pdfrwt>
<totfact> 0.72354299E+05</totfact>
</mgrwt>
</event>
<event>
 4    1  0.7653521E+003  0.2675282E+02  0.7546771E-02  0.1637031E+00
         -2   -1    0    0    0  501 -0.00000000000E+00  0.00000000000E+00  0.33990294253E+01  0.33990294253E+01  0.00000000000E+00 0. -1.
          2   -1    0    0  501    0  0.00000000000E+00 -0.00000000000E+00 -0.48794976105E+03  0.48794976105E+03  0.00000000000E+00 0. -1.
          2    1    1    2  502    0  0.26697053704E+02  0.17264523858E+01 -0.42750667819E+03  0.42834293879E+03  0.00000000000E+00 0. -1.
         -2    1    1    2    0  502 -0.26697053704E+02 -0.17264523858E+01 -0.57044053431E+02  0.63005851682E+02  0.00000000000E+00 0. -1.
<mgrwt>
<rscale>  2 0.26752819E+02</rscale>
<asrwt>0</asrwt>
<pdfrwt beam="2">  1        2 0.75069222E-01 0.26752819E+02</pdfrwt>
<pdfrwt beam="1">  1       -2 0.52292741E-03 0.26752819E+02</pdfrwt>
<totfact> 0.22735057E+05</totfact>
</mgrwt>
</event>
<event>
 4    1  0.7653521E+003  0.2211353E+02  0.7546771E-02  0.1706296E+00
          2   -1    0    0  501    0  0.00000000000E+00  0.00000000000E+00  0.50637651793E+03  0.50637651793E+03  0.00000000000E+00 0.  1.
         -2   -1    0    0    0  501 -0.00000000000E+00 -0.00000000000E+00 -0.13143390322E+01  0.13143390322E+01  0.00000000000E+00 0.  1.
          2    1    1    2  502    0 -0.18455650082E+02 -0.12181844001E+02  0.38326943462E+03  0.38390684789E+03  0.00000000000E+00 0.  1.
         -2    1    1    2    0  502  0.18455650082E+02  0.12181844001E+02  0.12179274428E+03  0.12378400908E+03  0.00000000000E+00 0.  1.
<mgrwt>
<rscale>  2 0.22113533E+02</rscale>
<asrwt>0</asrwt>
<pdfrwt beam="1">  1        2 0.77903924E-01 0.22113533E+02</pdfrwt>
<pdfrwt beam="2">  1       -2 0.20220641E-03 0.22113533E+02</pdfrwt>
<totfact> 0.73858376E+05</totfact>
</mgrwt>
</event>
<event>
 4    1  0.7653521E+003  0.2626949E+02  0.7546771E-02  0.1643410E+00
         -2   -1    0    0    0  501 -0.00000000000E+00  0.00000000000E+00  0.55312224750E+01  0.55312224750E+01  0.00000000000E+00 0. -1.
          2   -1    0    0  501    0  0.00000000000E+00 -0.00000000000E+00 -0.84264306769E+03  0.84264306769E+03  0.00000000000E+00 0. -1.
          2    1    1    2  502    0  0.22845335609E+02  0.12968299853E+02 -0.80999082243E+03  0.81041669441E+03  0.00000000000E+00 0. -1.
         -2    1    1    2    0  502 -0.22845335609E+02 -0.12968299853E+02 -0.27121022785E+02  0.37757595753E+02  0.00000000000E+00 0. -1.
<mgrwt>
<rscale>  2 0.26269491E+02</rscale>
<asrwt>0</asrwt>
<pdfrwt beam="2">  1        2 0.12963733E+00 0.26269491E+02</pdfrwt>
<pdfrwt beam="1">  1       -2 0.85095770E-03 0.26269491E+02</pdfrwt>
<totfact> 0.65148601E+04</totfact>
</mgrwt>
</event>
<event>
 4    1  0.7653521E+003  0.2465802E+02  0.7546771E-02  0.1665963E+00
          2   -1    0    0  501    0  0.00000000000E+00  0.00000000000E+00  0.96892996191E+03  0.96892996191E+03  0.00000000000E+00 0. -1.
         -2   -1    0    0    0  501 -0.00000000000E+00 -0.00000000000E+00 -0.82953363988E+02  0.82953363988E+02  0.00000000000E+00 0.  1.
          2    1    1    2  502    0  0.87602424758E+01  0.23049424114E+02  0.96693689835E+03  0.96725125133E+03  0.00000000000E+00 0. -1.
         -2    1    1    2    0  502 -0.87602424758E+01 -0.23049424114E+02 -0.80960300430E+02  0.84632074570E+02  0.00000000000E+00 0.  1.
<mgrwt>
<rscale>  2 0.24658017E+02</rscale>
<asrwt>0</asrwt>
<pdfrwt beam="1">  1        2 0.14906614E+00 0.24658017E+02</pdfrwt>
<pdfrwt beam="2">  1       -2 0.12762057E-01 0.24658017E+02</pdfrwt>
<totfact> 0.11917143E+03</totfact>
</mgrwt>
</event>
<event>
 4    1  0.7653521E+003  0.2155764E+02  0.7546771E-02  0.1716016E+00
         -2   -1    0    0    0  501 -0.00000000000E+00  0.00000000000E+00  0.33486214829E+01  0.33486214829E+01  0.00000000000E+00 0.  1.
          2   -1    0    0  501    0  0.00000000000E+00 -0.00000000000E+00 -0.13140118752E+04  0.13140118752E+04  0.00000000000E+00 0. -1.
          2    1    1    2  502    0  0.19246026686E+02  0.97119775268E+01 -0.12782572637E+04  0.12784390342E+04  0.00000000000E+00 0. -1.
         -2    1    1    2    0  502 -0.19246026686E+02 -0.97119775268E+01 -0.32405990056E+02  0.38921462487E+02  0.00000000000E+00 0.  1.
<mgrwt>
<rscale>  2 0.21557645E+02</rscale>
<asrwt>0</asrwt>
<pdfrwt beam="2">  1        2 0.20215563E+00 0.21557645E+02</pdfrwt>
<pdfrwt beam="1">  1       -2 0.51517266E-03 0.21557645E+02</pdfrwt>
<totfact> 0.69352468E+04</totfact>
</mgrwt>
</event>
<event>
 4    1  0.7653521E+003  0.3090569E+02  0.7546771E-02  0.1588288E+00
         -2   -1    0    0    0  501 -0.00000000000E+00  0.00000000000E+00  0.21307557336E+01  0.21307557336E+01  0.00000000000E+00 0. -1.
          2   -1    0    0  501    0  0.00000000000E+00 -0.00000000000E+00 -0.17738290760E+04  0.17738290760E+04  0.00000000000E+00 0. -1.
          2    1    1    2  502    0 -0.27971303681E+02  0.13144116941E+02 -0.16534690249E+04  0.16537578353E+04  0.00000000000E+00 0. -1.
         -2    1    1    2    0  502  0.27971303681E+02 -0.13144116941E+02 -0.11822929532E+03  0.12220199635E+03  0.00000000000E+00 0. -1.
<mgrwt>
<rscale>  2 0.30905689E+02</rscale>
<asrwt>0</asrwt>
<pdfrwt beam="2">  1        2 0.27289729E+00 0.30905689E+02</pdfrwt>
<pdfrwt beam="1">  1       -2 0.32780797E-03 0.30905689E+02</pdfrwt>
<totfact> 0.81898229E+04</totfact>
</mgrwt>
</event>
<event>
 4    1  0.7653521E+003  0.2336317E+02  0.7546771E-02  0.1685690E+00
          2   -1    0    0  501    0  0.00000000000E+00  0.00000000000E+00  0.19482134315E+04  0.19482134315E+04  0.00000000000E+00 0. -1.
         -2   -1    0    0    0  501 -0.00000000000E+00 -0.00000000000E+00 -0.50777491687E+00  0.50777491687E+00  0.00000000000E+00 0.  1.
          2    1    1    2  502    0  0.14711286880E+02  0.18149812622E+02  0.16261892562E+04  0.16263570748E+04  0.00000000000E+00 0. -1.
         -2    1    1    2    0  502 -0.14711286880E+02 -0.18149812622E+02  0.32151640037E+03  0.32236413164E+03  0.00000000000E+00 0.  1.
<mgrwt>
<rscale>  2 0.23363169E+02</rscale>
<asrwt>0</asrwt>
<pdfrwt beam="1">  1        2 0.29971916E+00 0.23363169E+02</pdfrwt>
<pdfrwt beam="2">  1       -2 0.78120778E-04 0.23363169E+02</pdfrwt>
<totfact> 0.43279257E+05</totfact>
</mgrwt>
</event>
<event>
 4    1  0.7653521E+003  0.3159647E+02  0.7546771E-02  0.1581084E+00
          2   -1    0    0  501    0  0.00000000000E+00  0.00000000000E+00  0.43430412898E+03  0.43430412898E+03  0.00000000000E+00 0. -1.
         -2   -1    0    0    0  501 -0.00000000000E+00 -0.00000000000E+00 -0.52209804370E+01  0.52209804370E+01  0.00000000000E+00 0. -1.
          2    1    1    2  502    0  0.27676872597E+02  0.15242287971E+02  0.37895539185E+03  0.38027033231E+03  0.00000000000E+00 0. -1.
         -2    1    1    2    0  502 -0.27676872597E+02 -0.15242287971E+02  0.50127756684E+02  0.59254777102E+02  0.00000000000E+00 0. -1.
<mgrwt>
<rscale>  2 0.31596465E+02</rscale>
<asrwt>0</asrwt>
<pdfrwt beam="1">  1        2 0.66815992E-01 0.31596465E+02</pdfrwt>
<pdfrwt beam="2">  1       -2 0.80322810E-03 0.31596465E+02</pdfrwt>
<totfact> 0.14864617E+05</totfact>
</mgrwt>
</event>
<event>
 4    1  0.7653521E+003  0.2862910E+02  0.7546771E-02  0.1613756E+00
         -2   -1    0    0    0  501 -0.00000000000E+00  0.00000000000E+00  0.38550430217E+01  0.38550430217E+01  0.00000000000E+00 0. -1.
          2   -1    0    0  501    0  0.00000000000E+00 -0.00000000000E+00 -0.11648119597E+04  0.11648119597E+04  0.00000000000E+00 0. -1.
          2    1    1    2  502    0 -0.42126682620E+01 -0.28317462272E+02 -0.11087985686E+04  0.11091681077E+04  0.00000000000E+00 0. -1.
         -2    1    1    2    0  502  0.42126682620E+01  0.28317462272E+02 -0.52158348075E+02  0.59498895093E+02  0.00000000000E+00 0. -1.
<mgrwt>
<rscale>  2 0.28629098E+02</rscale>
<asrwt>0</asrwt>
<pdfrwt beam="2">  1        2 0.17920174E+00 0.28629098E+02</pdfrwt>
<pdfrwt beam="1">  1       -2 0.59308388E-03 0.28629098E+02</pdfrwt>
<totfact> 0.71731287E+04</totfact>
</mgrwt>
</event>
<event>
 4    1  0.7653521E+003  0.2062108E+02  0.7546771E-02  0.1733252E+00
          2   -1    0    0  501    0  0.00000000000E+00  0.00000000000E+00  0.17327007800E+02  0.17327007800E+02  0.00000000000E+00 0. -1.
         -2   -1    0    0    0  501 -0.00000000000E+00 -0.00000000000E+00 -0.26959756205E+03  0.26959756205E+03  0.00000000000E+00 0. -1.
          2    1    1    2  502    0  0.10342072721E+02  0.17840139633E+02  0.10641566053E+02  0.23204998995E+02  0.00000000000E+00 0. -1.
         -2    1    1    2    0  502 -0.10342072721E+02 -0.17840139633E+02 -0.26291212030E+03  0.26371957085E+03  0.00000000000E+00 0. -1.
<mgrwt>
<rscale>  2 0.20621083E+02</rscale>
<asrwt>0</asrwt>
<pdfrwt beam="1">  1        2 0.26656935E-02 0.20621083E+02</pdfrwt>
<pdfrwt beam="2">  1       -2 0.41476547E-01 0.20621083E+02</pdfrwt>
<totfact> 0.14209605E+04</totfact>
</mgrwt>
</event>
<event>
 4    1  0.7653521E+003  0.2419723E+02  0.7546771E-02  0.1672807E+00
         -2   -1    0    0    0  501 -0.00000000000E+00  0.00000000000E+00  0.35973032773E+01  0.35973032773E+01  0.00000000000E+00 0. -1.
          2   -1    0    0  501    0  0.00000000000E+00 -0.00000000000E+00 -0.12141199957E+04  0.12141199957E+04  0.00000000000E+00 0. -1.
          2    1    1    2  502    0 -0.23089879749E+02  0.72362582953E+01 -0.11718408859E+04  0.11720906824E+04  0.00000000000E+00 0. -1.
         -2    1    1    2    0  502  0.23089879749E+02 -0.72362582953E+01 -0.38681806494E+02  0.45626616515E+02  0.00000000000E+00 0. -1.
<mgrwt>
<rscale>  2 0.24197231E+02</rscale>
<asrwt>0</asrwt>
<pdfrwt beam="2">  1        2 0.18678787E+00 0.24197231E+02</pdfrwt>
<pdfrwt beam="1">  1       -2 0.55343074E-03 0.24197231E+02</pdfrwt>
<totfact> 0.72105890E+04</totfact>
</mgrwt>
</event>
<event>
 4    1  0.7653521E+003  0.2285796E+02  0.7546771E-02  0.1693823E+00
         -2   -1    0    0    0  501 -0.00000000000E+00  0.00000000000E+00  0.94184392027E+02  0.94184392027E+02  0.00000000000E+00 0.  1.
          2   -1    0    0  501    0  0.00000000000E+00 -0.00000000000E+00 -0.38891916487E+03  0.38891916487E+03  0.00000000000E+00 0.  1.
          2    1    1    2  502    0 -0.22373978978E+02  0.46788397115E+01 -0.38719024828E+03  0.38786437686E+03  0.00000000000E+00 0.  1.
         -2    1    1    2    0  502  0.22373978978E+02 -0.46788397115E+01  0.92455475434E+02  0.95239180036E+02  0.00000000000E+00 0.  1.
<mgrwt>
<rscale>  2 0.22857963E+02</rscale>
<asrwt>0</asrwt>
<pdfrwt beam="2">  1        2 0.59833718E-01 0.22857963E+02</pdfrwt>
<pdfrwt beam="1">  1       -2 0.14489906E-01 0.22857963E+02</pdfrwt>
<totfact> 0.25904037E+03</totfact>
</mgrwt>
</event>
<event>
 4    1  0.7653521E+003  0.2258630E+02  0.7546771E-02  0.1698305E+00
         -2   -1    0    0    0  501 -0.00000000000E+00  0.00000000000E+00  0.10612654686E+02  0.10612654686E+02  0.00000000000E+00 0.  1.
          2   -1    0    0  501    0  0.00000000000E+00 -0.00000000000E+00 -0.30102900220E+03  0.30102900220E+03  0.00000000000E+00 0.  1.
          2    1    1    2  502    0  0.22575354453E+02 -0.70314234900E+00 -0.28804729157E+03  0.28893145072E+03  0.00000000000E+00 0.  1.
         -2    1    1    2    0  502 -0.22575354453E+02  0.70314234900E+00 -0.23690559453E+01  0.22710206162E+02  0.00000000000E+00 0.  1.
<mgrwt>
<rscale>  2 0.22586302E+02</rscale>
<asrwt>0</asrwt>
<pdfrwt beam="2">  1        2 0.46312157E-01 0.22586302E+02</pdfrwt>
<pdfrwt beam="1">  1       -2 0.16327160E-02 0.22586302E+02</pdfrwt>
<totfact> 0.75466041E+04</totfact>
</mgrwt>
</event>
<event>
 4    1  0.7653521E+003  0.2258153E+02  0.7546771E-02  0.1698385E+00
         -2   -1    0    0    0  501 -0.00000000000E+00  0.00000000000E+00  0.14202478368E+03  0.14202478368E+03  0.00000000000E+00 0. -1.
          2   -1    0    0  501    0  0.00000000000E+00 -0.00000000000E+00 -0.37665355054E+01  0.37665355054E+01  0.00000000000E+00 0. -1.
          2    1    1    2  502    0 -0.51583489461E+01  0.21984466433E+02  0.53365428389E+02  0.57946477679E+02  0.00000000000E+00 0. -1.
         -2    1    1    2    0  502  0.51583489461E+01 -0.21984466433E+02  0.84892819786E+02  0.87844841507E+02  0.00000000000E+00 0. -1.
<mgrwt>
<rscale>  2 0.22581526E+02</rscale>
<asrwt>0</asrwt>
<pdfrwt beam="2">  1        2 0.57946711E-03 0.22581526E+02</pdfrwt>
<pdfrwt beam="1">  1       -2 0.21849963E-01 0.22581526E+02</pdfrwt>
<totfact> 0.31392463E+05</totfact>
</mgrwt>
</event>
<event>
 4    1  0.7653521E+003  0.2150752E+02  0.7546771E-02  0.1716911E+00
          2   -1    0    0  501    0  0.00000000000E+00  0.00000000000E+00  0.93004292910E+03  0.93004292910E+03  0.00000000000E+00 0.  1.
         -2   -1    0    0    0  501 -0.00000000000E+00 -0.00000000000E+00 -0.69049865654E+00  0.69049865654E+00  0.00000000000E+00 0. -1.
          2    1    1    2  502    0 -0.20177317084E+02 -0.74464329325E+01  0.71079209217E+03  0.71111741068E+03  0.00000000000E+00 0.  1.
         -2    1    1    2    0  502  0.20177317084E+02  0.74464329325E+01  0.21856033828E+03  0.21961601708E+03  0.00000000000E+00 0. -1.
<mgrwt>
<rscale>  2 0.21507522E+02</rscale>
<asrwt>0</asrwt>
<pdfrwt beam="1">  1        2 0.14308253E+00 0.21507522E+02</pdfrwt>
<pdfrwt beam="2">  1       -2 0.10623131E-03 0.21507522E+02</pdfrwt>
<totfact> 0.88452468E+05</totfact>
</mgrwt>
</event>
<event>
 4    1  0.7653521E+003  0.2439891E+02  0.7546771E-02  0.1669789E+00
          2   -1    0    0  501    0  0.00000000000E+00  0.00000000000E+00  0.32282699595E+01  0.32282699595E+01  0.00000000000E+00 0.  1.
         -2   -1    0    0    0  501 -0.00000000000E+00 -0.00000000000E+00 -0.23172036477E+03  0.23172036477E+03  0.00000000000E+00 0.  1.
          2    1    1    2  502    0  0.45080326973E+01 -0.23978837584E+02 -0.61161890286E+02  0.65848947099E+02  0.00000000000E+00 0.  1.
         -2    1    1    2    0  502 -0.45080326973E+01  0.23978837584E+02 -0.16733020453E+03  0.16909968763E+03  0.00000000000E+00 0.  1.
<mgrwt>
<rscale>  2 0.24398914E+02</rscale>
<asrwt>0</asrwt>
<pdfrwt beam="1">  1        2 0.49665690E-03 0.24398914E+02</pdfrwt>
<pdfrwt beam="2">  1       -2 0.35649288E-01 0.24398914E+02</pdfrwt>
<totfact> 0.17137383E+05</totfact>
</mgrwt>
</event>
<event>
 4    1  0.7653521E+003  0.5566814E+02  0.7546771E-02  0.1416965E+00
         -2   -1    0    0    0  501 -0.00000000000E+00  0.00000000000E+00  0.73954052862E+01  0.73954052862E+01  0.00000000000E+00 0.  1.
          2   -1    0    0  501    0  0.00000000000E+00 -0.00000000000E+00 -0.75424775028E+03  0.75424775028E+03  0.00000000000E+00 0. -1.
          2    1    1    2  502    0 -0.49707561482E+02 -0.25061918907E+02 -0.62730361708E+03  0.62976882223E+03  0.00000000000E+00 0. -1.
         -2    1    1    2    0  502  0.49707561482E+02  0.25061918907E+02 -0.11954872791E+03  0.13187433334E+03  0.00000000000E+00 0.  1.
<mgrwt>
<rscale>  2 0.55668137E+02</rscale>
<asrwt>0</asrwt>
<pdfrwt beam="2">  1        2 0.11603814E+00 0.55668137E+02</pdfrwt>
<pdfrwt beam="1">  1       -2 0.11377545E-02 0.55668137E+02</pdfrwt>
<totfact> 0.56241647E+04</totfact>
</mgrwt>
</event>
<event>
 4    1  0.7653521E+003  0.2530725E+02  0.7546771E-02  0.1656628E+00
         -2   -1    0    0    0  501 -0.00000000000E+00  0.00000000000E+00  0.10228188651E+03  0.10228188651E+03  0.00000000000E+00 0.  1.
          2   -1    0    0  501    0  0.00000000000E+00 -0.00000000000E+00 -0.16636322090E+02  0.16636322090E+02  0.00000000000E+00 0. -1.
          2    1    1    2  502    0  0.22793326608E+02 -0.10996419237E+02 -0.41316026799E+01  0.25642291524E+02  0.00000000000E+00 0. -1.
         -2    1    1    2    0  502 -0.22793326608E+02  0.10996419237E+02  0.89777167096E+02  0.93275917073E+02  0.00000000000E+00 0.  1.
<mgrwt>
<rscale>  2 0.25307251E+02</rscale>
<asrwt>0</asrwt>
<pdfrwt beam="2">  1        2 0.25594342E-02 0.25307251E+02</pdfrwt>
<pdfrwt beam="1">  1       -2 0.15735674E-01 0.25307251E+02</pdfrwt>
<totfact> 0.79705423E+04</totfact>
</mgrwt>
</event>
<event>
 4    1  0.7653521E+003  0.2428749E+02  0.7546771E-02  0.1671452E+00
         -2   -1    0    0    0  501 -0.00000000000E+00  0.00000000000E+00  0.74561413778E+02  0.74561413778E+02  0.00000000000E+00 0.  1.
          2   -1    0    0  501    0  0.00000000000E+00 -0.00000000000E+00 -0.17229086389E+03  0.17229086389E+03  0.00000000000E+00 0. -1.
          2    1    1    2  502    0  0.24254903349E+02 -0.12577847755E+01 -0.16942378374E+03  0.17115577950E+03  0.00000000000E+00 0. -1.
         -2    1    1    2    0  502 -0.24254903349E+02  0.12577847755E+01  0.71694333634E+02  0.75696498163E+02  0.00000000000E+00 0.  1.
<mgrwt>
<rscale>  2 0.24287494E+02</rscale>
<asrwt>0</asrwt>
<pdfrwt beam="2">  1        2 0.26506286E-01 0.24287494E+02</pdfrwt>
<pdfrwt beam="1">  1       -2 0.11470987E-01 0.24287494E+02</pdfrwt>
<totfact> 0.83967320E+03</totfact>
</mgrwt>
</event>
<event>
 4    1  0.7653521E+003  0.3565642E+02  0.7546771E-02  0.1542847E+00
         -2   -1    0    0    0  501 -0.00000000000E+00  0.00000000000E+00  0.28565718990E+02  0.28565718990E+02  0.00000000000E+00 0.  1.
          2   -1    0    0  501    0  0.00000000000E+00 -0.00000000000E+00 -0.39984833093E+03  0.39984833093E+03  0.00000000000E+00 0.  1.
          2    1    1    2  502    0  0.16848935595E+02 -0.31424411247E+02 -0.38757500653E+03  0.38921172379E+03  0.00000000000E+00 0.  1.
         -2    1    1    2    0  502 -0.16848935595E+02  0.31424411247E+02  0.16292394583E+02  0.39202326132E+02  0.00000000000E+00 0.  1.
<mgrwt>
<rscale>  2 0.35656420E+02</rscale>
<asrwt>0</asrwt>
<pdfrwt beam="2">  1        2 0.61515127E-01 0.35656420E+02</pdfrwt>
<pdfrwt beam="1">  1       -2 0.43947261E-02 0.35656420E+02</pdfrwt>
<totfact> 0.15483527E+04</totfact>
</mgrwt>
</event>
<event>
 4    1  0.7653521E+003  0.4186305E+02  0.7546771E-02  0.1494932E+00
         -2   -1    0    0    0  501 -0.00000000000E+00  0.00000000000E+00  0.37684979766E+02  0.37684979766E+02  0.00000000000E+00 0. -1.
          2   -1    0    0  501    0  0.00000000000E+00 -0.00000000000E+00 -0.70511201383E+03  0.70511201383E+03  0.00000000000E+00 0. -1.
          2    1    1    2  502    0 -0.32065744805E+02 -0.26912881243E+02 -0.69265568147E+03  0.69391959782E+03  0.00000000000E+00 0. -1.
         -2    1    1    2    0  502  0.32065744805E+02  0.26912881243E+02  0.25228647413E+02  0.48877395768E+02  0.00000000000E+00 0. -1.
<mgrwt>
<rscale>  2 0.41863053E+02</rscale>
<asrwt>0</asrwt>
<pdfrwt beam="2">  1        2 0.10847878E+00 0.41863053E+02</pdfrwt>
<pdfrwt beam="1">  1       -2 0.57976889E-02 0.41863053E+02</pdfrwt>
<totfact> 0.57969679E+03</totfact>
</mgrwt>
</event>
<event>
 4    1  0.7653521E+003  0.2567211E+02  0.7546771E-02  0.1651532E+00
         -2   -1    0    0    0  501 -0.00000000000E+00  0.00000000000E+00  0.34156640327E+03  0.34156640327E+03  0.00000000000E+00 0. -1.
          2   -1    0    0  501    0  0.00000000000E+00 -0.00000000000E+00 -0.60260244186E+01  0.60260244186E+01  0.00000000000E+00 0.  1.
          2    1    1    2  502    0 -0.25550291436E+02  0.24980177443E+01  0.24474921620E+02  0.35469413209E+02  0.00000000000E+00 0.  1.
         -2    1    1    2    0  502  0.25550291436E+02 -0.24980177443E+01  0.31106545723E+03  0.31212301448E+03  0.00000000000E+00 0. -1.
<mgrwt>
<rscale>  2 0.25672115E+02</rscale>
<asrwt>0</asrwt>
<pdfrwt beam="2">  1        2 0.92708094E-03 0.25672115E+02</pdfrwt>
<pdfrwt beam="1">  1       -2 0.52548662E-01 0.25672115E+02</pdfrwt>
<totfact> 0.37347238E+04</totfact>
</mgrwt>
</event>
<event>
 4    1  0.7653521E+003  0.2700771E+02  0.7546771E-02  0.1633733E+00
          2   -1    0    0  501    0  0.00000000000E+00  0.00000000000E+00  0.64405461901E+03  0.64405461901E+03  0.00000000000E+00 0. -1.
         -2   -1    0    0    0  501 -0.00000000000E+00 -0.00000000000E+00 -0.11325806273E+01  0.11325806273E+01  0.00000000000E+00 0. -1.
          2    1    1    2  502    0  0.27000021321E+02  0.64381546401E+00  0.31945755720E+03  0.32059717170E+03  0.00000000000E+00 0. -1.
         -2    1    1    2    0  502 -0.27000021321E+02 -0.64381546401E+00  0.32346448118E+03  0.32459002794E+03  0.00000000000E+00 0. -1.
<mgrwt>
<rscale>  2 0.27007710E+02</rscale>
<asrwt>0</asrwt>
<pdfrwt beam="1">  1        2 0.99085033E-01 0.27007710E+02</pdfrwt>
<pdfrwt beam="2">  1       -2 0.17424369E-03 0.27007710E+02</pdfrwt>
<totfact> 0.74435974E+05</totfact>
</mgrwt>
</event>
<event>
 4    1  0.7653521E+003  0.3263832E+02  0.7546771E-02  0.1570632E+00
         -2   -1    0    0    0  501 -0.00000000000E+00  0.00000000000E+00  0.24082463220E+03  0.24082463220E+03  0.00000000000E+00 0. -1.
          2   -1    0    0  501    0  0.00000000000E+00 -0.00000000000E+00 -0.73883493528E+01  0.73883493528E+01  0.00000000000E+00 0. -1.
          2    1    1    2  502    0 -0.59283144170E+01 -0.32095401516E+02  0.38098577489E+02  0.50167333166E+02  0.00000000000E+00 0. -1.
         -2    1    1    2    0  502  0.59283144170E+01  0.32095401516E+02  0.19533770535E+03  0.19804564838E+03  0.00000000000E+00 0. -1.
<mgrwt>
<rscale>  2 0.32638317E+02</rscale>
<asrwt>0</asrwt>
<pdfrwt beam="2">  1        2 0.11366693E-02 0.32638317E+02</pdfrwt>
<pdfrwt beam="1">  1       -2 0.37049938E-01 0.32638317E+02</pdfrwt>
<totfact> 0.57909280E+04</totfact>
</mgrwt>
</event>
<event>
 4    1  0.7653521E+003  0.2121902E+02  0.7546771E-02  0.1722119E+00
          2   -1    0    0  501    0  0.00000000000E+00  0.00000000000E+00  0.73417976864E+03  0.73417976864E+03  0.00000000000E+00 0.  1.
         -2   -1    0    0    0  501 -0.00000000000E+00 -0.00000000000E+00 -0.62782951561E+01  0.62782951561E+01  0.00000000000E+00 0. -1.
          2    1    1    2  502    0  0.19912914114E+02  0.73295625641E+01  0.71563321099E+03  0.71594772107E+03  0.00000000000E+00 0.  1.
         -2    1    1    2    0  502 -0.19912914114E+02 -0.73295625641E+01  0.12268262496E+02  0.24510342726E+02  0.00000000000E+00 0. -1.
<mgrwt>
<rscale>  2 0.21219016E+02</rscale>
<asrwt>0</asrwt>
<pdfrwt beam="1">  1        2 0.11295067E+00 0.21219016E+02</pdfrwt>
<pdfrwt beam="2">  1       -2 0.96589214E-03 0.21219016E+02</pdfrwt>
<totfact> 0.61479209E+04</totfact>
</mgrwt>
</event>
<event>
 4    1  0.7653521E+003  0.2141713E+02  0.7546771E-02  0.1718532E+00
         -2   -1    0    0    0  501 -0.00000000000E+00  0.00000000000E+00  0.17769445654E+01  0.17769445654E+01  0.00000000000E+00 0. -1.
          2   -1    0    0  501    0  0.00000000000E+00 -0.00000000000E+00 -0.45420314199E+03  0.45420314199E+03  0.00000000000E+00 0.  1.
          2    1    1    2  502    0  0.20432162951E+02  0.64202836265E+01 -0.37600669465E+03  0.37661615439E+03  0.00000000000E+00 0.  1.
         -2    1    1    2    0  502 -0.20432162951E+02 -0.64202836265E+01 -0.76419502775E+02  0.79363932167E+02  0.00000000000E+00 0. -1.
<mgrwt>
<rscale>  2 0.21417127E+02</rscale>
<asrwt>0</asrwt>
<pdfrwt beam="2">  1        2 0.69877364E-01 0.21417127E+02</pdfrwt>
<pdfrwt beam="1">  1       -2 0.27337625E-03 0.21417127E+02</pdfrwt>
<totfact> 0.54696676E+05</totfact>
</mgrwt>
</event>
<event>
 4    1  0.7653521E+003  0.2407278E+02  0.7546771E-02  0.1674688E+00
         -2   -1    0    0    0  501 -0.00000000000E+00  0.00000000000E+00  0.63355938105E+01  0.63355938105E+01  0.00000000000E+00 0. -1.
          2   -1    0    0  501    0  0.00000000000E+00 -0.00000000000E+00 -0.68209093367E+03  0.68209093367E+03  0.00000000000E+00 0. -1.
          2    1    1    2  502    0 -0.14950660140E+02  0.18867336738E+02 -0.65818135324E+03  0.65862143329E+03  0.00000000000E+00 0. -1.
         -2    1    1    2    0  502  0.14950660140E+02 -0.18867336738E+02 -0.17573986625E+02  0.29805094197E+02  0.00000000000E+00 0. -1.
<mgrwt>
<rscale>  2 0.24072778E+02</rscale>
<asrwt>0</asrwt>
<pdfrwt beam="2">  1        2 0.10493706E+00 0.24072778E+02</pdfrwt>
<pdfrwt beam="1">  1       -2 0.97470682E-03 0.24072778E+02</pdfrwt>
<totfact> 0.67507864E+04</totfact>
</mgrwt>
</event>
<event>
 4    1  0.7653521E+003  0.2097940E+02  0.7546771E-02  0.1726525E+00
          2   -1    0    0  501    0  0.00000000000E+00  0.00000000000E+00  0.32113819095E+03  0.32113819095E+03  0.00000000000E+00 0.  1.
         -2   -1    0    0    0  501 -0.00000000000E+00 -0.00000000000E+00 -0.15435052659E+02  0.15435052659E+02  0.00000000000E+00 0.  1.
          2    1    1    2  502    0  0.19079348263E+02 -0.87243211663E+01  0.31349307077E+03  0.31419427227E+03  0.00000000000E+00 0.  1.
         -2    1    1    2    0  502 -0.19079348263E+02  0.87243211663E+01 -0.77899324787E+01  0.22378971334E+02  0.00000000000E+00 0.  1.
<mgrwt>
<rscale>  2 0.20979402E+02</rscale>
<asrwt>0</asrwt>
<pdfrwt beam="1">  1        2 0.49405871E-01 0.20979402E+02</pdfrwt>
<pdfrwt beam="2">  1       -2 0.23746237E-02 0.20979402E+02</pdfrwt>
<totfact> 0.41744775E+04</totfact>
</mgrwt>
</event>
<event>
 4    1  0.7653521E+003  0.2848429E+02  0.7546771E-02  0.1615474E+00
          2   -1    0    0  501    0  0.00000000000E+00  0.00000000000E+00  0.13525806966E+04  0.13525806966E+04  0.00000000000E+00 0.  1.
         -2   -1    0    0    0  501 -0.00000000000E+00 -0.00000000000E+00 -0.21061012851E+01  0.21061012851E+01  0.00000000000E+00 0. -1.
          2    1    1    2  502    0 -0.28279423830E+02  0.34100904877E+01  0.12480557932E+04  0.12483807982E+04  0.00000000000E+00 0.  1.
         -2    1    1    2    0  502  0.28279423830E+02 -0.34100904877E+01  0.10241880213E+03  0.10630599964E+03  0.00000000000E+00 0. -1.
<mgrwt>
<rscale>  2 0.28484286E+02</rscale>
<asrwt>0</asrwt>
<pdfrwt beam="1">  1        2 0.20808864E+00 0.28484286E+02</pdfrwt>
<pdfrwt beam="2">  1       -2 0.32401666E-03 0.28484286E+02</pdfrwt>
<totfact> 0.13040214E+05</totfact>
</mgrwt>
</event>
<event>
 4    1  0.7653521E+003  0.2515245E+02  0.7546771E-02  0.1658822E+00
         -2   -1    0    0    0  501 -0.00000000000E+00  0.00000000000E+00  0.88219515500E+03  0.88219515500E+03  0.00000000000E+00 0. -1.
          2   -1    0    0  501    0  0.00000000000E+00 -0.00000000000E+00 -0.87000086234E+00  0.87000086234E+00  0.00000000000E+00 0. -1.
          2    1    1    2  502    0 -0.17305749916E+02 -0.18252580427E+02  0.25557809778E+03  0.25681279123E+03  0.00000000000E+00 0. -1.
         -2    1    1    2    0  502  0.17305749916E+02  0.18252580427E+02  0.62574705636E+03  0.62625236463E+03  0.00000000000E+00 0. -1.
<mgrwt>
<rscale>  2 0.25152449E+02</rscale>
<asrwt>0</asrwt>
<pdfrwt beam="2">  1        2 0.13384699E-03 0.25152449E+02</pdfrwt>
<pdfrwt beam="1">  1       -2 0.13572162E+00 0.25152449E+02</pdfrwt>
<totfact> 0.62147973E+04</totfact>
</mgrwt>
</event>
<event>
 4    1  0.7653521E+003  0.2148350E+02  0.7546771E-02  0.1717341E+00
          2   -1    0    0  501    0  0.00000000000E+00  0.00000000000E+00  0.72993046555E+02  0.72993046555E+02  0.00000000000E+00 0.  1.
         -2   -1    0    0    0  501 -0.00000000000E+00 -0.00000000000E+00 -0.10734275397E+03  0.10734275397E+03  0.00000000000E+00 0. -1.
          2    1    1    2  502    0 -0.93200222230E+01  0.19356599707E+02  0.70297049132E+02  0.73506570340E+02  0.00000000000E+00 0.  1.
         -2    1    1    2    0  502  0.93200222230E+01 -0.19356599707E+02 -0.10464675655E+03  0.10682923019E+03  0.00000000000E+00 0. -1.
<mgrwt>
<rscale>  2 0.21483500E+02</rscale>
<asrwt>0</asrwt>
<pdfrwt beam="1">  1        2 0.11229699E-01 0.21483500E+02</pdfrwt>
<pdfrwt beam="2">  1       -2 0.16514270E-01 0.21483500E+02</pdfrwt>
<totfact> 0.11877665E+04</totfact>
</mgrwt>
</event>
<event>
 4    1  0.7653521E+003  0.2331665E+02  0.7546771E-02  0.1686428E+00
         -2   -1    0    0    0  501 -0.00000000000E+00  0.00000000000E+00  0.50053392329E+02  0.50053392329E+02  0.00000000000E+00 0.  1.
          2   -1    0    0  501    0  0.00000000000E+00 -0.00000000000E+00 -0.15805949327E+02  0.15805949327E+02  0.00000000000E+00 0.  1.
          2    1    1    2  502    0  0.21739303883E+02  0.84302228471E+01 -0.12935948958E+01  0.23352502614E+02  0.00000000000E+00 0.  1.
         -2    1    1    2    0  502 -0.21739303883E+02 -0.84302228471E+01  0.35541037897E+02  0.42506839042E+02  0.00000000000E+00 0.  1.
<mgrwt>
<rscale>  2 0.23316646E+02</rscale>
<asrwt>0</asrwt>
<pdfrwt beam="2">  1        2 0.24316845E-02 0.23316646E+02</pdfrwt>
<pdfrwt beam="1">  1       -2 0.77005218E-02 0.23316646E+02</pdfrwt>
<totfact> 0.24447996E+05</totfact>
</mgrwt>
</event>
<event>
 4    1  0.7653521E+003  0.2461574E+02  0.7546771E-02  0.1666583E+00
         -2   -1    0    0    0  501 -0.00000000000E+00  0.00000000000E+00  0.82584195974E+02  0.82584195974E+02  0.00000000000E+00 0. -1.
          2   -1    0    0  501    0  0.00000000000E+00 -0.00000000000E+00 -0.17249414921E+04  0.17249414921E+04  0.00000000000E+00 0. -1.
          2    1    1    2  502    0  0.20784396402E+02  0.13188773654E+02 -0.17230173299E+04  0.17231931563E+04  0.00000000000E+00 0. -1.
         -2    1    1    2    0  502 -0.20784396402E+02 -0.13188773654E+02  0.80660033707E+02  0.84332531813E+02  0.00000000000E+00 0. -1.
<mgrwt>
<rscale>  2 0.24615745E+02</rscale>
<asrwt>0</asrwt>
<pdfrwt beam="2">  1        2 0.26537561E+00 0.24615745E+02</pdfrwt>
<pdfrwt beam="1">  1       -2 0.12705261E-01 0.24615745E+02</pdfrwt>
<totfact> 0.50832265E+02</totfact>
</mgrwt>
</event>
<event>
 4    1  0.7653521E+003  0.2240016E+02  0.7546771E-02  0.1701422E+00
         -2   -1    0    0    0  501 -0.00000000000E+00  0.00000000000E+00  0.50641269273E+00  0.50641269273E+00  0.00000000000E+00 0.  1.
          2   -1    0    0  501    0  0.00000000000E+00 -0.00000000000E+00 -0.15996877889E+04  0.15996877889E+04  0.00000000000E+00 0.  1.
          2    1    1    2  502    0  0.21928648906E+02 -0.45718428066E+01 -0.12932008257E+04  0.12933948133E+04  0.00000000000E+00 0.  1.
         -2    1    1    2    0  502 -0.21928648906E+02  0.45718428066E+01 -0.30598055047E+03  0.30679938829E+03  0.00000000000E+00 0.  1.
<mgrwt>
<rscale>  2 0.22400165E+02</rscale>
<asrwt>0</asrwt>
<pdfrwt beam="2">  1        2 0.24610616E+00 0.22400165E+02</pdfrwt>
<pdfrwt beam="1">  1       -2 0.77909534E-04 0.22400165E+02</pdfrwt>
<totfact> 0.62382401E+05</totfact>
</mgrwt>
</event>
<event>
 4    1  0.7653521E+003  0.4208191E+02  0.7546771E-02  0.1493427E+00
          2   -1    0    0  501    0  0.00000000000E+00  0.00000000000E+00  0.16366273106E+03  0.16366273106E+03  0.00000000000E+00 0. -1.
         -2   -1    0    0    0  501 -0.00000000000E+00 -0.00000000000E+00 -0.40786496190E+02  0.40786496190E+02  0.00000000000E+00 0. -1.
          2    1    1    2  502    0  0.39842867036E+02  0.13543758492E+02  0.14906003462E+03  0.15488634984E+03  0.00000000000E+00 0. -1.
         -2    1    1    2    0  502 -0.39842867036E+02 -0.13543758492E+02 -0.26183799746E+02  0.49562877407E+02  0.00000000000E+00 0. -1.
<mgrwt>
<rscale>  2 0.42081914E+02</rscale>
<asrwt>0</asrwt>
<pdfrwt beam="1">  1        2 0.25178881E-01 0.42081914E+02</pdfrwt>
<pdfrwt beam="2">  1       -2 0.62748457E-02 0.42081914E+02</pdfrwt>
<totfact> 0.23550019E+04</totfact>
</mgrwt>
</event>
<event>
 4    1  0.7653521E+003  0.2685635E+02  0.7546771E-02  0.1635686E+00
         -2   -1    0    0    0  501 -0.00000000000E+00  0.00000000000E+00  0.51647775067E+03  0.51647775067E+03  0.00000000000E+00 0.  1.
          2   -1    0    0  501    0  0.00000000000E+00 -0.00000000000E+00 -0.71966410437E+02  0.71966410437E+02  0.00000000000E+00 0.  1.
          2    1    1    2  502    0  0.23269349775E+02 -0.13408987333E+02 -0.69097743184E+02  0.74133404707E+02  0.00000000000E+00 0.  1.
         -2    1    1    2    0  502 -0.23269349775E+02  0.13408987333E+02  0.51360908342E+03  0.51431075640E+03  0.00000000000E+00 0.  1.
<mgrwt>
<rscale>  2 0.26856351E+02</rscale>
<asrwt>0</asrwt>
<pdfrwt beam="2">  1        2 0.11071756E-01 0.26856351E+02</pdfrwt>
<pdfrwt beam="1">  1       -2 0.79458113E-01 0.26856351E+02</pdfrwt>
<totfact> 0.73279449E+02</totfact>
</mgrwt>
</event>
<event>
 4    1  0.7653521E+003  0.2807218E+02  0.7546771E-02  0.1620431E+00
         -2   -1    0    0    0  501 -0.00000000000E+00  0.00000000000E+00  0.63215055228E+02  0.63215055228E+02  0.00000000000E+00 0. -1.
          2   -1    0    0  501    0  0.00000000000E+00 -0.00000000000E+00 -0.52328401022E+02  0.52328401022E+02  0.00000000000E+00 0. -1.
          2    1    1    2  502    0  0.28072183647E+02 -0.45085588597E-02 -0.44979548449E+02  0.53020819437E+02  0.00000000000E+00 0. -1.
         -2    1    1    2    0  502 -0.28072183647E+02  0.45085588597E-02  0.55866202656E+02  0.62522636814E+02  0.00000000000E+00 0. -1.
<mgrwt>
<rscale>  2 0.28072184E+02</rscale>
<asrwt>0</asrwt>
<pdfrwt beam="2">  1        2 0.80505232E-02 0.28072184E+02</pdfrwt>
<pdfrwt beam="1">  1       -2 0.97253931E-02 0.28072184E+02</pdfrwt>
<totfact> 0.41263354E+04</totfact>
</mgrwt>
</event>
<event>
 4    1  0.7653521E+003  0.2036201E+02  0.7546771E-02  0.1738223E+00
         -2   -1    0    0    0  501 -0.00000000000E+00  0.00000000000E+00  0.95815646633E+02  0.95815646633E+02  0.00000000000E+00 0.  1.
          2   -1    0    0  501    0  0.00000000000E+00 -0.00000000000E+00 -0.10199951271E+02  0.10199951271E+02  0.00000000000E+00 0.  1.
          2    1    1    2  502    0  0.16270279369E+02 -0.12242936605E+02  0.25859747002E+01  0.20525563393E+02  0.00000000000E+00 0.  1.
         -2    1    1    2    0  502 -0.16270279369E+02  0.12242936605E+02  0.83029720662E+02  0.85490034511E+02  0.00000000000E+00 0.  1.
<mgrwt>
<rscale>  2 0.20362011E+02</rscale>
<asrwt>0</asrwt>
<pdfrwt beam="2">  1        2 0.15692233E-02 0.20362011E+02</pdfrwt>
<pdfrwt beam="1">  1       -2 0.14740868E-01 0.20362011E+02</pdfrwt>
<totfact> 0.15559592E+05</totfact>
</mgrwt>
</event>
<event>
 4    1  0.7653521E+003  0.3834017E+02  0.7546771E-02  0.1520794E+00
         -2   -1    0    0    0  501 -0.00000000000E+00  0.00000000000E+00  0.35685718390E+02  0.35685718390E+02  0.00000000000E+00 0. -1.
          2   -1    0    0  501    0  0.00000000000E+00 -0.00000000000E+00 -0.17085335135E+03  0.17085335135E+03  0.00000000000E+00 0. -1.
          2    1    1    2  502    0  0.38159946555E+02 -0.37130691849E+01 -0.15754716961E+03  0.16214524062E+03  0.00000000000E+00 0. -1.
         -2    1    1    2    0  502 -0.38159946555E+02  0.37130691849E+01  0.22379536645E+02  0.44393829124E+02  0.00000000000E+00 0. -1.
<mgrwt>
<rscale>  2 0.38340167E+02</rscale>
<asrwt>0</asrwt>
<pdfrwt beam="2">  1        2 0.26285131E-01 0.38340167E+02</pdfrwt>
<pdfrwt beam="1">  1       -2 0.54901106E-02 0.38340167E+02</pdfrwt>
<totfact> 0.26971625E+04</totfact>
</mgrwt>
</event>
<event>
 4    1  0.7653521E+003  0.2047424E+02  0.7546771E-02  0.1736058E+00
          2   -1    0    0  501    0  0.00000000000E+00  0.00000000000E+00  0.69697238579E+03  0.69697238579E+03  0.00000000000E+00 0. -1.
         -2   -1    0    0    0  501 -0.00000000000E+00 -0.00000000000E+00 -0.24943890564E+02  0.24943890564E+02  0.00000000000E+00 0. -1.
          2    1    1    2  502    0  0.13418718695E+02 -0.15463905176E+02  0.69259409644E+03  0.69289665665E+03  0.00000000000E+00 0. -1.
         -2    1    1    2    0  502 -0.13418718695E+02  0.15463905176E+02 -0.20565601211E+02  0.29019619706E+02  0.00000000000E+00 0. -1.
<mgrwt>
<rscale>  2 0.20474237E+02</rscale>
<asrwt>0</asrwt>
<pdfrwt beam="1">  1        2 0.10722651E+00 0.20474237E+02</pdfrwt>
<pdfrwt beam="2">  1       -2 0.38375222E-02 0.20474237E+02</pdfrwt>
<totfact> 0.98021533E+03</totfact>
</mgrwt>
</event>
<event>
 4    1  0.7653521E+003  0.2001878E+02  0.7546771E-02  0.1744955E+00
         -2   -1    0    0    0  501 -0.00000000000E+00  0.00000000000E+00  0.59311892535E+00  0.59311892535E+00  0.00000000000E+00 0. -1.
          2   -1    0    0  501    0  0.00000000000E+00 -0.00000000000E+00 -0.94572622039E+03  0.94572622039E+03  0.00000000000E+00 0.  1.
          2    1    1    2  502    0 -0.19405863944E+02  0.49156751629E+01 -0.72541121160E+03  0.72568738264E+03  0.00000000000E+00 0.  1.
         -2    1    1    2    0  502  0.19405863944E+02 -0.49156751629E+01 -0.21972188987E+03  0.22063195667E+03  0.00000000000E+00 0. -1.
<mgrwt>
<rscale>  2 0.20018777E+02</rscale>
<asrwt>0</asrwt>
<pdfrwt beam="2">  1        2 0.14549728E+00 0.20018777E+02</pdfrwt>
<pdfrwt beam="1">  1       -2 0.91248476E-04 0.20018777E+02</pdfrwt>
<totfact> 0.10344043E+06</totfact>
</mgrwt>
</event>
<event>
 4    1  0.7653521E+003  0.2470090E+02  0.7546771E-02  0.1665336E+00
          2   -1    0    0  501    0  0.00000000000E+00  0.00000000000E+00  0.16140946750E+04  0.16140946750E+04  0.00000000000E+00 0. -1.
         -2   -1    0    0    0  501 -0.00000000000E+00 -0.00000000000E+00 -0.34071342288E+02  0.34071342288E+02  0.00000000000E+00 0.  1.
          2    1    1    2  502    0  0.10108593095E+01  0.24680205026E+02  0.16095105356E+04  0.16097000648E+04  0.00000000000E+00 0. -1.
         -2    1    1    2    0  502 -0.10108593095E+01 -0.24680205026E+02 -0.29487202971E+02  0.38465952422E+02  0.00000000000E+00 0.  1.
<mgrwt>
<rscale>  2 0.24700898E+02</rscale>
<asrwt>0</asrwt>
<pdfrwt beam="1">  1        2 0.24832220E+00 0.24700898E+02</pdfrwt>
<pdfrwt beam="2">  1       -2 0.52417462E-02 0.24700898E+02</pdfrwt>
<totfact> 0.21080697E+03</totfact>
</mgrwt>
</event>
<event>
 4    1  0.7653521E+003  0.3004175E+02  0.7546771E-02  0.1597628E+00
          2   -1    0    0  501    0  0.00000000000E+00  0.00000000000E+00  0.46661792008E+02  0.46661792008E+02  0.00000000000E+00 0.  1.
         -2   -1    0    0    0  501 -0.00000000000E+00 -0.00000000000E+00 -0.33411651521E+02  0.33411651521E+02  0.00000000000E+00 0. -1.
          2    1    1    2  502    0  0.28022741634E+02  0.10827398660E+02  0.32606301734E+02  0.44335961963E+02  0.00000000000E+00 0.  1.
         -2    1    1    2    0  502 -0.28022741634E+02 -0.10827398660E+02 -0.19356161247E+02  0.35737481565E+02  0.00000000000E+00 0. -1.
<mgrwt>
<rscale>  2 0.30041748E+02</rscale>
<asrwt>0</asrwt>
<pdfrwt beam="1">  1        2 0.71787372E-02 0.30041748E+02</pdfrwt>
<pdfrwt beam="2">  1       -2 0.51402541E-02 0.30041748E+02</pdfrwt>
<totfact> 0.12214797E+05</totfact>
</mgrwt>
</event>
<event>
 4    1  0.7653521E+003  0.3355988E+02  0.7546771E-02  0.1561774E+00
         -2   -1    0    0    0  501 -0.00000000000E+00  0.00000000000E+00  0.43997550895E+02  0.43997550895E+02  0.00000000000E+00 0. -1.
          2   -1    0    0  501    0  0.00000000000E+00 -0.00000000000E+00 -0.23557214765E+03  0.23557214765E+03  0.00000000000E+00 0.  1.
          2    1    1    2  502    0  0.41647655696E+01  0.33300452060E+02 -0.22775895476E+03  0.23021817229E+03  0.00000000000E+00 0.  1.
         -2    1    1    2    0  502 -0.41647655696E+01 -0.33300452060E+02  0.36184358003E+02  0.49351526256E+02  0.00000000000E+00 0. -1.
<mgrwt>
<rscale>  2 0.33559878E+02</rscale>
<asrwt>0</asrwt>
<pdfrwt beam="2">  1        2 0.36241869E-01 0.33559878E+02</pdfrwt>
<pdfrwt beam="1">  1       -2 0.67688539E-02 0.33559878E+02</pdfrwt>
<totfact> 0.13989887E+04</totfact>
</mgrwt>
</event>
<event>
 4    1  0.7653521E+003  0.3765911E+02  0.7546771E-02  0.1526180E+00
         -2   -1    0    0    0  501 -0.00000000000E+00  0.00000000000E+00  0.26558664121E+02  0.26558664121E+02  0.00000000000E+00 0. -1.
          2   -1    0    0  501    0  0.00000000000E+00 -0.00000000000E+00 -0.59435359408E+02  0.59435359408E+02  0.00000000000E+00 0.  1.
          2    1    1    2  502    0 -0.35326679835E+02 -0.13047387910E+02 -0.30140851715E+02  0.48235667110E+02  0.00000000000E+00 0.  1.
         -2    1    1    2    0  502  0.35326679835E+02  0.13047387910E+02 -0.27358435723E+01  0.37758356419E+02  0.00000000000E+00 0. -1.
<mgrwt>
<rscale>  2 0.37659111E+02</rscale>
<asrwt>0</asrwt>
<pdfrwt beam="2">  1        2 0.91439015E-02 0.37659111E+02</pdfrwt>
<pdfrwt beam="1">  1       -2 0.40859483E-02 0.37659111E+02</pdfrwt>
<totfact> 0.13386562E+05</totfact>
</mgrwt>
</event>
<event>
 4    1  0.7653521E+003  0.2103804E+02  0.7546771E-02  0.1725440E+00
         -2   -1    0    0    0  501 -0.00000000000E+00  0.00000000000E+00  0.40472218858E+00  0.40472218858E+00  0.00000000000E+00 0.  1.
          2   -1    0    0  501    0  0.00000000000E+00 -0.00000000000E+00 -0.12507233974E+04  0.12507233974E+04  0.00000000000E+00 0. -1.
          2    1    1    2  502    0  0.26993346952E+01  0.20864145494E+02 -0.84689184820E+03  0.84715311575E+03  0.00000000000E+00 0. -1.
         -2    1    1    2    0  502 -0.26993346952E+01 -0.20864145494E+02 -0.40342682699E+03  0.40397500382E+03  0.00000000000E+00 0.  1.
<mgrwt>
<rscale>  2 0.21038036E+02</rscale>
<asrwt>0</asrwt>
<pdfrwt beam="2">  1        2 0.19241897E+00 0.21038036E+02</pdfrwt>
<pdfrwt beam="1">  1       -2 0.62264958E-04 0.21038036E+02</pdfrwt>
<totfact> 0.12046243E+06</totfact>
</mgrwt>
</event>
<event>
 4    1  0.7653521E+003  0.2365537E+02  0.7546771E-02  0.1681102E+00
          2   -1    0    0  501    0  0.00000000000E+00  0.00000000000E+00  0.29681008525E+03  0.29681008525E+03  0.00000000000E+00 0. -1.
         -2   -1    0    0    0  501 -0.00000000000E+00 -0.00000000000E+00 -0.43593904517E+02  0.43593904517E+02  0.00000000000E+00 0.  1.
          2    1    1    2  502    0  0.11345067662E+02  0.20757307915E+02  0.29308905572E+03  0.29404212449E+03  0.00000000000E+00 0. -1.
         -2    1    1    2    0  502 -0.11345067662E+02 -0.20757307915E+02 -0.39872874988E+02  0.46361865277E+02  0.00000000000E+00 0.  1.
<mgrwt>
<rscale>  2 0.23655367E+02</rscale>
<asrwt>0</asrwt>
<pdfrwt beam="1">  1        2 0.45663089E-01 0.23655367E+02</pdfrwt>
<pdfrwt beam="2">  1       -2 0.67067547E-02 0.23655367E+02</pdfrwt>
<totfact> 0.10706079E+04</totfact>
</mgrwt>
</event>
<event>
 4    1  0.7653521E+003  0.2586093E+02  0.7546771E-02  0.1648935E+00
          2   -1    0    0  501    0  0.00000000000E+00  0.00000000000E+00  0.16490098587E+04  0.16490098587E+04  0.00000000000E+00 0. -1.
         -2   -1    0    0    0  501 -0.00000000000E+00 -0.00000000000E+00 -0.41487236526E+00  0.41487236526E+00  0.00000000000E+00 0. -1.
          2    1    1    2  502    0 -0.25852972772E+02  0.64141582035E+00  0.94779566609E+03  0.94814841258E+03  0.00000000000E+00 0. -1.
         -2    1    1    2    0  502  0.25852972772E+02 -0.64141582035E+00  0.70079932024E+03  0.70127631848E+03  0.00000000000E+00 0. -1.
<mgrwt>
<rscale>  2 0.25860928E+02</rscale>
<asrwt>0</asrwt>
<pdfrwt beam="1">  1        2 0.25368858E+00 0.25860928E+02</pdfrwt>
<pdfrwt beam="2">  1       -2 0.63827838E-04 0.25860928E+02</pdfrwt>
<totfact> 0.79849426E+05</totfact>
</mgrwt>
</event>
<event>
 4    1  0.7653521E+003  0.2638132E+02  0.7546771E-02  0.1641919E+00
          2   -1    0    0  501    0  0.00000000000E+00  0.00000000000E+00  0.79070511191E+03  0.79070511191E+03  0.00000000000E+00 0. -1.
         -2   -1    0    0    0  501 -0.00000000000E+00 -0.00000000000E+00 -0.85937941365E+01  0.85937941365E+01  0.00000000000E+00 0.  1.
          2    1    1    2  502    0  0.21989071108E+02 -0.14575823305E+02  0.76968591185E+03  0.77013789465E+03  0.00000000000E+00 0. -1.
         -2    1    1    2    0  502 -0.21989071108E+02  0.14575823305E+02  0.12425405919E+02  0.29161011393E+02  0.00000000000E+00 0.  1.
<mgrwt>
<rscale>  2 0.26381317E+02</rscale>
<asrwt>0</asrwt>
<pdfrwt beam="1">  1        2 0.12164688E+00 0.26381317E+02</pdfrwt>
<pdfrwt beam="2">  1       -2 0.13221228E-02 0.26381317E+02</pdfrwt>
<totfact> 0.38513881E+04</totfact>
</mgrwt>
</event>
<event>
 4    1  0.7653521E+003  0.2094127E+02  0.7546771E-02  0.1727233E+00
         -2   -1    0    0    0  501 -0.00000000000E+00  0.00000000000E+00  0.30878564021E+01  0.30878564021E+01  0.00000000000E+00 0.  1.
          2   -1    0    0  501    0  0.00000000000E+00 -0.00000000000E+00 -0.76151318485E+03  0.76151318485E+03  0.00000000000E+00 0. -1.
          2    1    1    2  502    0 -0.13855445172E+02 -0.15702334801E+02 -0.72402637032E+03  0.72432915280E+03  0.00000000000E+00 0. -1.
         -2    1    1    2    0  502  0.13855445172E+02  0.15702334801E+02 -0.34398958130E+02  0.40271888453E+02  0.00000000000E+00 0.  1.
<mgrwt>
<rscale>  2 0.20941267E+02</rscale>
<asrwt>0</asrwt>
<pdfrwt beam="2">  1        2 0.11715599E+00 0.20941267E+02</pdfrwt>
<pdfrwt beam="1">  1       -2 0.47505436E-03 0.20941267E+02</pdfrwt>
<totfact> 0.15238126E+05</totfact>
</mgrwt>
</event>
<event>
 4    1  0.7653521E+003  0.2225561E+02  0.7546771E-02  0.1703868E+00
          2   -1    0    0  501    0  0.00000000000E+00  0.00000000000E+00  0.38928439319E+02  0.38928439319E+02  0.00000000000E+00 0. -1.
         -2   -1    0    0    0  501 -0.00000000000E+00 -0.00000000000E+00 -0.70780783004E+02  0.70780783004E+02  0.00000000000E+00 0. -1.
          2    1    1    2  502    0 -0.21825012872E+02  0.43567416588E+01  0.33754012621E+02  0.40430752562E+02  0.00000000000E+00 0. -1.
         -2    1    1    2    0  502  0.21825012872E+02 -0.43567416588E+01 -0.65606356305E+02  0.69278469761E+02  0.00000000000E+00 0. -1.
<mgrwt>
<rscale>  2 0.22255615E+02</rscale>
<asrwt>0</asrwt>
<pdfrwt beam="1">  1        2 0.59889907E-02 0.22255615E+02</pdfrwt>
<pdfrwt beam="2">  1       -2 0.10889351E-01 0.22255615E+02</pdfrwt>
<totfact> 0.47220468E+04</totfact>
</mgrwt>
</event>
<event>
 4    1  0.7653521E+003  0.3569748E+02  0.7546771E-02  0.1542493E+00
          2   -1    0    0  501    0  0.00000000000E+00  0.00000000000E+00  0.25421931428E+03  0.25421931428E+03  0.00000000000E+00 0. -1.
         -2   -1    0    0    0  501 -0.00000000000E+00 -0.00000000000E+00 -0.23950041778E+02  0.23950041778E+02  0.00000000000E+00 0.  1.
          2    1    1    2  502    0 -0.35697461160E+02  0.32131417278E-01  0.23881089941E+03  0.24146419081E+03  0.00000000000E+00 0. -1.
         -2    1    1    2    0  502  0.35697461160E+02 -0.32131417278E-01 -0.85416269089E+01  0.36705165249E+02  0.00000000000E+00 0.  1.
<mgrwt>
<rscale>  2 0.35697476E+02</rscale>
<asrwt>0</asrwt>
<pdfrwt beam="1">  1        2 0.39110662E-01 0.35697476E+02</pdfrwt>
<pdfrwt beam="2">  1       -2 0.36846220E-02 0.35697476E+02</pdfrwt>
<totfact> 0.31435384E+04</totfact>
</mgrwt>
</event>
<event>
 4    1  0.7653521E+003  0.4213821E+02  0.7546771E-02  0.1493041E+00
         -2   -1    0    0    0  501 -0.00000000000E+00  0.00000000000E+00  0.18181966977E+02  0.18181966977E+02  0.00000000000E+00 0. -1.
          2   -1    0    0  501    0  0.00000000000E+00 -0.00000000000E+00 -0.97719259568E+02  0.97719259568E+02  0.00000000000E+00 0. -1.
          2    1    1    2  502    0  0.28312448900E+02  0.31209519347E+02 -0.41210240878E+02  0.58939908499E+02  0.00000000000E+00 0. -1.
         -2    1    1    2    0  502 -0.28312448900E+02 -0.31209519347E+02 -0.38327051713E+02  0.56961318046E+02  0.00000000000E+00 0. -1.
<mgrwt>
<rscale>  2 0.42138211E+02</rscale>
<asrwt>0</asrwt>
<pdfrwt beam="2">  1        2 0.15033732E-01 0.42138211E+02</pdfrwt>
<pdfrwt beam="1">  1       -2 0.27972258E-02 0.42138211E+02</pdfrwt>
<totfact> 0.13239736E+05</totfact>
</mgrwt>
</event>
<event>
 4    1  0.7653521E+003  0.2227857E+02  0.7546771E-02  0.1703478E+00
         -2   -1    0    0    0  501 -0.00000000000E+00  0.00000000000E+00  0.21289327931E+01  0.21289327931E+01  0.00000000000E+00 0. -1.
          2   -1    0    0  501    0  0.00000000000E+00 -0.00000000000E+00 -0.86493124434E+03  0.86493124434E+03  0.00000000000E+00 0.  1.
          2    1    1    2  502    0  0.17093129284E+02  0.14288444875E+02 -0.80192486787E+03  0.80223427279E+03  0.00000000000E+00 0.  1.
         -2    1    1    2    0  502 -0.17093129284E+02 -0.14288444875E+02 -0.60877443676E+02  0.64825904346E+02  0.00000000000E+00 0. -1.
<mgrwt>
<rscale>  2 0.22278571E+02</rscale>
<asrwt>0</asrwt>
<pdfrwt beam="2">  1        2 0.13306615E+00 0.22278571E+02</pdfrwt>
<pdfrwt beam="1">  1       -2 0.32752860E-03 0.22278571E+02</pdfrwt>
<totfact> 0.21976465E+05</totfact>
</mgrwt>
</event>
<event>
 4    1  0.7653521E+003  0.2079837E+02  0.7546771E-02  0.1729902E+00
          2   -1    0    0  501    0  0.00000000000E+00  0.00000000000E+00  0.62264861065E+03  0.62264861065E+03  0.00000000000E+00 0.  1.
         -2   -1    0    0    0  501 -0.00000000000E+00 -0.00000000000E+00 -0.18964827176E+02  0.18964827176E+02  0.00000000000E+00 0. -1.
          2    1    1    2  502    0 -0.17809027647E+02  0.10742939149E+02  0.61671781089E+03  0.61706841637E+03  0.00000000000E+00 0.  1.
         -2    1    1    2    0  502  0.17809027647E+02 -0.10742939149E+02 -0.13034027423E+02  0.24545021453E+02  0.00000000000E+00 0. -1.
<mgrwt>
<rscale>  2 0.20798370E+02</rscale>
<asrwt>0</asrwt>
<pdfrwt beam="1">  1        2 0.95792078E-01 0.20798370E+02</pdfrwt>
<pdfrwt beam="2">  1       -2 0.29176662E-02 0.20798370E+02</pdfrwt>
<totfact> 0.16200145E+04</totfact>
</mgrwt>
</event>
<event>
 4    1  0.7653521E+003  0.2473592E+02  0.7546771E-02  0.1664824E+00
         -2   -1    0    0    0  501 -0.00000000000E+00  0.00000000000E+00  0.18752593796E+02  0.18752593796E+02  0.00000000000E+00 0.  1.
          2   -1    0    0  501    0  0.00000000000E+00 -0.00000000000E+00 -0.64684110934E+02  0.64684110934E+02  0.00000000000E+00 0. -1.
          2    1    1    2  502    0  0.20630553752E+02 -0.13647191247E+02 -0.52334248016E+02  0.57885568948E+02  0.00000000000E+00 0. -1.
         -2    1    1    2    0  502 -0.20630553752E+02  0.13647191247E+02  0.64027308781E+01  0.25551135782E+02  0.00000000000E+00 0.  1.
<mgrwt>
<rscale>  2 0.24735917E+02</rscale>
<asrwt>0</asrwt>
<pdfrwt beam="2">  1        2 0.99514019E-02 0.24735917E+02</pdfrwt>
<pdfrwt beam="1">  1       -2 0.28850144E-02 0.24735917E+02</pdfrwt>
<totfact> 0.17904879E+05</totfact>
</mgrwt>
</event>
<event>
 4    1  0.7653521E+003  0.4938395E+02  0.7546771E-02  0.1448693E+00
          2   -1    0    0  501    0  0.00000000000E+00  0.00000000000E+00  0.99031815655E+03  0.99031815655E+03  0.00000000000E+00 0. -1.
         -2   -1    0    0    0  501 -0.00000000000E+00 -0.00000000000E+00 -0.37780947639E+01  0.37780947639E+01  0.00000000000E+00 0.  1.
          2    1    1    2  502    0 -0.46194778550E+02 -0.17458998704E+02  0.78656444638E+03  0.78811319143E+03  0.00000000000E+00 0. -1.
         -2    1    1    2    0  502  0.46194778550E+02  0.17458998704E+02  0.19997561541E+03  0.20598305988E+03  0.00000000000E+00 0.  1.
<mgrwt>
<rscale>  2 0.49383947E+02</rscale>
<asrwt>0</asrwt>
<pdfrwt beam="1">  1        2 0.15235643E+00 0.49383947E+02</pdfrwt>
<pdfrwt beam="2">  1       -2 0.58124614E-03 0.49383947E+02</pdfrwt>
<totfact> 0.10041314E+05</totfact>
</mgrwt>
</event>
<event>
 4    1  0.7653521E+003  0.2061789E+02  0.7546771E-02  0.1733313E+00
          2   -1    0    0  501    0  0.00000000000E+00  0.00000000000E+00  0.17521680161E+04  0.17521680161E+04  0.00000000000E+00 0. -1.
         -2   -1    0    0    0  501 -0.00000000000E+00 -0.00000000000E+00 -0.32484154980E+00  0.32484154980E+00  0.00000000000E+00 0. -1.
          2    1    1    2  502    0  0.10427667791E+02 -0.17786541419E+02  0.13167848814E+04  0.13169462864E+04  0.00000000000E+00 0. -1.
         -2    1    1    2    0  502 -0.10427667791E+02  0.17786541419E+02  0.43505829321E+03  0.43554657133E+03  0.00000000000E+00 0. -1.
<mgrwt>
<rscale>  2 0.20617888E+02</rscale>
<asrwt>0</asrwt>
<pdfrwt beam="1">  1        2 0.26955674E+00 0.20617888E+02</pdfrwt>
<pdfrwt beam="2">  1       -2 0.49977026E-04 0.20617888E+02</pdfrwt>
<totfact> 0.92686836E+05</totfact>
</mgrwt>
</event>
<event>
 4    1  0.7653521E+003  0.2143721E+02  0.7546771E-02  0.1718171E+00
          2   -1    0    0  501    0  0.00000000000E+00  0.00000000000E+00  0.42839963650E+02  0.42839963650E+02  0.00000000000E+00 0.  1.
         -2   -1    0    0    0  501 -0.00000000000E+00 -0.00000000000E+00 -0.19565644620E+02  0.19565644620E+02  0.00000000000E+00 0. -1.
          2    1    1    2  502    0 -0.20104190047E+02  0.74414763350E+01  0.32608867234E+02  0.39024252072E+02  0.00000000000E+00 0.  1.
         -2    1    1    2    0  502  0.20104190047E+02 -0.74414763350E+01 -0.93345482044E+01  0.23381356198E+02  0.00000000000E+00 0. -1.
<mgrwt>
<rscale>  2 0.21437211E+02</rscale>
<asrwt>0</asrwt>
<pdfrwt beam="1">  1        2 0.65907636E-02 0.21437211E+02</pdfrwt>
<pdfrwt beam="2">  1       -2 0.30100992E-02 0.21437211E+02</pdfrwt>
<totfact> 0.26313249E+05</totfact>
</mgrwt>
</event>
<event>
 4    1  0.7653521E+003  0.2024148E+02  0.7546771E-02  0.1740568E+00
         -2   -1    0    0    0  501 -0.00000000000E+00  0.00000000000E+00  0.34813028151E+03  0.34813028151E+03  0.00000000000E+00 0. -1.
          2   -1    0    0  501    0  0.00000000000E+00 -0.00000000000E+00 -0.24539487101E+03  0.24539487101E+03  0.00000000000E+00 0.  1.
          2    1    1    2  502    0  0.48508758535E+01 -0.19651624322E+02 -0.24468238252E+03  0.24551819821E+03  0.00000000000E+00 0.  1.
         -2    1    1    2    0  502 -0.48508758535E+01  0.19651624322E+02  0.34741779303E+03  0.34800695431E+03  0.00000000000E+00 0. -1.
<mgrwt>
<rscale>  2 0.20241476E+02</rscale>
<asrwt>0</asrwt>
<pdfrwt beam="2">  1        2 0.37753057E-01 0.20241476E+02</pdfrwt>
<pdfrwt beam="1">  1       -2 0.53558505E-01 0.20241476E+02</pdfrwt>
<totfact> 0.43420040E+02</totfact>
</mgrwt>
</event>
<event>
 4    1  0.7653521E+003  0.2723808E+02  0.7546771E-02  0.1630791E+00
          2   -1    0    0  501    0  0.00000000000E+00  0.00000000000E+00  0.56058080041E+01  0.56058080041E+01  0.00000000000E+00 0. -1.
         -2   -1    0    0    0  501 -0.00000000000E+00 -0.00000000000E+00 -0.32193945336E+03  0.32193945336E+03  0.00000000000E+00 0.  1.
          2    1    1    2  502    0  0.21632225486E+02 -0.16551738841E+02 -0.32487315775E+02  0.42395034195E+02  0.00000000000E+00 0. -1.
         -2    1    1    2    0  502 -0.21632225486E+02  0.16551738841E+02 -0.28384632958E+03  0.28515022717E+03  0.00000000000E+00 0.  1.
<mgrwt>
<rscale>  2 0.27238084E+02</rscale>
<asrwt>0</asrwt>
<pdfrwt beam="1">  1        2 0.86243169E-03 0.27238084E+02</pdfrwt>
<pdfrwt beam="2">  1       -2 0.49529164E-01 0.27238084E+02</pdfrwt>
<totfact> 0.46645220E+04</totfact>
</mgrwt>
</event>
<event>
 4    1  0.7653521E+003  0.2358850E+02  0.7546771E-02  0.1682145E+00
          2   -1    0    0  501    0  0.00000000000E+00  0.00000000000E+00  0.69449330190E+02  0.69449330190E+02  0.00000000000E+00 0.  1.
         -2   -1    0    0    0  501 -0.00000000000E+00 -0.00000000000E+00 -0.31287207596E+02  0.31287207596E+02  0.00000000000E+00 0. -1.
          2    1    1    2  502    0 -0.80835944572E+01 -0.22160158552E+02  0.62524267512E+02  0.66825901822E+02  0.00000000000E+00 0.  1.
         -2    1    1    2    0  502  0.80835944572E+01  0.22160158552E+02 -0.24362144918E+02  0.33910635963E+02  0.00000000000E+00 0. -1.
<mgrwt>
<rscale>  2 0.23588496E+02</rscale>
<asrwt>0</asrwt>
<pdfrwt beam="1">  1        2 0.10684512E-01 0.23588496E+02</pdfrwt>
<pdfrwt beam="2">  1       -2 0.48134166E-02 0.23588496E+02</pdfrwt>
<totfact> 0.79462267E+04</totfact>
</mgrwt>
</event>
<event>
 4    1  0.7653521E+003  0.2614863E+02  0.7546771E-02  0.1645031E+00
          2   -1    0    0  501    0  0.00000000000E+00  0.00000000000E+00  0.18627333689E+04  0.18627333689E+04  0.00000000000E+00 0.  1.
         -2   -1    0    0    0  501 -0.00000000000E+00 -0.00000000000E+00 -0.14053251251E+01  0.14053251251E+01  0.00000000000E+00 0. -1.
          2    1    1    2  502    0  0.13966990558E+02  0.22105976326E+02  0.17318109009E+04  0.17320082990E+04  0.00000000000E+00 0.  1.
         -2    1    1    2    0  502 -0.13966990558E+02 -0.22105976326E+02  0.12951714279E+03  0.13213039503E+03  0.00000000000E+00 0. -1.
<mgrwt>
<rscale>  2 0.26148633E+02</rscale>
<asrwt>0</asrwt>
<pdfrwt beam="1">  1        2 0.28657239E+00 0.26148633E+02</pdfrwt>
<pdfrwt beam="2">  1       -2 0.21620536E-03 0.26148633E+02</pdfrwt>
<totfact> 0.12631787E+05</totfact>
</mgrwt>
</event>
<event>
 4    1  0.7653521E+003  0.3827707E+02  0.7546771E-02  0.1521287E+00
         -2   -1    0    0    0  501 -0.00000000000E+00  0.00000000000E+00  0.42392148102E+03  0.42392148102E+03  0.00000000000E+00 0.  1.
          2   -1    0    0  501    0  0.00000000000E+00 -0.00000000000E+00 -0.40713121498E+03  0.40713121498E+03  0.00000000000E+00 0.  1.
          2    1    1    2  502    0 -0.37237098591E+02 -0.88618428461E+01 -0.40536375065E+03  0.40716692414E+03  0.00000000000E+00 0.  1.
         -2    1    1    2    0  502  0.37237098591E+02  0.88618428461E+01  0.42215401670E+03  0.42388577186E+03  0.00000000000E+00 0.  1.
<mgrwt>
<rscale>  2 0.38277066E+02</rscale>
<asrwt>0</asrwt>
<pdfrwt beam="2">  1        2 0.62635571E-01 0.38277066E+02</pdfrwt>
<pdfrwt beam="1">  1       -2 0.65218690E-01 0.38277066E+02</pdfrwt>
<totfact> 0.18020268E+02</totfact>
</mgrwt>
</event>
<event>
 4    1  0.7653521E+003  0.2582322E+02  0.7546771E-02  0.1649452E+00
          2   -1    0    0  501    0  0.00000000000E+00  0.00000000000E+00  0.12179791667E+02  0.12179791667E+02  0.00000000000E+00 0. -1.
         -2   -1    0    0    0  501 -0.00000000000E+00 -0.00000000000E+00 -0.16936852522E+03  0.16936852522E+03  0.00000000000E+00 0.  1.
          2    1    1    2  502    0  0.33796878326E+01  0.25601096902E+02 -0.39195636758E+01  0.26118986041E+02  0.00000000000E+00 0. -1.
         -2    1    1    2    0  502 -0.33796878326E+01 -0.25601096902E+02 -0.15326916988E+03  0.15542933085E+03  0.00000000000E+00 0.  1.
<mgrwt>
<rscale>  2 0.25823215E+02</rscale>
<asrwt>0</asrwt>
<pdfrwt beam="1">  1        2 0.18738140E-02 0.25823215E+02</pdfrwt>
<pdfrwt beam="2">  1       -2 0.26056697E-01 0.25823215E+02</pdfrwt>
<totfact> 0.52753474E+04</totfact>
</mgrwt>
</event>
<event>
 4    1  0.7653521E+003  0.2508936E+02  0.7546771E-02  0.1659722E+00
         -2   -1    0    0    0  501 -0.00000000000E+00  0.00000000000E+00  0.38176455186E+01  0.38176455186E+01  0.00000000000E+00 0. -1.
          2   -1    0    0  501    0  0.00000000000E+00 -0.00000000000E+00 -0.41802344571E+03  0.41802344571E+03  0.00000000000E+00 0.  1.
          2    1    1    2  502    0  0.52683758984E+00 -0.25083824994E+02 -0.37123626268E+03  0.37208310706E+03  0.00000000000E+00 0.  1.
         -2    1    1    2    0  502 -0.52683758984E+00  0.25083824994E+02 -0.42969537515E+02  0.49757984168E+02  0.00000000000E+00 0. -1.
<mgrwt>
<rscale>  2 0.25089357E+02</rscale>
<asrwt>0</asrwt>
<pdfrwt beam="2">  1        2 0.64311286E-01 0.25089357E+02</pdfrwt>
<pdfrwt beam="1">  1       -2 0.58733020E-03 0.25089357E+02</pdfrwt>
<totfact> 0.22349335E+05</totfact>
</mgrwt>
</event>
<event>
 4    1  0.7653521E+003  0.2911946E+02  0.7546771E-02  0.1608031E+00
         -2   -1    0    0    0  501 -0.00000000000E+00  0.00000000000E+00  0.12001022663E+01  0.12001022663E+01  0.00000000000E+00 0.  1.
          2   -1    0    0  501    0  0.00000000000E+00 -0.00000000000E+00 -0.18148116993E+04  0.18148116993E+04  0.00000000000E+00 0.  1.
          2    1    1    2  502    0  0.60885644046E+01  0.28475824639E+02 -0.16163709211E+04  0.16166331983E+04  0.00000000000E+00 0.  1.
         -2    1    1    2    0  502 -0.60885644046E+01 -0.28475824639E+02 -0.19724067594E+03  0.19937860329E+03  0.00000000000E+00 0.  1.
<mgrwt>
<rscale>  2 0.29119464E+02</rscale>
<asrwt>0</asrwt>
<pdfrwt beam="2">  1        2 0.27920060E+00 0.29119464E+02</pdfrwt>
<pdfrwt beam="1">  1       -2 0.18463191E-03 0.29119464E+02</pdfrwt>
<totfact> 0.16749234E+05</totfact>
</mgrwt>
</event>
<event>
 4    1  0.7653521E+003  0.2151647E+02  0.7546771E-02  0.1716751E+00
          2   -1    0    0  501    0  0.00000000000E+00  0.00000000000E+00  0.37541387235E+00  0.37541387235E+00  0.00000000000E+00 0.  1.
         -2   -1    0    0    0  501 -0.00000000000E+00 -0.00000000000E+00 -0.13876602364E+04  0.13876602364E+04  0.00000000000E+00 0.  1.
          2    1    1    2  502    0  0.32208590761E+01 -0.21274038870E+02 -0.46209290564E+03  0.46259357119E+03  0.00000000000E+00 0.  1.
         -2    1    1    2    0  502 -0.32208590761E+01  0.21274038870E+02 -0.92519191691E+03  0.92544207911E+03  0.00000000000E+00 0.  1.
<mgrwt>
<rscale>  2 0.21516474E+02</rscale>
<asrwt>0</asrwt>
<pdfrwt beam="1">  1        2 0.57756618E-04 0.21516474E+02</pdfrwt>
<pdfrwt beam="2">  1       -2 0.21348383E+00 0.21516474E+02</pdfrwt>
<totfact> 0.56074886E+04</totfact>
</mgrwt>
</event>
<event>
 4    1  0.7653521E+003  0.2143751E+02  0.7546771E-02  0.1718166E+00
          2   -1    0    0  501    0  0.00000000000E+00  0.00000000000E+00  0.65042970922E+02  0.65042970922E+02  0.00000000000E+00 0. -1.
         -2   -1    0    0    0  501 -0.00000000000E+00 -0.00000000000E+00 -0.31233033705E+02  0.31233033705E+02  0.00000000000E+00 0.  1.
          2    1    1    2  502    0  0.21155935300E+02 -0.34631069300E+01  0.59249406471E+02  0.63008403211E+02  0.00000000000E+00 0. -1.
         -2    1    1    2    0  502 -0.21155935300E+02  0.34631069300E+01 -0.25439469255E+02  0.33267601416E+02  0.00000000000E+00 0.  1.
<mgrwt>
<rscale>  2 0.21437507E+02</rscale>
<asrwt>0</asrwt>
<pdfrwt beam="1">  1        2 0.10006611E-01 0.21437507E+02</pdfrwt>
<pdfrwt beam="2">  1       -2 0.48050821E-02 0.21437507E+02</pdfrwt>
<totfact> 0.83897422E+04</totfact>
</mgrwt>
</event>
<event>
 4    1  0.7653521E+003  0.2319348E+02  0.7546771E-02  0.1688393E+00
          2   -1    0    0  501    0  0.00000000000E+00  0.00000000000E+00  0.15652040784E+04  0.15652040784E+04  0.00000000000E+00 0. -1.
         -2   -1    0    0    0  501 -0.00000000000E+00 -0.00000000000E+00 -0.29986101674E+02  0.29986101674E+02  0.00000000000E+00 0.  1.
          2    1    1    2  502    0 -0.18190170055E+02  0.14389415156E+02  0.15606200937E+04  0.15607924315E+04  0.00000000000E+00 0. -1.
         -2    1    1    2    0  502  0.18190170055E+02 -0.14389415156E+02 -0.25402116981E+02  0.34397748506E+02  0.00000000000E+00 0.  1.
<mgrwt>
<rscale>  2 0.23193481E+02</rscale>
<asrwt>0</asrwt>
<pdfrwt beam="1">  1        2 0.24080056E+00 0.23193481E+02</pdfrwt>
<pdfrwt beam="2">  1       -2 0.46132476E-02 0.23193481E+02</pdfrwt>
<totfact> 0.26577554E+03</totfact>
</mgrwt>
</event>
<event>
 4    1  0.7653521E+003  0.2518789E+02  0.7546771E-02  0.1658318E+00
          2   -1    0    0  501    0  0.00000000000E+00  0.00000000000E+00  0.32808101127E+03  0.32808101127E+03  0.00000000000E+00 0.  1.
         -2   -1    0    0    0  501 -0.00000000000E+00 -0.00000000000E+00 -0.19795367586E+01  0.19795367586E+01  0.00000000000E+00 0. -1.
          2    1    1    2  502    0  0.21061193929E+02  0.13815057129E+02  0.18814693166E+03  0.18982543977E+03  0.00000000000E+00 0.  1.
         -2    1    1    2    0  502 -0.21061193929E+02 -0.13815057129E+02  0.13795454285E+03  0.14023510825E+03  0.00000000000E+00 0. -1.
<mgrwt>
<rscale>  2 0.25187888E+02</rscale>
<asrwt>0</asrwt>
<pdfrwt beam="1">  1        2 0.50473959E-01 0.25187888E+02</pdfrwt>
<pdfrwt beam="2">  1       -2 0.30454438E-03 0.25187888E+02</pdfrwt>
<totfact> 0.68646259E+05</totfact>
</mgrwt>
</event>
<event>
 4    1  0.7653521E+003  0.2777468E+02  0.7546771E-02  0.1624075E+00
         -2   -1    0    0    0  501 -0.00000000000E+00  0.00000000000E+00  0.12230894771E+03  0.12230894771E+03  0.00000000000E+00 0.  1.
          2   -1    0    0  501    0  0.00000000000E+00 -0.00000000000E+00 -0.69517594158E+01  0.69517594158E+01  0.00000000000E+00 0. -1.
          2    1    1    2  502    0  0.48647235014E+01  0.27345331283E+02  0.37999505140E+02  0.47067983478E+02  0.00000000000E+00 0. -1.
         -2    1    1    2    0  502 -0.48647235014E+01 -0.27345331283E+02  0.77357683150E+02  0.82192723644E+02  0.00000000000E+00 0.  1.
<mgrwt>
<rscale>  2 0.27774677E+02</rscale>
<asrwt>0</asrwt>
<pdfrwt beam="2">  1        2 0.10695015E-02 0.27774677E+02</pdfrwt>
<pdfrwt beam="1">  1       -2 0.18816760E-01 0.27774677E+02</pdfrwt>
<totfact> 0.19038430E+05</totfact>
</mgrwt>
</event>
<event>
 4    1  0.7653521E+003  0.3113726E+02  0.7546771E-02  0.1585848E+00
          2   -1    0    0  501    0  0.00000000000E+00  0.00000000000E+00  0.75916467559E+03  0.75916467559E+03  0.00000000000E+00 0. -1.
         -2   -1    0    0    0  501 -0.00000000000E+00 -0.00000000000E+00 -0.57987845716E+01  0.57987845716E+01  0.00000000000E+00 0.  1.
          2    1    1    2  502    0  0.24117554586E+02 -0.19694481624E+02  0.71443060608E+03  0.71510881686E+03  0.00000000000E+00 0. -1.
         -2    1    1    2    0  502 -0.24117554586E+02  0.19694481624E+02  0.38935284940E+02  0.49854643304E+02  0.00000000000E+00 0.  1.
<mgrwt>
<rscale>  2 0.31137261E+02</rscale>
<asrwt>0</asrwt>
<pdfrwt beam="1">  1        2 0.11679449E+00 0.31137261E+02</pdfrwt>
<pdfrwt beam="2">  1       -2 0.89212130E-03 0.31137261E+02</pdfrwt>
<totfact> 0.71090145E+04</totfact>
</mgrwt>
</event>
<event>
 4    1  0.7653521E+003  0.2000346E+02  0.7546771E-02  0.1745259E+00
         -2   -1    0    0    0  501 -0.00000000000E+00  0.00000000000E+00  0.10433640560E+01  0.10433640560E+01  0.00000000000E+00 0. -1.
          2   -1    0    0  501    0  0.00000000000E+00 -0.00000000000E+00 -0.13310732294E+04  0.13310732294E+04  0.00000000000E+00 0. -1.
          2    1    1    2  502    0  0.13619945834E+02  0.14650440240E+02 -0.12269884581E+04  0.12271515043E+04  0.00000000000E+00 0. -1.
         -2    1    1    2    0  502 -0.13619945834E+02 -0.14650440240E+02 -0.10304140726E+03  0.10496508912E+03  0.00000000000E+00 0. -1.
<mgrwt>
<rscale>  2 0.20003458E+02</rscale>
<asrwt>0</asrwt>
<pdfrwt beam="2">  1        2 0.20478137E+00 0.20003458E+02</pdfrwt>
<pdfrwt beam="1">  1       -2 0.16051686E-03 0.20003458E+02</pdfrwt>
<totfact> 0.31382305E+05</totfact>
</mgrwt>
</event>
<event>
 4    1  0.7653521E+003  0.2682643E+02  0.7546771E-02  0.1636074E+00
         -2   -1    0    0    0  501 -0.00000000000E+00  0.00000000000E+00  0.35270432506E+02  0.35270432506E+02  0.00000000000E+00 0.  1.
          2   -1    0    0  501    0  0.00000000000E+00 -0.00000000000E+00 -0.10094721337E+03  0.10094721337E+03  0.00000000000E+00 0.  1.
          2    1    1    2  502    0  0.26737283264E+02 -0.21851229594E+01 -0.93675804625E+02  0.97441333380E+02  0.00000000000E+00 0.  1.
         -2    1    1    2    0  502 -0.26737283264E+02  0.21851229594E+01  0.27999023765E+02  0.38776312492E+02  0.00000000000E+00 0.  1.
<mgrwt>
<rscale>  2 0.26826425E+02</rscale>
<asrwt>0</asrwt>
<pdfrwt beam="2">  1        2 0.15530341E-01 0.26826425E+02</pdfrwt>
<pdfrwt beam="1">  1       -2 0.54262204E-02 0.26826425E+02</pdfrwt>
<totfact> 0.45278642E+04</totfact>
</mgrwt>
</event>
<event>
 4    1  0.7653521E+003  0.2476203E+02  0.7546771E-02  0.1664444E+00
         -2   -1    0    0    0  501 -0.00000000000E+00  0.00000000000E+00  0.25464705038E+01  0.25464705038E+01  0.00000000000E+00 0.  1.
          2   -1    0    0  501    0  0.00000000000E+00 -0.00000000000E+00 -0.41933834068E+03  0.41933834068E+03  0.00000000000E+00 0.  1.
          2    1    1    2  502    0 -0.46316475056E+01 -0.24325012087E+02 -0.34604159037E+03  0.34692641963E+03  0.00000000000E+00 0.  1.
         -2    1    1    2    0  502  0.46316475056E+01  0.24325012087E+02 -0.70750279812E+02  0.74958391559E+02  0.00000000000E+00 0.  1.
<mgrwt>
<rscale>  2 0.24762035E+02</rscale>
<asrwt>0</asrwt>
<pdfrwt beam="2">  1        2 0.64513593E-01 0.24762035E+02</pdfrwt>
<pdfrwt beam="1">  1       -2 0.39176468E-03 0.24762035E+02</pdfrwt>
<totfact> 0.38242764E+05</totfact>
</mgrwt>
</event>
<event>
 4    1  0.7653521E+003  0.2077416E+02  0.7546771E-02  0.1730357E+00
          2   -1    0    0  501    0  0.00000000000E+00  0.00000000000E+00  0.91720668426E+03  0.91720668426E+03  0.00000000000E+00 0. -1.
         -2   -1    0    0    0  501 -0.00000000000E+00 -0.00000000000E+00 -0.21538882596E+03  0.21538882596E+03  0.00000000000E+00 0. -1.
          2    1    1    2  502    0 -0.75650049997E+01 -0.19347773966E+02  0.91658780102E+03  0.91682319050E+03  0.00000000000E+00 0. -1.
         -2    1    1    2    0  502  0.75650049997E+01  0.19347773966E+02 -0.21476994273E+03  0.21577231972E+03  0.00000000000E+00 0. -1.
<mgrwt>
<rscale>  2 0.20774158E+02</rscale>
<asrwt>0</asrwt>
<pdfrwt beam="1">  1        2 0.14110872E+00 0.20774158E+02</pdfrwt>
<pdfrwt beam="2">  1       -2 0.33136743E-01 0.20774158E+02</pdfrwt>
<totfact> 0.27004324E+02</totfact>
</mgrwt>
</event>
<event>
 4    1  0.7653521E+003  0.3818704E+02  0.7546771E-02  0.1521993E+00
         -2   -1    0    0    0  501 -0.00000000000E+00  0.00000000000E+00  0.97959791720E+01  0.97959791720E+01  0.00000000000E+00 0.  1.
          2   -1    0    0  501    0  0.00000000000E+00 -0.00000000000E+00 -0.40157760657E+03  0.40157760657E+03  0.00000000000E+00 0.  1.
          2    1    1    2  502    0  0.29686308473E+02  0.24020263762E+02 -0.35905979904E+03  0.36108473973E+03  0.00000000000E+00 0.  1.
         -2    1    1    2    0  502 -0.29686308473E+02 -0.24020263762E+02 -0.32721828363E+02  0.50288846013E+02  0.00000000000E+00 0.  1.
<mgrwt>
<rscale>  2 0.38187039E+02</rscale>
<asrwt>0</asrwt>
<pdfrwt beam="2">  1        2 0.61781169E-01 0.38187039E+02</pdfrwt>
<pdfrwt beam="1">  1       -2 0.15070738E-02 0.38187039E+02</pdfrwt>
<totfact> 0.70332989E+04</totfact>
</mgrwt>
</event>
<event>
 4    1  0.7653521E+003  0.2864124E+02  0.7546771E-02  0.1613613E+00
         -2   -1    0    0    0  501 -0.00000000000E+00  0.00000000000E+00  0.14440618452E+03  0.14440618452E+03  0.00000000000E+00 0.  1.
          2   -1    0    0  501    0  0.00000000000E+00 -0.00000000000E+00 -0.17487940927E+02  0.17487940927E+02  0.00000000000E+00 0.  1.
          2    1    1    2  502    0 -0.17331116254E+01 -0.28588754087E+02 -0.30539408584E+01  0.28803595104E+02  0.00000000000E+00 0.  1.
         -2    1    1    2    0  502  0.17331116254E+01  0.28588754087E+02  0.12997218446E+03  0.13309053035E+03  0.00000000000E+00 0.  1.
<mgrwt>
<rscale>  2 0.28641238E+02</rscale>
<asrwt>0</asrwt>
<pdfrwt beam="2">  1        2 0.26904526E-02 0.28641238E+02</pdfrwt>
<pdfrwt beam="1">  1       -2 0.22216335E-01 0.28641238E+02</pdfrwt>
<totfact> 0.44235872E+04</totfact>
</mgrwt>
</event>
<event>
 4    1  0.7653521E+003  0.2373800E+02  0.7546771E-02  0.1679819E+00
         -2   -1    0    0    0  501 -0.00000000000E+00  0.00000000000E+00  0.16644559389E+04  0.16644559389E+04  0.00000000000E+00 0. -1.
          2   -1    0    0  501    0  0.00000000000E+00 -0.00000000000E+00 -0.12914092675E+02  0.12914092675E+02  0.00000000000E+00 0.  1.
          2    1    1    2  502    0 -0.52081677623E+01 -0.23159615187E+02 -0.18479640051E+01  0.23809824821E+02  0.00000000000E+00 0.  1.
         -2    1    1    2    0  502  0.52081677623E+01  0.23159615187E+02  0.16533898102E+04  0.16535602068E+04  0.00000000000E+00 0. -1.
<mgrwt>
<rscale>  2 0.23738003E+02</rscale>
<asrwt>0</asrwt>
<pdfrwt beam="2">  1        2 0.19867848E-02 0.23738003E+02</pdfrwt>
<pdfrwt beam="1">  1       -2 0.25606997E+00 0.23738003E+02</pdfrwt>
<totfact> 0.32855924E+02</totfact>
</mgrwt>
</event>
<event>
 4    1  0.7653521E+003  0.4646976E+02  0.7546771E-02  0.1465369E+00
         -2   -1    0    0    0  501 -0.00000000000E+00  0.00000000000E+00  0.82681169765E+01  0.82681169765E+01  0.00000000000E+00 0. -1.
          2   -1    0    0  501    0  0.00000000000E+00 -0.00000000000E+00 -0.45265092844E+03  0.45265092844E+03  0.00000000000E+00 0.  1.
          2    1    1    2  502    0 -0.35649234803E+02  0.29808905190E+02 -0.37207987191E+03  0.37497049198E+03  0.00000000000E+00 0.  1.
         -2    1    1    2    0  502  0.35649234803E+02 -0.29808905190E+02 -0.72302939550E+02  0.85948553439E+02  0.00000000000E+00 0. -1.
<mgrwt>
<rscale>  2 0.46469762E+02</rscale>
<asrwt>0</asrwt>
<pdfrwt beam="2">  1        2 0.69638616E-01 0.46469762E+02</pdfrwt>
<pdfrwt beam="1">  1       -2 0.12720178E-02 0.46469762E+02</pdfrwt>
<totfact> 0.81565471E+04</totfact>
</mgrwt>
</event>
<event>
 4    1  0.7653521E+003  0.2305402E+02  0.7546771E-02  0.1690636E+00
         -2   -1    0    0    0  501 -0.00000000000E+00  0.00000000000E+00  0.37796969477E+00  0.37796969477E+00  0.00000000000E+00 0. -1.
          2   -1    0    0  501    0  0.00000000000E+00 -0.00000000000E+00 -0.17051990511E+04  0.17051990511E+04  0.00000000000E+00 0. -1.
          2    1    1    2  502    0  0.84204515211E+01 -0.21461214635E+02 -0.12095305275E+04  0.12097502159E+04  0.00000000000E+00 0. -1.
         -2    1    1    2    0  502 -0.84204515211E+01  0.21461214635E+02 -0.49529055389E+03  0.49582680496E+03  0.00000000000E+00 0. -1.
<mgrwt>
<rscale>  2 0.23054018E+02</rscale>
<asrwt>0</asrwt>
<pdfrwt beam="2">  1        2 0.26234661E+00 0.23054018E+02</pdfrwt>
<pdfrwt beam="1">  1       -2 0.58147345E-04 0.23054018E+02</pdfrwt>
<totfact> 0.82424616E+05</totfact>
</mgrwt>
</event>
<event>
 4    1  0.7653521E+003  0.2026591E+02  0.7546771E-02  0.1740091E+00
          2   -1    0    0  501    0  0.00000000000E+00  0.00000000000E+00  0.19762459607E+03  0.19762459607E+03  0.00000000000E+00 0. -1.
         -2   -1    0    0    0  501 -0.00000000000E+00 -0.00000000000E+00 -0.71969893574E+01  0.71969893574E+01  0.00000000000E+00 0. -1.
          2    1    1    2  502    0 -0.15556697529E+02 -0.12988310642E+02  0.18158186057E+03  0.18270927492E+03  0.00000000000E+00 0. -1.
         -2    1    1    2    0  502  0.15556697529E+02  0.12988310642E+02  0.88457461383E+01  0.22112310510E+02  0.00000000000E+00 0. -1.
<mgrwt>
<rscale>  2 0.20265909E+02</rscale>
<asrwt>0</asrwt>
<pdfrwt beam="1">  1        2 0.30403780E-01 0.20265909E+02</pdfrwt>
<pdfrwt beam="2">  1       -2 0.11072293E-02 0.20265909E+02</pdfrwt>
<totfact> 0.18876296E+05</totfact>
</mgrwt>
</event>
<event>
 4    1  0.7653521E+003  0.3107344E+02  0.7546771E-02  0.1586518E+00
          2   -1    0    0  501    0  0.00000000000E+00  0.00000000000E+00  0.54242168134E+03  0.54242168134E+03  0.00000000000E+00 0. -1.
         -2   -1    0    0    0  501 -0.00000000000E+00 -0.00000000000E+00 -0.16633135418E+02  0.16633135418E+02  0.00000000000E+00 0. -1.
          2    1    1    2  502    0  0.63016514702E+01 -0.30427749879E+02  0.52704092347E+03  0.52795614759E+03  0.00000000000E+00 0. -1.
         -2    1    1    2    0  502 -0.63016514702E+01  0.30427749879E+02 -0.12523775497E+01  0.31098669160E+02  0.00000000000E+00 0. -1.
<mgrwt>
<rscale>  2 0.31073442E+02</rscale>
<asrwt>0</asrwt>
<pdfrwt beam="1">  1        2 0.83449476E-01 0.31073442E+02</pdfrwt>
<pdfrwt beam="2">  1       -2 0.25589443E-02 0.31073442E+02</pdfrwt>
<totfact> 0.23884249E+04</totfact>
</mgrwt>
</event>
<event>
 4    1  0.7653521E+003  0.2084843E+02  0.7546771E-02  0.1728964E+00
          2   -1    0    0  501    0  0.00000000000E+00  0.00000000000E+00  0.10154779790E+04  0.10154779790E+04  0.00000000000E+00 0. -1.
         -2   -1    0    0    0  501 -0.00000000000E+00 -0.00000000000E+00 -0.88065943142E+00  0.88065943142E+00  0.00000000000E+00 0.  1.
          2    1    1    2  502    0  0.19893847729E+02 -0.62363460559E+01  0.87161895978E+03  0.87186826312E+03  0.00000000000E+00 0. -1.
         -2    1    1    2    0  502 -0.19893847729E+02  0.62363460559E+01  0.14297835982E+03  0.14449037534E+03  0.00000000000E+00 0.  1.
<mgrwt>
<rscale>  2 0.20848434E+02</rscale>
<asrwt>0</asrwt>
<pdfrwt beam="1">  1        2 0.15622645E+00 0.20848434E+02</pdfrwt>
<pdfrwt beam="2">  1       -2 0.13548688E-03 0.20848434E+02</pdfrwt>
<totfact> 0.57172054E+05</totfact>
</mgrwt>
</event>
<event>
 4    1  0.7653521E+003  0.3399135E+02  0.7546771E-02  0.1557744E+00
         -2   -1    0    0    0  501 -0.00000000000E+00  0.00000000000E+00  0.15139990668E+03  0.15139990668E+03  0.00000000000E+00 0. -1.
          2   -1    0    0  501    0  0.00000000000E+00 -0.00000000000E+00 -0.48974452382E+02  0.48974452382E+02  0.00000000000E+00 0. -1.
          2    1    1    2  502    0 -0.85303576099E+01  0.32903572799E+02 -0.40838158417E+02  0.53133485551E+02  0.00000000000E+00 0. -1.
         -2    1    1    2    0  502  0.85303576099E+01 -0.32903572799E+02  0.14326361271E+03  0.14724087351E+03  0.00000000000E+00 0. -1.
<mgrwt>
<rscale>  2 0.33991353E+02</rscale>
<asrwt>0</asrwt>
<pdfrwt beam="2">  1        2 0.75345312E-02 0.33991353E+02</pdfrwt>
<pdfrwt beam="1">  1       -2 0.23292293E-01 0.33991353E+02</pdfrwt>
<totfact> 0.11690494E+04</totfact>
</mgrwt>
</event>
<event>
 4    1  0.7653521E+003  0.4102119E+02  0.7546771E-02  0.1500828E+00
          2   -1    0    0  501    0  0.00000000000E+00  0.00000000000E+00  0.23112476946E+04  0.23112476946E+04  0.00000000000E+00 0. -1.
         -2   -1    0    0    0  501 -0.00000000000E+00 -0.00000000000E+00 -0.72807367536E+00  0.72807367536E+00  0.00000000000E+00 0. -1.
          2    1    1    2  502    0 -0.37862533074E+02  0.15785020317E+02  0.11592774713E+04  0.11600030145E+04  0.00000000000E+00 0. -1.
         -2    1    1    2    0  502  0.37862533074E+02 -0.15785020317E+02  0.11512421497E+04  0.11519727538E+04  0.00000000000E+00 0. -1.
<mgrwt>
<rscale>  2 0.41021193E+02</rscale>
<asrwt>0</asrwt>
<pdfrwt beam="1">  1        2 0.35557069E+00 0.41021193E+02</pdfrwt>
<pdfrwt beam="2">  1       -2 0.11201319E-03 0.41021193E+02</pdfrwt>
<totfact> 0.20046437E+05</totfact>
</mgrwt>
</event>
<event>
 4    1  0.7653521E+003  0.2907898E+02  0.7546771E-02  0.1608498E+00
          2   -1    0    0  501    0  0.00000000000E+00  0.00000000000E+00  0.60641894428E+02  0.60641894428E+02  0.00000000000E+00 0.  1.
         -2   -1    0    0    0  501 -0.00000000000E+00 -0.00000000000E+00 -0.21511149107E+02  0.21511149107E+02  0.00000000000E+00 0.  1.
          2    1    1    2  502    0 -0.24114130138E+02  0.16251024188E+02  0.43928311011E+02  0.52680960201E+02  0.00000000000E+00 0.  1.
         -2    1    1    2    0  502  0.24114130138E+02 -0.16251024188E+02 -0.47975656890E+01  0.29472083334E+02  0.00000000000E+00 0.  1.
<mgrwt>
<rscale>  2 0.29078980E+02</rscale>
<asrwt>0</asrwt>
<pdfrwt beam="1">  1        2 0.93295222E-02 0.29078980E+02</pdfrwt>
<pdfrwt beam="2">  1       -2 0.33094076E-02 0.29078980E+02</pdfrwt>
<totfact> 0.16600731E+05</totfact>
</mgrwt>
</event>
<event>
 4    1  0.7653521E+003  0.2216963E+02  0.7546771E-02  0.1705335E+00
          2   -1    0    0  501    0  0.00000000000E+00  0.00000000000E+00  0.41818212883E+03  0.41818212883E+03  0.00000000000E+00 0. -1.
         -2   -1    0    0    0  501 -0.00000000000E+00 -0.00000000000E+00 -0.13726276482E+01  0.13726276482E+01  0.00000000000E+00 0. -1.
          2    1    1    2  502    0  0.16096690004E+02 -0.15244307018E+02  0.28794165806E+03  0.28879385514E+03  0.00000000000E+00 0. -1.
         -2    1    1    2    0  502 -0.16096690004E+02  0.15244307018E+02  0.12886784313E+03  0.13076090133E+03  0.00000000000E+00 0. -1.
<mgrwt>
<rscale>  2 0.22169626E+02</rscale>
<asrwt>0</asrwt>
<pdfrwt beam="1">  1        2 0.64335611E-01 0.22169626E+02</pdfrwt>
<pdfrwt beam="2">  1       -2 0.21117382E-03 0.22169626E+02</pdfrwt>
<totfact> 0.84490718E+05</totfact>
</mgrwt>
</event>
<event>
 4    1  0.7653521E+003  0.2408251E+02  0.7546771E-02  0.1674541E+00
          2   -1    0    0  501    0  0.00000000000E+00  0.00000000000E+00  0.97517962999E+03  0.97517962999E+03  0.00000000000E+00 0.  1.
         -2   -1    0    0    0  501 -0.00000000000E+00 -0.00000000000E+00 -0.51795733181E+01  0.51795733181E+01  0.00000000000E+00 0. -1.
          2    1    1    2  502    0  0.45852258357E+01 -0.23641979392E+02  0.94618011293E+03  0.94648654169E+03  0.00000000000E+00 0.  1.
         -2    1    1    2    0  502 -0.45852258357E+01  0.23641979392E+02  0.23819943739E+02  0.33872661621E+02  0.00000000000E+00 0. -1.
<mgrwt>
<rscale>  2 0.24082514E+02</rscale>
<asrwt>0</asrwt>
<pdfrwt beam="1">  1        2 0.15002749E+00 0.24082514E+02</pdfrwt>
<pdfrwt beam="2">  1       -2 0.79685821E-03 0.24082514E+02</pdfrwt>
<totfact> 0.58793535E+04</totfact>
</mgrwt>
</event>
<event>
 4    1  0.7653521E+003  0.3467641E+02  0.7546771E-02  0.1551493E+00
         -2   -1    0    0    0  501 -0.00000000000E+00  0.00000000000E+00  0.27274130338E+02  0.27274130338E+02  0.00000000000E+00 0. -1.
          2   -1    0    0  501    0  0.00000000000E+00 -0.00000000000E+00 -0.57521079179E+03  0.57521079179E+03  0.00000000000E+00 0. -1.
          2    1    1    2  502    0  0.17702841442E+02 -0.29817152894E+02 -0.56343613929E+03  0.56450220218E+03  0.00000000000E+00 0. -1.
         -2    1    1    2    0  502 -0.17702841442E+02  0.29817152894E+02  0.15499477839E+02  0.37982719954E+02  0.00000000000E+00 0. -1.
<mgrwt>
<rscale>  2 0.34676407E+02</rscale>
<asrwt>0</asrwt>
<pdfrwt beam="2">  1        2 0.88493962E-01 0.34676407E+02</pdfrwt>
<pdfrwt beam="1">  1       -2 0.41960203E-02 0.34676407E+02</pdfrwt>
<totfact> 0.11333299E+04</totfact>
</mgrwt>
</event>
<event>
 4    1  0.7653521E+003  0.5089547E+02  0.7546771E-02  0.1440571E+00
         -2   -1    0    0    0  501 -0.00000000000E+00  0.00000000000E+00  0.11458105035E+03  0.11458105035E+03  0.00000000000E+00 0. -1.
          2   -1    0    0  501    0  0.00000000000E+00 -0.00000000000E+00 -0.57243866271E+03  0.57243866271E+03  0.00000000000E+00 0.  1.
          2    1    1    2  502    0  0.32468405957E+02 -0.39193766507E+02 -0.56558727604E+03  0.56787262264E+03  0.00000000000E+00 0.  1.
         -2    1    1    2    0  502 -0.32468405957E+02  0.39193766507E+02  0.10772966369E+03  0.11914709042E+03  0.00000000000E+00 0. -1.
<mgrwt>
<rscale>  2 0.50895469E+02</rscale>
<asrwt>0</asrwt>
<pdfrwt beam="2">  1        2 0.88067488E-01 0.50895469E+02</pdfrwt>
<pdfrwt beam="1">  1       -2 0.17627854E-01 0.50895469E+02</pdfrwt>
<totfact> 0.13426723E+03</totfact>
</mgrwt>
</event>
<event>
 4    1  0.7653521E+003  0.2089282E+02  0.7546771E-02  0.1728135E+00
          2   -1    0    0  501    0  0.00000000000E+00  0.00000000000E+00  0.18331162908E+03  0.18331162908E+03  0.00000000000E+00 0.  1.
         -2   -1    0    0    0  501 -0.00000000000E+00 -0.00000000000E+00 -0.20346784731E+02  0.20346784731E+02  0.00000000000E+00 0.  1.
          2    1    1    2  502    0 -0.20869286301E+02  0.99141878880E+00  0.17716758333E+03  0.17839524266E+03  0.00000000000E+00 0.  1.
         -2    1    1    2    0  502  0.20869286301E+02 -0.99141878880E+00 -0.14202738980E+02  0.25263171148E+02  0.00000000000E+00 0.  1.
<mgrwt>
<rscale>  2 0.20892822E+02</rscale>
<asrwt>0</asrwt>
<pdfrwt beam="1">  1        2 0.28201788E-01 0.20892822E+02</pdfrwt>
<pdfrwt beam="2">  1       -2 0.31302747E-02 0.20892822E+02</pdfrwt>
<totfact> 0.49683136E+04</totfact>
</mgrwt>
</event>
<event>
 4    1  0.7653521E+003  0.2101722E+02  0.7546771E-02  0.1725825E+00
          2   -1    0    0  501    0  0.00000000000E+00  0.00000000000E+00  0.17349838664E+03  0.17349838664E+03  0.00000000000E+00 0. -1.
         -2   -1    0    0    0  501 -0.00000000000E+00 -0.00000000000E+00 -0.13748389168E+04  0.13748389168E+04  0.00000000000E+00 0.  1.
          2    1    1    2  502    0  0.16085181299E+02 -0.13527390443E+02  0.17278123684E+03  0.17405481651E+03  0.00000000000E+00 0. -1.
         -2    1    1    2    0  502 -0.16085181299E+02  0.13527390443E+02 -0.13741217670E+04  0.13742824870E+04  0.00000000000E+00 0.  1.
<mgrwt>
<rscale>  2 0.21017216E+02</rscale>
<asrwt>0</asrwt>
<pdfrwt beam="1">  1        2 0.26692058E-01 0.21017216E+02</pdfrwt>
<pdfrwt beam="2">  1       -2 0.21151369E+00 0.21017216E+02</pdfrwt>
<totfact> 0.27296981E+01</totfact>
</mgrwt>
</event>
<event>
 4    1  0.7653521E+003  0.4180585E+02  0.7546771E-02  0.1495328E+00
          2   -1    0    0  501    0  0.00000000000E+00  0.00000000000E+00  0.51584851996E+02  0.51584851996E+02  0.00000000000E+00 0. -1.
         -2   -1    0    0    0  501 -0.00000000000E+00 -0.00000000000E+00 -0.36344549251E+03  0.36344549251E+03  0.00000000000E+00 0.  1.
          2    1    1    2  502    0  0.38030322925E+02  0.17361554164E+02  0.41675913287E+02  0.59030591841E+02  0.00000000000E+00 0. -1.
         -2    1    1    2    0  502 -0.38030322925E+02 -0.17361554164E+02 -0.35353655380E+03  0.35599975267E+03  0.00000000000E+00 0.  1.
<mgrwt>
<rscale>  2 0.41805849E+02</rscale>
<asrwt>0</asrwt>
<pdfrwt beam="1">  1        2 0.79361310E-02 0.41805849E+02</pdfrwt>
<pdfrwt beam="2">  1       -2 0.55914691E-01 0.41805849E+02</pdfrwt>
<totfact> 0.23112162E+03</totfact>
</mgrwt>
</event>
<event>
 4    1  0.7653521E+003  0.2120268E+02  0.7546771E-02  0.1722417E+00
          2   -1    0    0  501    0  0.00000000000E+00  0.00000000000E+00  0.94934140534E+03  0.94934140534E+03  0.00000000000E+00 0.  1.
         -2   -1    0    0    0  501 -0.00000000000E+00 -0.00000000000E+00 -0.62043346420E+01  0.62043346420E+01  0.00000000000E+00 0. -1.
          2    1    1    2  502    0 -0.14068272496E+02  0.15863087297E+02  0.93074666337E+03  0.93098813376E+03  0.00000000000E+00 0.  1.
         -2    1    1    2    0  502  0.14068272496E+02 -0.15863087297E+02  0.12390407331E+02  0.24557606224E+02  0.00000000000E+00 0. -1.
<mgrwt>
<rscale>  2 0.21202684E+02</rscale>
<asrwt>0</asrwt>
<pdfrwt beam="1">  1        2 0.14605241E+00 0.21202684E+02</pdfrwt>
<pdfrwt beam="2">  1       -2 0.95451378E-03 0.21202684E+02</pdfrwt>
<totfact> 0.46507098E+04</totfact>
</mgrwt>
</event>
<event>
 4    1  0.7653521E+003  0.2191878E+02  0.7546771E-02  0.1709660E+00
         -2   -1    0    0    0  501 -0.00000000000E+00  0.00000000000E+00  0.41913126081E+02  0.41913126081E+02  0.00000000000E+00 0. -1.
          2   -1    0    0  501    0  0.00000000000E+00 -0.00000000000E+00 -0.68696692750E+03  0.68696692750E+03  0.00000000000E+00 0.  1.
          2    1    1    2  502    0 -0.21658138756E+02 -0.33701815890E+01 -0.68391365061E+03  0.68426479859E+03  0.00000000000E+00 0.  1.
         -2    1    1    2    0  502  0.21658138756E+02  0.33701815890E+01  0.38859849194E+02  0.44615254989E+02  0.00000000000E+00 0. -1.
<mgrwt>
<rscale>  2 0.21918784E+02</rscale>
<asrwt>0</asrwt>
<pdfrwt beam="2">  1        2 0.10568721E+00 0.21918784E+02</pdfrwt>
<pdfrwt beam="1">  1       -2 0.64481741E-02 0.21918784E+02</pdfrwt>
<totfact> 0.48129485E+03</totfact>
</mgrwt>
</event>
<event>
 4    1  0.7653521E+003  0.4262164E+02  0.7546771E-02  0.1489760E+00
         -2   -1    0    0    0  501 -0.00000000000E+00  0.00000000000E+00  0.37388364034E+01  0.37388364034E+01  0.00000000000E+00 0. -1.
          2   -1    0    0  501    0  0.00000000000E+00 -0.00000000000E+00 -0.50554951762E+03  0.50554951762E+03  0.00000000000E+00 0. -1.
          2    1    1    2  502    0 -0.10444130798E+02 -0.41322206390E+02 -0.30114091933E+03  0.30414216726E+03  0.00000000000E+00 0. -1.
         -2    1    1    2    0  502  0.10444130798E+02  0.41322206390E+02 -0.20066976188E+03  0.20514618676E+03  0.00000000000E+00 0. -1.
<mgrwt>
<rscale>  2 0.42621645E+02</rscale>
<asrwt>0</asrwt>
<pdfrwt beam="2">  1        2 0.77776766E-01 0.42621645E+02</pdfrwt>
<pdfrwt beam="1">  1       -2 0.57520621E-03 0.42621645E+02</pdfrwt>
<totfact> 0.21414852E+05</totfact>
</mgrwt>
</event>
<event>
 4    1  0.7653521E+003  0.3632604E+02  0.7546771E-02  0.1537131E+00
         -2   -1    0    0    0  501 -0.00000000000E+00  0.00000000000E+00  0.89687520125E+03  0.89687520125E+03  0.00000000000E+00 0. -1.
          2   -1    0    0  501    0  0.00000000000E+00 -0.00000000000E+00 -0.17716624758E+04  0.17716624758E+04  0.00000000000E+00 0.  1.
          2    1    1    2  502    0  0.85831858775E+01  0.35297456313E+02 -0.17711083265E+04  0.17714808172E+04  0.00000000000E+00 0.  1.
         -2    1    1    2    0  502 -0.85831858775E+01 -0.35297456313E+02  0.89632105199E+03  0.89705685982E+03  0.00000000000E+00 0. -1.
<mgrwt>
<rscale>  2 0.36326044E+02</rscale>
<asrwt>0</asrwt>
<pdfrwt beam="2">  1        2 0.27256346E+00 0.36326044E+02</pdfrwt>
<pdfrwt beam="1">  1       -2 0.13798080E+00 0.36326044E+02</pdfrwt>
<totfact> 0.51837443E+00</totfact>
</mgrwt>
</event>
<event>
 4    1  0.7653521E+003  0.2234257E+02  0.7546771E-02  0.1702394E+00
         -2   -1    0    0    0  501 -0.00000000000E+00  0.00000000000E+00  0.15299670893E+01  0.15299670893E+01  0.00000000000E+00 0.  1.
          2   -1    0    0  501    0  0.00000000000E+00 -0.00000000000E+00 -0.39543582426E+03  0.39543582426E+03  0.00000000000E+00 0. -1.
          2    1    1    2  502    0  0.98865017001E+01  0.20036154160E+02 -0.27995986540E+03  0.28084998954E+03  0.00000000000E+00 0. -1.
         -2    1    1    2    0  502 -0.98865017001E+01 -0.20036154160E+02 -0.11394599177E+03  0.11611580181E+03  0.00000000000E+00 0.  1.
<mgrwt>
<rscale>  2 0.22342569E+02</rscale>
<asrwt>0</asrwt>
<pdfrwt beam="2">  1        2 0.60836302E-01 0.22342569E+02</pdfrwt>
<pdfrwt beam="1">  1       -2 0.23537947E-03 0.22342569E+02</pdfrwt>
<totfact> 0.77520918E+05</totfact>
</mgrwt>
</event>
<event>
 4    1  0.7653521E+003  0.2233050E+02  0.7546771E-02  0.1702598E+00
         -2   -1    0    0    0  501 -0.00000000000E+00  0.00000000000E+00  0.10435255021E+02  0.10435255021E+02  0.00000000000E+00 0.  1.
          2   -1    0    0  501    0  0.00000000000E+00 -0.00000000000E+00 -0.12159579368E+03  0.12159579368E+03  0.00000000000E+00 0. -1.
          2    1    1    2  502    0  0.22121307828E+02  0.30494229532E+01 -0.10701376141E+03  0.10931878325E+03  0.00000000000E+00 0. -1.
         -2    1    1    2    0  502 -0.22121307828E+02 -0.30494229532E+01 -0.41467772499E+01  0.22712265451E+02  0.00000000000E+00 0.  1.
<mgrwt>
<rscale>  2 0.22330500E+02</rscale>
<asrwt>0</asrwt>
<pdfrwt beam="2">  1        2 0.18707045E-01 0.22330500E+02</pdfrwt>
<pdfrwt beam="1">  1       -2 0.16054239E-02 0.22330500E+02</pdfrwt>
<totfact> 0.19359101E+05</totfact>
</mgrwt>
</event>
<event>
 4    1  0.7653521E+003  0.2234590E+02  0.7546771E-02  0.1702338E+00
          2   -1    0    0  501    0  0.00000000000E+00  0.00000000000E+00  0.60293067854E+03  0.60293067854E+03  0.00000000000E+00 0.  1.
         -2   -1    0    0    0  501 -0.00000000000E+00 -0.00000000000E+00 -0.21745643984E+02  0.21745643984E+02  0.00000000000E+00 0.  1.
          2    1    1    2  502    0 -0.16275222681E+02 -0.15311965755E+02  0.59692521665E+03  0.59734332962E+03  0.00000000000E+00 0.  1.
         -2    1    1    2    0  502  0.16275222681E+02  0.15311965755E+02 -0.15740182096E+02  0.27332992902E+02  0.00000000000E+00 0.  1.
<mgrwt>
<rscale>  2 0.22345898E+02</rscale>
<asrwt>0</asrwt>
<pdfrwt beam="1">  1        2 0.92758553E-01 0.22345898E+02</pdfrwt>
<pdfrwt beam="2">  1       -2 0.33454841E-02 0.22345898E+02</pdfrwt>
<totfact> 0.14008169E+04</totfact>
</mgrwt>
</event>
<event>
 4    1  0.7653521E+003  0.2540737E+02  0.7546771E-02  0.1655219E+00
         -2   -1    0    0    0  501 -0.00000000000E+00  0.00000000000E+00  0.17316185653E+02  0.17316185653E+02  0.00000000000E+00 0.  1.
          2   -1    0    0  501    0  0.00000000000E+00 -0.00000000000E+00 -0.40675431928E+03  0.40675431928E+03  0.00000000000E+00 0. -1.
          2    1    1    2  502    0 -0.29407613600E+01 -0.25236610496E+02 -0.39680428555E+03  0.39761687038E+03  0.00000000000E+00 0. -1.
         -2    1    1    2    0  502  0.29407613600E+01  0.25236610496E+02  0.73661519193E+01  0.26453634548E+02  0.00000000000E+00 0.  1.
<mgrwt>
<rscale>  2 0.25407373E+02</rscale>
<asrwt>0</asrwt>
<pdfrwt beam="2">  1        2 0.62577590E-01 0.25407373E+02</pdfrwt>
<pdfrwt beam="1">  1       -2 0.26640284E-02 0.25407373E+02</pdfrwt>
<totfact> 0.29264434E+04</totfact>
</mgrwt>
</event>
<event>
 4    1  0.7653521E+003  0.2297787E+02  0.7546771E-02  0.1691869E+00
          2   -1    0    0  501    0  0.00000000000E+00  0.00000000000E+00  0.81378432954E+03  0.81378432954E+03  0.00000000000E+00 0. -1.
         -2   -1    0    0    0  501 -0.00000000000E+00 -0.00000000000E+00 -0.13038577791E+01  0.13038577791E+01  0.00000000000E+00 0.  1.
          2    1    1    2  502    0  0.42074203754E+01 -0.22589381748E+02  0.69510833887E+03  0.69548801954E+03  0.00000000000E+00 0. -1.
         -2    1    1    2    0  502 -0.42074203754E+01  0.22589381748E+02  0.11737213290E+03  0.11960016779E+03  0.00000000000E+00 0.  1.
<mgrwt>
<rscale>  2 0.22977871E+02</rscale>
<asrwt>0</asrwt>
<pdfrwt beam="1">  1        2 0.12519718E+00 0.22977871E+02</pdfrwt>
<pdfrwt beam="2">  1       -2 0.20059416E-03 0.22977871E+02</pdfrwt>
<totfact> 0.45580611E+05</totfact>
</mgrwt>
</event>
<event>
 4    1  0.7653521E+003  0.2080262E+02  0.7546771E-02  0.1729822E+00
          2   -1    0    0  501    0  0.00000000000E+00  0.00000000000E+00  0.44191342573E+03  0.44191342573E+03  0.00000000000E+00 0. -1.
         -2   -1    0    0    0  501 -0.00000000000E+00 -0.00000000000E+00 -0.15714505194E+01  0.15714505194E+01  0.00000000000E+00 0.  1.
          2    1    1    2  502    0  0.17449790169E+02  0.11324916913E+02  0.35629305673E+03  0.35689983356E+03  0.00000000000E+00 0. -1.
         -2    1    1    2    0  502 -0.17449790169E+02 -0.11324916913E+02  0.84048918478E+02  0.86585042688E+02  0.00000000000E+00 0.  1.
<mgrwt>
<rscale>  2 0.20802618E+02</rscale>
<asrwt>0</asrwt>
<pdfrwt beam="1">  1        2 0.67986582E-01 0.20802618E+02</pdfrwt>
<pdfrwt beam="2">  1       -2 0.24176197E-03 0.20802618E+02</pdfrwt>
<totfact> 0.65546920E+05</totfact>
</mgrwt>
</event>
<event>
 4    1  0.7653521E+003  0.3782401E+02  0.7546771E-02  0.1524863E+00
          2   -1    0    0  501    0  0.00000000000E+00  0.00000000000E+00  0.20347182683E+04  0.20347182683E+04  0.00000000000E+00 0.  1.
         -2   -1    0    0    0  501 -0.00000000000E+00 -0.00000000000E+00 -0.14997153851E+02  0.14997153851E+02  0.00000000000E+00 0. -1.
          2    1    1    2  502    0 -0.32685110474E+01 -0.37682525358E+02  0.20104053066E+04  0.20107610879E+04  0.00000000000E+00 0.  1.
         -2    1    1    2    0  502  0.32685110474E+01  0.37682525358E+02  0.93158078877E+01  0.38954334270E+02  0.00000000000E+00 0. -1.
<mgrwt>
<rscale>  2 0.37824012E+02</rscale>
<asrwt>0</asrwt>
<pdfrwt beam="1">  1        2 0.31303336E+00 0.37824012E+02</pdfrwt>
<pdfrwt beam="2">  1       -2 0.23072560E-02 0.37824012E+02</pdfrwt>
<totfact> 0.43172062E+03</totfact>
</mgrwt>
</event>
<event>
 4    1  0.7653521E+003  0.3970757E+02  0.7546771E-02  0.1510375E+00
         -2   -1    0    0    0  501 -0.00000000000E+00  0.00000000000E+00  0.75613868211E+01  0.75613868211E+01  0.00000000000E+00 0.  1.
          2   -1    0    0  501    0  0.00000000000E+00 -0.00000000000E+00 -0.15028510435E+04  0.15028510435E+04  0.00000000000E+00 0.  1.
          2    1    1    2  502    0  0.33768241549E+02  0.20890113663E+02 -0.14485035449E+04  0.14490476909E+04  0.00000000000E+00 0.  1.
         -2    1    1    2    0  502 -0.33768241549E+02 -0.20890113663E+02 -0.46786111793E+02  0.61364739410E+02  0.00000000000E+00 0.  1.
<mgrwt>
<rscale>  2 0.39707568E+02</rscale>
<asrwt>0</asrwt>
<pdfrwt beam="2">  1        2 0.23120781E+00 0.39707568E+02</pdfrwt>
<pdfrwt beam="1">  1       -2 0.11632905E-02 0.39707568E+02</pdfrwt>
<totfact> 0.20260691E+04</totfact>
</mgrwt>
</event>
<event>
 4    1  0.7653521E+003  0.2042124E+02  0.7546771E-02  0.1737079E+00
          2   -1    0    0  501    0  0.00000000000E+00  0.00000000000E+00  0.41607841308E+01  0.41607841308E+01  0.00000000000E+00 0. -1.
         -2   -1    0    0    0  501 -0.00000000000E+00 -0.00000000000E+00 -0.10283423999E+03  0.10283423999E+03  0.00000000000E+00 0. -1.
          2    1    1    2  502    0  0.12227629565E+02 -0.16355794597E+02 -0.40819965702E+02  0.45643143424E+02  0.00000000000E+00 0. -1.
         -2    1    1    2    0  502 -0.12227629565E+02  0.16355794597E+02 -0.57853490154E+02  0.61351880694E+02  0.00000000000E+00 0. -1.
<mgrwt>
<rscale>  2 0.20421238E+02</rscale>
<asrwt>0</asrwt>
<pdfrwt beam="1">  1        2 0.64012066E-03 0.20421238E+02</pdfrwt>
<pdfrwt beam="2">  1       -2 0.15820652E-01 0.20421238E+02</pdfrwt>
<totfact> 0.44568584E+05</totfact>
</mgrwt>
</event>
<event>
 4    1  0.7653521E+003  0.2725497E+02  0.7546771E-02  0.1630577E+00
          2   -1    0    0  501    0  0.00000000000E+00  0.00000000000E+00  0.22160550292E+03  0.22160550292E+03  0.00000000000E+00 0.  1.
         -2   -1    0    0    0  501 -0.00000000000E+00 -0.00000000000E+00 -0.68689488102E+01  0.68689488102E+01  0.00000000000E+00 0.  1.
          2    1    1    2  502    0  0.19686361302E+02 -0.18848893794E+02  0.18910970044E+03  0.19106363447E+03  0.00000000000E+00 0.  1.
         -2    1    1    2    0  502 -0.19686361302E+02  0.18848893794E+02  0.25626853667E+02  0.37410817252E+02  0.00000000000E+00 0.  1.
<mgrwt>
<rscale>  2 0.27254974E+02</rscale>
<asrwt>0</asrwt>
<pdfrwt beam="1">  1        2 0.34093149E-01 0.27254974E+02</pdfrwt>
<pdfrwt beam="2">  1       -2 0.10567615E-02 0.27254974E+02</pdfrwt>
<totfact> 0.19368945E+05</totfact>
</mgrwt>
</event>
<event>
 4    1  0.7653521E+003  0.2074314E+02  0.7546771E-02  0.1730941E+00
          2   -1    0    0  501    0  0.00000000000E+00  0.00000000000E+00  0.36489558340E+03  0.36489558340E+03  0.00000000000E+00 0.  1.
         -2   -1    0    0    0  501 -0.00000000000E+00 -0.00000000000E+00 -0.99498337075E+02  0.99498337075E+02  0.00000000000E+00 0.  1.
          2    1    1    2  502    0 -0.18831391939E+02  0.86980647655E+01  0.36351556973E+03  0.36410691712E+03  0.00000000000E+00 0.  1.
         -2    1    1    2    0  502  0.18831391939E+02 -0.86980647655E+01 -0.98118323411E+02  0.10028700336E+03  0.00000000000E+00 0.  1.
<mgrwt>
<rscale>  2 0.20743135E+02</rscale>
<asrwt>0</asrwt>
<pdfrwt beam="1">  1        2 0.56137781E-01 0.20743135E+02</pdfrwt>
<pdfrwt beam="2">  1       -2 0.15307437E-01 0.20743135E+02</pdfrwt>
<totfact> 0.25103364E+03</totfact>
</mgrwt>
</event>
<event>
 4    1  0.7653521E+003  0.2071648E+02  0.7546771E-02  0.1731444E+00
          2   -1    0    0  501    0  0.00000000000E+00  0.00000000000E+00  0.32400416392E+03  0.32400416392E+03  0.00000000000E+00 0.  1.
         -2   -1    0    0    0  501 -0.00000000000E+00 -0.00000000000E+00 -0.59393255551E+02  0.59393255551E+02  0.00000000000E+00 0. -1.
          2    1    1    2  502    0 -0.17378935560E+02 -0.11275864804E+02  0.32185447656E+03  0.32252050572E+03  0.00000000000E+00 0.  1.
         -2    1    1    2    0  502  0.17378935560E+02  0.11275864804E+02 -0.57243568192E+02  0.60876913749E+02  0.00000000000E+00 0. -1.
<mgrwt>
<rscale>  2 0.20716480E+02</rscale>
<asrwt>0</asrwt>
<pdfrwt beam="1">  1        2 0.49846793E-01 0.20716480E+02</pdfrwt>
<pdfrwt beam="2">  1       -2 0.91374241E-02 0.20716480E+02</pdfrwt>
<totfact> 0.61414699E+03</totfact>
</mgrwt>
</event>
<event>
 4    1  0.7653521E+003  0.2003168E+02  0.7546771E-02  0.1744699E+00
          2   -1    0    0  501    0  0.00000000000E+00  0.00000000000E+00  0.31380029333E+02  0.31380029333E+02  0.00000000000E+00 0.  1.
         -2   -1    0    0    0  501 -0.00000000000E+00 -0.00000000000E+00 -0.59968395572E+02  0.59968395572E+02  0.00000000000E+00 0.  1.
          2    1    1    2  502    0 -0.17978162067E+01 -0.19950844494E+02  0.26218732388E+02  0.32995306745E+02  0.00000000000E+00 0.  1.
         -2    1    1    2    0  502  0.17978162067E+01  0.19950844494E+02 -0.54807098627E+02  0.58353118160E+02  0.00000000000E+00 0.  1.
<mgrwt>
<rscale>  2 0.20031683E+02</rscale>
<asrwt>0</asrwt>
<pdfrwt beam="1">  1        2 0.48276969E-02 0.20031683E+02</pdfrwt>
<pdfrwt beam="2">  1       -2 0.92259069E-02 0.20031683E+02</pdfrwt>
<totfact> 0.76483676E+04</totfact>
</mgrwt>
</event>
<event>
 4    1  0.7653521E+003  0.2373159E+02  0.7546771E-02  0.1679919E+00
          2   -1    0    0  501    0  0.00000000000E+00  0.00000000000E+00  0.17263525080E+03  0.17263525080E+03  0.00000000000E+00 0.  1.
         -2   -1    0    0    0  501 -0.00000000000E+00 -0.00000000000E+00 -0.26182857016E+02  0.26182857016E+02  0.00000000000E+00 0. -1.
          2    1    1    2  502    0 -0.81491579400E+01 -0.22288548462E+02  0.16623627241E+03  0.16792166755E+03  0.00000000000E+00 0.  1.
         -2    1    1    2    0  502  0.81491579400E+01  0.22288548462E+02 -0.19783878626E+02  0.30896440267E+02  0.00000000000E+00 0. -1.
<mgrwt>
<rscale>  2 0.23731586E+02</rscale>
<asrwt>0</asrwt>
<pdfrwt beam="1">  1        2 0.26559269E-01 0.23731586E+02</pdfrwt>
<pdfrwt beam="2">  1       -2 0.40281320E-02 0.23731586E+02</pdfrwt>
<totfact> 0.38149098E+04</totfact>
</mgrwt>
</event>
<event>
 4    1  0.7653521E+003  0.6286429E+02  0.7546771E-02  0.1386190E+00
         -2   -1    0    0    0  501 -0.00000000000E+00  0.00000000000E+00  0.29883961985E+02  0.29883961985E+02  0.00000000000E+00 0.  1.
          2   -1    0    0  501    0  0.00000000000E+00 -0.00000000000E+00 -0.31884837751E+03  0.31884837751E+03  0.00000000000E+00 0.  1.
          2    1    1    2  502    0  0.97173044249E+01  0.62108715637E+02 -0.27787526321E+03  0.28489749116E+03  0.00000000000E+00 0.  1.
         -2    1    1    2    0  502 -0.97173044249E+01 -0.62108715637E+02 -0.11089152315E+02  0.63834848339E+02  0.00000000000E+00 0.  1.
<mgrwt>
<rscale>  2 0.62864287E+02</rscale>
<asrwt>0</asrwt>
<pdfrwt beam="2">  1        2 0.49053593E-01 0.62864287E+02</pdfrwt>
<pdfrwt beam="1">  1       -2 0.45975330E-02 0.62864287E+02</pdfrwt>
<totfact> 0.19620290E+04</totfact>
</mgrwt>
</event>
<event>
 4    1  0.7653521E+003  0.2956929E+02  0.7546771E-02  0.1602899E+00
          2   -1    0    0  501    0  0.00000000000E+00  0.00000000000E+00  0.93614786330E+02  0.93614786330E+02  0.00000000000E+00 0.  1.
         -2   -1    0    0    0  501 -0.00000000000E+00 -0.00000000000E+00 -0.12471696306E+02  0.12471696306E+02  0.00000000000E+00 0.  1.
          2    1    1    2  502    0 -0.25127459856E+02 -0.15586977447E+02  0.67152536927E+02  0.73374425521E+02  0.00000000000E+00 0.  1.
         -2    1    1    2    0  502  0.25127459856E+02  0.15586977447E+02  0.13990553097E+02  0.32712057115E+02  0.00000000000E+00 0.  1.
<mgrwt>
<rscale>  2 0.29569293E+02</rscale>
<asrwt>0</asrwt>
<pdfrwt beam="1">  1        2 0.14402274E-01 0.29569293E+02</pdfrwt>
<pdfrwt beam="2">  1       -2 0.19187226E-02 0.29569293E+02</pdfrwt>
<totfact> 0.21703028E+05</totfact>
</mgrwt>
</event>
<event>
 4    1  0.7653521E+003  0.2918384E+02  0.7546771E-02  0.1607289E+00
          2   -1    0    0  501    0  0.00000000000E+00  0.00000000000E+00  0.46812603014E+03  0.46812603014E+03  0.00000000000E+00 0. -1.
         -2   -1    0    0    0  501 -0.00000000000E+00 -0.00000000000E+00 -0.53758919169E+01  0.53758919169E+01  0.00000000000E+00 0. -1.
          2    1    1    2  502    0  0.22753076489E+02 -0.18275511218E+02  0.42394076578E+03  0.42494407831E+03  0.00000000000E+00 0. -1.
         -2    1    1    2    0  502 -0.22753076489E+02  0.18275511218E+02  0.38809372443E+02  0.48557843747E+02  0.00000000000E+00 0. -1.
<mgrwt>
<rscale>  2 0.29183845E+02</rscale>
<asrwt>0</asrwt>
<pdfrwt beam="1">  1        2 0.72019357E-01 0.29183845E+02</pdfrwt>
<pdfrwt beam="2">  1       -2 0.82706066E-03 0.29183845E+02</pdfrwt>
<totfact> 0.13009375E+05</totfact>
</mgrwt>
</event>
<event>
 4    1  0.7653521E+003  0.2116662E+02  0.7546771E-02  0.1723077E+00
          2   -1    0    0  501    0  0.00000000000E+00  0.00000000000E+00  0.52777991216E+03  0.52777991216E+03  0.00000000000E+00 0. -1.
         -2   -1    0    0    0  501 -0.00000000000E+00 -0.00000000000E+00 -0.16823662489E+01  0.16823662489E+01  0.00000000000E+00 0. -1.
          2    1    1    2  502    0 -0.69397003966E+01 -0.19996654634E+02  0.44938276384E+03  0.44988097768E+03  0.00000000000E+00 0. -1.
         -2    1    1    2    0  502  0.69397003966E+01  0.19996654634E+02  0.76714782075E+02  0.79581300737E+02  0.00000000000E+00 0. -1.
<mgrwt>
<rscale>  2 0.21166616E+02</rscale>
<asrwt>0</asrwt>
<pdfrwt beam="1">  1        2 0.81196778E-01 0.21166616E+02</pdfrwt>
<pdfrwt beam="2">  1       -2 0.25882600E-03 0.21166616E+02</pdfrwt>
<totfact> 0.50401864E+05</totfact>
</mgrwt>
</event>
<event>
 4    1  0.7653521E+003  0.2511404E+02  0.7546771E-02  0.1659369E+00
          2   -1    0    0  501    0  0.00000000000E+00  0.00000000000E+00  0.30892510553E+02  0.30892510553E+02  0.00000000000E+00 0.  1.
         -2   -1    0    0    0  501 -0.00000000000E+00 -0.00000000000E+00 -0.81374485059E+02  0.81374485059E+02  0.00000000000E+00 0. -1.
          2    1    1    2  502    0 -0.18055437443E+02  0.17456124247E+02  0.23343037880E+02  0.34287206250E+02  0.00000000000E+00 0.  1.
         -2    1    1    2    0  502  0.18055437443E+02 -0.17456124247E+02 -0.73825012386E+02  0.77979789361E+02  0.00000000000E+00 0. -1.
<mgrwt>
<rscale>  2 0.25114042E+02</rscale>
<asrwt>0</asrwt>
<pdfrwt beam="1">  1        2 0.47526939E-02 0.25114042E+02</pdfrwt>
<pdfrwt beam="2">  1       -2 0.12519152E-01 0.25114042E+02</pdfrwt>
<totfact> 0.52096378E+04</totfact>
</mgrwt>
</event>
<event>
 4    1  0.7653521E+003  0.2122230E+02  0.7546771E-02  0.1722060E+00
          2   -1    0    0  501    0  0.00000000000E+00  0.00000000000E+00  0.66861823508E+03  0.66861823508E+03  0.00000000000E+00 0. -1.
         -2   -1    0    0    0  501 -0.00000000000E+00 -0.00000000000E+00 -0.19993982918E+03  0.19993982918E+03  0.00000000000E+00 0. -1.
          2    1    1    2  502    0 -0.15288481949E+02 -0.14718982641E+02  0.66788606396E+03  0.66822315177E+03  0.00000000000E+00 0. -1.
         -2    1    1    2    0  502  0.15288481949E+02  0.14718982641E+02 -0.19920765806E+03  0.20033491249E+03  0.00000000000E+00 0. -1.
<mgrwt>
<rscale>  2 0.21222303E+02</rscale>
<asrwt>0</asrwt>
<pdfrwt beam="1">  1        2 0.10286434E+00 0.21222303E+02</pdfrwt>
<pdfrwt beam="2">  1       -2 0.30759974E-01 0.21222303E+02</pdfrwt>
<totfact> 0.43787255E+02</totfact>
</mgrwt>
</event>
<event>
 4    1  0.7653521E+003  0.2022169E+02  0.7546771E-02  0.1740955E+00
         -2   -1    0    0    0  501 -0.00000000000E+00  0.00000000000E+00  0.66998276423E+01  0.66998276423E+01  0.00000000000E+00 0.  1.
          2   -1    0    0  501    0  0.00000000000E+00 -0.00000000000E+00 -0.64808933668E+03  0.64808933668E+03  0.00000000000E+00 0. -1.
          2    1    1    2  502    0 -0.14865969910E+02 -0.13708386214E+02 -0.63229198631E+03  0.63261526449E+03  0.00000000000E+00 0. -1.
         -2    1    1    2    0  502  0.14865969910E+02  0.13708386214E+02 -0.90975227274E+01  0.22173899832E+02  0.00000000000E+00 0.  1.
<mgrwt>
<rscale>  2 0.20221694E+02</rscale>
<asrwt>0</asrwt>
<pdfrwt beam="2">  1        2 0.99706105E-01 0.20221694E+02</pdfrwt>
<pdfrwt beam="1">  1       -2 0.10307422E-02 0.20221694E+02</pdfrwt>
<totfact> 0.63747164E+04</totfact>
</mgrwt>
</event>
<event>
 4    1  0.7653521E+003  0.2214207E+02  0.7546771E-02  0.1705806E+00
         -2   -1    0    0    0  501 -0.00000000000E+00  0.00000000000E+00  0.22894417551E+01  0.22894417551E+01  0.00000000000E+00 0. -1.
          2   -1    0    0  501    0  0.00000000000E+00 -0.00000000000E+00 -0.13125840513E+04  0.13125840513E+04  0.00000000000E+00 0.  1.
          2    1    1    2  502    0  0.10381346839E+02  0.19557581732E+02 -0.12565681737E+04  0.12567632420E+04  0.00000000000E+00 0.  1.
         -2    1    1    2    0  502 -0.10381346839E+02 -0.19557581732E+02 -0.53726435842E+02  0.58110251021E+02  0.00000000000E+00 0. -1.
<mgrwt>
<rscale>  2 0.22142072E+02</rscale>
<asrwt>0</asrwt>
<pdfrwt beam="2">  1        2 0.20193565E+00 0.22142072E+02</pdfrwt>
<pdfrwt beam="1">  1       -2 0.35222244E-03 0.22142072E+02</pdfrwt>
<totfact> 0.11597873E+05</totfact>
</mgrwt>
</event>
<event>
 4    1  0.7653521E+003  0.2369769E+02  0.7546771E-02  0.1680444E+00
          2   -1    0    0  501    0  0.00000000000E+00  0.00000000000E+00  0.56270186779E+02  0.56270186779E+02  0.00000000000E+00 0.  1.
         -2   -1    0    0    0  501 -0.00000000000E+00 -0.00000000000E+00 -0.10689806246E+02  0.10689806246E+02  0.00000000000E+00 0. -1.
          2    1    1    2  502    0 -0.13752332621E+02 -0.19299065227E+02  0.31416957204E+02  0.39352328662E+02  0.00000000000E+00 0.  1.
         -2    1    1    2    0  502  0.13752332621E+02  0.19299065227E+02  0.14163423329E+02  0.27607664362E+02  0.00000000000E+00 0. -1.
<mgrwt>
<rscale>  2 0.23697691E+02</rscale>
<asrwt>0</asrwt>
<pdfrwt beam="1">  1        2 0.86569516E-02 0.23697691E+02</pdfrwt>
<pdfrwt beam="2">  1       -2 0.16445856E-02 0.23697691E+02</pdfrwt>
<totfact> 0.45125460E+05</totfact>
</mgrwt>
</event>
<event>
 4    1  0.7653521E+003  0.2461456E+02  0.7546771E-02  0.1666601E+00
          2   -1    0    0  501    0  0.00000000000E+00  0.00000000000E+00  0.82396934464E+03  0.82396934464E+03  0.00000000000E+00 0.  1.
         -2   -1    0    0    0  501 -0.00000000000E+00 -0.00000000000E+00 -0.21270357276E+01  0.21270357276E+01  0.00000000000E+00 0. -1.
          2    1    1    2  502    0 -0.14713570176E+02  0.19732898371E+02  0.74503116745E+03  0.74543766801E+03  0.00000000000E+00 0.  1.
         -2    1    1    2    0  502  0.14713570176E+02 -0.19732898371E+02  0.76811141463E+02  0.80658712352E+02  0.00000000000E+00 0. -1.
<mgrwt>
<rscale>  2 0.24614557E+02</rscale>
<asrwt>0</asrwt>
<pdfrwt beam="1">  1        2 0.12676426E+00 0.24614557E+02</pdfrwt>
<pdfrwt beam="2">  1       -2 0.32723693E-03 0.24614557E+02</pdfrwt>
<totfact> 0.23853579E+05</totfact>
</mgrwt>
</event>
<event>
 4    1  0.7653521E+003  0.3440624E+02  0.7546771E-02  0.1553937E+00
         -2   -1    0    0    0  501 -0.00000000000E+00  0.00000000000E+00  0.64937447248E+01  0.64937447248E+01  0.00000000000E+00 0. -1.
          2   -1    0    0  501    0  0.00000000000E+00 -0.00000000000E+00 -0.78042833973E+03  0.78042833973E+03  0.00000000000E+00 0. -1.
          2    1    1    2  502    0 -0.33788055810E+02  0.64928136731E+01 -0.73142313425E+03  0.73223192409E+03  0.00000000000E+00 0. -1.
         -2    1    1    2    0  502  0.33788055810E+02 -0.64928136731E+01 -0.42511460753E+02  0.54690160360E+02  0.00000000000E+00 0. -1.
<mgrwt>
<rscale>  2 0.34406240E+02</rscale>
<asrwt>0</asrwt>
<pdfrwt beam="2">  1        2 0.12006581E+00 0.34406240E+02</pdfrwt>
<pdfrwt beam="1">  1       -2 0.99903836E-03 0.34406240E+02</pdfrwt>
<totfact> 0.60047038E+04</totfact>
</mgrwt>
</event>
<event>
 4    1  0.7653521E+003  0.4212319E+02  0.7546771E-02  0.1493144E+00
          2   -1    0    0  501    0  0.00000000000E+00  0.00000000000E+00  0.22875778685E+03  0.22875778685E+03  0.00000000000E+00 0.  1.
         -2   -1    0    0    0  501 -0.00000000000E+00 -0.00000000000E+00 -0.23128909317E+02  0.23128909317E+02  0.00000000000E+00 0. -1.
          2    1    1    2  502    0 -0.16738889505E+02  0.38654527019E+02  0.20549031925E+03  0.20976328131E+03  0.00000000000E+00 0.  1.
         -2    1    1    2    0  502  0.16738889505E+02 -0.38654527019E+02  0.13855828493E+00  0.42123414858E+02  0.00000000000E+00 0. -1.
<mgrwt>
<rscale>  2 0.42123187E+02</rscale>
<asrwt>0</asrwt>
<pdfrwt beam="1">  1        2 0.35193504E-01 0.42123187E+02</pdfrwt>
<pdfrwt beam="2">  1       -2 0.35582939E-02 0.42123187E+02</pdfrwt>
<totfact> 0.37793558E+04</totfact>
</mgrwt>
</event>
<event>
 4    1  0.7653521E+003  0.2267251E+02  0.7546771E-02  0.1696874E+00
         -2   -1    0    0    0  501 -0.00000000000E+00  0.00000000000E+00  0.59826185870E+01  0.59826185870E+01  0.00000000000E+00 0. -1.
          2   -1    0    0  501    0  0.00000000000E+00 -0.00000000000E+00 -0.46109158771E+03  0.46109158771E+03  0.00000000000E+00 0.  1.
          2    1    1    2  502    0 -0.22587349207E+02  0.19632488385E+01 -0.43821139104E+03  0.43879752270E+03  0.00000000000E+00 0.  1.
         -2    1    1    2    0  502  0.22587349207E+02 -0.19632488385E+01 -0.16897578083E+02  0.28276683597E+02  0.00000000000E+00 0. -1.
<mgrwt>
<rscale>  2 0.22672510E+02</rscale>
<asrwt>0</asrwt>
<pdfrwt beam="2">  1        2 0.70937145E-01 0.22672510E+02</pdfrwt>
<pdfrwt beam="1">  1       -2 0.92040315E-03 0.22672510E+02</pdfrwt>
<totfact> 0.10789585E+05</totfact>
</mgrwt>
</event>
<event>
 4    1  0.7653521E+003  0.3743352E+02  0.7546771E-02  0.1527995E+00
         -2   -1    0    0    0  501 -0.00000000000E+00  0.00000000000E+00  0.37824854777E+01  0.37824854777E+01  0.00000000000E+00 0.  1.
          2   -1    0    0  501    0  0.00000000000E+00 -0.00000000000E+00 -0.39296383817E+03  0.39296383817E+03  0.00000000000E+00 0.  1.
          2    1    1    2  502    0 -0.31555116024E+02  0.20138095994E+02 -0.24205996859E+03  0.24493733209E+03  0.00000000000E+00 0.  1.
         -2    1    1    2    0  502  0.31555116024E+02 -0.20138095994E+02 -0.14712138410E+03  0.15180899156E+03  0.00000000000E+00 0.  1.
<mgrwt>
<rscale>  2 0.37433518E+02</rscale>
<asrwt>0</asrwt>
<pdfrwt beam="2">  1        2 0.60455964E-01 0.37433518E+02</pdfrwt>
<pdfrwt beam="1">  1       -2 0.58192095E-03 0.37433518E+02</pdfrwt>
<totfact> 0.26532947E+05</totfact>
</mgrwt>
</event>
<event>
 4    1  0.7653521E+003  0.2551171E+02  0.7546771E-02  0.1653759E+00
         -2   -1    0    0    0  501 -0.00000000000E+00  0.00000000000E+00  0.61443052859E+01  0.61443052859E+01  0.00000000000E+00 0. -1.
          2   -1    0    0  501    0  0.00000000000E+00 -0.00000000000E+00 -0.16113783614E+03  0.16113783614E+03  0.00000000000E+00 0. -1.
          2    1    1    2  502    0 -0.20677806784E+02  0.14942406293E+02 -0.12645586065E+03  0.12900361194E+03  0.00000000000E+00 0. -1.
         -2    1    1    2    0  502  0.20677806784E+02 -0.14942406293E+02 -0.28537670196E+02  0.38278529484E+02  0.00000000000E+00 0. -1.
<mgrwt>
<rscale>  2 0.25511707E+02</rscale>
<asrwt>0</asrwt>
<pdfrwt beam="2">  1        2 0.24790437E-01 0.25511707E+02</pdfrwt>
<pdfrwt beam="1">  1       -2 0.94527772E-03 0.25511707E+02</pdfrwt>
<totfact> 0.30681831E+05</totfact>
</mgrwt>
</event>
<event>
 4    1  0.7653521E+003  0.2281859E+02  0.7546771E-02  0.1694468E+00
          2   -1    0    0  501    0  0.00000000000E+00  0.00000000000E+00  0.11659978354E+01  0.11659978354E+01  0.00000000000E+00 0. -1.
         -2   -1    0    0    0  501 -0.00000000000E+00 -0.00000000000E+00 -0.56484501122E+03  0.56484501122E+03  0.00000000000E+00 0. -1.
          2    1    1    2  502    0 -0.20476926353E+02  0.10068946120E+02 -0.15233204721E+03  0.15403162272E+03  0.00000000000E+00 0. -1.
         -2    1    1    2    0  502  0.20476926353E+02 -0.10068946120E+02 -0.41134696617E+03  0.41197938634E+03  0.00000000000E+00 0. -1.
<mgrwt>
<rscale>  2 0.22818593E+02</rscale>
<asrwt>0</asrwt>
<pdfrwt beam="1">  1        2 0.17938413E-03 0.22818593E+02</pdfrwt>
<pdfrwt beam="2">  1       -2 0.86899307E-01 0.22818593E+02</pdfrwt>
<totfact> 0.11266269E+05</totfact>
</mgrwt>
</event>
<event>
 4    1  0.7653521E+003  0.2020278E+02  0.7546771E-02  0.1741325E+00
          2   -1    0    0  501    0  0.00000000000E+00  0.00000000000E+00  0.10740137827E+03  0.10740137827E+03  0.00000000000E+00 0. -1.
         -2   -1    0    0    0  501 -0.00000000000E+00 -0.00000000000E+00 -0.12095477130E+02  0.12095477130E+02  0.00000000000E+00 0.  1.
          2    1    1    2  502    0 -0.18622046789E+02  0.78340070777E+01  0.97132879779E+02  0.99211635546E+02  0.00000000000E+00 0. -1.
         -2    1    1    2    0  502  0.18622046789E+02 -0.78340070777E+01 -0.18269786402E+01  0.20285219853E+02  0.00000000000E+00 0.  1.
<mgrwt>
<rscale>  2 0.20202779E+02</rscale>
<asrwt>0</asrwt>
<pdfrwt beam="1">  1        2 0.16523288E-01 0.20202779E+02</pdfrwt>
<pdfrwt beam="2">  1       -2 0.18608427E-02 0.20202779E+02</pdfrwt>
<totfact> 0.17595615E+05</totfact>
</mgrwt>
</event>
<event>
 4    1  0.7653521E+003  0.2246355E+02  0.7546771E-02  0.1700356E+00
          2   -1    0    0  501    0  0.00000000000E+00  0.00000000000E+00  0.43860613098E+03  0.43860613098E+03  0.00000000000E+00 0. -1.
         -2   -1    0    0    0  501 -0.00000000000E+00 -0.00000000000E+00 -0.15878985377E+01  0.15878985377E+01  0.00000000000E+00 0.  1.
          2    1    1    2  502    0 -0.26626914176E+01 -0.22305186255E+02  0.33402646347E+03  0.33478095758E+03  0.00000000000E+00 0. -1.
         -2    1    1    2    0  502  0.26626914176E+01  0.22305186255E+02  0.10299176897E+03  0.10541307194E+03  0.00000000000E+00 0.  1.
<mgrwt>
<rscale>  2 0.22463554E+02</rscale>
<asrwt>0</asrwt>
<pdfrwt beam="1">  1        2 0.67477770E-01 0.22463554E+02</pdfrwt>
<pdfrwt beam="2">  1       -2 0.24429243E-03 0.22463554E+02</pdfrwt>
<totfact> 0.66712254E+05</totfact>
</mgrwt>
</event>
<event>
 4    1  0.7653521E+003  0.3669336E+02  0.7546771E-02  0.1534057E+00
          2   -1    0    0  501    0  0.00000000000E+00  0.00000000000E+00  0.10365442900E+04  0.10365442900E+04  0.00000000000E+00 0.  1.
         -2   -1    0    0    0  501 -0.00000000000E+00 -0.00000000000E+00 -0.23175075247E+01  0.23175075247E+01  0.00000000000E+00 0. -1.
          2    1    1    2  502    0 -0.36088907447E+02 -0.66327584423E+01  0.86147392652E+03  0.86225502538E+03  0.00000000000E+00 0.  1.
         -2    1    1    2    0  502  0.36088907447E+02  0.66327584423E+01  0.17275285594E+03  0.17660677212E+03  0.00000000000E+00 0. -1.
<mgrwt>
<rscale>  2 0.36693361E+02</rscale>
<asrwt>0</asrwt>
<pdfrwt beam="1">  1        2 0.15946798E+00 0.36693361E+02</pdfrwt>
<pdfrwt beam="2">  1       -2 0.35654045E-03 0.36693361E+02</pdfrwt>
<totfact> 0.17514511E+05</totfact>
</mgrwt>
</event>
<event>
 4    1  0.7653521E+003  0.2237064E+02  0.7546771E-02  0.1701920E+00
          2   -1    0    0  501    0  0.00000000000E+00  0.00000000000E+00  0.19643220709E+04  0.19643220709E+04  0.00000000000E+00 0.  1.
         -2   -1    0    0    0  501 -0.00000000000E+00 -0.00000000000E+00 -0.33418372376E+00  0.33418372376E+00  0.00000000000E+00 0.  1.
          2    1    1    2  502    0  0.22026339239E+02  0.39097253486E+01  0.14608647269E+04  0.14610360008E+04  0.00000000000E+00 0.  1.
         -2    1    1    2    0  502 -0.22026339239E+02 -0.39097253486E+01  0.50312316029E+03  0.50362025376E+03  0.00000000000E+00 0.  1.
<mgrwt>
<rscale>  2 0.22370641E+02</rscale>
<asrwt>0</asrwt>
<pdfrwt beam="1">  1        2 0.30219415E+00 0.22370641E+02</pdfrwt>
<pdfrwt beam="2">  1       -2 0.51414453E-04 0.22370641E+02</pdfrwt>
<totfact> 0.72890332E+05</totfact>
</mgrwt>
</event>
<event>
 4    1  0.7653521E+003  0.2636433E+02  0.7546771E-02  0.1642145E+00
          2   -1    0    0  501    0  0.00000000000E+00  0.00000000000E+00  0.24315588672E+03  0.24315588672E+03  0.00000000000E+00 0. -1.
         -2   -1    0    0    0  501 -0.00000000000E+00 -0.00000000000E+00 -0.43370950322E+01  0.43370950322E+01  0.00000000000E+00 0. -1.
          2    1    1    2  502    0  0.23817963967E+02 -0.11304098775E+02  0.19166105163E+03  0.19346585427E+03  0.00000000000E+00 0. -1.
         -2    1    1    2    0  502 -0.23817963967E+02  0.11304098775E+02  0.47157740065E+02  0.54027127489E+02  0.00000000000E+00 0. -1.
<mgrwt>
<rscale>  2 0.26364333E+02</rscale>
<asrwt>0</asrwt>
<pdfrwt beam="1">  1        2 0.37408587E-01 0.26364333E+02</pdfrwt>
<pdfrwt beam="2">  1       -2 0.66724558E-03 0.26364333E+02</pdfrwt>
<totfact> 0.32639829E+05</totfact>
</mgrwt>
</event>
<event>
 4    1  0.7653521E+003  0.2289550E+02  0.7546771E-02  0.1693210E+00
          2   -1    0    0  501    0  0.00000000000E+00  0.00000000000E+00  0.49817097463E+03  0.49817097463E+03  0.00000000000E+00 0.  1.
         -2   -1    0    0    0  501 -0.00000000000E+00 -0.00000000000E+00 -0.22399076192E+02  0.22399076192E+02  0.00000000000E+00 0.  1.
          2    1    1    2  502    0 -0.79133726610E+01 -0.21484472410E+02  0.49198363689E+03  0.49251609414E+03  0.00000000000E+00 0.  1.
         -2    1    1    2    0  502  0.79133726610E+01  0.21484472410E+02 -0.16211738454E+02  0.28053956678E+02  0.00000000000E+00 0.  1.
<mgrwt>
<rscale>  2 0.22895502E+02</rscale>
<asrwt>0</asrwt>
<pdfrwt beam="1">  1        2 0.76641680E-01 0.22895502E+02</pdfrwt>
<pdfrwt beam="2">  1       -2 0.34460121E-02 0.22895502E+02</pdfrwt>
<totfact> 0.16405010E+04</totfact>
</mgrwt>
</event>
<event>
 4    1  0.7653521E+003  0.3065160E+02  0.7546771E-02  0.1590996E+00
         -2   -1    0    0    0  501 -0.00000000000E+00  0.00000000000E+00  0.22362671893E+02  0.22362671893E+02  0.00000000000E+00 0.  1.
          2   -1    0    0  501    0  0.00000000000E+00 -0.00000000000E+00 -0.70447764760E+02  0.70447764760E+02  0.00000000000E+00 0. -1.
          2    1    1    2  502    0  0.54341265672E+01  0.30166059254E+02 -0.53524668410E+02  0.61679907513E+02  0.00000000000E+00 0. -1.
         -2    1    1    2    0  502 -0.54341265672E+01 -0.30166059254E+02  0.54395755424E+01  0.31130529140E+02  0.00000000000E+00 0.  1.
<mgrwt>
<rscale>  2 0.30651605E+02</rscale>
<asrwt>0</asrwt>
<pdfrwt beam="2">  1        2 0.10838117E-01 0.30651605E+02</pdfrwt>
<pdfrwt beam="1">  1       -2 0.34404111E-02 0.30651605E+02</pdfrwt>
<totfact> 0.13371447E+05</totfact>
</mgrwt>
</event>
<event>
 4    1  0.7653521E+003  0.2655749E+02  0.7546771E-02  0.1639589E+00
         -2   -1    0    0    0  501 -0.00000000000E+00  0.00000000000E+00  0.10274501759E+04  0.10274501759E+04  0.00000000000E+00 0. -1.
          2   -1    0    0  501    0  0.00000000000E+00 -0.00000000000E+00 -0.84328734176E+01  0.84328734176E+01  0.00000000000E+00 0. -1.
          2    1    1    2  502    0  0.74850286036E+01  0.25480867693E+02  0.13095404143E+02  0.29610637975E+02  0.00000000000E+00 0. -1.
         -2    1    1    2    0  502 -0.74850286036E+01 -0.25480867693E+02  0.10059218983E+04  0.10062724113E+04  0.00000000000E+00 0. -1.
<mgrwt>
<rscale>  2 0.26557490E+02</rscale>
<asrwt>0</asrwt>
<pdfrwt beam="2">  1        2 0.12973660E-02 0.26557490E+02</pdfrwt>
<pdfrwt beam="1">  1       -2 0.15806916E+00 0.26557490E+02</pdfrwt>
<totfact> 0.21808002E+03</totfact>
</mgrwt>
</event>
<event>
 4    1  0.7653521E+003  0.3077006E+02  0.7546771E-02  0.1589729E+00
         -2   -1    0    0    0  501 -0.00000000000E+00  0.00000000000E+00  0.11992840929E+02  0.11992840929E+02  0.00000000000E+00 0.  1.
          2   -1    0    0  501    0  0.00000000000E+00 -0.00000000000E+00 -0.17476477301E+03  0.17476477301E+03  0.00000000000E+00 0.  1.
          2    1    1    2  502    0  0.26266350896E+02 -0.16027328644E+02 -0.15052843044E+03  0.15364115602E+03  0.00000000000E+00 0.  1.
         -2    1    1    2    0  502 -0.26266350896E+02  0.16027328644E+02 -0.12243501648E+02  0.33116457925E+02  0.00000000000E+00 0.  1.
<mgrwt>
<rscale>  2 0.30770058E+02</rscale>
<asrwt>0</asrwt>
<pdfrwt beam="2">  1        2 0.26886889E-01 0.30770058E+02</pdfrwt>
<pdfrwt beam="1">  1       -2 0.18450524E-02 0.30770058E+02</pdfrwt>
<totfact> 0.11822794E+05</totfact>
</mgrwt>
</event>
<event>
 4    1  0.7653521E+003  0.2048940E+02  0.7546771E-02  0.1735767E+00
          2   -1    0    0  501    0  0.00000000000E+00  0.00000000000E+00  0.43444703341E+03  0.43444703341E+03  0.00000000000E+00 0. -1.
         -2   -1    0    0    0  501 -0.00000000000E+00 -0.00000000000E+00 -0.17431522531E+02  0.17431522531E+02  0.00000000000E+00 0.  1.
          2    1    1    2  502    0 -0.99261505301E+00  0.20465338179E+02  0.42809524787E+03  0.42858529676E+03  0.00000000000E+00 0. -1.
         -2    1    1    2    0  502  0.99261505301E+00 -0.20465338179E+02 -0.11079736991E+02  0.23293259179E+02  0.00000000000E+00 0.  1.
<mgrwt>
<rscale>  2 0.20489396E+02</rscale>
<asrwt>0</asrwt>
<pdfrwt beam="1">  1        2 0.66837997E-01 0.20489396E+02</pdfrwt>
<pdfrwt beam="2">  1       -2 0.26817730E-02 0.20489396E+02</pdfrwt>
<totfact> 0.26128868E+04</totfact>
</mgrwt>
</event>
<event>
 4    1  0.7653521E+003  0.3138769E+02  0.7546771E-02  0.1583237E+00
         -2   -1    0    0    0  501 -0.00000000000E+00  0.00000000000E+00  0.35155918009E+03  0.35155918009E+03  0.00000000000E+00 0. -1.
          2   -1    0    0  501    0  0.00000000000E+00 -0.00000000000E+00 -0.10802545307E+02  0.10802545307E+02  0.00000000000E+00 0.  1.
          2    1    1    2  502    0  0.23145157862E+02 -0.21201150666E+02  0.14458995910E+02  0.34557917830E+02  0.00000000000E+00 0.  1.
         -2    1    1    2    0  502 -0.23145157862E+02  0.21201150666E+02  0.32629763888E+03  0.32780380757E+03  0.00000000000E+00 0. -1.
<mgrwt>
<rscale>  2 0.31387691E+02</rscale>
<asrwt>0</asrwt>
<pdfrwt beam="2">  1        2 0.16619303E-02 0.31387691E+02</pdfrwt>
<pdfrwt beam="1">  1       -2 0.54086019E-01 0.31387691E+02</pdfrwt>
<totfact> 0.17177752E+04</totfact>
</mgrwt>
</event>
<event>
 4    1  0.7653521E+003  0.4107966E+02  0.7546771E-02  0.1500413E+00
          2   -1    0    0  501    0  0.00000000000E+00  0.00000000000E+00  0.40211467074E+02  0.40211467074E+02  0.00000000000E+00 0. -1.
         -2   -1    0    0    0  501 -0.00000000000E+00 -0.00000000000E+00 -0.45140590525E+02  0.45140590525E+02  0.00000000000E+00 0.  1.
          2    1    1    2  502    0 -0.16139849057E+02  0.37776229701E+02  0.88517186244E+01  0.42022508024E+02  0.00000000000E+00 0. -1.
         -2    1    1    2    0  502  0.16139849057E+02 -0.37776229701E+02 -0.13780842075E+02  0.43329549575E+02  0.00000000000E+00 0.  1.
<mgrwt>
<rscale>  2 0.41079657E+02</rscale>
<asrwt>0</asrwt>
<pdfrwt beam="1">  1        2 0.61863796E-02 0.41079657E+02</pdfrwt>
<pdfrwt beam="2">  1       -2 0.69447062E-02 0.41079657E+02</pdfrwt>
<totfact> 0.10121812E+05</totfact>
</mgrwt>
</event>
<event>
 4    1  0.7653521E+003  0.2010602E+02  0.7546771E-02  0.1743228E+00
         -2   -1    0    0    0  501 -0.00000000000E+00  0.00000000000E+00  0.39305709933E+03  0.39305709933E+03  0.00000000000E+00 0. -1.
          2   -1    0    0  501    0  0.00000000000E+00 -0.00000000000E+00 -0.10595840699E+01  0.10595840699E+01  0.00000000000E+00 0.  1.
          2    1    1    2  502    0 -0.15120444274E+02 -0.13252331388E+02  0.16223721499E+03  0.16347833511E+03  0.00000000000E+00 0.  1.
         -2    1    1    2    0  502  0.15120444274E+02  0.13252331388E+02  0.22976030027E+03  0.23063834829E+03  0.00000000000E+00 0. -1.
<mgrwt>
<rscale>  2 0.20106022E+02</rscale>
<asrwt>0</asrwt>
<pdfrwt beam="2">  1        2 0.16301325E-03 0.20106022E+02</pdfrwt>
<pdfrwt beam="1">  1       -2 0.60470207E-01 0.20106022E+02</pdfrwt>
<totfact> 0.25848628E+05</totfact>
</mgrwt>
</event>
<event>
 4    1  0.7653521E+003  0.2699234E+02  0.7546771E-02  0.1633931E+00
         -2   -1    0    0    0  501 -0.00000000000E+00  0.00000000000E+00  0.20530254421E+01  0.20530254421E+01  0.00000000000E+00 0.  1.
          2   -1    0    0  501    0  0.00000000000E+00 -0.00000000000E+00 -0.35570224436E+03  0.35570224436E+03  0.00000000000E+00 0.  1.
          2    1    1    2  502    0 -0.32529494566E+01  0.26795598861E+02 -0.16824505143E+03  0.17039654670E+03  0.00000000000E+00 0.  1.
         -2    1    1    2    0  502  0.32529494566E+01 -0.26795598861E+02 -0.18540416749E+03  0.18735872310E+03  0.00000000000E+00 0.  1.
<mgrwt>
<rscale>  2 0.26992342E+02</rscale>
<asrwt>0</asrwt>
<pdfrwt beam="2">  1        2 0.54723384E-01 0.26992342E+02</pdfrwt>
<pdfrwt beam="1">  1       -2 0.31585029E-03 0.26992342E+02</pdfrwt>
<totfact> 0.61589660E+05</totfact>
</mgrwt>
</event>
<event>
 4    1  0.7653521E+003  0.3263338E+02  0.7546771E-02  0.1570680E+00
          2   -1    0    0  501    0  0.00000000000E+00  0.00000000000E+00  0.24972279117E+03  0.24972279117E+03  0.00000000000E+00 0. -1.
         -2   -1    0    0    0  501 -0.00000000000E+00 -0.00000000000E+00 -0.96101640927E+01  0.96101640927E+01  0.00000000000E+00 0.  1.
          2    1    1    2  502    0 -0.32176956538E+02  0.54388306698E+01  0.21676467568E+03  0.21920734940E+03  0.00000000000E+00 0. -1.
         -2    1    1    2    0  502  0.32176956538E+02 -0.54388306698E+01  0.23347951403E+02  0.40125605862E+02  0.00000000000E+00 0.  1.
<mgrwt>
<rscale>  2 0.32633379E+02</rscale>
<asrwt>0</asrwt>
<pdfrwt beam="1">  1        2 0.38418886E-01 0.32633379E+02</pdfrwt>
<pdfrwt beam="2">  1       -2 0.14784870E-02 0.32633379E+02</pdfrwt>
<totfact> 0.11295420E+05</totfact>
</mgrwt>
</event>
<event>
 4    1  0.7653521E+003  0.2215687E+02  0.7546771E-02  0.1705553E+00
          2   -1    0    0  501    0  0.00000000000E+00  0.00000000000E+00  0.84292762910E+02  0.84292762910E+02  0.00000000000E+00 0. -1.
         -2   -1    0    0    0  501 -0.00000000000E+00 -0.00000000000E+00 -0.70405898595E+01  0.70405898595E+01  0.00000000000E+00 0. -1.
          2    1    1    2  502    0  0.19135709095E+02 -0.11169214340E+02  0.57608655737E+02  0.61722637074E+02  0.00000000000E+00 0. -1.
         -2    1    1    2    0  502 -0.19135709095E+02  0.11169214340E+02  0.19643517313E+02  0.29610715695E+02  0.00000000000E+00 0. -1.
<mgrwt>
<rscale>  2 0.22156866E+02</rscale>
<asrwt>0</asrwt>
<pdfrwt beam="1">  1        2 0.12968117E-01 0.22156866E+02</pdfrwt>
<pdfrwt beam="2">  1       -2 0.10831677E-02 0.22156866E+02</pdfrwt>
<totfact> 0.49136445E+05</totfact>
</mgrwt>
</event>
<event>
 4    1  0.7653521E+003  0.3986299E+02  0.7546771E-02  0.1509222E+00
          2   -1    0    0  501    0  0.00000000000E+00  0.00000000000E+00  0.11709740903E+04  0.11709740903E+04  0.00000000000E+00 0.  1.
         -2   -1    0    0    0  501 -0.00000000000E+00 -0.00000000000E+00 -0.21587901249E+02  0.21587901249E+02  0.00000000000E+00 0. -1.
          2    1    1    2  502    0 -0.32466646807E+02  0.23129520764E+02  0.11519284847E+04  0.11526180164E+04  0.00000000000E+00 0.  1.
         -2    1    1    2    0  502  0.32466646807E+02 -0.23129520764E+02 -0.25422956158E+01  0.39943975173E+02  0.00000000000E+00 0. -1.
<mgrwt>
<rscale>  2 0.39862989E+02</rscale>
<asrwt>0</asrwt>
<pdfrwt beam="1">  1        2 0.18014981E+00 0.39862989E+02</pdfrwt>
<pdfrwt beam="2">  1       -2 0.33212165E-02 0.39862989E+02</pdfrwt>
<totfact> 0.68489351E+03</totfact>
</mgrwt>
</event>
<event>
 4    1  0.7653521E+003  0.2107005E+02  0.7546771E-02  0.1724850E+00
         -2   -1    0    0    0  501 -0.00000000000E+00  0.00000000000E+00  0.13312666107E+01  0.13312666107E+01  0.00000000000E+00 0.  1.
          2   -1    0    0  501    0  0.00000000000E+00 -0.00000000000E+00 -0.42188135069E+03  0.42188135069E+03  0.00000000000E+00 0.  1.
          2    1    1    2  502    0  0.20951190281E+02 -0.22348713624E+01 -0.30714070268E+03  0.30786256393E+03  0.00000000000E+00 0.  1.
         -2    1    1    2    0  502 -0.20951190281E+02  0.22348713624E+01 -0.11340938140E+03  0.11535005338E+03  0.00000000000E+00 0.  1.
<mgrwt>
<rscale>  2 0.21070050E+02</rscale>
<asrwt>0</asrwt>
<pdfrwt beam="2">  1        2 0.64904905E-01 0.21070050E+02</pdfrwt>
<pdfrwt beam="1">  1       -2 0.20480999E-03 0.21070050E+02</pdfrwt>
<totfact> 0.85795345E+05</totfact>
</mgrwt>
</event>
<event>
 4    1  0.7653521E+003  0.2758800E+02  0.7546771E-02  0.1626390E+00
         -2   -1    0    0    0  501 -0.00000000000E+00  0.00000000000E+00  0.14798443062E+02  0.14798443062E+02  0.00000000000E+00 0. -1.
          2   -1    0    0  501    0  0.00000000000E+00 -0.00000000000E+00 -0.80117176136E+03  0.80117176136E+03  0.00000000000E+00 0. -1.
          2    1    1    2  502    0  0.59453558661E+01 -0.26939755050E+02 -0.78785934437E+03  0.78834221260E+03  0.00000000000E+00 0. -1.
         -2    1    1    2    0  502 -0.59453558661E+01  0.26939755050E+02  0.14860260730E+01  0.27627991820E+02  0.00000000000E+00 0. -1.
<mgrwt>
<rscale>  2 0.27587998E+02</rscale>
<asrwt>0</asrwt>
<pdfrwt beam="2">  1        2 0.12325719E+00 0.27587998E+02</pdfrwt>
<pdfrwt beam="1">  1       -2 0.22766836E-02 0.27587998E+02</pdfrwt>
<totfact> 0.18085332E+04</totfact>
</mgrwt>
</event>
<event>
 4    1  0.7653521E+003  0.2656514E+02  0.7546771E-02  0.1639488E+00
         -2   -1    0    0    0  501 -0.00000000000E+00  0.00000000000E+00  0.36143895192E+02  0.36143895192E+02  0.00000000000E+00 0.  1.
          2   -1    0    0  501    0  0.00000000000E+00 -0.00000000000E+00 -0.21214780199E+02  0.21214780199E+02  0.00000000000E+00 0. -1.
          2    1    1    2  502    0  0.68827557452E+01 -0.25658023786E+02 -0.62967685699E+00  0.26572598747E+02  0.00000000000E+00 0. -1.
         -2    1    1    2    0  502 -0.68827557452E+01  0.25658023786E+02  0.15558791850E+02  0.30786076643E+02  0.00000000000E+00 0.  1.
<mgrwt>
<rscale>  2 0.26565137E+02</rscale>
<asrwt>0</asrwt>
<pdfrwt beam="2">  1        2 0.32638123E-02 0.26565137E+02</pdfrwt>
<pdfrwt beam="1">  1       -2 0.55605993E-02 0.26565137E+02</pdfrwt>
<totfact> 0.27995361E+05</totfact>
</mgrwt>
</event>
<event>
 4    1  0.7653521E+003  0.3210013E+02  0.7546771E-02  0.1575971E+00
          2   -1    0    0  501    0  0.00000000000E+00  0.00000000000E+00  0.20066972245E+04  0.20066972245E+04  0.00000000000E+00 0. -1.
         -2   -1    0    0    0  501 -0.00000000000E+00 -0.00000000000E+00 -0.51324736067E+01  0.51324736067E+01  0.00000000000E+00 0. -1.
          2    1    1    2  502    0  0.27637879640E+02 -0.16326849747E+02  0.19550519560E+04  0.19553154654E+04  0.00000000000E+00 0. -1.
         -2    1    1    2    0  502 -0.27637879640E+02  0.16326849747E+02  0.46512794864E+02  0.56514232718E+02  0.00000000000E+00 0. -1.
<mgrwt>
<rscale>  2 0.32100131E+02</rscale>
<asrwt>0</asrwt>
<pdfrwt beam="1">  1        2 0.30872202E+00 0.32100131E+02</pdfrwt>
<pdfrwt beam="2">  1       -2 0.78961293E-03 0.32100131E+02</pdfrwt>
<totfact> 0.19383860E+04</totfact>
</mgrwt>
</event>
<event>
 4    1  0.7653521E+003  0.2397846E+02  0.7546771E-02  0.1676123E+00
         -2   -1    0    0    0  501 -0.00000000000E+00  0.00000000000E+00  0.12674718191E+02  0.12674718191E+02  0.00000000000E+00 0.  1.
          2   -1    0    0  501    0  0.00000000000E+00 -0.00000000000E+00 -0.62651644406E+03  0.62651644406E+03  0.00000000000E+00 0.  1.
          2    1    1    2  502    0  0.23965549676E+02 -0.78676331908E+00 -0.61472881728E+03  0.61519629824E+03  0.00000000000E+00 0.  1.
         -2    1    1    2    0  502 -0.23965549676E+02  0.78676331908E+00  0.88709141385E+00  0.23994864012E+02  0.00000000000E+00 0.  1.
<mgrwt>
<rscale>  2 0.23978460E+02</rscale>
<asrwt>0</asrwt>
<pdfrwt beam="2">  1        2 0.96387145E-01 0.23978460E+02</pdfrwt>
<pdfrwt beam="1">  1       -2 0.19499567E-02 0.23978460E+02</pdfrwt>
<totfact> 0.28705105E+04</totfact>
</mgrwt>
</event>
<event>
 4    1  0.7653521E+003  0.3295973E+02  0.7546771E-02  0.1567503E+00
          2   -1    0    0  501    0  0.00000000000E+00  0.00000000000E+00  0.98730216447E+02  0.98730216447E+02  0.00000000000E+00 0. -1.
         -2   -1    0    0    0  501 -0.00000000000E+00 -0.00000000000E+00 -0.18368437912E+03  0.18368437912E+03  0.00000000000E+00 0. -1.
          2    1    1    2  502    0 -0.19023121467E+02  0.26915878091E+02  0.94435573612E+02  0.10002210359E+03  0.00000000000E+00 0. -1.
         -2    1    1    2    0  502  0.19023121467E+02 -0.26915878091E+02 -0.17938973628E+03  0.18239249197E+03  0.00000000000E+00 0. -1.
<mgrwt>
<rscale>  2 0.32959728E+02</rscale>
<asrwt>0</asrwt>
<pdfrwt beam="1">  1        2 0.15189264E-01 0.32959728E+02</pdfrwt>
<pdfrwt beam="2">  1       -2 0.28259135E-01 0.32959728E+02</pdfrwt>
<totfact> 0.37241018E+03</totfact>
</mgrwt>
</event>
<event>
 4    1  0.7653521E+003  0.5381250E+02  0.7546771E-02  0.1425800E+00
         -2   -1    0    0    0  501 -0.00000000000E+00  0.00000000000E+00  0.22157751107E+03  0.22157751107E+03  0.00000000000E+00 0. -1.
          2   -1    0    0  501    0  0.00000000000E+00 -0.00000000000E+00 -0.25299266555E+03  0.25299266555E+03  0.00000000000E+00 0. -1.
          2    1    1    2  502    0 -0.17573820653E+02 -0.50862025619E+02 -0.24678263643E+03  0.25258157982E+03  0.00000000000E+00 0. -1.
         -2    1    1    2    0  502  0.17573820653E+02  0.50862025619E+02  0.21536748196E+03  0.22198859679E+03  0.00000000000E+00 0. -1.
<mgrwt>
<rscale>  2 0.53812497E+02</rscale>
<asrwt>0</asrwt>
<pdfrwt beam="2">  1        2 0.38921948E-01 0.53812497E+02</pdfrwt>
<pdfrwt beam="1">  1       -2 0.34088848E-01 0.53812497E+02</pdfrwt>
<totfact> 0.10186018E+03</totfact>
</mgrwt>
</event>
<event>
 4    1  0.7653521E+003  0.3231300E+02  0.7546771E-02  0.1573844E+00
          2   -1    0    0  501    0  0.00000000000E+00  0.00000000000E+00  0.15687674623E+04  0.15687674623E+04  0.00000000000E+00 0. -1.
         -2   -1    0    0    0  501 -0.00000000000E+00 -0.00000000000E+00 -0.69820394557E+00  0.69820394557E+00  0.00000000000E+00 0. -1.
          2    1    1    2  502    0  0.20562503063E+02 -0.24926158956E+02  0.95368025946E+03  0.95422752382E+03  0.00000000000E+00 0. -1.
         -2    1    1    2    0  502 -0.20562503063E+02  0.24926158956E+02  0.61438899893E+03  0.61523814247E+03  0.00000000000E+00 0. -1.
<mgrwt>
<rscale>  2 0.32312999E+02</rscale>
<asrwt>0</asrwt>
<pdfrwt beam="1">  1        2 0.24134602E+00 0.32312999E+02</pdfrwt>
<pdfrwt beam="2">  1       -2 0.10741725E-03 0.32312999E+02</pdfrwt>
<totfact> 0.46116873E+05</totfact>
</mgrwt>
</event>
<event>
 4    1  0.7653521E+003  0.2210034E+02  0.7546771E-02  0.1706522E+00
          2   -1    0    0  501    0  0.00000000000E+00  0.00000000000E+00  0.14322086008E+04  0.14322086008E+04  0.00000000000E+00 0.  1.
         -2   -1    0    0    0  501 -0.00000000000E+00 -0.00000000000E+00 -0.63325521506E+00  0.63325521506E+00  0.00000000000E+00 0.  1.
          2    1    1    2  502    0 -0.26143297741E+01  0.21945170716E+02  0.12024616969E+04  0.12026647737E+04  0.00000000000E+00 0.  1.
         -2    1    1    2    0  502  0.26143297741E+01 -0.21945170716E+02  0.22911364868E+03  0.23017708237E+03  0.00000000000E+00 0.  1.
<mgrwt>
<rscale>  2 0.22100345E+02</rscale>
<asrwt>0</asrwt>
<pdfrwt beam="1">  1        2 0.22033719E+00 0.22100345E+02</pdfrwt>
<pdfrwt beam="2">  1       -2 0.97425026E-04 0.22100345E+02</pdfrwt>
<totfact> 0.55558606E+05</totfact>
</mgrwt>
</event>
<event>
 4    1  0.7653521E+003  0.2637862E+02  0.7546771E-02  0.1641955E+00
         -2   -1    0    0    0  501 -0.00000000000E+00  0.00000000000E+00  0.18450725914E+01  0.18450725914E+01  0.00000000000E+00 0. -1.
          2   -1    0    0  501    0  0.00000000000E+00 -0.00000000000E+00 -0.88583889516E+03  0.88583889516E+03  0.00000000000E+00 0. -1.
          2    1    1    2  502    0  0.12270582281E+01 -0.26350069594E+02 -0.77834252105E+03  0.77878938867E+03  0.00000000000E+00 0. -1.
         -2    1    1    2    0  502 -0.12270582281E+01  0.26350069594E+02 -0.10565130152E+03  0.10889457908E+03  0.00000000000E+00 0. -1.
<mgrwt>
<rscale>  2 0.26378625E+02</rscale>
<asrwt>0</asrwt>
<pdfrwt beam="2">  1        2 0.13628251E+00 0.26378625E+02</pdfrwt>
<pdfrwt beam="1">  1       -2 0.28385816E-03 0.26378625E+02</pdfrwt>
<totfact> 0.26956600E+05</totfact>
</mgrwt>
</event>
<event>
 4    1  0.7653521E+003  0.3478129E+02  0.7546771E-02  0.1550551E+00
          2   -1    0    0  501    0  0.00000000000E+00  0.00000000000E+00  0.60678966585E+01  0.60678966585E+01  0.00000000000E+00 0. -1.
         -2   -1    0    0    0  501 -0.00000000000E+00 -0.00000000000E+00 -0.19937889287E+03  0.19937889287E+03  0.00000000000E+00 0. -1.
          2    1    1    2  502    0  0.30643906032E+02  0.16452588403E+02 -0.97458213454E+02  0.10347869352E+03  0.00000000000E+00 0. -1.
         -2    1    1    2    0  502 -0.30643906032E+02 -0.16452588403E+02 -0.95852782754E+02  0.10196809601E+03  0.00000000000E+00 0. -1.
<mgrwt>
<rscale>  2 0.34781286E+02</rscale>
<asrwt>0</asrwt>
<pdfrwt beam="1">  1        2 0.93352260E-03 0.34781286E+02</pdfrwt>
<pdfrwt beam="2">  1       -2 0.30673675E-01 0.34781286E+02</pdfrwt>
<totfact> 0.10661771E+05</totfact>
</mgrwt>
</event>
<event>
 4    1  0.7653521E+003  0.2023411E+02  0.7546771E-02  0.1740712E+00
         -2   -1    0    0    0  501 -0.00000000000E+00  0.00000000000E+00  0.24863905207E+01  0.24863905207E+01  0.00000000000E+00 0.  1.
          2   -1    0    0  501    0  0.00000000000E+00 -0.00000000000E+00 -0.72954083087E+03  0.72954083087E+03  0.00000000000E+00 0. -1.
          2    1    1    2  502    0 -0.13675323613E+02  0.14913241758E+02 -0.68559648102E+03  0.68589500220E+03  0.00000000000E+00 0. -1.
         -2    1    1    2    0  502  0.13675323613E+02 -0.14913241758E+02 -0.41457959324E+02  0.46132219186E+02  0.00000000000E+00 0.  1.
<mgrwt>
<rscale>  2 0.20234111E+02</rscale>
<asrwt>0</asrwt>
<pdfrwt beam="2">  1        2 0.11223702E+00 0.20234111E+02</pdfrwt>
<pdfrwt beam="1">  1       -2 0.38252173E-03 0.20234111E+02</pdfrwt>
<totfact> 0.21126496E+05</totfact>
</mgrwt>
</event>
<event>
 4    1  0.7653521E+003  0.2138485E+02  0.7546771E-02  0.1719113E+00
         -2   -1    0    0    0  501 -0.00000000000E+00  0.00000000000E+00  0.20640568466E+02  0.20640568466E+02  0.00000000000E+00 0.  1.
          2   -1    0    0  501    0  0.00000000000E+00 -0.00000000000E+00 -0.37816441935E+02  0.37816441935E+02  0.00000000000E+00 0.  1.
          2    1    1    2  502    0 -0.80059102637E+01  0.19829705782E+02 -0.27397065769E+02  0.34755014650E+02  0.00000000000E+00 0.  1.
         -2    1    1    2    0  502  0.80059102637E+01 -0.19829705782E+02  0.10221192301E+02  0.23701995751E+02  0.00000000000E+00 0.  1.
<mgrwt>
<rscale>  2 0.21384850E+02</rscale>
<asrwt>0</asrwt>
<pdfrwt beam="2">  1        2 0.58179141E-02 0.21384850E+02</pdfrwt>
<pdfrwt beam="1">  1       -2 0.31754721E-02 0.21384850E+02</pdfrwt>
<totfact> 0.28355460E+05</totfact>
</mgrwt>
</event>
<event>
 4    1  0.7653521E+003  0.3249889E+02  0.7546771E-02  0.1572003E+00
          2   -1    0    0  501    0  0.00000000000E+00  0.00000000000E+00  0.14574635210E+03  0.14574635210E+03  0.00000000000E+00 0.  1.
         -2   -1    0    0    0  501 -0.00000000000E+00 -0.00000000000E+00 -0.11815003332E+03  0.11815003332E+03  0.00000000000E+00 0.  1.
          2    1    1    2  502    0 -0.11742900491E+01  0.32477666364E+02  0.14163583125E+03  0.14531650444E+03  0.00000000000E+00 0.  1.
         -2    1    1    2    0  502  0.11742900491E+01 -0.32477666364E+02 -0.11403951246E+03  0.11857988098E+03  0.00000000000E+00 0.  1.
<mgrwt>
<rscale>  2 0.32498889E+02</rscale>
<asrwt>0</asrwt>
<pdfrwt beam="1">  1        2 0.22422516E-01 0.32498889E+02</pdfrwt>
<pdfrwt beam="2">  1       -2 0.18176928E-01 0.32498889E+02</pdfrwt>
<totfact> 0.50665157E+03</totfact>
</mgrwt>
</event>
<event>
 4    1  0.7653521E+003  0.2249515E+02  0.7546771E-02  0.1699827E+00
          2   -1    0    0  501    0  0.00000000000E+00  0.00000000000E+00  0.16822326499E+04  0.16822326499E+04  0.00000000000E+00 0. -1.
         -2   -1    0    0    0  501 -0.00000000000E+00 -0.00000000000E+00 -0.82852542744E+00  0.82852542744E+00  0.00000000000E+00 0.  1.
          2    1    1    2  502    0  0.17615190731E+02 -0.13990603303E+02  0.15123118206E+04  0.15124791155E+04  0.00000000000E+00 0. -1.
         -2    1    1    2    0  502 -0.17615190731E+02  0.13990603303E+02  0.16909230382E+03  0.17058205983E+03  0.00000000000E+00 0.  1.
<mgrwt>
<rscale>  2 0.22495153E+02</rscale>
<asrwt>0</asrwt>
<pdfrwt beam="1">  1        2 0.25880229E+00 0.22495153E+02</pdfrwt>
<pdfrwt beam="2">  1       -2 0.12746680E-03 0.22495153E+02</pdfrwt>
<totfact> 0.29924008E+05</totfact>
</mgrwt>
</event>
<event>
 4    1  0.7653521E+003  0.2061709E+02  0.7546771E-02  0.1733328E+00
         -2   -1    0    0    0  501 -0.00000000000E+00  0.00000000000E+00  0.12381379780E+01  0.12381379780E+01  0.00000000000E+00 0.  1.
          2   -1    0    0  501    0  0.00000000000E+00 -0.00000000000E+00 -0.41500526425E+03  0.41500526425E+03  0.00000000000E+00 0. -1.
          2    1    1    2  502    0  0.20616838267E+02  0.10251135265E+00 -0.29338778762E+03  0.29411130283E+03  0.00000000000E+00 0. -1.
         -2    1    1    2    0  502 -0.20616838267E+02 -0.10251135265E+00 -0.12037933865E+03  0.12213209939E+03  0.00000000000E+00 0.  1.
<mgrwt>
<rscale>  2 0.20617093E+02</rscale>
<asrwt>0</asrwt>
<pdfrwt beam="2">  1        2 0.63847028E-01 0.20617093E+02</pdfrwt>
<pdfrwt beam="1">  1       -2 0.19048257E-03 0.20617093E+02</pdfrwt>
<totfact> 0.95268045E+05</totfact>
</mgrwt>
</event>
<event>
 4    1  0.7653521E+003  0.2977280E+02  0.7546771E-02  0.1600614E+00
          2   -1    0    0  501    0  0.00000000000E+00  0.00000000000E+00  0.19806931061E+04  0.19806931061E+04  0.00000000000E+00 0. -1.
         -2   -1    0    0    0  501 -0.00000000000E+00 -0.00000000000E+00 -0.45510860166E+02  0.45510860166E+02  0.00000000000E+00 0. -1.
          2    1    1    2  502    0 -0.57426814172E+01  0.29213712112E+02  0.19756996437E+04  0.19759239615E+04  0.00000000000E+00 0. -1.
         -2    1    1    2    0  502  0.57426814172E+01 -0.29213712112E+02 -0.40517397744E+02  0.50280004825E+02  0.00000000000E+00 0. -1.
<mgrwt>
<rscale>  2 0.29772796E+02</rscale>
<asrwt>0</asrwt>
<pdfrwt beam="1">  1        2 0.30472195E+00 0.29772796E+02</pdfrwt>
<pdfrwt beam="2">  1       -2 0.70016723E-02 0.29772796E+02</pdfrwt>
<totfact> 0.93564801E+02</totfact>
</mgrwt>
</event>
<event>
 4    1  0.7653521E+003  0.2110131E+02  0.7546771E-02  0.1724274E+00
          2   -1    0    0  501    0  0.00000000000E+00  0.00000000000E+00  0.99994642862E+01  0.99994642862E+01  0.00000000000E+00 0. -1.
         -2   -1    0    0    0  501 -0.00000000000E+00 -0.00000000000E+00 -0.85010099014E+02  0.85010099014E+02  0.00000000000E+00 0.  1.
          2    1    1    2  502    0  0.51429430786E+01 -0.20464983837E+02 -0.47238342790E+01  0.21623599082E+02  0.00000000000E+00 0. -1.
         -2    1    1    2    0  502 -0.51429430786E+01  0.20464983837E+02 -0.70286800449E+02  0.73385964219E+02  0.00000000000E+00 0.  1.
<mgrwt>
<rscale>  2 0.21101313E+02</rscale>
<asrwt>0</asrwt>
<pdfrwt beam="1">  1        2 0.15383791E-02 0.21101313E+02</pdfrwt>
<pdfrwt beam="2">  1       -2 0.13078477E-01 0.21101313E+02</pdfrwt>
<totfact> 0.19377463E+05</totfact>
</mgrwt>
</event>
<event>
 4    1  0.7653521E+003  0.2837753E+02  0.7546771E-02  0.1616748E+00
          2   -1    0    0  501    0  0.00000000000E+00  0.00000000000E+00  0.18326404387E+02  0.18326404387E+02  0.00000000000E+00 0. -1.
         -2   -1    0    0    0  501 -0.00000000000E+00 -0.00000000000E+00 -0.82621898623E+02  0.82621898623E+02  0.00000000000E+00 0.  1.
          2    1    1    2  502    0  0.58762368528E+01  0.27762456533E+02  0.23879805541E+01  0.28477826523E+02  0.00000000000E+00 0. -1.
         -2    1    1    2    0  502 -0.58762368528E+01 -0.27762456533E+02 -0.66683474790E+02  0.72470476488E+02  0.00000000000E+00 0.  1.
<mgrwt>
<rscale>  2 0.28377529E+02</rscale>
<asrwt>0</asrwt>
<pdfrwt beam="1">  1        2 0.28194468E-02 0.28377529E+02</pdfrwt>
<pdfrwt beam="2">  1       -2 0.12711061E-01 0.28377529E+02</pdfrwt>
<totfact> 0.10086435E+05</totfact>
</mgrwt>
</event>
<event>
 4    1  0.7653521E+003  0.2282426E+02  0.7546771E-02  0.1694375E+00
          2   -1    0    0  501    0  0.00000000000E+00  0.00000000000E+00  0.42021052124E+03  0.42021052124E+03  0.00000000000E+00 0. -1.
         -2   -1    0    0    0  501 -0.00000000000E+00 -0.00000000000E+00 -0.34953577370E+01  0.34953577370E+01  0.00000000000E+00 0. -1.
          2    1    1    2  502    0  0.94202548461E+01 -0.20789554197E+02  0.37854309194E+03  0.37923056209E+03  0.00000000000E+00 0. -1.
         -2    1    1    2    0  502 -0.94202548461E+01  0.20789554197E+02  0.38172071564E+02  0.44475316891E+02  0.00000000000E+00 0. -1.
<mgrwt>
<rscale>  2 0.22824258E+02</rscale>
<asrwt>0</asrwt>
<pdfrwt beam="1">  1        2 0.64647733E-01 0.22824258E+02</pdfrwt>
<pdfrwt beam="2">  1       -2 0.53774767E-03 0.22824258E+02</pdfrwt>
<totfact> 0.24418555E+05</totfact>
</mgrwt>
</event>
<event>
 4    1  0.7653521E+003  0.2661388E+02  0.7546771E-02  0.1638848E+00
          2   -1    0    0  501    0  0.00000000000E+00  0.00000000000E+00  0.28487031607E+03  0.28487031607E+03  0.00000000000E+00 0.  1.
         -2   -1    0    0    0  501 -0.00000000000E+00 -0.00000000000E+00 -0.31365600532E+01  0.31365600532E+01  0.00000000000E+00 0.  1.
          2    1    1    2  502    0 -0.23511964077E+02 -0.12469414411E+02  0.20642997881E+03  0.20813849933E+03  0.00000000000E+00 0.  1.
         -2    1    1    2    0  502  0.23511964077E+02  0.12469414411E+02  0.75303777213E+02  0.79868376802E+02  0.00000000000E+00 0.  1.
<mgrwt>
<rscale>  2 0.26613883E+02</rscale>
<asrwt>0</asrwt>
<pdfrwt beam="1">  1        2 0.43826182E-01 0.26613883E+02</pdfrwt>
<pdfrwt beam="2">  1       -2 0.48254792E-03 0.26613883E+02</pdfrwt>
<totfact> 0.43271336E+05</totfact>
</mgrwt>
</event>
<event>
 4    1  0.7653521E+003  0.2251321E+02  0.7546771E-02  0.1699525E+00
         -2   -1    0    0    0  501 -0.00000000000E+00  0.00000000000E+00  0.14950342610E+01  0.14950342610E+01  0.00000000000E+00 0. -1.
          2   -1    0    0  501    0  0.00000000000E+00 -0.00000000000E+00 -0.15062440668E+04  0.15062440668E+04  0.00000000000E+00 0. -1.
          2    1    1    2  502    0 -0.19432013259E+02  0.11368435122E+02 -0.14160043483E+04  0.14161833069E+04  0.00000000000E+00 0. -1.
         -2    1    1    2    0  502  0.19432013259E+02 -0.11368435122E+02 -0.88744684293E+02  0.91555794173E+02  0.00000000000E+00 0. -1.
<mgrwt>
<rscale>  2 0.22513206E+02</rscale>
<asrwt>0</asrwt>
<pdfrwt beam="2">  1        2 0.23172881E+00 0.22513206E+02</pdfrwt>
<pdfrwt beam="1">  1       -2 0.23000631E-03 0.22513206E+02</pdfrwt>
<totfact> 0.16575507E+05</totfact>
</mgrwt>
</event>
<event>
 4    1  0.7653521E+003  0.2405958E+02  0.7546771E-02  0.1674889E+00
         -2   -1    0    0    0  501 -0.00000000000E+00  0.00000000000E+00  0.17841086921E+03  0.17841086921E+03  0.00000000000E+00 0. -1.
          2   -1    0    0  501    0  0.00000000000E+00 -0.00000000000E+00 -0.13673775632E+02  0.13673775632E+02  0.00000000000E+00 0. -1.
          2    1    1    2  502    0  0.15663883365E+02  0.18262153835E+02 -0.15087450078E+01  0.24106841690E+02  0.00000000000E+00 0. -1.
         -2    1    1    2    0  502 -0.15663883365E+02 -0.18262153835E+02  0.16624583858E+03  0.16797780315E+03  0.00000000000E+00 0. -1.
<mgrwt>
<rscale>  2 0.24059582E+02</rscale>
<asrwt>0</asrwt>
<pdfrwt beam="2">  1        2 0.21036579E-02 0.24059582E+02</pdfrwt>
<pdfrwt beam="1">  1       -2 0.27447824E-01 0.24059582E+02</pdfrwt>
<totfact> 0.40967353E+04</totfact>
</mgrwt>
</event>
<event>
 4    1  0.7653521E+003  0.2364247E+02  0.7546771E-02  0.1681303E+00
         -2   -1    0    0    0  501 -0.00000000000E+00  0.00000000000E+00  0.12107249410E+03  0.12107249410E+03  0.00000000000E+00 0.  1.
          2   -1    0    0  501    0  0.00000000000E+00 -0.00000000000E+00 -0.50319128041E+02  0.50319128041E+02  0.00000000000E+00 0. -1.
          2    1    1    2  502    0 -0.15776085134E+02  0.17609127445E+02 -0.46293259725E+02  0.51981074705E+02  0.00000000000E+00 0. -1.
         -2    1    1    2    0  502  0.15776085134E+02 -0.17609127445E+02  0.11704662578E+03  0.11941054743E+03  0.00000000000E+00 0.  1.
<mgrwt>
<rscale>  2 0.23642467E+02</rscale>
<asrwt>0</asrwt>
<pdfrwt beam="2">  1        2 0.77414043E-02 0.23642467E+02</pdfrwt>
<pdfrwt beam="1">  1       -2 0.18626537E-01 0.23642467E+02</pdfrwt>
<totfact> 0.15359928E+04</totfact>
</mgrwt>
</event>
<event>
 4    1  0.7653521E+003  0.2581136E+02  0.7546771E-02  0.1649614E+00
          2   -1    0    0  501    0  0.00000000000E+00  0.00000000000E+00  0.11545733253E+03  0.11545733253E+03  0.00000000000E+00 0.  1.
         -2   -1    0    0    0  501 -0.00000000000E+00 -0.00000000000E+00 -0.25314132779E+02  0.25314132779E+02  0.00000000000E+00 0.  1.
          2    1    1    2  502    0  0.25619745031E+02 -0.31392777082E+01  0.10691704127E+03  0.10998854538E+03  0.00000000000E+00 0.  1.
         -2    1    1    2    0  502 -0.25619745031E+02  0.31392777082E+01 -0.16773841522E+02  0.30782919929E+02  0.00000000000E+00 0.  1.
<mgrwt>
<rscale>  2 0.25811362E+02</rscale>
<asrwt>0</asrwt>
<pdfrwt beam="1">  1        2 0.17762666E-01 0.25811362E+02</pdfrwt>
<pdfrwt beam="2">  1       -2 0.38944820E-02 0.25811362E+02</pdfrwt>
<totfact> 0.62176762E+04</totfact>
</mgrwt>
</event>
<event>
 4    1  0.7653521E+003  0.2143824E+02  0.7546771E-02  0.1718152E+00
         -2   -1    0    0    0  501 -0.00000000000E+00  0.00000000000E+00  0.21663626263E+02  0.21663626263E+02  0.00000000000E+00 0. -1.
          2   -1    0    0  501    0  0.00000000000E+00 -0.00000000000E+00 -0.25683033567E+02  0.25683033567E+02  0.00000000000E+00 0.  1.
          2    1    1    2  502    0 -0.20777259809E+02  0.52823874886E+01 -0.11883512872E+02  0.24511548726E+02  0.00000000000E+00 0. -1.
         -2    1    1    2    0  502  0.20777259809E+02 -0.52823874886E+01  0.78641055678E+01  0.22835111104E+02  0.00000000000E+00 0.  1.
<mgrwt>
<rscale>  2 0.21438240E+02</rscale>
<asrwt>0</asrwt>
<pdfrwt beam="2">  1        2 0.39512359E-02 0.21438240E+02</pdfrwt>
<pdfrwt beam="1">  1       -2 0.33328656E-02 0.21438240E+02</pdfrwt>
<totfact> 0.42584179E+05</totfact>
</mgrwt>
</event>
<event>
 4    1  0.7653521E+003  0.2608558E+02  0.7546771E-02  0.1645882E+00
          2   -1    0    0  501    0  0.00000000000E+00  0.00000000000E+00  0.10962780621E+04  0.10962780621E+04  0.00000000000E+00 0. -1.
         -2   -1    0    0    0  501 -0.00000000000E+00 -0.00000000000E+00 -0.30440024119E+02  0.30440024119E+02  0.00000000000E+00 0. -1.
          2    1    1    2  502    0  0.35340115760E+01 -0.25845083572E+02  0.10905047951E+04  0.10908167425E+04  0.00000000000E+00 0. -1.
         -2    1    1    2    0  502 -0.35340115760E+01  0.25845083572E+02 -0.24666757049E+02  0.35901343790E+02  0.00000000000E+00 0. -1.
<mgrwt>
<rscale>  2 0.26085582E+02</rscale>
<asrwt>0</asrwt>
<pdfrwt beam="1">  1        2 0.16865813E+00 0.26085582E+02</pdfrwt>
<pdfrwt beam="2">  1       -2 0.46830815E-02 0.26085582E+02</pdfrwt>
<totfact> 0.44494571E+03</totfact>
</mgrwt>
</event>
<event>
 4    1  0.7653521E+003  0.2443533E+02  0.7546771E-02  0.1669247E+00
          2   -1    0    0  501    0  0.00000000000E+00  0.00000000000E+00  0.26925215113E+03  0.26925215113E+03  0.00000000000E+00 0. -1.
         -2   -1    0    0    0  501 -0.00000000000E+00 -0.00000000000E+00 -0.15053598268E+02  0.15053598268E+02  0.00000000000E+00 0.  1.
          2    1    1    2  502    0 -0.13800134778E+02 -0.20165355364E+02  0.25836484732E+03  0.25951778283E+03  0.00000000000E+00 0. -1.
         -2    1    1    2    0  502  0.13800134778E+02  0.20165355364E+02 -0.41662944582E+01  0.24787966564E+02  0.00000000000E+00 0.  1.
<mgrwt>
<rscale>  2 0.24435328E+02</rscale>
<asrwt>0</asrwt>
<pdfrwt beam="1">  1        2 0.41423404E-01 0.24435328E+02</pdfrwt>
<pdfrwt beam="2">  1       -2 0.23159384E-02 0.24435328E+02</pdfrwt>
<totfact> 0.53048891E+04</totfact>
</mgrwt>
</event>
<event>
 4    1  0.7653521E+003  0.2494520E+02  0.7546771E-02  0.1661790E+00
          2   -1    0    0  501    0  0.00000000000E+00  0.00000000000E+00  0.36145824314E+03  0.36145824314E+03  0.00000000000E+00 0.  1.
         -2   -1    0    0    0  501 -0.00000000000E+00 -0.00000000000E+00 -0.87994904473E+01  0.87994904473E+01  0.00000000000E+00 0.  1.
          2    1    1    2  502    0  0.20540250470E+00 -0.24944353365E+02  0.34236424319E+03  0.34327181354E+03  0.00000000000E+00 0.  1.
         -2    1    1    2    0  502 -0.20540250470E+00  0.24944353365E+02  0.10294509503E+02  0.26985920049E+02  0.00000000000E+00 0.  1.
<mgrwt>
<rscale>  2 0.24945199E+02</rscale>
<asrwt>0</asrwt>
<pdfrwt beam="1">  1        2 0.55608949E-01 0.24945199E+02</pdfrwt>
<pdfrwt beam="2">  1       -2 0.13537680E-02 0.24945199E+02</pdfrwt>
<totfact> 0.83181661E+04</totfact>
</mgrwt>
</event>
<event>
 4    1  0.7653521E+003  0.2315053E+02  0.7546771E-02  0.1689082E+00
         -2   -1    0    0    0  501 -0.00000000000E+00  0.00000000000E+00  0.20962379617E+01  0.20962379617E+01  0.00000000000E+00 0.  1.
          2   -1    0    0  501    0  0.00000000000E+00 -0.00000000000E+00 -0.11959671535E+04  0.11959671535E+04  0.00000000000E+00 0.  1.
          2    1    1    2  502    0 -0.71200243870E+01 -0.22028448018E+02 -0.11280919625E+04  0.11283294834E+04  0.00000000000E+00 0.  1.
         -2    1    1    2    0  502  0.71200243870E+01  0.22028448018E+02 -0.65778952997E+02  0.69733908013E+02  0.00000000000E+00 0.  1.
<mgrwt>
<rscale>  2 0.23150535E+02</rscale>
<asrwt>0</asrwt>
<pdfrwt beam="2">  1        2 0.18399470E+00 0.23150535E+02</pdfrwt>
<pdfrwt beam="1">  1       -2 0.32249858E-03 0.23150535E+02</pdfrwt>
<totfact> 0.15033171E+05</totfact>
</mgrwt>
</event>
<event>
 4    1  0.7653521E+003  0.2206359E+02  0.7546771E-02  0.1707154E+00
         -2   -1    0    0    0  501 -0.00000000000E+00  0.00000000000E+00  0.46038101895E+00  0.46038101895E+00  0.00000000000E+00 0.  1.
          2   -1    0    0  501    0  0.00000000000E+00 -0.00000000000E+00 -0.10659558693E+04  0.10659558693E+04  0.00000000000E+00 0.  1.
          2    1    1    2  502    0  0.84524341050E+01 -0.20380335762E+02 -0.48494601928E+03  0.48544767312E+03  0.00000000000E+00 0.  1.
         -2    1    1    2    0  502 -0.84524341050E+01  0.20380335762E+02 -0.58054946904E+03  0.58096857723E+03  0.00000000000E+00 0.  1.
<mgrwt>
<rscale>  2 0.22063595E+02</rscale>
<asrwt>0</asrwt>
<pdfrwt beam="2">  1        2 0.16399147E+00 0.22063595E+02</pdfrwt>
<pdfrwt beam="1">  1       -2 0.70828602E-04 0.22063595E+02</pdfrwt>
<totfact> 0.12811102E+06</totfact>
</mgrwt>
</event>
<event>
 4    1  0.7653521E+003  0.2922342E+02  0.7546771E-02  0.1606835E+00
          2   -1    0    0  501    0  0.00000000000E+00  0.00000000000E+00  0.11552001626E+04  0.11552001626E+04  0.00000000000E+00 0.  1.
         -2   -1    0    0    0  501 -0.00000000000E+00 -0.00000000000E+00 -0.76837653925E+03  0.76837653925E+03  0.00000000000E+00 0. -1.
          2    1    1    2  502    0 -0.36307758550E+00 -0.29221168806E+02  0.11547373716E+04  0.11551070972E+04  0.00000000000E+00 0.  1.
         -2    1    1    2    0  502  0.36307758550E+00  0.29221168806E+02 -0.76791374827E+03  0.76846960467E+03  0.00000000000E+00 0. -1.
<mgrwt>
<rscale>  2 0.29223424E+02</rscale>
<asrwt>0</asrwt>
<pdfrwt beam="1">  1        2 0.17772310E+00 0.29223424E+02</pdfrwt>
<pdfrwt beam="2">  1       -2 0.11821178E+00 0.29223424E+02</pdfrwt>
<totfact> 0.15357339E+01</totfact>
</mgrwt>
</event>
<event>
 4    1  0.7653521E+003  0.2599375E+02  0.7546771E-02  0.1647125E+00
         -2   -1    0    0    0  501 -0.00000000000E+00  0.00000000000E+00  0.12982447478E+01  0.12982447478E+01  0.00000000000E+00 0.  1.
          2   -1    0    0  501    0  0.00000000000E+00 -0.00000000000E+00 -0.19643508768E+04  0.19643508768E+04  0.00000000000E+00 0. -1.
          2    1    1    2  502    0  0.25825857346E+02  0.29495655972E+01 -0.18241521473E+04  0.18243373404E+04  0.00000000000E+00 0. -1.
         -2    1    1    2    0  502 -0.25825857346E+02 -0.29495655972E+01 -0.13890048476E+03  0.14131178122E+03  0.00000000000E+00 0.  1.
<mgrwt>
<rscale>  2 0.25993746E+02</rscale>
<asrwt>0</asrwt>
<pdfrwt beam="2">  1        2 0.30220723E+00 0.25993746E+02</pdfrwt>
<pdfrwt beam="1">  1       -2 0.19973036E-03 0.25993746E+02</pdfrwt>
<totfact> 0.12568445E+05</totfact>
</mgrwt>
</event>
<event>
 4    1  0.7653521E+003  0.3896932E+02  0.7546771E-02  0.1515936E+00
          2   -1    0    0  501    0  0.00000000000E+00  0.00000000000E+00  0.26865022956E+02  0.26865022956E+02  0.00000000000E+00 0. -1.
         -2   -1    0    0    0  501 -0.00000000000E+00 -0.00000000000E+00 -0.84924040940E+02  0.84924040940E+02  0.00000000000E+00 0. -1.
          2    1    1    2  502    0 -0.48287332522E+01  0.38668996724E+02  0.32917323116E+01  0.39108099853E+02  0.00000000000E+00 0. -1.
         -2    1    1    2    0  502  0.48287332522E+01 -0.38668996724E+02 -0.61350750296E+02  0.72680964044E+02  0.00000000000E+00 0. -1.
<mgrwt>
<rscale>  2 0.38969321E+02</rscale>
<asrwt>0</asrwt>
<pdfrwt beam="1">  1        2 0.41330805E-02 0.38969321E+02</pdfrwt>
<pdfrwt beam="2">  1       -2 0.13065237E-01 0.38969321E+02</pdfrwt>
<totfact> 0.63725879E+04</totfact>
</mgrwt>
</event>
<event>
 4    1  0.7653521E+003  0.2633839E+02  0.7546771E-02  0.1642490E+00
          2   -1    0    0  501    0  0.00000000000E+00  0.00000000000E+00  0.10637390945E+03  0.10637390945E+03  0.00000000000E+00 0. -1.
         -2   -1    0    0    0  501 -0.00000000000E+00 -0.00000000000E+00 -0.12402357860E+03  0.12402357860E+03  0.00000000000E+00 0. -1.
          2    1    1    2  502    0 -0.10039982280E+02  0.24349734121E+02  0.10330430903E+03  0.10660905712E+03  0.00000000000E+00 0. -1.
         -2    1    1    2    0  502  0.10039982280E+02 -0.24349734121E+02 -0.12095397818E+03  0.12378843094E+03  0.00000000000E+00 0. -1.
<mgrwt>
<rscale>  2 0.26338390E+02</rscale>
<asrwt>0</asrwt>
<pdfrwt beam="1">  1        2 0.16365217E-01 0.26338390E+02</pdfrwt>
<pdfrwt beam="2">  1       -2 0.19080550E-01 0.26338390E+02</pdfrwt>
<totfact> 0.64094157E+03</totfact>
</mgrwt>
</event>
<event>
 4    1  0.7653521E+003  0.2247083E+02  0.7546771E-02  0.1700234E+00
          2   -1    0    0  501    0  0.00000000000E+00  0.00000000000E+00  0.69111743266E+03  0.69111743266E+03  0.00000000000E+00 0. -1.
         -2   -1    0    0    0  501 -0.00000000000E+00 -0.00000000000E+00 -0.17964779262E+03  0.17964779262E+03  0.00000000000E+00 0.  1.
          2    1    1    2  502    0 -0.78453386835E+01 -0.21056802584E+02  0.69023119974E+03  0.69059687761E+03  0.00000000000E+00 0. -1.
         -2    1    1    2    0  502  0.78453386835E+01  0.21056802584E+02 -0.17876155970E+03  0.18016834767E+03  0.00000000000E+00 0.  1.
<mgrwt>
<rscale>  2 0.22470832E+02</rscale>
<asrwt>0</asrwt>
<pdfrwt beam="1">  1        2 0.10632576E+00 0.22470832E+02</pdfrwt>
<pdfrwt beam="2">  1       -2 0.27638122E-01 0.22470832E+02</pdfrwt>
<totfact> 0.50792575E+02</totfact>
</mgrwt>
</event>
<event>
 4    1  0.7653521E+003  0.3575421E+02  0.7546771E-02  0.1542003E+00
         -2   -1    0    0    0  501 -0.00000000000E+00  0.00000000000E+00  0.23987356272E+02  0.23987356272E+02  0.00000000000E+00 0.  1.
          2   -1    0    0  501    0  0.00000000000E+00 -0.00000000000E+00 -0.15919474555E+03  0.15919474555E+03  0.00000000000E+00 0. -1.
          2    1    1    2  502    0 -0.75141901115E+01 -0.34955697748E+02 -0.14230698848E+03  0.14672982937E+03  0.00000000000E+00 0. -1.
         -2    1    1    2    0  502  0.75141901115E+01  0.34955697748E+02  0.70995991989E+01  0.36452272451E+02  0.00000000000E+00 0.  1.
<mgrwt>
<rscale>  2 0.35754215E+02</rscale>
<asrwt>0</asrwt>
<pdfrwt beam="2">  1        2 0.24491499E-01 0.35754215E+02</pdfrwt>
<pdfrwt beam="1">  1       -2 0.36903625E-02 0.35754215E+02</pdfrwt>
<totfact> 0.50836285E+04</totfact>
</mgrwt>
</event>
<event>
 4    1  0.7653521E+003  0.2956408E+02  0.7546771E-02  0.1602958E+00
         -2   -1    0    0    0  501 -0.00000000000E+00  0.00000000000E+00  0.20113626874E+02  0.20113626874E+02  0.00000000000E+00 0.  1.
          2   -1    0    0  501    0  0.00000000000E+00 -0.00000000000E+00 -0.57504786938E+03  0.57504786938E+03  0.00000000000E+00 0. -1.
          2    1    1    2  502    0 -0.10693122494E+02 -0.27562506068E+02 -0.56358333364E+03  0.56435822716E+03  0.00000000000E+00 0. -1.
         -2    1    1    2    0  502  0.10693122494E+02  0.27562506068E+02  0.86490911324E+01  0.30803269094E+02  0.00000000000E+00 0.  1.
<mgrwt>
<rscale>  2 0.29564076E+02</rscale>
<asrwt>0</asrwt>
<pdfrwt beam="2">  1        2 0.88468897E-01 0.29564076E+02</pdfrwt>
<pdfrwt beam="1">  1       -2 0.30944043E-02 0.29564076E+02</pdfrwt>
<totfact> 0.17096416E+04</totfact>
</mgrwt>
</event>
<event>
 4    1  0.7653521E+003  0.2382896E+02  0.7546771E-02  0.1678415E+00
         -2   -1    0    0    0  501 -0.00000000000E+00  0.00000000000E+00  0.27285782654E+01  0.27285782654E+01  0.00000000000E+00 0. -1.
          2   -1    0    0  501    0  0.00000000000E+00 -0.00000000000E+00 -0.15713706454E+04  0.15713706454E+04  0.00000000000E+00 0. -1.
          2    1    1    2  502    0 -0.19967297488E+02  0.13004853678E+02 -0.15174049867E+04  0.15175920772E+04  0.00000000000E+00 0. -1.
         -2    1    1    2    0  502  0.19967297488E+02 -0.13004853678E+02 -0.51237080487E+02  0.56507146495E+02  0.00000000000E+00 0. -1.
<mgrwt>
<rscale>  2 0.23828957E+02</rscale>
<asrwt>0</asrwt>
<pdfrwt beam="2">  1        2 0.24174997E+00 0.23828957E+02</pdfrwt>
<pdfrwt beam="1">  1       -2 0.41978016E-03 0.23828957E+02</pdfrwt>
<totfact> 0.70070029E+04</totfact>
</mgrwt>
</event>
<event>
 4    1  0.7653521E+003  0.2097189E+02  0.7546771E-02  0.1726664E+00
         -2   -1    0    0    0  501 -0.00000000000E+00  0.00000000000E+00  0.18544698546E+01  0.18544698546E+01  0.00000000000E+00 0. -1.
          2   -1    0    0  501    0  0.00000000000E+00 -0.00000000000E+00 -0.14203123399E+04  0.14203123399E+04  0.00000000000E+00 0. -1.
          2    1    1    2  502    0  0.81290554702E+00  0.20956132762E+02 -0.13582331791E+04  0.13583950785E+04  0.00000000000E+00 0. -1.
         -2    1    1    2    0  502 -0.81290554702E+00 -0.20956132762E+02 -0.60224690959E+02  0.63771731331E+02  0.00000000000E+00 0. -1.
<mgrwt>
<rscale>  2 0.20971893E+02</rscale>
<asrwt>0</asrwt>
<pdfrwt beam="2">  1        2 0.21850944E+00 0.20971893E+02</pdfrwt>
<pdfrwt beam="1">  1       -2 0.28530325E-03 0.20971893E+02</pdfrwt>
<totfact> 0.13468508E+05</totfact>
</mgrwt>
</event>
<event>
 4    1  0.7653521E+003  0.2041503E+02  0.7546771E-02  0.1737198E+00
          2   -1    0    0  501    0  0.00000000000E+00  0.00000000000E+00  0.81711169530E+03  0.81711169530E+03  0.00000000000E+00 0. -1.
         -2   -1    0    0    0  501 -0.00000000000E+00 -0.00000000000E+00 -0.16009535533E+01  0.16009535533E+01  0.00000000000E+00 0.  1.
          2    1    1    2  502    0  0.18084703008E+02  0.94719139745E+01  0.74566759232E+03  0.74594700339E+03  0.00000000000E+00 0. -1.
         -2    1    1    2    0  502 -0.18084703008E+02 -0.94719139745E+01  0.69843149436E+02  0.72765645468E+02  0.00000000000E+00 0.  1.
<mgrwt>
<rscale>  2 0.20415035E+02</rscale>
<asrwt>0</asrwt>
<pdfrwt beam="1">  1        2 0.12570916E+00 0.20415035E+02</pdfrwt>
<pdfrwt beam="2">  1       -2 0.24630120E-03 0.20415035E+02</pdfrwt>
<totfact> 0.33462016E+05</totfact>
</mgrwt>
</event>
<event>
 4    1  0.7653521E+003  0.3188872E+02  0.7546771E-02  0.1578103E+00
         -2   -1    0    0    0  501 -0.00000000000E+00  0.00000000000E+00  0.59272358673E+01  0.59272358673E+01  0.00000000000E+00 0.  1.
          2   -1    0    0  501    0  0.00000000000E+00 -0.00000000000E+00 -0.36223593551E+03  0.36223593551E+03  0.00000000000E+00 0. -1.
          2    1    1    2  502    0  0.31872274349E+02  0.10241009844E+01 -0.31170924790E+03  0.31333615477E+03  0.00000000000E+00 0. -1.
         -2    1    1    2    0  502 -0.31872274349E+02 -0.10241009844E+01 -0.44599451738E+02  0.54827016610E+02  0.00000000000E+00 0.  1.
<mgrwt>
<rscale>  2 0.31888723E+02</rscale>
<asrwt>0</asrwt>
<pdfrwt beam="2">  1        2 0.55728593E-01 0.31888723E+02</pdfrwt>
<pdfrwt beam="1">  1       -2 0.91188265E-03 0.31888723E+02</pdfrwt>
<totfact> 0.15031909E+05</totfact>
</mgrwt>
</event>
<event>
 4    1  0.7653521E+003  0.2114276E+02  0.7546771E-02  0.1723514E+00
         -2   -1    0    0    0  501 -0.00000000000E+00  0.00000000000E+00  0.30537577865E+00  0.30537577865E+00  0.00000000000E+00 0. -1.
          2   -1    0    0  501    0  0.00000000000E+00 -0.00000000000E+00 -0.16886786676E+04  0.16886786676E+04  0.00000000000E+00 0. -1.
          2    1    1    2  502    0  0.21120431284E+02 -0.97141689745E+00 -0.11523446073E+04  0.11525385505E+04  0.00000000000E+00 0. -1.
         -2    1    1    2    0  502 -0.21120431284E+02  0.97141689745E+00 -0.53602868445E+03  0.53644549288E+03  0.00000000000E+00 0. -1.
<mgrwt>
<rscale>  2 0.21142759E+02</rscale>
<asrwt>0</asrwt>
<pdfrwt beam="2">  1        2 0.25979666E+00 0.21142759E+02</pdfrwt>
<pdfrwt beam="1">  1       -2 0.46980900E-04 0.21142759E+02</pdfrwt>
<totfact> 0.10828825E+06</totfact>
</mgrwt>
</event>
<event>
 4    1  0.7653521E+003  0.2447973E+02  0.7546771E-02  0.1668589E+00
         -2   -1    0    0    0  501 -0.00000000000E+00  0.00000000000E+00  0.17252894480E+01  0.17252894480E+01  0.00000000000E+00 0.  1.
          2   -1    0    0  501    0  0.00000000000E+00 -0.00000000000E+00 -0.10330286169E+04  0.10330286169E+04  0.00000000000E+00 0.  1.
          2    1    1    2  502    0 -0.20292187028E+02  0.13692498131E+02 -0.93716879627E+03  0.93748845863E+03  0.00000000000E+00 0.  1.
         -2    1    1    2    0  502  0.20292187028E+02 -0.13692498131E+02 -0.94134531218E+02  0.97265447756E+02  0.00000000000E+00 0.  1.
<mgrwt>
<rscale>  2 0.24479734E+02</rscale>
<asrwt>0</asrwt>
<pdfrwt beam="2">  1        2 0.15892794E+00 0.24479734E+02</pdfrwt>
<pdfrwt beam="1">  1       -2 0.26542837E-03 0.24479734E+02</pdfrwt>
<totfact> 0.23969164E+05</totfact>
</mgrwt>
</event>
<event>
 4    1  0.7653521E+003  0.2417583E+02  0.7546771E-02  0.1673130E+00
         -2   -1    0    0    0  501 -0.00000000000E+00  0.00000000000E+00  0.24581985676E+02  0.24581985676E+02  0.00000000000E+00 0.  1.
          2   -1    0    0  501    0  0.00000000000E+00 -0.00000000000E+00 -0.19644599467E+03  0.19644599467E+03  0.00000000000E+00 0. -1.
          2    1    1    2  502    0  0.22714633345E+02  0.82774368504E+01 -0.18954247256E+03  0.19107804540E+03  0.00000000000E+00 0. -1.
         -2    1    1    2    0  502 -0.22714633345E+02 -0.82774368504E+01  0.17678463572E+02  0.29949934942E+02  0.00000000000E+00 0.  1.
<mgrwt>
<rscale>  2 0.24175825E+02</rscale>
<asrwt>0</asrwt>
<pdfrwt beam="2">  1        2 0.30222460E-01 0.24175825E+02</pdfrwt>
<pdfrwt beam="1">  1       -2 0.37818440E-02 0.24175825E+02</pdfrwt>
<totfact> 0.36678135E+04</totfact>
</mgrwt>
</event>
<event>
 4    1  0.7653521E+003  0.2328916E+02  0.7546771E-02  0.1686865E+00
          2   -1    0    0  501    0  0.00000000000E+00  0.00000000000E+00  0.11108307493E+02  0.11108307493E+02  0.00000000000E+00 0. -1.
         -2   -1    0    0    0  501 -0.00000000000E+00 -0.00000000000E+00 -0.63345781579E+02  0.63345781579E+02  0.00000000000E+00 0.  1.
          2    1    1    2  502    0 -0.20545267645E+02 -0.10967083897E+02 -0.82963732464E+01  0.24722757954E+02  0.00000000000E+00 0. -1.
         -2    1    1    2    0  502  0.20545267645E+02  0.10967083897E+02 -0.43941100839E+02  0.49731331118E+02  0.00000000000E+00 0.  1.
<mgrwt>
<rscale>  2 0.23289160E+02</rscale>
<asrwt>0</asrwt>
<pdfrwt beam="1">  1        2 0.17089704E-02 0.23289160E+02</pdfrwt>
<pdfrwt beam="2">  1       -2 0.97455049E-02 0.23289160E+02</pdfrwt>
<totfact> 0.27138380E+05</totfact>
</mgrwt>
</event>
<event>
 4    1  0.7653521E+003  0.3653969E+02  0.7546771E-02  0.1535338E+00
          2   -1    0    0  501    0  0.00000000000E+00  0.00000000000E+00  0.22283519816E+02  0.22283519816E+02  0.00000000000E+00 0.  1.
         -2   -1    0    0    0  501 -0.00000000000E+00 -0.00000000000E+00 -0.12475079563E+03  0.12475079563E+03  0.00000000000E+00 0.  1.
          2    1    1    2  502    0 -0.35646024092E+02  0.80318196585E+01  0.17656028643E+01  0.36582325160E+02  0.00000000000E+00 0.  1.
         -2    1    1    2    0  502  0.35646024092E+02 -0.80318196585E+01 -0.10423287868E+03  0.11045199029E+03  0.00000000000E+00 0.  1.
<mgrwt>
<rscale>  2 0.36539693E+02</rscale>
<asrwt>0</asrwt>
<pdfrwt beam="1">  1        2 0.34282338E-02 0.36539693E+02</pdfrwt>
<pdfrwt beam="2">  1       -2 0.19192430E-01 0.36539693E+02</pdfrwt>
<totfact> 0.43332887E+04</totfact>
</mgrwt>
</event>
<event>
 4    1  0.7653521E+003  0.5360842E+02  0.7546771E-02  0.1426797E+00
         -2   -1    0    0    0  501 -0.00000000000E+00  0.00000000000E+00  0.68025402703E+01  0.68025402703E+01  0.00000000000E+00 0. -1.
          2   -1    0    0  501    0  0.00000000000E+00 -0.00000000000E+00 -0.46191462721E+03  0.46191462721E+03  0.00000000000E+00 0. -1.
          2    1    1    2  502    0 -0.47017850809E+02 -0.25752359215E+02 -0.29604168206E+03  0.30085634415E+03  0.00000000000E+00 0. -1.
         -2    1    1    2    0  502  0.47017850809E+02  0.25752359215E+02 -0.15907040489E+03  0.16786082334E+03  0.00000000000E+00 0. -1.
<mgrwt>
<rscale>  2 0.53608416E+02</rscale>
<asrwt>0</asrwt>
<pdfrwt beam="2">  1        2 0.71063816E-01 0.53608416E+02</pdfrwt>
<pdfrwt beam="1">  1       -2 0.10465443E-02 0.53608416E+02</pdfrwt>
<totfact> 0.10746767E+05</totfact>
</mgrwt>
</event>
<event>
 4    1  0.7653521E+003  0.2339255E+02  0.7546771E-02  0.1685225E+00
         -2   -1    0    0    0  501 -0.00000000000E+00  0.00000000000E+00  0.57268486004E+01  0.57268486004E+01  0.00000000000E+00 0.  1.
          2   -1    0    0  501    0  0.00000000000E+00 -0.00000000000E+00 -0.12382552348E+04  0.12382552348E+04  0.00000000000E+00 0.  1.
          2    1    1    2  502    0  0.23234705112E+02  0.27129130300E+01 -0.12137750291E+04  0.12140004253E+04  0.00000000000E+00 0.  1.
         -2    1    1    2    0  502 -0.23234705112E+02 -0.27129130300E+01 -0.18753357109E+02  0.29981658086E+02  0.00000000000E+00 0.  1.
<mgrwt>
<rscale>  2 0.23392550E+02</rscale>
<asrwt>0</asrwt>
<pdfrwt beam="2">  1        2 0.19050081E+00 0.23392550E+02</pdfrwt>
<pdfrwt beam="1">  1       -2 0.88105363E-03 0.23392550E+02</pdfrwt>
<totfact> 0.37272604E+04</totfact>
</mgrwt>
</event>
<event>
 4    1  0.7653521E+003  0.2261264E+02  0.7546771E-02  0.1697867E+00
         -2   -1    0    0    0  501 -0.00000000000E+00  0.00000000000E+00  0.15072779817E+03  0.15072779817E+03  0.00000000000E+00 0. -1.
          2   -1    0    0  501    0  0.00000000000E+00 -0.00000000000E+00 -0.56389397496E+01  0.56389397496E+01  0.00000000000E+00 0.  1.
          2    1    1    2  502    0  0.18255142088E+02 -0.13344708556E+02  0.23196251644E+02  0.32394406144E+02  0.00000000000E+00 0.  1.
         -2    1    1    2    0  502 -0.18255142088E+02  0.13344708556E+02  0.12189260678E+03  0.12397233177E+03  0.00000000000E+00 0. -1.
<mgrwt>
<rscale>  2 0.22612639E+02</rscale>
<asrwt>0</asrwt>
<pdfrwt beam="2">  1        2 0.86752931E-03 0.22612639E+02</pdfrwt>
<pdfrwt beam="1">  1       -2 0.23188889E-01 0.22612639E+02</pdfrwt>
<totfact> 0.16808871E+05</totfact>
</mgrwt>
</event>
<event>
 4    1  0.7653521E+003  0.2461933E+02  0.7546771E-02  0.1666531E+00
          2   -1    0    0  501    0  0.00000000000E+00  0.00000000000E+00  0.38374503788E+03  0.38374503788E+03  0.00000000000E+00 0. -1.
         -2   -1    0    0    0  501 -0.00000000000E+00 -0.00000000000E+00 -0.19329268534E+01  0.19329268534E+01  0.00000000000E+00 0. -1.
          2    1    1    2  502    0 -0.22630778783E+02 -0.96932598642E+01  0.27336904416E+03  0.27447540098E+03  0.00000000000E+00 0. -1.
         -2    1    1    2    0  502  0.22630778783E+02  0.96932598642E+01  0.10844306687E+03  0.11120256376E+03  0.00000000000E+00 0. -1.
<mgrwt>
<rscale>  2 0.24619331E+02</rscale>
<asrwt>0</asrwt>
<pdfrwt beam="1">  1        2 0.59037638E-01 0.24619331E+02</pdfrwt>
<pdfrwt beam="2">  1       -2 0.29737367E-03 0.24619331E+02</pdfrwt>
<totfact> 0.60273746E+05</totfact>
</mgrwt>
</event>
<event>
 4    1  0.7653521E+003  0.2213263E+02  0.7546771E-02  0.1705968E+00
          2   -1    0    0  501    0  0.00000000000E+00  0.00000000000E+00  0.66483248733E+03  0.66483248733E+03  0.00000000000E+00 0. -1.
         -2   -1    0    0    0  501 -0.00000000000E+00 -0.00000000000E+00 -0.27793329462E+01  0.27793329462E+01  0.00000000000E+00 0.  1.
          2    1    1    2  502    0 -0.22060638653E+02 -0.17836568295E+01  0.61718565551E+03  0.61758237230E+03  0.00000000000E+00 0. -1.
         -2    1    1    2    0  502  0.22060638653E+02  0.17836568295E+01  0.44867498868E+02  0.50029447969E+02  0.00000000000E+00 0.  1.
<mgrwt>
<rscale>  2 0.22132628E+02</rscale>
<asrwt>0</asrwt>
<pdfrwt beam="1">  1        2 0.10228179E+00 0.22132628E+02</pdfrwt>
<pdfrwt beam="2">  1       -2 0.42759021E-03 0.22132628E+02</pdfrwt>
<totfact> 0.20602253E+05</totfact>
</mgrwt>
</event>
<event>
 4    1  0.7653521E+003  0.2597860E+02  0.7546771E-02  0.1647331E+00
          2   -1    0    0  501    0  0.00000000000E+00  0.00000000000E+00  0.69858084762E+03  0.69858084762E+03  0.00000000000E+00 0. -1.
         -2   -1    0    0    0  501 -0.00000000000E+00 -0.00000000000E+00 -0.26610163966E+02  0.26610163966E+02  0.00000000000E+00 0. -1.
          2    1    1    2  502    0  0.94250986728E+01 -0.24208575456E+02  0.69193797083E+03  0.69242547836E+03  0.00000000000E+00 0. -1.
         -2    1    1    2    0  502 -0.94250986728E+01  0.24208575456E+02 -0.19967287172E+02  0.32765533226E+02  0.00000000000E+00 0. -1.
<mgrwt>
<rscale>  2 0.25978599E+02</rscale>
<asrwt>0</asrwt>
<pdfrwt beam="1">  1        2 0.10747396E+00 0.25978599E+02</pdfrwt>
<pdfrwt beam="2">  1       -2 0.40938719E-02 0.25978599E+02</pdfrwt>
<totfact> 0.92043083E+03</totfact>
</mgrwt>
</event>
<event>
 4    1  0.7653521E+003  0.2139290E+02  0.7546771E-02  0.1718968E+00
         -2   -1    0    0    0  501 -0.00000000000E+00  0.00000000000E+00  0.37202015006E+02  0.37202015006E+02  0.00000000000E+00 0.  1.
          2   -1    0    0  501    0  0.00000000000E+00 -0.00000000000E+00 -0.99784527353E+03  0.99784527353E+03  0.00000000000E+00 0.  1.
          2    1    1    2  502    0 -0.21041519150E+02 -0.38614049810E+01 -0.99464524059E+03  0.99487527389E+03  0.00000000000E+00 0.  1.
         -2    1    1    2    0  502  0.21041519150E+02  0.38614049810E+01  0.34001982063E+02  0.40172014646E+02  0.00000000000E+00 0.  1.
<mgrwt>
<rscale>  2 0.21392895E+02</rscale>
<asrwt>0</asrwt>
<pdfrwt beam="2">  1        2 0.15351464E+00 0.21392895E+02</pdfrwt>
<pdfrwt beam="1">  1       -2 0.57233875E-02 0.21392895E+02</pdfrwt>
<totfact> 0.37111587E+03</totfact>
</mgrwt>
</event>
<event>
 4    1  0.7653521E+003  0.3161455E+02  0.7546771E-02  0.1580898E+00
         -2   -1    0    0    0  501 -0.00000000000E+00  0.00000000000E+00  0.17211582779E+02  0.17211582779E+02  0.00000000000E+00 0. -1.
          2   -1    0    0  501    0  0.00000000000E+00 -0.00000000000E+00 -0.57818105217E+03  0.57818105217E+03  0.00000000000E+00 0. -1.
          2    1    1    2  502    0  0.82951603359E+01  0.30506889307E+02 -0.56283584144E+03  0.56372303873E+03  0.00000000000E+00 0. -1.
         -2    1    1    2    0  502 -0.82951603359E+01 -0.30506889307E+02  0.18663720512E+01  0.31669596222E+02  0.00000000000E+00 0. -1.
<mgrwt>
<rscale>  2 0.31614553E+02</rscale>
<asrwt>0</asrwt>
<pdfrwt beam="2">  1        2 0.88950948E-01 0.31614553E+02</pdfrwt>
<pdfrwt beam="1">  1       -2 0.26479353E-02 0.31614553E+02</pdfrwt>
<totfact> 0.21351652E+04</totfact>
</mgrwt>
</event>
<event>
 4    1  0.7653521E+003  0.2491684E+02  0.7546771E-02  0.1662199E+00
          2   -1    0    0  501    0  0.00000000000E+00  0.00000000000E+00  0.47314007785E+02  0.47314007785E+02  0.00000000000E+00 0.  1.
         -2   -1    0    0    0  501 -0.00000000000E+00 -0.00000000000E+00 -0.13445869445E+02  0.13445869445E+02  0.00000000000E+00 0.  1.
          2    1    1    2  502    0  0.18127361952E+02 -0.17095241685E+02  0.12218212360E+02  0.27751274797E+02  0.00000000000E+00 0.  1.
         -2    1    1    2    0  502 -0.18127361952E+02  0.17095241685E+02  0.21649925980E+02  0.33008602433E+02  0.00000000000E+00 0.  1.
<mgrwt>
<rscale>  2 0.24916845E+02</rscale>
<asrwt>0</asrwt>
<pdfrwt beam="1">  1        2 0.72790780E-02 0.24916845E+02</pdfrwt>
<pdfrwt beam="2">  1       -2 0.20685953E-02 0.24916845E+02</pdfrwt>
<totfact> 0.41036134E+05</totfact>
</mgrwt>
</event>
<event>
 4    1  0.7653521E+003  0.3479686E+02  0.7546771E-02  0.1550412E+00
         -2   -1    0    0    0  501 -0.00000000000E+00  0.00000000000E+00  0.11907787443E+02  0.11907787443E+02  0.00000000000E+00 0. -1.
          2   -1    0    0  501    0  0.00000000000E+00 -0.00000000000E+00 -0.11232826037E+04  0.11232826037E+04  0.00000000000E+00 0. -1.
          2    1    1    2  502    0  0.12999416769E+02  0.32277497551E+02 -0.10969830294E+04  0.10975347778E+04  0.00000000000E+00 0. -1.
         -2    1    1    2    0  502 -0.12999416769E+02 -0.32277497551E+02 -0.14391786794E+02  0.37655613282E+02  0.00000000000E+00 0. -1.
<mgrwt>
<rscale>  2 0.34796863E+02</rscale>
<asrwt>0</asrwt>
<pdfrwt beam="2">  1        2 0.17281276E+00 0.34796863E+02</pdfrwt>
<pdfrwt beam="1">  1       -2 0.18319667E-02 0.34796863E+02</pdfrwt>
<totfact> 0.16533326E+04</totfact>
</mgrwt>
</event>
<event>
 4    1  0.7653521E+003  0.2009408E+02  0.7546771E-02  0.1743464E+00
          2   -1    0    0  501    0  0.00000000000E+00  0.00000000000E+00  0.12884973304E+03  0.12884973304E+03  0.00000000000E+00 0. -1.
         -2   -1    0    0    0  501 -0.00000000000E+00 -0.00000000000E+00 -0.31370669324E+01  0.31370669324E+01  0.00000000000E+00 0.  1.
          2    1    1    2  502    0 -0.16796804253E+02  0.11029016690E+02  0.60682984378E+02  0.63923363767E+02  0.00000000000E+00 0. -1.
         -2    1    1    2    0  502  0.16796804253E+02 -0.11029016690E+02  0.65029681731E+02  0.68063436207E+02  0.00000000000E+00 0.  1.
<mgrwt>
<rscale>  2 0.20094085E+02</rscale>
<asrwt>0</asrwt>
<pdfrwt beam="1">  1        2 0.19823032E-01 0.20094085E+02</pdfrwt>
<pdfrwt beam="2">  1       -2 0.48262578E-03 0.20094085E+02</pdfrwt>
<totfact> 0.88843896E+05</totfact>
</mgrwt>
</event>
<event>
 4    1  0.7653521E+003  0.2627573E+02  0.7546771E-02  0.1643326E+00
          2   -1    0    0  501    0  0.00000000000E+00  0.00000000000E+00  0.46598630542E+03  0.46598630542E+03  0.00000000000E+00 0. -1.
         -2   -1    0    0    0  501 -0.00000000000E+00 -0.00000000000E+00 -0.15341019246E+02  0.15341019246E+02  0.00000000000E+00 0.  1.
          2    1    1    2  502    0 -0.35593743348E+01 -0.26033537910E+02  0.45406976043E+03  0.45482937633E+03  0.00000000000E+00 0. -1.
         -2    1    1    2    0  502  0.35593743348E+01  0.26033537910E+02 -0.34244742545E+01  0.26497948330E+02  0.00000000000E+00 0.  1.
<mgrwt>
<rscale>  2 0.26275735E+02</rscale>
<asrwt>0</asrwt>
<pdfrwt beam="1">  1        2 0.71690190E-01 0.26275735E+02</pdfrwt>
<pdfrwt beam="2">  1       -2 0.23601572E-02 0.26275735E+02</pdfrwt>
<totfact> 0.30389523E+04</totfact>
</mgrwt>
</event>
<event>
 4    1  0.7653521E+003  0.2546805E+02  0.7546771E-02  0.1654369E+00
         -2   -1    0    0    0  501 -0.00000000000E+00  0.00000000000E+00  0.12727874415E+02  0.12727874415E+02  0.00000000000E+00 0.  1.
          2   -1    0    0  501    0  0.00000000000E+00 -0.00000000000E+00 -0.36426076530E+03  0.36426076530E+03  0.00000000000E+00 0. -1.
          2    1    1    2  502    0 -0.25354371623E+02 -0.24036210647E+01 -0.35057887288E+03  0.35150272782E+03  0.00000000000E+00 0. -1.
         -2    1    1    2    0  502  0.25354371623E+02  0.24036210647E+01 -0.95401800169E+00  0.25485911892E+02  0.00000000000E+00 0.  1.
<mgrwt>
<rscale>  2 0.25468050E+02</rscale>
<asrwt>0</asrwt>
<pdfrwt beam="2">  1        2 0.56040121E-01 0.25468050E+02</pdfrwt>
<pdfrwt beam="1">  1       -2 0.19581344E-02 0.25468050E+02</pdfrwt>
<totfact> 0.49995525E+04</totfact>
</mgrwt>
</event>
<event>
 4    1  0.7653521E+003  0.3032184E+02  0.7546771E-02  0.1594558E+00
          2   -1    0    0  501    0  0.00000000000E+00  0.00000000000E+00  0.23328663526E+03  0.23328663526E+03  0.00000000000E+00 0. -1.
         -2   -1    0    0    0  501 -0.00000000000E+00 -0.00000000000E+00 -0.11517212777E+04  0.11517212777E+04  0.00000000000E+00 0. -1.
          2    1    1    2  502    0 -0.30296158046E+02 -0.12475968540E+01  0.23210076278E+03  0.23407301804E+03  0.00000000000E+00 0. -1.
         -2    1    1    2    0  502  0.30296158046E+02  0.12475968540E+01 -0.11505354053E+04  0.11509348950E+04  0.00000000000E+00 0. -1.
<mgrwt>
<rscale>  2 0.30321835E+02</rscale>
<asrwt>0</asrwt>
<pdfrwt beam="1">  1        2 0.35890252E-01 0.30321835E+02</pdfrwt>
<pdfrwt beam="2">  1       -2 0.17718789E+00 0.30321835E+02</pdfrwt>
<totfact> 0.32196755E+01</totfact>
</mgrwt>
</event>
<event>
 4    1  0.7653521E+003  0.2708237E+02  0.7546771E-02  0.1632776E+00
          2   -1    0    0  501    0  0.00000000000E+00  0.00000000000E+00  0.69924802376E+03  0.69924802376E+03  0.00000000000E+00 0. -1.
         -2   -1    0    0    0  501 -0.00000000000E+00 -0.00000000000E+00 -0.10527032527E+04  0.10527032527E+04  0.00000000000E+00 0. -1.
          2    1    1    2  502    0  0.22549277597E+01  0.26988330424E+02  0.69881150157E+03  0.69933609188E+03  0.00000000000E+00 0. -1.
         -2    1    1    2    0  502 -0.22549277597E+01 -0.26988330424E+02 -0.10522667306E+04  0.10526151846E+04  0.00000000000E+00 0. -1.
<mgrwt>
<rscale>  2 0.27082368E+02</rscale>
<asrwt>0</asrwt>
<pdfrwt beam="1">  1        2 0.10757662E+00 0.27082368E+02</pdfrwt>
<pdfrwt beam="2">  1       -2 0.16195434E+00 0.27082368E+02</pdfrwt>
<totfact> 0.13315628E+01</totfact>
</mgrwt>
</event>
<event>
 4    1  0.7653521E+003  0.6556481E+02  0.7546771E-02  0.1375859E+00
          2   -1    0    0  501    0  0.00000000000E+00  0.00000000000E+00  0.33916012432E+03  0.33916012432E+03  0.00000000000E+00 0. -1.
         -2   -1    0    0    0  501 -0.00000000000E+00 -0.00000000000E+00 -0.15941255797E+02  0.15941255797E+02  0.00000000000E+00 0. -1.
          2    1    1    2  502    0 -0.24504122962E+02  0.60813584647E+02  0.24198200257E+03  0.25070706748E+03  0.00000000000E+00 0. -1.
         -2    1    1    2    0  502  0.24504122962E+02 -0.60813584647E+02  0.81236865957E+02  0.10439431263E+03  0.00000000000E+00 0. -1.
<mgrwt>
<rscale>  2 0.65564809E+02</rscale>
<asrwt>0</asrwt>
<pdfrwt beam="1">  1        2 0.52178475E-01 0.65564809E+02</pdfrwt>
<pdfrwt beam="2">  1       -2 0.24525012E-02 0.65564809E+02</pdfrwt>
<totfact> 0.45920874E+04</totfact>
</mgrwt>
</event>
<event>
 4    1  0.7653521E+003  0.2059349E+02  0.7546771E-02  0.1733777E+00
          2   -1    0    0  501    0  0.00000000000E+00  0.00000000000E+00  0.20826257271E+03  0.20826257271E+03  0.00000000000E+00 0.  1.
         -2   -1    0    0    0  501 -0.00000000000E+00 -0.00000000000E+00 -0.44036893230E+02  0.44036893230E+02  0.00000000000E+00 0. -1.
          2    1    1    2  502    0  0.10155635231E+02 -0.17915209314E+02  0.20531137616E+03  0.20634159259E+03  0.00000000000E+00 0.  1.
         -2    1    1    2    0  502 -0.10155635231E+02  0.17915209314E+02 -0.41085696677E+02  0.45957873353E+02  0.00000000000E+00 0. -1.
<mgrwt>
<rscale>  2 0.20593486E+02</rscale>
<asrwt>0</asrwt>
<pdfrwt beam="1">  1        2 0.32040395E-01 0.20593486E+02</pdfrwt>
<pdfrwt beam="2">  1       -2 0.67749067E-02 0.20593486E+02</pdfrwt>
<totfact> 0.14666622E+04</totfact>
</mgrwt>
</event>
<event>
 4    1  0.7653521E+003  0.2822412E+02  0.7546771E-02  0.1618591E+00
         -2   -1    0    0    0  501 -0.00000000000E+00  0.00000000000E+00  0.55315305678E+01  0.55315305678E+01  0.00000000000E+00 0. -1.
          2   -1    0    0  501    0  0.00000000000E+00 -0.00000000000E+00 -0.14715797355E+03  0.14715797355E+03  0.00000000000E+00 0. -1.
          2    1    1    2  502    0  0.10207355341E+02  0.26313697384E+02 -0.81977734077E+02  0.86700344045E+02  0.00000000000E+00 0. -1.
         -2    1    1    2    0  502 -0.10207355341E+02 -0.26313697384E+02 -0.59648708902E+02  0.65989160070E+02  0.00000000000E+00 0. -1.
<mgrwt>
<rscale>  2 0.28224117E+02</rscale>
<asrwt>0</asrwt>
<pdfrwt beam="2">  1        2 0.22639689E-01 0.28224117E+02</pdfrwt>
<pdfrwt beam="1">  1       -2 0.85100468E-03 0.28224117E+02</pdfrwt>
<totfact> 0.40013299E+05</totfact>
</mgrwt>
</event>
<event>
 4    1  0.7653521E+003  0.2175248E+02  0.7546771E-02  0.1712568E+00
         -2   -1    0    0    0  501 -0.00000000000E+00  0.00000000000E+00  0.75155013803E+00  0.75155013803E+00  0.00000000000E+00 0. -1.
          2   -1    0    0  501    0  0.00000000000E+00 -0.00000000000E+00 -0.16320935554E+04  0.16320935554E+04  0.00000000000E+00 0.  1.
          2    1    1    2  502    0 -0.96048222848E+01 -0.19517120070E+02 -0.14555307842E+04  0.14556933174E+04  0.00000000000E+00 0.  1.
         -2    1    1    2    0  502  0.96048222848E+01  0.19517120070E+02 -0.17581122103E+03  0.17715178810E+03  0.00000000000E+00 0. -1.
<mgrwt>
<rscale>  2 0.21752485E+02</rscale>
<asrwt>0</asrwt>
<pdfrwt beam="2">  1        2 0.25109033E+00 0.21752485E+02</pdfrwt>
<pdfrwt beam="1">  1       -2 0.11562355E-03 0.21752485E+02</pdfrwt>
<totfact> 0.35606965E+05</totfact>
</mgrwt>
</event>
<event>
 4    1  0.7653521E+003  0.2301478E+02  0.7546771E-02  0.1691271E+00
         -2   -1    0    0    0  501 -0.00000000000E+00  0.00000000000E+00  0.91310079967E+00  0.91310079967E+00  0.00000000000E+00 0.  1.
          2   -1    0    0  501    0  0.00000000000E+00 -0.00000000000E+00 -0.58698478196E+03  0.58698478196E+03  0.00000000000E+00 0.  1.
          2    1    1    2  502    0 -0.70260699844E+01  0.21916072592E+02 -0.32489574466E+03  0.32570987826E+03  0.00000000000E+00 0.  1.
         -2    1    1    2    0  502  0.70260699844E+01 -0.21916072592E+02 -0.26117593650E+03  0.26218800450E+03  0.00000000000E+00 0.  1.
<mgrwt>
<rscale>  2 0.23014776E+02</rscale>
<asrwt>0</asrwt>
<pdfrwt beam="2">  1        2 0.90305493E-01 0.23014776E+02</pdfrwt>
<pdfrwt beam="1">  1       -2 0.14047683E-03 0.23014776E+02</pdfrwt>
<totfact> 0.10405853E+06</totfact>
</mgrwt>
</event>
<event>
 4    1  0.7653521E+003  0.2953104E+02  0.7546771E-02  0.1603331E+00
         -2   -1    0    0    0  501 -0.00000000000E+00  0.00000000000E+00  0.26676738102E+01  0.26676738102E+01  0.00000000000E+00 0. -1.
          2   -1    0    0  501    0  0.00000000000E+00 -0.00000000000E+00 -0.85068527363E+03  0.85068527363E+03  0.00000000000E+00 0. -1.
          2    1    1    2  502    0  0.22004791931E+02  0.19694451078E+02 -0.75881062738E+03  0.75938504759E+03  0.00000000000E+00 0. -1.
         -2    1    1    2    0  502 -0.22004791931E+02 -0.19694451078E+02 -0.89206972434E+02  0.93967899849E+02  0.00000000000E+00 0. -1.
<mgrwt>
<rscale>  2 0.29531039E+02</rscale>
<asrwt>0</asrwt>
<pdfrwt beam="2">  1        2 0.13087482E+00 0.29531039E+02</pdfrwt>
<pdfrwt beam="1">  1       -2 0.41041086E-03 0.29531039E+02</pdfrwt>
<totfact> 0.17686935E+05</totfact>
</mgrwt>
</event>
<event>
 4    1  0.7653521E+003  0.2022602E+02  0.7546771E-02  0.1740870E+00
          2   -1    0    0  501    0  0.00000000000E+00  0.00000000000E+00  0.93133980576E+03  0.93133980576E+03  0.00000000000E+00 0.  1.
         -2   -1    0    0    0  501 -0.00000000000E+00 -0.00000000000E+00 -0.23391649651E+02  0.23391649651E+02  0.00000000000E+00 0.  1.
          2    1    1    2  502    0 -0.17263170264E+02 -0.10539213343E+02  0.92683655016E+03  0.92705721656E+03  0.00000000000E+00 0.  1.
         -2    1    1    2    0  502  0.17263170264E+02  0.10539213343E+02 -0.18888394058E+02  0.27674238843E+02  0.00000000000E+00 0.  1.
<mgrwt>
<rscale>  2 0.20226024E+02</rscale>
<asrwt>0</asrwt>
<pdfrwt beam="1">  1        2 0.14328302E+00 0.20226024E+02</pdfrwt>
<pdfrwt beam="2">  1       -2 0.35987161E-02 0.20226024E+02</pdfrwt>
<totfact> 0.77154008E+03</totfact>
</mgrwt>
</event>
<event>
 4    1  0.7653521E+003  0.3219873E+02  0.7546771E-02  0.1574983E+00
         -2   -1    0    0    0  501 -0.00000000000E+00  0.00000000000E+00  0.57819698097E+02  0.57819698097E+02  0.00000000000E+00 0.  1.
          2   -1    0    0  501    0  0.00000000000E+00 -0.00000000000E+00 -0.24057745420E+02  0.24057745420E+02  0.00000000000E+00 0. -1.
          2    1    1    2  502    0 -0.31208166907E+02 -0.79251828887E+01 -0.37788136413E+01  0.32419710641E+02  0.00000000000E+00 0. -1.
         -2    1    1    2    0  502  0.31208166907E+02  0.79251828887E+01  0.37540766318E+02  0.49457732877E+02  0.00000000000E+00 0.  1.
<mgrwt>
<rscale>  2 0.32198730E+02</rscale>
<asrwt>0</asrwt>
<pdfrwt beam="2">  1        2 0.37011916E-02 0.32198730E+02</pdfrwt>
<pdfrwt beam="1">  1       -2 0.88953382E-02 0.32198730E+02</pdfrwt>
<totfact> 0.12623796E+05</totfact>
</mgrwt>
</event>
<event>
 4    1  0.7653521E+003  0.2236946E+02  0.7546771E-02  0.1701940E+00
         -2   -1    0    0    0  501 -0.00000000000E+00  0.00000000000E+00  0.16506044180E+01  0.16506044180E+01  0.00000000000E+00 0. -1.
          2   -1    0    0  501    0  0.00000000000E+00 -0.00000000000E+00 -0.15346847607E+04  0.15346847607E+04  0.00000000000E+00 0.  1.
          2    1    1    2  502    0  0.48185522150E+01 -0.21844319792E+02 -0.14546439136E+04  0.14548159018E+04  0.00000000000E+00 0.  1.
         -2    1    1    2    0  502 -0.48185522150E+01  0.21844319792E+02 -0.78390242759E+02  0.81519463396E+02  0.00000000000E+00 0. -1.
<mgrwt>
<rscale>  2 0.22369460E+02</rscale>
<asrwt>0</asrwt>
<pdfrwt beam="2">  1        2 0.23610599E+00 0.22369460E+02</pdfrwt>
<pdfrwt beam="1">  1       -2 0.25393845E-03 0.22369460E+02</pdfrwt>
<totfact> 0.14075941E+05</totfact>
</mgrwt>
</event>
<event>
 4    1  0.7653521E+003  0.2452819E+02  0.7546771E-02  0.1667873E+00
          2   -1    0    0  501    0  0.00000000000E+00  0.00000000000E+00  0.34349041051E+03  0.34349041051E+03  0.00000000000E+00 0.  1.
         -2   -1    0    0    0  501 -0.00000000000E+00 -0.00000000000E+00 -0.14249637167E+02  0.14249637167E+02  0.00000000000E+00 0.  1.
          2    1    1    2  502    0  0.24114641072E+02 -0.44850953269E+01  0.33213699570E+03  0.33304146274E+03  0.00000000000E+00 0.  1.
         -2    1    1    2    0  502 -0.24114641072E+02  0.44850953269E+01 -0.28962223514E+01  0.24698584939E+02  0.00000000000E+00 0.  1.
<mgrwt>
<rscale>  2 0.24528188E+02</rscale>
<asrwt>0</asrwt>
<pdfrwt beam="1">  1        2 0.52844672E-01 0.24528188E+02</pdfrwt>
<pdfrwt beam="2">  1       -2 0.21922521E-02 0.24528188E+02</pdfrwt>
<totfact> 0.45018231E+04</totfact>
</mgrwt>
</event>
<event>
 4    1  0.7653521E+003  0.2712984E+02  0.7546771E-02  0.1632169E+00
          2   -1    0    0  501    0  0.00000000000E+00  0.00000000000E+00  0.66358954573E+03  0.66358954573E+03  0.00000000000E+00 0. -1.
         -2   -1    0    0    0  501 -0.00000000000E+00 -0.00000000000E+00 -0.11662587540E+01  0.11662587540E+01  0.00000000000E+00 0. -1.
          2    1    1    2  502    0  0.24617625375E+02  0.11401782897E+02  0.40475465309E+03  0.40566286167E+03  0.00000000000E+00 0. -1.
         -2    1    1    2    0  502 -0.24617625375E+02 -0.11401782897E+02  0.25766863388E+03  0.25909294282E+03  0.00000000000E+00 0. -1.
<mgrwt>
<rscale>  2 0.27129838E+02</rscale>
<asrwt>0</asrwt>
<pdfrwt beam="1">  1        2 0.10209040E+00 0.27129838E+02</pdfrwt>
<pdfrwt beam="2">  1       -2 0.17942495E-03 0.27129838E+02</pdfrwt>
<totfact> 0.69413914E+05</totfact>
</mgrwt>
</event>
<event>
 4    1  0.7653521E+003  0.2105404E+02  0.7546771E-02  0.1725145E+00
          2   -1    0    0  501    0  0.00000000000E+00  0.00000000000E+00  0.10357366042E+02  0.10357366042E+02  0.00000000000E+00 0.  1.
         -2   -1    0    0    0  501 -0.00000000000E+00 -0.00000000000E+00 -0.42853232314E+02  0.42853232314E+02  0.00000000000E+00 0.  1.
          2    1    1    2  502    0  0.17179937463E+02  0.12170529227E+02 -0.17205186824E+02  0.27189896773E+02  0.00000000000E+00 0.  1.
         -2    1    1    2    0  502 -0.17179937463E+02 -0.12170529227E+02 -0.15290679448E+02  0.26020701583E+02  0.00000000000E+00 0.  1.
<mgrwt>
<rscale>  2 0.21054037E+02</rscale>
<asrwt>0</asrwt>
<pdfrwt beam="1">  1        2 0.15934409E-02 0.21054037E+02</pdfrwt>
<pdfrwt beam="2">  1       -2 0.65928049E-02 0.21054037E+02</pdfrwt>
<totfact> 0.50911642E+05</totfact>
</mgrwt>
</event>
<event>
 4    1  0.7653521E+003  0.2014063E+02  0.7546771E-02  0.1742546E+00
         -2   -1    0    0    0  501 -0.00000000000E+00  0.00000000000E+00  0.61906405052E+00  0.61906405052E+00  0.00000000000E+00 0.  1.
          2   -1    0    0  501    0  0.00000000000E+00 -0.00000000000E+00 -0.65914707796E+03  0.65914707796E+03  0.00000000000E+00 0. -1.
          2    1    1    2  502    0 -0.15778165570E+02  0.12517765956E+02 -0.35461210108E+03  0.35518359648E+03  0.00000000000E+00 0. -1.
         -2    1    1    2    0  502  0.15778165570E+02 -0.12517765956E+02 -0.30391591283E+03  0.30458254554E+03  0.00000000000E+00 0.  1.
<mgrwt>
<rscale>  2 0.20140630E+02</rscale>
<asrwt>0</asrwt>
<pdfrwt beam="2">  1        2 0.10140752E+00 0.20140630E+02</pdfrwt>
<pdfrwt beam="1">  1       -2 0.95240362E-04 0.20140630E+02</pdfrwt>
<totfact> 0.14692835E+06</totfact>
</mgrwt>
</event>
<event>
 4    1  0.7653521E+003  0.8429221E+02  0.7546771E-02  0.1317294E+00
         -2   -1    0    0    0  501 -0.00000000000E+00  0.00000000000E+00  0.17017714044E+02  0.17017714044E+02  0.00000000000E+00 0.  1.
          2   -1    0    0  501    0  0.00000000000E+00 -0.00000000000E+00 -0.21769256768E+04  0.21769256768E+04  0.00000000000E+00 0. -1.
          2    1    1    2  502    0 -0.59325754842E+02  0.59880149234E+02 -0.20661359093E+04  0.20678546306E+04  0.00000000000E+00 0. -1.
         -2    1    1    2    0  502  0.59325754842E+02 -0.59880149234E+02 -0.93772053472E+02  0.12608876029E+03  0.00000000000E+00 0.  1.
<mgrwt>
<rscale>  2 0.84292215E+02</rscale>
<asrwt>0</asrwt>
<pdfrwt beam="2">  1        2 0.33491168E+00 0.84292215E+02</pdfrwt>
<pdfrwt beam="1">  1       -2 0.26181095E-02 0.84292215E+02</pdfrwt>
<totfact> 0.31176263E+03</totfact>
</mgrwt>
</event>
<event>
 4    1  0.7653521E+003  0.2223442E+02  0.7546771E-02  0.1704229E+00
         -2   -1    0    0    0  501 -0.00000000000E+00  0.00000000000E+00  0.60778265447E+01  0.60778265447E+01  0.00000000000E+00 0.  1.
          2   -1    0    0  501    0  0.00000000000E+00 -0.00000000000E+00 -0.41132280192E+03  0.41132280192E+03  0.00000000000E+00 0. -1.
          2    1    1    2  502    0  0.14577202766E+02 -0.16789124480E+02 -0.38955182111E+03  0.39018584145E+03  0.00000000000E+00 0. -1.
         -2    1    1    2    0  502 -0.14577202766E+02  0.16789124480E+02 -0.15693154267E+02  0.27214787012E+02  0.00000000000E+00 0.  1.
<mgrwt>
<rscale>  2 0.22234422E+02</rscale>
<asrwt>0</asrwt>
<pdfrwt beam="2">  1        2 0.63280401E-01 0.22234422E+02</pdfrwt>
<pdfrwt beam="1">  1       -2 0.93505069E-03 0.22234422E+02</pdfrwt>
<totfact> 0.11776752E+05</totfact>
</mgrwt>
</event>
<event>
 4    1  0.7653521E+003  0.3015240E+02  0.7546771E-02  0.1596410E+00
          2   -1    0    0  501    0  0.00000000000E+00  0.00000000000E+00  0.96900035600E+03  0.96900035600E+03  0.00000000000E+00 0. -1.
         -2   -1    0    0    0  501 -0.00000000000E+00 -0.00000000000E+00 -0.20790331438E+02  0.20790331438E+02  0.00000000000E+00 0. -1.
          2    1    1    2  502    0  0.18399888797E+02  0.23887469364E+02  0.95770430491E+03  0.95817884695E+03  0.00000000000E+00 0. -1.
         -2    1    1    2    0  502 -0.18399888797E+02 -0.23887469364E+02 -0.94942803399E+01  0.31611840496E+02  0.00000000000E+00 0. -1.
<mgrwt>
<rscale>  2 0.30152398E+02</rscale>
<asrwt>0</asrwt>
<pdfrwt beam="1">  1        2 0.14907694E+00 0.30152398E+02</pdfrwt>
<pdfrwt beam="2">  1       -2 0.31985133E-02 0.30152398E+02</pdfrwt>
<totfact> 0.90591941E+03</totfact>
</mgrwt>
</event>
<event>
 4    1  0.7653521E+003  0.2253855E+02  0.7546771E-02  0.1699101E+00
          2   -1    0    0  501    0  0.00000000000E+00  0.00000000000E+00  0.14601620115E+03  0.14601620115E+03  0.00000000000E+00 0. -1.
         -2   -1    0    0    0  501 -0.00000000000E+00 -0.00000000000E+00 -0.60439361114E+01  0.60439361114E+01  0.00000000000E+00 0. -1.
          2    1    1    2  502    0  0.50681524789E+01 -0.21961335871E+02  0.11951586696E+03  0.12162248517E+03  0.00000000000E+00 0. -1.
         -2    1    1    2    0  502 -0.50681524789E+01  0.21961335871E+02  0.20456398080E+02  0.30437652097E+02  0.00000000000E+00 0. -1.
<mgrwt>
<rscale>  2 0.22538555E+02</rscale>
<asrwt>0</asrwt>
<pdfrwt beam="1">  1        2 0.22464028E-01 0.22538555E+02</pdfrwt>
<pdfrwt beam="2">  1       -2 0.92983644E-03 0.22538555E+02</pdfrwt>
<totfact> 0.33559060E+05</totfact>
</mgrwt>
</event>
<event>
 4    1  0.7653521E+003  0.3707101E+02  0.7546771E-02  0.1530943E+00
          2   -1    0    0  501    0  0.00000000000E+00  0.00000000000E+00  0.34159189237E+03  0.34159189237E+03  0.00000000000E+00 0.  1.
         -2   -1    0    0    0  501 -0.00000000000E+00 -0.00000000000E+00 -0.18423713204E+02  0.18423713204E+02  0.00000000000E+00 0. -1.
          2    1    1    2  502    0  0.33373253606E+02 -0.16139578410E+02  0.32072915097E+03  0.32286444266E+03  0.00000000000E+00 0.  1.
         -2    1    1    2    0  502 -0.33373253606E+02  0.16139578410E+02  0.24390281901E+01  0.37151162916E+02  0.00000000000E+00 0. -1.
<mgrwt>
<rscale>  2 0.37071014E+02</rscale>
<asrwt>0</asrwt>
<pdfrwt beam="1">  1        2 0.52552594E-01 0.37071014E+02</pdfrwt>
<pdfrwt beam="2">  1       -2 0.28344177E-02 0.37071014E+02</pdfrwt>
<totfact> 0.34054664E+04</totfact>
</mgrwt>
</event>
<event>
 4    1  0.7653521E+003  0.2692660E+02  0.7546771E-02  0.1634778E+00
         -2   -1    0    0    0  501 -0.00000000000E+00  0.00000000000E+00  0.27498174690E+03  0.27498174690E+03  0.00000000000E+00 0. -1.
          2   -1    0    0  501    0  0.00000000000E+00 -0.00000000000E+00 -0.68436638389E+01  0.68436638389E+01  0.00000000000E+00 0. -1.
          2    1    1    2  502    0 -0.19905065350E+02 -0.18133677373E+02  0.23587258255E+02  0.35796656739E+02  0.00000000000E+00 0. -1.
         -2    1    1    2    0  502  0.19905065350E+02  0.18133677373E+02  0.24455082481E+03  0.24602875400E+03  0.00000000000E+00 0. -1.
<mgrwt>
<rscale>  2 0.26926602E+02</rscale>
<asrwt>0</asrwt>
<pdfrwt beam="2">  1        2 0.10528716E-02 0.26926602E+02</pdfrwt>
<pdfrwt beam="1">  1       -2 0.42304876E-01 0.26926602E+02</pdfrwt>
<totfact> 0.48095068E+04</totfact>
</mgrwt>
</event>
<event>
 4    1  0.7653521E+003  0.3046723E+02  0.7546771E-02  0.1592981E+00
          2   -1    0    0  501    0  0.00000000000E+00  0.00000000000E+00  0.11721208467E+04  0.11721208467E+04  0.00000000000E+00 0.  1.
         -2   -1    0    0    0  501 -0.00000000000E+00 -0.00000000000E+00 -0.14645181808E+01  0.14645181808E+01  0.00000000000E+00 0.  1.
          2    1    1    2  502    0 -0.29138592131E+02 -0.88991226153E+01  0.98298457659E+03  0.98345662322E+03  0.00000000000E+00 0.  1.
         -2    1    1    2    0  502  0.29138592131E+02  0.88991226153E+01  0.18767175194E+03  0.19012874168E+03  0.00000000000E+00 0.  1.
<mgrwt>
<rscale>  2 0.30467227E+02</rscale>
<asrwt>0</asrwt>
<pdfrwt beam="1">  1        2 0.18032553E+00 0.30467227E+02</pdfrwt>
<pdfrwt beam="2">  1       -2 0.22531143E-03 0.30467227E+02</pdfrwt>
<totfact> 0.26520932E+05</totfact>
</mgrwt>
</event>
<event>
 4    1  0.7653521E+003  0.2781769E+02  0.7546771E-02  0.1623545E+00
         -2   -1    0    0    0  501 -0.00000000000E+00  0.00000000000E+00  0.11379090541E+01  0.11379090541E+01  0.00000000000E+00 0.  1.
          2   -1    0    0  501    0  0.00000000000E+00 -0.00000000000E+00 -0.69269474856E+03  0.69269474856E+03  0.00000000000E+00 0.  1.
          2    1    1    2  502    0  0.27670252083E+02  0.28601426054E+01 -0.29888772225E+03  0.30017943597E+03  0.00000000000E+00 0.  1.
         -2    1    1    2    0  502 -0.27670252083E+02 -0.28601426054E+01 -0.39266911725E+03  0.39365322164E+03  0.00000000000E+00 0.  1.
<mgrwt>
<rscale>  2 0.27817693E+02</rscale>
<asrwt>0</asrwt>
<pdfrwt beam="2">  1        2 0.10656853E+00 0.27817693E+02</pdfrwt>
<pdfrwt beam="1">  1       -2 0.17506276E-03 0.27817693E+02</pdfrwt>
<totfact> 0.68942363E+05</totfact>
</mgrwt>
</event>
<event>
 4    1  0.7653521E+003  0.3174324E+02  0.7546771E-02  0.1579582E+00
          2   -1    0    0  501    0  0.00000000000E+00  0.00000000000E+00  0.34217627507E+03  0.34217627507E+03  0.00000000000E+00 0.  1.
         -2   -1    0    0    0  501 -0.00000000000E+00 -0.00000000000E+00 -0.13236816992E+03  0.13236816992E+03  0.00000000000E+00 0.  1.
          2    1    1    2  502    0 -0.55293519796E+01  0.31257955590E+02  0.33952214698E+03  0.34100281789E+03  0.00000000000E+00 0.  1.
         -2    1    1    2    0  502  0.55293519796E+01 -0.31257955590E+02 -0.12971404182E+03  0.13354162709E+03  0.00000000000E+00 0.  1.
<mgrwt>
<rscale>  2 0.31743244E+02</rscale>
<asrwt>0</asrwt>
<pdfrwt beam="1">  1        2 0.52642504E-01 0.31743244E+02</pdfrwt>
<pdfrwt beam="2">  1       -2 0.20364334E-01 0.31743244E+02</pdfrwt>
<totfact> 0.17598164E+03</totfact>
</mgrwt>
</event>
<event>
 4    1  0.7653521E+003  0.2378651E+02  0.7546771E-02  0.1679069E+00
          2   -1    0    0  501    0  0.00000000000E+00  0.00000000000E+00  0.34022507876E+03  0.34022507876E+03  0.00000000000E+00 0.  1.
         -2   -1    0    0    0  501 -0.00000000000E+00 -0.00000000000E+00 -0.24267065736E+02  0.24267065736E+02  0.00000000000E+00 0. -1.
          2    1    1    2  502    0  0.22906093710E+02  0.64116097547E+01  0.33386964449E+03  0.33471590547E+03  0.00000000000E+00 0.  1.
         -2    1    1    2    0  502 -0.22906093710E+02 -0.64116097547E+01 -0.17911631461E+02  0.29776239022E+02  0.00000000000E+00 0. -1.
<mgrwt>
<rscale>  2 0.23786506E+02</rscale>
<asrwt>0</asrwt>
<pdfrwt beam="1">  1        2 0.52342317E-01 0.23786506E+02</pdfrwt>
<pdfrwt beam="2">  1       -2 0.37333950E-02 0.23786506E+02</pdfrwt>
<totfact> 0.21557080E+04</totfact>
</mgrwt>
</event>
<event>
 4    1  0.7653521E+003  0.2695799E+02  0.7546771E-02  0.1634373E+00
         -2   -1    0    0    0  501 -0.00000000000E+00  0.00000000000E+00  0.75171004687E+01  0.75171004687E+01  0.00000000000E+00 0. -1.
          2   -1    0    0  501    0  0.00000000000E+00 -0.00000000000E+00 -0.21121976405E+03  0.21121976405E+03  0.00000000000E+00 0.  1.
          2    1    1    2  502    0  0.51965939109E+01 -0.26452382421E+02 -0.18239064722E+03  0.18437212728E+03  0.00000000000E+00 0.  1.
         -2    1    1    2    0  502 -0.51965939109E+01  0.26452382421E+02 -0.21312016356E+02  0.34364737234E+02  0.00000000000E+00 0. -1.
<mgrwt>
<rscale>  2 0.26957988E+02</rscale>
<asrwt>0</asrwt>
<pdfrwt beam="2">  1        2 0.32495349E-01 0.26957988E+02</pdfrwt>
<pdfrwt beam="1">  1       -2 0.11564770E-02 0.26957988E+02</pdfrwt>
<totfact> 0.17931091E+05</totfact>
</mgrwt>
</event>
<event>
 4    1  0.7653521E+003  0.2683513E+02  0.7546771E-02  0.1635961E+00
         -2   -1    0    0    0  501 -0.00000000000E+00  0.00000000000E+00  0.11875111806E+01  0.11875111806E+01  0.00000000000E+00 0.  1.
          2   -1    0    0  501    0  0.00000000000E+00 -0.00000000000E+00 -0.15778878133E+04  0.15778878133E+04  0.00000000000E+00 0. -1.
          2    1    1    2  502    0  0.12054513574E+02  0.23975251975E+02 -0.14078628695E+04  0.14081185970E+04  0.00000000000E+00 0. -1.
         -2    1    1    2    0  502 -0.12054513574E+02 -0.23975251975E+02 -0.16883743263E+03  0.17095672746E+03  0.00000000000E+00 0.  1.
<mgrwt>
<rscale>  2 0.26835126E+02</rscale>
<asrwt>0</asrwt>
<pdfrwt beam="2">  1        2 0.24275279E+00 0.26835126E+02</pdfrwt>
<pdfrwt beam="1">  1       -2 0.18269341E-03 0.26835126E+02</pdfrwt>
<totfact> 0.21614877E+05</totfact>
</mgrwt>
</event>
<event>
 4    1  0.7653521E+003  0.3008179E+02  0.7546771E-02  0.1597186E+00
         -2   -1    0    0    0  501 -0.00000000000E+00  0.00000000000E+00  0.12277448034E+01  0.12277448034E+01  0.00000000000E+00 0. -1.
          2   -1    0    0  501    0  0.00000000000E+00 -0.00000000000E+00 -0.12663018966E+04  0.12663018966E+04  0.00000000000E+00 0. -1.
          2    1    1    2  502    0  0.26555118179E+02 -0.14132940284E+02 -0.10422588476E+04  0.10426928693E+04  0.00000000000E+00 0. -1.
         -2    1    1    2    0  502 -0.26555118179E+02  0.14132940284E+02 -0.22281530419E+03  0.22483677209E+03  0.00000000000E+00 0. -1.
<mgrwt>
<rscale>  2 0.30081794E+02</rscale>
<asrwt>0</asrwt>
<pdfrwt beam="2">  1        2 0.19481534E+00 0.30081794E+02</pdfrwt>
<pdfrwt beam="1">  1       -2 0.18888414E-03 0.30081794E+02</pdfrwt>
<totfact> 0.30000092E+05</totfact>
</mgrwt>
</event>
<event>
 4    1  0.7653521E+003  0.4036849E+02  0.7546771E-02  0.1505517E+00
         -2   -1    0    0    0  501 -0.00000000000E+00  0.00000000000E+00  0.34624905220E+02  0.34624905220E+02  0.00000000000E+00 0.  1.
          2   -1    0    0  501    0  0.00000000000E+00 -0.00000000000E+00 -0.90956704056E+03  0.90956704056E+03  0.00000000000E+00 0. -1.
          2    1    1    2  502    0  0.40125872961E+02 -0.44191600730E+01 -0.89719070072E+03  0.89809841784E+03  0.00000000000E+00 0. -1.
         -2    1    1    2    0  502 -0.40125872961E+02  0.44191600730E+01  0.22248565383E+02  0.46093527943E+02  0.00000000000E+00 0.  1.
<mgrwt>
<rscale>  2 0.40368486E+02</rscale>
<asrwt>0</asrwt>
<pdfrwt beam="2">  1        2 0.13993339E+00 0.40368486E+02</pdfrwt>
<pdfrwt beam="1">  1       -2 0.53269085E-02 0.40368486E+02</pdfrwt>
<totfact> 0.48482701E+03</totfact>
</mgrwt>
</event>
<event>
 4    1  0.7653521E+003  0.2265028E+02  0.7546771E-02  0.1697242E+00
         -2   -1    0    0    0  501 -0.00000000000E+00  0.00000000000E+00  0.79887068153E+01  0.79887068153E+01  0.00000000000E+00 0.  1.
          2   -1    0    0  501    0  0.00000000000E+00 -0.00000000000E+00 -0.48170092107E+03  0.48170092107E+03  0.00000000000E+00 0. -1.
          2    1    1    2  502    0  0.22602384832E+02  0.14721991795E+01 -0.46479606333E+03  0.46534762883E+03  0.00000000000E+00 0. -1.
         -2    1    1    2    0  502 -0.22602384832E+02 -0.14721991795E+01 -0.89161509195E+01  0.24341999050E+02  0.00000000000E+00 0.  1.
<mgrwt>
<rscale>  2 0.22650280E+02</rscale>
<asrwt>0</asrwt>
<pdfrwt beam="2">  1        2 0.74107865E-01 0.22650280E+02</pdfrwt>
<pdfrwt beam="1">  1       -2 0.12290313E-02 0.22650280E+02</pdfrwt>
<totfact> 0.69816959E+04</totfact>
</mgrwt>
</event>
<event>
 4    1  0.7653521E+003  0.2801702E+02  0.7546771E-02  0.1621102E+00
          2   -1    0    0  501    0  0.00000000000E+00  0.00000000000E+00  0.55075233891E+03  0.55075233891E+03  0.00000000000E+00 0. -1.
         -2   -1    0    0    0  501 -0.00000000000E+00 -0.00000000000E+00 -0.31532981590E+01  0.31532981590E+01  0.00000000000E+00 0.  1.
          2    1    1    2  502    0  0.28012295362E+02 -0.51451168270E+00  0.47882254773E+03  0.47964151784E+03  0.00000000000E+00 0. -1.
         -2    1    1    2    0  502 -0.28012295362E+02  0.51451168270E+00  0.68776493016E+02  0.74264119232E+02  0.00000000000E+00 0.  1.
<mgrwt>
<rscale>  2 0.28017020E+02</rscale>
<asrwt>0</asrwt>
<pdfrwt beam="1">  1        2 0.84731053E-01 0.28017020E+02</pdfrwt>
<pdfrwt beam="2">  1       -2 0.48512323E-03 0.28017020E+02</pdfrwt>
<totfact> 0.22469309E+05</totfact>
</mgrwt>
</event>
<event>
 4    1  0.7653521E+003  0.2416573E+02  0.7546771E-02  0.1673282E+00
          2   -1    0    0  501    0  0.00000000000E+00  0.00000000000E+00  0.15953320330E+03  0.15953320330E+03  0.00000000000E+00 0. -1.
         -2   -1    0    0    0  501 -0.00000000000E+00 -0.00000000000E+00 -0.37156731137E+01  0.37156731137E+01  0.00000000000E+00 0.  1.
          2    1    1    2  502    0 -0.22005369828E+02 -0.99872903229E+01  0.87848943680E+02  0.91112124193E+02  0.00000000000E+00 0. -1.
         -2    1    1    2    0  502  0.22005369828E+02  0.99872903229E+01  0.67968586505E+02  0.72136752219E+02  0.00000000000E+00 0.  1.
<mgrwt>
<rscale>  2 0.24165725E+02</rscale>
<asrwt>0</asrwt>
<pdfrwt beam="1">  1        2 0.24543564E-01 0.24165725E+02</pdfrwt>
<pdfrwt beam="2">  1       -2 0.57164214E-03 0.24165725E+02</pdfrwt>
<totfact> 0.60182102E+05</totfact>
</mgrwt>
</event>
<event>
 4    1  0.7653521E+003  0.2285820E+02  0.7546771E-02  0.1693819E+00
          2   -1    0    0  501    0  0.00000000000E+00  0.00000000000E+00  0.85921926712E+03  0.85921926712E+03  0.00000000000E+00 0. -1.
         -2   -1    0    0    0  501 -0.00000000000E+00 -0.00000000000E+00 -0.19951984701E+02  0.19951984701E+02  0.00000000000E+00 0. -1.
          2    1    1    2  502    0  0.22755454027E+02 -0.21648374064E+01  0.85246847102E+03  0.85277487726E+03  0.00000000000E+00 0. -1.
         -2    1    1    2    0  502 -0.22755454027E+02  0.21648374064E+01 -0.13201188605E+02  0.26396374553E+02  0.00000000000E+00 0. -1.
<mgrwt>
<rscale>  2 0.22858198E+02</rscale>
<asrwt>0</asrwt>
<pdfrwt beam="1">  1        2 0.13218755E+00 0.22858198E+02</pdfrwt>
<pdfrwt beam="2">  1       -2 0.30695368E-02 0.22858198E+02</pdfrwt>
<totfact> 0.10745020E+04</totfact>
</mgrwt>
</event>
<event>
 4    1  0.7653521E+003  0.2132981E+02  0.7546771E-02  0.1720107E+00
          2   -1    0    0  501    0  0.00000000000E+00  0.00000000000E+00  0.27091079872E+02  0.27091079872E+02  0.00000000000E+00 0.  1.
         -2   -1    0    0    0  501 -0.00000000000E+00 -0.00000000000E+00 -0.18178701109E+02  0.18178701109E+02  0.00000000000E+00 0. -1.
          2    1    1    2  502    0  0.20870689139E+02  0.44017052689E+01  0.10703815787E+02  0.23864876845E+02  0.00000000000E+00 0.  1.
         -2    1    1    2    0  502 -0.20870689139E+02 -0.44017052689E+01 -0.17914370237E+01  0.21404904135E+02  0.00000000000E+00 0. -1.
<mgrwt>
<rscale>  2 0.21329807E+02</rscale>
<asrwt>0</asrwt>
<pdfrwt beam="1">  1        2 0.41678585E-02 0.21329807E+02</pdfrwt>
<pdfrwt beam="2">  1       -2 0.27967232E-02 0.21329807E+02</pdfrwt>
<totfact> 0.50754772E+05</totfact>
</mgrwt>
</event>
<event>
 4    1  0.7653521E+003  0.2575930E+02  0.7546771E-02  0.1650329E+00
          2   -1    0    0  501    0  0.00000000000E+00  0.00000000000E+00  0.77449289855E+03  0.77449289855E+03  0.00000000000E+00 0. -1.
         -2   -1    0    0    0  501 -0.00000000000E+00 -0.00000000000E+00 -0.17618768722E+01  0.17618768722E+01  0.00000000000E+00 0.  1.
          2    1    1    2  502    0 -0.41965768714E+01 -0.25415158611E+02  0.66455637678E+03  0.66505542586E+03  0.00000000000E+00 0. -1.
         -2    1    1    2    0  502  0.41965768714E+01  0.25415158611E+02  0.10817464489E+03  0.11119934956E+03  0.00000000000E+00 0.  1.
<mgrwt>
<rscale>  2 0.25759300E+02</rscale>
<asrwt>0</asrwt>
<pdfrwt beam="1">  1        2 0.11915248E+00 0.25759300E+02</pdfrwt>
<pdfrwt beam="2">  1       -2 0.27105860E-03 0.25759300E+02</pdfrwt>
<totfact> 0.33297610E+05</totfact>
</mgrwt>
</event>
<event>
 4    1  0.7653521E+003  0.2152303E+02  0.7546771E-02  0.1716634E+00
          2   -1    0    0  501    0  0.00000000000E+00  0.00000000000E+00  0.37715957185E+02  0.37715957185E+02  0.00000000000E+00 0. -1.
         -2   -1    0    0    0  501 -0.00000000000E+00 -0.00000000000E+00 -0.14502518752E+02  0.14502518752E+02  0.00000000000E+00 0. -1.
          2    1    1    2  502    0 -0.16628445562E+02  0.13665124412E+02  0.21822342013E+02  0.30650537318E+02  0.00000000000E+00 0. -1.
         -2    1    1    2    0  502  0.16628445562E+02 -0.13665124412E+02  0.13910964205E+01  0.21567938618E+02  0.00000000000E+00 0. -1.
<mgrwt>
<rscale>  2 0.21523030E+02</rscale>
<asrwt>0</asrwt>
<pdfrwt beam="1">  1        2 0.58024549E-02 0.21523030E+02</pdfrwt>
<pdfrwt beam="2">  1       -2 0.22311567E-02 0.21523030E+02</pdfrwt>
<totfact> 0.46389748E+05</totfact>
</mgrwt>
</event>
<event>
 4    1  0.7653521E+003  0.5505095E+02  0.7546771E-02  0.1419858E+00
          2   -1    0    0  501    0  0.00000000000E+00  0.00000000000E+00  0.15664211924E+04  0.15664211924E+04  0.00000000000E+00 0. -1.
         -2   -1    0    0    0  501 -0.00000000000E+00 -0.00000000000E+00 -0.15237860699E+02  0.15237860699E+02  0.00000000000E+00 0.  1.
          2    1    1    2  502    0  0.18390370175E+02 -0.51888357955E+02  0.15145122242E+04  0.15155124165E+04  0.00000000000E+00 0. -1.
         -2    1    1    2    0  502 -0.18390370175E+02  0.51888357955E+02  0.36671107541E+02  0.66146636610E+02  0.00000000000E+00 0.  1.
<mgrwt>
<rscale>  2 0.55050953E+02</rscale>
<asrwt>0</asrwt>
<pdfrwt beam="1">  1        2 0.24098775E+00 0.55050953E+02</pdfrwt>
<pdfrwt beam="2">  1       -2 0.23442875E-02 0.55050953E+02</pdfrwt>
<totfact> 0.72448474E+03</totfact>
</mgrwt>
</event>
<event>
 4    1  0.7653521E+003  0.2010338E+02  0.7546771E-02  0.1743280E+00
         -2   -1    0    0    0  501 -0.00000000000E+00  0.00000000000E+00  0.11571207498E+02  0.11571207498E+02  0.00000000000E+00 0.  1.
          2   -1    0    0  501    0  0.00000000000E+00 -0.00000000000E+00 -0.36001579549E+03  0.36001579549E+03  0.00000000000E+00 0.  1.
          2    1    1    2  502    0 -0.20019767436E+02 -0.18316131234E+01 -0.35077356110E+03  0.35134916688E+03  0.00000000000E+00 0.  1.
         -2    1    1    2    0  502  0.20019767436E+02  0.18316131234E+01  0.23289731108E+01  0.20237836114E+02  0.00000000000E+00 0.  1.
<mgrwt>
<rscale>  2 0.20103380E+02</rscale>
<asrwt>0</asrwt>
<pdfrwt beam="2">  1        2 0.55387040E-01 0.20103380E+02</pdfrwt>
<pdfrwt beam="1">  1       -2 0.17801860E-02 0.20103380E+02</pdfrwt>
<totfact> 0.54844814E+04</totfact>
</mgrwt>
</event>
<event>
 4    1  0.7653521E+003  0.2165222E+02  0.7546771E-02  0.1714337E+00
         -2   -1    0    0    0  501 -0.00000000000E+00  0.00000000000E+00  0.41467724894E+02  0.41467724894E+02  0.00000000000E+00 0. -1.
          2   -1    0    0  501    0  0.00000000000E+00 -0.00000000000E+00 -0.73886714017E+03  0.73886714017E+03  0.00000000000E+00 0. -1.
          2    1    1    2  502    0 -0.24419853186E+01 -0.21514073891E+02 -0.73587059874E+03  0.73618907677E+03  0.00000000000E+00 0. -1.
         -2    1    1    2    0  502  0.24419853186E+01  0.21514073891E+02  0.38471183459E+02  0.44145788298E+02  0.00000000000E+00 0. -1.
<mgrwt>
<rscale>  2 0.21652221E+02</rscale>
<asrwt>0</asrwt>
<pdfrwt beam="2">  1        2 0.11367187E+00 0.21652221E+02</pdfrwt>
<pdfrwt beam="1">  1       -2 0.63796501E-02 0.21652221E+02</pdfrwt>
<totfact> 0.45100110E+03</totfact>
</mgrwt>
</event>
<event>
 4    1  0.7653521E+003  0.2128255E+02  0.7546771E-02  0.1720964E+00
         -2   -1    0    0    0  501 -0.00000000000E+00  0.00000000000E+00  0.12044643756E+03  0.12044643756E+03  0.00000000000E+00 0. -1.
          2   -1    0    0  501    0  0.00000000000E+00 -0.00000000000E+00 -0.37552368045E+03  0.37552368045E+03  0.00000000000E+00 0. -1.
          2    1    1    2  502    0 -0.35789025265E+01  0.20979472699E+02 -0.37427887114E+03  0.37488347549E+03  0.00000000000E+00 0. -1.
         -2    1    1    2    0  502  0.35789025265E+01 -0.20979472699E+02  0.11920162825E+03  0.12108664252E+03  0.00000000000E+00 0. -1.
<mgrwt>
<rscale>  2 0.21282547E+02</rscale>
<asrwt>0</asrwt>
<pdfrwt beam="2">  1        2 0.57772873E-01 0.21282547E+02</pdfrwt>
<pdfrwt beam="1">  1       -2 0.18530222E-01 0.21282547E+02</pdfrwt>
<totfact> 0.18125081E+03</totfact>
</mgrwt>
</event>
<event>
 4    1  0.7653521E+003  0.2408326E+02  0.7546771E-02  0.1674529E+00
          2   -1    0    0  501    0  0.00000000000E+00  0.00000000000E+00  0.13568080220E+02  0.13568080220E+02  0.00000000000E+00 0.  1.
         -2   -1    0    0    0  501 -0.00000000000E+00 -0.00000000000E+00 -0.60323549096E+02  0.60323549096E+02  0.00000000000E+00 0.  1.
          2    1    1    2  502    0 -0.24079387384E+02  0.43209631751E+00 -0.34351919614E+01  0.24327025051E+02  0.00000000000E+00 0.  1.
         -2    1    1    2    0  502  0.24079387384E+02 -0.43209631751E+00 -0.43320276914E+02  0.49564604265E+02  0.00000000000E+00 0.  1.
<mgrwt>
<rscale>  2 0.24083264E+02</rscale>
<asrwt>0</asrwt>
<pdfrwt beam="1">  1        2 0.20873970E-02 0.24083264E+02</pdfrwt>
<pdfrwt beam="2">  1       -2 0.92805458E-02 0.24083264E+02</pdfrwt>
<totfact> 0.22795033E+05</totfact>
</mgrwt>
</event>
<event>
 4    1  0.7653521E+003  0.2314732E+02  0.7546771E-02  0.1689133E+00
          2   -1    0    0  501    0  0.00000000000E+00  0.00000000000E+00  0.14058874864E+01  0.14058874864E+01  0.00000000000E+00 0. -1.
         -2   -1    0    0    0  501 -0.00000000000E+00 -0.00000000000E+00 -0.54872274911E+03  0.54872274911E+03  0.00000000000E+00 0. -1.
          2    1    1    2  502    0  0.94900945913E+00 -0.23127861403E+02 -0.12163499267E+03  0.12381789061E+03  0.00000000000E+00 0. -1.
         -2    1    1    2    0  502 -0.94900945913E+00  0.23127861403E+02 -0.42568186895E+03  0.42631074598E+03  0.00000000000E+00 0. -1.
<mgrwt>
<rscale>  2 0.23147324E+02</rscale>
<asrwt>0</asrwt>
<pdfrwt beam="1">  1        2 0.21629053E-03 0.23147324E+02</pdfrwt>
<pdfrwt beam="2">  1       -2 0.84418826E-01 0.23147324E+02</pdfrwt>
<totfact> 0.94165328E+04</totfact>
</mgrwt>
</event>
<event>
 4    1  0.7653521E+003  0.2074517E+02  0.7546771E-02  0.1730903E+00
         -2   -1    0    0    0  501 -0.00000000000E+00  0.00000000000E+00  0.26126515305E+02  0.26126515305E+02  0.00000000000E+00 0. -1.
          2   -1    0    0  501    0  0.00000000000E+00 -0.00000000000E+00 -0.16623156031E+02  0.16623156031E+02  0.00000000000E+00 0. -1.
          2    1    1    2  502    0  0.18730994089E+02  0.89169172270E+01  0.67884922310E+01  0.21827624222E+02  0.00000000000E+00 0. -1.
         -2    1    1    2    0  502 -0.18730994089E+02 -0.89169172270E+01  0.27148670436E+01  0.20922047114E+02  0.00000000000E+00 0. -1.
<mgrwt>
<rscale>  2 0.20745168E+02</rscale>
<asrwt>0</asrwt>
<pdfrwt beam="2">  1        2 0.25574086E-02 0.20745168E+02</pdfrwt>
<pdfrwt beam="1">  1       -2 0.40194639E-02 0.20745168E+02</pdfrwt>
<totfact> 0.55917180E+05</totfact>
</mgrwt>
</event>
<event>
 4    1  0.7653521E+003  0.2180034E+02  0.7546771E-02  0.1711728E+00
         -2   -1    0    0    0  501 -0.00000000000E+00  0.00000000000E+00  0.27180552915E+02  0.27180552915E+02  0.00000000000E+00 0.  1.
          2   -1    0    0  501    0  0.00000000000E+00 -0.00000000000E+00 -0.20685316856E+03  0.20685316856E+03  0.00000000000E+00 0.  1.
          2    1    1    2  502    0 -0.21198355392E+02 -0.50876905609E+01 -0.20179832676E+03  0.20297246008E+03  0.00000000000E+00 0.  1.
         -2    1    1    2    0  502  0.21198355392E+02  0.50876905609E+01  0.22125711122E+02  0.31061261391E+02  0.00000000000E+00 0.  1.
<mgrwt>
<rscale>  2 0.21800341E+02</rscale>
<asrwt>0</asrwt>
<pdfrwt beam="2">  1        2 0.31823566E-01 0.21800341E+02</pdfrwt>
<pdfrwt beam="1">  1       -2 0.41816234E-02 0.21800341E+02</pdfrwt>
<totfact> 0.29622307E+04</totfact>
</mgrwt>
</event>
<event>
 4    1  0.7653521E+003  0.3402901E+02  0.7546771E-02  0.1557396E+00
         -2   -1    0    0    0  501 -0.00000000000E+00  0.00000000000E+00  0.51462183562E+01  0.51462183562E+01  0.00000000000E+00 0. -1.
          2   -1    0    0  501    0  0.00000000000E+00 -0.00000000000E+00 -0.32002154606E+03  0.32002154606E+03  0.00000000000E+00 0.  1.
          2    1    1    2  502    0  0.27217195600E+02  0.20425424924E+02 -0.24602380852E+03  0.24836603648E+03  0.00000000000E+00 0.  1.
         -2    1    1    2    0  502 -0.27217195600E+02 -0.20425424924E+02 -0.68851519189E+02  0.76801727938E+02  0.00000000000E+00 0. -1.
<mgrwt>
<rscale>  2 0.34029013E+02</rscale>
<asrwt>0</asrwt>
<pdfrwt beam="2">  1        2 0.49234086E-01 0.34029013E+02</pdfrwt>
<pdfrwt beam="1">  1       -2 0.79172587E-03 0.34029013E+02</pdfrwt>
<totfact> 0.20955455E+05</totfact>
</mgrwt>
</event>
<event>
 4    1  0.7653521E+003  0.2554604E+02  0.7546771E-02  0.1653281E+00
          2   -1    0    0  501    0  0.00000000000E+00  0.00000000000E+00  0.10682402304E+04  0.10682402304E+04  0.00000000000E+00 0. -1.
         -2   -1    0    0    0  501 -0.00000000000E+00 -0.00000000000E+00 -0.15829444622E+01  0.15829444622E+01  0.00000000000E+00 0.  1.
          2    1    1    2  502    0 -0.21868992956E+02 -0.13204072017E+02  0.95249810576E+03  0.95284061723E+03  0.00000000000E+00 0. -1.
         -2    1    1    2    0  502  0.21868992956E+02  0.13204072017E+02  0.11415918016E+03  0.11698255762E+03  0.00000000000E+00 0.  1.
<mgrwt>
<rscale>  2 0.25546044E+02</rscale>
<asrwt>0</asrwt>
<pdfrwt beam="1">  1        2 0.16434407E+00 0.25546044E+02</pdfrwt>
<pdfrwt beam="2">  1       -2 0.24353077E-03 0.25546044E+02</pdfrwt>
<totfact> 0.26012241E+05</totfact>
</mgrwt>
</event>
<event>
 4    1  0.7653521E+003  0.2202613E+02  0.7546771E-02  0.1707800E+00
         -2   -1    0    0    0  501 -0.00000000000E+00  0.00000000000E+00  0.13655643833E+03  0.13655643833E+03  0.00000000000E+00 0. -1.
          2   -1    0    0  501    0  0.00000000000E+00 -0.00000000000E+00 -0.33229463739E+02  0.33229463739E+02  0.00000000000E+00 0. -1.
          2    1    1    2  502    0  0.74330813739E+01 -0.20734023224E+02 -0.28563021458E+02  0.36069330637E+02  0.00000000000E+00 0. -1.
         -2    1    1    2    0  502 -0.74330813739E+01  0.20734023224E+02  0.13188999605E+03  0.13371657143E+03  0.00000000000E+00 0. -1.
<mgrwt>
<rscale>  2 0.22026130E+02</rscale>
<asrwt>0</asrwt>
<pdfrwt beam="2">  1        2 0.51122253E-02 0.22026130E+02</pdfrwt>
<pdfrwt beam="1">  1       -2 0.21008683E-01 0.22026130E+02</pdfrwt>
<totfact> 0.20557628E+04</totfact>
</mgrwt>
</event>
<event>
 4    1  0.7653521E+003  0.2311673E+02  0.7546771E-02  0.1689625E+00
          2   -1    0    0  501    0  0.00000000000E+00  0.00000000000E+00  0.93620785636E+03  0.93620785636E+03  0.00000000000E+00 0.  1.
         -2   -1    0    0    0  501 -0.00000000000E+00 -0.00000000000E+00 -0.23896068192E+01  0.23896068192E+01  0.00000000000E+00 0. -1.
          2    1    1    2  502    0 -0.10259411646E+02  0.20715397178E+02  0.87633942813E+03  0.87664427022E+03  0.00000000000E+00 0.  1.
         -2    1    1    2    0  502  0.10259411646E+02 -0.20715397178E+02  0.57478821413E+02  0.61953192965E+02  0.00000000000E+00 0. -1.
<mgrwt>
<rscale>  2 0.23116730E+02</rscale>
<asrwt>0</asrwt>
<pdfrwt beam="1">  1        2 0.14403169E+00 0.23116730E+02</pdfrwt>
<pdfrwt beam="2">  1       -2 0.36763257E-03 0.23116730E+02</pdfrwt>
<totfact> 0.17304327E+05</totfact>
</mgrwt>
</event>
<event>
 4    1  0.7653521E+003  0.2094615E+02  0.7546771E-02  0.1727142E+00
          2   -1    0    0  501    0  0.00000000000E+00  0.00000000000E+00  0.24322466382E+01  0.24322466382E+01  0.00000000000E+00 0.  1.
         -2   -1    0    0    0  501 -0.00000000000E+00 -0.00000000000E+00 -0.24222324181E+03  0.24222324181E+03  0.00000000000E+00 0.  1.
          2    1    1    2  502    0  0.14621711129E+02  0.14998222402E+02 -0.58087426247E+02  0.61748604839E+02  0.00000000000E+00 0.  1.
         -2    1    1    2    0  502 -0.14621711129E+02 -0.14998222402E+02 -0.18170356892E+03  0.18290688361E+03  0.00000000000E+00 0.  1.
<mgrwt>
<rscale>  2 0.20946148E+02</rscale>
<asrwt>0</asrwt>
<pdfrwt beam="1">  1        2 0.37419193E-03 0.20946148E+02</pdfrwt>
<pdfrwt beam="2">  1       -2 0.37265101E-01 0.20946148E+02</pdfrwt>
<totfact> 0.21906090E+05</totfact>
</mgrwt>
</event>
<event>
 4    1  0.7653521E+003  0.2846017E+02  0.7546771E-02  0.1615761E+00
         -2   -1    0    0    0  501 -0.00000000000E+00  0.00000000000E+00  0.44343492423E+02  0.44343492423E+02  0.00000000000E+00 0.  1.
          2   -1    0    0  501    0  0.00000000000E+00 -0.00000000000E+00 -0.75064538757E+02  0.75064538757E+02  0.00000000000E+00 0. -1.
          2    1    1    2  502    0  0.22771740257E+02 -0.17071296783E+02 -0.67294842784E+02  0.73065567769E+02  0.00000000000E+00 0. -1.
         -2    1    1    2    0  502 -0.22771740257E+02  0.17071296783E+02  0.36573796450E+02  0.46342463410E+02  0.00000000000E+00 0.  1.
<mgrwt>
<rscale>  2 0.28460171E+02</rscale>
<asrwt>0</asrwt>
<pdfrwt beam="2">  1        2 0.11548391E-01 0.28460171E+02</pdfrwt>
<pdfrwt beam="1">  1       -2 0.68220758E-02 0.28460171E+02</pdfrwt>
<totfact> 0.45877052E+04</totfact>
</mgrwt>
</event>
<event>
 4    1  0.7653521E+003  0.2730262E+02  0.7546771E-02  0.1629973E+00
         -2   -1    0    0    0  501 -0.00000000000E+00  0.00000000000E+00  0.78576324671E+01  0.78576324671E+01  0.00000000000E+00 0.  1.
          2   -1    0    0  501    0  0.00000000000E+00 -0.00000000000E+00 -0.94104564090E+03  0.94104564090E+03  0.00000000000E+00 0. -1.
          2    1    1    2  502    0  0.65245985417E+01  0.26511559616E+02 -0.91649559798E+03  0.91690218361E+03  0.00000000000E+00 0. -1.
         -2    1    1    2    0  502 -0.65245985417E+01 -0.26511559616E+02 -0.16692410454E+02  0.32001089765E+02  0.00000000000E+00 0.  1.
<mgrwt>
<rscale>  2 0.27302622E+02</rscale>
<asrwt>0</asrwt>
<pdfrwt beam="2">  1        2 0.14477630E+00 0.27302622E+02</pdfrwt>
<pdfrwt beam="1">  1       -2 0.12088661E-02 0.27302622E+02</pdfrwt>
<totfact> 0.35651406E+04</totfact>
</mgrwt>
</event>
<event>
 4    1  0.7653521E+003  0.2087489E+02  0.7546771E-02  0.1728469E+00
         -2   -1    0    0    0  501 -0.00000000000E+00  0.00000000000E+00  0.63861385403E+00  0.63861385403E+00  0.00000000000E+00 0. -1.
          2   -1    0    0  501    0  0.00000000000E+00 -0.00000000000E+00 -0.11415334876E+04  0.11415334876E+04  0.00000000000E+00 0. -1.
          2    1    1    2  502    0  0.16385088769E+02  0.12934067400E+02 -0.93264713313E+03  0.93288071915E+03  0.00000000000E+00 0. -1.
         -2    1    1    2    0  502 -0.16385088769E+02 -0.12934067400E+02 -0.20824774062E+03  0.20929138230E+03  0.00000000000E+00 0. -1.
<mgrwt>
<rscale>  2 0.20874895E+02</rscale>
<asrwt>0</asrwt>
<pdfrwt beam="2">  1        2 0.17561820E+00 0.20874895E+02</pdfrwt>
<pdfrwt beam="1">  1       -2 0.98249594E-04 0.20874895E+02</pdfrwt>
<totfact> 0.74980073E+05</totfact>
</mgrwt>
</event>
<event>
 4    1  0.7653521E+003  0.2009427E+02  0.7546771E-02  0.1743460E+00
         -2   -1    0    0    0  501 -0.00000000000E+00  0.00000000000E+00  0.44085290825E+00  0.44085290825E+00  0.00000000000E+00 0. -1.
          2   -1    0    0  501    0  0.00000000000E+00 -0.00000000000E+00 -0.11350769330E+04  0.11350769330E+04  0.00000000000E+00 0.  1.
          2    1    1    2  502    0 -0.20078800412E+02 -0.78838849359E+00 -0.81680213718E+03  0.81704927090E+03  0.00000000000E+00 0.  1.
         -2    1    1    2    0  502  0.20078800412E+02  0.78838849359E+00 -0.31783394293E+03  0.31846851502E+03  0.00000000000E+00 0. -1.
<mgrwt>
<rscale>  2 0.20094272E+02</rscale>
<asrwt>0</asrwt>
<pdfrwt beam="2">  1        2 0.17462797E+00 0.20094272E+02</pdfrwt>
<pdfrwt beam="1">  1       -2 0.67823235E-04 0.20094272E+02</pdfrwt>
<totfact> 0.12124212E+06</totfact>
</mgrwt>
</event>
<event>
 4    1  0.7653521E+003  0.2259831E+02  0.7546771E-02  0.1698105E+00
          2   -1    0    0  501    0  0.00000000000E+00  0.00000000000E+00  0.11321010859E+03  0.11321010859E+03  0.00000000000E+00 0.  1.
         -2   -1    0    0    0  501 -0.00000000000E+00 -0.00000000000E+00 -0.11674945772E+03  0.11674945772E+03  0.00000000000E+00 0.  1.
          2    1    1    2  502    0 -0.57903043184E+01 -0.21843904494E+02  0.11096694656E+03  0.11324463350E+03  0.00000000000E+00 0.  1.
         -2    1    1    2    0  502  0.57903043184E+01  0.21843904494E+02 -0.11450629569E+03  0.11671493281E+03  0.00000000000E+00 0.  1.
<mgrwt>
<rscale>  2 0.22598314E+02</rscale>
<asrwt>0</asrwt>
<pdfrwt beam="1">  1        2 0.17416940E-01 0.22598314E+02</pdfrwt>
<pdfrwt beam="2">  1       -2 0.17961455E-01 0.22598314E+02</pdfrwt>
<totfact> 0.64594451E+03</totfact>
</mgrwt>
</event>
<event>
 4    1  0.7653521E+003  0.1020901E+03  0.7546771E-02  0.1275961E+00
         -2   -1    0    0    0  501 -0.00000000000E+00  0.00000000000E+00  0.18030037193E+02  0.18030037193E+02  0.00000000000E+00 0. -1.
          2   -1    0    0  501    0  0.00000000000E+00 -0.00000000000E+00 -0.83714472461E+03  0.83714472461E+03  0.00000000000E+00 0. -1.
          2    1    1    2  502    0  0.90642982279E+02  0.46970561331E+02 -0.64743205491E+03  0.65543165135E+03  0.00000000000E+00 0. -1.
         -2    1    1    2    0  502 -0.90642982279E+02 -0.46970561331E+02 -0.17168263250E+03  0.19974311045E+03  0.00000000000E+00 0. -1.
<mgrwt>
<rscale>  2 0.10209008E+03</rscale>
<asrwt>0</asrwt>
<pdfrwt beam="2">  1        2 0.12879149E+00 0.10209008E+03</pdfrwt>
<pdfrwt beam="1">  1       -2 0.27738519E-02 0.10209008E+03</pdfrwt>
<totfact> 0.14875425E+04</totfact>
</mgrwt>
</event>
<event>
 4    1  0.7653521E+003  0.2303844E+02  0.7546771E-02  0.1690888E+00
          2   -1    0    0  501    0  0.00000000000E+00  0.00000000000E+00  0.83412401010E+03  0.83412401010E+03  0.00000000000E+00 0. -1.
         -2   -1    0    0    0  501 -0.00000000000E+00 -0.00000000000E+00 -0.10954565713E+02  0.10954565713E+02  0.00000000000E+00 0. -1.
          2    1    1    2  502    0 -0.13170197138E+02 -0.18902793213E+02  0.82166836729E+03  0.82199128674E+03  0.00000000000E+00 0. -1.
         -2    1    1    2    0  502  0.13170197138E+02  0.18902793213E+02  0.15010770966E+01  0.23087289064E+02  0.00000000000E+00 0. -1.
<mgrwt>
<rscale>  2 0.23038439E+02</rscale>
<asrwt>0</asrwt>
<pdfrwt beam="1">  1        2 0.12832672E+00 0.23038439E+02</pdfrwt>
<pdfrwt beam="2">  1       -2 0.16853185E-02 0.23038439E+02</pdfrwt>
<totfact> 0.25424100E+04</totfact>
</mgrwt>
</event>
<event>
 4    1  0.7653521E+003  0.4282442E+02  0.7546771E-02  0.1488399E+00
          2   -1    0    0  501    0  0.00000000000E+00  0.00000000000E+00  0.23468118389E+04  0.23468118389E+04  0.00000000000E+00 0.  1.
         -2   -1    0    0    0  501 -0.00000000000E+00 -0.00000000000E+00 -0.24290133645E+01  0.24290133645E+01  0.00000000000E+00 0.  1.
          2    1    1    2  502    0  0.35890472286E+02 -0.23362464023E+02  0.21395841866E+04  0.21400127154E+04  0.00000000000E+00 0.  1.
         -2    1    1    2    0  502 -0.35890472286E+02  0.23362464023E+02  0.20479863892E+03  0.20922813681E+03  0.00000000000E+00 0.  1.
<mgrwt>
<rscale>  2 0.42824417E+02</rscale>
<asrwt>0</asrwt>
<pdfrwt beam="1">  1        2 0.36104616E+00 0.42824417E+02</pdfrwt>
<pdfrwt beam="2">  1       -2 0.37369624E-03 0.42824417E+02</pdfrwt>
<totfact> 0.37833346E+04</totfact>
</mgrwt>
</event>
<event>
 4    1  0.7653521E+003  0.3142420E+02  0.7546771E-02  0.1582859E+00
          2   -1    0    0  501    0  0.00000000000E+00  0.00000000000E+00  0.80403591765E+02  0.80403591765E+02  0.00000000000E+00 0. -1.
         -2   -1    0    0    0  501 -0.00000000000E+00 -0.00000000000E+00 -0.36928226211E+02  0.36928226211E+02  0.00000000000E+00 0. -1.
          2    1    1    2  502    0 -0.31247091678E+02  0.33315898216E+01  0.69665297499E+02  0.76424694338E+02  0.00000000000E+00 0. -1.
         -2    1    1    2    0  502  0.31247091678E+02 -0.33315898216E+01 -0.26189931945E+02  0.40907123638E+02  0.00000000000E+00 0. -1.
<mgrwt>
<rscale>  2 0.31424198E+02</rscale>
<asrwt>0</asrwt>
<pdfrwt beam="1">  1        2 0.12369783E-01 0.31424198E+02</pdfrwt>
<pdfrwt beam="2">  1       -2 0.56812656E-02 0.31424198E+02</pdfrwt>
<totfact> 0.56441508E+04</totfact>
</mgrwt>
</event>
<event>
 4    1  0.7653521E+003  0.2152087E+02  0.7546771E-02  0.1716672E+00
         -2   -1    0    0    0  501 -0.00000000000E+00  0.00000000000E+00  0.23233233383E+01  0.23233233383E+01  0.00000000000E+00 0.  1.
          2   -1    0    0  501    0  0.00000000000E+00 -0.00000000000E+00 -0.46400773151E+03  0.46400773151E+03  0.00000000000E+00 0.  1.
          2    1    1    2  502    0  0.17776089884E+02 -0.12130890118E+02 -0.40693693923E+03  0.40750560779E+03  0.00000000000E+00 0.  1.
         -2    1    1    2    0  502 -0.17776089884E+02  0.12130890118E+02 -0.54747468942E+02  0.58825447063E+02  0.00000000000E+00 0.  1.
<mgrwt>
<rscale>  2 0.21520870E+02</rscale>
<asrwt>0</asrwt>
<pdfrwt beam="2">  1        2 0.71385772E-01 0.21520870E+02</pdfrwt>
<pdfrwt beam="1">  1       -2 0.35743453E-03 0.21520870E+02</pdfrwt>
<totfact> 0.37555818E+05</totfact>
</mgrwt>
</event>
<event>
 4    1  0.7653521E+003  0.2733219E+02  0.7546771E-02  0.1629600E+00
          2   -1    0    0  501    0  0.00000000000E+00  0.00000000000E+00  0.18051192935E+04  0.18051192935E+04  0.00000000000E+00 0. -1.
         -2   -1    0    0    0  501 -0.00000000000E+00 -0.00000000000E+00 -0.42966819662E+00  0.42966819662E+00  0.00000000000E+00 0. -1.
          2    1    1    2  502    0 -0.24610345772E+02  0.11890310112E+02  0.10755621476E+04  0.10759093744E+04  0.00000000000E+00 0. -1.
         -2    1    1    2    0  502  0.24610345772E+02 -0.11890310112E+02  0.72912747771E+03  0.72963958730E+03  0.00000000000E+00 0. -1.
<mgrwt>
<rscale>  2 0.27332190E+02</rscale>
<asrwt>0</asrwt>
<pdfrwt beam="1">  1        2 0.27770459E+00 0.27332190E+02</pdfrwt>
<pdfrwt beam="2">  1       -2 0.66104245E-04 0.27332190E+02</pdfrwt>
<totfact> 0.65318320E+05</totfact>
</mgrwt>
</event>
<event>
 4    1  0.7653521E+003  0.2601415E+02  0.7546771E-02  0.1646848E+00
          2   -1    0    0  501    0  0.00000000000E+00  0.00000000000E+00  0.34025483516E+03  0.34025483516E+03  0.00000000000E+00 0. -1.
         -2   -1    0    0    0  501 -0.00000000000E+00 -0.00000000000E+00 -0.56745655976E+01  0.56745655976E+01  0.00000000000E+00 0.  1.
          2    1    1    2  502    0 -0.23994367402E+02  0.10050201404E+02  0.30668556892E+03  0.30778689770E+03  0.00000000000E+00 0. -1.
         -2    1    1    2    0  502  0.23994367402E+02 -0.10050201404E+02  0.27894700648E+02  0.38142503058E+02  0.00000000000E+00 0.  1.
<mgrwt>
<rscale>  2 0.26014154E+02</rscale>
<asrwt>0</asrwt>
<pdfrwt beam="1">  1        2 0.52346882E-01 0.26014154E+02</pdfrwt>
<pdfrwt beam="2">  1       -2 0.87301036E-03 0.26014154E+02</pdfrwt>
<totfact> 0.16191812E+05</totfact>
</mgrwt>
</event>
<event>
 4    1  0.7653521E+003  0.2102920E+02  0.7546771E-02  0.1725603E+00
         -2   -1    0    0    0  501 -0.00000000000E+00  0.00000000000E+00  0.75691120198E+01  0.75691120198E+01  0.00000000000E+00 0.  1.
          2   -1    0    0  501    0  0.00000000000E+00 -0.00000000000E+00 -0.17882169709E+03  0.17882169709E+03  0.00000000000E+00 0. -1.
          2    1    1    2  502    0  0.38483755343E+01  0.20674071848E+02 -0.16209631756E+03  0.16345471363E+03  0.00000000000E+00 0. -1.
         -2    1    1    2    0  502 -0.38483755343E+01 -0.20674071848E+02 -0.91562675047E+01  0.22936095475E+02  0.00000000000E+00 0.  1.
<mgrwt>
<rscale>  2 0.21029200E+02</rscale>
<asrwt>0</asrwt>
<pdfrwt beam="2">  1        2 0.27511029E-01 0.21029200E+02</pdfrwt>
<pdfrwt beam="1">  1       -2 0.11644788E-02 0.21029200E+02</pdfrwt>
<totfact> 0.19707880E+05</totfact>
</mgrwt>
</event>
<event>
 4    1  0.7653521E+003  0.6108056E+02  0.7546771E-02  0.1393352E+00
         -2   -1    0    0    0  501 -0.00000000000E+00  0.00000000000E+00  0.19901154540E+03  0.19901154540E+03  0.00000000000E+00 0. -1.
          2   -1    0    0  501    0  0.00000000000E+00 -0.00000000000E+00 -0.11718019806E+04  0.11718019806E+04  0.00000000000E+00 0. -1.
          2    1    1    2  502    0  0.54938946883E+02 -0.26693570307E+02 -0.11662972080E+04  0.11678955484E+04  0.00000000000E+00 0. -1.
         -2    1    1    2    0  502 -0.54938946883E+02  0.26693570307E+02  0.19350677272E+03  0.20291797769E+03  0.00000000000E+00 0. -1.
<mgrwt>
<rscale>  2 0.61080558E+02</rscale>
<asrwt>0</asrwt>
<pdfrwt beam="2">  1        2 0.18027723E+00 0.61080558E+02</pdfrwt>
<pdfrwt beam="1">  1       -2 0.30617161E-01 0.61080558E+02</pdfrwt>
<totfact> 0.21963630E+02</totfact>
</mgrwt>
</event>
<event>
 4    1  0.7653521E+003  0.3144332E+02  0.7546771E-02  0.1582662E+00
          2   -1    0    0  501    0  0.00000000000E+00  0.00000000000E+00  0.17671657114E+03  0.17671657114E+03  0.00000000000E+00 0.  1.
         -2   -1    0    0    0  501 -0.00000000000E+00 -0.00000000000E+00 -0.57368182022E+02  0.57368182022E+02  0.00000000000E+00 0. -1.
          2    1    1    2  502    0 -0.31023495020E+02 -0.51210370946E+01  0.17086301712E+03  0.17373212968E+03  0.00000000000E+00 0.  1.
         -2    1    1    2    0  502  0.31023495020E+02  0.51210370946E+01 -0.51514627996E+02  0.60352623487E+02  0.00000000000E+00 0. -1.
<mgrwt>
<rscale>  2 0.31443318E+02</rscale>
<asrwt>0</asrwt>
<pdfrwt beam="1">  1        2 0.27187164E-01 0.31443318E+02</pdfrwt>
<pdfrwt beam="2">  1       -2 0.88258743E-02 0.31443318E+02</pdfrwt>
<totfact> 0.12573309E+04</totfact>
</mgrwt>
</event>
<event>
 4    1  0.7653521E+003  0.2034655E+02  0.7546771E-02  0.1738523E+00
          2   -1    0    0  501    0  0.00000000000E+00  0.00000000000E+00  0.35540182101E+01  0.35540182101E+01  0.00000000000E+00 0.  1.
         -2   -1    0    0    0  501 -0.00000000000E+00 -0.00000000000E+00 -0.39159719640E+03  0.39159719640E+03  0.00000000000E+00 0. -1.
          2    1    1    2  502    0  0.14558192686E+02 -0.14214114080E+02 -0.28417829339E+02  0.34950751605E+02  0.00000000000E+00 0.  1.
         -2    1    1    2    0  502 -0.14558192686E+02  0.14214114080E+02 -0.35962534885E+03  0.36020046300E+03  0.00000000000E+00 0. -1.
<mgrwt>
<rscale>  2 0.20346548E+02</rscale>
<asrwt>0</asrwt>
<pdfrwt beam="1">  1        2 0.54677202E-03 0.20346548E+02</pdfrwt>
<pdfrwt beam="2">  1       -2 0.60245724E-01 0.20346548E+02</pdfrwt>
<totfact> 0.53760350E+04</totfact>
</mgrwt>
</event>
<event>
 4    1  0.7653521E+003  0.2312699E+02  0.7546771E-02  0.1689460E+00
         -2   -1    0    0    0  501 -0.00000000000E+00  0.00000000000E+00  0.67107950694E+00  0.67107950694E+00  0.00000000000E+00 0. -1.
          2   -1    0    0  501    0  0.00000000000E+00 -0.00000000000E+00 -0.12073319646E+04  0.12073319646E+04  0.00000000000E+00 0. -1.
          2    1    1    2  502    0 -0.21538901310E+02  0.84221894972E+01 -0.95544720282E+03  0.95572706090E+03  0.00000000000E+00 0. -1.
         -2    1    1    2    0  502  0.21538901310E+02 -0.84221894972E+01 -0.25121368224E+03  0.25227598319E+03  0.00000000000E+00 0. -1.
<mgrwt>
<rscale>  2 0.23126987E+02</rscale>
<asrwt>0</asrwt>
<pdfrwt beam="2">  1        2 0.18574338E+00 0.23126987E+02</pdfrwt>
<pdfrwt beam="1">  1       -2 0.10324300E-03 0.23126987E+02</pdfrwt>
<totfact> 0.67033833E+05</totfact>
</mgrwt>
</event>
<event>
 4    1  0.7653521E+003  0.2279408E+02  0.7546771E-02  0.1694870E+00
         -2   -1    0    0    0  501 -0.00000000000E+00  0.00000000000E+00  0.10056103528E+02  0.10056103528E+02  0.00000000000E+00 0. -1.
          2   -1    0    0  501    0  0.00000000000E+00 -0.00000000000E+00 -0.56671735937E+02  0.56671735937E+02  0.00000000000E+00 0. -1.
          2    1    1    2  502    0  0.15052444998E+02  0.17117064286E+02 -0.33222499158E+02  0.40290252426E+02  0.00000000000E+00 0. -1.
         -2    1    1    2    0  502 -0.15052444998E+02 -0.17117064286E+02 -0.13393133251E+02  0.26437587040E+02  0.00000000000E+00 0. -1.
<mgrwt>
<rscale>  2 0.22794078E+02</rscale>
<asrwt>0</asrwt>
<pdfrwt beam="2">  1        2 0.87187288E-02 0.22794078E+02</pdfrwt>
<pdfrwt beam="1">  1       -2 0.15470928E-02 0.22794078E+02</pdfrwt>
<totfact> 0.48062965E+05</totfact>
</mgrwt>
</event>
<event>
 4    1  0.7653521E+003  0.2734760E+02  0.7546771E-02  0.1629405E+00
         -2   -1    0    0    0  501 -0.00000000000E+00  0.00000000000E+00  0.41034543347E+03  0.41034543347E+03  0.00000000000E+00 0. -1.
          2   -1    0    0  501    0  0.00000000000E+00 -0.00000000000E+00 -0.73445276129E+03  0.73445276129E+03  0.00000000000E+00 0. -1.
          2    1    1    2  502    0  0.21370511708E+02 -0.17064354227E+02 -0.73374209873E+03  0.73425156343E+03  0.00000000000E+00 0. -1.
         -2    1    1    2    0  502 -0.21370511708E+02  0.17064354227E+02  0.40963477091E+03  0.41054663133E+03  0.00000000000E+00 0. -1.
<mgrwt>
<rscale>  2 0.27347595E+02</rscale>
<asrwt>0</asrwt>
<pdfrwt beam="2">  1        2 0.11299273E+00 0.27347595E+02</pdfrwt>
<pdfrwt beam="1">  1       -2 0.63130067E-01 0.27347595E+02</pdfrwt>
<totfact> 0.10399700E+02</totfact>
</mgrwt>
</event>
<event>
 4    1  0.7653521E+003  0.3069467E+02  0.7546771E-02  0.1590535E+00
          2   -1    0    0  501    0  0.00000000000E+00  0.00000000000E+00  0.16305837750E+04  0.16305837750E+04  0.00000000000E+00 0. -1.
         -2   -1    0    0    0  501 -0.00000000000E+00 -0.00000000000E+00 -0.12422903614E+02  0.12422903614E+02  0.00000000000E+00 0.  1.
          2    1    1    2  502    0 -0.30360511422E+02 -0.45168596013E+01  0.16112516612E+04  0.16115440045E+04  0.00000000000E+00 0. -1.
         -2    1    1    2    0  502  0.30360511422E+02  0.45168596013E+01  0.69092101151E+01  0.31462674058E+02  0.00000000000E+00 0.  1.
<mgrwt>
<rscale>  2 0.30694669E+02</rscale>
<asrwt>0</asrwt>
<pdfrwt beam="1">  1        2 0.25085887E+00 0.30694669E+02</pdfrwt>
<pdfrwt beam="2">  1       -2 0.19112172E-02 0.30694669E+02</pdfrwt>
<totfact> 0.86390433E+03</totfact>
</mgrwt>
</event>
<event>
 4    1  0.7653521E+003  0.3757164E+02  0.7546771E-02  0.1526882E+00
          2   -1    0    0  501    0  0.00000000000E+00  0.00000000000E+00  0.14681539845E+04  0.14681539845E+04  0.00000000000E+00 0. -1.
         -2   -1    0    0    0  501 -0.00000000000E+00 -0.00000000000E+00 -0.20133504883E+01  0.20133504883E+01  0.00000000000E+00 0.  1.
          2    1    1    2  502    0  0.40519010011E+01 -0.37352508219E+02  0.12643881698E+04  0.12649462722E+04  0.00000000000E+00 0. -1.
         -2    1    1    2    0  502 -0.40519010011E+01  0.37352508219E+02  0.20175246418E+03  0.20522106270E+03  0.00000000000E+00 0.  1.
<mgrwt>
<rscale>  2 0.37571635E+02</rscale>
<asrwt>0</asrwt>
<pdfrwt beam="1">  1        2 0.22586899E+00 0.37571635E+02</pdfrwt>
<pdfrwt beam="2">  1       -2 0.30974740E-03 0.37571635E+02</pdfrwt>
<totfact> 0.12792185E+05</totfact>
</mgrwt>
</event>
<event>
 4    1  0.7653521E+003  0.2492389E+02  0.7546771E-02  0.1662098E+00
          2   -1    0    0  501    0  0.00000000000E+00  0.00000000000E+00  0.45677359933E+03  0.45677359933E+03  0.00000000000E+00 0. -1.
         -2   -1    0    0    0  501 -0.00000000000E+00 -0.00000000000E+00 -0.12533190063E+02  0.12533190063E+02  0.00000000000E+00 0. -1.
          2    1    1    2  502    0  0.20966394013E+02  0.13476297742E+02  0.44367702540E+03  0.44437653308E+03  0.00000000000E+00 0. -1.
         -2    1    1    2    0  502 -0.20966394013E+02 -0.13476297742E+02  0.56338386594E+00  0.24930256319E+02  0.00000000000E+00 0. -1.
<mgrwt>
<rscale>  2 0.24923890E+02</rscale>
<asrwt>0</asrwt>
<pdfrwt beam="1">  1        2 0.70272849E-01 0.24923890E+02</pdfrwt>
<pdfrwt beam="2">  1       -2 0.19281834E-02 0.24923890E+02</pdfrwt>
<totfact> 0.40598584E+04</totfact>
</mgrwt>
</event>
<event>
 4    1  0.7653521E+003  0.2114580E+02  0.7546771E-02  0.1723458E+00
         -2   -1    0    0    0  501 -0.00000000000E+00  0.00000000000E+00  0.50191754241E+02  0.50191754241E+02  0.00000000000E+00 0. -1.
          2   -1    0    0  501    0  0.00000000000E+00 -0.00000000000E+00 -0.13986927877E+02  0.13986927877E+02  0.00000000000E+00 0. -1.
          2    1    1    2  502    0  0.14643218576E+02  0.15255201268E+02 -0.12330351220E+01  0.21181723056E+02  0.00000000000E+00 0. -1.
         -2    1    1    2    0  502 -0.14643218576E+02 -0.15255201268E+02  0.37437861485E+02  0.42996959062E+02  0.00000000000E+00 0. -1.
<mgrwt>
<rscale>  2 0.21145804E+02</rscale>
<asrwt>0</asrwt>
<pdfrwt beam="2">  1        2 0.21518351E-02 0.21145804E+02</pdfrwt>
<pdfrwt beam="1">  1       -2 0.77218082E-02 0.21145804E+02</pdfrwt>
<totfact> 0.27624596E+05</totfact>
</mgrwt>
</event>
<event>
 4    1  0.7653521E+003  0.3348480E+02  0.7546771E-02  0.1562483E+00
          2   -1    0    0  501    0  0.00000000000E+00  0.00000000000E+00  0.92087915544E+03  0.92087915544E+03  0.00000000000E+00 0.  1.
         -2   -1    0    0    0  501 -0.00000000000E+00 -0.00000000000E+00 -0.88952173342E+01  0.88952173342E+01  0.00000000000E+00 0.  1.
          2    1    1    2  502    0 -0.15768732906E+02 -0.29539448644E+02  0.88789222556E+03  0.88852340216E+03  0.00000000000E+00 0.  1.
         -2    1    1    2    0  502  0.15768732906E+02  0.29539448644E+02  0.24091712541E+02  0.41250970617E+02  0.00000000000E+00 0.  1.
<mgrwt>
<rscale>  2 0.33484802E+02</rscale>
<asrwt>0</asrwt>
<pdfrwt beam="1">  1        2 0.14167364E+00 0.33484802E+02</pdfrwt>
<pdfrwt beam="2">  1       -2 0.13684957E-02 0.33484802E+02</pdfrwt>
<totfact> 0.31857403E+04</totfact>
</mgrwt>
</event>
<event>
 4    1  0.7653521E+003  0.2052257E+02  0.7546771E-02  0.1735131E+00
         -2   -1    0    0    0  501 -0.00000000000E+00  0.00000000000E+00  0.10145859811E+03  0.10145859811E+03  0.00000000000E+00 0. -1.
          2   -1    0    0  501    0  0.00000000000E+00 -0.00000000000E+00 -0.24709256697E+02  0.24709256697E+02  0.00000000000E+00 0.  1.
          2    1    1    2  502    0  0.95895252536E+01 -0.18144335733E+02 -0.19166647952E+02  0.28080888652E+02  0.00000000000E+00 0.  1.
         -2    1    1    2    0  502 -0.95895252536E+01  0.18144335733E+02  0.95915989365E+02  0.98086966156E+02  0.00000000000E+00 0. -1.
<mgrwt>
<rscale>  2 0.20522571E+02</rscale>
<asrwt>0</asrwt>
<pdfrwt beam="2">  1        2 0.38014241E-02 0.20522571E+02</pdfrwt>
<pdfrwt beam="1">  1       -2 0.15609015E-01 0.20522571E+02</pdfrwt>
<totfact> 0.46664099E+04</totfact>
</mgrwt>
</event>
<event>
 4    1  0.7653521E+003  0.2157238E+02  0.7546771E-02  0.1715754E+00
         -2   -1    0    0    0  501 -0.00000000000E+00  0.00000000000E+00  0.19926051443E+03  0.19926051443E+03  0.00000000000E+00 0.  1.
          2   -1    0    0  501    0  0.00000000000E+00 -0.00000000000E+00 -0.59325792193E+03  0.59325792193E+03  0.00000000000E+00 0. -1.
          2    1    1    2  502    0 -0.16761000175E+02 -0.13580742375E+02 -0.59247717754E+03  0.59286977794E+03  0.00000000000E+00 0. -1.
         -2    1    1    2    0  502  0.16761000175E+02  0.13580742375E+02  0.19847977004E+03  0.19964865841E+03  0.00000000000E+00 0.  1.
<mgrwt>
<rscale>  2 0.21572383E+02</rscale>
<asrwt>0</asrwt>
<pdfrwt beam="2">  1        2 0.91270448E-01 0.21572383E+02</pdfrwt>
<pdfrwt beam="1">  1       -2 0.30655464E-01 0.21572383E+02</pdfrwt>
<totfact> 0.49956911E+02</totfact>
</mgrwt>
</event>
<event>
 4    1  0.7653521E+003  0.2141759E+02  0.7546771E-02  0.1718524E+00
         -2   -1    0    0    0  501 -0.00000000000E+00  0.00000000000E+00  0.22877775874E+01  0.22877775874E+01  0.00000000000E+00 0.  1.
          2   -1    0    0  501    0  0.00000000000E+00 -0.00000000000E+00 -0.12182128470E+04  0.12182128470E+04  0.00000000000E+00 0.  1.
          2    1    1    2  502    0  0.10866860180E+02 -0.18456014938E+02 -0.11657358981E+04  0.11659326298E+04  0.00000000000E+00 0.  1.
         -2    1    1    2    0  502 -0.10866860180E+02  0.18456014938E+02 -0.50189171382E+02  0.54567994847E+02  0.00000000000E+00 0.  1.
<mgrwt>
<rscale>  2 0.21417589E+02</rscale>
<asrwt>0</asrwt>
<pdfrwt beam="2">  1        2 0.18741737E+00 0.21417589E+02</pdfrwt>
<pdfrwt beam="1">  1       -2 0.35196576E-03 0.21417589E+02</pdfrwt>
<totfact> 0.12823215E+05</totfact>
</mgrwt>
</event>
<event>
 4    1  0.7653521E+003  0.2494465E+02  0.7546771E-02  0.1661798E+00
          2   -1    0    0  501    0  0.00000000000E+00  0.00000000000E+00  0.78616990241E+03  0.78616990241E+03  0.00000000000E+00 0.  1.
         -2   -1    0    0    0  501 -0.00000000000E+00 -0.00000000000E+00 -0.40463486305E+02  0.40463486305E+02  0.00000000000E+00 0. -1.
          2    1    1    2  502    0  0.95663349903E+01 -0.23037373554E+02  0.78210764540E+03  0.78250533822E+03  0.00000000000E+00 0.  1.
         -2    1    1    2    0  502 -0.95663349903E+01  0.23037373554E+02 -0.36401229302E+02  0.44128050491E+02  0.00000000000E+00 0. -1.
<mgrwt>
<rscale>  2 0.24944646E+02</rscale>
<asrwt>0</asrwt>
<pdfrwt beam="1">  1        2 0.12094920E+00 0.24944646E+02</pdfrwt>
<pdfrwt beam="2">  1       -2 0.62251523E-02 0.24944646E+02</pdfrwt>
<totfact> 0.44198038E+03</totfact>
</mgrwt>
</event>
<event>
 4    1  0.7653521E+003  0.3643356E+02  0.7546771E-02  0.1536227E+00
          2   -1    0    0  501    0  0.00000000000E+00  0.00000000000E+00  0.87431390196E+03  0.87431390196E+03  0.00000000000E+00 0. -1.
         -2   -1    0    0    0  501 -0.00000000000E+00 -0.00000000000E+00 -0.14048013071E+03  0.14048013071E+03  0.00000000000E+00 0.  1.
          2    1    1    2  502    0  0.15243814553E+02  0.33091241094E+02  0.87156463464E+03  0.87232580867E+03  0.00000000000E+00 0. -1.
         -2    1    1    2    0  502 -0.15243814553E+02 -0.33091241094E+02 -0.13773086339E+03  0.14246822400E+03  0.00000000000E+00 0.  1.
<mgrwt>
<rscale>  2 0.36433558E+02</rscale>
<asrwt>0</asrwt>
<pdfrwt beam="1">  1        2 0.13450983E+00 0.36433558E+02</pdfrwt>
<pdfrwt beam="2">  1       -2 0.21612328E-01 0.36433558E+02</pdfrwt>
<totfact> 0.59061391E+02</totfact>
</mgrwt>
</event>
<event>
 4    1  0.7653521E+003  0.2306931E+02  0.7546771E-02  0.1690389E+00
          2   -1    0    0  501    0  0.00000000000E+00  0.00000000000E+00  0.16538527254E+03  0.16538527254E+03  0.00000000000E+00 0. -1.
         -2   -1    0    0    0  501 -0.00000000000E+00 -0.00000000000E+00 -0.18563422211E+02  0.18563422211E+02  0.00000000000E+00 0. -1.
          2    1    1    2  502    0 -0.24068719359E+01 -0.22943412276E+02  0.15703446271E+03  0.15871992842E+03  0.00000000000E+00 0. -1.
         -2    1    1    2    0  502  0.24068719359E+01  0.22943412276E+02 -0.10212612375E+02  0.25228766337E+02  0.00000000000E+00 0. -1.
<mgrwt>
<rscale>  2 0.23069313E+02</rscale>
<asrwt>0</asrwt>
<pdfrwt beam="1">  1        2 0.25443887E-01 0.23069313E+02</pdfrwt>
<pdfrwt beam="2">  1       -2 0.28559112E-02 0.23069313E+02</pdfrwt>
<totfact> 0.64069843E+04</totfact>
</mgrwt>
</event>
<event>
 4    1  0.7653521E+003  0.2330383E+02  0.7546771E-02  0.1686632E+00
          2   -1    0    0  501    0  0.00000000000E+00  0.00000000000E+00  0.32206613987E+03  0.32206613987E+03  0.00000000000E+00 0.  1.
         -2   -1    0    0    0  501 -0.00000000000E+00 -0.00000000000E+00 -0.19242012250E+01  0.19242012250E+01  0.00000000000E+00 0. -1.
          2    1    1    2  502    0 -0.67911659931E+01 -0.22292338025E+02  0.21704349102E+03  0.21829096469E+03  0.00000000000E+00 0.  1.
         -2    1    1    2    0  502  0.67911659931E+01  0.22292338025E+02  0.10309844762E+03  0.10569937641E+03  0.00000000000E+00 0. -1.
<mgrwt>
<rscale>  2 0.23303825E+02</rscale>
<asrwt>0</asrwt>
<pdfrwt beam="1">  1        2 0.49548594E-01 0.23303825E+02</pdfrwt>
<pdfrwt beam="2">  1       -2 0.29603121E-03 0.23303825E+02</pdfrwt>
<totfact> 0.70897271E+05</totfact>
</mgrwt>
</event>
<event>
 4    1  0.7653521E+003  0.5713785E+02  0.7546771E-02  0.1410251E+00
          2   -1    0    0  501    0  0.00000000000E+00  0.00000000000E+00  0.17170122085E+04  0.17170122085E+04  0.00000000000E+00 0.  1.
         -2   -1    0    0    0  501 -0.00000000000E+00 -0.00000000000E+00 -0.19982351963E+01  0.19982351963E+01  0.00000000000E+00 0. -1.
          2    1    1    2  502    0  0.20287601026E+02 -0.53414858954E+02  0.10467120809E+04  0.10482704394E+04  0.00000000000E+00 0.  1.
         -2    1    1    2    0  502 -0.20287601026E+02  0.53414858954E+02  0.66830189240E+03  0.67074000424E+03  0.00000000000E+00 0. -1.
<mgrwt>
<rscale>  2 0.57137850E+02</rscale>
<asrwt>0</asrwt>
<pdfrwt beam="1">  1        2 0.26415454E+00 0.57137850E+02</pdfrwt>
<pdfrwt beam="2">  1       -2 0.30742217E-03 0.57137850E+02</pdfrwt>
<totfact> 0.10403503E+05</totfact>
</mgrwt>
</event>
<event>
 4    1  0.7653521E+003  0.2097659E+02  0.7546771E-02  0.1726577E+00
          2   -1    0    0  501    0  0.00000000000E+00  0.00000000000E+00  0.10395709916E+04  0.10395709916E+04  0.00000000000E+00 0.  1.
         -2   -1    0    0    0  501 -0.00000000000E+00 -0.00000000000E+00 -0.14575346529E+01  0.14575346529E+01  0.00000000000E+00 0.  1.
          2    1    1    2  502    0  0.11688043942E+02 -0.17418574985E+02  0.95752629290E+03  0.95775603298E+03  0.00000000000E+00 0.  1.
         -2    1    1    2    0  502 -0.11688043942E+02  0.17418574985E+02  0.80587164029E+02  0.83272493249E+02  0.00000000000E+00 0.  1.
<mgrwt>
<rscale>  2 0.20976585E+02</rscale>
<asrwt>0</asrwt>
<pdfrwt beam="1">  1        2 0.15993341E+00 0.20976585E+02</pdfrwt>
<pdfrwt beam="2">  1       -2 0.22423693E-03 0.20976585E+02</pdfrwt>
<totfact> 0.28624265E+05</totfact>
</mgrwt>
</event>
<event>
 4    1  0.7653521E+003  0.4370684E+02  0.7546771E-02  0.1482580E+00
          2   -1    0    0  501    0  0.00000000000E+00  0.00000000000E+00  0.82179723201E+03  0.82179723201E+03  0.00000000000E+00 0. -1.
         -2   -1    0    0    0  501 -0.00000000000E+00 -0.00000000000E+00 -0.17733655259E+02  0.17733655259E+02  0.00000000000E+00 0. -1.
          2    1    1    2  502    0  0.35851862027E+02  0.24998631906E+02  0.79331987565E+03  0.79452294662E+03  0.00000000000E+00 0. -1.
         -2    1    1    2    0  502 -0.35851862027E+02 -0.24998631906E+02  0.10743701103E+02  0.45007940648E+02  0.00000000000E+00 0. -1.
<mgrwt>
<rscale>  2 0.43706837E+02</rscale>
<asrwt>0</asrwt>
<pdfrwt beam="1">  1        2 0.12643031E+00 0.43706837E+02</pdfrwt>
<pdfrwt beam="2">  1       -2 0.27282553E-02 0.43706837E+02</pdfrwt>
<totfact> 0.14414912E+04</totfact>
</mgrwt>
</event>
<event>
 4    1  0.7653521E+003  0.2236248E+02  0.7546771E-02  0.1702057E+00
         -2   -1    0    0    0  501 -0.00000000000E+00  0.00000000000E+00  0.29758002698E+02  0.29758002698E+02  0.00000000000E+00 0. -1.
          2   -1    0    0  501    0  0.00000000000E+00 -0.00000000000E+00 -0.15471938248E+04  0.15471938248E+04  0.00000000000E+00 0.  1.
          2    1    1    2  502    0 -0.22355724290E+02  0.54959444004E+00 -0.15429001027E+04  0.15430621528E+04  0.00000000000E+00 0.  1.
         -2    1    1    2    0  502  0.22355724290E+02 -0.54959444004E+00  0.25464280622E+02  0.33889674683E+02  0.00000000000E+00 0. -1.
<mgrwt>
<rscale>  2 0.22362479E+02</rscale>
<asrwt>0</asrwt>
<pdfrwt beam="2">  1        2 0.23802986E+00 0.22362479E+02</pdfrwt>
<pdfrwt beam="1">  1       -2 0.45781534E-02 0.22362479E+02</pdfrwt>
<totfact> 0.27343879E+03</totfact>
</mgrwt>
</event>
<event>
 4    1  0.7653521E+003  0.2226822E+02  0.7546771E-02  0.1703654E+00
         -2   -1    0    0    0  501 -0.00000000000E+00  0.00000000000E+00  0.28077376327E+01  0.28077376327E+01  0.00000000000E+00 0.  1.
          2   -1    0    0  501    0  0.00000000000E+00 -0.00000000000E+00 -0.74961719057E+03  0.74961719057E+03  0.00000000000E+00 0. -1.
          2    1    1    2  502    0 -0.71692649665E+01  0.21082577646E+02 -0.70232723666E+03  0.70268016963E+03  0.00000000000E+00 0. -1.
         -2    1    1    2    0  502  0.71692649665E+01 -0.21082577646E+02 -0.44482216287E+02  0.49744758580E+02  0.00000000000E+00 0.  1.
<mgrwt>
<rscale>  2 0.22268216E+02</rscale>
<asrwt>0</asrwt>
<pdfrwt beam="2">  1        2 0.11532569E+00 0.22268216E+02</pdfrwt>
<pdfrwt beam="1">  1       -2 0.43195977E-03 0.22268216E+02</pdfrwt>
<totfact> 0.17869993E+05</totfact>
</mgrwt>
</event>
<event>
 4    1  0.7653521E+003  0.2143937E+02  0.7546771E-02  0.1718132E+00
          2   -1    0    0  501    0  0.00000000000E+00  0.00000000000E+00  0.46589142293E+03  0.46589142293E+03  0.00000000000E+00 0.  1.
         -2   -1    0    0    0  501 -0.00000000000E+00 -0.00000000000E+00 -0.15675716314E+01  0.15675716314E+01  0.00000000000E+00 0. -1.
          2    1    1    2  502    0  0.21027542909E+02 -0.41819689133E+01  0.37445341910E+03  0.37506667341E+03  0.00000000000E+00 0.  1.
         -2    1    1    2    0  502 -0.21027542909E+02  0.41819689133E+01  0.89870432200E+02  0.92392321156E+02  0.00000000000E+00 0. -1.
<mgrwt>
<rscale>  2 0.21439366E+02</rscale>
<asrwt>0</asrwt>
<pdfrwt beam="1">  1        2 0.71675493E-01 0.21439366E+02</pdfrwt>
<pdfrwt beam="2">  1       -2 0.24116524E-03 0.21439366E+02</pdfrwt>
<totfact> 0.62988115E+05</totfact>
</mgrwt>
</event>
<event>
 4    1  0.7653521E+003  0.2188086E+02  0.7546771E-02  0.1710321E+00
          2   -1    0    0  501    0  0.00000000000E+00  0.00000000000E+00  0.40773633069E+03  0.40773633069E+03  0.00000000000E+00 0. -1.
         -2   -1    0    0    0  501 -0.00000000000E+00 -0.00000000000E+00 -0.57602553912E+01  0.57602553912E+01  0.00000000000E+00 0.  1.
          2    1    1    2  502    0  0.19036662985E+02  0.10787836889E+02  0.38546400073E+03  0.38608453456E+03  0.00000000000E+00 0. -1.
         -2    1    1    2    0  502 -0.19036662985E+02 -0.10787836889E+02  0.16512074565E+02  0.27412051524E+02  0.00000000000E+00 0.  1.
<mgrwt>
<rscale>  2 0.21880858E+02</rscale>
<asrwt>0</asrwt>
<pdfrwt beam="1">  1        2 0.62728644E-01 0.21880858E+02</pdfrwt>
<pdfrwt beam="2">  1       -2 0.88619346E-03 0.21880858E+02</pdfrwt>
<totfact> 0.12720571E+05</totfact>
</mgrwt>
</event>
<event>
 4    1  0.7653521E+003  0.2353265E+02  0.7546771E-02  0.1683019E+00
         -2   -1    0    0    0  501 -0.00000000000E+00  0.00000000000E+00  0.37787203819E+02  0.37787203819E+02  0.00000000000E+00 0.  1.
          2   -1    0    0  501    0  0.00000000000E+00 -0.00000000000E+00 -0.42872361073E+02  0.42872361073E+02  0.00000000000E+00 0. -1.
          2    1    1    2  502    0 -0.23522836700E+02  0.67967391572E+00 -0.35261008759E+02  0.42392505727E+02  0.00000000000E+00 0. -1.
         -2    1    1    2    0  502  0.23522836700E+02 -0.67967391572E+00  0.30175851505E+02  0.38267059165E+02  0.00000000000E+00 0.  1.
<mgrwt>
<rscale>  2 0.23532654E+02</rscale>
<asrwt>0</asrwt>
<pdfrwt beam="2">  1        2 0.65957479E-02 0.23532654E+02</pdfrwt>
<pdfrwt beam="1">  1       -2 0.58134160E-02 0.23532654E+02</pdfrwt>
<totfact> 0.10677963E+05</totfact>
</mgrwt>
</event>
<event>
 4    1  0.7653521E+003  0.2074326E+02  0.7546771E-02  0.1730939E+00
          2   -1    0    0  501    0  0.00000000000E+00  0.00000000000E+00  0.12498767171E+03  0.12498767171E+03  0.00000000000E+00 0. -1.
         -2   -1    0    0    0  501 -0.00000000000E+00 -0.00000000000E+00 -0.45666045292E+01  0.45666045292E+01  0.00000000000E+00 0. -1.
          2    1    1    2  502    0 -0.20665746133E+02 -0.17916059596E+01  0.92347770533E+02  0.94648790998E+02  0.00000000000E+00 0. -1.
         -2    1    1    2    0  502  0.20665746133E+02  0.17916059596E+01  0.28073296645E+02  0.34905485238E+02  0.00000000000E+00 0. -1.
<mgrwt>
<rscale>  2 0.20743262E+02</rscale>
<asrwt>0</asrwt>
<pdfrwt beam="1">  1        2 0.19228870E-01 0.20743262E+02</pdfrwt>
<pdfrwt beam="2">  1       -2 0.70255464E-03 0.20743262E+02</pdfrwt>
<totfact> 0.56157656E+05</totfact>
</mgrwt>
</event>
<event>
 4    1  0.7653521E+003  0.2660587E+02  0.7546771E-02  0.1638953E+00
         -2   -1    0    0    0  501 -0.00000000000E+00  0.00000000000E+00  0.63690440384E+01  0.63690440384E+01  0.00000000000E+00 0. -1.
          2   -1    0    0  501    0  0.00000000000E+00 -0.00000000000E+00 -0.18628589649E+04  0.18628589649E+04  0.00000000000E+00 0. -1.
          2    1    1    2  502    0 -0.78140206956E+00 -0.26594395733E+02 -0.18345495574E+04  0.18347424754E+04  0.00000000000E+00 0. -1.
         -2    1    1    2    0  502  0.78140206956E+00  0.26594395733E+02 -0.21940363416E+02  0.34485533495E+02  0.00000000000E+00 0. -1.
<mgrwt>
<rscale>  2 0.26605873E+02</rscale>
<asrwt>0</asrwt>
<pdfrwt beam="2">  1        2 0.28659334E+00 0.26605873E+02</pdfrwt>
<pdfrwt beam="1">  1       -2 0.97985412E-03 0.26605873E+02</pdfrwt>
<totfact> 0.16574377E+04</totfact>
</mgrwt>
</event>
<event>
 4    1  0.7653521E+003  0.2379296E+02  0.7546771E-02  0.1678970E+00
          2   -1    0    0  501    0  0.00000000000E+00  0.00000000000E+00  0.97291803776E+02  0.97291803776E+02  0.00000000000E+00 0. -1.
         -2   -1    0    0    0  501 -0.00000000000E+00 -0.00000000000E+00 -0.89492413227E+01  0.89492413227E+01  0.00000000000E+00 0.  1.
          2    1    1    2  502    0  0.34412994090E+01 -0.23542781553E+02  0.75589657442E+02  0.79245829021E+02  0.00000000000E+00 0. -1.
         -2    1    1    2    0  502 -0.34412994090E+01  0.23542781553E+02  0.12752905011E+02  0.26995216078E+02  0.00000000000E+00 0.  1.
<mgrwt>
<rscale>  2 0.23792963E+02</rscale>
<asrwt>0</asrwt>
<pdfrwt beam="1">  1        2 0.14967969E-01 0.23792963E+02</pdfrwt>
<pdfrwt beam="2">  1       -2 0.13768064E-02 0.23792963E+02</pdfrwt>
<totfact> 0.30931171E+05</totfact>
</mgrwt>
</event>
<event>
 4    1  0.7653521E+003  0.2950532E+02  0.7546771E-02  0.1603622E+00
         -2   -1    0    0    0  501 -0.00000000000E+00  0.00000000000E+00  0.14727580627E+03  0.14727580627E+03  0.00000000000E+00 0.  1.
          2   -1    0    0  501    0  0.00000000000E+00 -0.00000000000E+00 -0.25380732717E+03  0.25380732717E+03  0.00000000000E+00 0.  1.
          2    1    1    2  502    0  0.28802667459E+02 -0.64008033297E+01 -0.25145828645E+03  0.25318339946E+03  0.00000000000E+00 0.  1.
         -2    1    1    2    0  502 -0.28802667459E+02  0.64008033297E+01  0.14492676556E+03  0.14789973398E+03  0.00000000000E+00 0.  1.
<mgrwt>
<rscale>  2 0.29505320E+02</rscale>
<asrwt>0</asrwt>
<pdfrwt beam="2">  1        2 0.39047281E-01 0.29505320E+02</pdfrwt>
<pdfrwt beam="1">  1       -2 0.22657816E-01 0.29505320E+02</pdfrwt>
<totfact> 0.19805154E+03</totfact>
</mgrwt>
</event>
<event>
 4    1  0.7653521E+003  0.3009073E+02  0.7546771E-02  0.1597088E+00
          2   -1    0    0  501    0  0.00000000000E+00  0.00000000000E+00  0.82759664463E+01  0.82759664463E+01  0.00000000000E+00 0. -1.
         -2   -1    0    0    0  501 -0.00000000000E+00 -0.00000000000E+00 -0.22314947827E+03  0.22314947827E+03  0.00000000000E+00 0. -1.
          2    1    1    2  502    0 -0.70259782897E+01  0.29258971126E+02 -0.24824629429E+02  0.39009152626E+02  0.00000000000E+00 0. -1.
         -2    1    1    2    0  502  0.70259782897E+01 -0.29258971126E+02 -0.19004888239E+03  0.19241629209E+03  0.00000000000E+00 0. -1.
<mgrwt>
<rscale>  2 0.30090726E+02</rscale>
<asrwt>0</asrwt>
<pdfrwt beam="1">  1        2 0.12732256E-02 0.30090726E+02</pdfrwt>
<pdfrwt beam="2">  1       -2 0.34330688E-01 0.30090726E+02</pdfrwt>
<totfact> 0.56125120E+04</totfact>
</mgrwt>
</event>
<event>
 4    1  0.7653521E+003  0.2726779E+02  0.7546771E-02  0.1630414E+00
          2   -1    0    0  501    0  0.00000000000E+00  0.00000000000E+00  0.18676067521E+03  0.18676067521E+03  0.00000000000E+00 0. -1.
         -2   -1    0    0    0  501 -0.00000000000E+00 -0.00000000000E+00 -0.62967409292E+01  0.62967409292E+01  0.00000000000E+00 0. -1.
          2    1    1    2  502    0 -0.25530465528E+02 -0.95774690159E+01  0.14876813920E+03  0.15124646054E+03  0.00000000000E+00 0. -1.
         -2    1    1    2    0  502  0.25530465528E+02  0.95774690159E+01  0.31695795077E+02  0.41810955602E+02  0.00000000000E+00 0. -1.
<mgrwt>
<rscale>  2 0.27267794E+02</rscale>
<asrwt>0</asrwt>
<pdfrwt beam="1">  1        2 0.28732407E-01 0.27267794E+02</pdfrwt>
<pdfrwt beam="2">  1       -2 0.96872952E-03 0.27267794E+02</pdfrwt>
<totfact> 0.25948110E+05</totfact>
</mgrwt>
</event>
<event>
 4    1  0.7653521E+003  0.3600612E+02  0.7546771E-02  0.1539843E+00
          2   -1    0    0  501    0  0.00000000000E+00  0.00000000000E+00  0.36360586845E+02  0.36360586845E+02  0.00000000000E+00 0.  1.
         -2   -1    0    0    0  501 -0.00000000000E+00 -0.00000000000E+00 -0.36347921266E+02  0.36347921266E+02  0.00000000000E+00 0. -1.
          2    1    1    2  502    0 -0.24861896520E+02  0.26044689205E+02 -0.50128319036E+01  0.36353379734E+02  0.00000000000E+00 0.  1.
         -2    1    1    2    0  502  0.24861896520E+02 -0.26044689205E+02  0.50254974832E+01  0.36355128377E+02  0.00000000000E+00 0. -1.
<mgrwt>
<rscale>  2 0.36006125E+02</rscale>
<asrwt>0</asrwt>
<pdfrwt beam="1">  1        2 0.55939364E-02 0.36006125E+02</pdfrwt>
<pdfrwt beam="2">  1       -2 0.55919879E-02 0.36006125E+02</pdfrwt>
<totfact> 0.15296837E+05</totfact>
</mgrwt>
</event>
<event>
 4    1  0.7653521E+003  0.2601914E+02  0.7546771E-02  0.1646781E+00
          2   -1    0    0  501    0  0.00000000000E+00  0.00000000000E+00  0.98176967683E+02  0.98176967683E+02  0.00000000000E+00 0. -1.
         -2   -1    0    0    0  501 -0.00000000000E+00 -0.00000000000E+00 -0.19948709963E+02  0.19948709963E+02  0.00000000000E+00 0.  1.
          2    1    1    2  502    0 -0.25954714129E+02 -0.18299283124E+01  0.86890456904E+02  0.90702521047E+02  0.00000000000E+00 0. -1.
         -2    1    1    2    0  502  0.25954714129E+02  0.18299283124E+01 -0.86621991852E+01  0.27423156599E+02  0.00000000000E+00 0.  1.
<mgrwt>
<rscale>  2 0.26019143E+02</rscale>
<asrwt>0</asrwt>
<pdfrwt beam="1">  1        2 0.15104149E-01 0.26019143E+02</pdfrwt>
<pdfrwt beam="2">  1       -2 0.30690324E-02 0.26019143E+02</pdfrwt>
<totfact> 0.10385528E+05</totfact>
</mgrwt>
</event>
<event>
 4    1  0.7653521E+003  0.4303939E+02  0.7546771E-02  0.1486966E+00
         -2   -1    0    0    0  501 -0.00000000000E+00  0.00000000000E+00  0.69992248348E+00  0.69992248348E+00  0.00000000000E+00 0.  1.
          2   -1    0    0  501    0  0.00000000000E+00 -0.00000000000E+00 -0.38029209400E+04  0.38029209400E+04  0.00000000000E+00 0. -1.
          2    1    1    2  502    0 -0.25697791921E+02  0.34525537944E+02 -0.29498186294E+04  0.29501325963E+04  0.00000000000E+00 0. -1.
         -2    1    1    2    0  502  0.25697791921E+02 -0.34525537944E+02 -0.85240238815E+03  0.85348826624E+03  0.00000000000E+00 0.  1.
<mgrwt>
<rscale>  2 0.43039392E+02</rscale>
<asrwt>0</asrwt>
<pdfrwt beam="2">  1        2 0.58505619E+00 0.43039392E+02</pdfrwt>
<pdfrwt beam="1">  1       -2 0.10768196E-03 0.43039392E+02</pdfrwt>
<totfact> 0.30455129E+04</totfact>
</mgrwt>
</event>
<event>
 4    1  0.7653521E+003  0.2255655E+02  0.7546771E-02  0.1698801E+00
         -2   -1    0    0    0  501 -0.00000000000E+00  0.00000000000E+00  0.53994449073E+00  0.53994449073E+00  0.00000000000E+00 0.  1.
          2   -1    0    0  501    0  0.00000000000E+00 -0.00000000000E+00 -0.94692399414E+03  0.94692399414E+03  0.00000000000E+00 0. -1.
          2    1    1    2  502    0  0.18001528668E+02 -0.13592023918E+02 -0.50624017557E+03  0.50674245284E+03  0.00000000000E+00 0. -1.
         -2    1    1    2    0  502 -0.18001528668E+02  0.13592023918E+02 -0.44014387409E+03  0.44072148580E+03  0.00000000000E+00 0.  1.
<mgrwt>
<rscale>  2 0.22556554E+02</rscale>
<asrwt>0</asrwt>
<pdfrwt beam="2">  1        2 0.14567955E+00 0.22556554E+02</pdfrwt>
<pdfrwt beam="1">  1       -2 0.83068989E-04 0.22556554E+02</pdfrwt>
<totfact> 0.12132790E+06</totfact>
</mgrwt>
</event>
<event>
 4    1  0.7653521E+003  0.2737347E+02  0.7546771E-02  0.1629079E+00
         -2   -1    0    0    0  501 -0.00000000000E+00  0.00000000000E+00  0.67809944909E+03  0.67809944909E+03  0.00000000000E+00 0. -1.
          2   -1    0    0  501    0  0.00000000000E+00 -0.00000000000E+00 -0.27354910526E+02  0.27354910526E+02  0.00000000000E+00 0. -1.
          2    1    1    2  502    0 -0.17578552178E+02  0.20983362381E+02 -0.20157208515E+02  0.33994412020E+02  0.00000000000E+00 0. -1.
         -2    1    1    2    0  502  0.17578552178E+02 -0.20983362381E+02  0.67090174708E+03  0.67145994759E+03  0.00000000000E+00 0. -1.
<mgrwt>
<rscale>  2 0.27373472E+02</rscale>
<asrwt>0</asrwt>
<pdfrwt beam="2">  1        2 0.42084483E-02 0.27373472E+02</pdfrwt>
<pdfrwt beam="1">  1       -2 0.10432298E+00 0.27373472E+02</pdfrwt>
<totfact> 0.12948574E+03</totfact>
</mgrwt>
</event>
<event>
 4    1  0.7653521E+003  0.2618395E+02  0.7546771E-02  0.1644556E+00
          2   -1    0    0  501    0  0.00000000000E+00  0.00000000000E+00  0.77391051694E+03  0.77391051694E+03  0.00000000000E+00 0. -1.
         -2   -1    0    0    0  501 -0.00000000000E+00 -0.00000000000E+00 -0.35164493413E+01  0.35164493413E+01  0.00000000000E+00 0.  1.
          2    1    1    2  502    0 -0.61156924135E+01 -0.25459728436E+02  0.72139995847E+03  0.72187498887E+03  0.00000000000E+00 0. -1.
         -2    1    1    2    0  502  0.61156924135E+01  0.25459728436E+02  0.48994109126E+02  0.55551977415E+02  0.00000000000E+00 0.  1.
<mgrwt>
<rscale>  2 0.26183954E+02</rscale>
<asrwt>0</asrwt>
<pdfrwt beam="1">  1        2 0.11906302E+00 0.26183954E+02</pdfrwt>
<pdfrwt beam="2">  1       -2 0.54099282E-03 0.26183954E+02</pdfrwt>
<totfact> 0.13238781E+05</totfact>
</mgrwt>
</event>
<event>
 4    1  0.7653521E+003  0.2634524E+02  0.7546771E-02  0.1642399E+00
          2   -1    0    0  501    0  0.00000000000E+00  0.00000000000E+00  0.15484527931E+03  0.15484527931E+03  0.00000000000E+00 0. -1.
         -2   -1    0    0    0  501 -0.00000000000E+00 -0.00000000000E+00 -0.35327828373E+02  0.35327828373E+02  0.00000000000E+00 0.  1.
          2    1    1    2  502    0  0.23491473121E+02  0.11925692160E+02  0.14860850609E+03  0.15092567550E+03  0.00000000000E+00 0. -1.
         -2    1    1    2    0  502 -0.23491473121E+02 -0.11925692160E+02 -0.29091055154E+02  0.39247432182E+02  0.00000000000E+00 0.  1.
<mgrwt>
<rscale>  2 0.26345236E+02</rscale>
<asrwt>0</asrwt>
<pdfrwt beam="1">  1        2 0.23822350E-01 0.26345236E+02</pdfrwt>
<pdfrwt beam="2">  1       -2 0.54350506E-02 0.26345236E+02</pdfrwt>
<totfact> 0.28462878E+04</totfact>
</mgrwt>
</event>
<event>
 4    1  0.7653521E+003  0.3609576E+02  0.7546771E-02  0.1539080E+00
          2   -1    0    0  501    0  0.00000000000E+00  0.00000000000E+00  0.16010907986E+04  0.16010907986E+04  0.00000000000E+00 0. -1.
         -2   -1    0    0    0  501 -0.00000000000E+00 -0.00000000000E+00 -0.26418931624E+03  0.26418931624E+03  0.00000000000E+00 0.  1.
          2    1    1    2  502    0 -0.31549740825E+02  0.17536183205E+02  0.15996533244E+04  0.16000605183E+04  0.00000000000E+00 0. -1.
         -2    1    1    2    0  502  0.31549740825E+02 -0.17536183205E+02 -0.26275184208E+03  0.26521959653E+03  0.00000000000E+00 0.  1.
<mgrwt>
<rscale>  2 0.36095760E+02</rscale>
<asrwt>0</asrwt>
<pdfrwt beam="1">  1        2 0.24632166E+00 0.36095760E+02</pdfrwt>
<pdfrwt beam="2">  1       -2 0.40644511E-01 0.36095760E+02</pdfrwt>
<totfact> 0.82414100E+01</totfact>
</mgrwt>
</event>
<event>
 4    1  0.7653521E+003  0.2993775E+02  0.7546771E-02  0.1598778E+00
          2   -1    0    0  501    0  0.00000000000E+00  0.00000000000E+00  0.16453893048E+04  0.16453893048E+04  0.00000000000E+00 0.  1.
         -2   -1    0    0    0  501 -0.00000000000E+00 -0.00000000000E+00 -0.20335360788E+02  0.20335360788E+02  0.00000000000E+00 0.  1.
          2    1    1    2  502    0  0.17144250149E+02 -0.24542683432E+02  0.16341588113E+04  0.16344330176E+04  0.00000000000E+00 0.  1.
         -2    1    1    2    0  502 -0.17144250149E+02  0.24542683432E+02 -0.91048672797E+01  0.31291647950E+02  0.00000000000E+00 0.  1.
<mgrwt>
<rscale>  2 0.29937746E+02</rscale>
<asrwt>0</asrwt>
<pdfrwt beam="1">  1        2 0.25313671E+00 0.29937746E+02</pdfrwt>
<pdfrwt beam="2">  1       -2 0.31285183E-02 0.29937746E+02</pdfrwt>
<totfact> 0.42674795E+03</totfact>
</mgrwt>
</event>
<event>
 4    1  0.7653521E+003  0.2015288E+02  0.7546771E-02  0.1742305E+00
         -2   -1    0    0    0  501 -0.00000000000E+00  0.00000000000E+00  0.68562942925E+01  0.68562942925E+01  0.00000000000E+00 0.  1.
          2   -1    0    0  501    0  0.00000000000E+00 -0.00000000000E+00 -0.93275709894E+03  0.93275709894E+03  0.00000000000E+00 0.  1.
          2    1    1    2  502    0  0.92824791845E+01 -0.17887823311E+02 -0.91759459734E+03  0.91781587680E+03  0.00000000000E+00 0.  1.
         -2    1    1    2    0  502 -0.92824791845E+01  0.17887823311E+02 -0.83062073053E+01  0.21797516428E+02  0.00000000000E+00 0.  1.
<mgrwt>
<rscale>  2 0.20152882E+02</rscale>
<asrwt>0</asrwt>
<pdfrwt beam="2">  1        2 0.14350114E+00 0.20152882E+02</pdfrwt>
<pdfrwt beam="1">  1       -2 0.10548141E-02 0.20152882E+02</pdfrwt>
<totfact> 0.41131419E+04</totfact>
</mgrwt>
</event>
<event>
 4    1  0.7653521E+003  0.2585402E+02  0.7546771E-02  0.1649030E+00
         -2   -1    0    0    0  501 -0.00000000000E+00  0.00000000000E+00  0.90511533429E+01  0.90511533429E+01  0.00000000000E+00 0.  1.
          2   -1    0    0  501    0  0.00000000000E+00 -0.00000000000E+00 -0.69586196644E+03  0.69586196644E+03  0.00000000000E+00 0. -1.
          2    1    1    2  502    0  0.25153935708E+02  0.59757808475E+01 -0.67663480670E+03  0.67712856392E+03  0.00000000000E+00 0. -1.
         -2    1    1    2    0  502 -0.25153935708E+02 -0.59757808475E+01 -0.10176006399E+02  0.27784555864E+02  0.00000000000E+00 0.  1.
<mgrwt>
<rscale>  2 0.25854022E+02</rscale>
<asrwt>0</asrwt>
<pdfrwt beam="2">  1        2 0.10705568E+00 0.25854022E+02</pdfrwt>
<pdfrwt beam="1">  1       -2 0.13924852E-02 0.25854022E+02</pdfrwt>
<totfact> 0.41217905E+04</totfact>
</mgrwt>
</event>
<event>
 4    1  0.7653521E+003  0.2934689E+02  0.7546771E-02  0.1605422E+00
         -2   -1    0    0    0  501 -0.00000000000E+00  0.00000000000E+00  0.43901988622E+03  0.43901988622E+03  0.00000000000E+00 0. -1.
          2   -1    0    0  501    0  0.00000000000E+00 -0.00000000000E+00 -0.14817017205E+02  0.14817017205E+02  0.00000000000E+00 0.  1.
          2    1    1    2  502    0  0.26664151488E+02 -0.12258169459E+02  0.73780188654E+00  0.29356158548E+02  0.00000000000E+00 0.  1.
         -2    1    1    2    0  502 -0.26664151488E+02  0.12258169459E+02  0.42346506713E+03  0.42448074488E+03  0.00000000000E+00 0. -1.
<mgrwt>
<rscale>  2 0.29346886E+02</rscale>
<asrwt>0</asrwt>
<pdfrwt beam="2">  1        2 0.22795414E-02 0.29346886E+02</pdfrwt>
<pdfrwt beam="1">  1       -2 0.67541511E-01 0.29346886E+02</pdfrwt>
<totfact> 0.72343487E+03</totfact>
</mgrwt>
</event>
<event>
 4    1  0.7653521E+003  0.2714636E+02  0.7546771E-02  0.1631958E+00
          2   -1    0    0  501    0  0.00000000000E+00  0.00000000000E+00  0.12875536772E+04  0.12875536772E+04  0.00000000000E+00 0.  1.
         -2   -1    0    0    0  501 -0.00000000000E+00 -0.00000000000E+00 -0.13575732524E+01  0.13575732524E+01  0.00000000000E+00 0.  1.
          2    1    1    2  502    0 -0.66650888472E+01 -0.26315419435E+02  0.11332259057E+04  0.11335510038E+04  0.00000000000E+00 0.  1.
         -2    1    1    2    0  502  0.66650888472E+01  0.26315419435E+02  0.15297019822E+03  0.15536024669E+03  0.00000000000E+00 0.  1.
<mgrwt>
<rscale>  2 0.27146357E+02</rscale>
<asrwt>0</asrwt>
<pdfrwt beam="1">  1        2 0.19808420E+00 0.27146357E+02</pdfrwt>
<pdfrwt beam="2">  1       -2 0.20885845E-03 0.27146357E+02</pdfrwt>
<totfact> 0.25022077E+05</totfact>
</mgrwt>
</event>
<event>
 4    1  0.7653521E+003  0.2730801E+02  0.7546771E-02  0.1629905E+00
         -2   -1    0    0    0  501 -0.00000000000E+00  0.00000000000E+00  0.24761317661E+03  0.24761317661E+03  0.00000000000E+00 0. -1.
          2   -1    0    0  501    0  0.00000000000E+00 -0.00000000000E+00 -0.11892585440E+03  0.11892585440E+03  0.00000000000E+00 0.  1.
          2    1    1    2  502    0  0.22663841842E+02  0.15234093418E+02 -0.11659042765E+03  0.11974579387E+03  0.00000000000E+00 0.  1.
         -2    1    1    2    0  502 -0.22663841842E+02 -0.15234093418E+02  0.24527774985E+03  0.24679323714E+03  0.00000000000E+00 0. -1.
<mgrwt>
<rscale>  2 0.27308009E+02</rscale>
<asrwt>0</asrwt>
<pdfrwt beam="2">  1        2 0.18296285E-01 0.27308009E+02</pdfrwt>
<pdfrwt beam="1">  1       -2 0.38094335E-01 0.27308009E+02</pdfrwt>
<totfact> 0.17622027E+03</totfact>
</mgrwt>
</event>
<event>
 4    1  0.7653521E+003  0.4692651E+02  0.7546771E-02  0.1462661E+00
          2   -1    0    0  501    0  0.00000000000E+00  0.00000000000E+00  0.31961559553E+03  0.31961559553E+03  0.00000000000E+00 0. -1.
         -2   -1    0    0    0  501 -0.00000000000E+00 -0.00000000000E+00 -0.11172807650E+03  0.11172807650E+03  0.00000000000E+00 0. -1.
          2    1    1    2  502    0  0.45664895150E+02 -0.10808096141E+02  0.31285997289E+03  0.31635970071E+03  0.00000000000E+00 0. -1.
         -2    1    1    2    0  502 -0.45664895150E+02  0.10808096141E+02 -0.10497245387E+03  0.11498397133E+03  0.00000000000E+00 0. -1.
<mgrwt>
<rscale>  2 0.46926513E+02</rscale>
<asrwt>0</asrwt>
<pdfrwt beam="1">  1        2 0.49171630E-01 0.46926513E+02</pdfrwt>
<pdfrwt beam="2">  1       -2 0.17188935E-01 0.46926513E+02</pdfrwt>
<totfact> 0.25489879E+03</totfact>
</mgrwt>
</event>
<event>
 4    1  0.7653521E+003  0.2140667E+02  0.7546771E-02  0.1718720E+00
         -2   -1    0    0    0  501 -0.00000000000E+00  0.00000000000E+00  0.30001418481E+02  0.30001418481E+02  0.00000000000E+00 0. -1.
          2   -1    0    0  501    0  0.00000000000E+00 -0.00000000000E+00 -0.26045984264E+03  0.26045984264E+03  0.00000000000E+00 0. -1.
          2    1    1    2  502    0  0.38855385428E+00 -0.21403142165E+02 -0.25613713681E+03  0.25703011170E+03  0.00000000000E+00 0. -1.
         -2    1    1    2    0  502 -0.38855385428E+00  0.21403142165E+02  0.25678712645E+02  0.33431149423E+02  0.00000000000E+00 0. -1.
<mgrwt>
<rscale>  2 0.21406669E+02</rscale>
<asrwt>0</asrwt>
<pdfrwt beam="2">  1        2 0.40070743E-01 0.21406669E+02</pdfrwt>
<pdfrwt beam="1">  1       -2 0.46156030E-02 0.21406669E+02</pdfrwt>
<totfact> 0.20425437E+04</totfact>
</mgrwt>
</event>
