<event>
 5    1  0.6222456E+000  0.9075755E+02  0.7546771E-02  0.1301027E+00
         -2   -1    0    0    0  501 -0.00000000000E+00  0.00000000000E+00  0.15025074566E+03  0.15025074566E+03  0.00000000000E+00 0.  1.
          2   -1    0    0  501    0  0.00000000000E+00 -0.00000000000E+00 -0.13705309826E+02  0.13705309826E+02  0.00000000000E+00 0. -1.
         23    2    1    2    0    0  0.00000000000E+00  0.00000000000E+00  0.13654543584E+03  0.16395605549E+03  0.90757545601E+02 0.  0.
        -11    1    3    3    0    0  0.23877873445E+02  0.23037603567E+02  0.12347644051E+02  0.35402659956E+02  0.00000000000E+00 0. -1.
         11    1    3    3    0    0 -0.23877873445E+02 -0.23037603567E+02  0.12419779179E+03  0.12855339553E+03  0.00000000000E+00 0.  1.
<mgrwt>
<rscale>  0 0.90757546E+02</rscale>
<asrwt>0</asrwt>
<pdfrwt beam="2">  1        2 0.21085093E-02 0.90757546E+02</pdfrwt>
<pdfrwt beam="1">  1       -2 0.23115498E-01 0.90757546E+02</pdfrwt>
<totfact> 0.70633305E+04</totfact>
</mgrwt>
</event>
<event>
 5    1  0.6222456E+000  0.8967704E+02  0.7546771E-02  0.1303636E+00
         -2   -1    0    0    0  501 -0.00000000000E+00  0.00000000000E+00  0.90066280488E+01  0.90066280488E+01  0.00000000000E+00 0. -1.
          2   -1    0    0  501    0  0.00000000000E+00 -0.00000000000E+00 -0.22322368225E+03  0.22322368225E+03  0.00000000000E+00 0.  1.
         23    2    1    2    0    0  0.00000000000E+00  0.00000000000E+00 -0.21421705421E+03  0.23223031030E+03  0.89677035583E+02 0.  0.
        -11    1    3    3    0    0 -0.44362850083E+02  0.26144688027E+01 -0.91658447818E+02  0.10186348203E+03  0.00000000000E+00 0.  1.
         11    1    3    3    0    0  0.44362850083E+02 -0.26144688027E+01 -0.12255860639E+03  0.13036682828E+03  0.00000000000E+00 0. -1.
<mgrwt>
<rscale>  0 0.89677036E+02</rscale>
<asrwt>0</asrwt>
<pdfrwt beam="2">  1        2 0.34342105E-01 0.89677036E+02</pdfrwt>
<pdfrwt beam="1">  1       -2 0.13856351E-02 0.89677036E+02</pdfrwt>
<totfact> 0.16831682E+05</totfact>
</mgrwt>
</event>
<event>
 5    1  0.6222456E+000  0.9064341E+02  0.7546771E-02  0.1301301E+00
          2   -1    0    0  501    0  0.00000000000E+00  0.00000000000E+00  0.43089150032E+02  0.43089150032E+02  0.00000000000E+00 0. -1.
         -2   -1    0    0    0  501 -0.00000000000E+00 -0.00000000000E+00 -0.47669933174E+02  0.47669933174E+02  0.00000000000E+00 0.  1.
         23    2    1    2    0    0  0.00000000000E+00  0.00000000000E+00 -0.45807831416E+01  0.90759083206E+02  0.90643409083E+02 0.  0.
        -11    1    3    3    0    0  0.17505380777E+01 -0.45287879594E+02 -0.23123486483E+01  0.45380649818E+02  0.00000000000E+00 0.  1.
         11    1    3    3    0    0 -0.17505380777E+01  0.45287879594E+02 -0.22684344934E+01  0.45378433388E+02  0.00000000000E+00 0. -1.
<mgrwt>
<rscale>  0 0.90643409E+02</rscale>
<asrwt>0</asrwt>
<pdfrwt beam="1">  1        2 0.66291000E-02 0.90643409E+02</pdfrwt>
<pdfrwt beam="2">  1       -2 0.73338358E-02 0.90643409E+02</pdfrwt>
<totfact> 0.98898971E+04</totfact>
</mgrwt>
</event>
<event>
 5    1  0.6222456E+000  0.1017704E+03  0.7546771E-02  0.1276617E+00
          1   -1    0    0  501    0  0.00000000000E+00  0.00000000000E+00  0.66639320835E+02  0.66639320835E+02  0.00000000000E+00 0. -1.
         -1   -1    0    0    0  501 -0.00000000000E+00 -0.00000000000E+00 -0.38855465749E+02  0.38855465749E+02  0.00000000000E+00 0.  1.
         23    2    1    2    0    0  0.00000000000E+00  0.00000000000E+00  0.27783855085E+02  0.10549478658E+03  0.10177036599E+03 0.  0.
        -11    1    3    3    0    0 -0.24022122313E+01 -0.27897619469E+02  0.57935123522E+02  0.64346921707E+02  0.00000000000E+00 0. -1.
         11    1    3    3    0    0  0.24022122313E+01  0.27897619469E+02 -0.30151268436E+02  0.41147864877E+02  0.00000000000E+00 0.  1.
<mgrwt>
<rscale>  0 0.10177037E+03</rscale>
<asrwt>0</asrwt>
<pdfrwt beam="1">  1        1 0.10252203E-01 0.10177037E+03</pdfrwt>
<pdfrwt beam="2">  1       -1 0.59777640E-02 0.10177037E+03</pdfrwt>
<totfact> 0.72084599E+04</totfact>
</mgrwt>
</event>
<event>
 5    1  0.6222456E+000  0.7801154E+02  0.7546771E-02  0.1334791E+00
         -1   -1    0    0    0  501 -0.00000000000E+00  0.00000000000E+00  0.16166043716E+03  0.16166043716E+03  0.00000000000E+00 0.  1.
          1   -1    0    0  501    0  0.00000000000E+00 -0.00000000000E+00 -0.94113932947E+01  0.94113932947E+01  0.00000000000E+00 0. -1.
         23    2    1    2    0    0  0.00000000000E+00  0.00000000000E+00  0.15224904386E+03  0.17107183045E+03  0.78011536436E+02 0.  0.
        -11    1    3    3    0    0 -0.25013161382E+02 -0.86299833637E+01  0.13897007816E+03  0.14146666561E+03  0.00000000000E+00 0.  1.
         11    1    3    3    0    0  0.25013161382E+02  0.86299833637E+01  0.13278965703E+02  0.29605164842E+02  0.00000000000E+00 0. -1.
<mgrwt>
<rscale>  0 0.78011536E+02</rscale>
<asrwt>0</asrwt>
<pdfrwt beam="2">  1        1 0.14479068E-02 0.78011536E+02</pdfrwt>
<pdfrwt beam="1">  1       -1 0.24870834E-01 0.78011536E+02</pdfrwt>
<totfact> 0.10994046E+05</totfact>
</mgrwt>
</event>
<event>
 5    1  0.6222456E+000  0.9031277E+02  0.7546771E-02  0.1302096E+00
          2   -1    0    0  501    0  0.00000000000E+00  0.00000000000E+00  0.10074599063E+03  0.10074599063E+03  0.00000000000E+00 0. -1.
         -2   -1    0    0    0  501 -0.00000000000E+00 -0.00000000000E+00 -0.20240000453E+02  0.20240000453E+02  0.00000000000E+00 0.  1.
         23    2    1    2    0    0  0.00000000000E+00  0.00000000000E+00  0.80505990182E+02  0.12098599109E+03  0.90312765345E+02 0.  0.
        -11    1    3    3    0    0  0.20354092567E+02  0.12306662124E+02 -0.11167917056E+02  0.26276708094E+02  0.00000000000E+00 0.  1.
         11    1    3    3    0    0 -0.20354092567E+02 -0.12306662124E+02  0.91673907238E+02  0.94709282994E+02  0.00000000000E+00 0. -1.
<mgrwt>
<rscale>  0 0.90312765E+02</rscale>
<asrwt>0</asrwt>
<pdfrwt beam="1">  1        2 0.15499383E-01 0.90312765E+02</pdfrwt>
<pdfrwt beam="2">  1       -2 0.31138463E-02 0.90312765E+02</pdfrwt>
<totfact> 0.12621484E+05</totfact>
</mgrwt>
</event>
<event>
 5    1  0.6222456E+000  0.8860581E+02  0.7546771E-02  0.1306263E+00
          4   -1    0    0  501    0  0.00000000000E+00  0.00000000000E+00  0.28803689480E+02  0.28803689480E+02  0.00000000000E+00 0. -1.
         -4   -1    0    0    0  501 -0.00000000000E+00 -0.00000000000E+00 -0.68142221207E+02  0.68142221207E+02  0.00000000000E+00 0.  1.
         23    2    1    2    0    0  0.00000000000E+00  0.00000000000E+00 -0.39338531727E+02  0.96945910687E+02  0.88605809745E+02 0.  0.
        -11    1    3    3    0    0  0.19962161097E+02 -0.24097761553E+02 -0.53982934208E+02  0.62396692005E+02  0.00000000000E+00 0.  1.
         11    1    3    3    0    0 -0.19962161097E+02  0.24097761553E+02  0.14644402482E+02  0.34549218682E+02  0.00000000000E+00 0. -1.
<mgrwt>
<rscale>  0 0.88605810E+02</rscale>
<asrwt>0</asrwt>
<pdfrwt beam="1">  1        4 0.44313369E-02 0.88605810E+02</pdfrwt>
<pdfrwt beam="2">  1       -4 0.10483419E-01 0.88605810E+02</pdfrwt>
<totfact> 0.28789625E+04</totfact>
</mgrwt>
</event>
<event>
 5    1  0.6222456E+000  0.1052160E+03  0.7546771E-02  0.1269695E+00
         -1   -1    0    0    0  501 -0.00000000000E+00  0.00000000000E+00  0.14626523181E+03  0.14626523181E+03  0.00000000000E+00 0.  1.
          1   -1    0    0  501    0  0.00000000000E+00 -0.00000000000E+00 -0.18921816710E+02  0.18921816710E+02  0.00000000000E+00 0. -1.
         23    2    1    2    0    0  0.00000000000E+00  0.00000000000E+00  0.12734341510E+03  0.16518704852E+03  0.10521604264E+03 0.  0.
        -11    1    3    3    0    0 -0.19530553761E+02  0.40666324079E+02  0.10616022688E+03  0.11534810885E+03  0.00000000000E+00 0.  1.
         11    1    3    3    0    0  0.19530553761E+02 -0.40666324079E+02  0.21183188224E+02  0.49838939672E+02  0.00000000000E+00 0. -1.
<mgrwt>
<rscale>  0 0.10521604E+03</rscale>
<asrwt>0</asrwt>
<pdfrwt beam="2">  1        1 0.29110488E-02 0.10521604E+03</pdfrwt>
<pdfrwt beam="1">  1       -1 0.22502343E-01 0.10521604E+03</pdfrwt>
<totfact> 0.51812832E+04</totfact>
</mgrwt>
</event>
<event>
 5    1  0.6222456E+000  0.7062778E+02  0.7546771E-02  0.1357971E+00
          1   -1    0    0  501    0  0.00000000000E+00  0.00000000000E+00  0.18634247577E+02  0.18634247577E+02  0.00000000000E+00 0. -1.
         -1   -1    0    0    0  501 -0.00000000000E+00 -0.00000000000E+00 -0.66923585004E+02  0.66923585004E+02  0.00000000000E+00 0.  1.
         23    2    1    2    0    0  0.00000000000E+00  0.00000000000E+00 -0.48289337428E+02  0.85557832581E+02  0.70627775037E+02 0.  0.
        -11    1    3    3    0    0  0.30303251388E+02 -0.78186251700E+01 -0.43963136248E+02  0.53964574426E+02  0.00000000000E+00 0.  1.
         11    1    3    3    0    0 -0.30303251388E+02  0.78186251700E+01 -0.43262011803E+01  0.31593258155E+02  0.00000000000E+00 0. -1.
<mgrwt>
<rscale>  0 0.70627775E+02</rscale>
<asrwt>0</asrwt>
<pdfrwt beam="1">  1        1 0.28668073E-02 0.70627775E+02</pdfrwt>
<pdfrwt beam="2">  1       -1 0.10295936E-01 0.70627775E+02</pdfrwt>
<totfact> 0.16658660E+05</totfact>
</mgrwt>
</event>
<event>
 5    1  0.6222456E+000  0.9106260E+02  0.7546771E-02  0.1300299E+00
         -1   -1    0    0    0  501 -0.00000000000E+00  0.00000000000E+00  0.31235164826E+02  0.31235164826E+02  0.00000000000E+00 0.  1.
          1   -1    0    0  501    0  0.00000000000E+00 -0.00000000000E+00 -0.66370691310E+02  0.66370691310E+02  0.00000000000E+00 0. -1.
         23    2    1    2    0    0  0.00000000000E+00  0.00000000000E+00 -0.35135526484E+02  0.97605856137E+02  0.91062604459E+02 0.  0.
        -11    1    3    3    0    0  0.43412578746E+01 -0.38570455101E+02  0.79453659506E+01  0.39618876394E+02  0.00000000000E+00 0.  1.
         11    1    3    3    0    0 -0.43412578746E+01  0.38570455101E+02 -0.43080892435E+02  0.57986979742E+02  0.00000000000E+00 0. -1.
<mgrwt>
<rscale>  0 0.91062604E+02</rscale>
<asrwt>0</asrwt>
<pdfrwt beam="2">  1        1 0.10210875E-01 0.91062604E+02</pdfrwt>
<pdfrwt beam="1">  1       -1 0.48054100E-02 0.91062604E+02</pdfrwt>
<totfact> 0.98202634E+04</totfact>
</mgrwt>
</event>
<event>
 5    1  0.6222456E+000  0.8852671E+02  0.7546771E-02  0.1306459E+00
          1   -1    0    0  501    0  0.00000000000E+00  0.00000000000E+00  0.94495517193E+02  0.94495517193E+02  0.00000000000E+00 0. -1.
         -1   -1    0    0    0  501 -0.00000000000E+00 -0.00000000000E+00 -0.20733730291E+02  0.20733730291E+02  0.00000000000E+00 0.  1.
         23    2    1    2    0    0  0.00000000000E+00  0.00000000000E+00  0.73761786902E+02  0.11522924748E+03  0.88526709352E+02 0.  0.
        -11    1    3    3    0    0 -0.31763890813E+02 -0.95740705577E-01 -0.32442530034E+01  0.31929282851E+02  0.00000000000E+00 0.  1.
         11    1    3    3    0    0  0.31763890813E+02  0.95740705577E-01  0.77006039905E+02  0.83299964632E+02  0.00000000000E+00 0. -1.
<mgrwt>
<rscale>  0 0.88526709E+02</rscale>
<asrwt>0</asrwt>
<pdfrwt beam="1">  1        1 0.14537772E-01 0.88526709E+02</pdfrwt>
<pdfrwt beam="2">  1       -1 0.31898047E-02 0.88526709E+02</pdfrwt>
<totfact> 0.11213430E+05</totfact>
</mgrwt>
</event>
<event>
 5    1  0.6222456E+000  0.9027173E+02  0.7546771E-02  0.1302195E+00
         -2   -1    0    0    0  501 -0.00000000000E+00  0.00000000000E+00  0.29616650790E+02  0.29616650790E+02  0.00000000000E+00 0.  1.
          2   -1    0    0  501    0  0.00000000000E+00 -0.00000000000E+00 -0.68787187546E+02  0.68787187546E+02  0.00000000000E+00 0. -1.
         23    2    1    2    0    0  0.00000000000E+00  0.00000000000E+00 -0.39170536756E+02  0.98403838335E+02  0.90271725636E+02 0.  0.
        -11    1    3    3    0    0 -0.24999954380E+02  0.12301109020E+02 -0.58293735584E+02  0.64610174202E+02  0.00000000000E+00 0. -1.
         11    1    3    3    0    0  0.24999954380E+02 -0.12301109020E+02  0.19123198828E+02  0.33793664133E+02  0.00000000000E+00 0.  1.
<mgrwt>
<rscale>  0 0.90271726E+02</rscale>
<asrwt>0</asrwt>
<pdfrwt beam="2">  1        2 0.10582644E-01 0.90271726E+02</pdfrwt>
<pdfrwt beam="1">  1       -2 0.45564078E-02 0.90271726E+02</pdfrwt>
<totfact> 0.11320018E+05</totfact>
</mgrwt>
</event>
<event>
 5    1  0.6222456E+000  0.9113403E+02  0.7546771E-02  0.1300128E+00
          2   -1    0    0  501    0  0.00000000000E+00  0.00000000000E+00  0.17290488305E+02  0.17290488305E+02  0.00000000000E+00 0. -1.
         -2   -1    0    0    0  501 -0.00000000000E+00 -0.00000000000E+00 -0.12008641214E+03  0.12008641214E+03  0.00000000000E+00 0.  1.
         23    2    1    2    0    0  0.00000000000E+00  0.00000000000E+00 -0.10279592383E+03  0.13737690044E+03  0.91134026677E+02 0.  0.
        -11    1    3    3    0    0 -0.29323731711E+02  0.56221464832E+01 -0.10328599525E+03  0.10751505284E+03  0.00000000000E+00 0.  1.
         11    1    3    3    0    0  0.29323731711E+02 -0.56221464832E+01  0.49007141143E+00  0.29861847607E+02  0.00000000000E+00 0. -1.
<mgrwt>
<rscale>  0 0.91134027E+02</rscale>
<asrwt>0</asrwt>
<pdfrwt beam="1">  1        2 0.26600751E-02 0.91134027E+02</pdfrwt>
<pdfrwt beam="2">  1       -2 0.18474833E-01 0.91134027E+02</pdfrwt>
<totfact> 0.75488200E+04</totfact>
</mgrwt>
</event>
<event>
 5    1  0.6222456E+000  0.9254366E+02  0.7546771E-02  0.1296806E+00
          1   -1    0    0  501    0  0.00000000000E+00  0.00000000000E+00  0.42769527861E+03  0.42769527861E+03  0.00000000000E+00 0. -1.
         -1   -1    0    0    0  501 -0.00000000000E+00 -0.00000000000E+00 -0.50060932663E+01  0.50060932663E+01  0.00000000000E+00 0.  1.
         23    2    1    2    0    0  0.00000000000E+00  0.00000000000E+00  0.42268918535E+03  0.43270137188E+03  0.92543664381E+02 0.  0.
        -11    1    3    3    0    0  0.75327613975E+01  0.45001218106E+02  0.17536024347E+03  0.18119897107E+03  0.00000000000E+00 0.  1.
         11    1    3    3    0    0 -0.75327613975E+01 -0.45001218106E+02  0.24732894187E+03  0.25150240081E+03  0.00000000000E+00 0. -1.
<mgrwt>
<rscale>  0 0.92543664E+02</rscale>
<asrwt>0</asrwt>
<pdfrwt beam="1">  1        1 0.65799245E-01 0.92543664E+02</pdfrwt>
<pdfrwt beam="2">  1       -1 0.77016853E-03 0.92543664E+02</pdfrwt>
<totfact> 0.13104499E+05</totfact>
</mgrwt>
</event>
<event>
 5    1  0.6222456E+000  0.9265258E+02  0.7546771E-02  0.1296552E+00
         -2   -1    0    0    0  501 -0.00000000000E+00  0.00000000000E+00  0.46182174521E+02  0.46182174521E+02  0.00000000000E+00 0.  1.
          2   -1    0    0  501    0  0.00000000000E+00 -0.00000000000E+00 -0.46470850517E+02  0.46470850517E+02  0.00000000000E+00 0. -1.
         23    2    1    2    0    0  0.00000000000E+00  0.00000000000E+00 -0.28867599602E+00  0.92653025039E+02  0.92652575329E+02 0.  0.
        -11    1    3    3    0    0 -0.24627939282E+02  0.31279730865E+02  0.23544761182E+02  0.46252705169E+02  0.00000000000E+00 0.  1.
         11    1    3    3    0    0  0.24627939282E+02 -0.31279730865E+02 -0.23833437178E+02  0.46400319870E+02  0.00000000000E+00 0. -1.
<mgrwt>
<rscale>  0 0.92652575E+02</rscale>
<asrwt>0</asrwt>
<pdfrwt beam="2">  1        2 0.71493616E-02 0.92652575E+02</pdfrwt>
<pdfrwt beam="1">  1       -2 0.71049499E-02 0.92652575E+02</pdfrwt>
<totfact> 0.94696020E+04</totfact>
</mgrwt>
</event>
<event>
 5    1  0.6222456E+000  0.9124335E+02  0.7546771E-02  0.1299868E+00
          1   -1    0    0  501    0  0.00000000000E+00  0.00000000000E+00  0.11926354958E+03  0.11926354958E+03  0.00000000000E+00 0. -1.
         -1   -1    0    0    0  501 -0.00000000000E+00 -0.00000000000E+00 -0.17451578620E+02  0.17451578620E+02  0.00000000000E+00 0.  1.
         23    2    1    2    0    0  0.00000000000E+00  0.00000000000E+00  0.10181197096E+03  0.13671512820E+03  0.91243349611E+02 0.  0.
        -11    1    3    3    0    0 -0.39602421767E+02 -0.21310840165E+01  0.17119978510E+02  0.43197071580E+02  0.00000000000E+00 0.  1.
         11    1    3    3    0    0  0.39602421767E+02  0.21310840165E+01  0.84691992454E+02  0.93518056624E+02  0.00000000000E+00 0. -1.
<mgrwt>
<rscale>  0 0.91243350E+02</rscale>
<asrwt>0</asrwt>
<pdfrwt beam="1">  1        1 0.18348238E-01 0.91243350E+02</pdfrwt>
<pdfrwt beam="2">  1       -1 0.26848583E-02 0.91243350E+02</pdfrwt>
<totfact> 0.10741080E+05</totfact>
</mgrwt>
</event>
<event>
 5    1  0.6222456E+000  0.9070254E+02  0.7546771E-02  0.1301159E+00
         -2   -1    0    0    0  501 -0.00000000000E+00  0.00000000000E+00  0.42334559557E+02  0.42334559557E+02  0.00000000000E+00 0.  1.
          2   -1    0    0  501    0  0.00000000000E+00 -0.00000000000E+00 -0.48582951177E+02  0.48582951177E+02  0.00000000000E+00 0. -1.
         23    2    1    2    0    0  0.00000000000E+00  0.00000000000E+00 -0.62483916192E+01  0.90917510734E+02  0.90702543296E+02 0.  0.
        -11    1    3    3    0    0 -0.22264191971E+02  0.18492989808E+02 -0.38121883548E+02  0.47864004444E+02  0.00000000000E+00 0. -1.
         11    1    3    3    0    0  0.22264191971E+02 -0.18492989808E+02  0.31873491929E+02  0.43053506290E+02  0.00000000000E+00 0.  1.
<mgrwt>
<rscale>  0 0.90702543E+02</rscale>
<asrwt>0</asrwt>
<pdfrwt beam="2">  1        2 0.74743001E-02 0.90702543E+02</pdfrwt>
<pdfrwt beam="1">  1       -2 0.65130092E-02 0.90702543E+02</pdfrwt>
<totfact> 0.10182615E+05</totfact>
</mgrwt>
</event>
<event>
 5    1  0.6222456E+000  0.9052442E+02  0.7546771E-02  0.1301587E+00
         -3   -1    0    0    0  501 -0.00000000000E+00  0.00000000000E+00  0.71175063135E+02  0.71175063135E+02  0.00000000000E+00 0.  1.
          3   -1    0    0  501    0  0.00000000000E+00 -0.00000000000E+00 -0.28783502104E+02  0.28783502104E+02  0.00000000000E+00 0. -1.
         23    2    1    2    0    0  0.00000000000E+00  0.00000000000E+00  0.42391561031E+02  0.99958565240E+02  0.90524418353E+02 0.  0.
        -11    1    3    3    0    0  0.19524648040E+02  0.32501453984E+02 -0.61011860574E+01  0.38402875719E+02  0.00000000000E+00 0. -1.
         11    1    3    3    0    0 -0.19524648040E+02 -0.32501453984E+02  0.48492747089E+02  0.61555689521E+02  0.00000000000E+00 0.  1.
<mgrwt>
<rscale>  0 0.90524418E+02</rscale>
<asrwt>0</asrwt>
<pdfrwt beam="2">  1        3 0.44282311E-02 0.90524418E+02</pdfrwt>
<pdfrwt beam="1">  1       -3 0.10950010E-01 0.90524418E+02</pdfrwt>
<totfact> 0.35358980E+04</totfact>
</mgrwt>
</event>
<event>
 5    1  0.6222456E+000  0.8725150E+02  0.7546771E-02  0.1309647E+00
          2   -1    0    0  501    0  0.00000000000E+00  0.00000000000E+00  0.20692847141E+03  0.20692847141E+03  0.00000000000E+00 0. -1.
         -2   -1    0    0    0  501 -0.00000000000E+00 -0.00000000000E+00 -0.91974108017E+01  0.91974108017E+01  0.00000000000E+00 0.  1.
         23    2    1    2    0    0  0.00000000000E+00  0.00000000000E+00  0.19773106061E+03  0.21612588221E+03  0.87251502179E+02 0.  0.
        -11    1    3    3    0    0 -0.76822677921E+01  0.42680809417E+02  0.11062495390E+03  0.11882150124E+03  0.00000000000E+00 0.  1.
         11    1    3    3    0    0  0.76822677921E+01 -0.42680809417E+02  0.87106106708E+02  0.97304380974E+02  0.00000000000E+00 0. -1.
<mgrwt>
<rscale>  0 0.87251502E+02</rscale>
<asrwt>0</asrwt>
<pdfrwt beam="1">  1        2 0.31835146E-01 0.87251502E+02</pdfrwt>
<pdfrwt beam="2">  1       -2 0.14149864E-02 0.87251502E+02</pdfrwt>
<totfact> 0.17621377E+05</totfact>
</mgrwt>
</event>
<event>
 5    1  0.6222456E+000  0.9178421E+02  0.7546771E-02  0.1298588E+00
         -2   -1    0    0    0  501 -0.00000000000E+00  0.00000000000E+00  0.90738625809E+01  0.90738625809E+01  0.00000000000E+00 0.  1.
          2   -1    0    0  501    0  0.00000000000E+00 -0.00000000000E+00 -0.23210460458E+03  0.23210460458E+03  0.00000000000E+00 0. -1.
         23    2    1    2    0    0  0.00000000000E+00  0.00000000000E+00 -0.22303074200E+03  0.24117846716E+03  0.91784209674E+02 0.  0.
        -11    1    3    3    0    0 -0.27397675619E+02  0.25548249554E+02 -0.18117285310E+03  0.18500526583E+03  0.00000000000E+00 0. -1.
         11    1    3    3    0    0  0.27397675619E+02 -0.25548249554E+02 -0.41857888899E+02  0.56173201331E+02  0.00000000000E+00 0.  1.
<mgrwt>
<rscale>  0 0.91784210E+02</rscale>
<asrwt>0</asrwt>
<pdfrwt beam="2">  1        2 0.35708393E-01 0.91784210E+02</pdfrwt>
<pdfrwt beam="1">  1       -2 0.13959791E-02 0.91784210E+02</pdfrwt>
<totfact> 0.16043457E+05</totfact>
</mgrwt>
</event>
<event>
 5    1  0.6222456E+000  0.9124598E+02  0.7546771E-02  0.1299862E+00
          2   -1    0    0  501    0  0.00000000000E+00  0.00000000000E+00  0.19803061131E+02  0.19803061131E+02  0.00000000000E+00 0. -1.
         -2   -1    0    0    0  501 -0.00000000000E+00 -0.00000000000E+00 -0.10510786208E+03  0.10510786208E+03  0.00000000000E+00 0.  1.
         23    2    1    2    0    0  0.00000000000E+00  0.00000000000E+00 -0.85304800951E+02  0.12491092321E+03  0.91245984418E+02 0.  0.
        -11    1    3    3    0    0 -0.44383602489E+02  0.26314114355E+01 -0.56655124605E+02  0.72018272959E+02  0.00000000000E+00 0.  1.
         11    1    3    3    0    0  0.44383602489E+02 -0.26314114355E+01 -0.28649676346E+02  0.52892650253E+02  0.00000000000E+00 0. -1.
<mgrwt>
<rscale>  0 0.91245984E+02</rscale>
<asrwt>0</asrwt>
<pdfrwt beam="1">  1        2 0.30466247E-02 0.91245984E+02</pdfrwt>
<pdfrwt beam="2">  1       -2 0.16170441E-01 0.91245984E+02</pdfrwt>
<totfact> 0.78468296E+04</totfact>
</mgrwt>
</event>
<event>
 5    1  0.6222456E+000  0.9365511E+02  0.7546771E-02  0.1294234E+00
         -1   -1    0    0    0  501 -0.00000000000E+00  0.00000000000E+00  0.25610937929E+02  0.25610937929E+02  0.00000000000E+00 0.  1.
          1   -1    0    0  501    0  0.00000000000E+00 -0.00000000000E+00 -0.85620438256E+02  0.85620438256E+02  0.00000000000E+00 0. -1.
         23    2    1    2    0    0  0.00000000000E+00  0.00000000000E+00 -0.60009500327E+02  0.11123137618E+03  0.93655106206E+02 0.  0.
        -11    1    3    3    0    0 -0.33087917874E+02 -0.16761220407E+02  0.39441511924E+01  0.37300203048E+02  0.00000000000E+00 0.  1.
         11    1    3    3    0    0  0.33087917874E+02  0.16761220407E+02 -0.63953651519E+02  0.73931173137E+02  0.00000000000E+00 0. -1.
<mgrwt>
<rscale>  0 0.93655106E+02</rscale>
<asrwt>0</asrwt>
<pdfrwt beam="2">  1        1 0.13172375E-01 0.93655106E+02</pdfrwt>
<pdfrwt beam="1">  1       -1 0.39401443E-02 0.93655106E+02</pdfrwt>
<totfact> 0.94607186E+04</totfact>
</mgrwt>
</event>
<event>
 5    1  0.6222456E+000  0.8856395E+02  0.7546771E-02  0.1306367E+00
         -2   -1    0    0    0  501 -0.00000000000E+00  0.00000000000E+00  0.81690813053E+01  0.81690813053E+01  0.00000000000E+00 0.  1.
          2   -1    0    0  501    0  0.00000000000E+00 -0.00000000000E+00 -0.24003842821E+03  0.24003842821E+03  0.00000000000E+00 0. -1.
         23    2    1    2    0    0  0.00000000000E+00  0.00000000000E+00 -0.23186934690E+03  0.24820750951E+03  0.88563952857E+02 0.  0.
        -11    1    3    3    0    0 -0.28714270125E+02  0.18616578244E+02 -0.19469698494E+03  0.19768156778E+03  0.00000000000E+00 0. -1.
         11    1    3    3    0    0  0.28714270125E+02 -0.18616578244E+02 -0.37172361961E+02  0.50525941734E+02  0.00000000000E+00 0.  1.
<mgrwt>
<rscale>  0 0.88563953E+02</rscale>
<asrwt>0</asrwt>
<pdfrwt beam="2">  1        2 0.36928982E-01 0.88563953E+02</pdfrwt>
<pdfrwt beam="1">  1       -2 0.12567820E-02 0.88563953E+02</pdfrwt>
<totfact> 0.17872764E+05</totfact>
</mgrwt>
</event>
<event>
 5    1  0.6222456E+000  0.9129808E+02  0.7546771E-02  0.1299738E+00
         -1   -1    0    0    0  501 -0.00000000000E+00  0.00000000000E+00  0.25109186989E+02  0.25109186989E+02  0.00000000000E+00 0.  1.
          1   -1    0    0  501    0  0.00000000000E+00 -0.00000000000E+00 -0.82990932810E+02  0.82990932810E+02  0.00000000000E+00 0. -1.
         23    2    1    2    0    0  0.00000000000E+00  0.00000000000E+00 -0.57881745820E+02  0.10810011980E+03  0.91298079944E+02 0.  0.
        -11    1    3    3    0    0  0.85297806268E+01  0.42444284279E+02 -0.11800543416E+02  0.44872343937E+02  0.00000000000E+00 0.  1.
         11    1    3    3    0    0 -0.85297806268E+01 -0.42444284279E+02 -0.46081202404E+02  0.63227775862E+02  0.00000000000E+00 0. -1.
<mgrwt>
<rscale>  0 0.91298080E+02</rscale>
<asrwt>0</asrwt>
<pdfrwt beam="2">  1        1 0.12767836E-01 0.91298080E+02</pdfrwt>
<pdfrwt beam="1">  1       -1 0.38629518E-02 0.91298080E+02</pdfrwt>
<totfact> 0.10096286E+05</totfact>
</mgrwt>
</event>
<event>
 5    1  0.6222456E+000  0.9011044E+02  0.7546771E-02  0.1302584E+00
         -2   -1    0    0    0  501 -0.00000000000E+00  0.00000000000E+00  0.57940707741E+02  0.57940707741E+02  0.00000000000E+00 0.  1.
          2   -1    0    0  501    0  0.00000000000E+00 -0.00000000000E+00 -0.35035350332E+02  0.35035350332E+02  0.00000000000E+00 0. -1.
         23    2    1    2    0    0  0.00000000000E+00  0.00000000000E+00  0.22905357409E+02  0.92976058073E+02  0.90110443217E+02 0.  0.
        -11    1    3    3    0    0 -0.73482021713E+01 -0.29194578882E+02  0.46039623816E+02  0.55008785411E+02  0.00000000000E+00 0.  1.
         11    1    3    3    0    0  0.73482021713E+01  0.29194578882E+02 -0.23134266407E+02  0.37967272662E+02  0.00000000000E+00 0. -1.
<mgrwt>
<rscale>  0 0.90110443E+02</rscale>
<asrwt>0</asrwt>
<pdfrwt beam="2">  1        2 0.53900539E-02 0.90110443E+02</pdfrwt>
<pdfrwt beam="1">  1       -2 0.89139550E-02 0.90110443E+02</pdfrwt>
<totfact> 0.95385163E+04</totfact>
</mgrwt>
</event>
<event>
 5    1  0.6222456E+000  0.8803617E+02  0.7546771E-02  0.1307678E+00
          2   -1    0    0  501    0  0.00000000000E+00  0.00000000000E+00  0.29636525909E+03  0.29636525909E+03  0.00000000000E+00 0.  1.
         -2   -1    0    0    0  501 -0.00000000000E+00 -0.00000000000E+00 -0.65378513446E+01  0.65378513446E+01  0.00000000000E+00 0. -1.
         23    2    1    2    0    0  0.00000000000E+00  0.00000000000E+00  0.28982740774E+03  0.30290311043E+03  0.88036174557E+02 0.  0.
        -11    1    3    3    0    0 -0.24900367958E+02 -0.36292092236E+02  0.14721592963E+03  0.15365439864E+03  0.00000000000E+00 0. -1.
         11    1    3    3    0    0  0.24900367958E+02  0.36292092236E+02  0.14261147811E+03  0.14924871180E+03  0.00000000000E+00 0.  1.
<mgrwt>
<rscale>  0 0.88036175E+02</rscale>
<asrwt>0</asrwt>
<pdfrwt beam="1">  1        2 0.45594645E-01 0.88036175E+02</pdfrwt>
<pdfrwt beam="2">  1       -2 0.10058235E-02 0.88036175E+02</pdfrwt>
<totfact> 0.19633911E+05</totfact>
</mgrwt>
</event>
<event>
 5    1  0.6222456E+000  0.9292120E+02  0.7546771E-02  0.1295928E+00
          2   -1    0    0  501    0  0.00000000000E+00  0.00000000000E+00  0.25505879864E+03  0.25505879864E+03  0.00000000000E+00 0. -1.
         -2   -1    0    0    0  501 -0.00000000000E+00 -0.00000000000E+00 -0.84630964975E+01  0.84630964975E+01  0.00000000000E+00 0.  1.
         23    2    1    2    0    0  0.00000000000E+00  0.00000000000E+00  0.24659570214E+03  0.26352189514E+03  0.92921197268E+02 0.  0.
        -11    1    3    3    0    0 -0.39140701393E+02 -0.24239909684E+02  0.10558278611E+03  0.11518373344E+03  0.00000000000E+00 0.  1.
         11    1    3    3    0    0  0.39140701393E+02  0.24239909684E+02  0.14101291603E+03  0.14833816170E+03  0.00000000000E+00 0. -1.
<mgrwt>
<rscale>  0 0.92921197E+02</rscale>
<asrwt>0</asrwt>
<pdfrwt beam="1">  1        2 0.39239809E-01 0.92921197E+02</pdfrwt>
<pdfrwt beam="2">  1       -2 0.13020150E-02 0.92921197E+02</pdfrwt>
<totfact> 0.16073094E+05</totfact>
</mgrwt>
</event>
<event>
 5    1  0.6222456E+000  0.8746814E+02  0.7546771E-02  0.1309101E+00
          1   -1    0    0  501    0  0.00000000000E+00  0.00000000000E+00  0.70542077727E+02  0.70542077727E+02  0.00000000000E+00 0. -1.
         -1   -1    0    0    0  501 -0.00000000000E+00 -0.00000000000E+00 -0.27113870626E+02  0.27113870626E+02  0.00000000000E+00 0.  1.
         23    2    1    2    0    0  0.00000000000E+00  0.00000000000E+00  0.43428207101E+02  0.97655948352E+02  0.87468137494E+02 0.  0.
        -11    1    3    3    0    0  0.29860442514E+02  0.24180926331E+02  0.45034943509E+02  0.59198896629E+02  0.00000000000E+00 0.  1.
         11    1    3    3    0    0 -0.29860442514E+02 -0.24180926331E+02 -0.16067364074E+01  0.38457051723E+02  0.00000000000E+00 0. -1.
<mgrwt>
<rscale>  0 0.87468137E+02</rscale>
<asrwt>0</asrwt>
<pdfrwt beam="1">  1        1 0.10852627E-01 0.87468137E+02</pdfrwt>
<pdfrwt beam="2">  1       -1 0.41713647E-02 0.87468137E+02</pdfrwt>
<totfact> 0.11071930E+05</totfact>
</mgrwt>
</event>
<event>
 5    1  0.6222456E+000  0.9571892E+02  0.7546771E-02  0.1289565E+00
          3   -1    0    0  501    0  0.00000000000E+00  0.00000000000E+00  0.62609468495E+02  0.62609468495E+02  0.00000000000E+00 0. -1.
         -3   -1    0    0    0  501 -0.00000000000E+00 -0.00000000000E+00 -0.36584370768E+02  0.36584370768E+02  0.00000000000E+00 0.  1.
         23    2    1    2    0    0  0.00000000000E+00  0.00000000000E+00  0.26025097727E+02  0.99193839263E+02  0.95718922038E+02 0.  0.
        -11    1    3    3    0    0  0.20679787325E+02 -0.32976224794E+02  0.41870257332E+02  0.57168203177E+02  0.00000000000E+00 0.  1.
         11    1    3    3    0    0 -0.20679787325E+02  0.32976224794E+02 -0.15845159605E+02  0.42025636086E+02  0.00000000000E+00 0. -1.
<mgrwt>
<rscale>  0 0.95718922E+02</rscale>
<asrwt>0</asrwt>
<pdfrwt beam="1">  1        3 0.96322259E-02 0.95718922E+02</pdfrwt>
<pdfrwt beam="2">  1       -3 0.56283648E-02 0.95718922E+02</pdfrwt>
<totfact> 0.30409151E+04</totfact>
</mgrwt>
</event>
<event>
 5    1  0.6222456E+000  0.8987089E+02  0.7546771E-02  0.1303165E+00
         -1   -1    0    0    0  501 -0.00000000000E+00  0.00000000000E+00  0.18779860986E+02  0.18779860986E+02  0.00000000000E+00 0.  1.
          1   -1    0    0  501    0  0.00000000000E+00 -0.00000000000E+00 -0.10751913530E+03  0.10751913530E+03  0.00000000000E+00 0. -1.
         23    2    1    2    0    0  0.00000000000E+00  0.00000000000E+00 -0.88739274314E+02  0.12629899629E+03  0.89870894383E+02 0.  0.
        -11    1    3    3    0    0  0.27840688613E+02 -0.86490930009E+01  0.36856056779E+01  0.29385275929E+02  0.00000000000E+00 0.  1.
         11    1    3    3    0    0 -0.27840688613E+02  0.86490930009E+01 -0.92424879992E+02  0.96913720358E+02  0.00000000000E+00 0. -1.
<mgrwt>
<rscale>  0 0.89870894E+02</rscale>
<asrwt>0</asrwt>
<pdfrwt beam="2">  1        1 0.16541406E-01 0.89870894E+02</pdfrwt>
<pdfrwt beam="1">  1       -1 0.28892094E-02 0.89870894E+02</pdfrwt>
<totfact> 0.10995457E+05</totfact>
</mgrwt>
</event>
<event>
 5    1  0.6222456E+000  0.9209848E+02  0.7546771E-02  0.1297848E+00
          2   -1    0    0  501    0  0.00000000000E+00  0.00000000000E+00  0.58402480793E+01  0.58402480793E+01  0.00000000000E+00 0. -1.
         -2   -1    0    0    0  501 -0.00000000000E+00 -0.00000000000E+00 -0.36308945873E+03  0.36308945873E+03  0.00000000000E+00 0.  1.
         23    2    1    2    0    0  0.00000000000E+00  0.00000000000E+00 -0.35724921065E+03  0.36892970681E+03  0.92098480204E+02 0.  0.
        -11    1    3    3    0    0 -0.35796209264E+02 -0.28960498794E+02 -0.18132199896E+03  0.18707684623E+03  0.00000000000E+00 0.  1.
         11    1    3    3    0    0  0.35796209264E+02  0.28960498794E+02 -0.17592721169E+03  0.18185286058E+03  0.00000000000E+00 0. -1.
<mgrwt>
<rscale>  0 0.92098480E+02</rscale>
<asrwt>0</asrwt>
<pdfrwt beam="1">  1        2 0.89849976E-03 0.92098480E+02</pdfrwt>
<pdfrwt beam="2">  1       -2 0.55859914E-01 0.92098480E+02</pdfrwt>
<totfact> 0.44325389E+04</totfact>
</mgrwt>
</event>
<event>
 5    1  0.6222456E+000  0.9275289E+02  0.7546771E-02  0.1296319E+00
         -3   -1    0    0    0  501 -0.00000000000E+00  0.00000000000E+00  0.17324997083E+03  0.17324997083E+03  0.00000000000E+00 0.  1.
          3   -1    0    0  501    0  0.00000000000E+00 -0.00000000000E+00 -0.12414284905E+02  0.12414284905E+02  0.00000000000E+00 0. -1.
         23    2    1    2    0    0  0.00000000000E+00  0.00000000000E+00  0.16083568593E+03  0.18566425574E+03  0.92752886698E+02 0.  0.
        -11    1    3    3    0    0 -0.20617526774E+02 -0.33486274386E+02  0.31208307329E+02  0.50203300976E+02  0.00000000000E+00 0.  1.
         11    1    3    3    0    0  0.20617526774E+02  0.33486274386E+02  0.12962737860E+03  0.13546095476E+03  0.00000000000E+00 0. -1.
<mgrwt>
<rscale>  0 0.92752887E+02</rscale>
<asrwt>0</asrwt>
<pdfrwt beam="2">  1        3 0.19098901E-02 0.92752887E+02</pdfrwt>
<pdfrwt beam="1">  1       -3 0.26653840E-01 0.92752887E+02</pdfrwt>
<totfact> 0.27930099E+04</totfact>
</mgrwt>
</event>
<event>
 5    1  0.6222456E+000  0.9105582E+02  0.7546771E-02  0.1300315E+00
         -1   -1    0    0    0  501 -0.00000000000E+00  0.00000000000E+00  0.15036127402E+03  0.15036127402E+03  0.00000000000E+00 0.  1.
          1   -1    0    0  501    0  0.00000000000E+00 -0.00000000000E+00 -0.13785401380E+02  0.13785401380E+02  0.00000000000E+00 0. -1.
         23    2    1    2    0    0  0.00000000000E+00  0.00000000000E+00  0.13657587264E+03  0.16414667540E+03  0.91055818360E+02 0.  0.
        -11    1    3    3    0    0  0.88129415000E+00  0.45517676402E+02  0.67578279947E+02  0.81482878355E+02  0.00000000000E+00 0. -1.
         11    1    3    3    0    0 -0.88129415000E+00 -0.45517676402E+02  0.68997592688E+02  0.82663797040E+02  0.00000000000E+00 0.  1.
<mgrwt>
<rscale>  0 0.91055818E+02</rscale>
<asrwt>0</asrwt>
<pdfrwt beam="2">  1        1 0.21208311E-02 0.91055818E+02</pdfrwt>
<pdfrwt beam="1">  1       -1 0.23132503E-01 0.91055818E+02</pdfrwt>
<totfact> 0.75004734E+04</totfact>
</mgrwt>
</event>
<event>
 5    1  0.6222456E+000  0.9091872E+02  0.7546771E-02  0.1300642E+00
          1   -1    0    0  501    0  0.00000000000E+00  0.00000000000E+00  0.99359613829E+02  0.99359613829E+02  0.00000000000E+00 0. -1.
         -1   -1    0    0    0  501 -0.00000000000E+00 -0.00000000000E+00 -0.20798725299E+02  0.20798725299E+02  0.00000000000E+00 0.  1.
         23    2    1    2    0    0  0.00000000000E+00  0.00000000000E+00  0.78560888530E+02  0.12015833913E+03  0.90918717849E+02 0.  0.
        -11    1    3    3    0    0  0.20198902538E+01 -0.23280044596E+02 -0.12253770842E+02  0.26385513694E+02  0.00000000000E+00 0.  1.
         11    1    3    3    0    0 -0.20198902538E+01  0.23280044596E+02  0.90814659372E+02  0.93772825434E+02  0.00000000000E+00 0. -1.
<mgrwt>
<rscale>  0 0.90918718E+02</rscale>
<asrwt>0</asrwt>
<pdfrwt beam="1">  1        1 0.15286094E-01 0.90918718E+02</pdfrwt>
<pdfrwt beam="2">  1       -1 0.31998040E-02 0.90918718E+02</pdfrwt>
<totfact> 0.10514992E+05</totfact>
</mgrwt>
</event>
<event>
 5    1  0.6222456E+000  0.9154804E+02  0.7546771E-02  0.1299146E+00
         -1   -1    0    0    0  501 -0.00000000000E+00  0.00000000000E+00  0.10210171002E+03  0.10210171002E+03  0.00000000000E+00 0. -1.
          1   -1    0    0  501    0  0.00000000000E+00 -0.00000000000E+00 -0.20521308477E+02  0.20521308477E+02  0.00000000000E+00 0.  1.
         23    2    1    2    0    0  0.00000000000E+00  0.00000000000E+00  0.81580401540E+02  0.12262301849E+03  0.91548035199E+02 0.  0.
        -11    1    3    3    0    0 -0.37189721908E+02  0.25762795146E+02  0.31465582329E+02  0.55107893270E+02  0.00000000000E+00 0.  1.
         11    1    3    3    0    0  0.37189721908E+02 -0.25762795146E+02  0.50114819211E+02  0.67515125223E+02  0.00000000000E+00 0. -1.
<mgrwt>
<rscale>  0 0.91548035E+02</rscale>
<asrwt>0</asrwt>
<pdfrwt beam="2">  1        1 0.31571244E-02 0.91548035E+02</pdfrwt>
<pdfrwt beam="1">  1       -1 0.15707955E-01 0.91548035E+02</pdfrwt>
<totfact> 0.80209916E+04</totfact>
</mgrwt>
</event>
<event>
 5    1  0.6222456E+000  0.7622647E+02  0.7546771E-02  0.1340115E+00
          3   -1    0    0  501    0  0.00000000000E+00  0.00000000000E+00  0.51906158151E+01  0.51906158151E+01  0.00000000000E+00 0. -1.
         -3   -1    0    0    0  501 -0.00000000000E+00 -0.00000000000E+00 -0.27985476935E+03  0.27985476935E+03  0.00000000000E+00 0.  1.
         23    2    1    2    0    0  0.00000000000E+00  0.00000000000E+00 -0.27466415353E+03  0.28504538516E+03  0.76226467627E+02 0.  0.
        -11    1    3    3    0    0  0.25848376643E+02  0.25226881524E+02 -0.91826673222E+02  0.98674576470E+02  0.00000000000E+00 0. -1.
         11    1    3    3    0    0 -0.25848376643E+02 -0.25226881524E+02 -0.18283748031E+03  0.18637080869E+03  0.00000000000E+00 0.  1.
<mgrwt>
<rscale>  0 0.76226468E+02</rscale>
<asrwt>0</asrwt>
<pdfrwt beam="1">  1        3 0.79855631E-03 0.76226468E+02</pdfrwt>
<pdfrwt beam="2">  1       -3 0.43054578E-01 0.76226468E+02</pdfrwt>
<totfact> 0.39608210E+04</totfact>
</mgrwt>
</event>
<event>
 5    1  0.6222456E+000  0.9592269E+02  0.7546771E-02  0.1289111E+00
         -4   -1    0    0    0  501 -0.00000000000E+00  0.00000000000E+00  0.51454640618E+02  0.51454640618E+02  0.00000000000E+00 0. -1.
          4   -1    0    0  501    0  0.00000000000E+00 -0.00000000000E+00 -0.44705212340E+02  0.44705212340E+02  0.00000000000E+00 0.  1.
         23    2    1    2    0    0  0.00000000000E+00  0.00000000000E+00  0.67494282779E+01  0.96159852959E+02  0.95922690428E+02 0.  0.
        -11    1    3    3    0    0 -0.29327576450E+02 -0.34457572198E+02 -0.12566161486E+02  0.46961041691E+02  0.00000000000E+00 0.  1.
         11    1    3    3    0    0  0.29327576450E+02  0.34457572198E+02  0.19315589764E+02  0.49198811268E+02  0.00000000000E+00 0. -1.
<mgrwt>
<rscale>  0 0.95922690E+02</rscale>
<asrwt>0</asrwt>
<pdfrwt beam="2">  1        4 0.68777250E-02 0.95922690E+02</pdfrwt>
<pdfrwt beam="1">  1       -4 0.79160986E-02 0.95922690E+02</pdfrwt>
<totfact> 0.23249183E+04</totfact>
</mgrwt>
</event>
<event>
 5    1  0.6222456E+000  0.9162327E+02  0.7546771E-02  0.1298968E+00
          2   -1    0    0  501    0  0.00000000000E+00  0.00000000000E+00  0.42612396317E+03  0.42612396317E+03  0.00000000000E+00 0. -1.
         -2   -1    0    0    0  501 -0.00000000000E+00 -0.00000000000E+00 -0.49251065092E+01  0.49251065092E+01  0.00000000000E+00 0.  1.
         23    2    1    2    0    0  0.00000000000E+00  0.00000000000E+00  0.42119885666E+03  0.43104906968E+03  0.91623270074E+02 0.  0.
        -11    1    3    3    0    0 -0.45000550810E+02 -0.83458732485E+01  0.20118705504E+03  0.20632725047E+03  0.00000000000E+00 0.  1.
         11    1    3    3    0    0  0.45000550810E+02  0.83458732485E+01  0.22001180163E+03  0.22472181921E+03  0.00000000000E+00 0. -1.
<mgrwt>
<rscale>  0 0.91623270E+02</rscale>
<asrwt>0</asrwt>
<pdfrwt beam="1">  1        2 0.65557504E-01 0.91623270E+02</pdfrwt>
<pdfrwt beam="2">  1       -2 0.75770903E-03 0.91623270E+02</pdfrwt>
<totfact> 0.20151630E+05</totfact>
</mgrwt>
</event>
<event>
 5    1  0.6222456E+000  0.8902324E+02  0.7546771E-02  0.1305234E+00
         -2   -1    0    0    0  501 -0.00000000000E+00  0.00000000000E+00  0.87870115084E+02  0.87870115084E+02  0.00000000000E+00 0. -1.
          2   -1    0    0  501    0  0.00000000000E+00 -0.00000000000E+00 -0.22547874455E+02  0.22547874455E+02  0.00000000000E+00 0.  1.
         23    2    1    2    0    0  0.00000000000E+00  0.00000000000E+00  0.65322240629E+02  0.11041798954E+03  0.89023240185E+02 0.  0.
        -11    1    3    3    0    0 -0.22016782047E+02 -0.38662654776E+02  0.34299459970E+02  0.56178221049E+02  0.00000000000E+00 0.  1.
         11    1    3    3    0    0  0.22016782047E+02  0.38662654776E+02  0.31022780660E+02  0.54239768490E+02  0.00000000000E+00 0. -1.
<mgrwt>
<rscale>  0 0.89023240E+02</rscale>
<asrwt>0</asrwt>
<pdfrwt beam="2">  1        2 0.34689038E-02 0.89023240E+02</pdfrwt>
<pdfrwt beam="1">  1       -2 0.13518479E-01 0.89023240E+02</pdfrwt>
<totfact> 0.87908902E+04</totfact>
</mgrwt>
</event>
<event>
 5    1  0.6222456E+000  0.9133186E+02  0.7546771E-02  0.1299658E+00
         -3   -1    0    0    0  501 -0.00000000000E+00  0.00000000000E+00  0.63667856886E+02  0.63667856886E+02  0.00000000000E+00 0.  1.
          3   -1    0    0  501    0  0.00000000000E+00 -0.00000000000E+00 -0.32754001844E+02  0.32754001844E+02  0.00000000000E+00 0. -1.
         23    2    1    2    0    0  0.00000000000E+00  0.00000000000E+00  0.30913855042E+02  0.96421858730E+02  0.91331858666E+02 0.  0.
        -11    1    3    3    0    0 -0.27608989035E+02  0.35811128739E+02  0.22190792611E+02  0.50369876848E+02  0.00000000000E+00 0.  1.
         11    1    3    3    0    0  0.27608989035E+02 -0.35811128739E+02  0.87230624317E+01  0.46051981882E+02  0.00000000000E+00 0. -1.
<mgrwt>
<rscale>  0 0.91331859E+02</rscale>
<asrwt>0</asrwt>
<pdfrwt beam="2">  1        3 0.50390772E-02 0.91331859E+02</pdfrwt>
<pdfrwt beam="1">  1       -3 0.97950549E-02 0.91331859E+02</pdfrwt>
<totfact> 0.34778147E+04</totfact>
</mgrwt>
</event>
<event>
 5    1  0.6222456E+000  0.9102615E+02  0.7546771E-02  0.1300386E+00
          2   -1    0    0  501    0  0.00000000000E+00  0.00000000000E+00  0.30735529098E+03  0.30735529098E+03  0.00000000000E+00 0. -1.
         -2   -1    0    0    0  501 -0.00000000000E+00 -0.00000000000E+00 -0.67395622487E+01  0.67395622487E+01  0.00000000000E+00 0.  1.
         23    2    1    2    0    0  0.00000000000E+00  0.00000000000E+00  0.30061572873E+03  0.31409485323E+03  0.91026152638E+02 0.  0.
        -11    1    3    3    0    0 -0.42794471237E+02 -0.15382377440E+02  0.14389326293E+03  0.15090810257E+03  0.00000000000E+00 0.  1.
         11    1    3    3    0    0  0.42794471237E+02  0.15382377440E+02  0.15672246580E+03  0.16318675066E+03  0.00000000000E+00 0. -1.
<mgrwt>
<rscale>  0 0.91026153E+02</rscale>
<asrwt>0</asrwt>
<pdfrwt beam="1">  1        2 0.47285418E-01 0.91026153E+02</pdfrwt>
<pdfrwt beam="2">  1       -2 0.10368560E-02 0.91026153E+02</pdfrwt>
<totfact> 0.18208864E+05</totfact>
</mgrwt>
</event>
<event>
 5    1  0.6222456E+000  0.8647764E+02  0.7546771E-02  0.1311613E+00
          2   -1    0    0  501    0  0.00000000000E+00  0.00000000000E+00  0.16971054104E+03  0.16971054104E+03  0.00000000000E+00 0. -1.
         -2   -1    0    0    0  501 -0.00000000000E+00 -0.00000000000E+00 -0.11016379009E+02  0.11016379009E+02  0.00000000000E+00 0.  1.
         23    2    1    2    0    0  0.00000000000E+00  0.00000000000E+00  0.15869416203E+03  0.18072692005E+03  0.86477642011E+02 0.  0.
        -11    1    3    3    0    0  0.29788007378E+02 -0.31257661552E+02  0.84125917930E+02  0.94559699962E+02  0.00000000000E+00 0.  1.
         11    1    3    3    0    0 -0.29788007378E+02  0.31257661552E+02  0.74568244104E+02  0.86167220090E+02  0.00000000000E+00 0. -1.
<mgrwt>
<rscale>  0 0.86477642E+02</rscale>
<asrwt>0</asrwt>
<pdfrwt beam="1">  1        2 0.26109312E-01 0.86477642E+02</pdfrwt>
<pdfrwt beam="2">  1       -2 0.16948277E-02 0.86477642E+02</pdfrwt>
<totfact> 0.16823884E+05</totfact>
</mgrwt>
</event>
<event>
 5    1  0.6222456E+000  0.9089542E+02  0.7546771E-02  0.1300698E+00
          1   -1    0    0  501    0  0.00000000000E+00  0.00000000000E+00  0.94314612217E+02  0.94314612217E+02  0.00000000000E+00 0. -1.
         -1   -1    0    0    0  501 -0.00000000000E+00 -0.00000000000E+00 -0.21900047516E+02  0.21900047516E+02  0.00000000000E+00 0.  1.
         23    2    1    2    0    0  0.00000000000E+00  0.00000000000E+00  0.72414564700E+02  0.11621465973E+03  0.90895423185E+02 0.  0.
        -11    1    3    3    0    0  0.18160659071E+02  0.38581054526E+02  0.16105624670E+02  0.45581777634E+02  0.00000000000E+00 0.  1.
         11    1    3    3    0    0 -0.18160659071E+02 -0.38581054526E+02  0.56308940030E+02  0.70632882099E+02  0.00000000000E+00 0. -1.
<mgrwt>
<rscale>  0 0.90895423E+02</rscale>
<asrwt>0</asrwt>
<pdfrwt beam="1">  1        1 0.14509940E-01 0.90895423E+02</pdfrwt>
<pdfrwt beam="2">  1       -1 0.33692381E-02 0.90895423E+02</pdfrwt>
<totfact> 0.10432399E+05</totfact>
</mgrwt>
</event>
<event>
 5    1  0.6222456E+000  0.9139230E+02  0.7546771E-02  0.1299515E+00
         -1   -1    0    0    0  501 -0.00000000000E+00  0.00000000000E+00  0.14244158886E+03  0.14244158886E+03  0.00000000000E+00 0.  1.
          1   -1    0    0  501    0  0.00000000000E+00 -0.00000000000E+00 -0.14659608436E+02  0.14659608436E+02  0.00000000000E+00 0. -1.
         23    2    1    2    0    0  0.00000000000E+00  0.00000000000E+00  0.12778198042E+03  0.15710119730E+03  0.91392295468E+02 0.  0.
        -11    1    3    3    0    0  0.91879215098E+01 -0.44313637662E+02  0.53016303089E+02  0.69705414264E+02  0.00000000000E+00 0.  1.
         11    1    3    3    0    0 -0.91879215098E+01  0.44313637662E+02  0.74765677336E+02  0.87395783033E+02  0.00000000000E+00 0. -1.
<mgrwt>
<rscale>  0 0.91392295E+02</rscale>
<asrwt>0</asrwt>
<pdfrwt beam="2">  1        1 0.22553245E-02 0.91392295E+02</pdfrwt>
<pdfrwt beam="1">  1       -1 0.21914090E-01 0.91392295E+02</pdfrwt>
<totfact> 0.75222215E+04</totfact>
</mgrwt>
</event>
<event>
 5    1  0.6222456E+000  0.9274656E+02  0.7546771E-02  0.1296334E+00
         -1   -1    0    0    0  501 -0.00000000000E+00  0.00000000000E+00  0.12040548700E+02  0.12040548700E+02  0.00000000000E+00 0.  1.
          1   -1    0    0  501    0  0.00000000000E+00 -0.00000000000E+00 -0.17860323531E+03  0.17860323531E+03  0.00000000000E+00 0. -1.
         23    2    1    2    0    0  0.00000000000E+00  0.00000000000E+00 -0.16656268661E+03  0.19064378401E+03  0.92746556869E+02 0.  0.
        -11    1    3    3    0    0  0.29735043776E+02  0.31281911878E+02 -0.11814979037E+03  0.12578594438E+03  0.00000000000E+00 0. -1.
         11    1    3    3    0    0 -0.29735043776E+02 -0.31281911878E+02 -0.48412896237E+02  0.64857839628E+02  0.00000000000E+00 0.  1.
<mgrwt>
<rscale>  0 0.92746557E+02</rscale>
<asrwt>0</asrwt>
<pdfrwt beam="2">  1        1 0.27477419E-01 0.92746557E+02</pdfrwt>
<pdfrwt beam="1">  1       -1 0.18523922E-02 0.92746557E+02</pdfrwt>
<totfact> 0.11064979E+05</totfact>
</mgrwt>
</event>
<event>
 5    1  0.6222456E+000  0.9339614E+02  0.7546771E-02  0.1294830E+00
          3   -1    0    0  501    0  0.00000000000E+00  0.00000000000E+00  0.92058108031E+02  0.92058108031E+02  0.00000000000E+00 0. -1.
         -3   -1    0    0    0  501 -0.00000000000E+00 -0.00000000000E+00 -0.23688403762E+02  0.23688403762E+02  0.00000000000E+00 0.  1.
         23    2    1    2    0    0  0.00000000000E+00  0.00000000000E+00  0.68369704270E+02  0.11574651179E+03  0.93396137662E+02 0.  0.
        -11    1    3    3    0    0  0.36782468702E+02 -0.28612213866E+02  0.30446158424E+02  0.55664866379E+02  0.00000000000E+00 0.  1.
         11    1    3    3    0    0 -0.36782468702E+02  0.28612213866E+02  0.37923545845E+02  0.60081645414E+02  0.00000000000E+00 0. -1.
<mgrwt>
<rscale>  0 0.93396138E+02</rscale>
<asrwt>0</asrwt>
<pdfrwt beam="1">  1        3 0.14162786E-01 0.93396138E+02</pdfrwt>
<pdfrwt beam="2">  1       -3 0.36443698E-02 0.93396138E+02</pdfrwt>
<totfact> 0.31412334E+04</totfact>
</mgrwt>
</event>
<event>
 5    1  0.6222456E+000  0.8880459E+02  0.7546771E-02  0.1305773E+00
         -3   -1    0    0    0  501 -0.00000000000E+00  0.00000000000E+00  0.12211504920E+02  0.12211504920E+02  0.00000000000E+00 0.  1.
          3   -1    0    0  501    0  0.00000000000E+00 -0.00000000000E+00 -0.16145132300E+03  0.16145132300E+03  0.00000000000E+00 0. -1.
         23    2    1    2    0    0  0.00000000000E+00  0.00000000000E+00 -0.14923981808E+03  0.17366282792E+03  0.88804586034E+02 0.  0.
        -11    1    3    3    0    0  0.24359654149E+02  0.36774640683E+02 -0.84552289838E+02  0.95366957928E+02  0.00000000000E+00 0. -1.
         11    1    3    3    0    0 -0.24359654149E+02 -0.36774640683E+02 -0.64687528238E+02  0.78295869988E+02  0.00000000000E+00 0.  1.
<mgrwt>
<rscale>  0 0.88804586E+02</rscale>
<asrwt>0</asrwt>
<pdfrwt beam="2">  1        3 0.24838664E-01 0.88804586E+02</pdfrwt>
<pdfrwt beam="1">  1       -3 0.18786932E-02 0.88804586E+02</pdfrwt>
<totfact> 0.32121852E+04</totfact>
</mgrwt>
</event>
<event>
 5    1  0.6222456E+000  0.9276981E+02  0.7546771E-02  0.1296280E+00
          3   -1    0    0  501    0  0.00000000000E+00  0.00000000000E+00  0.39031326381E+02  0.39031326381E+02  0.00000000000E+00 0. -1.
         -3   -1    0    0    0  501 -0.00000000000E+00 -0.00000000000E+00 -0.55123914486E+02  0.55123914486E+02  0.00000000000E+00 0.  1.
         23    2    1    2    0    0  0.00000000000E+00  0.00000000000E+00 -0.16092588105E+02  0.94155240867E+02  0.92769811850E+02 0.  0.
        -11    1    3    3    0    0  0.72463086278E+01 -0.91651574667E+01 -0.53605986029E+02  0.54864477016E+02  0.00000000000E+00 0.  1.
         11    1    3    3    0    0 -0.72463086278E+01  0.91651574667E+01  0.37513397924E+02  0.39290763850E+02  0.00000000000E+00 0. -1.
<mgrwt>
<rscale>  0 0.92769812E+02</rscale>
<asrwt>0</asrwt>
<pdfrwt beam="1">  1        3 0.60048194E-02 0.92769812E+02</pdfrwt>
<pdfrwt beam="2">  1       -3 0.84806022E-02 0.92769812E+02</pdfrwt>
<totfact> 0.33489696E+04</totfact>
</mgrwt>
</event>
<event>
 5    1  0.6222456E+000  0.9046188E+02  0.7546771E-02  0.1301737E+00
          1   -1    0    0  501    0  0.00000000000E+00  0.00000000000E+00  0.69431628731E+02  0.69431628731E+02  0.00000000000E+00 0. -1.
         -1   -1    0    0    0  501 -0.00000000000E+00 -0.00000000000E+00 -0.29465502672E+02  0.29465502672E+02  0.00000000000E+00 0.  1.
         23    2    1    2    0    0  0.00000000000E+00  0.00000000000E+00  0.39966126059E+02  0.98897131403E+02  0.90461877979E+02 0.  0.
        -11    1    3    3    0    0  0.18242476196E+02 -0.26547597757E+02 -0.14731170893E+02  0.35419913613E+02  0.00000000000E+00 0.  1.
         11    1    3    3    0    0 -0.18242476196E+02  0.26547597757E+02  0.54697296952E+02  0.63477217790E+02  0.00000000000E+00 0. -1.
<mgrwt>
<rscale>  0 0.90461878E+02</rscale>
<asrwt>0</asrwt>
<pdfrwt beam="1">  1        1 0.10681789E-01 0.90461878E+02</pdfrwt>
<pdfrwt beam="2">  1       -1 0.45331543E-02 0.90461878E+02</pdfrwt>
<totfact> 0.10070392E+05</totfact>
</mgrwt>
</event>
<event>
 5    1  0.6222456E+000  0.8915129E+02  0.7546771E-02  0.1304920E+00
         -1   -1    0    0    0  501 -0.00000000000E+00  0.00000000000E+00  0.11410924512E+02  0.11410924512E+02  0.00000000000E+00 0.  1.
          1   -1    0    0  501    0  0.00000000000E+00 -0.00000000000E+00 -0.17413035082E+03  0.17413035082E+03  0.00000000000E+00 0. -1.
         23    2    1    2    0    0  0.00000000000E+00  0.00000000000E+00 -0.16271942631E+03  0.18554127534E+03  0.89151293621E+02 0.  0.
        -11    1    3    3    0    0  0.27108275958E+02 -0.73687807311E+01 -0.15338924864E+03  0.15594043463E+03  0.00000000000E+00 0. -1.
         11    1    3    3    0    0 -0.27108275958E+02  0.73687807311E+01 -0.93301776678E+01  0.29600840701E+02  0.00000000000E+00 0.  1.
<mgrwt>
<rscale>  0 0.89151294E+02</rscale>
<asrwt>0</asrwt>
<pdfrwt beam="2">  1        1 0.26789284E-01 0.89151294E+02</pdfrwt>
<pdfrwt beam="1">  1       -1 0.17555269E-02 0.89151294E+02</pdfrwt>
<totfact> 0.12246184E+05</totfact>
</mgrwt>
</event>
<event>
 5    1  0.6222456E+000  0.8826832E+02  0.7546771E-02  0.1307100E+00
          1   -1    0    0  501    0  0.00000000000E+00  0.00000000000E+00  0.90641793728E+02  0.90641793728E+02  0.00000000000E+00 0. -1.
         -1   -1    0    0    0  501 -0.00000000000E+00 -0.00000000000E+00 -0.21489247578E+02  0.21489247578E+02  0.00000000000E+00 0.  1.
         23    2    1    2    0    0  0.00000000000E+00  0.00000000000E+00  0.69152546150E+02  0.11213104131E+03  0.88268316996E+02 0.  0.
        -11    1    3    3    0    0  0.13973611751E+02  0.29605224901E+02  0.72176984299E+02  0.79254326250E+02  0.00000000000E+00 0. -1.
         11    1    3    3    0    0 -0.13973611751E+02 -0.29605224901E+02 -0.30244381486E+01  0.32876715056E+02  0.00000000000E+00 0.  1.
<mgrwt>
<rscale>  0 0.88268317E+02</rscale>
<asrwt>0</asrwt>
<pdfrwt beam="1">  1        1 0.13944891E-01 0.88268317E+02</pdfrwt>
<pdfrwt beam="2">  1       -1 0.33060381E-02 0.88268317E+02</pdfrwt>
<totfact> 0.11227508E+05</totfact>
</mgrwt>
</event>
<event>
 5    1  0.6222456E+000  0.9297671E+02  0.7546771E-02  0.1295799E+00
         -4   -1    0    0    0  501 -0.00000000000E+00  0.00000000000E+00  0.33045855698E+02  0.33045855698E+02  0.00000000000E+00 0.  1.
          4   -1    0    0  501    0  0.00000000000E+00 -0.00000000000E+00 -0.65399034873E+02  0.65399034873E+02  0.00000000000E+00 0. -1.
         23    2    1    2    0    0  0.00000000000E+00  0.00000000000E+00 -0.32353179174E+02  0.98444890571E+02  0.92976708249E+02 0.  0.
        -11    1    3    3    0    0  0.36634012319E+02 -0.14821010192E+02 -0.42100284246E+02  0.57742074220E+02  0.00000000000E+00 0. -1.
         11    1    3    3    0    0 -0.36634012319E+02  0.14821010192E+02  0.97471050713E+01  0.40702816351E+02  0.00000000000E+00 0.  1.
<mgrwt>
<rscale>  0 0.92976708E+02</rscale>
<asrwt>0</asrwt>
<pdfrwt beam="2">  1        4 0.10061390E-01 0.92976708E+02</pdfrwt>
<pdfrwt beam="1">  1       -4 0.50839778E-02 0.92976708E+02</pdfrwt>
<totfact> 0.25179886E+04</totfact>
</mgrwt>
</event>
<event>
 5    1  0.6222456E+000  0.8198451E+02  0.7546771E-02  0.1323512E+00
         -1   -1    0    0    0  501 -0.00000000000E+00  0.00000000000E+00  0.12954159809E+02  0.12954159809E+02  0.00000000000E+00 0.  1.
          1   -1    0    0  501    0  0.00000000000E+00 -0.00000000000E+00 -0.12971624863E+03  0.12971624863E+03  0.00000000000E+00 0. -1.
         23    2    1    2    0    0  0.00000000000E+00  0.00000000000E+00 -0.11676208882E+03  0.14267040844E+03  0.81984511088E+02 0.  0.
        -11    1    3    3    0    0  0.22511972510E+02  0.19536096701E+02 -0.10735237855E+03  0.11141355914E+03  0.00000000000E+00 0. -1.
         11    1    3    3    0    0 -0.22511972510E+02 -0.19536096701E+02 -0.94097102718E+01  0.31256849297E+02  0.00000000000E+00 0.  1.
<mgrwt>
<rscale>  0 0.81984511E+02</rscale>
<asrwt>0</asrwt>
<pdfrwt beam="2">  1        1 0.19956346E-01 0.81984511E+02</pdfrwt>
<pdfrwt beam="1">  1       -1 0.19929477E-02 0.81984511E+02</pdfrwt>
<totfact> 0.14533917E+05</totfact>
</mgrwt>
</event>
<event>
 5    1  0.6222456E+000  0.9129212E+02  0.7546771E-02  0.1299752E+00
         -1   -1    0    0    0  501 -0.00000000000E+00  0.00000000000E+00  0.28052494047E+02  0.28052494047E+02  0.00000000000E+00 0.  1.
          1   -1    0    0  501    0  0.00000000000E+00 -0.00000000000E+00 -0.74273713887E+02  0.74273713887E+02  0.00000000000E+00 0. -1.
         23    2    1    2    0    0  0.00000000000E+00  0.00000000000E+00 -0.46221219840E+02  0.10232620793E+03  0.91292122698E+02 0.  0.
        -11    1    3    3    0    0 -0.92484820771E+01 -0.12249489551E+02  0.25073299316E+02  0.29398210041E+02  0.00000000000E+00 0.  1.
         11    1    3    3    0    0  0.92484820771E+01  0.12249489551E+02 -0.71294519157E+02  0.72927997894E+02  0.00000000000E+00 0. -1.
<mgrwt>
<rscale>  0 0.91292123E+02</rscale>
<asrwt>0</asrwt>
<pdfrwt beam="2">  1        1 0.11426725E-01 0.91292123E+02</pdfrwt>
<pdfrwt beam="1">  1       -1 0.43157683E-02 0.91292123E+02</pdfrwt>
<totfact> 0.99231938E+04</totfact>
</mgrwt>
</event>
<event>
 5    1  0.6222456E+000  0.9088925E+02  0.7546771E-02  0.1300712E+00
         -1   -1    0    0    0  501 -0.00000000000E+00  0.00000000000E+00  0.81947379093E+01  0.81947379093E+01  0.00000000000E+00 0.  1.
          1   -1    0    0  501    0  0.00000000000E+00 -0.00000000000E+00 -0.25201706899E+03  0.25201706899E+03  0.00000000000E+00 0. -1.
         23    2    1    2    0    0  0.00000000000E+00  0.00000000000E+00 -0.24382233108E+03  0.26021180690E+03  0.90889247527E+02 0.  0.
        -11    1    3    3    0    0 -0.17864757398E+02 -0.33939206268E+02 -0.52123475648E+02  0.64713800635E+02  0.00000000000E+00 0.  1.
         11    1    3    3    0    0  0.17864757398E+02  0.33939206268E+02 -0.19169885543E+03  0.19549800626E+03  0.00000000000E+00 0. -1.
<mgrwt>
<rscale>  0 0.90889248E+02</rscale>
<asrwt>0</asrwt>
<pdfrwt beam="2">  1        1 0.38771862E-01 0.90889248E+02</pdfrwt>
<pdfrwt beam="1">  1       -1 0.12607287E-02 0.90889248E+02</pdfrwt>
<totfact> 0.12491312E+05</totfact>
</mgrwt>
</event>
<event>
 5    1  0.6222456E+000  0.9689572E+02  0.7546771E-02  0.1286963E+00
         -3   -1    0    0    0  501 -0.00000000000E+00  0.00000000000E+00  0.15944457194E+02  0.15944457194E+02  0.00000000000E+00 0.  1.
          3   -1    0    0  501    0  0.00000000000E+00 -0.00000000000E+00 -0.14721072169E+03  0.14721072169E+03  0.00000000000E+00 0. -1.
         23    2    1    2    0    0  0.00000000000E+00  0.00000000000E+00 -0.13126626450E+03  0.16315517888E+03  0.96895718182E+02 0.  0.
        -11    1    3    3    0    0 -0.46458494475E+02 -0.10829130759E+02 -0.51391810031E+02  0.70119754137E+02  0.00000000000E+00 0. -1.
         11    1    3    3    0    0  0.46458494475E+02  0.10829130759E+02 -0.79874454465E+02  0.93035424748E+02  0.00000000000E+00 0.  1.
<mgrwt>
<rscale>  0 0.96895718E+02</rscale>
<asrwt>0</asrwt>
<pdfrwt beam="2">  1        3 0.22647802E-01 0.96895718E+02</pdfrwt>
<pdfrwt beam="1">  1       -3 0.24529935E-02 0.96895718E+02</pdfrwt>
<totfact> 0.25869036E+04</totfact>
</mgrwt>
</event>
<event>
 5    1  0.6222456E+000  0.9438238E+02  0.7546771E-02  0.1292573E+00
         -2   -1    0    0    0  501 -0.00000000000E+00  0.00000000000E+00  0.47821313812E+02  0.47821313812E+02  0.00000000000E+00 0.  1.
          2   -1    0    0  501    0  0.00000000000E+00 -0.00000000000E+00 -0.46569368041E+02  0.46569368041E+02  0.00000000000E+00 0. -1.
         23    2    1    2    0    0  0.00000000000E+00  0.00000000000E+00  0.12519457710E+01  0.94390681852E+02  0.94382378929E+02 0.  0.
        -11    1    3    3    0    0 -0.37857861867E+01 -0.96607220955E+01  0.46666384847E+02  0.47805995473E+02  0.00000000000E+00 0.  1.
         11    1    3    3    0    0  0.37857861867E+01  0.96607220955E+01 -0.45414439076E+02  0.46584686379E+02  0.00000000000E+00 0. -1.
<mgrwt>
<rscale>  0 0.94382379E+02</rscale>
<asrwt>0</asrwt>
<pdfrwt beam="2">  1        2 0.71645181E-02 0.94382379E+02</pdfrwt>
<pdfrwt beam="1">  1       -2 0.73571252E-02 0.94382379E+02</pdfrwt>
<totfact> 0.89828619E+04</totfact>
</mgrwt>
</event>
<event>
 5    1  0.6222456E+000  0.9131084E+02  0.7546771E-02  0.1299708E+00
         -1   -1    0    0    0  501 -0.00000000000E+00  0.00000000000E+00  0.27002155914E+02  0.27002155914E+02  0.00000000000E+00 0.  1.
          1   -1    0    0  501    0  0.00000000000E+00 -0.00000000000E+00 -0.77194486819E+02  0.77194486819E+02  0.00000000000E+00 0. -1.
         23    2    1    2    0    0  0.00000000000E+00  0.00000000000E+00 -0.50192330905E+02  0.10419664273E+03  0.91310844236E+02 0.  0.
        -11    1    3    3    0    0 -0.27431167626E+00  0.44191402815E+02 -0.38179904704E+02  0.58400860035E+02  0.00000000000E+00 0.  1.
         11    1    3    3    0    0  0.27431167626E+00 -0.44191402815E+02 -0.12012426202E+02  0.45795782698E+02  0.00000000000E+00 0. -1.
<mgrwt>
<rscale>  0 0.91310844E+02</rscale>
<asrwt>0</asrwt>
<pdfrwt beam="2">  1        1 0.11876075E-01 0.91310844E+02</pdfrwt>
<pdfrwt beam="1">  1       -1 0.41541779E-02 0.91310844E+02</pdfrwt>
<totfact> 0.99776149E+04</totfact>
</mgrwt>
</event>
<event>
 5    1  0.6222456E+000  0.9526859E+02  0.7546771E-02  0.1290572E+00
         -2   -1    0    0    0  501 -0.00000000000E+00  0.00000000000E+00  0.22842733793E+03  0.22842733793E+03  0.00000000000E+00 0. -1.
          2   -1    0    0  501    0  0.00000000000E+00 -0.00000000000E+00 -0.99332501113E+01  0.99332501113E+01  0.00000000000E+00 0.  1.
         23    2    1    2    0    0  0.00000000000E+00  0.00000000000E+00  0.21849408781E+03  0.23836058804E+03  0.95268586215E+02 0.  0.
        -11    1    3    3    0    0 -0.30538802048E+01  0.40661644392E+02  0.47638720662E+02  0.62706803581E+02  0.00000000000E+00 0.  1.
         11    1    3    3    0    0  0.30538802048E+01 -0.40661644392E+02  0.17085536715E+03  0.17565378446E+03  0.00000000000E+00 0. -1.
<mgrwt>
<rscale>  0 0.95268586E+02</rscale>
<asrwt>0</asrwt>
<pdfrwt beam="2">  1        2 0.15281925E-02 0.95268586E+02</pdfrwt>
<pdfrwt beam="1">  1       -2 0.35142664E-01 0.95268586E+02</pdfrwt>
<totfact> 0.52437976E+04</totfact>
</mgrwt>
</event>
<event>
 5    1  0.6222456E+000  0.9153037E+02  0.7546771E-02  0.1299187E+00
          1   -1    0    0  501    0  0.00000000000E+00  0.00000000000E+00  0.20276509268E+02  0.20276509268E+02  0.00000000000E+00 0. -1.
         -1   -1    0    0    0  501 -0.00000000000E+00 -0.00000000000E+00 -0.10329450722E+03  0.10329450722E+03  0.00000000000E+00 0.  1.
         23    2    1    2    0    0  0.00000000000E+00  0.00000000000E+00 -0.83017997953E+02  0.12357101649E+03  0.91530367265E+02 0.  0.
        -11    1    3    3    0    0 -0.22016526252E+02  0.36120225602E+02 -0.65088776878E+02  0.77626973413E+02  0.00000000000E+00 0.  1.
         11    1    3    3    0    0  0.22016526252E+02 -0.36120225602E+02 -0.17929221074E+02  0.45944043075E+02  0.00000000000E+00 0. -1.
<mgrwt>
<rscale>  0 0.91530367E+02</rscale>
<asrwt>0</asrwt>
<pdfrwt beam="1">  1        1 0.31194630E-02 0.91530367E+02</pdfrwt>
<pdfrwt beam="2">  1       -1 0.15891463E-01 0.91530367E+02</pdfrwt>
<totfact> 0.80074261E+04</totfact>
</mgrwt>
</event>
<event>
 5    1  0.6222456E+000  0.9099688E+02  0.7546771E-02  0.1300455E+00
         -2   -1    0    0    0  501 -0.00000000000E+00  0.00000000000E+00  0.15983793449E+02  0.15983793449E+02  0.00000000000E+00 0.  1.
          2   -1    0    0  501    0  0.00000000000E+00 -0.00000000000E+00 -0.12951292564E+03  0.12951292564E+03  0.00000000000E+00 0. -1.
         23    2    1    2    0    0  0.00000000000E+00  0.00000000000E+00 -0.11352913219E+03  0.14549671908E+03  0.90996875822E+02 0.  0.
        -11    1    3    3    0    0  0.26939902106E+02  0.36420780426E+02 -0.50004276618E+02  0.67473396627E+02  0.00000000000E+00 0.  1.
         11    1    3    3    0    0 -0.26939902106E+02 -0.36420780426E+02 -0.63524855568E+02  0.78023322457E+02  0.00000000000E+00 0. -1.
<mgrwt>
<rscale>  0 0.90996876E+02</rscale>
<asrwt>0</asrwt>
<pdfrwt beam="2">  1        2 0.19925065E-01 0.90996876E+02</pdfrwt>
<pdfrwt beam="1">  1       -2 0.24590452E-02 0.90996876E+02</pdfrwt>
<totfact> 0.13383607E+05</totfact>
</mgrwt>
</event>
<event>
 5    1  0.6222456E+000  0.9140529E+02  0.7546771E-02  0.1299484E+00
          2   -1    0    0  501    0  0.00000000000E+00  0.00000000000E+00  0.41364335257E+02  0.41364335257E+02  0.00000000000E+00 0. -1.
         -2   -1    0    0    0  501 -0.00000000000E+00 -0.00000000000E+00 -0.50495961392E+02  0.50495961392E+02  0.00000000000E+00 0.  1.
         23    2    1    2    0    0  0.00000000000E+00  0.00000000000E+00 -0.91316261349E+01  0.91860296649E+02  0.91405292541E+02 0.  0.
        -11    1    3    3    0    0  0.23252657874E+02  0.11505795568E+02  0.33246770900E+02  0.42171284130E+02  0.00000000000E+00 0. -1.
         11    1    3    3    0    0 -0.23252657874E+02 -0.11505795568E+02 -0.42378397035E+02  0.49689012519E+02  0.00000000000E+00 0.  1.
<mgrwt>
<rscale>  0 0.91405293E+02</rscale>
<asrwt>0</asrwt>
<pdfrwt beam="1">  1        2 0.63637439E-02 0.91405293E+02</pdfrwt>
<pdfrwt beam="2">  1       -2 0.77686094E-02 0.91405293E+02</pdfrwt>
<totfact> 0.95525900E+04</totfact>
</mgrwt>
</event>
<event>
 5    1  0.6222456E+000  0.9266266E+02  0.7546771E-02  0.1296529E+00
          2   -1    0    0  501    0  0.00000000000E+00  0.00000000000E+00  0.31063264026E+02  0.31063264026E+02  0.00000000000E+00 0. -1.
         -2   -1    0    0    0  501 -0.00000000000E+00 -0.00000000000E+00 -0.69103884977E+02  0.69103884977E+02  0.00000000000E+00 0.  1.
         23    2    1    2    0    0  0.00000000000E+00  0.00000000000E+00 -0.38040620951E+02  0.10016714900E+03  0.92662661828E+02 0.  0.
        -11    1    3    3    0    0  0.39312306688E+02  0.24331748008E+02 -0.22281383095E+02  0.51322036698E+02  0.00000000000E+00 0. -1.
         11    1    3    3    0    0 -0.39312306688E+02 -0.24331748008E+02 -0.15759237856E+02  0.48845112305E+02  0.00000000000E+00 0.  1.
<mgrwt>
<rscale>  0 0.92662662E+02</rscale>
<asrwt>0</asrwt>
<pdfrwt beam="1">  1        2 0.47789638E-02 0.92662662E+02</pdfrwt>
<pdfrwt beam="2">  1       -2 0.10631367E-01 0.92662662E+02</pdfrwt>
<totfact> 0.85108638E+04</totfact>
</mgrwt>
</event>
<event>
 5    1  0.6222456E+000  0.9384984E+02  0.7546771E-02  0.1293788E+00
          2   -1    0    0  501    0  0.00000000000E+00  0.00000000000E+00  0.24823166862E+02  0.24823166862E+02  0.00000000000E+00 0. -1.
         -2   -1    0    0    0  501 -0.00000000000E+00 -0.00000000000E+00 -0.88705360723E+02  0.88705360723E+02  0.00000000000E+00 0.  1.
         23    2    1    2    0    0  0.00000000000E+00  0.00000000000E+00 -0.63882193861E+02  0.11352852758E+03  0.93849836883E+02 0.  0.
        -11    1    3    3    0    0 -0.16203316565E+02  0.50059428854E+01 -0.84868567336E+02  0.86546407514E+02  0.00000000000E+00 0.  1.
         11    1    3    3    0    0  0.16203316565E+02 -0.50059428854E+01  0.20986373475E+02  0.26982120071E+02  0.00000000000E+00 0. -1.
<mgrwt>
<rscale>  0 0.93849837E+02</rscale>
<asrwt>0</asrwt>
<pdfrwt beam="1">  1        2 0.38189487E-02 0.93849837E+02</pdfrwt>
<pdfrwt beam="2">  1       -2 0.13646979E-01 0.93849837E+02</pdfrwt>
<totfact> 0.76946233E+04</totfact>
</mgrwt>
</event>
<event>
 5    1  0.6222456E+000  0.9215027E+02  0.7546771E-02  0.1297726E+00
         -3   -1    0    0    0  501 -0.00000000000E+00  0.00000000000E+00  0.16246247026E+03  0.16246247026E+03  0.00000000000E+00 0.  1.
          3   -1    0    0  501    0  0.00000000000E+00 -0.00000000000E+00 -0.13067130176E+02  0.13067130176E+02  0.00000000000E+00 0. -1.
         23    2    1    2    0    0  0.00000000000E+00  0.00000000000E+00  0.14939534009E+03  0.17552960044E+03  0.92150273959E+02 0.  0.
        -11    1    3    3    0    0 -0.28205497480E+02  0.31958629300E+02  0.10801916703E+03  0.11612512441E+03  0.00000000000E+00 0.  1.
         11    1    3    3    0    0  0.28205497480E+02 -0.31958629300E+02  0.41376173062E+02  0.59404476028E+02  0.00000000000E+00 0. -1.
<mgrwt>
<rscale>  0 0.92150274E+02</rscale>
<asrwt>0</asrwt>
<pdfrwt beam="2">  1        3 0.20103278E-02 0.92150274E+02</pdfrwt>
<pdfrwt beam="1">  1       -3 0.24994225E-01 0.92150274E+02</pdfrwt>
<totfact> 0.28969118E+04</totfact>
</mgrwt>
</event>
<event>
 5    1  0.6222456E+000  0.8833742E+02  0.7546771E-02  0.1306929E+00
          1   -1    0    0  501    0  0.00000000000E+00  0.00000000000E+00  0.22578215080E+03  0.22578215080E+03  0.00000000000E+00 0. -1.
         -1   -1    0    0    0  501 -0.00000000000E+00 -0.00000000000E+00 -0.86405195484E+01  0.86405195484E+01  0.00000000000E+00 0.  1.
         23    2    1    2    0    0  0.00000000000E+00  0.00000000000E+00  0.21714163125E+03  0.23442267035E+03  0.88337423274E+02 0.  0.
        -11    1    3    3    0    0  0.26959253079E+02  0.30086865572E+02  0.61184711118E+02  0.73318412974E+02  0.00000000000E+00 0.  1.
         11    1    3    3    0    0 -0.26959253079E+02 -0.30086865572E+02  0.15595692013E+03  0.16110425737E+03  0.00000000000E+00 0. -1.
<mgrwt>
<rscale>  0 0.88337423E+02</rscale>
<asrwt>0</asrwt>
<pdfrwt beam="1">  1        1 0.34735711E-01 0.88337423E+02</pdfrwt>
<pdfrwt beam="2">  1       -1 0.13293109E-02 0.88337423E+02</pdfrwt>
<totfact> 0.13192074E+05</totfact>
</mgrwt>
</event>
<event>
 5    1  0.6222456E+000  0.8992521E+02  0.7546771E-02  0.1303033E+00
          1   -1    0    0  501    0  0.00000000000E+00  0.00000000000E+00  0.68072780468E+02  0.68072780468E+02  0.00000000000E+00 0. -1.
         -1   -1    0    0    0  501 -0.00000000000E+00 -0.00000000000E+00 -0.29698153495E+02  0.29698153495E+02  0.00000000000E+00 0.  1.
         23    2    1    2    0    0  0.00000000000E+00  0.00000000000E+00  0.38374626973E+02  0.97770933963E+02  0.89925210774E+02 0.  0.
        -11    1    3    3    0    0 -0.26666815898E+02  0.16834647691E+02 -0.15657414997E+02  0.35209076634E+02  0.00000000000E+00 0.  1.
         11    1    3    3    0    0  0.26666815898E+02 -0.16834647691E+02  0.54032041970E+02  0.62561857329E+02  0.00000000000E+00 0. -1.
<mgrwt>
<rscale>  0 0.89925211E+02</rscale>
<asrwt>0</asrwt>
<pdfrwt beam="1">  1        1 0.10472735E-01 0.89925211E+02</pdfrwt>
<pdfrwt beam="2">  1       -1 0.45689467E-02 0.89925211E+02</pdfrwt>
<totfact> 0.10205812E+05</totfact>
</mgrwt>
</event>
<event>
 5    1  0.6222456E+000  0.9128705E+02  0.7546771E-02  0.1299765E+00
         -1   -1    0    0    0  501 -0.00000000000E+00  0.00000000000E+00  0.19994954292E+03  0.19994954292E+03  0.00000000000E+00 0.  1.
          1   -1    0    0  501    0  0.00000000000E+00 -0.00000000000E+00 -0.10419285730E+02  0.10419285730E+02  0.00000000000E+00 0. -1.
         23    2    1    2    0    0  0.00000000000E+00  0.00000000000E+00  0.18953025719E+03  0.21036882865E+03  0.91287050982E+02 0.  0.
        -11    1    3    3    0    0 -0.96848376351E+01 -0.44380822892E+02  0.10503955173E+03  0.11444108068E+03  0.00000000000E+00 0. -1.
         11    1    3    3    0    0  0.96848376351E+01  0.44380822892E+02  0.84490705465E+02  0.95927747970E+02  0.00000000000E+00 0.  1.
<mgrwt>
<rscale>  0 0.91287051E+02</rscale>
<asrwt>0</asrwt>
<pdfrwt beam="2">  1        1 0.16029672E-02 0.91287051E+02</pdfrwt>
<pdfrwt beam="1">  1       -1 0.30761465E-01 0.91287051E+02</pdfrwt>
<totfact> 0.69211217E+04</totfact>
</mgrwt>
</event>
<event>
 5    1  0.6222456E+000  0.9116976E+02  0.7546771E-02  0.1300043E+00
         -1   -1    0    0    0  501 -0.00000000000E+00  0.00000000000E+00  0.11375958994E+03  0.11375958994E+03  0.00000000000E+00 0.  1.
          1   -1    0    0  501    0  0.00000000000E+00 -0.00000000000E+00 -0.18266428902E+02  0.18266428902E+02  0.00000000000E+00 0. -1.
         23    2    1    2    0    0  0.00000000000E+00  0.00000000000E+00  0.95493161037E+02  0.13202601884E+03  0.91169763881E+02 0.  0.
        -11    1    3    3    0    0  0.94480026290E+01 -0.16598972060E+02  0.10768586699E+03  0.10936652402E+03  0.00000000000E+00 0.  1.
         11    1    3    3    0    0 -0.94480026290E+01  0.16598972060E+02 -0.12192705951E+02  0.22659494821E+02  0.00000000000E+00 0. -1.
<mgrwt>
<rscale>  0 0.91169764E+02</rscale>
<asrwt>0</asrwt>
<pdfrwt beam="2">  1        1 0.28102199E-02 0.91169764E+02</pdfrwt>
<pdfrwt beam="1">  1       -1 0.17501475E-01 0.91169764E+02</pdfrwt>
<totfact> 0.79396360E+04</totfact>
</mgrwt>
</event>
<event>
 5    1  0.6222456E+000  0.9303499E+02  0.7546771E-02  0.1295664E+00
         -2   -1    0    0    0  501 -0.00000000000E+00  0.00000000000E+00  0.11542368900E+02  0.11542368900E+02  0.00000000000E+00 0.  1.
          2   -1    0    0  501    0  0.00000000000E+00 -0.00000000000E+00 -0.18747254475E+03  0.18747254475E+03  0.00000000000E+00 0. -1.
         23    2    1    2    0    0  0.00000000000E+00  0.00000000000E+00 -0.17593017585E+03  0.19901491365E+03  0.93034988476E+02 0.  0.
        -11    1    3    3    0    0 -0.20175677892E+02  0.26457456163E+02 -0.15750598676E+03  0.16098195809E+03  0.00000000000E+00 0. -1.
         11    1    3    3    0    0  0.20175677892E+02 -0.26457456163E+02 -0.18424189088E+02  0.38032955559E+02  0.00000000000E+00 0.  1.
<mgrwt>
<rscale>  0 0.93034988E+02</rscale>
<asrwt>0</asrwt>
<pdfrwt beam="2">  1        2 0.28841929E-01 0.93034988E+02</pdfrwt>
<pdfrwt beam="1">  1       -2 0.17757491E-02 0.93034988E+02</pdfrwt>
<totfact> 0.14310375E+05</totfact>
</mgrwt>
</event>
<event>
 5    1  0.6222456E+000  0.9022469E+02  0.7546771E-02  0.1302308E+00
         -2   -1    0    0    0  501 -0.00000000000E+00  0.00000000000E+00  0.13900411886E+02  0.13900411886E+02  0.00000000000E+00 0.  1.
          2   -1    0    0  501    0  0.00000000000E+00 -0.00000000000E+00 -0.14640742379E+03  0.14640742379E+03  0.00000000000E+00 0. -1.
         23    2    1    2    0    0  0.00000000000E+00  0.00000000000E+00 -0.13250701191E+03  0.16030783568E+03  0.90224686065E+02 0.  0.
        -11    1    3    3    0    0  0.17402625868E+02 -0.18390575298E+02 -0.13259265930E+03  0.13498843635E+03  0.00000000000E+00 0. -1.
         11    1    3    3    0    0 -0.17402625868E+02  0.18390575298E+02  0.85647396664E-01  0.25319399329E+02  0.00000000000E+00 0.  1.
<mgrwt>
<rscale>  0 0.90224686E+02</rscale>
<asrwt>0</asrwt>
<pdfrwt beam="2">  1        2 0.22524218E-01 0.90224686E+02</pdfrwt>
<pdfrwt beam="1">  1       -2 0.21385250E-02 0.90224686E+02</pdfrwt>
<totfact> 0.14267041E+05</totfact>
</mgrwt>
</event>
<event>
 5    1  0.6222456E+000  0.9097687E+02  0.7546771E-02  0.1300503E+00
         -2   -1    0    0    0  501 -0.00000000000E+00  0.00000000000E+00  0.12620692553E+02  0.12620692553E+02  0.00000000000E+00 0.  1.
          2   -1    0    0  501    0  0.00000000000E+00 -0.00000000000E+00 -0.16395279935E+03  0.16395279935E+03  0.00000000000E+00 0. -1.
         23    2    1    2    0    0  0.00000000000E+00  0.00000000000E+00 -0.15133210679E+03  0.17657349190E+03  0.90976873407E+02 0.  0.
        -11    1    3    3    0    0  0.68972720633E+01  0.29676035882E+02 -0.10107493580E+02  0.32099858163E+02  0.00000000000E+00 0.  1.
         11    1    3    3    0    0 -0.68972720633E+01 -0.29676035882E+02 -0.14122461321E+03  0.14447363374E+03  0.00000000000E+00 0. -1.
<mgrwt>
<rscale>  0 0.90976873E+02</rscale>
<asrwt>0</asrwt>
<pdfrwt beam="2">  1        2 0.25223506E-01 0.90976873E+02</pdfrwt>
<pdfrwt beam="1">  1       -2 0.19416451E-02 0.90976873E+02</pdfrwt>
<totfact> 0.14500790E+05</totfact>
</mgrwt>
</event>
<event>
 5    1  0.6222456E+000  0.9166166E+02  0.7546771E-02  0.1298877E+00
          2   -1    0    0  501    0  0.00000000000E+00  0.00000000000E+00  0.14208047320E+03  0.14208047320E+03  0.00000000000E+00 0. -1.
         -2   -1    0    0    0  501 -0.00000000000E+00 -0.00000000000E+00 -0.14783627277E+02  0.14783627277E+02  0.00000000000E+00 0.  1.
         23    2    1    2    0    0  0.00000000000E+00  0.00000000000E+00  0.12729684592E+03  0.15686410047E+03  0.91661655212E+02 0.  0.
        -11    1    3    3    0    0  0.24986248787E+02 -0.36340477663E+02  0.84990246481E+02  0.95751161571E+02  0.00000000000E+00 0.  1.
         11    1    3    3    0    0 -0.24986248787E+02  0.36340477663E+02  0.42306599439E+02  0.61112938903E+02  0.00000000000E+00 0. -1.
<mgrwt>
<rscale>  0 0.91661655E+02</rscale>
<asrwt>0</asrwt>
<pdfrwt beam="1">  1        2 0.21858533E-01 0.91661655E+02</pdfrwt>
<pdfrwt beam="2">  1       -2 0.22744043E-02 0.91661655E+02</pdfrwt>
<totfact> 0.13530290E+05</totfact>
</mgrwt>
</event>
<event>
 5    1  0.6222456E+000  0.1030111E+03  0.7546771E-02  0.1274089E+00
          1   -1    0    0  501    0  0.00000000000E+00  0.00000000000E+00  0.90137653204E+02  0.90137653204E+02  0.00000000000E+00 0. -1.
         -1   -1    0    0    0  501 -0.00000000000E+00 -0.00000000000E+00 -0.29430770086E+02  0.29430770086E+02  0.00000000000E+00 0.  1.
         23    2    1    2    0    0  0.00000000000E+00  0.00000000000E+00  0.60706883118E+02  0.11956842329E+03  0.10301107800E+03 0.  0.
        -11    1    3    3    0    0 -0.11472940627E+02  0.13492018361E+02 -0.25785253591E+02  0.31281659624E+02  0.00000000000E+00 0.  1.
         11    1    3    3    0    0  0.11472940627E+02 -0.13492018361E+02  0.86492136709E+02  0.88286763665E+02  0.00000000000E+00 0. -1.
<mgrwt>
<rscale>  0 0.10301108E+03</rscale>
<asrwt>0</asrwt>
<pdfrwt beam="1">  1        1 0.13867331E-01 0.10301108E+03</pdfrwt>
<pdfrwt beam="2">  1       -1 0.45278108E-02 0.10301108E+03</pdfrwt>
<totfact> 0.73332440E+04</totfact>
</mgrwt>
</event>
<event>
 5    1  0.6222456E+000  0.9416137E+02  0.7546771E-02  0.1293076E+00
         -2   -1    0    0    0  501 -0.00000000000E+00  0.00000000000E+00  0.32996093831E+03  0.32996093831E+03  0.00000000000E+00 0.  1.
          2   -1    0    0  501    0  0.00000000000E+00 -0.00000000000E+00 -0.67177369625E+01  0.67177369625E+01  0.00000000000E+00 0. -1.
         23    2    1    2    0    0  0.00000000000E+00  0.00000000000E+00  0.32324320135E+03  0.33667867528E+03  0.94161367694E+02 0.  0.
        -11    1    3    3    0    0  0.42017617411E+02 -0.16129543407E+02  0.11221318613E+03  0.12090261157E+03  0.00000000000E+00 0.  1.
         11    1    3    3    0    0 -0.42017617411E+02  0.16129543407E+02  0.21103001523E+03  0.21577606371E+03  0.00000000000E+00 0. -1.
<mgrwt>
<rscale>  0 0.94161368E+02</rscale>
<asrwt>0</asrwt>
<pdfrwt beam="2">  1        2 0.10334982E-02 0.94161368E+02</pdfrwt>
<pdfrwt beam="1">  1       -2 0.50763209E-01 0.94161368E+02</pdfrwt>
<totfact> 0.44408945E+04</totfact>
</mgrwt>
</event>
<event>
 5    1  0.6222456E+000  0.9210324E+02  0.7546771E-02  0.1297837E+00
         -1   -1    0    0    0  501 -0.00000000000E+00  0.00000000000E+00  0.71054474791E+02  0.71054474791E+02  0.00000000000E+00 0.  1.
          1   -1    0    0  501    0  0.00000000000E+00 -0.00000000000E+00 -0.29846845254E+02  0.29846845254E+02  0.00000000000E+00 0. -1.
         23    2    1    2    0    0  0.00000000000E+00  0.00000000000E+00  0.41207629537E+02  0.10090132004E+03  0.92103244539E+02 0.  0.
        -11    1    3    3    0    0 -0.23128993881E+02  0.16955047379E+02 -0.18870456151E+02  0.34329551482E+02  0.00000000000E+00 0. -1.
         11    1    3    3    0    0  0.23128993881E+02 -0.16955047379E+02  0.60078085688E+02  0.66571768563E+02  0.00000000000E+00 0.  1.
<mgrwt>
<rscale>  0 0.92103245E+02</rscale>
<asrwt>0</asrwt>
<pdfrwt beam="2">  1        1 0.45918224E-02 0.92103245E+02</pdfrwt>
<pdfrwt beam="1">  1       -1 0.10931458E-01 0.92103245E+02</pdfrwt>
<totfact> 0.84129786E+04</totfact>
</mgrwt>
</event>
<event>
 5    1  0.6222456E+000  0.9346973E+02  0.7546771E-02  0.1294660E+00
         -4   -1    0    0    0  501 -0.00000000000E+00  0.00000000000E+00  0.11131029527E+03  0.11131029527E+03  0.00000000000E+00 0. -1.
          4   -1    0    0  501    0  0.00000000000E+00 -0.00000000000E+00 -0.19622152708E+02  0.19622152708E+02  0.00000000000E+00 0.  1.
         23    2    1    2    0    0  0.00000000000E+00  0.00000000000E+00  0.91688142560E+02  0.13093244798E+03  0.93469730111E+02 0.  0.
        -11    1    3    3    0    0 -0.38846687717E+02  0.96574112391E+01  0.12055529043E+02  0.41805101590E+02  0.00000000000E+00 0.  1.
         11    1    3    3    0    0  0.38846687717E+02 -0.96574112391E+01  0.79632613517E+02  0.89127346387E+02  0.00000000000E+00 0. -1.
<mgrwt>
<rscale>  0 0.93469730E+02</rscale>
<asrwt>0</asrwt>
<pdfrwt beam="2">  1        4 0.30187928E-02 0.93469730E+02</pdfrwt>
<pdfrwt beam="1">  1       -4 0.17124660E-01 0.93469730E+02</pdfrwt>
<totfact> 0.23063293E+04</totfact>
</mgrwt>
</event>
<event>
 5    1  0.6222456E+000  0.9129438E+02  0.7546771E-02  0.1299747E+00
          1   -1    0    0  501    0  0.00000000000E+00  0.00000000000E+00  0.28798273788E+03  0.28798273788E+03  0.00000000000E+00 0. -1.
         -1   -1    0    0    0  501 -0.00000000000E+00 -0.00000000000E+00 -0.72353843617E+01  0.72353843617E+01  0.00000000000E+00 0.  1.
         23    2    1    2    0    0  0.00000000000E+00  0.00000000000E+00  0.28074735351E+03  0.29521812224E+03  0.91294376564E+02 0.  0.
        -11    1    3    3    0    0  0.16551558500E+02 -0.42205459198E+02  0.15760988210E+03  0.16400039576E+03  0.00000000000E+00 0.  1.
         11    1    3    3    0    0 -0.16551558500E+02  0.42205459198E+02  0.12313747142E+03  0.13121772648E+03  0.00000000000E+00 0. -1.
<mgrwt>
<rscale>  0 0.91294377E+02</rscale>
<asrwt>0</asrwt>
<pdfrwt beam="1">  1        1 0.44305028E-01 0.91294377E+02</pdfrwt>
<pdfrwt beam="2">  1       -1 0.11131363E-02 0.91294377E+02</pdfrwt>
<totfact> 0.12668562E+05</totfact>
</mgrwt>
</event>
<event>
 5    1  0.6222456E+000  0.9066437E+02  0.7546771E-02  0.1301251E+00
          1   -1    0    0  501    0  0.00000000000E+00  0.00000000000E+00  0.12633574882E+03  0.12633574882E+03  0.00000000000E+00 0. -1.
         -1   -1    0    0    0  501 -0.00000000000E+00 -0.00000000000E+00 -0.16266234836E+02  0.16266234836E+02  0.00000000000E+00 0.  1.
         23    2    1    2    0    0  0.00000000000E+00  0.00000000000E+00  0.11006951398E+03  0.14260198365E+03  0.90664369150E+02 0.  0.
        -11    1    3    3    0    0 -0.40932128649E+02  0.14454424667E+02  0.75580698539E+02  0.87159689879E+02  0.00000000000E+00 0.  1.
         11    1    3    3    0    0  0.40932128649E+02 -0.14454424667E+02  0.34488815440E+02  0.55442293772E+02  0.00000000000E+00 0. -1.
<mgrwt>
<rscale>  0 0.90664369E+02</rscale>
<asrwt>0</asrwt>
<pdfrwt beam="1">  1        1 0.19436268E-01 0.90664369E+02</pdfrwt>
<pdfrwt beam="2">  1       -1 0.25024978E-02 0.90664369E+02</pdfrwt>
<totfact> 0.11038610E+05</totfact>
</mgrwt>
</event>
<event>
 5    1  0.6222456E+000  0.1005474E+03  0.7546771E-02  0.1279149E+00
          1   -1    0    0  501    0  0.00000000000E+00  0.00000000000E+00  0.38785203804E+03  0.38785203804E+03  0.00000000000E+00 0. -1.
         -1   -1    0    0    0  501 -0.00000000000E+00 -0.00000000000E+00 -0.65165120277E+01  0.65165120277E+01  0.00000000000E+00 0.  1.
         23    2    1    2    0    0  0.00000000000E+00  0.00000000000E+00  0.38133552601E+03  0.39436855007E+03  0.10054735145E+03 0.  0.
        -11    1    3    3    0    0  0.26240917637E+02  0.39230816913E+02  0.12275564932E+03  0.13151650920E+03  0.00000000000E+00 0. -1.
         11    1    3    3    0    0 -0.26240917637E+02 -0.39230816913E+02  0.25857987670E+03  0.26285204087E+03  0.00000000000E+00 0.  1.
<mgrwt>
<rscale>  0 0.10054735E+03</rscale>
<asrwt>0</asrwt>
<pdfrwt beam="1">  1        1 0.59669526E-01 0.10054735E+03</pdfrwt>
<pdfrwt beam="2">  1       -1 0.10025406E-02 0.10054735E+03</pdfrwt>
<totfact> 0.10335163E+05</totfact>
</mgrwt>
</event>
<event>
 5    1  0.6222456E+000  0.9067520E+02  0.7546771E-02  0.1301225E+00
          1   -1    0    0  501    0  0.00000000000E+00  0.00000000000E+00  0.21079790579E+03  0.21079790579E+03  0.00000000000E+00 0. -1.
         -1   -1    0    0    0  501 -0.00000000000E+00 -0.00000000000E+00 -0.97510370166E+01  0.97510370166E+01  0.00000000000E+00 0.  1.
         23    2    1    2    0    0  0.00000000000E+00  0.00000000000E+00  0.20104686877E+03  0.22054894281E+03  0.90675204602E+02 0.  0.
        -11    1    3    3    0    0 -0.38623325829E+02  0.40396596052E+01  0.43615085330E+02  0.58398251825E+02  0.00000000000E+00 0.  1.
         11    1    3    3    0    0  0.38623325829E+02 -0.40396596052E+01  0.15743178344E+03  0.16215069098E+03  0.00000000000E+00 0. -1.
<mgrwt>
<rscale>  0 0.90675205E+02</rscale>
<asrwt>0</asrwt>
<pdfrwt beam="1">  1        1 0.32430444E-01 0.90675205E+02</pdfrwt>
<pdfrwt beam="2">  1       -1 0.15001597E-02 0.90675205E+02</pdfrwt>
<totfact> 0.12140270E+05</totfact>
</mgrwt>
</event>
<event>
 5    1  0.6222456E+000  0.9157513E+02  0.7546771E-02  0.1299082E+00
          1   -1    0    0  501    0  0.00000000000E+00  0.00000000000E+00  0.21582133890E+03  0.21582133890E+03  0.00000000000E+00 0. -1.
         -1   -1    0    0    0  501 -0.00000000000E+00 -0.00000000000E+00 -0.97140576432E+01  0.97140576432E+01  0.00000000000E+00 0.  1.
         23    2    1    2    0    0  0.00000000000E+00  0.00000000000E+00  0.20610728126E+03  0.22553539654E+03  0.91575126027E+02 0.  0.
        -11    1    3    3    0    0  0.14655810197E+02 -0.41250343004E+02  0.70000329732E+02  0.82561672300E+02  0.00000000000E+00 0. -1.
         11    1    3    3    0    0 -0.14655810197E+02  0.41250343004E+02  0.13610695152E+03  0.14297372424E+03  0.00000000000E+00 0.  1.
<mgrwt>
<rscale>  0 0.91575126E+02</rscale>
<asrwt>0</asrwt>
<pdfrwt beam="1">  1        1 0.33203279E-01 0.91575126E+02</pdfrwt>
<pdfrwt beam="2">  1       -1 0.14944706E-02 0.91575126E+02</pdfrwt>
<totfact> 0.11877671E+05</totfact>
</mgrwt>
</event>
<event>
 5    1  0.6222456E+000  0.9462779E+02  0.7546771E-02  0.1292017E+00
         -2   -1    0    0    0  501 -0.00000000000E+00  0.00000000000E+00  0.21349652697E+02  0.21349652697E+02  0.00000000000E+00 0.  1.
          2   -1    0    0  501    0  0.00000000000E+00 -0.00000000000E+00 -0.10485437382E+03  0.10485437382E+03  0.00000000000E+00 0. -1.
         23    2    1    2    0    0  0.00000000000E+00  0.00000000000E+00 -0.83504721127E+02  0.12620402652E+03  0.94627785875E+02 0.  0.
        -11    1    3    3    0    0  0.27160720837E+02  0.19473818682E+02  0.29146722080E+01  0.33547424410E+02  0.00000000000E+00 0.  1.
         11    1    3    3    0    0 -0.27160720837E+02 -0.19473818682E+02 -0.86419393334E+02  0.92656602111E+02  0.00000000000E+00 0. -1.
<mgrwt>
<rscale>  0 0.94627786E+02</rscale>
<asrwt>0</asrwt>
<pdfrwt beam="2">  1        2 0.16131442E-01 0.94627786E+02</pdfrwt>
<pdfrwt beam="1">  1       -2 0.32845619E-02 0.94627786E+02</pdfrwt>
<totfact> 0.11235144E+05</totfact>
</mgrwt>
</event>
<event>
 5    1  0.6222456E+000  0.7672581E+02  0.7546771E-02  0.1338609E+00
          1   -1    0    0  501    0  0.00000000000E+00  0.00000000000E+00  0.46481612536E+02  0.46481612536E+02  0.00000000000E+00 0. -1.
         -1   -1    0    0    0  501 -0.00000000000E+00 -0.00000000000E+00 -0.31662251378E+02  0.31662251378E+02  0.00000000000E+00 0.  1.
         23    2    1    2    0    0  0.00000000000E+00  0.00000000000E+00  0.14819361158E+02  0.78143863914E+02  0.76725810535E+02 0.  0.
        -11    1    3    3    0    0 -0.86159218595E+01 -0.32209362932E+02 -0.11915606622E+02  0.35407045219E+02  0.00000000000E+00 0.  1.
         11    1    3    3    0    0  0.86159218595E+01  0.32209362932E+02  0.26734967780E+02  0.42736818695E+02  0.00000000000E+00 0. -1.
<mgrwt>
<rscale>  0 0.76725811E+02</rscale>
<asrwt>0</asrwt>
<pdfrwt beam="1">  1        1 0.71510173E-02 0.76725811E+02</pdfrwt>
<pdfrwt beam="2">  1       -1 0.48711156E-02 0.76725811E+02</pdfrwt>
<totfact> 0.14944474E+05</totfact>
</mgrwt>
</event>
<event>
 5    1  0.6222456E+000  0.9069582E+02  0.7546771E-02  0.1301175E+00
         -1   -1    0    0    0  501 -0.00000000000E+00  0.00000000000E+00  0.61898112815E+01  0.61898112815E+01  0.00000000000E+00 0.  1.
          1   -1    0    0  501    0  0.00000000000E+00 -0.00000000000E+00 -0.33222871630E+03  0.33222871630E+03  0.00000000000E+00 0. -1.
         23    2    1    2    0    0  0.00000000000E+00  0.00000000000E+00 -0.32603890502E+03  0.33841852758E+03  0.90695822533E+02 0.  0.
        -11    1    3    3    0    0  0.37346530920E+02  0.18094667292E+02 -0.23123828928E+03  0.23493260052E+03  0.00000000000E+00 0. -1.
         11    1    3    3    0    0 -0.37346530920E+02 -0.18094667292E+02 -0.94800615738E+02  0.10348592706E+03  0.00000000000E+00 0.  1.
<mgrwt>
<rscale>  0 0.90695823E+02</rscale>
<asrwt>0</asrwt>
<pdfrwt beam="2">  1        1 0.51112115E-01 0.90695823E+02</pdfrwt>
<pdfrwt beam="1">  1       -1 0.95227856E-03 0.90695823E+02</pdfrwt>
<totfact> 0.13244469E+05</totfact>
</mgrwt>
</event>
<event>
 5    1  0.6222456E+000  0.9016786E+02  0.7546771E-02  0.1302446E+00
          3   -1    0    0  501    0  0.00000000000E+00  0.00000000000E+00  0.44046545805E+02  0.44046545805E+02  0.00000000000E+00 0. -1.
         -3   -1    0    0    0  501 -0.00000000000E+00 -0.00000000000E+00 -0.46145746238E+02  0.46145746238E+02  0.00000000000E+00 0.  1.
         23    2    1    2    0    0  0.00000000000E+00  0.00000000000E+00 -0.20992004323E+01  0.90192292043E+02  0.90167859581E+02 0.  0.
        -11    1    3    3    0    0 -0.41430194833E+02 -0.10975818641E+02 -0.15040208492E+02  0.45421773525E+02  0.00000000000E+00 0.  1.
         11    1    3    3    0    0  0.41430194833E+02  0.10975818641E+02  0.12941008060E+02  0.44770518517E+02  0.00000000000E+00 0. -1.
<mgrwt>
<rscale>  0 0.90167860E+02</rscale>
<asrwt>0</asrwt>
<pdfrwt beam="1">  1        3 0.67763916E-02 0.90167860E+02</pdfrwt>
<pdfrwt beam="2">  1       -3 0.70993456E-02 0.90167860E+02</pdfrwt>
<totfact> 0.36502833E+04</totfact>
</mgrwt>
</event>
<event>
 5    1  0.6222456E+000  0.9667918E+02  0.7546771E-02  0.1287438E+00
          3   -1    0    0  501    0  0.00000000000E+00  0.00000000000E+00  0.29143509553E+02  0.29143509553E+02  0.00000000000E+00 0. -1.
         -3   -1    0    0    0  501 -0.00000000000E+00 -0.00000000000E+00 -0.80179641915E+02  0.80179641915E+02  0.00000000000E+00 0.  1.
         23    2    1    2    0    0  0.00000000000E+00  0.00000000000E+00 -0.51036132362E+02  0.10932315147E+03  0.96679184111E+02 0.  0.
        -11    1    3    3    0    0  0.11215063214E+02 -0.12880667770E+02 -0.76654293049E+02  0.78533877327E+02  0.00000000000E+00 0.  1.
         11    1    3    3    0    0 -0.11215063214E+02  0.12880667770E+02  0.25618160687E+02  0.30789274141E+02  0.00000000000E+00 0. -1.
<mgrwt>
<rscale>  0 0.96679184E+02</rscale>
<asrwt>0</asrwt>
<pdfrwt beam="1">  1        3 0.44836169E-02 0.96679184E+02</pdfrwt>
<pdfrwt beam="2">  1       -3 0.12335329E-01 0.96679184E+02</pdfrwt>
<totfact> 0.28965575E+04</totfact>
</mgrwt>
</event>
<event>
 5    1  0.6222456E+000  0.9375711E+02  0.7546771E-02  0.1294000E+00
          4   -1    0    0  501    0  0.00000000000E+00  0.00000000000E+00  0.11347045528E+03  0.11347045528E+03  0.00000000000E+00 0. -1.
         -4   -1    0    0    0  501 -0.00000000000E+00 -0.00000000000E+00 -0.19367144447E+02  0.19367144447E+02  0.00000000000E+00 0.  1.
         23    2    1    2    0    0  0.00000000000E+00  0.00000000000E+00  0.94103310833E+02  0.13283759973E+03  0.93757105285E+02 0.  0.
        -11    1    3    3    0    0 -0.18612910911E+02  0.42316011769E+02  0.36030107766E+02  0.58611039662E+02  0.00000000000E+00 0.  1.
         11    1    3    3    0    0  0.18612910911E+02 -0.42316011769E+02  0.58073203066E+02  0.74226560065E+02  0.00000000000E+00 0. -1.
<mgrwt>
<rscale>  0 0.93757105E+02</rscale>
<asrwt>0</asrwt>
<pdfrwt beam="1">  1        4 0.17456993E-01 0.93757105E+02</pdfrwt>
<pdfrwt beam="2">  1       -4 0.29795607E-02 0.93757105E+02</pdfrwt>
<totfact> 0.22777367E+04</totfact>
</mgrwt>
</event>
<event>
 5    1  0.6222456E+000  0.9014133E+02  0.7546771E-02  0.1302510E+00
          3   -1    0    0  501    0  0.00000000000E+00  0.00000000000E+00  0.24411213681E+02  0.24411213681E+02  0.00000000000E+00 0. -1.
         -3   -1    0    0    0  501 -0.00000000000E+00 -0.00000000000E+00 -0.83214415952E+02  0.83214415952E+02  0.00000000000E+00 0.  1.
         23    2    1    2    0    0  0.00000000000E+00  0.00000000000E+00 -0.58803202271E+02  0.10762562963E+03  0.90141331012E+02 0.  0.
        -11    1    3    3    0    0 -0.19201056886E+02 -0.37259918380E+02 -0.96241568671E+01  0.43007051731E+02  0.00000000000E+00 0. -1.
         11    1    3    3    0    0  0.19201056886E+02  0.37259918380E+02 -0.49179045404E+02  0.64618577902E+02  0.00000000000E+00 0.  1.
<mgrwt>
<rscale>  0 0.90141331E+02</rscale>
<asrwt>0</asrwt>
<pdfrwt beam="1">  1        3 0.37555714E-02 0.90141331E+02</pdfrwt>
<pdfrwt beam="2">  1       -3 0.12802217E-01 0.90141331E+02</pdfrwt>
<totfact> 0.35190517E+04</totfact>
</mgrwt>
</event>
<event>
 5    1  0.6222456E+000  0.9131635E+02  0.7546771E-02  0.1299695E+00
          3   -1    0    0  501    0  0.00000000000E+00  0.00000000000E+00  0.20994307375E+02  0.20994307375E+02  0.00000000000E+00 0. -1.
         -3   -1    0    0    0  501 -0.00000000000E+00 -0.00000000000E+00 -0.99296868113E+02  0.99296868113E+02  0.00000000000E+00 0.  1.
         23    2    1    2    0    0  0.00000000000E+00  0.00000000000E+00 -0.78302560737E+02  0.12029117549E+03  0.91316350575E+02 0.  0.
        -11    1    3    3    0    0  0.38450775986E+02 -0.20853705158E+02 -0.21908724260E+02  0.48921686311E+02  0.00000000000E+00 0. -1.
         11    1    3    3    0    0 -0.38450775986E+02  0.20853705158E+02 -0.56393836478E+02  0.71369489177E+02  0.00000000000E+00 0.  1.
<mgrwt>
<rscale>  0 0.91316351E+02</rscale>
<asrwt>0</asrwt>
<pdfrwt beam="1">  1        3 0.32298934E-02 0.91316351E+02</pdfrwt>
<pdfrwt beam="2">  1       -3 0.15276441E-01 0.91316351E+02</pdfrwt>
<totfact> 0.33090165E+04</totfact>
</mgrwt>
</event>
<event>
 5    1  0.6222456E+000  0.8908450E+02  0.7546771E-02  0.1305084E+00
         -1   -1    0    0    0  501 -0.00000000000E+00  0.00000000000E+00  0.90314164739E+01  0.90314164739E+01  0.00000000000E+00 0.  1.
          1   -1    0    0  501    0  0.00000000000E+00 -0.00000000000E+00 -0.21967894670E+03  0.21967894670E+03  0.00000000000E+00 0. -1.
         23    2    1    2    0    0  0.00000000000E+00  0.00000000000E+00 -0.21064753022E+03  0.22871036317E+03  0.89084500519E+02 0.  0.
        -11    1    3    3    0    0  0.15740082545E+02 -0.28278787313E+02 -0.26754210693E+02  0.41990806139E+02  0.00000000000E+00 0.  1.
         11    1    3    3    0    0 -0.15740082545E+02  0.28278787313E+02 -0.18389331953E+03  0.18671955703E+03  0.00000000000E+00 0. -1.
<mgrwt>
<rscale>  0 0.89084501E+02</rscale>
<asrwt>0</asrwt>
<pdfrwt beam="2">  1        1 0.33796764E-01 0.89084501E+02</pdfrwt>
<pdfrwt beam="1">  1       -1 0.13894486E-02 0.89084501E+02</pdfrwt>
<totfact> 0.12830730E+05</totfact>
</mgrwt>
</event>
<event>
 5    1  0.6222456E+000  0.9051823E+02  0.7546771E-02  0.1301602E+00
          2   -1    0    0  501    0  0.00000000000E+00  0.00000000000E+00  0.74441956107E+02  0.74441956107E+02  0.00000000000E+00 0. -1.
         -2   -1    0    0    0  501 -0.00000000000E+00 -0.00000000000E+00 -0.27516571160E+02  0.27516571160E+02  0.00000000000E+00 0.  1.
         23    2    1    2    0    0  0.00000000000E+00  0.00000000000E+00  0.46925384947E+02  0.10195852727E+03  0.90518227613E+02 0.  0.
        -11    1    3    3    0    0 -0.27594704320E+02 -0.25054912722E+02 -0.54565269403E+01  0.37669484258E+02  0.00000000000E+00 0.  1.
         11    1    3    3    0    0  0.27594704320E+02  0.25054912722E+02  0.52381911887E+02  0.64289043009E+02  0.00000000000E+00 0. -1.
<mgrwt>
<rscale>  0 0.90518228E+02</rscale>
<asrwt>0</asrwt>
<pdfrwt beam="1">  1        2 0.11452609E-01 0.90518228E+02</pdfrwt>
<pdfrwt beam="2">  1       -2 0.42333187E-02 0.90518228E+02</pdfrwt>
<totfact> 0.11483105E+05</totfact>
</mgrwt>
</event>
<event>
 5    1  0.6222456E+000  0.8977383E+02  0.7546771E-02  0.1303400E+00
          2   -1    0    0  501    0  0.00000000000E+00  0.00000000000E+00  0.16032536061E+03  0.16032536061E+03  0.00000000000E+00 0. -1.
         -2   -1    0    0    0  501 -0.00000000000E+00 -0.00000000000E+00 -0.12567165116E+02  0.12567165116E+02  0.00000000000E+00 0.  1.
         23    2    1    2    0    0  0.00000000000E+00  0.00000000000E+00  0.14775819549E+03  0.17289252573E+03  0.89773833139E+02 0.  0.
        -11    1    3    3    0    0  0.21666183067E+02 -0.19587627999E+02  0.13952086871E+03  0.14254533126E+03  0.00000000000E+00 0. -1.
         11    1    3    3    0    0 -0.21666183067E+02  0.19587627999E+02  0.82373267852E+01  0.30347194465E+02  0.00000000000E+00 0.  1.
<mgrwt>
<rscale>  0 0.89773833E+02</rscale>
<asrwt>0</asrwt>
<pdfrwt beam="1">  1        2 0.24665439E-01 0.89773833E+02</pdfrwt>
<pdfrwt beam="2">  1       -2 0.19334101E-02 0.89773833E+02</pdfrwt>
<totfact> 0.14916195E+05</totfact>
</mgrwt>
</event>
<event>
 5    1  0.6222456E+000  0.8732837E+02  0.7546771E-02  0.1309453E+00
          3   -1    0    0  501    0  0.00000000000E+00  0.00000000000E+00  0.33243472955E+02  0.33243472955E+02  0.00000000000E+00 0. -1.
         -3   -1    0    0    0  501 -0.00000000000E+00 -0.00000000000E+00 -0.57351444988E+02  0.57351444988E+02  0.00000000000E+00 0.  1.
         23    2    1    2    0    0  0.00000000000E+00  0.00000000000E+00 -0.24107972032E+02  0.90594917943E+02  0.87328373634E+02 0.  0.
        -11    1    3    3    0    0 -0.36421561183E+02  0.22828083663E+02 -0.20016346284E+02  0.47416301430E+02  0.00000000000E+00 0.  1.
         11    1    3    3    0    0  0.36421561183E+02 -0.22828083663E+02 -0.40916257483E+01  0.43178616513E+02  0.00000000000E+00 0. -1.
<mgrwt>
<rscale>  0 0.87328374E+02</rscale>
<asrwt>0</asrwt>
<pdfrwt beam="1">  1        3 0.51143805E-02 0.87328374E+02</pdfrwt>
<pdfrwt beam="2">  1       -3 0.88232991E-02 0.87328374E+02</pdfrwt>
<totfact> 0.39777644E+04</totfact>
</mgrwt>
</event>
<event>
 5    1  0.6222456E+000  0.9327249E+02  0.7546771E-02  0.1295115E+00
         -1   -1    0    0    0  501 -0.00000000000E+00  0.00000000000E+00  0.89361204184E+01  0.89361204184E+01  0.00000000000E+00 0.  1.
          1   -1    0    0  501    0  0.00000000000E+00 -0.00000000000E+00 -0.24338742992E+03  0.24338742992E+03  0.00000000000E+00 0. -1.
         23    2    1    2    0    0  0.00000000000E+00  0.00000000000E+00 -0.23445130951E+03  0.25232355034E+03  0.93272490738E+02 0.  0.
        -11    1    3    3    0    0 -0.30620389637E+02 -0.30850054928E+02 -0.16294366195E+03  0.16864154625E+03  0.00000000000E+00 0.  1.
         11    1    3    3    0    0  0.30620389637E+02  0.30850054928E+02 -0.71507647551E+02  0.83682004092E+02  0.00000000000E+00 0. -1.
<mgrwt>
<rscale>  0 0.93272491E+02</rscale>
<asrwt>0</asrwt>
<pdfrwt beam="2">  1        1 0.37444216E-01 0.93272491E+02</pdfrwt>
<pdfrwt beam="1">  1       -1 0.13747879E-02 0.93272491E+02</pdfrwt>
<totfact> 0.11576302E+05</totfact>
</mgrwt>
</event>
<event>
 5    1  0.6222456E+000  0.9291158E+02  0.7546771E-02  0.1295950E+00
          4   -1    0    0  501    0  0.00000000000E+00  0.00000000000E+00  0.33552457883E+02  0.33552457883E+02  0.00000000000E+00 0. -1.
         -4   -1    0    0    0  501 -0.00000000000E+00 -0.00000000000E+00 -0.64321383308E+02  0.64321383308E+02  0.00000000000E+00 0.  1.
         23    2    1    2    0    0  0.00000000000E+00  0.00000000000E+00 -0.30768925426E+02  0.97873841191E+02  0.92911581719E+02 0.  0.
        -11    1    3    3    0    0 -0.17121449971E+02  0.12591853497E+01  0.30088274404E+02  0.34641504780E+02  0.00000000000E+00 0. -1.
         11    1    3    3    0    0  0.17121449971E+02 -0.12591853497E+01 -0.60857199829E+02  0.63232336410E+02  0.00000000000E+00 0.  1.
<mgrwt>
<rscale>  0 0.92911582E+02</rscale>
<asrwt>0</asrwt>
<pdfrwt beam="1">  1        4 0.51619167E-02 0.92911582E+02</pdfrwt>
<pdfrwt beam="2">  1       -4 0.98955973E-02 0.92911582E+02</pdfrwt>
<totfact> 0.25261792E+04</totfact>
</mgrwt>
</event>
<event>
 5    1  0.6222456E+000  0.9083875E+02  0.7546771E-02  0.1300833E+00
          1   -1    0    0  501    0  0.00000000000E+00  0.00000000000E+00  0.30269747683E+02  0.30269747683E+02  0.00000000000E+00 0. -1.
         -1   -1    0    0    0  501 -0.00000000000E+00 -0.00000000000E+00 -0.68151199101E+02  0.68151199101E+02  0.00000000000E+00 0.  1.
         23    2    1    2    0    0  0.00000000000E+00  0.00000000000E+00 -0.37881451418E+02  0.98420946784E+02  0.90838749464E+02 0.  0.
        -11    1    3    3    0    0 -0.43453056671E+02 -0.32622371710E+01 -0.50609337736E+01  0.43868250206E+02  0.00000000000E+00 0.  1.
         11    1    3    3    0    0  0.43453056671E+02  0.32622371710E+01 -0.32820517645E+02  0.54552696578E+02  0.00000000000E+00 0. -1.
<mgrwt>
<rscale>  0 0.90838749E+02</rscale>
<asrwt>0</asrwt>
<pdfrwt beam="1">  1        1 0.46568843E-02 0.90838749E+02</pdfrwt>
<pdfrwt beam="2">  1       -1 0.10484800E-01 0.90838749E+02</pdfrwt>
<totfact> 0.87739502E+04</totfact>
</mgrwt>
</event>
<event>
 5    1  0.6222456E+000  0.8837986E+02  0.7546771E-02  0.1306823E+00
          4   -1    0    0  501    0  0.00000000000E+00  0.00000000000E+00  0.21052114964E+02  0.21052114964E+02  0.00000000000E+00 0. -1.
         -4   -1    0    0    0  501 -0.00000000000E+00 -0.00000000000E+00 -0.92757891115E+02  0.92757891115E+02  0.00000000000E+00 0.  1.
         23    2    1    2    0    0  0.00000000000E+00  0.00000000000E+00 -0.71705776151E+02  0.11381000608E+03  0.88379857153E+02 0.  0.
        -11    1    3    3    0    0 -0.31448985747E+02  0.17401235591E+02 -0.27475762489E+01  0.36047064788E+02  0.00000000000E+00 0. -1.
         11    1    3    3    0    0  0.31448985747E+02 -0.17401235591E+02 -0.68958199902E+02  0.77762941291E+02  0.00000000000E+00 0.  1.
<mgrwt>
<rscale>  0 0.88379857E+02</rscale>
<asrwt>0</asrwt>
<pdfrwt beam="1">  1        4 0.32387869E-02 0.88379857E+02</pdfrwt>
<pdfrwt beam="2">  1       -4 0.14270445E-01 0.88379857E+02</pdfrwt>
<totfact> 0.27872155E+04</totfact>
</mgrwt>
</event>
<event>
 5    1  0.6222456E+000  0.9412489E+02  0.7546771E-02  0.1293159E+00
          1   -1    0    0  501    0  0.00000000000E+00  0.00000000000E+00  0.47404585863E+02  0.47404585863E+02  0.00000000000E+00 0. -1.
         -1   -1    0    0    0  501 -0.00000000000E+00 -0.00000000000E+00 -0.46722778405E+02  0.46722778405E+02  0.00000000000E+00 0.  1.
         23    2    1    2    0    0  0.00000000000E+00  0.00000000000E+00  0.68180745779E+00  0.94127364268E+02  0.94124894914E+02 0.  0.
        -11    1    3    3    0    0  0.33695511427E+02 -0.26314238886E+02 -0.19333130192E+02  0.46921174127E+02  0.00000000000E+00 0.  1.
         11    1    3    3    0    0 -0.33695511427E+02  0.26314238886E+02  0.20014937650E+02  0.47206190141E+02  0.00000000000E+00 0. -1.
<mgrwt>
<rscale>  0 0.94124895E+02</rscale>
<asrwt>0</asrwt>
<pdfrwt beam="1">  1        1 0.72930133E-02 0.94124895E+02</pdfrwt>
<pdfrwt beam="2">  1       -1 0.71881197E-02 0.94124895E+02</pdfrwt>
<totfact> 0.85055626E+04</totfact>
</mgrwt>
</event>
<event>
 5    1  0.6222456E+000  0.8979872E+02  0.7546771E-02  0.1303340E+00
          3   -1    0    0  501    0  0.00000000000E+00  0.00000000000E+00  0.75235769757E+02  0.75235769757E+02  0.00000000000E+00 0. -1.
         -3   -1    0    0    0  501 -0.00000000000E+00 -0.00000000000E+00 -0.26795135182E+02  0.26795135182E+02  0.00000000000E+00 0.  1.
         23    2    1    2    0    0  0.00000000000E+00  0.00000000000E+00  0.48440634575E+02  0.10203090494E+03  0.89798722066E+02 0.  0.
        -11    1    3    3    0    0 -0.13448939171E+02  0.15916630313E+02  0.69408936097E+02  0.72469396958E+02  0.00000000000E+00 0. -1.
         11    1    3    3    0    0  0.13448939171E+02 -0.15916630313E+02 -0.20968301523E+02  0.29561507981E+02  0.00000000000E+00 0.  1.
<mgrwt>
<rscale>  0 0.89798722E+02</rscale>
<asrwt>0</asrwt>
<pdfrwt beam="1">  1        3 0.11574734E-01 0.89798722E+02</pdfrwt>
<pdfrwt beam="2">  1       -3 0.41223285E-02 0.89798722E+02</pdfrwt>
<totfact> 0.35978483E+04</totfact>
</mgrwt>
</event>
<event>
 5    1  0.6222456E+000  0.9145960E+02  0.7546771E-02  0.1299355E+00
          1   -1    0    0  501    0  0.00000000000E+00  0.00000000000E+00  0.40282832294E+02  0.40282832294E+02  0.00000000000E+00 0. -1.
         -1   -1    0    0    0  501 -0.00000000000E+00 -0.00000000000E+00 -0.51913291706E+02  0.51913291706E+02  0.00000000000E+00 0.  1.
         23    2    1    2    0    0  0.00000000000E+00  0.00000000000E+00 -0.11630459412E+02  0.92196124000E+02  0.91459595967E+02 0.  0.
        -11    1    3    3    0    0 -0.26066858199E+02 -0.12568302292E+01 -0.43669651002E+02  0.50873363730E+02  0.00000000000E+00 0.  1.
         11    1    3    3    0    0  0.26066858199E+02  0.12568302292E+01  0.32039191590E+02  0.41322760270E+02  0.00000000000E+00 0. -1.
<mgrwt>
<rscale>  0 0.91459596E+02</rscale>
<asrwt>0</asrwt>
<pdfrwt beam="1">  1        1 0.61973588E-02 0.91459596E+02</pdfrwt>
<pdfrwt beam="2">  1       -1 0.79866603E-02 0.91459596E+02</pdfrwt>
<totfact> 0.89969715E+04</totfact>
</mgrwt>
</event>
<event>
 5    1  0.6222456E+000  0.1062659E+03  0.7546771E-02  0.1267645E+00
         -4   -1    0    0    0  501 -0.00000000000E+00  0.00000000000E+00  0.64924318761E+02  0.64924318761E+02  0.00000000000E+00 0. -1.
          4   -1    0    0  501    0  0.00000000000E+00 -0.00000000000E+00 -0.43483111784E+02  0.43483111784E+02  0.00000000000E+00 0.  1.
         23    2    1    2    0    0  0.00000000000E+00  0.00000000000E+00  0.21441206977E+02  0.10840743054E+03  0.10626591947E+03 0.  0.
        -11    1    3    3    0    0  0.32816075291E+02  0.33605064483E+01  0.53212412927E+02  0.62607896392E+02  0.00000000000E+00 0. -1.
         11    1    3    3    0    0 -0.32816075291E+02 -0.33605064483E+01 -0.31771205950E+02  0.45799534153E+02  0.00000000000E+00 0.  1.
<mgrwt>
<rscale>  0 0.10626592E+03</rscale>
<asrwt>0</asrwt>
<pdfrwt beam="2">  1        4 0.66897095E-02 0.10626592E+03</pdfrwt>
<pdfrwt beam="1">  1       -4 0.99883567E-02 0.10626592E+03</pdfrwt>
<totfact> 0.17060766E+04</totfact>
</mgrwt>
</event>
<event>
 5    1  0.6222456E+000  0.9598311E+02  0.7546771E-02  0.1288977E+00
          2   -1    0    0  501    0  0.00000000000E+00  0.00000000000E+00  0.61331345864E+02  0.61331345864E+02  0.00000000000E+00 0. -1.
         -2   -1    0    0    0  501 -0.00000000000E+00 -0.00000000000E+00 -0.37553215557E+02  0.37553215557E+02  0.00000000000E+00 0.  1.
         23    2    1    2    0    0  0.00000000000E+00  0.00000000000E+00  0.23778130307E+02  0.98884561422E+02  0.95983107924E+02 0.  0.
        -11    1    3    3    0    0  0.14649116688E+02 -0.25385317124E+02  0.51040176270E+02  0.58856694937E+02  0.00000000000E+00 0. -1.
         11    1    3    3    0    0 -0.14649116688E+02  0.25385317124E+02 -0.27262045963E+02  0.40027866485E+02  0.00000000000E+00 0.  1.
<mgrwt>
<rscale>  0 0.95983108E+02</rscale>
<asrwt>0</asrwt>
<pdfrwt beam="1">  1        2 0.94355917E-02 0.95983108E+02</pdfrwt>
<pdfrwt beam="2">  1       -2 0.57774177E-02 0.95983108E+02</pdfrwt>
<totfact> 0.92247665E+04</totfact>
</mgrwt>
</event>
<event>
 5    1  0.6222456E+000  0.9261150E+02  0.7546771E-02  0.1296648E+00
          2   -1    0    0  501    0  0.00000000000E+00  0.00000000000E+00  0.42962154940E+02  0.42962154940E+02  0.00000000000E+00 0. -1.
         -2   -1    0    0    0  501 -0.00000000000E+00 -0.00000000000E+00 -0.49909565764E+02  0.49909565764E+02  0.00000000000E+00 0.  1.
         23    2    1    2    0    0  0.00000000000E+00  0.00000000000E+00 -0.69474108247E+01  0.92871720704E+02  0.92611500308E+02 0.  0.
        -11    1    3    3    0    0  0.76502559496E+01 -0.13146182511E+02 -0.47333010927E+02  0.49716822647E+02  0.00000000000E+00 0.  1.
         11    1    3    3    0    0 -0.76502559496E+01  0.13146182511E+02  0.40385600102E+02  0.43154898057E+02  0.00000000000E+00 0. -1.
<mgrwt>
<rscale>  0 0.92611500E+02</rscale>
<asrwt>0</asrwt>
<pdfrwt beam="1">  1        2 0.66095623E-02 0.92611500E+02</pdfrwt>
<pdfrwt beam="2">  1       -2 0.76783947E-02 0.92611500E+02</pdfrwt>
<totfact> 0.92883158E+04</totfact>
</mgrwt>
</event>
<event>
 5    1  0.6222456E+000  0.9142691E+02  0.7546771E-02  0.1299433E+00
         -2   -1    0    0    0  501 -0.00000000000E+00  0.00000000000E+00  0.64439554274E+02  0.64439554274E+02  0.00000000000E+00 0.  1.
          2   -1    0    0  501    0  0.00000000000E+00 -0.00000000000E+00 -0.32429147468E+02  0.32429147468E+02  0.00000000000E+00 0. -1.
         23    2    1    2    0    0  0.00000000000E+00  0.00000000000E+00  0.32010406806E+02  0.96868701742E+02  0.91426906507E+02 0.  0.
        -11    1    3    3    0    0 -0.25851041344E+02 -0.24300829657E+01 -0.23857821018E+02  0.35261555063E+02  0.00000000000E+00 0. -1.
         11    1    3    3    0    0  0.25851041344E+02  0.24300829657E+01  0.55868227824E+02  0.61607146679E+02  0.00000000000E+00 0.  1.
<mgrwt>
<rscale>  0 0.91426907E+02</rscale>
<asrwt>0</asrwt>
<pdfrwt beam="2">  1        2 0.49890996E-02 0.91426907E+02</pdfrwt>
<pdfrwt beam="1">  1       -2 0.99137776E-02 0.91426907E+02</pdfrwt>
<totfact> 0.89584925E+04</totfact>
</mgrwt>
</event>
<event>
 5    1  0.6222456E+000  0.8947287E+02  0.7546771E-02  0.1304133E+00
         -1   -1    0    0    0  501 -0.00000000000E+00  0.00000000000E+00  0.17675016460E+02  0.17675016460E+02  0.00000000000E+00 0.  1.
          1   -1    0    0  501    0  0.00000000000E+00 -0.00000000000E+00 -0.11323035933E+03  0.11323035933E+03  0.00000000000E+00 0. -1.
         23    2    1    2    0    0  0.00000000000E+00  0.00000000000E+00 -0.95555342866E+02  0.13090537579E+03  0.89472866609E+02 0.  0.
        -11    1    3    3    0    0  0.27494191644E+02 -0.51554174261E+01  0.33009774662E+01  0.28167452054E+02  0.00000000000E+00 0.  1.
         11    1    3    3    0    0 -0.27494191644E+02  0.51554174261E+01 -0.98856320332E+02  0.10273792373E+03  0.00000000000E+00 0. -1.
<mgrwt>
<rscale>  0 0.89472867E+02</rscale>
<asrwt>0</asrwt>
<pdfrwt beam="2">  1        1 0.17420055E-01 0.89472867E+02</pdfrwt>
<pdfrwt beam="1">  1       -1 0.27192333E-02 0.89472867E+02</pdfrwt>
<totfact> 0.11226228E+05</totfact>
</mgrwt>
</event>
<event>
 5    1  0.6222456E+000  0.9928013E+02  0.7546771E-02  0.1281817E+00
          2   -1    0    0  501    0  0.00000000000E+00  0.00000000000E+00  0.20812617559E+03  0.20812617559E+03  0.00000000000E+00 0. -1.
         -2   -1    0    0    0  501 -0.00000000000E+00 -0.00000000000E+00 -0.11839625540E+02  0.11839625540E+02  0.00000000000E+00 0.  1.
         23    2    1    2    0    0  0.00000000000E+00  0.00000000000E+00  0.19628655005E+03  0.21996580113E+03  0.99280128608E+02 0.  0.
        -11    1    3    3    0    0  0.41799154536E+02  0.10131050394E+02  0.43228000480E+02  0.60979238495E+02  0.00000000000E+00 0.  1.
         11    1    3    3    0    0 -0.41799154536E+02 -0.10131050394E+02  0.15305854957E+03  0.15898656264E+03  0.00000000000E+00 0. -1.
<mgrwt>
<rscale>  0 0.99280129E+02</rscale>
<asrwt>0</asrwt>
<pdfrwt beam="1">  1        2 0.32019409E-01 0.99280129E+02</pdfrwt>
<pdfrwt beam="2">  1       -2 0.18214810E-02 0.99280129E+02</pdfrwt>
<totfact> 0.12464720E+05</totfact>
</mgrwt>
</event>
<event>
 5    1  0.6222456E+000  0.8968578E+02  0.7546771E-02  0.1303614E+00
         -1   -1    0    0    0  501 -0.00000000000E+00  0.00000000000E+00  0.13182139257E+02  0.13182139257E+02  0.00000000000E+00 0.  1.
          1   -1    0    0  501    0  0.00000000000E+00 -0.00000000000E+00 -0.15254616915E+03  0.15254616915E+03  0.00000000000E+00 0. -1.
         23    2    1    2    0    0  0.00000000000E+00  0.00000000000E+00 -0.13936402990E+03  0.16572830841E+03  0.89685781370E+02 0.  0.
        -11    1    3    3    0    0 -0.54231337178E+01  0.30832844130E+02 -0.12901038986E+03  0.13275449276E+03  0.00000000000E+00 0. -1.
         11    1    3    3    0    0  0.54231337178E+01 -0.30832844130E+02 -0.10353640035E+02  0.32973815648E+02  0.00000000000E+00 0.  1.
<mgrwt>
<rscale>  0 0.89685781E+02</rscale>
<asrwt>0</asrwt>
<pdfrwt beam="2">  1        1 0.23468642E-01 0.89685781E+02</pdfrwt>
<pdfrwt beam="1">  1       -1 0.20280214E-02 0.89685781E+02</pdfrwt>
<totfact> 0.11758670E+05</totfact>
</mgrwt>
</event>
<event>
 5    1  0.6222456E+000  0.9569993E+02  0.7546771E-02  0.1289607E+00
          1   -1    0    0  501    0  0.00000000000E+00  0.00000000000E+00  0.32146842629E+03  0.32146842629E+03  0.00000000000E+00 0. -1.
         -1   -1    0    0    0  501 -0.00000000000E+00 -0.00000000000E+00 -0.71223771378E+01  0.71223771378E+01  0.00000000000E+00 0.  1.
         23    2    1    2    0    0  0.00000000000E+00  0.00000000000E+00  0.31434604915E+03  0.32859080342E+03  0.95699934585E+02 0.  0.
        -11    1    3    3    0    0  0.34277982902E+02 -0.23924053345E+02  0.23712977372E+03  0.24078594233E+03  0.00000000000E+00 0. -1.
         11    1    3    3    0    0 -0.34277982902E+02  0.23924053345E+02  0.77216275427E+02  0.87804861090E+02  0.00000000000E+00 0.  1.
<mgrwt>
<rscale>  0 0.95699935E+02</rscale>
<asrwt>0</asrwt>
<pdfrwt beam="1">  1        1 0.49456670E-01 0.95699935E+02</pdfrwt>
<pdfrwt beam="2">  1       -1 0.10957506E-02 0.95699935E+02</pdfrwt>
<totfact> 0.11406084E+05</totfact>
</mgrwt>
</event>
<event>
 5    1  0.6222456E+000  0.9048449E+02  0.7546771E-02  0.1301683E+00
         -1   -1    0    0    0  501 -0.00000000000E+00  0.00000000000E+00  0.10497106806E+03  0.10497106806E+03  0.00000000000E+00 0.  1.
          1   -1    0    0  501    0  0.00000000000E+00 -0.00000000000E+00 -0.19499284664E+02  0.19499284664E+02  0.00000000000E+00 0. -1.
         23    2    1    2    0    0  0.00000000000E+00  0.00000000000E+00  0.85471783393E+02  0.12447035272E+03  0.90484490108E+02 0.  0.
        -11    1    3    3    0    0  0.26366062718E+02  0.32828720066E+02  0.65504715545E+02  0.77870160415E+02  0.00000000000E+00 0.  1.
         11    1    3    3    0    0 -0.26366062718E+02 -0.32828720066E+02  0.19967067848E+02  0.46600192305E+02  0.00000000000E+00 0. -1.
<mgrwt>
<rscale>  0 0.90484490E+02</rscale>
<asrwt>0</asrwt>
<pdfrwt beam="2">  1        1 0.29998900E-02 0.90484490E+02</pdfrwt>
<pdfrwt beam="1">  1       -1 0.16149395E-01 0.90484490E+02</pdfrwt>
<totfact> 0.82230131E+04</totfact>
</mgrwt>
</event>
<event>
 5    1  0.6222456E+000  0.9299683E+02  0.7546771E-02  0.1295753E+00
         -3   -1    0    0    0  501 -0.00000000000E+00  0.00000000000E+00  0.15621193667E+03  0.15621193667E+03  0.00000000000E+00 0.  1.
          3   -1    0    0  501    0  0.00000000000E+00 -0.00000000000E+00 -0.13840829662E+02  0.13840829662E+02  0.00000000000E+00 0. -1.
         23    2    1    2    0    0  0.00000000000E+00  0.00000000000E+00  0.14237110701E+03  0.17005276634E+03  0.92996834498E+02 0.  0.
        -11    1    3    3    0    0  0.45409616017E+01 -0.32290188337E+02  0.13180054389E+03  0.13577429788E+03  0.00000000000E+00 0.  1.
         11    1    3    3    0    0 -0.45409616017E+01  0.32290188337E+02  0.10570563126E+02  0.34278468459E+02  0.00000000000E+00 0. -1.
<mgrwt>
<rscale>  0 0.92996834E+02</rscale>
<asrwt>0</asrwt>
<pdfrwt beam="2">  1        3 0.21293585E-02 0.92996834E+02</pdfrwt>
<pdfrwt beam="1">  1       -3 0.24032604E-01 0.92996834E+02</pdfrwt>
<totfact> 0.28552141E+04</totfact>
</mgrwt>
</event>
<event>
 5    1  0.6222456E+000  0.9207920E+02  0.7546771E-02  0.1297893E+00
          1   -1    0    0  501    0  0.00000000000E+00  0.00000000000E+00  0.16442952014E+03  0.16442952014E+03  0.00000000000E+00 0. -1.
         -1   -1    0    0    0  501 -0.00000000000E+00 -0.00000000000E+00 -0.12890900985E+02  0.12890900985E+02  0.00000000000E+00 0.  1.
         23    2    1    2    0    0  0.00000000000E+00  0.00000000000E+00  0.15153861916E+03  0.17732042113E+03  0.92079197718E+02 0.  0.
        -11    1    3    3    0    0  0.29564828908E+02 -0.22157544451E+02  0.22869007256E+02  0.43451436999E+02  0.00000000000E+00 0.  1.
         11    1    3    3    0    0 -0.29564828908E+02  0.22157544451E+02  0.12866961190E+03  0.13386898413E+03  0.00000000000E+00 0. -1.
<mgrwt>
<rscale>  0 0.92079198E+02</rscale>
<asrwt>0</asrwt>
<pdfrwt beam="1">  1        1 0.25296848E-01 0.92079198E+02</pdfrwt>
<pdfrwt beam="2">  1       -1 0.19832157E-02 0.92079198E+02</pdfrwt>
<totfact> 0.11107162E+05</totfact>
</mgrwt>
</event>
<event>
 5    1  0.6222456E+000  0.9231340E+02  0.7546771E-02  0.1297344E+00
          4   -1    0    0  501    0  0.00000000000E+00  0.00000000000E+00  0.37528942089E+02  0.37528942089E+02  0.00000000000E+00 0. -1.
         -4   -1    0    0    0  501 -0.00000000000E+00 -0.00000000000E+00 -0.56767941900E+02  0.56767941900E+02  0.00000000000E+00 0.  1.
         23    2    1    2    0    0  0.00000000000E+00  0.00000000000E+00 -0.19238999812E+02  0.94296883989E+02  0.92313396732E+02 0.  0.
        -11    1    3    3    0    0 -0.13429538084E+02  0.54455357098E+01 -0.54383857320E+02  0.56281527070E+02  0.00000000000E+00 0.  1.
         11    1    3    3    0    0  0.13429538084E+02 -0.54455357098E+01  0.35144857509E+02  0.38015356919E+02  0.00000000000E+00 0. -1.
<mgrwt>
<rscale>  0 0.92313397E+02</rscale>
<asrwt>0</asrwt>
<pdfrwt beam="1">  1        4 0.57736834E-02 0.92313397E+02</pdfrwt>
<pdfrwt beam="2">  1       -4 0.87335295E-02 0.92313397E+02</pdfrwt>
<totfact> 0.25928076E+04</totfact>
</mgrwt>
</event>
<event>
 5    1  0.6222456E+000  0.9188088E+02  0.7546771E-02  0.1298360E+00
         -1   -1    0    0    0  501 -0.00000000000E+00  0.00000000000E+00  0.26166122925E+02  0.26166122925E+02  0.00000000000E+00 0.  1.
          1   -1    0    0  501    0  0.00000000000E+00 -0.00000000000E+00 -0.80658648974E+02  0.80658648974E+02  0.00000000000E+00 0. -1.
         23    2    1    2    0    0  0.00000000000E+00  0.00000000000E+00 -0.54492526049E+02  0.10682477190E+03  0.91880882104E+02 0.  0.
        -11    1    3    3    0    0 -0.21860944466E+02 -0.39075092453E+02 -0.15289645934E+02  0.47313180151E+02  0.00000000000E+00 0.  1.
         11    1    3    3    0    0  0.21860944466E+02  0.39075092453E+02 -0.39202880115E+02  0.59511591749E+02  0.00000000000E+00 0. -1.
<mgrwt>
<rscale>  0 0.91880882E+02</rscale>
<asrwt>0</asrwt>
<pdfrwt beam="2">  1        1 0.12409023E-01 0.91880882E+02</pdfrwt>
<pdfrwt beam="1">  1       -1 0.40255573E-02 0.91880882E+02</pdfrwt>
<totfact> 0.98764733E+04</totfact>
</mgrwt>
</event>
<event>
 5    1  0.6222456E+000  0.9347709E+02  0.7546771E-02  0.1294643E+00
          1   -1    0    0  501    0  0.00000000000E+00  0.00000000000E+00  0.76528899498E+02  0.76528899498E+02  0.00000000000E+00 0. -1.
         -1   -1    0    0    0  501 -0.00000000000E+00 -0.00000000000E+00 -0.28544660574E+02  0.28544660574E+02  0.00000000000E+00 0.  1.
         23    2    1    2    0    0  0.00000000000E+00  0.00000000000E+00  0.47984238923E+02  0.10507356007E+03  0.93477087252E+02 0.  0.
        -11    1    3    3    0    0 -0.25680364035E+02  0.22056143913E+02 -0.12232116774E+02  0.35994155944E+02  0.00000000000E+00 0.  1.
         11    1    3    3    0    0  0.25680364035E+02 -0.22056143913E+02  0.60216355697E+02  0.69079404129E+02  0.00000000000E+00 0. -1.
<mgrwt>
<rscale>  0 0.93477087E+02</rscale>
<asrwt>0</asrwt>
<pdfrwt beam="1">  1        1 0.11773677E-01 0.93477087E+02</pdfrwt>
<pdfrwt beam="2">  1       -1 0.43914863E-02 0.93477087E+02</pdfrwt>
<totfact> 0.93403914E+04</totfact>
</mgrwt>
</event>
<event>
 5    1  0.6222456E+000  0.8613533E+02  0.7546771E-02  0.1312490E+00
          1   -1    0    0  501    0  0.00000000000E+00  0.00000000000E+00  0.26168586913E+02  0.26168586913E+02  0.00000000000E+00 0. -1.
         -1   -1    0    0    0  501 -0.00000000000E+00 -0.00000000000E+00 -0.70879783045E+02  0.70879783045E+02  0.00000000000E+00 0.  1.
         23    2    1    2    0    0  0.00000000000E+00  0.00000000000E+00 -0.44711196132E+02  0.97048369957E+02  0.86135329870E+02 0.  0.
        -11    1    3    3    0    0 -0.36608132273E+02 -0.18553841316E+02 -0.76469918875E+01  0.41747776720E+02  0.00000000000E+00 0. -1.
         11    1    3    3    0    0  0.36608132273E+02  0.18553841316E+02 -0.37064204245E+02  0.55300593238E+02  0.00000000000E+00 0.  1.
<mgrwt>
<rscale>  0 0.86135330E+02</rscale>
<asrwt>0</asrwt>
<pdfrwt beam="1">  1        1 0.40259365E-02 0.86135330E+02</pdfrwt>
<pdfrwt beam="2">  1       -1 0.10904582E-01 0.86135330E+02</pdfrwt>
<totfact> 0.99827442E+04</totfact>
</mgrwt>
</event>
<event>
 5    1  0.6222456E+000  0.8645914E+02  0.7546771E-02  0.1311660E+00
          2   -1    0    0  501    0  0.00000000000E+00  0.00000000000E+00  0.12574002269E+03  0.12574002269E+03  0.00000000000E+00 0. -1.
         -2   -1    0    0    0  501 -0.00000000000E+00 -0.00000000000E+00 -0.14862377510E+02  0.14862377510E+02  0.00000000000E+00 0.  1.
         23    2    1    2    0    0  0.00000000000E+00  0.00000000000E+00  0.11087764518E+03  0.14060240019E+03  0.86459139141E+02 0.  0.
        -11    1    3    3    0    0 -0.28441257620E+02  0.43403440438E+01  0.29679808327E+01  0.28923219593E+02  0.00000000000E+00 0.  1.
         11    1    3    3    0    0  0.28441257620E+02 -0.43403440438E+01  0.10790966434E+03  0.11167918060E+03  0.00000000000E+00 0. -1.
<mgrwt>
<rscale>  0 0.86459139E+02</rscale>
<asrwt>0</asrwt>
<pdfrwt beam="1">  1        2 0.19344618E-01 0.86459139E+02</pdfrwt>
<pdfrwt beam="2">  1       -2 0.22865197E-02 0.86459139E+02</pdfrwt>
<totfact> 0.15231758E+05</totfact>
</mgrwt>
</event>
<event>
 5    1  0.6222456E+000  0.9179981E+02  0.7546771E-02  0.1298551E+00
         -2   -1    0    0    0  501 -0.00000000000E+00  0.00000000000E+00  0.50277602660E+02  0.50277602660E+02  0.00000000000E+00 0.  1.
          2   -1    0    0  501    0  0.00000000000E+00 -0.00000000000E+00 -0.41903374796E+02  0.41903374796E+02  0.00000000000E+00 0. -1.
         23    2    1    2    0    0  0.00000000000E+00  0.00000000000E+00  0.83742278642E+01  0.92180977455E+02  0.91799808890E+02 0.  0.
        -11    1    3    3    0    0 -0.44244896897E+01 -0.35164920878E+02 -0.25099952203E+02  0.43429890282E+02  0.00000000000E+00 0. -1.
         11    1    3    3    0    0  0.44244896897E+01  0.35164920878E+02  0.33474180067E+02  0.48751087173E+02  0.00000000000E+00 0.  1.
<mgrwt>
<rscale>  0 0.91799809E+02</rscale>
<asrwt>0</asrwt>
<pdfrwt beam="2">  1        2 0.64466731E-02 0.91799809E+02</pdfrwt>
<pdfrwt beam="1">  1       -2 0.77350158E-02 0.91799809E+02</pdfrwt>
<totfact> 0.94660602E+04</totfact>
</mgrwt>
</event>
<event>
 5    1  0.6222456E+000  0.8331402E+02  0.7546771E-02  0.1319901E+00
         -1   -1    0    0    0  501 -0.00000000000E+00  0.00000000000E+00  0.11104643398E+03  0.11104643398E+03  0.00000000000E+00 0.  1.
          1   -1    0    0  501    0  0.00000000000E+00 -0.00000000000E+00 -0.15626852908E+02  0.15626852908E+02  0.00000000000E+00 0. -1.
         23    2    1    2    0    0  0.00000000000E+00  0.00000000000E+00  0.95419581069E+02  0.12667328689E+03  0.83314015381E+02 0.  0.
        -11    1    3    3    0    0 -0.31193241828E+02 -0.25066368767E+02  0.65307770842E+02  0.76592728841E+02  0.00000000000E+00 0.  1.
         11    1    3    3    0    0  0.31193241828E+02  0.25066368767E+02  0.30111810227E+02  0.50080558045E+02  0.00000000000E+00 0. -1.
<mgrwt>
<rscale>  0 0.83314015E+02</rscale>
<asrwt>0</asrwt>
<pdfrwt beam="2">  1        1 0.24041313E-02 0.83314015E+02</pdfrwt>
<pdfrwt beam="1">  1       -1 0.17084066E-01 0.83314015E+02</pdfrwt>
<totfact> 0.10060453E+05</totfact>
</mgrwt>
</event>
<event>
 5    1  0.6222456E+000  0.8622108E+02  0.7546771E-02  0.1312270E+00
          3   -1    0    0  501    0  0.00000000000E+00  0.00000000000E+00  0.11255435322E+02  0.11255435322E+02  0.00000000000E+00 0.  1.
         -3   -1    0    0    0  501 -0.00000000000E+00 -0.00000000000E+00 -0.16512189891E+03  0.16512189891E+03  0.00000000000E+00 0. -1.
         23    2    1    2    0    0  0.00000000000E+00  0.00000000000E+00 -0.15386646359E+03  0.17637733423E+03  0.86221084508E+02 0.  0.
        -11    1    3    3    0    0  0.38239439670E+02  0.14671778501E+01 -0.11754377933E+03  0.12361612927E+03  0.00000000000E+00 0. -1.
         11    1    3    3    0    0 -0.38239439670E+02 -0.14671778501E+01 -0.36322684257E+02  0.52761204959E+02  0.00000000000E+00 0.  1.
<mgrwt>
<rscale>  0 0.86221085E+02</rscale>
<asrwt>0</asrwt>
<pdfrwt beam="1">  1        3 0.17316054E-02 0.86221085E+02</pdfrwt>
<pdfrwt beam="2">  1       -3 0.25403369E-01 0.86221085E+02</pdfrwt>
<totfact> 0.34595358E+04</totfact>
</mgrwt>
</event>
<event>
 5    1  0.6222456E+000  0.9076832E+02  0.7546771E-02  0.1301002E+00
          2   -1    0    0  501    0  0.00000000000E+00  0.00000000000E+00  0.11663011124E+02  0.11663011124E+02  0.00000000000E+00 0. -1.
         -2   -1    0    0    0  501 -0.00000000000E+00 -0.00000000000E+00 -0.17660294727E+03  0.17660294727E+03  0.00000000000E+00 0.  1.
         23    2    1    2    0    0  0.00000000000E+00  0.00000000000E+00 -0.16493993614E+03  0.18826595839E+03  0.90768323517E+02 0.  0.
        -11    1    3    3    0    0 -0.21306679339E+02  0.31136828404E+02 -0.13478781192E+03  0.13996867831E+03  0.00000000000E+00 0.  1.
         11    1    3    3    0    0  0.21306679339E+02 -0.31136828404E+02 -0.30152124225E+02  0.48297280076E+02  0.00000000000E+00 0. -1.
<mgrwt>
<rscale>  0 0.90768324E+02</rscale>
<asrwt>0</asrwt>
<pdfrwt beam="1">  1        2 0.17943094E-02 0.90768324E+02</pdfrwt>
<pdfrwt beam="2">  1       -2 0.27169685E-01 0.90768324E+02</pdfrwt>
<totfact> 0.66390357E+04</totfact>
</mgrwt>
</event>
<event>
 5    1  0.6222456E+000  0.8933258E+02  0.7546771E-02  0.1304476E+00
         -1   -1    0    0    0  501 -0.00000000000E+00  0.00000000000E+00  0.12407788428E+03  0.12407788428E+03  0.00000000000E+00 0.  1.
          1   -1    0    0  501    0  0.00000000000E+00 -0.00000000000E+00 -0.16079233622E+02  0.16079233622E+02  0.00000000000E+00 0. -1.
         23    2    1    2    0    0  0.00000000000E+00  0.00000000000E+00  0.10799865066E+03  0.14015711790E+03  0.89332576112E+02 0.  0.
        -11    1    3    3    0    0  0.27652896131E+02 -0.21854726829E+02  0.97045559613E+02  0.10324801397E+03  0.00000000000E+00 0.  1.
         11    1    3    3    0    0 -0.27652896131E+02  0.21854726829E+02  0.10953091043E+02  0.36909103926E+02  0.00000000000E+00 0. -1.
<mgrwt>
<rscale>  0 0.89332576E+02</rscale>
<asrwt>0</asrwt>
<pdfrwt beam="2">  1        1 0.24737283E-02 0.89332576E+02</pdfrwt>
<pdfrwt beam="1">  1       -1 0.19088905E-01 0.89332576E+02</pdfrwt>
<totfact> 0.82218532E+04</totfact>
</mgrwt>
</event>
<event>
 5    1  0.6222456E+000  0.9210361E+02  0.7546771E-02  0.1297836E+00
         -1   -1    0    0    0  501 -0.00000000000E+00  0.00000000000E+00  0.18087907683E+02  0.18087907683E+02  0.00000000000E+00 0.  1.
          1   -1    0    0  501    0  0.00000000000E+00 -0.00000000000E+00 -0.11724786533E+03  0.11724786533E+03  0.00000000000E+00 0. -1.
         23    2    1    2    0    0  0.00000000000E+00  0.00000000000E+00 -0.99159957642E+02  0.13533577301E+03  0.92103606098E+02 0.  0.
        -11    1    3    3    0    0  0.33315148915E+01 -0.40770174852E+02 -0.80662358043E+02  0.90441816402E+02  0.00000000000E+00 0.  1.
         11    1    3    3    0    0 -0.33315148915E+01  0.40770174852E+02 -0.18497599599E+02  0.44893956607E+02  0.00000000000E+00 0. -1.
<mgrwt>
<rscale>  0 0.92103606E+02</rscale>
<asrwt>0</asrwt>
<pdfrwt beam="2">  1        1 0.18038133E-01 0.92103606E+02</pdfrwt>
<pdfrwt beam="1">  1       -1 0.27827550E-02 0.92103606E+02</pdfrwt>
<totfact> 0.10439726E+05</totfact>
</mgrwt>
</event>
<event>
 5    1  0.6222456E+000  0.9113256E+02  0.7546771E-02  0.1300132E+00
         -2   -1    0    0    0  501 -0.00000000000E+00  0.00000000000E+00  0.88849224786E+01  0.88849224786E+01  0.00000000000E+00 0.  1.
          2   -1    0    0  501    0  0.00000000000E+00 -0.00000000000E+00 -0.23368644733E+03  0.23368644733E+03  0.00000000000E+00 0. -1.
         23    2    1    2    0    0  0.00000000000E+00  0.00000000000E+00 -0.22480152485E+03  0.24257136981E+03  0.91132562102E+02 0.  0.
        -11    1    3    3    0    0  0.44327261227E+02  0.10369770137E+02 -0.10717957500E+03  0.11644698158E+03  0.00000000000E+00 0.  1.
         11    1    3    3    0    0 -0.44327261227E+02 -0.10369770137E+02 -0.11762194985E+03  0.12612438823E+03  0.00000000000E+00 0. -1.
<mgrwt>
<rscale>  0 0.91132562E+02</rscale>
<asrwt>0</asrwt>
<pdfrwt beam="2">  1        2 0.35951758E-01 0.91132562E+02</pdfrwt>
<pdfrwt beam="1">  1       -2 0.13669113E-02 0.91132562E+02</pdfrwt>
<totfact> 0.16394345E+05</totfact>
</mgrwt>
</event>
<event>
 5    1  0.6222456E+000  0.9882023E+02  0.7546771E-02  0.1282797E+00
         -4   -1    0    0    0  501 -0.00000000000E+00  0.00000000000E+00  0.69268934806E+02  0.69268934806E+02  0.00000000000E+00 0.  1.
          4   -1    0    0  501    0  0.00000000000E+00 -0.00000000000E+00 -0.35244650965E+02  0.35244650965E+02  0.00000000000E+00 0. -1.
         23    2    1    2    0    0  0.00000000000E+00  0.00000000000E+00  0.34024283841E+02  0.10451358577E+03  0.98820229305E+02 0.  0.
        -11    1    3    3    0    0 -0.70882561264E+01  0.40161979573E+02  0.46514272154E+02  0.61861179201E+02  0.00000000000E+00 0.  1.
         11    1    3    3    0    0  0.70882561264E+01 -0.40161979573E+02 -0.12489988313E+02  0.42652406570E+02  0.00000000000E+00 0. -1.
<mgrwt>
<rscale>  0 0.98820229E+02</rscale>
<asrwt>0</asrwt>
<pdfrwt beam="2">  1        4 0.54222540E-02 0.98820229E+02</pdfrwt>
<pdfrwt beam="1">  1       -4 0.10656759E-01 0.98820229E+02</pdfrwt>
<totfact> 0.21020449E+04</totfact>
</mgrwt>
</event>
<event>
 5    1  0.6222456E+000  0.9120401E+02  0.7546771E-02  0.1299962E+00
          3   -1    0    0  501    0  0.00000000000E+00  0.00000000000E+00  0.37459546613E+02  0.37459546613E+02  0.00000000000E+00 0. -1.
         -3   -1    0    0    0  501 -0.00000000000E+00 -0.00000000000E+00 -0.55514363059E+02  0.55514363059E+02  0.00000000000E+00 0.  1.
         23    2    1    2    0    0  0.00000000000E+00  0.00000000000E+00 -0.18054816446E+02  0.92973909673E+02  0.91204010235E+02 0.  0.
        -11    1    3    3    0    0 -0.32406660345E+02  0.75356966766E+01 -0.40818567762E+02  0.52660552915E+02  0.00000000000E+00 0.  1.
         11    1    3    3    0    0  0.32406660345E+02 -0.75356966766E+01  0.22763751316E+02  0.40313356758E+02  0.00000000000E+00 0. -1.
<mgrwt>
<rscale>  0 0.91204010E+02</rscale>
<asrwt>0</asrwt>
<pdfrwt beam="1">  1        3 0.57630072E-02 0.91204010E+02</pdfrwt>
<pdfrwt beam="2">  1       -3 0.85406712E-02 0.91204010E+02</pdfrwt>
<totfact> 0.35173091E+04</totfact>
</mgrwt>
</event>
<event>
 5    1  0.6222456E+000  0.1001700E+03  0.7546771E-02  0.1279939E+00
         -3   -1    0    0    0  501 -0.00000000000E+00  0.00000000000E+00  0.10622640811E+03  0.10622640811E+03  0.00000000000E+00 0.  1.
          3   -1    0    0  501    0  0.00000000000E+00 -0.00000000000E+00 -0.23614736417E+02  0.23614736417E+02  0.00000000000E+00 0. -1.
         23    2    1    2    0    0  0.00000000000E+00  0.00000000000E+00  0.82611671688E+02  0.12984114452E+03  0.10017002801E+03 0.  0.
        -11    1    3    3    0    0 -0.34668783849E+02 -0.16091205798E+01  0.88113014793E+02  0.94701727643E+02  0.00000000000E+00 0.  1.
         11    1    3    3    0    0  0.34668783849E+02  0.16091205798E+01 -0.55013431053E+01  0.35139416879E+02  0.00000000000E+00 0. -1.
<mgrwt>
<rscale>  0 0.10017003E+03</rscale>
<asrwt>0</asrwt>
<pdfrwt beam="2">  1        3 0.36330364E-02 0.10017003E+03</pdfrwt>
<pdfrwt beam="1">  1       -3 0.16342524E-01 0.10017003E+03</pdfrwt>
<totfact> 0.25203517E+04</totfact>
</mgrwt>
</event>
<event>
 5    1  0.6222456E+000  0.9069858E+02  0.7546771E-02  0.1301169E+00
          4   -1    0    0  501    0  0.00000000000E+00  0.00000000000E+00  0.33866308243E+02  0.33866308243E+02  0.00000000000E+00 0. -1.
         -4   -1    0    0    0  501 -0.00000000000E+00 -0.00000000000E+00 -0.60725788820E+02  0.60725788820E+02  0.00000000000E+00 0.  1.
         23    2    1    2    0    0  0.00000000000E+00  0.00000000000E+00 -0.26859480577E+02  0.94592097063E+02  0.90698583947E+02 0.  0.
        -11    1    3    3    0    0  0.36203447659E+02 -0.14013580258E+02 -0.37877188996E+02  0.54237915708E+02  0.00000000000E+00 0.  1.
         11    1    3    3    0    0 -0.36203447659E+02  0.14013580258E+02  0.11017708419E+02  0.40354181356E+02  0.00000000000E+00 0. -1.
<mgrwt>
<rscale>  0 0.90698584E+02</rscale>
<asrwt>0</asrwt>
<pdfrwt beam="1">  1        4 0.52102013E-02 0.90698584E+02</pdfrwt>
<pdfrwt beam="2">  1       -4 0.93424290E-02 0.90698584E+02</pdfrwt>
<totfact> 0.27182258E+04</totfact>
</mgrwt>
</event>
<event>
 5    1  0.6222456E+000  0.9295716E+02  0.7546771E-02  0.1295844E+00
         -1   -1    0    0    0  501 -0.00000000000E+00  0.00000000000E+00  0.49263112725E+02  0.49263112725E+02  0.00000000000E+00 0.  1.
          1   -1    0    0  501    0  0.00000000000E+00 -0.00000000000E+00 -0.43851438516E+02  0.43851438516E+02  0.00000000000E+00 0. -1.
         23    2    1    2    0    0  0.00000000000E+00  0.00000000000E+00  0.54116742085E+01  0.93114551241E+02  0.92957159139E+02 0.  0.
        -11    1    3    3    0    0 -0.51045550730E+01 -0.23347109596E+02  0.42637030189E+02  0.48878015020E+02  0.00000000000E+00 0.  1.
         11    1    3    3    0    0  0.51045550730E+01  0.23347109596E+02 -0.37225355980E+02  0.44236536221E+02  0.00000000000E+00 0. -1.
<mgrwt>
<rscale>  0 0.92957159E+02</rscale>
<asrwt>0</asrwt>
<pdfrwt beam="2">  1        1 0.67463752E-02 0.92957159E+02</pdfrwt>
<pdfrwt beam="1">  1       -1 0.75789404E-02 0.92957159E+02</pdfrwt>
<totfact> 0.87055312E+04</totfact>
</mgrwt>
</event>
<event>
 5    1  0.6222456E+000  0.9124512E+02  0.7546771E-02  0.1299864E+00
          1   -1    0    0  501    0  0.00000000000E+00  0.00000000000E+00  0.52201319904E+02  0.52201319904E+02  0.00000000000E+00 0. -1.
         -1   -1    0    0    0  501 -0.00000000000E+00 -0.00000000000E+00 -0.39872898558E+02  0.39872898558E+02  0.00000000000E+00 0.  1.
         23    2    1    2    0    0  0.00000000000E+00  0.00000000000E+00  0.12328421346E+02  0.92074218463E+02  0.91245118952E+02 0.  0.
        -11    1    3    3    0    0  0.41179651712E+02 -0.16207669202E+02 -0.50255385160E+01  0.44538840280E+02  0.00000000000E+00 0.  1.
         11    1    3    3    0    0 -0.41179651712E+02  0.16207669202E+02  0.17353959862E+02  0.47535378183E+02  0.00000000000E+00 0. -1.
<mgrwt>
<rscale>  0 0.91245119E+02</rscale>
<asrwt>0</asrwt>
<pdfrwt beam="1">  1        1 0.80309723E-02 0.91245119E+02</pdfrwt>
<pdfrwt beam="2">  1       -1 0.61342921E-02 0.91245119E+02</pdfrwt>
<totfact> 0.94175220E+04</totfact>
</mgrwt>
</event>
<event>
 5    1  0.6222456E+000  0.9337973E+02  0.7546771E-02  0.1294868E+00
          2   -1    0    0  501    0  0.00000000000E+00  0.00000000000E+00  0.12200032434E+03  0.12200032434E+03  0.00000000000E+00 0. -1.
         -2   -1    0    0    0  501 -0.00000000000E+00 -0.00000000000E+00 -0.17868342866E+02  0.17868342866E+02  0.00000000000E+00 0.  1.
         23    2    1    2    0    0  0.00000000000E+00  0.00000000000E+00  0.10413198148E+03  0.13986866721E+03  0.93379732815E+02 0.  0.
        -11    1    3    3    0    0  0.11658902581E+02 -0.23360012036E+02 -0.59129929593E+01  0.26769080250E+02  0.00000000000E+00 0.  1.
         11    1    3    3    0    0 -0.11658902581E+02  0.23360012036E+02  0.11004497444E+03  0.11309958696E+03  0.00000000000E+00 0. -1.
<mgrwt>
<rscale>  0 0.93379733E+02</rscale>
<asrwt>0</asrwt>
<pdfrwt beam="1">  1        2 0.18769280E-01 0.93379733E+02</pdfrwt>
<pdfrwt beam="2">  1       -2 0.27489759E-02 0.93379733E+02</pdfrwt>
<totfact> 0.12229085E+05</totfact>
</mgrwt>
</event>
<event>
 4    1  0.6222456E+000  0.5023092E+02  0.7546771E-02  0.1444100E+00
         -3   -1    0    0    0  501 -0.00000000000E+00  0.00000000000E+00  0.14289843218E+02  0.14289843218E+02  0.00000000000E+00 0.  1.
          3   -1    0    0  501    0  0.00000000000E+00 -0.00000000000E+00 -0.44142283553E+02  0.44142283553E+02  0.00000000000E+00 0. -1.
        -11    1    1    2    0    0 -0.23717835486E+02 -0.19242689988E+01 -0.55803181641E+01  0.24441327340E+02  0.00000000000E+00 0.  1.
         11    1    1    2    0    0  0.23717835486E+02  0.19242689988E+01 -0.24272122171E+02  0.33990799431E+02  0.00000000000E+00 0. -1.
<mgrwt>
<rscale>  0 0.50230919E+02</rscale>
<asrwt>0</asrwt>
<pdfrwt beam="2">  1        3 0.67911205E-02 0.50230919E+02</pdfrwt>
<pdfrwt beam="1">  1       -3 0.21984374E-02 0.50230919E+02</pdfrwt>
<totfact> 0.18272599E+05</totfact>
</mgrwt>
</event>
<event>
 5    1  0.6222456E+000  0.9207453E+02  0.7546771E-02  0.1297904E+00
          1   -1    0    0  501    0  0.00000000000E+00  0.00000000000E+00  0.55143893594E+02  0.55143893594E+02  0.00000000000E+00 0. -1.
         -1   -1    0    0    0  501 -0.00000000000E+00 -0.00000000000E+00 -0.38434535191E+02  0.38434535191E+02  0.00000000000E+00 0.  1.
         23    2    1    2    0    0  0.00000000000E+00  0.00000000000E+00  0.16709358403E+02  0.93578428786E+02  0.92074533264E+02 0.  0.
        -11    1    3    3    0    0  0.22872540850E+02 -0.28004871481E+02 -0.20606437156E+02  0.41617919264E+02  0.00000000000E+00 0.  1.
         11    1    3    3    0    0 -0.22872540850E+02  0.28004871481E+02  0.37315795559E+02  0.51960509522E+02  0.00000000000E+00 0. -1.
<mgrwt>
<rscale>  0 0.92074533E+02</rscale>
<asrwt>0</asrwt>
<pdfrwt beam="1">  1        1 0.84836760E-02 0.92074533E+02</pdfrwt>
<pdfrwt beam="2">  1       -1 0.59130054E-02 0.92074533E+02</pdfrwt>
<totfact> 0.92588544E+04</totfact>
</mgrwt>
</event>
<event>
 5    1  0.6222456E+000  0.9091719E+02  0.7546771E-02  0.1300646E+00
          4   -1    0    0  501    0  0.00000000000E+00  0.00000000000E+00  0.10514902551E+02  0.10514902551E+02  0.00000000000E+00 0. -1.
         -4   -1    0    0    0  501 -0.00000000000E+00 -0.00000000000E+00 -0.19652907170E+03  0.19652907170E+03  0.00000000000E+00 0.  1.
         23    2    1    2    0    0  0.00000000000E+00  0.00000000000E+00 -0.18601416915E+03  0.20704397425E+03  0.90917193918E+02 0.  0.
        -11    1    3    3    0    0 -0.44784864607E+02  0.28861958278E+01 -0.76511362471E+02  0.88701763294E+02  0.00000000000E+00 0. -1.
         11    1    3    3    0    0  0.44784864607E+02 -0.28861958278E+01 -0.10950280668E+03  0.11834221096E+03  0.00000000000E+00 0.  1.
<mgrwt>
<rscale>  0 0.90917194E+02</rscale>
<asrwt>0</asrwt>
<pdfrwt beam="1">  1        4 0.16176774E-02 0.90917194E+02</pdfrwt>
<pdfrwt beam="2">  1       -4 0.30235240E-01 0.90917194E+02</pdfrwt>
<totfact> 0.21257085E+04</totfact>
</mgrwt>
</event>
<event>
 5    1  0.6222456E+000  0.8935143E+02  0.7546771E-02  0.1304430E+00
         -1   -1    0    0    0  501 -0.00000000000E+00  0.00000000000E+00  0.64998753320E+01  0.64998753320E+01  0.00000000000E+00 0.  1.
          1   -1    0    0  501    0  0.00000000000E+00 -0.00000000000E+00 -0.30707043970E+03  0.30707043970E+03  0.00000000000E+00 0. -1.
         23    2    1    2    0    0  0.00000000000E+00  0.00000000000E+00 -0.30057056436E+03  0.31357031503E+03  0.89351431464E+02 0.  0.
        -11    1    3    3    0    0  0.25136290537E+02  0.35202834543E+02 -0.11107298059E+03  0.11919848858E+03  0.00000000000E+00 0.  1.
         11    1    3    3    0    0 -0.25136290537E+02 -0.35202834543E+02 -0.18949758377E+03  0.19437182645E+03  0.00000000000E+00 0. -1.
<mgrwt>
<rscale>  0 0.89351431E+02</rscale>
<asrwt>0</asrwt>
<pdfrwt beam="2">  1        1 0.47241604E-01 0.89351431E+02</pdfrwt>
<pdfrwt beam="1">  1       -1 0.99998088E-03 0.89351431E+02</pdfrwt>
<totfact> 0.13580141E+05</totfact>
</mgrwt>
</event>
<event>
 5    1  0.6222456E+000  0.8735045E+02  0.7546771E-02  0.1309398E+00
          2   -1    0    0  501    0  0.00000000000E+00  0.00000000000E+00  0.11481870313E+03  0.11481870313E+03  0.00000000000E+00 0. -1.
         -2   -1    0    0    0  501 -0.00000000000E+00 -0.00000000000E+00 -0.16613367900E+02  0.16613367900E+02  0.00000000000E+00 0.  1.
         23    2    1    2    0    0  0.00000000000E+00  0.00000000000E+00  0.98205335225E+02  0.13143207103E+03  0.87350451787E+02 0.  0.
        -11    1    3    3    0    0 -0.88035465964E+01  0.39171840469E+02  0.74971745346E+02  0.85045270995E+02  0.00000000000E+00 0. -1.
         11    1    3    3    0    0  0.88035465964E+01 -0.39171840469E+02  0.23233589879E+02  0.46386800030E+02  0.00000000000E+00 0.  1.
<mgrwt>
<rscale>  0 0.87350452E+02</rscale>
<asrwt>0</asrwt>
<pdfrwt beam="1">  1        2 0.17664415E-01 0.87350452E+02</pdfrwt>
<pdfrwt beam="2">  1       -2 0.25559028E-02 0.87350452E+02</pdfrwt>
<totfact> 0.14394017E+05</totfact>
</mgrwt>
</event>
<event>
 5    1  0.6222456E+000  0.9172602E+02  0.7546771E-02  0.1298725E+00
         -2   -1    0    0    0  501 -0.00000000000E+00  0.00000000000E+00  0.11610343420E+02  0.11610343420E+02  0.00000000000E+00 0.  1.
          2   -1    0    0  501    0  0.00000000000E+00 -0.00000000000E+00 -0.18116737997E+03  0.18116737997E+03  0.00000000000E+00 0. -1.
         23    2    1    2    0    0  0.00000000000E+00  0.00000000000E+00 -0.16955703655E+03  0.19277772339E+03  0.91726015895E+02 0.  0.
        -11    1    3    3    0    0  0.39751368233E+02  0.22236210833E+02 -0.96056307789E+02  0.10630820577E+03  0.00000000000E+00 0. -1.
         11    1    3    3    0    0 -0.39751368233E+02 -0.22236210833E+02 -0.73500728758E+02  0.86469517615E+02  0.00000000000E+00 0.  1.
<mgrwt>
<rscale>  0 0.91726016E+02</rscale>
<asrwt>0</asrwt>
<pdfrwt beam="2">  1        2 0.27871901E-01 0.91726016E+02</pdfrwt>
<pdfrwt beam="1">  1       -2 0.17862069E-02 0.91726016E+02</pdfrwt>
<totfact> 0.14688583E+05</totfact>
</mgrwt>
</event>
<event>
 5    1  0.6222456E+000  0.8876286E+02  0.7546771E-02  0.1305876E+00
          1   -1    0    0  501    0  0.00000000000E+00  0.00000000000E+00  0.20238662457E+03  0.20238662457E+03  0.00000000000E+00 0. -1.
         -1   -1    0    0    0  501 -0.00000000000E+00 -0.00000000000E+00 -0.97324182433E+01  0.97324182433E+01  0.00000000000E+00 0.  1.
         23    2    1    2    0    0  0.00000000000E+00  0.00000000000E+00  0.19265420633E+03  0.21211904281E+03  0.88762858835E+02 0.  0.
        -11    1    3    3    0    0  0.11704036237E+02  0.37238626521E+02  0.14679572082E+03  0.15189695000E+03  0.00000000000E+00 0. -1.
         11    1    3    3    0    0 -0.11704036237E+02 -0.37238626521E+02  0.45858485510E+02  0.60222092813E+02  0.00000000000E+00 0.  1.
<mgrwt>
<rscale>  0 0.88762859E+02</rscale>
<asrwt>0</asrwt>
<pdfrwt beam="1">  1        1 0.31136401E-01 0.88762859E+02</pdfrwt>
<pdfrwt beam="2">  1       -1 0.14972953E-02 0.88762859E+02</pdfrwt>
<totfact> 0.12751248E+05</totfact>
</mgrwt>
</event>
<event>
 5    1  0.6222456E+000  0.8874181E+02  0.7546771E-02  0.1305927E+00
          3   -1    0    0  501    0  0.00000000000E+00  0.00000000000E+00  0.79560654813E+02  0.79560654813E+02  0.00000000000E+00 0. -1.
         -3   -1    0    0    0  501 -0.00000000000E+00 -0.00000000000E+00 -0.24745615515E+02  0.24745615515E+02  0.00000000000E+00 0.  1.
         23    2    1    2    0    0  0.00000000000E+00  0.00000000000E+00  0.54815039298E+02  0.10430627033E+03  0.88741813688E+02 0.  0.
        -11    1    3    3    0    0 -0.44356258367E+02  0.11201677605E+01  0.27656696971E+02  0.52284082850E+02  0.00000000000E+00 0. -1.
         11    1    3    3    0    0  0.44356258367E+02 -0.11201677605E+01  0.27158342326E+02  0.52022187478E+02  0.00000000000E+00 0.  1.
<mgrwt>
<rscale>  0 0.88741814E+02</rscale>
<asrwt>0</asrwt>
<pdfrwt beam="1">  1        3 0.12240101E-01 0.88741814E+02</pdfrwt>
<pdfrwt beam="2">  1       -3 0.38070178E-02 0.88741814E+02</pdfrwt>
<totfact> 0.36971432E+04</totfact>
</mgrwt>
</event>
<event>
 5    1  0.6222456E+000  0.9173188E+02  0.7546771E-02  0.1298711E+00
         -3   -1    0    0    0  501 -0.00000000000E+00  0.00000000000E+00  0.21462317038E+02  0.21462317038E+02  0.00000000000E+00 0.  1.
          3   -1    0    0  501    0  0.00000000000E+00 -0.00000000000E+00 -0.98017593627E+02  0.98017593627E+02  0.00000000000E+00 0. -1.
         23    2    1    2    0    0  0.00000000000E+00  0.00000000000E+00 -0.76555276589E+02  0.11947991066E+03  0.91731884745E+02 0.  0.
        -11    1    3    3    0    0  0.96432281075E+01 -0.41248999646E+02 -0.61181216601E+02  0.74415140160E+02  0.00000000000E+00 0. -1.
         11    1    3    3    0    0 -0.96432281075E+01  0.41248999646E+02 -0.15374059988E+02  0.45064770505E+02  0.00000000000E+00 0.  1.
<mgrwt>
<rscale>  0 0.91731885E+02</rscale>
<asrwt>0</asrwt>
<pdfrwt beam="2">  1        3 0.15079630E-01 0.91731885E+02</pdfrwt>
<pdfrwt beam="1">  1       -3 0.33018949E-02 0.91731885E+02</pdfrwt>
<totfact> 0.32736694E+04</totfact>
</mgrwt>
</event>
<event>
 5    1  0.6222456E+000  0.9262878E+02  0.7546771E-02  0.1296608E+00
          2   -1    0    0  501    0  0.00000000000E+00  0.00000000000E+00  0.49360347143E+02  0.49360347143E+02  0.00000000000E+00 0.  1.
         -2   -1    0    0    0  501 -0.00000000000E+00 -0.00000000000E+00 -0.43456395618E+02  0.43456395618E+02  0.00000000000E+00 0. -1.
         23    2    1    2    0    0  0.00000000000E+00  0.00000000000E+00  0.59039515258E+01  0.92816742761E+02  0.92628781127E+02 0.  0.
        -11    1    3    3    0    0 -0.32757299905E+02 -0.24261500479E+02 -0.19078124756E+02  0.45007065520E+02  0.00000000000E+00 0. -1.
         11    1    3    3    0    0  0.32757299905E+02  0.24261500479E+02  0.24982076282E+02  0.47809677241E+02  0.00000000000E+00 0.  1.
<mgrwt>
<rscale>  0 0.92628781E+02</rscale>
<asrwt>0</asrwt>
<pdfrwt beam="1">  1        2 0.75938995E-02 0.92628781E+02</pdfrwt>
<pdfrwt beam="2">  1       -2 0.66855994E-02 0.92628781E+02</pdfrwt>
<totfact> 0.96284334E+04</totfact>
</mgrwt>
</event>
<event>
 5    1  0.6222456E+000  0.9306707E+02  0.7546771E-02  0.1295590E+00
         -1   -1    0    0    0  501 -0.00000000000E+00  0.00000000000E+00  0.40039880656E+03  0.40039880656E+03  0.00000000000E+00 0.  1.
          1   -1    0    0  501    0  0.00000000000E+00 -0.00000000000E+00 -0.54080327676E+01  0.54080327676E+01  0.00000000000E+00 0. -1.
         23    2    1    2    0    0  0.00000000000E+00  0.00000000000E+00  0.39499077380E+03  0.40580683933E+03  0.93067069708E+02 0.  0.
        -11    1    3    3    0    0 -0.20709582854E+01 -0.45903007542E+02  0.16545485787E+03  0.17171687443E+03  0.00000000000E+00 0. -1.
         11    1    3    3    0    0  0.20709582854E+01  0.45903007542E+02  0.22953591592E+03  0.23408996490E+03  0.00000000000E+00 0.  1.
<mgrwt>
<rscale>  0 0.93067070E+02</rscale>
<asrwt>0</asrwt>
<pdfrwt beam="2">  1        1 0.83200536E-03 0.93067070E+02</pdfrwt>
<pdfrwt beam="1">  1       -1 0.61599793E-01 0.93067070E+02</pdfrwt>
<totfact> 0.50471672E+04</totfact>
</mgrwt>
</event>
<event>
 5    1  0.6222456E+000  0.9030396E+02  0.7546771E-02  0.1302117E+00
         -2   -1    0    0    0  501 -0.00000000000E+00  0.00000000000E+00  0.26046102081E+02  0.26046102081E+02  0.00000000000E+00 0.  1.
          2   -1    0    0  501    0  0.00000000000E+00 -0.00000000000E+00 -0.78272806320E+02  0.78272806320E+02  0.00000000000E+00 0. -1.
         23    2    1    2    0    0  0.00000000000E+00  0.00000000000E+00 -0.52226704239E+02  0.10431890840E+03  0.90303964555E+02 0.  0.
        -11    1    3    3    0    0 -0.19613614620E+02 -0.38642792788E+02 -0.40759423893E+02  0.59491931797E+02  0.00000000000E+00 0. -1.
         11    1    3    3    0    0  0.19613614620E+02  0.38642792788E+02 -0.11467280347E+02  0.44826976604E+02  0.00000000000E+00 0.  1.
<mgrwt>
<rscale>  0 0.90303965E+02</rscale>
<asrwt>0</asrwt>
<pdfrwt beam="2">  1        2 0.12041970E-01 0.90303965E+02</pdfrwt>
<pdfrwt beam="1">  1       -2 0.40070927E-02 0.90303965E+02</pdfrwt>
<totfact> 0.11723435E+05</totfact>
</mgrwt>
</event>
<event>
 5    1  0.6222456E+000  0.9132202E+02  0.7546771E-02  0.1299681E+00
          1   -1    0    0  501    0  0.00000000000E+00  0.00000000000E+00  0.52496000972E+02  0.52496000972E+02  0.00000000000E+00 0. -1.
         -1   -1    0    0    0  501 -0.00000000000E+00 -0.00000000000E+00 -0.39715932150E+02  0.39715932150E+02  0.00000000000E+00 0.  1.
         23    2    1    2    0    0  0.00000000000E+00  0.00000000000E+00  0.12780068822E+02  0.92211933121E+02  0.91322015149E+02 0.  0.
        -11    1    3    3    0    0 -0.19019721327E+02  0.27443833801E+02  0.37838582277E+02  0.50464563029E+02  0.00000000000E+00 0. -1.
         11    1    3    3    0    0  0.19019721327E+02 -0.27443833801E+02 -0.25058513455E+02  0.41747370092E+02  0.00000000000E+00 0.  1.
<mgrwt>
<rscale>  0 0.91322015E+02</rscale>
<asrwt>0</asrwt>
<pdfrwt beam="1">  1        1 0.80763079E-02 0.91322015E+02</pdfrwt>
<pdfrwt beam="2">  1       -1 0.61101434E-02 0.91322015E+02</pdfrwt>
<totfact> 0.94033379E+04</totfact>
</mgrwt>
</event>
<event>
 5    1  0.6222456E+000  0.9140940E+02  0.7546771E-02  0.1299474E+00
          1   -1    0    0  501    0  0.00000000000E+00  0.00000000000E+00  0.36597849784E+02  0.36597849784E+02  0.00000000000E+00 0. -1.
         -1   -1    0    0    0  501 -0.00000000000E+00 -0.00000000000E+00 -0.57077664513E+02  0.57077664513E+02  0.00000000000E+00 0.  1.
         23    2    1    2    0    0  0.00000000000E+00  0.00000000000E+00 -0.20479814729E+02  0.93675514297E+02  0.91409404152E+02 0.  0.
        -11    1    3    3    0    0  0.43724352051E+02  0.10705169061E+02 -0.21382129261E+01  0.45066523733E+02  0.00000000000E+00 0.  1.
         11    1    3    3    0    0 -0.43724352051E+02 -0.10705169061E+02 -0.18341601803E+02  0.48608990563E+02  0.00000000000E+00 0. -1.
<mgrwt>
<rscale>  0 0.91409404E+02</rscale>
<asrwt>0</asrwt>
<pdfrwt beam="1">  1        1 0.56304384E-02 0.91409404E+02</pdfrwt>
<pdfrwt beam="2">  1       -1 0.87811792E-02 0.91409404E+02</pdfrwt>
<totfact> 0.88794472E+04</totfact>
</mgrwt>
</event>
<event>
 5    1  0.6222456E+000  0.8580276E+02  0.7546771E-02  0.1313346E+00
          1   -1    0    0  501    0  0.00000000000E+00  0.00000000000E+00  0.24460515800E+03  0.24460515800E+03  0.00000000000E+00 0. -1.
         -1   -1    0    0    0  501 -0.00000000000E+00 -0.00000000000E+00 -0.75244872078E+01  0.75244872078E+01  0.00000000000E+00 0.  1.
         23    2    1    2    0    0  0.00000000000E+00  0.00000000000E+00  0.23708067079E+03  0.25212964521E+03  0.85802759451E+02 0.  0.
        -11    1    3    3    0    0 -0.39157369245E+02  0.17485935588E+02  0.12210410989E+03  0.12941588451E+03  0.00000000000E+00 0.  1.
         11    1    3    3    0    0  0.39157369245E+02 -0.17485935588E+02  0.11497656090E+03  0.12271376070E+03  0.00000000000E+00 0. -1.
<mgrwt>
<rscale>  0 0.85802759E+02</rscale>
<asrwt>0</asrwt>
<pdfrwt beam="1">  1        1 0.37631557E-01 0.85802759E+02</pdfrwt>
<pdfrwt beam="2">  1       -1 0.11576136E-02 0.85802759E+02</pdfrwt>
<totfact> 0.14476354E+05</totfact>
</mgrwt>
</event>
<event>
 5    1  0.6222456E+000  0.9166773E+02  0.7546771E-02  0.1298863E+00
         -2   -1    0    0    0  501 -0.00000000000E+00  0.00000000000E+00  0.95583618751E+02  0.95583618751E+02  0.00000000000E+00 0.  1.
          2   -1    0    0  501    0  0.00000000000E+00 -0.00000000000E+00 -0.21978067937E+02  0.21978067937E+02  0.00000000000E+00 0. -1.
         23    2    1    2    0    0  0.00000000000E+00  0.00000000000E+00  0.73605550814E+02  0.11756168669E+03  0.91667731871E+02 0.  0.
        -11    1    3    3    0    0  0.99303417395E+00  0.39970447285E+02  0.80649900886E+01  0.40788072254E+02  0.00000000000E+00 0.  1.
         11    1    3    3    0    0 -0.99303417395E+00 -0.39970447285E+02  0.65540560726E+02  0.76773614434E+02  0.00000000000E+00 0. -1.
<mgrwt>
<rscale>  0 0.91667732E+02</rscale>
<asrwt>0</asrwt>
<pdfrwt beam="2">  1        2 0.33812413E-02 0.91667732E+02</pdfrwt>
<pdfrwt beam="1">  1       -2 0.14705172E-01 0.91667732E+02</pdfrwt>
<totfact> 0.79807684E+04</totfact>
</mgrwt>
</event>
<event>
 5    1  0.6222456E+000  0.1030064E+03  0.7546771E-02  0.1274098E+00
          4   -1    0    0  501    0  0.00000000000E+00  0.00000000000E+00  0.20244534615E+03  0.20244534615E+03  0.00000000000E+00 0. -1.
         -4   -1    0    0    0  501 -0.00000000000E+00 -0.00000000000E+00 -0.13102688490E+02  0.13102688490E+02  0.00000000000E+00 0.  1.
         23    2    1    2    0    0  0.00000000000E+00  0.00000000000E+00  0.18934265766E+03  0.21554803464E+03  0.10300637470E+03 0.  0.
        -11    1    3    3    0    0 -0.40307750696E+02  0.27911653981E+01  0.16150504002E+03  0.16648238142E+03  0.00000000000E+00 0. -1.
         11    1    3    3    0    0  0.40307750696E+02 -0.27911653981E+01  0.27837617642E+02  0.49065653225E+02  0.00000000000E+00 0.  1.
<mgrwt>
<rscale>  0 0.10300637E+03</rscale>
<asrwt>0</asrwt>
<pdfrwt beam="1">  1        4 0.31145436E-01 0.10300637E+03</pdfrwt>
<pdfrwt beam="2">  1       -4 0.20157984E-02 0.10300637E+03</pdfrwt>
<totfact> 0.14932708E+04</totfact>
</mgrwt>
</event>
<event>
 5    1  0.6222456E+000  0.9072092E+02  0.7546771E-02  0.1301115E+00
          1   -1    0    0  501    0  0.00000000000E+00  0.00000000000E+00  0.18916600540E+03  0.18916600540E+03  0.00000000000E+00 0. -1.
         -1   -1    0    0    0  501 -0.00000000000E+00 -0.00000000000E+00 -0.10877066609E+02  0.10877066609E+02  0.00000000000E+00 0.  1.
         23    2    1    2    0    0  0.00000000000E+00  0.00000000000E+00  0.17828893879E+03  0.20004307201E+03  0.90720918003E+02 0.  0.
        -11    1    3    3    0    0 -0.64410232454E+01 -0.29032935964E+02  0.13618357903E+02  0.32708681159E+02  0.00000000000E+00 0.  1.
         11    1    3    3    0    0  0.64410232454E+01  0.29032935964E+02  0.16467058089E+03  0.16733439085E+03  0.00000000000E+00 0. -1.
<mgrwt>
<rscale>  0 0.90720918E+02</rscale>
<asrwt>0</asrwt>
<pdfrwt beam="1">  1        1 0.29102460E-01 0.90720918E+02</pdfrwt>
<pdfrwt beam="2">  1       -1 0.16733950E-02 0.90720918E+02</pdfrwt>
<totfact> 0.11872406E+05</totfact>
</mgrwt>
</event>
<event>
 5    1  0.6222456E+000  0.9071522E+02  0.7546771E-02  0.1301129E+00
          2   -1    0    0  501    0  0.00000000000E+00  0.00000000000E+00  0.14665957235E+03  0.14665957235E+03  0.00000000000E+00 0. -1.
         -2   -1    0    0    0  501 -0.00000000000E+00 -0.00000000000E+00 -0.14027810977E+02  0.14027810977E+02  0.00000000000E+00 0.  1.
         23    2    1    2    0    0  0.00000000000E+00  0.00000000000E+00  0.13263176138E+03  0.16068738333E+03  0.90715219427E+02 0.  0.
        -11    1    3    3    0    0  0.30260244184E+02  0.20042084812E+02  0.18132040809E+02  0.40572631731E+02  0.00000000000E+00 0.  1.
         11    1    3    3    0    0 -0.30260244184E+02 -0.20042084812E+02  0.11449972057E+03  0.12011475160E+03  0.00000000000E+00 0. -1.
<mgrwt>
<rscale>  0 0.90715219E+02</rscale>
<asrwt>0</asrwt>
<pdfrwt beam="1">  1        2 0.22563010E-01 0.90715219E+02</pdfrwt>
<pdfrwt beam="2">  1       -2 0.21581249E-02 0.90715219E+02</pdfrwt>
<totfact> 0.14067029E+05</totfact>
</mgrwt>
</event>
<event>
 5    1  0.6222456E+000  0.9129167E+02  0.7546771E-02  0.1299754E+00
          2   -1    0    0  501    0  0.00000000000E+00  0.00000000000E+00  0.14887624062E+03  0.14887624062E+03  0.00000000000E+00 0. -1.
         -2   -1    0    0    0  501 -0.00000000000E+00 -0.00000000000E+00 -0.13995129122E+02  0.13995129122E+02  0.00000000000E+00 0.  1.
         23    2    1    2    0    0  0.00000000000E+00  0.00000000000E+00  0.13488111149E+03  0.16287136974E+03  0.91291669075E+02 0.  0.
        -11    1    3    3    0    0  0.22889199990E+02  0.37340995284E+02  0.44504456629E+02  0.62441268924E+02  0.00000000000E+00 0.  1.
         11    1    3    3    0    0 -0.22889199990E+02 -0.37340995284E+02  0.90376654865E+02  0.10043010081E+03  0.00000000000E+00 0. -1.
<mgrwt>
<rscale>  0 0.91291669E+02</rscale>
<asrwt>0</asrwt>
<pdfrwt beam="1">  1        2 0.22904036E-01 0.91291669E+02</pdfrwt>
<pdfrwt beam="2">  1       -2 0.21530969E-02 0.91291669E+02</pdfrwt>
<totfact> 0.13897667E+05</totfact>
</mgrwt>
</event>
<event>
 5    1  0.6222456E+000  0.9110361E+02  0.7546771E-02  0.1300201E+00
          4   -1    0    0  501    0  0.00000000000E+00  0.00000000000E+00  0.25686699690E+03  0.25686699690E+03  0.00000000000E+00 0. -1.
         -4   -1    0    0    0  501 -0.00000000000E+00 -0.00000000000E+00 -0.80779823012E+01  0.80779823012E+01  0.00000000000E+00 0.  1.
         23    2    1    2    0    0  0.00000000000E+00  0.00000000000E+00  0.24878901460E+03  0.26494497920E+03  0.91103612546E+02 0.  0.
        -11    1    3    3    0    0 -0.10442401702E+02  0.37589382430E+02  0.56008445602E+02  0.68256511803E+02  0.00000000000E+00 0.  1.
         11    1    3    3    0    0  0.10442401702E+02 -0.37589382430E+02  0.19278056900E+03  0.19668846740E+03  0.00000000000E+00 0. -1.
<mgrwt>
<rscale>  0 0.91103613E+02</rscale>
<asrwt>0</asrwt>
<pdfrwt beam="1">  1        4 0.39517993E-01 0.91103613E+02</pdfrwt>
<pdfrwt beam="2">  1       -4 0.12427667E-02 0.91103613E+02</pdfrwt>
<totfact> 0.18987023E+04</totfact>
</mgrwt>
</event>
<event>
 5    1  0.6222456E+000  0.8660966E+02  0.7546771E-02  0.1311276E+00
         -2   -1    0    0    0  501 -0.00000000000E+00  0.00000000000E+00  0.12813026709E+02  0.12813026709E+02  0.00000000000E+00 0.  1.
          2   -1    0    0  501    0  0.00000000000E+00 -0.00000000000E+00 -0.14635949895E+03  0.14635949895E+03  0.00000000000E+00 0. -1.
         23    2    1    2    0    0  0.00000000000E+00  0.00000000000E+00 -0.13354647224E+03  0.15917252566E+03  0.86609656950E+02 0.  0.
        -11    1    3    3    0    0  0.39008314799E+02  0.79524451637E+01 -0.98092653544E+02  0.10586339635E+03  0.00000000000E+00 0. -1.
         11    1    3    3    0    0 -0.39008314799E+02 -0.79524451637E+01 -0.35453818700E+02  0.53309129312E+02  0.00000000000E+00 0.  1.
<mgrwt>
<rscale>  0 0.86609657E+02</rscale>
<asrwt>0</asrwt>
<pdfrwt beam="2">  1        2 0.22516848E-01 0.86609657E+02</pdfrwt>
<pdfrwt beam="1">  1       -2 0.19712347E-02 0.86609657E+02</pdfrwt>
<totfact> 0.15932870E+05</totfact>
</mgrwt>
</event>
<event>
 5    1  0.6222456E+000  0.9212268E+02  0.7546771E-02  0.1297791E+00
         -1   -1    0    0    0  501 -0.00000000000E+00  0.00000000000E+00  0.57807536790E+02  0.57807536790E+02  0.00000000000E+00 0.  1.
          1   -1    0    0  501    0  0.00000000000E+00 -0.00000000000E+00 -0.36701909575E+02  0.36701909575E+02  0.00000000000E+00 0. -1.
         23    2    1    2    0    0  0.00000000000E+00  0.00000000000E+00  0.21105627215E+02  0.94509446365E+02  0.92122678816E+02 0.  0.
        -11    1    3    3    0    0  0.37880962367E+02  0.24812675999E+02  0.19076975725E+01  0.45324116209E+02  0.00000000000E+00 0. -1.
         11    1    3    3    0    0 -0.37880962367E+02 -0.24812675999E+02  0.19197929643E+02  0.49185330157E+02  0.00000000000E+00 0.  1.
<mgrwt>
<rscale>  0 0.92122679E+02</rscale>
<asrwt>0</asrwt>
<pdfrwt beam="2">  1        1 0.56464476E-02 0.92122679E+02</pdfrwt>
<pdfrwt beam="1">  1       -1 0.88934672E-02 0.92122679E+02</pdfrwt>
<totfact> 0.86891564E+04</totfact>
</mgrwt>
</event>
<event>
 5    1  0.6222456E+000  0.9153965E+02  0.7546771E-02  0.1299165E+00
          1   -1    0    0  501    0  0.00000000000E+00  0.00000000000E+00  0.31948286026E+03  0.31948286026E+03  0.00000000000E+00 0. -1.
         -1   -1    0    0    0  501 -0.00000000000E+00 -0.00000000000E+00 -0.65570870912E+01  0.65570870912E+01  0.00000000000E+00 0.  1.
         23    2    1    2    0    0  0.00000000000E+00  0.00000000000E+00  0.31292577317E+03  0.32603994735E+03  0.91539651274E+02 0.  0.
        -11    1    3    3    0    0 -0.35296503012E+02 -0.25115683115E+02  0.20907975921E+03  0.21352045891E+03  0.00000000000E+00 0.  1.
         11    1    3    3    0    0  0.35296503012E+02  0.25115683115E+02  0.10384601396E+03  0.11251948844E+03  0.00000000000E+00 0. -1.
<mgrwt>
<rscale>  0 0.91539651E+02</rscale>
<asrwt>0</asrwt>
<pdfrwt beam="1">  1        1 0.49151197E-01 0.91539651E+02</pdfrwt>
<pdfrwt beam="2">  1       -1 0.10087829E-02 0.91539651E+02</pdfrwt>
<totfact> 0.12828754E+05</totfact>
</mgrwt>
</event>
<event>
 5    1  0.6222456E+000  0.9136271E+02  0.7546771E-02  0.1299585E+00
         -1   -1    0    0    0  501 -0.00000000000E+00  0.00000000000E+00  0.44999728856E+02  0.44999728856E+02  0.00000000000E+00 0.  1.
          1   -1    0    0  501    0  0.00000000000E+00 -0.00000000000E+00 -0.46373306780E+02  0.46373306780E+02  0.00000000000E+00 0. -1.
         23    2    1    2    0    0  0.00000000000E+00  0.00000000000E+00 -0.13735779235E+01  0.91373035636E+02  0.91362710801E+02 0.  0.
        -11    1    3    3    0    0  0.44875276748E+02 -0.65732429969E+01  0.47716886266E+01  0.45604462491E+02  0.00000000000E+00 0.  1.
         11    1    3    3    0    0 -0.44875276748E+02  0.65732429969E+01 -0.61452665500E+01  0.45768573145E+02  0.00000000000E+00 0. -1.
<mgrwt>
<rscale>  0 0.91362711E+02</rscale>
<asrwt>0</asrwt>
<pdfrwt beam="2">  1        1 0.71343548E-02 0.91362711E+02</pdfrwt>
<pdfrwt beam="1">  1       -1 0.69230352E-02 0.91362711E+02</pdfrwt>
<totfact> 0.92181205E+04</totfact>
</mgrwt>
</event>
<event>
 5    1  0.6222456E+000  0.9158322E+02  0.7546771E-02  0.1299062E+00
         -2   -1    0    0    0  501 -0.00000000000E+00  0.00000000000E+00  0.44844971184E+02  0.44844971184E+02  0.00000000000E+00 0.  1.
          2   -1    0    0  501    0  0.00000000000E+00 -0.00000000000E+00 -0.46758226786E+02  0.46758226786E+02  0.00000000000E+00 0. -1.
         23    2    1    2    0    0  0.00000000000E+00  0.00000000000E+00 -0.19132556026E+01  0.91603197970E+02  0.91583215336E+02 0.  0.
        -11    1    3    3    0    0  0.38325837397E+02 -0.25056588651E+02 -0.54558088774E+00  0.45793013719E+02  0.00000000000E+00 0. -1.
         11    1    3    3    0    0 -0.38325837397E+02  0.25056588651E+02 -0.13676747148E+01  0.45810184251E+02  0.00000000000E+00 0.  1.
<mgrwt>
<rscale>  0 0.91583215E+02</rscale>
<asrwt>0</asrwt>
<pdfrwt beam="2">  1        2 0.71935733E-02 0.91583215E+02</pdfrwt>
<pdfrwt beam="1">  1       -2 0.68992264E-02 0.91583215E+02</pdfrwt>
<totfact> 0.98066990E+04</totfact>
</mgrwt>
</event>
<event>
 5    1  0.6222456E+000  0.9136643E+02  0.7546771E-02  0.1299576E+00
          1   -1    0    0  501    0  0.00000000000E+00  0.00000000000E+00  0.85892421841E+02  0.85892421841E+02  0.00000000000E+00 0. -1.
         -1   -1    0    0    0  501 -0.00000000000E+00 -0.00000000000E+00 -0.24297325351E+02  0.24297325351E+02  0.00000000000E+00 0.  1.
         23    2    1    2    0    0  0.00000000000E+00  0.00000000000E+00  0.61595096490E+02  0.11018974719E+03  0.91366429692E+02 0.  0.
        -11    1    3    3    0    0 -0.17666278794E+02 -0.36013478820E+02  0.44331647552E+01  0.40357415835E+02  0.00000000000E+00 0.  1.
         11    1    3    3    0    0  0.17666278794E+02  0.36013478820E+02  0.57161931735E+02  0.69832331357E+02  0.00000000000E+00 0. -1.
<mgrwt>
<rscale>  0 0.91366430E+02</rscale>
<asrwt>0</asrwt>
<pdfrwt beam="1">  1        1 0.13214219E-01 0.91366430E+02</pdfrwt>
<pdfrwt beam="2">  1       -1 0.37380501E-02 0.91366430E+02</pdfrwt>
<totfact> 0.10131109E+05</totfact>
</mgrwt>
</event>
<event>
 5    1  0.6222456E+000  0.8683759E+02  0.7546771E-02  0.1310696E+00
          3   -1    0    0  501    0  0.00000000000E+00  0.00000000000E+00  0.14431478100E+02  0.14431478100E+02  0.00000000000E+00 0. -1.
         -3   -1    0    0    0  501 -0.00000000000E+00 -0.00000000000E+00 -0.13063055055E+03  0.13063055055E+03  0.00000000000E+00 0.  1.
         23    2    1    2    0    0  0.00000000000E+00  0.00000000000E+00 -0.11619907245E+03  0.14506202865E+03  0.86837593919E+02 0.  0.
        -11    1    3    3    0    0  0.10255081904E+01  0.26956743389E+02 -0.11493267395E+03  0.11805607660E+03  0.00000000000E+00 0.  1.
         11    1    3    3    0    0 -0.10255081904E+01 -0.26956743389E+02 -0.12663985062E+01  0.27005952054E+02  0.00000000000E+00 0. -1.
<mgrwt>
<rscale>  0 0.86837594E+02</rscale>
<asrwt>0</asrwt>
<pdfrwt beam="1">  1        3 0.22202274E-02 0.86837594E+02</pdfrwt>
<pdfrwt beam="2">  1       -3 0.20097008E-01 0.86837594E+02</pdfrwt>
<totfact> 0.36057422E+04</totfact>
</mgrwt>
</event>
<event>
 5    1  0.6222456E+000  0.9270976E+02  0.7546771E-02  0.1296419E+00
         -2   -1    0    0    0  501 -0.00000000000E+00  0.00000000000E+00  0.10683169709E+02  0.10683169709E+02  0.00000000000E+00 0.  1.
          2   -1    0    0  501    0  0.00000000000E+00 -0.00000000000E+00 -0.20113647479E+03  0.20113647479E+03  0.00000000000E+00 0. -1.
         23    2    1    2    0    0  0.00000000000E+00  0.00000000000E+00 -0.19045330509E+03  0.21181964450E+03  0.92709764207E+02 0.  0.
        -11    1    3    3    0    0 -0.43026012273E+02 -0.95657468932E+00 -0.13457646597E+03  0.14129040293E+03  0.00000000000E+00 0. -1.
         11    1    3    3    0    0  0.43026012273E+02  0.95657468932E+00 -0.55876839116E+02  0.70529241573E+02  0.00000000000E+00 0.  1.
<mgrwt>
<rscale>  0 0.92709764E+02</rscale>
<asrwt>0</asrwt>
<pdfrwt beam="2">  1        2 0.30944073E-01 0.92709764E+02</pdfrwt>
<pdfrwt beam="1">  1       -2 0.16435646E-02 0.92709764E+02</pdfrwt>
<totfact> 0.14818242E+05</totfact>
</mgrwt>
</event>
<event>
 5    1  0.6222456E+000  0.9047139E+02  0.7546771E-02  0.1301714E+00
         -2   -1    0    0    0  501 -0.00000000000E+00  0.00000000000E+00  0.26111379278E+02  0.26111379278E+02  0.00000000000E+00 0.  1.
          2   -1    0    0  501    0  0.00000000000E+00 -0.00000000000E+00 -0.78366916961E+02  0.78366916961E+02  0.00000000000E+00 0. -1.
         23    2    1    2    0    0  0.00000000000E+00  0.00000000000E+00 -0.52255537684E+02  0.10447829624E+03  0.90471394188E+02 0.  0.
        -11    1    3    3    0    0 -0.41387058996E+02 -0.14726021009E+02 -0.13661904751E+02  0.46004260547E+02  0.00000000000E+00 0.  1.
         11    1    3    3    0    0  0.41387058996E+02  0.14726021009E+02 -0.38593632933E+02  0.58474035691E+02  0.00000000000E+00 0. -1.
<mgrwt>
<rscale>  0 0.90471394E+02</rscale>
<asrwt>0</asrwt>
<pdfrwt beam="2">  1        2 0.12056449E-01 0.90471394E+02</pdfrwt>
<pdfrwt beam="1">  1       -2 0.40171353E-02 0.90471394E+02</pdfrwt>
<totfact> 0.11667291E+05</totfact>
</mgrwt>
</event>
<event>
 5    1  0.6222456E+000  0.8921189E+02  0.7546771E-02  0.1304772E+00
         -1   -1    0    0    0  501 -0.00000000000E+00  0.00000000000E+00  0.16025759371E+02  0.16025759371E+02  0.00000000000E+00 0.  1.
          1   -1    0    0  501    0  0.00000000000E+00 -0.00000000000E+00 -0.12415575127E+03  0.12415575127E+03  0.00000000000E+00 0. -1.
         23    2    1    2    0    0  0.00000000000E+00  0.00000000000E+00 -0.10812999190E+03  0.14018151064E+03  0.89211886974E+02 0.  0.
        -11    1    3    3    0    0  0.17501409384E+02 -0.20958744851E+02  0.13592092554E+01  0.27338905719E+02  0.00000000000E+00 0.  1.
         11    1    3    3    0    0 -0.17501409384E+02  0.20958744851E+02 -0.10948920115E+03  0.11284260492E+03  0.00000000000E+00 0. -1.
<mgrwt>
<rscale>  0 0.89211887E+02</rscale>
<asrwt>0</asrwt>
<pdfrwt beam="2">  1        1 0.19100885E-01 0.89211887E+02</pdfrwt>
<pdfrwt beam="1">  1       -1 0.24655014E-02 0.89211887E+02</pdfrwt>
<totfact> 0.11495899E+05</totfact>
</mgrwt>
</event>
<event>
 5    1  0.6222456E+000  0.8979972E+02  0.7546771E-02  0.1303337E+00
          3   -1    0    0  501    0  0.00000000000E+00  0.00000000000E+00  0.84529449743E+01  0.84529449743E+01  0.00000000000E+00 0. -1.
         -3   -1    0    0    0  501 -0.00000000000E+00 -0.00000000000E+00 -0.23849643507E+03  0.23849643507E+03  0.00000000000E+00 0.  1.
         23    2    1    2    0    0  0.00000000000E+00  0.00000000000E+00 -0.23004349009E+03  0.24694938004E+03  0.89799715861E+02 0.  0.
        -11    1    3    3    0    0  0.37574157084E+02  0.23929053634E+02 -0.13047576517E+03  0.13787074449E+03  0.00000000000E+00 0.  1.
         11    1    3    3    0    0 -0.37574157084E+02 -0.23929053634E+02 -0.99567724922E+02  0.10907863555E+03  0.00000000000E+00 0. -1.
<mgrwt>
<rscale>  0 0.89799716E+02</rscale>
<asrwt>0</asrwt>
<pdfrwt beam="1">  1        3 0.13004529E-02 0.89799716E+02</pdfrwt>
<pdfrwt beam="2">  1       -3 0.36691764E-01 0.89799716E+02</pdfrwt>
<totfact> 0.27329950E+04</totfact>
</mgrwt>
</event>
<event>
 5    1  0.6222456E+000  0.9014911E+02  0.7546771E-02  0.1302491E+00
          2   -1    0    0  501    0  0.00000000000E+00  0.00000000000E+00  0.88283158221E+02  0.88283158221E+02  0.00000000000E+00 0. -1.
         -2   -1    0    0    0  501 -0.00000000000E+00 -0.00000000000E+00 -0.23013624009E+02  0.23013624009E+02  0.00000000000E+00 0.  1.
         23    2    1    2    0    0  0.00000000000E+00  0.00000000000E+00  0.65269534212E+02  0.11129678223E+03  0.90149107808E+02 0.  0.
        -11    1    3    3    0    0 -0.63642416517E+01  0.41333357067E+02  0.11874433266E+02  0.43473579834E+02  0.00000000000E+00 0.  1.
         11    1    3    3    0    0  0.63642416517E+01 -0.41333357067E+02  0.53395100946E+02  0.67823202396E+02  0.00000000000E+00 0. -1.
<mgrwt>
<rscale>  0 0.90149108E+02</rscale>
<asrwt>0</asrwt>
<pdfrwt beam="1">  1        2 0.13582024E-01 0.90149108E+02</pdfrwt>
<pdfrwt beam="2">  1       -2 0.35405576E-02 0.90149108E+02</pdfrwt>
<totfact> 0.12194513E+05</totfact>
</mgrwt>
</event>
<event>
 5    1  0.6222456E+000  0.9249567E+02  0.7546771E-02  0.1296918E+00
         -3   -1    0    0    0  501 -0.00000000000E+00  0.00000000000E+00  0.96971452155E+02  0.96971452155E+02  0.00000000000E+00 0. -1.
          3   -1    0    0  501    0  0.00000000000E+00 -0.00000000000E+00 -0.22056618378E+02  0.22056618378E+02  0.00000000000E+00 0.  1.
         23    2    1    2    0    0  0.00000000000E+00  0.00000000000E+00  0.74914833776E+02  0.11902807053E+03  0.92495671548E+02 0.  0.
        -11    1    3    3    0    0 -0.39725096576E+02 -0.23426304175E+02  0.41912834962E+02  0.62318221732E+02  0.00000000000E+00 0.  1.
         11    1    3    3    0    0  0.39725096576E+02  0.23426304175E+02  0.33001998814E+02  0.56709848801E+02  0.00000000000E+00 0. -1.
<mgrwt>
<rscale>  0 0.92495672E+02</rscale>
<asrwt>0</asrwt>
<pdfrwt beam="2">  1        3 0.33933260E-02 0.92495672E+02</pdfrwt>
<pdfrwt beam="1">  1       -3 0.14918685E-01 0.92495672E+02</pdfrwt>
<totfact> 0.32037071E+04</totfact>
</mgrwt>
</event>
<event>
 5    1  0.6222456E+000  0.9149768E+02  0.7546771E-02  0.1299265E+00
          4   -1    0    0  501    0  0.00000000000E+00  0.00000000000E+00  0.26832058370E+02  0.26832058370E+02  0.00000000000E+00 0. -1.
         -4   -1    0    0    0  501 -0.00000000000E+00 -0.00000000000E+00 -0.78002076538E+02  0.78002076538E+02  0.00000000000E+00 0.  1.
         23    2    1    2    0    0  0.00000000000E+00  0.00000000000E+00 -0.51170018168E+02  0.10483413491E+03  0.91497678017E+02 0.  0.
        -11    1    3    3    0    0  0.41981227921E+02  0.62144843239E+01 -0.45160800521E+02  0.61972100310E+02  0.00000000000E+00 0.  1.
         11    1    3    3    0    0 -0.41981227921E+02 -0.62144843239E+01 -0.60092176473E+01  0.42862034598E+02  0.00000000000E+00 0. -1.
<mgrwt>
<rscale>  0 0.91497678E+02</rscale>
<asrwt>0</asrwt>
<pdfrwt beam="1">  1        4 0.41280091E-02 0.91497678E+02</pdfrwt>
<pdfrwt beam="2">  1       -4 0.12000319E-01 0.91497678E+02</pdfrwt>
<totfact> 0.25914086E+04</totfact>
</mgrwt>
</event>
<event>
 5    1  0.6222456E+000  0.8953352E+02  0.7546771E-02  0.1303985E+00
         -1   -1    0    0    0  501 -0.00000000000E+00  0.00000000000E+00  0.19501585636E+02  0.19501585636E+02  0.00000000000E+00 0.  1.
          1   -1    0    0  501    0  0.00000000000E+00 -0.00000000000E+00 -0.10276410567E+03  0.10276410567E+03  0.00000000000E+00 0. -1.
         23    2    1    2    0    0  0.00000000000E+00  0.00000000000E+00 -0.83262520038E+02  0.12226569131E+03  0.89533524607E+02 0.  0.
        -11    1    3    3    0    0 -0.43946968872E+02 -0.62506469632E-01 -0.29985846883E+02  0.53202358908E+02  0.00000000000E+00 0.  1.
         11    1    3    3    0    0  0.43946968872E+02  0.62506469632E-01 -0.53276673155E+02  0.69063332403E+02  0.00000000000E+00 0. -1.
<mgrwt>
<rscale>  0 0.89533525E+02</rscale>
<asrwt>0</asrwt>
<pdfrwt beam="2">  1        1 0.15809862E-01 0.89533525E+02</pdfrwt>
<pdfrwt beam="1">  1       -1 0.30002440E-02 0.89533525E+02</pdfrwt>
<totfact> 0.11024661E+05</totfact>
</mgrwt>
</event>
<event>
 5    1  0.6222456E+000  0.9027747E+02  0.7546771E-02  0.1302181E+00
         -3   -1    0    0    0  501 -0.00000000000E+00  0.00000000000E+00  0.10950855332E+02  0.10950855332E+02  0.00000000000E+00 0.  1.
          3   -1    0    0  501    0  0.00000000000E+00 -0.00000000000E+00 -0.18605902767E+03  0.18605902767E+03  0.00000000000E+00 0. -1.
         23    2    1    2    0    0  0.00000000000E+00  0.00000000000E+00 -0.17510817233E+03  0.19700988300E+03  0.90277472165E+02 0.  0.
        -11    1    3    3    0    0  0.15235765465E+02 -0.33967663879E+02 -0.14325864618E+03  0.14801679109E+03  0.00000000000E+00 0.  1.
         11    1    3    3    0    0 -0.15235765465E+02  0.33967663879E+02 -0.31849526157E+02  0.48993091912E+02  0.00000000000E+00 0. -1.
<mgrwt>
<rscale>  0 0.90277472E+02</rscale>
<asrwt>0</asrwt>
<pdfrwt beam="2">  1        3 0.28624465E-01 0.90277472E+02</pdfrwt>
<pdfrwt beam="1">  1       -3 0.16847470E-02 0.90277472E+02</pdfrwt>
<totfact> 0.29429338E+04</totfact>
</mgrwt>
</event>
<event>
 5    1  0.6222456E+000  0.8996372E+02  0.7546771E-02  0.1302940E+00
         -1   -1    0    0    0  501 -0.00000000000E+00  0.00000000000E+00  0.19516651030E+02  0.19516651030E+02  0.00000000000E+00 0.  1.
          1   -1    0    0  501    0  0.00000000000E+00 -0.00000000000E+00 -0.10367393200E+03  0.10367393200E+03  0.00000000000E+00 0. -1.
         23    2    1    2    0    0  0.00000000000E+00  0.00000000000E+00 -0.84157280973E+02  0.12319058303E+03  0.89963724952E+02 0.  0.
        -11    1    3    3    0    0 -0.26369863147E+02 -0.33754795948E+02 -0.23272712678E+02  0.48748077780E+02  0.00000000000E+00 0.  1.
         11    1    3    3    0    0  0.26369863147E+02  0.33754795948E+02 -0.60884568296E+02  0.74442505253E+02  0.00000000000E+00 0. -1.
<mgrwt>
<rscale>  0 0.89963725E+02</rscale>
<asrwt>0</asrwt>
<pdfrwt beam="2">  1        1 0.15949835E-01 0.89963725E+02</pdfrwt>
<pdfrwt beam="1">  1       -1 0.30025617E-02 0.89963725E+02</pdfrwt>
<totfact> 0.10898050E+05</totfact>
</mgrwt>
</event>
<event>
 5    1  0.6222456E+000  0.9003464E+02  0.7546771E-02  0.1302768E+00
         -3   -1    0    0    0  501 -0.00000000000E+00  0.00000000000E+00  0.14054070903E+02  0.14054070903E+02  0.00000000000E+00 0.  1.
          3   -1    0    0  501    0  0.00000000000E+00 -0.00000000000E+00 -0.14419730891E+03  0.14419730891E+03  0.00000000000E+00 0. -1.
         23    2    1    2    0    0  0.00000000000E+00  0.00000000000E+00 -0.13014323801E+03  0.15825137981E+03  0.90034642298E+02 0.  0.
        -11    1    3    3    0    0  0.80505619654E+01 -0.41769199495E+02 -0.90968615491E+02  0.10042293851E+03  0.00000000000E+00 0. -1.
         11    1    3    3    0    0 -0.80505619654E+01  0.41769199495E+02 -0.39174622517E+02  0.57828441305E+02  0.00000000000E+00 0.  1.
<mgrwt>
<rscale>  0 0.90034642E+02</rscale>
<asrwt>0</asrwt>
<pdfrwt beam="2">  1        3 0.22184200E-01 0.90034642E+02</pdfrwt>
<pdfrwt beam="1">  1       -3 0.21621648E-02 0.90034642E+02</pdfrwt>
<totfact> 0.31876839E+04</totfact>
</mgrwt>
</event>
<event>
 5    1  0.6222456E+000  0.9023637E+02  0.7546771E-02  0.1302280E+00
          2   -1    0    0  501    0  0.00000000000E+00  0.00000000000E+00  0.12751341750E+03  0.12751341750E+03  0.00000000000E+00 0. -1.
         -2   -1    0    0    0  501 -0.00000000000E+00 -0.00000000000E+00 -0.15964207271E+02  0.15964207271E+02  0.00000000000E+00 0.  1.
         23    2    1    2    0    0  0.00000000000E+00  0.00000000000E+00  0.11154921023E+03  0.14347762477E+03  0.90236370202E+02 0.  0.
        -11    1    3    3    0    0 -0.44362982295E+01 -0.23190619466E+02 -0.53567504827E+01  0.24211161660E+02  0.00000000000E+00 0.  1.
         11    1    3    3    0    0  0.44362982295E+01  0.23190619466E+02  0.11690596071E+03  0.11926646311E+03  0.00000000000E+00 0. -1.
<mgrwt>
<rscale>  0 0.90236370E+02</rscale>
<asrwt>0</asrwt>
<pdfrwt beam="1">  1        2 0.19617448E-01 0.90236370E+02</pdfrwt>
<pdfrwt beam="2">  1       -2 0.24560320E-02 0.90236370E+02</pdfrwt>
<totfact> 0.13623573E+05</totfact>
</mgrwt>
</event>
<event>
 5    1  0.6222456E+000  0.9243442E+02  0.7546771E-02  0.1297061E+00
          2   -1    0    0  501    0  0.00000000000E+00  0.00000000000E+00  0.22636755101E+02  0.22636755101E+02  0.00000000000E+00 0. -1.
         -2   -1    0    0    0  501 -0.00000000000E+00 -0.00000000000E+00 -0.94361170226E+02  0.94361170226E+02  0.00000000000E+00 0.  1.
         23    2    1    2    0    0  0.00000000000E+00  0.00000000000E+00 -0.71724415125E+02  0.11699792533E+03  0.92434424356E+02 0.  0.
        -11    1    3    3    0    0  0.32936826866E+02  0.69237466628E+01 -0.75953560028E+02  0.83076567772E+02  0.00000000000E+00 0.  1.
         11    1    3    3    0    0 -0.32936826866E+02 -0.69237466628E+01  0.42291449024E+01  0.33921357556E+02  0.00000000000E+00 0. -1.
<mgrwt>
<rscale>  0 0.92434424E+02</rscale>
<asrwt>0</asrwt>
<pdfrwt beam="1">  1        2 0.34825777E-02 0.92434424E+02</pdfrwt>
<pdfrwt beam="2">  1       -2 0.14517103E-01 0.92434424E+02</pdfrwt>
<totfact> 0.78470102E+04</totfact>
</mgrwt>
</event>
<event>
 5    1  0.6222456E+000  0.9046720E+02  0.7546771E-02  0.1301724E+00
          4   -1    0    0  501    0  0.00000000000E+00  0.00000000000E+00  0.15107125079E+03  0.15107125079E+03  0.00000000000E+00 0.  1.
         -4   -1    0    0    0  501 -0.00000000000E+00 -0.00000000000E+00 -0.13543797551E+02  0.13543797551E+02  0.00000000000E+00 0. -1.
         23    2    1    2    0    0  0.00000000000E+00  0.00000000000E+00  0.13752745324E+03  0.16461504834E+03  0.90467197071E+02 0.  0.
        -11    1    3    3    0    0  0.88400872342E+01 -0.28088125829E+02  0.62848546262E+01  0.30109622259E+02  0.00000000000E+00 0. -1.
         11    1    3    3    0    0 -0.88400872342E+01  0.28088125829E+02  0.13124259861E+03  0.13450542608E+03  0.00000000000E+00 0.  1.
<mgrwt>
<rscale>  0 0.90467197E+02</rscale>
<asrwt>0</asrwt>
<pdfrwt beam="1">  1        4 0.23241730E-01 0.90467197E+02</pdfrwt>
<pdfrwt beam="2">  1       -4 0.20836613E-02 0.90467197E+02</pdfrwt>
<totfact> 0.23446466E+04</totfact>
</mgrwt>
</event>
<event>
 5    1  0.6222456E+000  0.9089656E+02  0.7546771E-02  0.1300695E+00
          1   -1    0    0  501    0  0.00000000000E+00  0.00000000000E+00  0.81014770951E+02  0.81014770951E+02  0.00000000000E+00 0. -1.
         -1   -1    0    0    0  501 -0.00000000000E+00 -0.00000000000E+00 -0.25495918682E+02  0.25495918682E+02  0.00000000000E+00 0.  1.
         23    2    1    2    0    0  0.00000000000E+00  0.00000000000E+00  0.55518852269E+02  0.10651068963E+03  0.90896556858E+02 0.  0.
        -11    1    3    3    0    0  0.14523871596E+02  0.37509771266E+02  0.29680511152E+01  0.40332804440E+02  0.00000000000E+00 0.  1.
         11    1    3    3    0    0 -0.14523871596E+02 -0.37509771266E+02  0.52550801154E+02  0.66177885192E+02  0.00000000000E+00 0. -1.
<mgrwt>
<rscale>  0 0.90896557E+02</rscale>
<asrwt>0</asrwt>
<pdfrwt beam="1">  1        1 0.12463811E-01 0.90896557E+02</pdfrwt>
<pdfrwt beam="2">  1       -1 0.39224491E-02 0.90896557E+02</pdfrwt>
<totfact> 0.10180122E+05</totfact>
</mgrwt>
</event>
<event>
 5    1  0.6222456E+000  0.9006611E+02  0.7546771E-02  0.1302692E+00
          1   -1    0    0  501    0  0.00000000000E+00  0.00000000000E+00  0.19716371488E+02  0.19716371488E+02  0.00000000000E+00 0. -1.
         -1   -1    0    0    0  501 -0.00000000000E+00 -0.00000000000E+00 -0.10285746520E+03  0.10285746520E+03  0.00000000000E+00 0.  1.
         23    2    1    2    0    0  0.00000000000E+00  0.00000000000E+00 -0.83141093714E+02  0.12257383669E+03  0.90066108926E+02 0.  0.
        -11    1    3    3    0    0  0.40091828097E+02 -0.19832570961E+02 -0.48680089674E+02  0.66109278333E+02  0.00000000000E+00 0.  1.
         11    1    3    3    0    0 -0.40091828097E+02  0.19832570961E+02 -0.34461004041E+02  0.56464558358E+02  0.00000000000E+00 0. -1.
<mgrwt>
<rscale>  0 0.90066109E+02</rscale>
<asrwt>0</asrwt>
<pdfrwt beam="1">  1        1 0.30332880E-02 0.90066109E+02</pdfrwt>
<pdfrwt beam="2">  1       -1 0.15824225E-01 0.90066109E+02</pdfrwt>
<totfact> 0.83537242E+04</totfact>
</mgrwt>
</event>
<event>
 5    1  0.6222456E+000  0.9061833E+02  0.7546771E-02  0.1301361E+00
         -1   -1    0    0    0  501 -0.00000000000E+00  0.00000000000E+00  0.63055025891E+02  0.63055025891E+02  0.00000000000E+00 0. -1.
          1   -1    0    0  501    0  0.00000000000E+00 -0.00000000000E+00 -0.32557601176E+02  0.32557601176E+02  0.00000000000E+00 0.  1.
         23    2    1    2    0    0  0.00000000000E+00  0.00000000000E+00  0.30497424715E+02  0.95612627067E+02  0.90618328942E+02 0.  0.
        -11    1    3    3    0    0 -0.15889103721E+02  0.41639012740E+01 -0.29305557238E+02  0.33594901041E+02  0.00000000000E+00 0.  1.
         11    1    3    3    0    0  0.15889103721E+02 -0.41639012740E+01  0.59802981954E+02  0.62017726026E+02  0.00000000000E+00 0. -1.
<mgrwt>
<rscale>  0 0.90618329E+02</rscale>
<asrwt>0</asrwt>
<pdfrwt beam="2">  1        1 0.50088617E-02 0.90618329E+02</pdfrwt>
<pdfrwt beam="1">  1       -1 0.97007732E-02 0.90618329E+02</pdfrwt>
<totfact> 0.89376958E+04</totfact>
</mgrwt>
</event>
<event>
 5    1  0.6222456E+000  0.9069620E+02  0.7546771E-02  0.1301174E+00
         -1   -1    0    0    0  501 -0.00000000000E+00  0.00000000000E+00  0.76777936561E+02  0.76777936561E+02  0.00000000000E+00 0.  1.
          1   -1    0    0  501    0  0.00000000000E+00 -0.00000000000E+00 -0.26784387673E+02  0.26784387673E+02  0.00000000000E+00 0. -1.
         23    2    1    2    0    0  0.00000000000E+00  0.00000000000E+00  0.49993548888E+02  0.10356232423E+03  0.90696196559E+02 0.  0.
        -11    1    3    3    0    0  0.28882687616E+02 -0.33063789987E+02  0.37967121861E+02  0.58042451659E+02  0.00000000000E+00 0.  1.
         11    1    3    3    0    0 -0.28882687616E+02  0.33063789987E+02  0.12026427027E+02  0.45519872575E+02  0.00000000000E+00 0. -1.
<mgrwt>
<rscale>  0 0.90696197E+02</rscale>
<asrwt>0</asrwt>
<pdfrwt beam="2">  1        1 0.41206751E-02 0.90696197E+02</pdfrwt>
<pdfrwt beam="1">  1       -1 0.11811990E-01 0.90696197E+02</pdfrwt>
<totfact> 0.86395822E+04</totfact>
</mgrwt>
</event>
<event>
 5    1  0.6222456E+000  0.9082618E+02  0.7546771E-02  0.1300863E+00
          2   -1    0    0  501    0  0.00000000000E+00  0.00000000000E+00  0.32845956323E+02  0.32845956323E+02  0.00000000000E+00 0.  1.
         -2   -1    0    0    0  501 -0.00000000000E+00 -0.00000000000E+00 -0.62788507429E+02  0.62788507429E+02  0.00000000000E+00 0. -1.
         23    2    1    2    0    0  0.00000000000E+00  0.00000000000E+00 -0.29942551106E+02  0.95634463752E+02  0.90826176240E+02 0.  0.
        -11    1    3    3    0    0  0.42832216770E+01 -0.43423075191E+02 -0.17176525015E+01  0.43667605580E+02  0.00000000000E+00 0.  1.
         11    1    3    3    0    0 -0.42832216770E+01  0.43423075191E+02 -0.28224898605E+02  0.51966858172E+02  0.00000000000E+00 0. -1.
<mgrwt>
<rscale>  0 0.90826176E+02</rscale>
<asrwt>0</asrwt>
<pdfrwt beam="1">  1        2 0.50532241E-02 0.90826176E+02</pdfrwt>
<pdfrwt beam="2">  1       -2 0.96597703E-02 0.90826176E+02</pdfrwt>
<totfact> 0.91649372E+04</totfact>
</mgrwt>
</event>
<event>
 5    1  0.6222456E+000  0.8700988E+02  0.7546771E-02  0.1310259E+00
         -1   -1    0    0    0  501 -0.00000000000E+00  0.00000000000E+00  0.11392978691E+02  0.11392978691E+02  0.00000000000E+00 0.  1.
          1   -1    0    0  501    0  0.00000000000E+00 -0.00000000000E+00 -0.16612686029E+03  0.16612686029E+03  0.00000000000E+00 0. -1.
         23    2    1    2    0    0  0.00000000000E+00  0.00000000000E+00 -0.15473388159E+03  0.17751983898E+03  0.87009879422E+02 0.  0.
        -11    1    3    3    0    0  0.54150858633E+01 -0.24497802819E+02 -0.48537790255E+01  0.25554347355E+02  0.00000000000E+00 0.  1.
         11    1    3    3    0    0 -0.54150858633E+01  0.24497802819E+02 -0.14988010257E+03  0.15196549162E+03  0.00000000000E+00 0. -1.
<mgrwt>
<rscale>  0 0.87009879E+02</rscale>
<asrwt>0</asrwt>
<pdfrwt beam="2">  1        1 0.25557977E-01 0.87009879E+02</pdfrwt>
<pdfrwt beam="1">  1       -1 0.17527660E-02 0.87009879E+02</pdfrwt>
<totfact> 0.12955844E+05</totfact>
</mgrwt>
</event>
<event>
 5    1  0.6222456E+000  0.9447265E+02  0.7546771E-02  0.1292368E+00
         -1   -1    0    0    0  501 -0.00000000000E+00  0.00000000000E+00  0.56940478593E+01  0.56940478593E+01  0.00000000000E+00 0.  1.
          1   -1    0    0  501    0  0.00000000000E+00 -0.00000000000E+00 -0.39186014276E+03  0.39186014276E+03  0.00000000000E+00 0. -1.
         23    2    1    2    0    0  0.00000000000E+00  0.00000000000E+00 -0.38616609490E+03  0.39755419062E+03  0.94472650160E+02 0.  0.
        -11    1    3    3    0    0 -0.27376559636E+02  0.36674446397E+02 -0.24229839297E+03  0.24658264795E+03  0.00000000000E+00 0.  1.
         11    1    3    3    0    0  0.27376559636E+02 -0.36674446397E+02 -0.14386770194E+03  0.15097154267E+03  0.00000000000E+00 0. -1.
<mgrwt>
<rscale>  0 0.94472650E+02</rscale>
<asrwt>0</asrwt>
<pdfrwt beam="2">  1        1 0.60286185E-01 0.94472650E+02</pdfrwt>
<pdfrwt beam="1">  1       -1 0.87600723E-03 0.94472650E+02</pdfrwt>
<totfact> 0.12230940E+05</totfact>
</mgrwt>
</event>
<event>
 5    1  0.6222456E+000  0.6186475E+02  0.7546771E-02  0.1390169E+00
          1   -1    0    0  501    0  0.00000000000E+00  0.00000000000E+00  0.40955209776E+02  0.40955209776E+02  0.00000000000E+00 0. -1.
         -1   -1    0    0    0  501 -0.00000000000E+00 -0.00000000000E+00 -0.23362396475E+02  0.23362396475E+02  0.00000000000E+00 0.  1.
         23    2    1    2    0    0  0.00000000000E+00  0.00000000000E+00  0.17592813301E+02  0.64317606252E+02  0.61864750821E+02 0.  0.
        -11    1    3    3    0    0  0.24751908199E+02  0.35774098124E+00 -0.10486957927E+02  0.26884218878E+02  0.00000000000E+00 0.  1.
         11    1    3    3    0    0 -0.24751908199E+02 -0.35774098124E+00  0.28079771227E+02  0.37433387374E+02  0.00000000000E+00 0. -1.
<mgrwt>
<rscale>  0 0.61864751E+02</rscale>
<asrwt>0</asrwt>
<pdfrwt beam="1">  1        1 0.63008015E-02 0.61864751E+02</pdfrwt>
<pdfrwt beam="2">  1       -1 0.35942149E-02 0.61864751E+02</pdfrwt>
<totfact> 0.26256438E+05</totfact>
</mgrwt>
</event>
<event>
 5    1  0.6222456E+000  0.9090613E+02  0.7546771E-02  0.1300672E+00
         -3   -1    0    0    0  501 -0.00000000000E+00  0.00000000000E+00  0.33290173189E+02  0.33290173189E+02  0.00000000000E+00 0.  1.
          3   -1    0    0  501    0  0.00000000000E+00 -0.00000000000E+00 -0.62059782290E+02  0.62059782290E+02  0.00000000000E+00 0. -1.
         23    2    1    2    0    0  0.00000000000E+00  0.00000000000E+00 -0.28769609101E+02  0.95349955479E+02  0.90906125217E+02 0.  0.
        -11    1    3    3    0    0 -0.38481643939E+01  0.45228503721E+02 -0.16856919680E+02  0.48420880405E+02  0.00000000000E+00 0.  1.
         11    1    3    3    0    0  0.38481643939E+01 -0.45228503721E+02 -0.11912689421E+02  0.46929075074E+02  0.00000000000E+00 0. -1.
<mgrwt>
<rscale>  0 0.90906125E+02</rscale>
<asrwt>0</asrwt>
<pdfrwt beam="2">  1        3 0.95476586E-02 0.90906125E+02</pdfrwt>
<pdfrwt beam="1">  1       -3 0.51215652E-02 0.90906125E+02</pdfrwt>
<totfact> 0.35304386E+04</totfact>
</mgrwt>
</event>
<event>
 5    1  0.6222456E+000  0.9022190E+02  0.7546771E-02  0.1302315E+00
         -4   -1    0    0    0  501 -0.00000000000E+00  0.00000000000E+00  0.16367844163E+03  0.16367844163E+03  0.00000000000E+00 0. -1.
          4   -1    0    0  501    0  0.00000000000E+00 -0.00000000000E+00 -0.12432901359E+02  0.12432901359E+02  0.00000000000E+00 0.  1.
         23    2    1    2    0    0  0.00000000000E+00  0.00000000000E+00  0.15124554028E+03  0.17611134299E+03  0.90221902428E+02 0.  0.
        -11    1    3    3    0    0  0.15526341912E+02  0.34782099605E+02  0.12279999594E+03  0.12857177275E+03  0.00000000000E+00 0.  1.
         11    1    3    3    0    0 -0.15526341912E+02 -0.34782099605E+02  0.28445544336E+02  0.47539570241E+02  0.00000000000E+00 0. -1.
<mgrwt>
<rscale>  0 0.90221902E+02</rscale>
<asrwt>0</asrwt>
<pdfrwt beam="2">  1        4 0.19127542E-02 0.90221902E+02</pdfrwt>
<pdfrwt beam="1">  1       -4 0.25181297E-01 0.90221902E+02</pdfrwt>
<totfact> 0.23067892E+04</totfact>
</mgrwt>
</event>
<event>
 5    1  0.6222456E+000  0.8457338E+02  0.7546771E-02  0.1316552E+00
         -2   -1    0    0    0  501 -0.00000000000E+00  0.00000000000E+00  0.31059428723E+02  0.31059428723E+02  0.00000000000E+00 0.  1.
          2   -1    0    0  501    0  0.00000000000E+00 -0.00000000000E+00 -0.57572339551E+02  0.57572339551E+02  0.00000000000E+00 0. -1.
         23    2    1    2    0    0  0.00000000000E+00  0.00000000000E+00 -0.26512910828E+02  0.88631768274E+02  0.84573375875E+02 0.  0.
        -11    1    3    3    0    0  0.29864193459E+02  0.25635745866E+02  0.29484973466E+01  0.39468407032E+02  0.00000000000E+00 0.  1.
         11    1    3    3    0    0 -0.29864193459E+02 -0.25635745866E+02 -0.29461408174E+02  0.49163361242E+02  0.00000000000E+00 0. -1.
<mgrwt>
<rscale>  0 0.84573376E+02</rscale>
<asrwt>0</asrwt>
<pdfrwt beam="2">  1        2 0.88572829E-02 0.84573376E+02</pdfrwt>
<pdfrwt beam="1">  1       -2 0.47783737E-02 0.84573376E+02</pdfrwt>
<totfact> 0.12954385E+05</totfact>
</mgrwt>
</event>
<event>
 5    1  0.6222456E+000  0.9062267E+02  0.7546771E-02  0.1301351E+00
         -1   -1    0    0    0  501 -0.00000000000E+00  0.00000000000E+00  0.67468943650E+02  0.67468943650E+02  0.00000000000E+00 0.  1.
          1   -1    0    0  501    0  0.00000000000E+00 -0.00000000000E+00 -0.30430549697E+02  0.30430549697E+02  0.00000000000E+00 0. -1.
         23    2    1    2    0    0  0.00000000000E+00  0.00000000000E+00  0.37038393953E+02  0.97899493347E+02  0.90622669189E+02 0.  0.
        -11    1    3    3    0    0 -0.29931422996E+01 -0.11687548876E+02  0.65701878922E+02  0.66800408632E+02  0.00000000000E+00 0.  1.
         11    1    3    3    0    0  0.29931422996E+01  0.11687548876E+02 -0.28663484969E+02  0.31099084715E+02  0.00000000000E+00 0. -1.
<mgrwt>
<rscale>  0 0.90622669E+02</rscale>
<asrwt>0</asrwt>
<pdfrwt beam="2">  1        1 0.46816230E-02 0.90622669E+02</pdfrwt>
<pdfrwt beam="1">  1       -1 0.10379837E-01 0.90622669E+02</pdfrwt>
<totfact> 0.88414739E+04</totfact>
</mgrwt>
</event>
<event>
 5    1  0.6222456E+000  0.9446481E+02  0.7546771E-02  0.1292386E+00
         -1   -1    0    0    0  501 -0.00000000000E+00  0.00000000000E+00  0.35306259953E+03  0.35306259953E+03  0.00000000000E+00 0.  1.
          1   -1    0    0  501    0  0.00000000000E+00 -0.00000000000E+00 -0.63187103849E+01  0.63187103849E+01  0.00000000000E+00 0. -1.
         23    2    1    2    0    0  0.00000000000E+00  0.00000000000E+00  0.34674388914E+03  0.35938130991E+03  0.94464814913E+02 0.  0.
        -11    1    3    3    0    0 -0.42410611408E+02  0.14996241130E+02  0.22815429758E+03  0.23254662051E+03  0.00000000000E+00 0.  1.
         11    1    3    3    0    0  0.42410611408E+02 -0.14996241130E+02  0.11858959157E+03  0.12683468940E+03  0.00000000000E+00 0. -1.
<mgrwt>
<rscale>  0 0.94464815E+02</rscale>
<asrwt>0</asrwt>
<pdfrwt beam="2">  1        1 0.97210957E-03 0.94464815E+02</pdfrwt>
<pdfrwt beam="1">  1       -1 0.54317307E-01 0.94464815E+02</pdfrwt>
<totfact> 0.51546041E+04</totfact>
</mgrwt>
</event>
<event>
 5    1  0.6222456E+000  0.9228182E+02  0.7546771E-02  0.1297418E+00
          1   -1    0    0  501    0  0.00000000000E+00  0.00000000000E+00  0.23913377250E+03  0.23913377250E+03  0.00000000000E+00 0. -1.
         -1   -1    0    0    0  501 -0.00000000000E+00 -0.00000000000E+00 -0.89028984177E+01  0.89028984177E+01  0.00000000000E+00 0.  1.
         23    2    1    2    0    0  0.00000000000E+00  0.00000000000E+00  0.23023087409E+03  0.24803667092E+03  0.92281822367E+02 0.  0.
        -11    1    3    3    0    0 -0.33939872798E+02  0.22111016147E+02  0.55729170390E+02  0.68895227940E+02  0.00000000000E+00 0.  1.
         11    1    3    3    0    0  0.33939872798E+02 -0.22111016147E+02  0.17450170370E+03  0.17914144298E+03  0.00000000000E+00 0. -1.
<mgrwt>
<rscale>  0 0.92281822E+02</rscale>
<asrwt>0</asrwt>
<pdfrwt beam="1">  1        1 0.36789806E-01 0.92281822E+02</pdfrwt>
<pdfrwt beam="2">  1       -1 0.13696769E-02 0.92281822E+02</pdfrwt>
<totfact> 0.11871272E+05</totfact>
</mgrwt>
</event>
<event>
 5    1  0.6222456E+000  0.9562060E+02  0.7546771E-02  0.1289784E+00
          4   -1    0    0  501    0  0.00000000000E+00  0.00000000000E+00  0.21370593473E+03  0.21370593473E+03  0.00000000000E+00 0. -1.
         -4   -1    0    0    0  501 -0.00000000000E+00 -0.00000000000E+00 -0.10696122197E+02  0.10696122197E+02  0.00000000000E+00 0.  1.
         23    2    1    2    0    0  0.00000000000E+00  0.00000000000E+00  0.20300981253E+03  0.22440205693E+03  0.95620600128E+02 0.  0.
        -11    1    3    3    0    0 -0.59593698614E+01  0.38420437295E+02  0.36207408549E+02  0.53128340130E+02  0.00000000000E+00 0.  1.
         11    1    3    3    0    0  0.59593698614E+01 -0.38420437295E+02  0.16680240398E+03  0.17127371680E+03  0.00000000000E+00 0. -1.
<mgrwt>
<rscale>  0 0.95620600E+02</rscale>
<asrwt>0</asrwt>
<pdfrwt beam="1">  1        4 0.32877833E-01 0.95620600E+02</pdfrwt>
<pdfrwt beam="2">  1       -4 0.16455574E-02 0.95620600E+02</pdfrwt>
<totfact> 0.17960939E+04</totfact>
</mgrwt>
</event>
<event>
 5    1  0.6222456E+000  0.9260624E+02  0.7546771E-02  0.1296660E+00
         -3   -1    0    0    0  501 -0.00000000000E+00  0.00000000000E+00  0.71541816517E+02  0.71541816517E+02  0.00000000000E+00 0.  1.
          3   -1    0    0  501    0  0.00000000000E+00 -0.00000000000E+00 -0.29968193892E+02  0.29968193892E+02  0.00000000000E+00 0. -1.
         23    2    1    2    0    0  0.00000000000E+00  0.00000000000E+00  0.41573622625E+02  0.10151001041E+03  0.92606242312E+02 0.  0.
        -11    1    3    3    0    0  0.17439607198E+02 -0.40071989565E+02  0.37557307947E+02  0.57623394790E+02  0.00000000000E+00 0.  1.
         11    1    3    3    0    0 -0.17439607198E+02  0.40071989565E+02  0.40163146781E+01  0.43886615620E+02  0.00000000000E+00 0. -1.
<mgrwt>
<rscale>  0 0.92606242E+02</rscale>
<asrwt>0</asrwt>
<pdfrwt beam="2">  1        3 0.46104914E-02 0.92606242E+02</pdfrwt>
<pdfrwt beam="1">  1       -3 0.11006433E-01 0.92606242E+02</pdfrwt>
<totfact> 0.33124615E+04</totfact>
</mgrwt>
</event>
<event>
 5    1  0.6222456E+000  0.8936543E+02  0.7546771E-02  0.1304396E+00
         -2   -1    0    0    0  501 -0.00000000000E+00  0.00000000000E+00  0.37421628074E+02  0.37421628074E+02  0.00000000000E+00 0.  1.
          2   -1    0    0  501    0  0.00000000000E+00 -0.00000000000E+00 -0.53352698603E+02  0.53352698603E+02  0.00000000000E+00 0. -1.
         23    2    1    2    0    0  0.00000000000E+00  0.00000000000E+00 -0.15931070529E+02  0.90774326678E+02  0.89365426064E+02 0.  0.
        -11    1    3    3    0    0  0.18892693218E+02  0.15643367061E+02  0.29971590891E+02  0.38729124061E+02  0.00000000000E+00 0.  1.
         11    1    3    3    0    0 -0.18892693218E+02 -0.15643367061E+02 -0.45902661420E+02  0.52045202617E+02  0.00000000000E+00 0. -1.
<mgrwt>
<rscale>  0 0.89365426E+02</rscale>
<asrwt>0</asrwt>
<pdfrwt beam="2">  1        2 0.82081075E-02 0.89365426E+02</pdfrwt>
<pdfrwt beam="1">  1       -2 0.57571736E-02 0.89365426E+02</pdfrwt>
<totfact> 0.10882570E+05</totfact>
</mgrwt>
</event>
<event>
 5    1  0.6222456E+000  0.8832617E+02  0.7546771E-02  0.1306956E+00
          1   -1    0    0  501    0  0.00000000000E+00  0.00000000000E+00  0.14953739576E+02  0.14953739576E+02  0.00000000000E+00 0. -1.
         -1   -1    0    0    0  501 -0.00000000000E+00 -0.00000000000E+00 -0.13042745034E+03  0.13042745034E+03  0.00000000000E+00 0.  1.
         23    2    1    2    0    0  0.00000000000E+00  0.00000000000E+00 -0.11547371077E+03  0.14538118992E+03  0.88326171117E+02 0.  0.
        -11    1    3    3    0    0 -0.39945279210E+02 -0.18577918403E+02 -0.62840319450E+02  0.76744186307E+02  0.00000000000E+00 0. -1.
         11    1    3    3    0    0  0.39945279210E+02  0.18577918403E+02 -0.52633391319E+02  0.68637003614E+02  0.00000000000E+00 0.  1.
<mgrwt>
<rscale>  0 0.88326171E+02</rscale>
<asrwt>0</asrwt>
<pdfrwt beam="1">  1        1 0.23005754E-02 0.88326171E+02</pdfrwt>
<pdfrwt beam="2">  1       -1 0.20065761E-01 0.88326171E+02</pdfrwt>
<totfact> 0.83775302E+04</totfact>
</mgrwt>
</event>
<event>
 5    1  0.6222456E+000  0.8968548E+02  0.7546771E-02  0.1303615E+00
          2   -1    0    0  501    0  0.00000000000E+00  0.00000000000E+00  0.23559486435E+03  0.23559486435E+03  0.00000000000E+00 0. -1.
         -2   -1    0    0    0  501 -0.00000000000E+00 -0.00000000000E+00 -0.85352940826E+01  0.85352940826E+01  0.00000000000E+00 0.  1.
         23    2    1    2    0    0  0.00000000000E+00  0.00000000000E+00  0.22705957027E+03  0.24413015844E+03  0.89685482696E+02 0.  0.
        -11    1    3    3    0    0  0.91550192571E+00  0.44812160392E+02  0.10977412870E+03  0.11857203378E+03  0.00000000000E+00 0.  1.
         11    1    3    3    0    0 -0.91550192571E+00 -0.44812160392E+02  0.11728544157E+03  0.12555812465E+03  0.00000000000E+00 0. -1.
<mgrwt>
<rscale>  0 0.89685483E+02</rscale>
<asrwt>0</asrwt>
<pdfrwt beam="1">  1        2 0.36245359E-01 0.89685483E+02</pdfrwt>
<pdfrwt beam="2">  1       -2 0.13131223E-02 0.89685483E+02</pdfrwt>
<totfact> 0.17163498E+05</totfact>
</mgrwt>
</event>
<event>
 5    1  0.6222456E+000  0.9058751E+02  0.7546771E-02  0.1301435E+00
         -3   -1    0    0    0  501 -0.00000000000E+00  0.00000000000E+00  0.33637075827E+02  0.33637075827E+02  0.00000000000E+00 0.  1.
          3   -1    0    0  501    0  0.00000000000E+00 -0.00000000000E+00 -0.60989970118E+02  0.60989970118E+02  0.00000000000E+00 0. -1.
         23    2    1    2    0    0  0.00000000000E+00  0.00000000000E+00 -0.27352894291E+02  0.94627045945E+02  0.90587510166E+02 0.  0.
        -11    1    3    3    0    0  0.30926233833E+02  0.32243658931E+02 -0.58987012684E+01  0.45065287717E+02  0.00000000000E+00 0.  1.
         11    1    3    3    0    0 -0.30926233833E+02 -0.32243658931E+02 -0.21454193023E+02  0.49561758228E+02  0.00000000000E+00 0. -1.
<mgrwt>
<rscale>  0 0.90587510E+02</rscale>
<asrwt>0</asrwt>
<pdfrwt beam="2">  1        3 0.93830723E-02 0.90587510E+02</pdfrwt>
<pdfrwt beam="1">  1       -3 0.51749347E-02 0.90587510E+02</pdfrwt>
<totfact> 0.35698691E+04</totfact>
</mgrwt>
</event>
<event>
 5    1  0.6222456E+000  0.9125426E+02  0.7546771E-02  0.1299842E+00
         -1   -1    0    0    0  501 -0.00000000000E+00  0.00000000000E+00  0.82896252463E+01  0.82896252463E+01  0.00000000000E+00 0.  1.
          1   -1    0    0  501    0  0.00000000000E+00 -0.00000000000E+00 -0.25113740710E+03  0.25113740710E+03  0.00000000000E+00 0. -1.
         23    2    1    2    0    0  0.00000000000E+00  0.00000000000E+00 -0.24284778185E+03  0.25942703235E+03  0.91254259960E+02 0.  0.
        -11    1    3    3    0    0 -0.41734279819E+02 -0.18425906111E+02 -0.11927592334E+03  0.12770281914E+03  0.00000000000E+00 0. -1.
         11    1    3    3    0    0  0.41734279819E+02  0.18425906111E+02 -0.12357185851E+03  0.13172421320E+03  0.00000000000E+00 0.  1.
<mgrwt>
<rscale>  0 0.91254260E+02</rscale>
<asrwt>0</asrwt>
<pdfrwt beam="2">  1        1 0.38636524E-01 0.91254260E+02</pdfrwt>
<pdfrwt beam="1">  1       -1 0.12753270E-02 0.91254260E+02</pdfrwt>
<totfact> 0.12349879E+05</totfact>
</mgrwt>
</event>
<event>
 5    1  0.6222456E+000  0.1102013E+03  0.7546771E-02  0.1260197E+00
         -1   -1    0    0    0  501 -0.00000000000E+00  0.00000000000E+00  0.43619481649E+02  0.43619481649E+02  0.00000000000E+00 0.  1.
          1   -1    0    0  501    0  0.00000000000E+00 -0.00000000000E+00 -0.69603855625E+02  0.69603855625E+02  0.00000000000E+00 0. -1.
         23    2    1    2    0    0  0.00000000000E+00  0.00000000000E+00 -0.25984373976E+02  0.11322333727E+03  0.11020134488E+03 0.  0.
        -11    1    3    3    0    0 -0.40528673790E+01  0.31411449507E+02  0.33332823427E+02  0.45980235012E+02  0.00000000000E+00 0.  1.
         11    1    3    3    0    0  0.40528673790E+01 -0.31411449507E+02 -0.59317197403E+02  0.67243102263E+02  0.00000000000E+00 0. -1.
<mgrwt>
<rscale>  0 0.11020134E+03</rscale>
<asrwt>0</asrwt>
<pdfrwt beam="2">  1        1 0.10708285E-01 0.11020134E+03</pdfrwt>
<pdfrwt beam="1">  1       -1 0.67106895E-02 0.11020134E+03</pdfrwt>
<totfact> 0.58006147E+04</totfact>
</mgrwt>
</event>
<event>
 5    1  0.6222456E+000  0.8976604E+02  0.7546771E-02  0.1303419E+00
          1   -1    0    0  501    0  0.00000000000E+00  0.00000000000E+00  0.30608847092E+02  0.30608847092E+02  0.00000000000E+00 0. -1.
         -1   -1    0    0    0  501 -0.00000000000E+00 -0.00000000000E+00 -0.65813833783E+02  0.65813833783E+02  0.00000000000E+00 0.  1.
         23    2    1    2    0    0  0.00000000000E+00  0.00000000000E+00 -0.35204986692E+02  0.96422680875E+02  0.89766042016E+02 0.  0.
        -11    1    3    3    0    0 -0.24765075309E+02 -0.65175912966E+01 -0.57196416281E+02  0.62667519392E+02  0.00000000000E+00 0.  1.
         11    1    3    3    0    0  0.24765075309E+02  0.65175912966E+01  0.21991429590E+02  0.33755161483E+02  0.00000000000E+00 0. -1.
<mgrwt>
<rscale>  0 0.89766042E+02</rscale>
<asrwt>0</asrwt>
<pdfrwt beam="1">  1        1 0.47090534E-02 0.89766042E+02</pdfrwt>
<pdfrwt beam="2">  1       -1 0.10125205E-01 0.89766042E+02</pdfrwt>
<totfact> 0.90932878E+04</totfact>
</mgrwt>
</event>
<event>
 5    1  0.6222456E+000  0.8817767E+02  0.7546771E-02  0.1307326E+00
         -2   -1    0    0    0  501 -0.00000000000E+00  0.00000000000E+00  0.19694181845E+03  0.19694181845E+03  0.00000000000E+00 0.  1.
          2   -1    0    0  501    0  0.00000000000E+00 -0.00000000000E+00 -0.98700486711E+01  0.98700486711E+01  0.00000000000E+00 0. -1.
         23    2    1    2    0    0  0.00000000000E+00  0.00000000000E+00  0.18707176978E+03  0.20681186712E+03  0.88177669135E+02 0.  0.
        -11    1    3    3    0    0 -0.27311363250E+02  0.27150315889E+02  0.14388146512E+03  0.14894605137E+03  0.00000000000E+00 0.  1.
         11    1    3    3    0    0  0.27311363250E+02 -0.27150315889E+02  0.43190304663E+02  0.57865815749E+02  0.00000000000E+00 0. -1.
<mgrwt>
<rscale>  0 0.88177669E+02</rscale>
<asrwt>0</asrwt>
<pdfrwt beam="2">  1        2 0.15184692E-02 0.88177669E+02</pdfrwt>
<pdfrwt beam="1">  1       -2 0.30298738E-01 0.88177669E+02</pdfrwt>
<totfact> 0.68318571E+04</totfact>
</mgrwt>
</event>
<event>
 5    1  0.6222456E+000  0.9252419E+02  0.7546771E-02  0.1296852E+00
         -2   -1    0    0    0  501 -0.00000000000E+00  0.00000000000E+00  0.98868366417E+01  0.98868366417E+01  0.00000000000E+00 0.  1.
          2   -1    0    0  501    0  0.00000000000E+00 -0.00000000000E+00 -0.21646775708E+03  0.21646775708E+03  0.00000000000E+00 0. -1.
         23    2    1    2    0    0  0.00000000000E+00  0.00000000000E+00 -0.20658092044E+03  0.22635459372E+03  0.92524188241E+02 0.  0.
        -11    1    3    3    0    0  0.40253685724E+02 -0.20957042223E+02 -0.81323619633E+02  0.93129415027E+02  0.00000000000E+00 0. -1.
         11    1    3    3    0    0 -0.40253685724E+02  0.20957042223E+02 -0.12525730080E+03  0.13322517869E+03  0.00000000000E+00 0.  1.
<mgrwt>
<rscale>  0 0.92524188E+02</rscale>
<asrwt>0</asrwt>
<pdfrwt beam="2">  1        2 0.33302732E-01 0.92524188E+02</pdfrwt>
<pdfrwt beam="1">  1       -2 0.15210518E-02 0.92524188E+02</pdfrwt>
<totfact> 0.15303193E+05</totfact>
</mgrwt>
</event>
<event>
 5    1  0.6222456E+000  0.9214965E+02  0.7546771E-02  0.1297728E+00
          1   -1    0    0  501    0  0.00000000000E+00  0.00000000000E+00  0.11138297939E+03  0.11138297939E+03  0.00000000000E+00 0. -1.
         -1   -1    0    0    0  501 -0.00000000000E+00 -0.00000000000E+00 -0.19059369769E+02  0.19059369769E+02  0.00000000000E+00 0.  1.
         23    2    1    2    0    0  0.00000000000E+00  0.00000000000E+00  0.92323609625E+02  0.13044234916E+03  0.92149647645E+02 0.  0.
        -11    1    3    3    0    0  0.92435725680E+01 -0.16793220748E+02  0.10547032974E+03  0.10719816394E+03  0.00000000000E+00 0. -1.
         11    1    3    3    0    0 -0.92435725680E+01  0.16793220748E+02 -0.13146720115E+02  0.23244185223E+02  0.00000000000E+00 0.  1.
<mgrwt>
<rscale>  0 0.92149648E+02</rscale>
<asrwt>0</asrwt>
<pdfrwt beam="1">  1        1 0.17135843E-01 0.92149648E+02</pdfrwt>
<pdfrwt beam="2">  1       -1 0.29322108E-02 0.92149648E+02</pdfrwt>
<totfact> 0.10333715E+05</totfact>
</mgrwt>
</event>
<event>
 5    1  0.6222456E+000  0.9232550E+02  0.7546771E-02  0.1297316E+00
          4   -1    0    0  501    0  0.00000000000E+00  0.00000000000E+00  0.34785582154E+02  0.34785582154E+02  0.00000000000E+00 0. -1.
         -4   -1    0    0    0  501 -0.00000000000E+00 -0.00000000000E+00 -0.61261000653E+02  0.61261000653E+02  0.00000000000E+00 0.  1.
         23    2    1    2    0    0  0.00000000000E+00  0.00000000000E+00 -0.26475418498E+02  0.96046582807E+02  0.92325501809E+02 0.  0.
        -11    1    3    3    0    0 -0.16182606023E+02 -0.98446796375E+01 -0.57031973457E+02  0.60095261471E+02  0.00000000000E+00 0.  1.
         11    1    3    3    0    0  0.16182606023E+02  0.98446796375E+01  0.30556554959E+02  0.35951321336E+02  0.00000000000E+00 0. -1.
<mgrwt>
<rscale>  0 0.92325502E+02</rscale>
<asrwt>0</asrwt>
<pdfrwt beam="1">  1        4 0.53516281E-02 0.92325502E+02</pdfrwt>
<pdfrwt beam="2">  1       -4 0.94247693E-02 0.92325502E+02</pdfrwt>
<totfact> 0.25811587E+04</totfact>
</mgrwt>
</event>
<event>
 5    1  0.6222456E+000  0.9075068E+02  0.7546771E-02  0.1301044E+00
         -2   -1    0    0    0  501 -0.00000000000E+00  0.00000000000E+00  0.11237495447E+03  0.11237495447E+03  0.00000000000E+00 0.  1.
          2   -1    0    0  501    0  0.00000000000E+00 -0.00000000000E+00 -0.18321890966E+02  0.18321890966E+02  0.00000000000E+00 0. -1.
         23    2    1    2    0    0  0.00000000000E+00  0.00000000000E+00  0.94053063505E+02  0.13069684544E+03  0.90750684033E+02 0.  0.
        -11    1    3    3    0    0 -0.37458039441E+02 -0.24618087606E+02  0.36866743642E+02  0.58037158295E+02  0.00000000000E+00 0.  1.
         11    1    3    3    0    0  0.37458039441E+02  0.24618087606E+02  0.57186319863E+02  0.72659687142E+02  0.00000000000E+00 0. -1.
<mgrwt>
<rscale>  0 0.90750684E+02</rscale>
<asrwt>0</asrwt>
<pdfrwt beam="2">  1        2 0.28187525E-02 0.90750684E+02</pdfrwt>
<pdfrwt beam="1">  1       -2 0.17288454E-01 0.90750684E+02</pdfrwt>
<totfact> 0.77917578E+04</totfact>
</mgrwt>
</event>
<event>
 5    1  0.6222456E+000  0.9179837E+02  0.7546771E-02  0.1298554E+00
          4   -1    0    0  501    0  0.00000000000E+00  0.00000000000E+00  0.14868948552E+03  0.14868948552E+03  0.00000000000E+00 0. -1.
         -4   -1    0    0    0  501 -0.00000000000E+00 -0.00000000000E+00 -0.14168689731E+02  0.14168689731E+02  0.00000000000E+00 0.  1.
         23    2    1    2    0    0  0.00000000000E+00  0.00000000000E+00  0.13452079578E+03  0.16285817525E+03  0.91798370063E+02 0.  0.
        -11    1    3    3    0    0 -0.28479560304E+02  0.13715916105E+02  0.82197567760E+01  0.32661538714E+02  0.00000000000E+00 0.  1.
         11    1    3    3    0    0  0.28479560304E+02 -0.13715916105E+02  0.12630103901E+03  0.13019663653E+03  0.00000000000E+00 0. -1.
<mgrwt>
<rscale>  0 0.91798370E+02</rscale>
<asrwt>0</asrwt>
<pdfrwt beam="1">  1        4 0.22875304E-01 0.91798370E+02</pdfrwt>
<pdfrwt beam="2">  1       -4 0.21797985E-02 0.91798370E+02</pdfrwt>
<totfact> 0.22626016E+04</totfact>
</mgrwt>
</event>
<event>
 5    1  0.6222456E+000  0.9127116E+02  0.7546771E-02  0.1299802E+00
          1   -1    0    0  501    0  0.00000000000E+00  0.00000000000E+00  0.60162280949E+02  0.60162280949E+02  0.00000000000E+00 0. -1.
         -1   -1    0    0    0  501 -0.00000000000E+00 -0.00000000000E+00 -0.34616474713E+02  0.34616474713E+02  0.00000000000E+00 0.  1.
         23    2    1    2    0    0  0.00000000000E+00  0.00000000000E+00  0.25545806236E+02  0.94778755663E+02  0.91271158143E+02 0.  0.
        -11    1    3    3    0    0 -0.45456283393E+02  0.25423435729E+01  0.16035106832E+02  0.48268642635E+02  0.00000000000E+00 0. -1.
         11    1    3    3    0    0  0.45456283393E+02 -0.25423435729E+01  0.95106994042E+01  0.46510113028E+02  0.00000000000E+00 0.  1.
<mgrwt>
<rscale>  0 0.91271158E+02</rscale>
<asrwt>0</asrwt>
<pdfrwt beam="1">  1        1 0.92557355E-02 0.91271158E+02</pdfrwt>
<pdfrwt beam="2">  1       -1 0.53256115E-02 0.91271158E+02</pdfrwt>
<totfact> 0.96134300E+04</totfact>
</mgrwt>
</event>
<event>
 5    1  0.6222456E+000  0.9110397E+02  0.7546771E-02  0.1300200E+00
          3   -1    0    0  501    0  0.00000000000E+00  0.00000000000E+00  0.69317785088E+01  0.69317785088E+01  0.00000000000E+00 0. -1.
         -3   -1    0    0    0  501 -0.00000000000E+00 -0.00000000000E+00 -0.29934360000E+03  0.29934360000E+03  0.00000000000E+00 0.  1.
         23    2    1    2    0    0  0.00000000000E+00  0.00000000000E+00 -0.29241182149E+03  0.30627537851E+03  0.91103974299E+02 0.  0.
        -11    1    3    3    0    0  0.45094432636E+02 -0.49154001049E+01 -0.13221712578E+03  0.13978210673E+03  0.00000000000E+00 0. -1.
         11    1    3    3    0    0 -0.45094432636E+02  0.49154001049E+01 -0.16019469572E+03  0.16649327178E+03  0.00000000000E+00 0.  1.
<mgrwt>
<rscale>  0 0.91103974E+02</rscale>
<asrwt>0</asrwt>
<pdfrwt beam="1">  1        3 0.10664275E-02 0.91103974E+02</pdfrwt>
<pdfrwt beam="2">  1       -3 0.46052861E-01 0.91103974E+02</pdfrwt>
<totfact> 0.23833449E+04</totfact>
</mgrwt>
</event>
<event>
 5    1  0.6222456E+000  0.8983673E+02  0.7546771E-02  0.1303248E+00
          2   -1    0    0  501    0  0.00000000000E+00  0.00000000000E+00  0.97037192627E+02  0.97037192627E+02  0.00000000000E+00 0. -1.
         -2   -1    0    0    0  501 -0.00000000000E+00 -0.00000000000E+00 -0.20792643206E+02  0.20792643206E+02  0.00000000000E+00 0.  1.
         23    2    1    2    0    0  0.00000000000E+00  0.00000000000E+00  0.76244549421E+02  0.11782983583E+03  0.89836734669E+02 0.  0.
        -11    1    3    3    0    0  0.20264471334E+02 -0.67870132682E+01 -0.13697491058E+02  0.25383727245E+02  0.00000000000E+00 0.  1.
         11    1    3    3    0    0 -0.20264471334E+02  0.67870132682E+01  0.89942040479E+02  0.92446108588E+02  0.00000000000E+00 0. -1.
<mgrwt>
<rscale>  0 0.89836735E+02</rscale>
<asrwt>0</asrwt>
<pdfrwt beam="1">  1        2 0.14928799E-01 0.89836735E+02</pdfrwt>
<pdfrwt beam="2">  1       -2 0.31988682E-02 0.89836735E+02</pdfrwt>
<totfact> 0.12661689E+05</totfact>
</mgrwt>
</event>
<event>
 5    1  0.6222456E+000  0.1035273E+03  0.7546771E-02  0.1273049E+00
         -3   -1    0    0    0  501 -0.00000000000E+00  0.00000000000E+00  0.10698518058E+03  0.10698518058E+03  0.00000000000E+00 0.  1.
          3   -1    0    0  501    0  0.00000000000E+00 -0.00000000000E+00 -0.25045289660E+02  0.25045289660E+02  0.00000000000E+00 0. -1.
         23    2    1    2    0    0  0.00000000000E+00  0.00000000000E+00  0.81939890916E+02  0.13203047024E+03  0.10352728794E+03 0.  0.
        -11    1    3    3    0    0  0.31574022925E+02 -0.80312767715E+01 -0.10329882264E+02  0.34177870001E+02  0.00000000000E+00 0. -1.
         11    1    3    3    0    0 -0.31574022925E+02  0.80312767715E+01  0.92269773180E+02  0.97852600236E+02  0.00000000000E+00 0.  1.
<mgrwt>
<rscale>  0 0.10352729E+03</rscale>
<asrwt>0</asrwt>
<pdfrwt beam="2">  1        3 0.38531216E-02 0.10352729E+03</pdfrwt>
<pdfrwt beam="1">  1       -3 0.16459258E-01 0.10352729E+03</pdfrwt>
<totfact> 0.22919449E+04</totfact>
</mgrwt>
</event>
<event>
 5    1  0.6222456E+000  0.9500478E+02  0.7546771E-02  0.1291165E+00
         -1   -1    0    0    0  501 -0.00000000000E+00  0.00000000000E+00  0.64387047327E+02  0.64387047327E+02  0.00000000000E+00 0.  1.
          1   -1    0    0  501    0  0.00000000000E+00 -0.00000000000E+00 -0.35045514190E+02  0.35045514190E+02  0.00000000000E+00 0. -1.
         23    2    1    2    0    0  0.00000000000E+00  0.00000000000E+00  0.29341533137E+02  0.99432561517E+02  0.95004782632E+02 0.  0.
        -11    1    3    3    0    0 -0.63249174338E+01 -0.15438928570E+02  0.61219579152E+02  0.63452359826E+02  0.00000000000E+00 0.  1.
         11    1    3    3    0    0  0.63249174338E+01  0.15438928570E+02 -0.31878046015E+02  0.35980201691E+02  0.00000000000E+00 0. -1.
<mgrwt>
<rscale>  0 0.95004783E+02</rscale>
<asrwt>0</asrwt>
<pdfrwt beam="2">  1        1 0.53916176E-02 0.95004783E+02</pdfrwt>
<pdfrwt beam="1">  1       -1 0.99056996E-02 0.95004783E+02</pdfrwt>
<totfact> 0.78989174E+04</totfact>
</mgrwt>
</event>
<event>
 5    1  0.6222456E+000  0.9188987E+02  0.7546771E-02  0.1298339E+00
         -1   -1    0    0    0  501 -0.00000000000E+00  0.00000000000E+00  0.14076914117E+03  0.14076914117E+03  0.00000000000E+00 0.  1.
          1   -1    0    0  501    0  0.00000000000E+00 -0.00000000000E+00 -0.14995738681E+02  0.14995738681E+02  0.00000000000E+00 0. -1.
         23    2    1    2    0    0  0.00000000000E+00  0.00000000000E+00  0.12577340249E+03  0.15576487985E+03  0.91889874421E+02 0.  0.
        -11    1    3    3    0    0 -0.38627208635E+02  0.71409427675E+01  0.22491358321E+02  0.45264947914E+02  0.00000000000E+00 0. -1.
         11    1    3    3    0    0  0.38627208635E+02 -0.71409427675E+01  0.10328204417E+03  0.11049993194E+03  0.00000000000E+00 0.  1.
<mgrwt>
<rscale>  0 0.91889874E+02</rscale>
<asrwt>0</asrwt>
<pdfrwt beam="2">  1        1 0.23070368E-02 0.91889874E+02</pdfrwt>
<pdfrwt beam="1">  1       -1 0.21656790E-01 0.91889874E+02</pdfrwt>
<totfact> 0.74367575E+04</totfact>
</mgrwt>
</event>
<event>
 5    1  0.6222456E+000  0.9198142E+02  0.7546771E-02  0.1298123E+00
         -1   -1    0    0    0  501 -0.00000000000E+00  0.00000000000E+00  0.39019619117E+02  0.39019619117E+02  0.00000000000E+00 0.  1.
          1   -1    0    0  501    0  0.00000000000E+00 -0.00000000000E+00 -0.54207222557E+02  0.54207222557E+02  0.00000000000E+00 0. -1.
         23    2    1    2    0    0  0.00000000000E+00  0.00000000000E+00 -0.15187603440E+02  0.93226841674E+02  0.91981415026E+02 0.  0.
        -11    1    3    3    0    0  0.29035911885E+01  0.18606946301E+02  0.34932575998E+02  0.39685440129E+02  0.00000000000E+00 0.  1.
         11    1    3    3    0    0 -0.29035911885E+01 -0.18606946301E+02 -0.50120179438E+02  0.53541401544E+02  0.00000000000E+00 0. -1.
<mgrwt>
<rscale>  0 0.91981415E+02</rscale>
<asrwt>0</asrwt>
<pdfrwt beam="2">  1        1 0.83395727E-02 0.91981415E+02</pdfrwt>
<pdfrwt beam="1">  1       -1 0.60030184E-02 0.91981415E+02</pdfrwt>
<totfact> 0.92609938E+04</totfact>
</mgrwt>
</event>
<event>
 5    1  0.6222456E+000  0.7922004E+02  0.7546771E-02  0.1331280E+00
         -1   -1    0    0    0  501 -0.00000000000E+00  0.00000000000E+00  0.10177856680E+03  0.10177856680E+03  0.00000000000E+00 0.  1.
          1   -1    0    0  501    0  0.00000000000E+00 -0.00000000000E+00 -0.15415365202E+02  0.15415365202E+02  0.00000000000E+00 0. -1.
         23    2    1    2    0    0  0.00000000000E+00  0.00000000000E+00  0.86363201600E+02  0.11719393200E+03  0.79220042339E+02 0.  0.
        -11    1    3    3    0    0  0.29360676560E+02  0.23101230790E+02  0.23710472617E+02  0.44248194356E+02  0.00000000000E+00 0.  1.
         11    1    3    3    0    0 -0.29360676560E+02 -0.23101230790E+02  0.62652728983E+02  0.72945737648E+02  0.00000000000E+00 0. -1.
<mgrwt>
<rscale>  0 0.79220042E+02</rscale>
<asrwt>0</asrwt>
<pdfrwt beam="2">  1        1 0.23715947E-02 0.79220042E+02</pdfrwt>
<pdfrwt beam="1">  1       -1 0.15658241E-01 0.79220042E+02</pdfrwt>
<totfact> 0.11635804E+05</totfact>
</mgrwt>
</event>
<event>
 5    1  0.6222456E+000  0.9376340E+02  0.7546771E-02  0.1293986E+00
          3   -1    0    0  501    0  0.00000000000E+00  0.00000000000E+00  0.40943270641E+02  0.40943270641E+02  0.00000000000E+00 0. -1.
         -3   -1    0    0    0  501 -0.00000000000E+00 -0.00000000000E+00 -0.53681440845E+02  0.53681440845E+02  0.00000000000E+00 0.  1.
         23    2    1    2    0    0  0.00000000000E+00  0.00000000000E+00 -0.12738170204E+02  0.94624711486E+02  0.93763399275E+02 0.  0.
        -11    1    3    3    0    0 -0.46402960121E+02 -0.65634053933E+01 -0.76379183366E+01  0.47483163278E+02  0.00000000000E+00 0.  1.
         11    1    3    3    0    0  0.46402960121E+02  0.65634053933E+01 -0.51002518678E+01  0.47141548208E+02  0.00000000000E+00 0. -1.
<mgrwt>
<rscale>  0 0.93763399E+02</rscale>
<asrwt>0</asrwt>
<pdfrwt beam="1">  1        3 0.62989647E-02 0.93763399E+02</pdfrwt>
<pdfrwt beam="2">  1       -3 0.82586832E-02 0.93763399E+02</pdfrwt>
<totfact> 0.32494885E+04</totfact>
</mgrwt>
</event>
<event>
 5    1  0.6222456E+000  0.9483175E+02  0.7546771E-02  0.1291555E+00
         -2   -1    0    0    0  501 -0.00000000000E+00  0.00000000000E+00  0.13681028973E+02  0.13681028973E+02  0.00000000000E+00 0.  1.
          2   -1    0    0  501    0  0.00000000000E+00 -0.00000000000E+00 -0.16433451878E+03  0.16433451878E+03  0.00000000000E+00 0. -1.
         23    2    1    2    0    0  0.00000000000E+00  0.00000000000E+00 -0.15065348981E+03  0.17801554775E+03  0.94831752333E+02 0.  0.
        -11    1    3    3    0    0  0.30270184827E+02  0.18357122472E+02 -0.16114012059E+02  0.38896393401E+02  0.00000000000E+00 0.  1.
         11    1    3    3    0    0 -0.30270184827E+02 -0.18357122472E+02 -0.13453947775E+03  0.13911915435E+03  0.00000000000E+00 0. -1.
<mgrwt>
<rscale>  0 0.94831752E+02</rscale>
<asrwt>0</asrwt>
<pdfrwt beam="2">  1        2 0.25282233E-01 0.94831752E+02</pdfrwt>
<pdfrwt beam="1">  1       -2 0.21047738E-02 0.94831752E+02</pdfrwt>
<totfact> 0.12966087E+05</totfact>
</mgrwt>
</event>
<event>
 5    1  0.6222456E+000  0.9274340E+02  0.7546771E-02  0.1296341E+00
          2   -1    0    0  501    0  0.00000000000E+00  0.00000000000E+00  0.14948939759E+02  0.14948939759E+02  0.00000000000E+00 0. -1.
         -2   -1    0    0    0  501 -0.00000000000E+00 -0.00000000000E+00 -0.14384529739E+03  0.14384529739E+03  0.00000000000E+00 0.  1.
         23    2    1    2    0    0  0.00000000000E+00  0.00000000000E+00 -0.12889635763E+03  0.15879423715E+03  0.92743402683E+02 0.  0.
        -11    1    3    3    0    0  0.40500292920E+02 -0.18386630579E+02 -0.41993501784E+02  0.61170222353E+02  0.00000000000E+00 0. -1.
         11    1    3    3    0    0 -0.40500292920E+02  0.18386630579E+02 -0.86902855843E+02  0.97624014793E+02  0.00000000000E+00 0.  1.
<mgrwt>
<rscale>  0 0.92743403E+02</rscale>
<asrwt>0</asrwt>
<pdfrwt beam="1">  1        2 0.22998367E-02 0.92743403E+02</pdfrwt>
<pdfrwt beam="2">  1       -2 0.22130047E-01 0.92743403E+02</pdfrwt>
<totfact> 0.67925759E+04</totfact>
</mgrwt>
</event>
<event>
 5    1  0.6222456E+000  0.9147905E+02  0.7546771E-02  0.1299309E+00
          1   -1    0    0  501    0  0.00000000000E+00  0.00000000000E+00  0.39966873187E+03  0.39966873187E+03  0.00000000000E+00 0. -1.
         -1   -1    0    0    0  501 -0.00000000000E+00 -0.00000000000E+00 -0.52345959138E+01  0.52345959138E+01  0.00000000000E+00 0.  1.
         23    2    1    2    0    0  0.00000000000E+00  0.00000000000E+00  0.39443413595E+03  0.40490332778E+03  0.91479053574E+02 0.  0.
        -11    1    3    3    0    0 -0.44309184175E+02  0.87622921749E+01  0.16529240564E+03  0.17135244652E+03  0.00000000000E+00 0.  1.
         11    1    3    3    0    0  0.44309184175E+02 -0.87622921749E+01  0.22914173032E+03  0.23355088126E+03  0.00000000000E+00 0. -1.
<mgrwt>
<rscale>  0 0.91479054E+02</rscale>
<asrwt>0</asrwt>
<pdfrwt beam="1">  1        1 0.61487473E-01 0.91479054E+02</pdfrwt>
<pdfrwt beam="2">  1       -1 0.80532276E-03 0.91479054E+02</pdfrwt>
<totfact> 0.13369252E+05</totfact>
</mgrwt>
</event>
<event>
 5    1  0.6222456E+000  0.9183857E+02  0.7546771E-02  0.1298459E+00
         -3   -1    0    0    0  501 -0.00000000000E+00  0.00000000000E+00  0.12895179803E+02  0.12895179803E+02  0.00000000000E+00 0.  1.
          3   -1    0    0  501    0  0.00000000000E+00 -0.00000000000E+00 -0.16351697628E+03  0.16351697628E+03  0.00000000000E+00 0. -1.
         23    2    1    2    0    0  0.00000000000E+00  0.00000000000E+00 -0.15062179648E+03  0.17641215609E+03  0.91838571635E+02 0.  0.
        -11    1    3    3    0    0  0.44828236104E+01 -0.24643906827E+02 -0.13836044310E+01  0.25086494622E+02  0.00000000000E+00 0.  1.
         11    1    3    3    0    0 -0.44828236104E+01  0.24643906827E+02 -0.14923819205E+03  0.15132566146E+03  0.00000000000E+00 0. -1.
<mgrwt>
<rscale>  0 0.91838572E+02</rscale>
<asrwt>0</asrwt>
<pdfrwt beam="2">  1        3 0.25156458E-01 0.91838572E+02</pdfrwt>
<pdfrwt beam="1">  1       -3 0.19838738E-02 0.91838572E+02</pdfrwt>
<totfact> 0.29187933E+04</totfact>
</mgrwt>
</event>
<event>
 5    1  0.6222456E+000  0.8911158E+02  0.7546771E-02  0.1305017E+00
          1   -1    0    0  501    0  0.00000000000E+00  0.00000000000E+00  0.38855002237E+02  0.38855002237E+02  0.00000000000E+00 0. -1.
         -1   -1    0    0    0  501 -0.00000000000E+00 -0.00000000000E+00 -0.51092999708E+02  0.51092999708E+02  0.00000000000E+00 0.  1.
         23    2    1    2    0    0  0.00000000000E+00  0.00000000000E+00 -0.12237997471E+02  0.89948001945E+02  0.89111584386E+02 0.  0.
        -11    1    3    3    0    0  0.44217531411E+02  0.20848133102E+01 -0.11234315286E+02  0.45669972308E+02  0.00000000000E+00 0.  1.
         11    1    3    3    0    0 -0.44217531411E+02 -0.20848133102E+01 -0.10036821849E+01  0.44278029637E+02  0.00000000000E+00 0. -1.
<mgrwt>
<rscale>  0 0.89111584E+02</rscale>
<asrwt>0</asrwt>
<pdfrwt beam="1">  1        1 0.59776927E-02 0.89111584E+02</pdfrwt>
<pdfrwt beam="2">  1       -1 0.78604614E-02 0.89111584E+02</pdfrwt>
<totfact> 0.96290293E+04</totfact>
</mgrwt>
</event>
<event>
 5    1  0.6222456E+000  0.7425115E+02  0.7546771E-02  0.1346206E+00
         -1   -1    0    0    0  501 -0.00000000000E+00  0.00000000000E+00  0.84574087044E+02  0.84574087044E+02  0.00000000000E+00 0.  1.
          1   -1    0    0  501    0  0.00000000000E+00 -0.00000000000E+00 -0.16297053364E+02  0.16297053364E+02  0.00000000000E+00 0. -1.
         23    2    1    2    0    0  0.00000000000E+00  0.00000000000E+00  0.68277033679E+02  0.10087114041E+03  0.74251152444E+02 0.  0.
        -11    1    3    3    0    0 -0.89106652257E+01 -0.16589332142E+02  0.77604611060E+02  0.79856631243E+02  0.00000000000E+00 0.  1.
         11    1    3    3    0    0  0.89106652257E+01  0.16589332142E+02 -0.93275773806E+01  0.21014509166E+02  0.00000000000E+00 0. -1.
<mgrwt>
<rscale>  0 0.74251152E+02</rscale>
<asrwt>0</asrwt>
<pdfrwt beam="2">  1        1 0.25072390E-02 0.74251152E+02</pdfrwt>
<pdfrwt beam="1">  1       -1 0.13011398E-01 0.74251152E+02</pdfrwt>
<totfact> 0.14167355E+05</totfact>
</mgrwt>
</event>
<event>
 5    1  0.6222456E+000  0.9137529E+02  0.7546771E-02  0.1299555E+00
         -2   -1    0    0    0  501 -0.00000000000E+00  0.00000000000E+00  0.13135984299E+02  0.13135984299E+02  0.00000000000E+00 0.  1.
          2   -1    0    0  501    0  0.00000000000E+00 -0.00000000000E+00 -0.15890402481E+03  0.15890402481E+03  0.00000000000E+00 0. -1.
         23    2    1    2    0    0  0.00000000000E+00  0.00000000000E+00 -0.14576804051E+03  0.17204000911E+03  0.91375287140E+02 0.  0.
        -11    1    3    3    0    0  0.20335560156E+02  0.37919039978E+02 -0.10180620528E+03  0.11052552662E+03  0.00000000000E+00 0. -1.
         11    1    3    3    0    0 -0.20335560156E+02 -0.37919039978E+02 -0.43961835227E+02  0.61514482492E+02  0.00000000000E+00 0.  1.
<mgrwt>
<rscale>  0 0.91375287E+02</rscale>
<asrwt>0</asrwt>
<pdfrwt beam="2">  1        2 0.24446773E-01 0.91375287E+02</pdfrwt>
<pdfrwt beam="1">  1       -2 0.20209206E-02 0.91375287E+02</pdfrwt>
<totfact> 0.14175959E+05</totfact>
</mgrwt>
</event>
<event>
 5    1  0.6222456E+000  0.9156237E+02  0.7546771E-02  0.1299112E+00
         -2   -1    0    0    0  501 -0.00000000000E+00  0.00000000000E+00  0.65237162711E+02  0.65237162711E+02  0.00000000000E+00 0.  1.
          2   -1    0    0  501    0  0.00000000000E+00 -0.00000000000E+00 -0.32127650700E+02  0.32127650700E+02  0.00000000000E+00 0. -1.
         23    2    1    2    0    0  0.00000000000E+00  0.00000000000E+00  0.33109512011E+02  0.97364813411E+02  0.91562367296E+02 0.  0.
        -11    1    3    3    0    0  0.11448635248E+02 -0.25681187830E+02 -0.21864050740E+02  0.35617851875E+02  0.00000000000E+00 0. -1.
         11    1    3    3    0    0 -0.11448635248E+02  0.25681187830E+02  0.54973562751E+02  0.61746961536E+02  0.00000000000E+00 0.  1.
<mgrwt>
<rscale>  0 0.91562367E+02</rscale>
<asrwt>0</asrwt>
<pdfrwt beam="2">  1        2 0.49427155E-02 0.91562367E+02</pdfrwt>
<pdfrwt beam="1">  1       -2 0.10036487E-01 0.91562367E+02</pdfrwt>
<totfact> 0.88973782E+04</totfact>
</mgrwt>
</event>
<event>
 5    1  0.6222456E+000  0.9056190E+02  0.7546771E-02  0.1301497E+00
          2   -1    0    0  501    0  0.00000000000E+00  0.00000000000E+00  0.42033970889E+02  0.42033970889E+02  0.00000000000E+00 0. -1.
         -2   -1    0    0    0  501 -0.00000000000E+00 -0.00000000000E+00 -0.48778744482E+02  0.48778744482E+02  0.00000000000E+00 0.  1.
         23    2    1    2    0    0  0.00000000000E+00  0.00000000000E+00 -0.67447735923E+01  0.90812715371E+02  0.90561897629E+02 0.  0.
        -11    1    3    3    0    0  0.15264247395E+02  0.38192987150E+02 -0.22363233171E+02  0.46816831523E+02  0.00000000000E+00 0.  1.
         11    1    3    3    0    0 -0.15264247395E+02 -0.38192987150E+02  0.15618459578E+02  0.43995883848E+02  0.00000000000E+00 0. -1.
<mgrwt>
<rscale>  0 0.90561898E+02</rscale>
<asrwt>0</asrwt>
<pdfrwt beam="1">  1        2 0.64667648E-02 0.90561898E+02</pdfrwt>
<pdfrwt beam="2">  1       -2 0.75044222E-02 0.90561898E+02</pdfrwt>
<totfact> 0.98524051E+04</totfact>
</mgrwt>
</event>
<event>
 5    1  0.6222456E+000  0.9088943E+02  0.7546771E-02  0.1300712E+00
          2   -1    0    0  501    0  0.00000000000E+00  0.00000000000E+00  0.32063050751E+03  0.32063050751E+03  0.00000000000E+00 0. -1.
         -2   -1    0    0    0  501 -0.00000000000E+00 -0.00000000000E+00 -0.64411274596E+01  0.64411274596E+01  0.00000000000E+00 0.  1.
         23    2    1    2    0    0  0.00000000000E+00  0.00000000000E+00  0.31418938005E+03  0.32707163496E+03  0.90889426586E+02 0.  0.
        -11    1    3    3    0    0 -0.41449635174E+02  0.17922297579E+02  0.17542300493E+03  0.18114224153E+03  0.00000000000E+00 0. -1.
         11    1    3    3    0    0  0.41449635174E+02 -0.17922297579E+02  0.13876637512E+03  0.14592939344E+03  0.00000000000E+00 0.  1.
<mgrwt>
<rscale>  0 0.90889427E+02</rscale>
<asrwt>0</asrwt>
<pdfrwt beam="1">  1        2 0.49327758E-01 0.90889427E+02</pdfrwt>
<pdfrwt beam="2">  1       -2 0.99094293E-03 0.90889427E+02</pdfrwt>
<totfact> 0.18570997E+05</totfact>
</mgrwt>
</event>
<event>
 5    1  0.6222456E+000  0.9005189E+02  0.7546771E-02  0.1302726E+00
         -1   -1    0    0    0  501 -0.00000000000E+00  0.00000000000E+00  0.19307717242E+02  0.19307717242E+02  0.00000000000E+00 0.  1.
          1   -1    0    0  501    0  0.00000000000E+00 -0.00000000000E+00 -0.10500132098E+03  0.10500132098E+03  0.00000000000E+00 0. -1.
         23    2    1    2    0    0  0.00000000000E+00  0.00000000000E+00 -0.85693603741E+02  0.12430903822E+03  0.90051892052E+02 0.  0.
        -11    1    3    3    0    0 -0.10051855853E+02 -0.16678017787E+02  0.13194327502E+02  0.23522039912E+02  0.00000000000E+00 0.  1.
         11    1    3    3    0    0  0.10051855853E+02  0.16678017787E+02 -0.98887931243E+02  0.10078699831E+03  0.00000000000E+00 0. -1.
<mgrwt>
<rscale>  0 0.90051892E+02</rscale>
<asrwt>0</asrwt>
<pdfrwt beam="2">  1        1 0.16154049E-01 0.90051892E+02</pdfrwt>
<pdfrwt beam="1">  1       -1 0.29704180E-02 0.90051892E+02</pdfrwt>
<totfact> 0.10892217E+05</totfact>
</mgrwt>
</event>
<event>
 5    1  0.6222456E+000  0.1023574E+03  0.7546771E-02  0.1275415E+00
          2   -1    0    0  501    0  0.00000000000E+00  0.00000000000E+00  0.25681640452E+03  0.25681640452E+03  0.00000000000E+00 0. -1.
         -2   -1    0    0    0  501 -0.00000000000E+00 -0.00000000000E+00 -0.10198956665E+02  0.10198956665E+02  0.00000000000E+00 0.  1.
         23    2    1    2    0    0  0.00000000000E+00  0.00000000000E+00  0.24661744786E+03  0.26701536119E+03  0.10235740092E+03 0.  0.
        -11    1    3    3    0    0  0.35789031298E+02 -0.23656624255E+02  0.50510421093E+02  0.66270606391E+02  0.00000000000E+00 0.  1.
         11    1    3    3    0    0 -0.35789031298E+02  0.23656624255E+02  0.19610702676E+03  0.20074475480E+03  0.00000000000E+00 0. -1.
<mgrwt>
<rscale>  0 0.10235740E+03</rscale>
<asrwt>0</asrwt>
<pdfrwt beam="1">  1        2 0.39510211E-01 0.10235740E+03</pdfrwt>
<pdfrwt beam="2">  1       -2 0.15690705E-02 0.10235740E+03</pdfrwt>
<totfact> 0.12412588E+05</totfact>
</mgrwt>
</event>
<event>
 5    1  0.6222456E+000  0.9129639E+02  0.7546771E-02  0.1299742E+00
          1   -1    0    0  501    0  0.00000000000E+00  0.00000000000E+00  0.47634887750E+02  0.47634887750E+02  0.00000000000E+00 0. -1.
         -1   -1    0    0    0  501 -0.00000000000E+00 -0.00000000000E+00 -0.43744356878E+02  0.43744356878E+02  0.00000000000E+00 0.  1.
         23    2    1    2    0    0  0.00000000000E+00  0.00000000000E+00  0.38905308726E+01  0.91379244628E+02  0.91296386118E+02 0.  0.
        -11    1    3    3    0    0  0.30829289459E+02  0.71714857316E+01 -0.30976564823E+02  0.44287953942E+02  0.00000000000E+00 0.  1.
         11    1    3    3    0    0 -0.30829289459E+02 -0.71714857316E+01  0.34867095696E+02  0.47091290685E+02  0.00000000000E+00 0. -1.
<mgrwt>
<rscale>  0 0.91296386E+02</rscale>
<asrwt>0</asrwt>
<pdfrwt beam="1">  1        1 0.73284443E-02 0.91296386E+02</pdfrwt>
<pdfrwt beam="2">  1       -1 0.67299010E-02 0.91296386E+02</pdfrwt>
<totfact> 0.92742953E+04</totfact>
</mgrwt>
</event>
<event>
 5    1  0.6222456E+000  0.9221723E+02  0.7546771E-02  0.1297569E+00
          2   -1    0    0  501    0  0.00000000000E+00  0.00000000000E+00  0.29822248236E+02  0.29822248236E+02  0.00000000000E+00 0. -1.
         -2   -1    0    0    0  501 -0.00000000000E+00 -0.00000000000E+00 -0.71289198071E+02  0.71289198071E+02  0.00000000000E+00 0.  1.
         23    2    1    2    0    0  0.00000000000E+00  0.00000000000E+00 -0.41466949835E+02  0.10111144631E+03  0.92217225320E+02 0.  0.
        -11    1    3    3    0    0  0.33269785020E+02 -0.28474361242E+02 -0.36559460437E+02  0.57046139141E+02  0.00000000000E+00 0.  1.
         11    1    3    3    0    0 -0.33269785020E+02  0.28474361242E+02 -0.49074893981E+01  0.44065307166E+02  0.00000000000E+00 0. -1.
<mgrwt>
<rscale>  0 0.92217225E+02</rscale>
<asrwt>0</asrwt>
<pdfrwt beam="1">  1        2 0.45880382E-02 0.92217225E+02</pdfrwt>
<pdfrwt beam="2">  1       -2 0.10967569E-01 0.92217225E+02</pdfrwt>
<totfact> 0.85392769E+04</totfact>
</mgrwt>
</event>
<event>
 5    1  0.6222456E+000  0.9075998E+02  0.7546771E-02  0.1301022E+00
          1   -1    0    0  501    0  0.00000000000E+00  0.00000000000E+00  0.94592819816E+01  0.94592819816E+01  0.00000000000E+00 0. -1.
         -1   -1    0    0    0  501 -0.00000000000E+00 -0.00000000000E+00 -0.21770608763E+03  0.21770608763E+03  0.00000000000E+00 0.  1.
         23    2    1    2    0    0  0.00000000000E+00  0.00000000000E+00 -0.20824680565E+03  0.22716536961E+03  0.90759975144E+02 0.  0.
        -11    1    3    3    0    0  0.32165622279E+02 -0.73895463343E+01 -0.18208098964E+03  0.18504788418E+03  0.00000000000E+00 0.  1.
         11    1    3    3    0    0 -0.32165622279E+02  0.73895463343E+01 -0.26165816010E+02  0.42117485432E+02  0.00000000000E+00 0. -1.
<mgrwt>
<rscale>  0 0.90759975E+02</rscale>
<asrwt>0</asrwt>
<pdfrwt beam="1">  1        1 0.14552744E-02 0.90759975E+02</pdfrwt>
<pdfrwt beam="2">  1       -1 0.33493239E-01 0.90759975E+02</pdfrwt>
<totfact> 0.68521557E+04</totfact>
</mgrwt>
</event>
<event>
 5    1  0.6222456E+000  0.9189625E+02  0.7546771E-02  0.1298324E+00
         -1   -1    0    0    0  501 -0.00000000000E+00  0.00000000000E+00  0.28285501453E+02  0.28285501453E+02  0.00000000000E+00 0.  1.
          1   -1    0    0  501    0  0.00000000000E+00 -0.00000000000E+00 -0.74640005847E+02  0.74640005847E+02  0.00000000000E+00 0. -1.
         23    2    1    2    0    0  0.00000000000E+00  0.00000000000E+00 -0.46354504394E+02  0.10292550730E+03  0.91896245709E+02 0.  0.
        -11    1    3    3    0    0 -0.67748034770E+01  0.16356796517E+02  0.24311897522E+02  0.30075091281E+02  0.00000000000E+00 0.  1.
         11    1    3    3    0    0  0.67748034770E+01 -0.16356796517E+02 -0.70666401916E+02  0.72850416019E+02  0.00000000000E+00 0. -1.
<mgrwt>
<rscale>  0 0.91896246E+02</rscale>
<asrwt>0</asrwt>
<pdfrwt beam="2">  1        1 0.11483078E-01 0.91896246E+02</pdfrwt>
<pdfrwt beam="1">  1       -1 0.43516156E-02 0.91896246E+02</pdfrwt>
<totfact> 0.97519196E+04</totfact>
</mgrwt>
</event>
<event>
 5    1  0.6222456E+000  0.9150289E+02  0.7546771E-02  0.1299253E+00
         -2   -1    0    0    0  501 -0.00000000000E+00  0.00000000000E+00  0.19376857839E+02  0.19376857839E+02  0.00000000000E+00 0.  1.
          2   -1    0    0  501    0  0.00000000000E+00 -0.00000000000E+00 -0.10802549245E+03  0.10802549245E+03  0.00000000000E+00 0. -1.
         23    2    1    2    0    0  0.00000000000E+00  0.00000000000E+00 -0.88648634616E+02  0.12740235029E+03  0.91502887611E+02 0.  0.
        -11    1    3    3    0    0  0.23891820154E+02  0.38175043029E+02 -0.55553246615E+02  0.71514447422E+02  0.00000000000E+00 0. -1.
         11    1    3    3    0    0 -0.23891820154E+02 -0.38175043029E+02 -0.33095388001E+02  0.55887902872E+02  0.00000000000E+00 0.  1.
<mgrwt>
<rscale>  0 0.91502888E+02</rscale>
<asrwt>0</asrwt>
<pdfrwt beam="2">  1        2 0.16619306E-01 0.91502888E+02</pdfrwt>
<pdfrwt beam="1">  1       -2 0.29810551E-02 0.91502888E+02</pdfrwt>
<totfact> 0.12439994E+05</totfact>
</mgrwt>
</event>
<event>
 4    1  0.6222456E+000  0.5032493E+02  0.7546771E-02  0.1443597E+00
          1   -1    0    0  501    0  0.00000000000E+00  0.00000000000E+00  0.28133130013E+01  0.28133130013E+01  0.00000000000E+00 0. -1.
         -1   -1    0    0    0  501 -0.00000000000E+00 -0.00000000000E+00 -0.22505478341E+03  0.22505478341E+03  0.00000000000E+00 0.  1.
        -11    1    1    2    0    0  0.19405984751E+02  0.16013025257E+02 -0.10942456413E+03  0.11227975978E+03  0.00000000000E+00 0. -1.
         11    1    1    2    0    0 -0.19405984751E+02 -0.16013025257E+02 -0.11281690628E+03  0.11558833662E+03  0.00000000000E+00 0.  1.
<mgrwt>
<rscale>  0 0.50324926E+02</rscale>
<asrwt>0</asrwt>
<pdfrwt beam="1">  1        1 0.43281733E-03 0.50324926E+02</pdfrwt>
<pdfrwt beam="2">  1       -1 0.34623817E-01 0.50324926E+02</pdfrwt>
<totfact> 0.30481134E+05</totfact>
</mgrwt>
</event>
<event>
 5    1  0.6222456E+000  0.9300025E+02  0.7546771E-02  0.1295745E+00
         -3   -1    0    0    0  501 -0.00000000000E+00  0.00000000000E+00  0.47947496092E+02  0.47947496092E+02  0.00000000000E+00 0.  1.
          3   -1    0    0  501    0  0.00000000000E+00 -0.00000000000E+00 -0.45096441461E+02  0.45096441461E+02  0.00000000000E+00 0. -1.
         23    2    1    2    0    0  0.00000000000E+00  0.00000000000E+00  0.28510546316E+01  0.93043937553E+02  0.93000246251E+02 0.  0.
        -11    1    3    3    0    0 -0.40262216201E+02 -0.76942961260E+00 -0.21836705206E+02  0.45809166873E+02  0.00000000000E+00 0. -1.
         11    1    3    3    0    0  0.40262216201E+02  0.76942961260E+00  0.24687759838E+02  0.47234770680E+02  0.00000000000E+00 0.  1.
<mgrwt>
<rscale>  0 0.93000246E+02</rscale>
<asrwt>0</asrwt>
<pdfrwt beam="2">  1        3 0.69379141E-02 0.93000246E+02</pdfrwt>
<pdfrwt beam="1">  1       -3 0.73765378E-02 0.93000246E+02</pdfrwt>
<totfact> 0.33342218E+04</totfact>
</mgrwt>
</event>
<event>
 5    1  0.6222456E+000  0.7710127E+02  0.7546771E-02  0.1337485E+00
         -1   -1    0    0    0  501 -0.00000000000E+00  0.00000000000E+00  0.54743261310E+01  0.54743261310E+01  0.00000000000E+00 0.  1.
          1   -1    0    0  501    0  0.00000000000E+00 -0.00000000000E+00 -0.27147663036E+03  0.27147663036E+03  0.00000000000E+00 0. -1.
         23    2    1    2    0    0  0.00000000000E+00  0.00000000000E+00 -0.26600230423E+03  0.27695095650E+03  0.77101273960E+02 0.  0.
        -11    1    3    3    0    0  0.21259132505E+02 -0.26855775370E+02 -0.19654762341E+03  0.19950977834E+03  0.00000000000E+00 0. -1.
         11    1    3    3    0    0 -0.21259132505E+02  0.26855775370E+02 -0.69454680820E+02  0.77441178151E+02  0.00000000000E+00 0.  1.
<mgrwt>
<rscale>  0 0.77101274E+02</rscale>
<asrwt>0</asrwt>
<pdfrwt beam="2">  1        1 0.41765631E-01 0.77101274E+02</pdfrwt>
<pdfrwt beam="1">  1       -1 0.84220412E-03 0.77101274E+02</pdfrwt>
<totfact> 0.19579736E+05</totfact>
</mgrwt>
</event>
<event>
 5    1  0.6222456E+000  0.9570406E+02  0.7546771E-02  0.1289598E+00
          2   -1    0    0  501    0  0.00000000000E+00  0.00000000000E+00  0.10989804766E+03  0.10989804766E+03  0.00000000000E+00 0. -1.
         -2   -1    0    0    0  501 -0.00000000000E+00 -0.00000000000E+00 -0.20835826365E+02  0.20835826365E+02  0.00000000000E+00 0.  1.
         23    2    1    2    0    0  0.00000000000E+00  0.00000000000E+00  0.89062221294E+02  0.13073387402E+03  0.95704057153E+02 0.  0.
        -11    1    3    3    0    0  0.21991216577E+02  0.32209803391E+02  0.66567641533E+01  0.39565105207E+02  0.00000000000E+00 0.  1.
         11    1    3    3    0    0 -0.21991216577E+02 -0.32209803391E+02  0.82405457141E+02  0.91168768817E+02  0.00000000000E+00 0. -1.
<mgrwt>
<rscale>  0 0.95704057E+02</rscale>
<asrwt>0</asrwt>
<pdfrwt beam="1">  1        2 0.16907392E-01 0.95704057E+02</pdfrwt>
<pdfrwt beam="2">  1       -2 0.32055118E-02 0.95704057E+02</pdfrwt>
<totfact> 0.11051773E+05</totfact>
</mgrwt>
</event>
<event>
 5    1  0.6222456E+000  0.9075380E+02  0.7546771E-02  0.1301036E+00
          1   -1    0    0  501    0  0.00000000000E+00  0.00000000000E+00  0.15028590254E+02  0.15028590254E+02  0.00000000000E+00 0. -1.
         -1   -1    0    0    0  501 -0.00000000000E+00 -0.00000000000E+00 -0.13700971996E+03  0.13700971996E+03  0.00000000000E+00 0.  1.
         23    2    1    2    0    0  0.00000000000E+00  0.00000000000E+00 -0.12198112971E+03  0.15203831021E+03  0.90753797544E+02 0.  0.
        -11    1    3    3    0    0  0.14352032167E+02  0.17098970061E+02 -0.12717394796E+03  0.12911842876E+03  0.00000000000E+00 0.  1.
         11    1    3    3    0    0 -0.14352032167E+02 -0.17098970061E+02  0.51928182585E+01  0.22919881455E+02  0.00000000000E+00 0. -1.
<mgrwt>
<rscale>  0 0.90753798E+02</rscale>
<asrwt>0</asrwt>
<pdfrwt beam="1">  1        1 0.23120909E-02 0.90753798E+02</pdfrwt>
<pdfrwt beam="2">  1       -1 0.21078418E-01 0.90753798E+02</pdfrwt>
<totfact> 0.77271720E+04</totfact>
</mgrwt>
</event>
<event>
 4    1  0.6222456E+000  0.3437033E+02  0.7546771E-02  0.1554264E+00
         -2   -1    0    0    0  501 -0.00000000000E+00  0.00000000000E+00  0.40150617853E+02  0.40150617853E+02  0.00000000000E+00 0.  1.
          2   -1    0    0  501    0  0.00000000000E+00 -0.00000000000E+00 -0.73555512285E+01  0.73555512285E+01  0.00000000000E+00 0. -1.
        -11    1    1    2    0    0  0.60557311048E+01  0.15442959787E+02  0.10189529663E+02  0.19467496012E+02  0.00000000000E+00 0. -1.
         11    1    1    2    0    0 -0.60557311048E+01 -0.15442959787E+02  0.22605536961E+02  0.28038673069E+02  0.00000000000E+00 0.  1.
<mgrwt>
<rscale>  0 0.34370332E+02</rscale>
<asrwt>0</asrwt>
<pdfrwt beam="2">  1        2 0.11316233E-02 0.34370332E+02</pdfrwt>
<pdfrwt beam="1">  1       -2 0.61770180E-02 0.34370332E+02</pdfrwt>
<totfact> 0.10244736E+06</totfact>
</mgrwt>
</event>
<event>
 5    1  0.6222456E+000  0.8819538E+02  0.7546771E-02  0.1307282E+00
         -2   -1    0    0    0  501 -0.00000000000E+00  0.00000000000E+00  0.13580513753E+02  0.13580513753E+02  0.00000000000E+00 0.  1.
          2   -1    0    0  501    0  0.00000000000E+00 -0.00000000000E+00 -0.14319093585E+03  0.14319093585E+03  0.00000000000E+00 0. -1.
         23    2    1    2    0    0  0.00000000000E+00  0.00000000000E+00 -0.12961042210E+03  0.15677144961E+03  0.88195384771E+02 0.  0.
        -11    1    3    3    0    0  0.22934936458E+02 -0.24633156320E+02 -0.11545135443E+03  0.12025730306E+03  0.00000000000E+00 0. -1.
         11    1    3    3    0    0 -0.22934936458E+02  0.24633156320E+02 -0.14159067674E+02  0.36514146547E+02  0.00000000000E+00 0.  1.
<mgrwt>
<rscale>  0 0.88195385E+02</rscale>
<asrwt>0</asrwt>
<pdfrwt beam="2">  1        2 0.22029374E-01 0.88195385E+02</pdfrwt>
<pdfrwt beam="1">  1       -2 0.20893099E-02 0.88195385E+02</pdfrwt>
<totfact> 0.15060660E+05</totfact>
</mgrwt>
</event>
<event>
 5    1  0.6222456E+000  0.9027853E+02  0.7546771E-02  0.1302179E+00
         -4   -1    0    0    0  501 -0.00000000000E+00  0.00000000000E+00  0.26367858168E+02  0.26367858168E+02  0.00000000000E+00 0.  1.
          4   -1    0    0  501    0  0.00000000000E+00 -0.00000000000E+00 -0.77274128479E+02  0.77274128479E+02  0.00000000000E+00 0. -1.
         23    2    1    2    0    0  0.00000000000E+00  0.00000000000E+00 -0.50906270311E+02  0.10364198665E+03  0.90278530333E+02 0.  0.
        -11    1    3    3    0    0  0.83605738180E+01  0.43872136949E+02 -0.17934697993E+02  0.48128130933E+02  0.00000000000E+00 0.  1.
         11    1    3    3    0    0 -0.83605738180E+01 -0.43872136949E+02 -0.32971572318E+02  0.55513855714E+02  0.00000000000E+00 0. -1.
<mgrwt>
<rscale>  0 0.90278530E+02</rscale>
<asrwt>0</asrwt>
<pdfrwt beam="2">  1        4 0.11888327E-01 0.90278530E+02</pdfrwt>
<pdfrwt beam="1">  1       -4 0.40565936E-02 0.90278530E+02</pdfrwt>
<totfact> 0.26946175E+04</totfact>
</mgrwt>
</event>
<event>
 5    1  0.6222456E+000  0.9025332E+02  0.7546771E-02  0.1302239E+00
         -1   -1    0    0    0  501 -0.00000000000E+00  0.00000000000E+00  0.32225958608E+02  0.32225958608E+02  0.00000000000E+00 0.  1.
          1   -1    0    0  501    0  0.00000000000E+00 -0.00000000000E+00 -0.63191776495E+02  0.63191776495E+02  0.00000000000E+00 0. -1.
         23    2    1    2    0    0  0.00000000000E+00  0.00000000000E+00 -0.30965817887E+02  0.95417735103E+02  0.90253322902E+02 0.  0.
        -11    1    3    3    0    0 -0.92764871317E+01  0.29790073433E+02  0.18985000505E+02  0.36523032908E+02  0.00000000000E+00 0.  1.
         11    1    3    3    0    0  0.92764871317E+01 -0.29790073433E+02 -0.49950818392E+02  0.58894702195E+02  0.00000000000E+00 0. -1.
<mgrwt>
<rscale>  0 0.90253323E+02</rscale>
<asrwt>0</asrwt>
<pdfrwt beam="2">  1        1 0.97218116E-02 0.90253323E+02</pdfrwt>
<pdfrwt beam="1">  1       -1 0.49578399E-02 0.90253323E+02</pdfrwt>
<totfact> 0.99904514E+04</totfact>
</mgrwt>
</event>
<event>
 5    1  0.6222456E+000  0.9163579E+02  0.7546771E-02  0.1298938E+00
          1   -1    0    0  501    0  0.00000000000E+00  0.00000000000E+00  0.62535390401E+02  0.62535390401E+02  0.00000000000E+00 0. -1.
         -1   -1    0    0    0  501 -0.00000000000E+00 -0.00000000000E+00 -0.33569465600E+02  0.33569465600E+02  0.00000000000E+00 0.  1.
         23    2    1    2    0    0  0.00000000000E+00  0.00000000000E+00  0.28965924801E+02  0.96104856001E+02  0.91635792938E+02 0.  0.
        -11    1    3    3    0    0  0.14583502880E+01  0.28447084528E+02 -0.23154817538E+02  0.36708431986E+02  0.00000000000E+00 0.  1.
         11    1    3    3    0    0 -0.14583502880E+01 -0.28447084528E+02  0.52120742339E+02  0.59396424014E+02  0.00000000000E+00 0. -1.
<mgrwt>
<rscale>  0 0.91635793E+02</rscale>
<asrwt>0</asrwt>
<pdfrwt beam="1">  1        1 0.96208293E-02 0.91635793E+02</pdfrwt>
<pdfrwt beam="2">  1       -1 0.51645332E-02 0.91635793E+02</pdfrwt>
<totfact> 0.95637116E+04</totfact>
</mgrwt>
</event>
<event>
 5    1  0.6222456E+000  0.8974194E+02  0.7546771E-02  0.1303478E+00
         -1   -1    0    0    0  501 -0.00000000000E+00  0.00000000000E+00  0.20884727594E+03  0.20884727594E+03  0.00000000000E+00 0.  1.
          1   -1    0    0  501    0  0.00000000000E+00 -0.00000000000E+00 -0.96405563672E+01  0.96405563672E+01  0.00000000000E+00 0. -1.
         23    2    1    2    0    0  0.00000000000E+00  0.00000000000E+00  0.19920671958E+03  0.21848783231E+03  0.89741939713E+02 0.  0.
        -11    1    3    3    0    0 -0.30147273892E+02 -0.15146067761E+02  0.17162635483E+03  0.17491102643E+03  0.00000000000E+00 0.  1.
         11    1    3    3    0    0  0.30147273892E+02  0.15146067761E+02  0.27580364741E+02  0.43576805883E+02  0.00000000000E+00 0. -1.
<mgrwt>
<rscale>  0 0.89741940E+02</rscale>
<asrwt>0</asrwt>
<pdfrwt beam="2">  1        1 0.14831627E-02 0.89741940E+02</pdfrwt>
<pdfrwt beam="1">  1       -1 0.32130347E-01 0.89741940E+02</pdfrwt>
<totfact> 0.71447535E+04</totfact>
</mgrwt>
</event>
<event>
 5    1  0.6222456E+000  0.9642667E+02  0.7546771E-02  0.1287995E+00
         -1   -1    0    0    0  501 -0.00000000000E+00  0.00000000000E+00  0.27892955331E+02  0.27892955331E+02  0.00000000000E+00 0.  1.
          1   -1    0    0  501    0  0.00000000000E+00 -0.00000000000E+00 -0.83337382426E+02  0.83337382426E+02  0.00000000000E+00 0. -1.
         23    2    1    2    0    0  0.00000000000E+00  0.00000000000E+00 -0.55444427095E+02  0.11123033776E+03  0.96426674430E+02 0.  0.
        -11    1    3    3    0    0 -0.18113010551E+02  0.13278730131E+02  0.21490360931E+02  0.31084424364E+02  0.00000000000E+00 0.  1.
         11    1    3    3    0    0  0.18113010551E+02 -0.13278730131E+02 -0.76934788025E+02  0.80145913393E+02  0.00000000000E+00 0. -1.
<mgrwt>
<rscale>  0 0.96426674E+02</rscale>
<asrwt>0</asrwt>
<pdfrwt beam="2">  1        1 0.12821136E-01 0.96426674E+02</pdfrwt>
<pdfrwt beam="1">  1       -1 0.42912239E-02 0.96426674E+02</pdfrwt>
<totfact> 0.86911603E+04</totfact>
</mgrwt>
</event>
<event>
 5    1  0.6222456E+000  0.9049933E+02  0.7546771E-02  0.1301647E+00
         -1   -1    0    0    0  501 -0.00000000000E+00  0.00000000000E+00  0.67429843563E+01  0.67429843563E+01  0.00000000000E+00 0.  1.
          1   -1    0    0  501    0  0.00000000000E+00 -0.00000000000E+00 -0.30365368809E+03  0.30365368809E+03  0.00000000000E+00 0. -1.
         23    2    1    2    0    0  0.00000000000E+00  0.00000000000E+00 -0.29691070373E+03  0.31039667245E+03  0.90499327479E+02 0.  0.
        -11    1    3    3    0    0  0.11628843787E+02 -0.43524588193E+02 -0.13393934449E+03  0.14131301351E+03  0.00000000000E+00 0. -1.
         11    1    3    3    0    0 -0.11628843787E+02  0.43524588193E+02 -0.16297135925E+03  0.16908365894E+03  0.00000000000E+00 0.  1.
<mgrwt>
<rscale>  0 0.90499327E+02</rscale>
<asrwt>0</asrwt>
<pdfrwt beam="2">  1        1 0.46715941E-01 0.90499327E+02</pdfrwt>
<pdfrwt beam="1">  1       -1 0.10373825E-02 0.90499327E+02</pdfrwt>
<totfact> 0.13099260E+05</totfact>
</mgrwt>
</event>
<event>
 5    1  0.6222456E+000  0.9332290E+02  0.7546771E-02  0.1294999E+00
         -2   -1    0    0    0  501 -0.00000000000E+00  0.00000000000E+00  0.12030179842E+02  0.12030179842E+02  0.00000000000E+00 0.  1.
          2   -1    0    0  501    0  0.00000000000E+00 -0.00000000000E+00 -0.18098575031E+03  0.18098575031E+03  0.00000000000E+00 0. -1.
         23    2    1    2    0    0  0.00000000000E+00  0.00000000000E+00 -0.16895557047E+03  0.19301593015E+03  0.93322904477E+02 0.  0.
        -11    1    3    3    0    0 -0.21584741779E+02  0.41327742523E+02 -0.88295807606E+02  0.99850052681E+02  0.00000000000E+00 0.  1.
         11    1    3    3    0    0  0.21584741779E+02 -0.41327742523E+02 -0.80659762862E+02  0.93165877470E+02  0.00000000000E+00 0. -1.
<mgrwt>
<rscale>  0 0.93322904E+02</rscale>
<asrwt>0</asrwt>
<pdfrwt beam="2">  1        2 0.27843958E-01 0.93322904E+02</pdfrwt>
<pdfrwt beam="1">  1       -2 0.18507971E-02 0.93322904E+02</pdfrwt>
<totfact> 0.14013281E+05</totfact>
</mgrwt>
</event>
<event>
 5    1  0.6222456E+000  0.1145189E+03  0.7546771E-02  0.1252423E+00
          3   -1    0    0  501    0  0.00000000000E+00  0.00000000000E+00  0.43929182347E+03  0.43929182347E+03  0.00000000000E+00 0. -1.
         -3   -1    0    0    0  501 -0.00000000000E+00 -0.00000000000E+00 -0.74634752870E+01  0.74634752870E+01  0.00000000000E+00 0.  1.
         23    2    1    2    0    0  0.00000000000E+00  0.00000000000E+00  0.43182834818E+03  0.44675529876E+03  0.11451888348E+03 0.  0.
        -11    1    3    3    0    0 -0.52815502633E+02  0.83220849219E+01  0.13597303559E+03  0.14610749749E+03  0.00000000000E+00 0.  1.
         11    1    3    3    0    0  0.52815502633E+02 -0.83220849219E+01  0.29585531259E+03  0.30064780127E+03  0.00000000000E+00 0. -1.
<mgrwt>
<rscale>  0 0.11451888E+03</rscale>
<asrwt>0</asrwt>
<pdfrwt beam="1">  1        3 0.67583337E-01 0.11451888E+03</pdfrwt>
<pdfrwt beam="2">  1       -3 0.11482273E-02 0.11451888E+03</pdfrwt>
<totfact> 0.10398842E+04</totfact>
</mgrwt>
</event>
<event>
 5    1  0.6222456E+000  0.9175677E+02  0.7546771E-02  0.1298652E+00
         -1   -1    0    0    0  501 -0.00000000000E+00  0.00000000000E+00  0.91195107879E+02  0.91195107879E+02  0.00000000000E+00 0.  1.
          1   -1    0    0  501    0  0.00000000000E+00 -0.00000000000E+00 -0.23080473494E+02  0.23080473494E+02  0.00000000000E+00 0. -1.
         23    2    1    2    0    0  0.00000000000E+00  0.00000000000E+00  0.68114634386E+02  0.11427558137E+03  0.91756771307E+02 0.  0.
        -11    1    3    3    0    0 -0.34932320945E+02  0.16379714692E+02  0.31402154459E+01  0.38709469811E+02  0.00000000000E+00 0. -1.
         11    1    3    3    0    0  0.34932320945E+02 -0.16379714692E+02  0.64974418940E+02  0.75566111562E+02  0.00000000000E+00 0.  1.
<mgrwt>
<rscale>  0 0.91756771E+02</rscale>
<asrwt>0</asrwt>
<pdfrwt beam="2">  1        1 0.35508421E-02 0.91756771E+02</pdfrwt>
<pdfrwt beam="1">  1       -1 0.14030016E-01 0.91756771E+02</pdfrwt>
<totfact> 0.81409184E+04</totfact>
</mgrwt>
</event>
<event>
 5    1  0.6222456E+000  0.9223490E+02  0.7546771E-02  0.1297528E+00
          2   -1    0    0  501    0  0.00000000000E+00  0.00000000000E+00  0.26329484978E+02  0.26329484978E+02  0.00000000000E+00 0. -1.
         -2   -1    0    0    0  501 -0.00000000000E+00 -0.00000000000E+00 -0.80777094423E+02  0.80777094423E+02  0.00000000000E+00 0.  1.
         23    2    1    2    0    0  0.00000000000E+00  0.00000000000E+00 -0.54447609445E+02  0.10710657940E+03  0.92234902161E+02 0.  0.
        -11    1    3    3    0    0 -0.43342891633E+01  0.33648303411E+02 -0.63498753531E+02  0.71993653088E+02  0.00000000000E+00 0.  1.
         11    1    3    3    0    0  0.43342891633E+01 -0.33648303411E+02  0.90511440859E+01  0.35112926313E+02  0.00000000000E+00 0. -1.
<mgrwt>
<rscale>  0 0.92234902E+02</rscale>
<asrwt>0</asrwt>
<pdfrwt beam="1">  1        2 0.40506901E-02 0.92234902E+02</pdfrwt>
<pdfrwt beam="2">  1       -2 0.12427245E-01 0.92234902E+02</pdfrwt>
<totfact> 0.82476725E+04</totfact>
</mgrwt>
</event>
<event>
 5    1  0.6222456E+000  0.9949099E+02  0.7546771E-02  0.1281370E+00
         -1   -1    0    0    0  501 -0.00000000000E+00  0.00000000000E+00  0.30089577821E+03  0.30089577821E+03  0.00000000000E+00 0.  1.
          1   -1    0    0  501    0  0.00000000000E+00 -0.00000000000E+00 -0.82241572162E+01  0.82241572162E+01  0.00000000000E+00 0. -1.
         23    2    1    2    0    0  0.00000000000E+00  0.00000000000E+00  0.29267162099E+03  0.30911993542E+03  0.99490988249E+02 0.  0.
        -11    1    3    3    0    0 -0.21793012717E+02  0.43292182247E+02  0.18113794196E+03  0.18751027296E+03  0.00000000000E+00 0.  1.
         11    1    3    3    0    0  0.21793012717E+02 -0.43292182247E+02  0.11153367903E+03  0.12160966246E+03  0.00000000000E+00 0. -1.
<mgrwt>
<rscale>  0 0.99490988E+02</rscale>
<asrwt>0</asrwt>
<pdfrwt beam="2">  1        1 0.12652552E-02 0.99490988E+02</pdfrwt>
<pdfrwt beam="1">  1       -1 0.46291650E-01 0.99490988E+02</pdfrwt>
<totfact> 0.48129842E+04</totfact>
</mgrwt>
</event>
<event>
 5    1  0.6222456E+000  0.9167437E+02  0.7546771E-02  0.1298847E+00
          4   -1    0    0  501    0  0.00000000000E+00  0.00000000000E+00  0.32361082584E+03  0.32361082584E+03  0.00000000000E+00 0. -1.
         -4   -1    0    0    0  501 -0.00000000000E+00 -0.00000000000E+00 -0.64925137403E+01  0.64925137403E+01  0.00000000000E+00 0.  1.
         23    2    1    2    0    0  0.00000000000E+00  0.00000000000E+00  0.31711831210E+03  0.33010333958E+03  0.91674374462E+02 0.  0.
        -11    1    3    3    0    0  0.31962753419E+02  0.29733205464E+02  0.10822913128E+03  0.11670143945E+03  0.00000000000E+00 0. -1.
         11    1    3    3    0    0 -0.31962753419E+02 -0.29733205464E+02  0.20888918082E+03  0.21340190013E+03  0.00000000000E+00 0.  1.
<mgrwt>
<rscale>  0 0.91674374E+02</rscale>
<asrwt>0</asrwt>
<pdfrwt beam="1">  1        4 0.49786268E-01 0.91674374E+02</pdfrwt>
<pdfrwt beam="2">  1       -4 0.99884852E-03 0.91674374E+02</pdfrwt>
<totfact> 0.16696358E+04</totfact>
</mgrwt>
</event>
<event>
 5    1  0.6222456E+000  0.9139360E+02  0.7546771E-02  0.1299512E+00
         -1   -1    0    0    0  501 -0.00000000000E+00  0.00000000000E+00  0.60992591500E+02  0.60992591500E+02  0.00000000000E+00 0.  1.
          1   -1    0    0  501    0  0.00000000000E+00 -0.00000000000E+00 -0.34236904045E+02  0.34236904045E+02  0.00000000000E+00 0. -1.
         23    2    1    2    0    0  0.00000000000E+00  0.00000000000E+00  0.26755687455E+02  0.95229495545E+02  0.91393599396E+02 0.  0.
        -11    1    3    3    0    0 -0.32573987172E+02 -0.19686000226E+02  0.39729503823E+02  0.55018512514E+02  0.00000000000E+00 0.  1.
         11    1    3    3    0    0  0.32573987172E+02  0.19686000226E+02 -0.12973816368E+02  0.40210983031E+02  0.00000000000E+00 0. -1.
<mgrwt>
<rscale>  0 0.91393599E+02</rscale>
<asrwt>0</asrwt>
<pdfrwt beam="2">  1        1 0.52672160E-02 0.91393599E+02</pdfrwt>
<pdfrwt beam="1">  1       -1 0.93834756E-02 0.91393599E+02</pdfrwt>
<totfact> 0.87921990E+04</totfact>
</mgrwt>
</event>
<event>
 5    1  0.6222456E+000  0.9268632E+02  0.7546771E-02  0.1296474E+00
          3   -1    0    0  501    0  0.00000000000E+00  0.00000000000E+00  0.13319927243E+03  0.13319927243E+03  0.00000000000E+00 0. -1.
         -3   -1    0    0    0  501 -0.00000000000E+00 -0.00000000000E+00 -0.16123875360E+02  0.16123875360E+02  0.00000000000E+00 0.  1.
         23    2    1    2    0    0  0.00000000000E+00  0.00000000000E+00  0.11707539707E+03  0.14932314779E+03  0.92686319741E+02 0.  0.
        -11    1    3    3    0    0  0.32421741462E+02  0.32966911116E+02  0.53519586908E+02  0.70727171092E+02  0.00000000000E+00 0.  1.
         11    1    3    3    0    0 -0.32421741462E+02 -0.32966911116E+02  0.63555810166E+02  0.78595976702E+02  0.00000000000E+00 0. -1.
<mgrwt>
<rscale>  0 0.92686320E+02</rscale>
<asrwt>0</asrwt>
<pdfrwt beam="1">  1        3 0.20492195E-01 0.92686320E+02</pdfrwt>
<pdfrwt beam="2">  1       -3 0.24805963E-02 0.92686320E+02</pdfrwt>
<totfact> 0.29981660E+04</totfact>
</mgrwt>
</event>
<event>
 5    1  0.6222456E+000  0.8942074E+02  0.7546771E-02  0.1304261E+00
         -2   -1    0    0    0  501 -0.00000000000E+00  0.00000000000E+00  0.57859726782E+02  0.57859726782E+02  0.00000000000E+00 0.  1.
          2   -1    0    0  501    0  0.00000000000E+00 -0.00000000000E+00 -0.34549372898E+02  0.34549372898E+02  0.00000000000E+00 0. -1.
         23    2    1    2    0    0  0.00000000000E+00  0.00000000000E+00  0.23310353884E+02  0.92409099680E+02  0.89420742031E+02 0.  0.
        -11    1    3    3    0    0  0.20922028363E+01 -0.28905497784E+02  0.46838689958E+02  0.55079651341E+02  0.00000000000E+00 0.  1.
         11    1    3    3    0    0 -0.20922028363E+01  0.28905497784E+02 -0.23528336074E+02  0.37329448339E+02  0.00000000000E+00 0. -1.
<mgrwt>
<rscale>  0 0.89420742E+02</rscale>
<asrwt>0</asrwt>
<pdfrwt beam="2">  1        2 0.53152881E-02 0.89420742E+02</pdfrwt>
<pdfrwt beam="1">  1       -2 0.89014965E-02 0.89420742E+02</pdfrwt>
<totfact> 0.97196221E+04</totfact>
</mgrwt>
</event>
<event>
 5    1  0.6222456E+000  0.9158470E+02  0.7546771E-02  0.1299059E+00
         -1   -1    0    0    0  501 -0.00000000000E+00  0.00000000000E+00  0.85034434744E+01  0.85034434744E+01  0.00000000000E+00 0.  1.
          1   -1    0    0  501    0  0.00000000000E+00 -0.00000000000E+00 -0.24659884945E+03  0.24659884945E+03  0.00000000000E+00 0. -1.
         23    2    1    2    0    0  0.00000000000E+00  0.00000000000E+00 -0.23809540597E+03  0.25510229292E+03  0.91584701280E+02 0.  0.
        -11    1    3    3    0    0 -0.42884486686E+02 -0.13365966057E+02 -0.14383816003E+03  0.15068889982E+03  0.00000000000E+00 0. -1.
         11    1    3    3    0    0  0.42884486686E+02  0.13365966057E+02 -0.94257245939E+02  0.10441339310E+03  0.00000000000E+00 0.  1.
<mgrwt>
<rscale>  0 0.91584701E+02</rscale>
<asrwt>0</asrwt>
<pdfrwt beam="2">  1        1 0.37938287E-01 0.91584701E+02</pdfrwt>
<pdfrwt beam="1">  1       -1 0.13082220E-02 0.91584701E+02</pdfrwt>
<totfact> 0.12187679E+05</totfact>
</mgrwt>
</event>
<event>
 5    1  0.6222456E+000  0.9379715E+02  0.7546771E-02  0.1293908E+00
         -1   -1    0    0    0  501 -0.00000000000E+00  0.00000000000E+00  0.24363852517E+02  0.24363852517E+02  0.00000000000E+00 0.  1.
          1   -1    0    0  501    0  0.00000000000E+00 -0.00000000000E+00 -0.90276203815E+02  0.90276203815E+02  0.00000000000E+00 0. -1.
         23    2    1    2    0    0  0.00000000000E+00  0.00000000000E+00 -0.65912351298E+02  0.11464005633E+03  0.93797145278E+02 0.  0.
        -11    1    3    3    0    0 -0.50056063197E+00 -0.38602260777E+02 -0.41016501810E+00  0.38607684901E+02  0.00000000000E+00 0.  1.
         11    1    3    3    0    0  0.50056063197E+00  0.38602260777E+02 -0.65502186279E+02  0.76032371431E+02  0.00000000000E+00 0. -1.
<mgrwt>
<rscale>  0 0.93797145E+02</rscale>
<asrwt>0</asrwt>
<pdfrwt beam="2">  1        1 0.13888647E-01 0.93797145E+02</pdfrwt>
<pdfrwt beam="1">  1       -1 0.37482850E-02 0.93797145E+02</pdfrwt>
<totfact> 0.95034064E+04</totfact>
</mgrwt>
</event>
<event>
 5    1  0.6222456E+000  0.9410605E+02  0.7546771E-02  0.1293202E+00
          2   -1    0    0  501    0  0.00000000000E+00  0.00000000000E+00  0.76805436700E+02  0.76805436700E+02  0.00000000000E+00 0. -1.
         -2   -1    0    0    0  501 -0.00000000000E+00 -0.00000000000E+00 -0.28825919962E+02  0.28825919962E+02  0.00000000000E+00 0.  1.
         23    2    1    2    0    0  0.00000000000E+00  0.00000000000E+00  0.47979516737E+02  0.10563135666E+03  0.94106054448E+02 0.  0.
        -11    1    3    3    0    0  0.22105086512E+02 -0.36151580520E+02  0.46950150599E+02  0.63244669855E+02  0.00000000000E+00 0. -1.
         11    1    3    3    0    0 -0.22105086512E+02  0.36151580520E+02  0.10293661386E+01  0.42386686807E+02  0.00000000000E+00 0.  1.
<mgrwt>
<rscale>  0 0.94106054E+02</rscale>
<asrwt>0</asrwt>
<pdfrwt beam="1">  1        2 0.11816221E-01 0.94106054E+02</pdfrwt>
<pdfrwt beam="2">  1       -2 0.44347569E-02 0.94106054E+02</pdfrwt>
<totfact> 0.10392957E+05</totfact>
</mgrwt>
</event>
<event>
 5    1  0.6222456E+000  0.5943265E+02  0.7546771E-02  0.1400228E+00
         -2   -1    0    0    0  501 -0.00000000000E+00  0.00000000000E+00  0.10015190095E+02  0.10015190095E+02  0.00000000000E+00 0.  1.
          2   -1    0    0  501    0  0.00000000000E+00 -0.00000000000E+00 -0.88172077316E+02  0.88172077316E+02  0.00000000000E+00 0. -1.
         23    2    1    2    0    0  0.00000000000E+00  0.00000000000E+00 -0.78156887221E+02  0.98187267411E+02  0.59432654841E+02 0.  0.
        -11    1    3    3    0    0  0.31013651492E+01  0.21401142938E+02 -0.72751334117E+02  0.75897193629E+02  0.00000000000E+00 0. -1.
         11    1    3    3    0    0 -0.31013651492E+01 -0.21401142938E+02 -0.54055531039E+01  0.22290073782E+02  0.00000000000E+00 0.  1.
<mgrwt>
<rscale>  0 0.59432655E+02</rscale>
<asrwt>0</asrwt>
<pdfrwt beam="2">  1        2 0.13564935E-01 0.59432655E+02</pdfrwt>
<pdfrwt beam="1">  1       -2 0.15407985E-02 0.59432655E+02</pdfrwt>
<totfact> 0.37202178E+05</totfact>
</mgrwt>
</event>
<event>
 5    1  0.6222456E+000  0.9256350E+02  0.7546771E-02  0.1296760E+00
         -1   -1    0    0    0  501 -0.00000000000E+00  0.00000000000E+00  0.59562791956E+02  0.59562791956E+02  0.00000000000E+00 0.  1.
          1   -1    0    0  501    0  0.00000000000E+00 -0.00000000000E+00 -0.35962051072E+02  0.35962051072E+02  0.00000000000E+00 0. -1.
         23    2    1    2    0    0  0.00000000000E+00  0.00000000000E+00  0.23600740885E+02  0.95524843028E+02  0.92563495316E+02 0.  0.
        -11    1    3    3    0    0  0.10932010482E+02 -0.80109714821E+01 -0.33868254364E+02  0.36479352666E+02  0.00000000000E+00 0. -1.
         11    1    3    3    0    0 -0.10932010482E+02  0.80109714821E+01  0.57468995248E+02  0.59045490362E+02  0.00000000000E+00 0.  1.
<mgrwt>
<rscale>  0 0.92563495E+02</rscale>
<asrwt>0</asrwt>
<pdfrwt beam="2">  1        1 0.55326232E-02 0.92563495E+02</pdfrwt>
<pdfrwt beam="1">  1       -1 0.91635064E-02 0.92563495E+02</pdfrwt>
<totfact> 0.85445568E+04</totfact>
</mgrwt>
</event>
<event>
 5    1  0.6222456E+000  0.9032311E+02  0.7546771E-02  0.1302071E+00
         -2   -1    0    0    0  501 -0.00000000000E+00  0.00000000000E+00  0.14095039911E+02  0.14095039911E+02  0.00000000000E+00 0.  1.
          2   -1    0    0  501    0  0.00000000000E+00 -0.00000000000E+00 -0.14470098938E+03  0.14470098938E+03  0.00000000000E+00 0. -1.
         23    2    1    2    0    0  0.00000000000E+00  0.00000000000E+00 -0.13060594947E+03  0.15879602929E+03  0.90323113774E+02 0.  0.
        -11    1    3    3    0    0  0.19833389790E+02 -0.34023086621E+02 -0.10416557797E+03  0.11136157959E+03  0.00000000000E+00 0. -1.
         11    1    3    3    0    0 -0.19833389790E+02  0.34023086621E+02 -0.26440371494E+02  0.47434449702E+02  0.00000000000E+00 0.  1.
<mgrwt>
<rscale>  0 0.90323114E+02</rscale>
<asrwt>0</asrwt>
<pdfrwt beam="2">  1        2 0.22261690E-01 0.90323114E+02</pdfrwt>
<pdfrwt beam="1">  1       -2 0.21684677E-02 0.90323114E+02</pdfrwt>
<totfact> 0.14168864E+05</totfact>
</mgrwt>
</event>
<event>
 5    1  0.6222456E+000  0.9229143E+02  0.7546771E-02  0.1297396E+00
          1   -1    0    0  501    0  0.00000000000E+00  0.00000000000E+00  0.10133273037E+03  0.10133273037E+03  0.00000000000E+00 0. -1.
         -1   -1    0    0    0  501 -0.00000000000E+00 -0.00000000000E+00 -0.21014207580E+02  0.21014207580E+02  0.00000000000E+00 0.  1.
         23    2    1    2    0    0  0.00000000000E+00  0.00000000000E+00  0.80318522790E+02  0.12234693795E+03  0.92291430385E+02 0.  0.
        -11    1    3    3    0    0  0.42046004992E+02  0.71565252529E+01  0.63512862227E+02  0.76504679972E+02  0.00000000000E+00 0. -1.
         11    1    3    3    0    0 -0.42046004992E+02 -0.71565252529E+01  0.16805660563E+02  0.45842257977E+02  0.00000000000E+00 0.  1.
<mgrwt>
<rscale>  0 0.92291430E+02</rscale>
<asrwt>0</asrwt>
<pdfrwt beam="1">  1        1 0.15589651E-01 0.92291430E+02</pdfrwt>
<pdfrwt beam="2">  1       -1 0.32329551E-02 0.92291430E+02</pdfrwt>
<totfact> 0.10126724E+05</totfact>
</mgrwt>
</event>
<event>
 5    1  0.6222456E+000  0.9194593E+02  0.7546771E-02  0.1298207E+00
          4   -1    0    0  501    0  0.00000000000E+00  0.00000000000E+00  0.22293443500E+02  0.22293443500E+02  0.00000000000E+00 0. -1.
         -4   -1    0    0    0  501 -0.00000000000E+00 -0.00000000000E+00 -0.94804265373E+02  0.94804265373E+02  0.00000000000E+00 0.  1.
         23    2    1    2    0    0  0.00000000000E+00  0.00000000000E+00 -0.72510821874E+02  0.11709770887E+03  0.91945930495E+02 0.  0.
        -11    1    3    3    0    0  0.32333453900E+02 -0.26012685361E+02 -0.11059670570E+02  0.42946808425E+02  0.00000000000E+00 0. -1.
         11    1    3    3    0    0 -0.32333453900E+02  0.26012685361E+02 -0.61451151304E+02  0.74150900448E+02  0.00000000000E+00 0.  1.
<mgrwt>
<rscale>  0 0.91945930E+02</rscale>
<asrwt>0</asrwt>
<pdfrwt beam="1">  1        4 0.34297605E-02 0.91945930E+02</pdfrwt>
<pdfrwt beam="2">  1       -4 0.14585272E-01 0.91945930E+02</pdfrwt>
<totfact> 0.24865900E+04</totfact>
</mgrwt>
</event>
<event>
 5    1  0.6222456E+000  0.9172957E+02  0.7546771E-02  0.1298717E+00
          3   -1    0    0  501    0  0.00000000000E+00  0.00000000000E+00  0.24717909247E+02  0.24717909247E+02  0.00000000000E+00 0. -1.
         -3   -1    0    0    0  501 -0.00000000000E+00 -0.00000000000E+00 -0.85103424496E+02  0.85103424496E+02  0.00000000000E+00 0.  1.
         23    2    1    2    0    0  0.00000000000E+00  0.00000000000E+00 -0.60385515249E+02  0.10982133374E+03  0.91729574802E+02 0.  0.
        -11    1    3    3    0    0  0.22358235683E+02  0.30041405312E+02  0.15101359307E+01  0.37478757269E+02  0.00000000000E+00 0. -1.
         11    1    3    3    0    0 -0.22358235683E+02 -0.30041405312E+02 -0.61895651180E+02  0.72342576474E+02  0.00000000000E+00 0.  1.
<mgrwt>
<rscale>  0 0.91729575E+02</rscale>
<asrwt>0</asrwt>
<pdfrwt beam="1">  1        3 0.38027553E-02 0.91729575E+02</pdfrwt>
<pdfrwt beam="2">  1       -3 0.13092834E-01 0.91729575E+02</pdfrwt>
<totfact> 0.33404673E+04</totfact>
</mgrwt>
</event>
<event>
 5    1  0.6222456E+000  0.9034683E+02  0.7546771E-02  0.1302014E+00
         -1   -1    0    0    0  501 -0.00000000000E+00  0.00000000000E+00  0.16364452809E+03  0.16364452809E+03  0.00000000000E+00 0.  1.
          1   -1    0    0  501    0  0.00000000000E+00 -0.00000000000E+00 -0.12469939615E+02  0.12469939615E+02  0.00000000000E+00 0. -1.
         23    2    1    2    0    0  0.00000000000E+00  0.00000000000E+00  0.15117458847E+03  0.17611446770E+03  0.90346829131E+02 0.  0.
        -11    1    3    3    0    0 -0.44729675452E+02 -0.57395346770E+01  0.70447877198E+02  0.83645618690E+02  0.00000000000E+00 0. -1.
         11    1    3    3    0    0  0.44729675452E+02  0.57395346770E+01  0.80726711273E+02  0.92468849010E+02  0.00000000000E+00 0.  1.
<mgrwt>
<rscale>  0 0.90346829E+02</rscale>
<asrwt>0</asrwt>
<pdfrwt beam="2">  1        1 0.19184524E-02 0.90346829E+02</pdfrwt>
<pdfrwt beam="1">  1       -1 0.25176080E-01 0.90346829E+02</pdfrwt>
<totfact> 0.74995798E+04</totfact>
</mgrwt>
</event>
<event>
 5    1  0.6222456E+000  0.8940607E+02  0.7546771E-02  0.1304296E+00
         -3   -1    0    0    0  501 -0.00000000000E+00  0.00000000000E+00  0.63678220716E+02  0.63678220716E+02  0.00000000000E+00 0.  1.
          3   -1    0    0  501    0  0.00000000000E+00 -0.00000000000E+00 -0.31382182600E+02  0.31382182600E+02  0.00000000000E+00 0. -1.
         23    2    1    2    0    0  0.00000000000E+00  0.00000000000E+00  0.32296038115E+02  0.95060403316E+02  0.89406074742E+02 0.  0.
        -11    1    3    3    0    0 -0.82189415271E+01 -0.43239198397E+02  0.24464611624E+02  0.50355699774E+02  0.00000000000E+00 0.  1.
         11    1    3    3    0    0  0.82189415271E+01  0.43239198397E+02  0.78314264919E+01  0.44704703542E+02  0.00000000000E+00 0. -1.
<mgrwt>
<rscale>  0 0.89406075E+02</rscale>
<asrwt>0</asrwt>
<pdfrwt beam="2">  1        3 0.48280281E-02 0.89406075E+02</pdfrwt>
<pdfrwt beam="1">  1       -3 0.97966493E-02 0.89406075E+02</pdfrwt>
<totfact> 0.36959931E+04</totfact>
</mgrwt>
</event>
<event>
 5    1  0.6222456E+000  0.9058869E+02  0.7546771E-02  0.1301432E+00
         -1   -1    0    0    0  501 -0.00000000000E+00  0.00000000000E+00  0.17677888392E+02  0.17677888392E+02  0.00000000000E+00 0. -1.
          1   -1    0    0  501    0  0.00000000000E+00 -0.00000000000E+00 -0.11605331231E+03  0.11605331231E+03  0.00000000000E+00 0.  1.
         23    2    1    2    0    0  0.00000000000E+00  0.00000000000E+00 -0.98375423917E+02  0.13373120070E+03  0.90588685882E+02 0.  0.
        -11    1    3    3    0    0  0.95825717972E+01 -0.24307939215E+02 -0.10380634476E+03  0.10704419089E+03  0.00000000000E+00 0.  1.
         11    1    3    3    0    0 -0.95825717972E+01  0.24307939215E+02  0.54309208460E+01  0.26687009806E+02  0.00000000000E+00 0. -1.
<mgrwt>
<rscale>  0 0.90588686E+02</rscale>
<asrwt>0</asrwt>
<pdfrwt beam="2">  1        1 0.17854356E-01 0.90588686E+02</pdfrwt>
<pdfrwt beam="1">  1       -1 0.27196751E-02 0.90588686E+02</pdfrwt>
<totfact> 0.10901385E+05</totfact>
</mgrwt>
</event>
<event>
 5    1  0.6222456E+000  0.9265439E+02  0.7546771E-02  0.1296548E+00
          1   -1    0    0  501    0  0.00000000000E+00  0.00000000000E+00  0.35682415734E+03  0.35682415734E+03  0.00000000000E+00 0. -1.
         -1   -1    0    0    0  501 -0.00000000000E+00 -0.00000000000E+00 -0.60147519781E+01  0.60147519781E+01  0.00000000000E+00 0.  1.
         23    2    1    2    0    0  0.00000000000E+00  0.00000000000E+00  0.35080940536E+03  0.36283890931E+03  0.92654385890E+02 0.  0.
        -11    1    3    3    0    0 -0.18930251344E+02 -0.37789337081E+02  0.24968792895E+03  0.25323990657E+03  0.00000000000E+00 0. -1.
         11    1    3    3    0    0  0.18930251344E+02  0.37789337081E+02  0.10112147640E+03  0.10959900275E+03  0.00000000000E+00 0.  1.
<mgrwt>
<rscale>  0 0.92654386E+02</rscale>
<asrwt>0</asrwt>
<pdfrwt beam="1">  1        1 0.54896008E-01 0.92654386E+02</pdfrwt>
<pdfrwt beam="2">  1       -1 0.92534674E-03 0.92654386E+02</pdfrwt>
<totfact> 0.12674356E+05</totfact>
</mgrwt>
</event>
<event>
 5    1  0.6222456E+000  0.9183293E+02  0.7546771E-02  0.1298473E+00
          2   -1    0    0  501    0  0.00000000000E+00  0.00000000000E+00  0.99728438413E+02  0.99728438413E+02  0.00000000000E+00 0. -1.
         -2   -1    0    0    0  501 -0.00000000000E+00 -0.00000000000E+00 -0.21140625884E+02  0.21140625884E+02  0.00000000000E+00 0.  1.
         23    2    1    2    0    0  0.00000000000E+00  0.00000000000E+00  0.78587812530E+02  0.12086906430E+03  0.91832926697E+02 0.  0.
        -11    1    3    3    0    0 -0.29715984842E+02 -0.20208334320E+02  0.16753146840E+01  0.35975313903E+02  0.00000000000E+00 0.  1.
         11    1    3    3    0    0  0.29715984842E+02  0.20208334320E+02  0.76912497846E+02  0.84893750394E+02  0.00000000000E+00 0. -1.
<mgrwt>
<rscale>  0 0.91832927E+02</rscale>
<asrwt>0</asrwt>
<pdfrwt beam="1">  1        2 0.15342836E-01 0.91832927E+02</pdfrwt>
<pdfrwt beam="2">  1       -2 0.32524040E-02 0.91832927E+02</pdfrwt>
<totfact> 0.12017520E+05</totfact>
</mgrwt>
</event>
<event>
 5    1  0.6222456E+000  0.9093131E+02  0.7546771E-02  0.1300612E+00
         -2   -1    0    0    0  501 -0.00000000000E+00  0.00000000000E+00  0.45723031054E+01  0.45723031054E+01  0.00000000000E+00 0.  1.
          2   -1    0    0  501    0  0.00000000000E+00 -0.00000000000E+00 -0.45209727205E+03  0.45209727205E+03  0.00000000000E+00 0. -1.
         23    2    1    2    0    0  0.00000000000E+00  0.00000000000E+00 -0.44752496894E+03  0.45666957515E+03  0.90931309480E+02 0.  0.
        -11    1    3    3    0    0  0.22699442248E+02 -0.38651901768E+02 -0.26197417973E+03  0.26578131054E+03  0.00000000000E+00 0.  1.
         11    1    3    3    0    0 -0.22699442248E+02  0.38651901768E+02 -0.18555078922E+03  0.19088826462E+03  0.00000000000E+00 0. -1.
<mgrwt>
<rscale>  0 0.90931309E+02</rscale>
<asrwt>0</asrwt>
<pdfrwt beam="2">  1        2 0.69553448E-01 0.90931309E+02</pdfrwt>
<pdfrwt beam="1">  1       -2 0.70343103E-03 0.90931309E+02</pdfrwt>
<totfact> 0.20986598E+05</totfact>
</mgrwt>
</event>
<event>
 5    1  0.6222456E+000  0.9092169E+02  0.7546771E-02  0.1300635E+00
         -2   -1    0    0    0  501 -0.00000000000E+00  0.00000000000E+00  0.23471991720E+02  0.23471991720E+02  0.00000000000E+00 0.  1.
          2   -1    0    0  501    0  0.00000000000E+00 -0.00000000000E+00 -0.88049131638E+02  0.88049131638E+02  0.00000000000E+00 0. -1.
         23    2    1    2    0    0  0.00000000000E+00  0.00000000000E+00 -0.64577139917E+02  0.11152112336E+03  0.90921691335E+02 0.  0.
        -11    1    3    3    0    0 -0.39284780586E+02 -0.22053697165E+01 -0.43581845572E+01  0.39587263279E+02  0.00000000000E+00 0.  1.
         11    1    3    3    0    0  0.39284780586E+02  0.22053697165E+01 -0.60218955360E+02  0.71933860080E+02  0.00000000000E+00 0. -1.
<mgrwt>
<rscale>  0 0.90921691E+02</rscale>
<asrwt>0</asrwt>
<pdfrwt beam="2">  1        2 0.13546020E-01 0.90921691E+02</pdfrwt>
<pdfrwt beam="1">  1       -2 0.36110757E-02 0.90921691E+02</pdfrwt>
<totfact> 0.11901225E+05</totfact>
</mgrwt>
</event>
<event>
 5    1  0.6222456E+000  0.9061872E+02  0.7546771E-02  0.1301360E+00
          2   -1    0    0  501    0  0.00000000000E+00  0.00000000000E+00  0.68621317099E+02  0.68621317099E+02  0.00000000000E+00 0. -1.
         -2   -1    0    0    0  501 -0.00000000000E+00 -0.00000000000E+00 -0.29916912206E+02  0.29916912206E+02  0.00000000000E+00 0.  1.
         23    2    1    2    0    0  0.00000000000E+00  0.00000000000E+00  0.38704404893E+02  0.98538229305E+02  0.90618715928E+02 0.  0.
        -11    1    3    3    0    0  0.20296971270E+02 -0.30079018134E+02  0.48856936273E+02  0.60858151439E+02  0.00000000000E+00 0. -1.
         11    1    3    3    0    0 -0.20296971270E+02  0.30079018134E+02 -0.10152531379E+02  0.37680077866E+02  0.00000000000E+00 0.  1.
<mgrwt>
<rscale>  0 0.90618716E+02</rscale>
<asrwt>0</asrwt>
<pdfrwt beam="1">  1        2 0.10557126E-01 0.90618716E+02</pdfrwt>
<pdfrwt beam="2">  1       -2 0.46026019E-02 0.90618716E+02</pdfrwt>
<totfact> 0.11191910E+05</totfact>
</mgrwt>
</event>
<event>
 5    1  0.6222456E+000  0.9052430E+02  0.7546771E-02  0.1301587E+00
         -2   -1    0    0    0  501 -0.00000000000E+00  0.00000000000E+00  0.86543469330E+01  0.86543469330E+01  0.00000000000E+00 0. -1.
          2   -1    0    0  501    0  0.00000000000E+00 -0.00000000000E+00 -0.23672058451E+03  0.23672058451E+03  0.00000000000E+00 0.  1.
         23    2    1    2    0    0  0.00000000000E+00  0.00000000000E+00 -0.22806623758E+03  0.24537493144E+03  0.90524296507E+02 0.  0.
        -11    1    3    3    0    0 -0.26614760359E+02 -0.34143048534E+02 -0.14984675241E+03  0.15597481348E+03  0.00000000000E+00 0.  1.
         11    1    3    3    0    0  0.26614760359E+02  0.34143048534E+02 -0.78219485169E+02  0.89400117965E+02  0.00000000000E+00 0. -1.
<mgrwt>
<rscale>  0 0.90524297E+02</rscale>
<asrwt>0</asrwt>
<pdfrwt beam="2">  1        2 0.36418552E-01 0.90524297E+02</pdfrwt>
<pdfrwt beam="1">  1       -2 0.13314380E-02 0.90524297E+02</pdfrwt>
<totfact> 0.16770617E+05</totfact>
</mgrwt>
</event>
<event>
 5    1  0.6222456E+000  0.9111521E+02  0.7546771E-02  0.1300173E+00
         -3   -1    0    0    0  501 -0.00000000000E+00  0.00000000000E+00  0.44465974169E+02  0.44465974169E+02  0.00000000000E+00 0.  1.
          3   -1    0    0  501    0  0.00000000000E+00 -0.00000000000E+00 -0.46676032139E+02  0.46676032139E+02  0.00000000000E+00 0. -1.
         23    2    1    2    0    0  0.00000000000E+00  0.00000000000E+00 -0.22100579701E+01  0.91142006307E+02  0.91115207059E+02 0.  0.
        -11    1    3    3    0    0 -0.36777282652E+02 -0.24441412643E+02  0.10102911514E+02  0.45299227282E+02  0.00000000000E+00 0.  1.
         11    1    3    3    0    0  0.36777282652E+02  0.24441412643E+02 -0.12312969485E+02  0.45842779026E+02  0.00000000000E+00 0. -1.
<mgrwt>
<rscale>  0 0.91115207E+02</rscale>
<asrwt>0</asrwt>
<pdfrwt beam="2">  1        3 0.71809280E-02 0.91115207E+02</pdfrwt>
<pdfrwt beam="1">  1       -3 0.68409191E-02 0.91115207E+02</pdfrwt>
<totfact> 0.35406506E+04</totfact>
</mgrwt>
</event>
<event>
 5    1  0.6222456E+000  0.9207485E+02  0.7546771E-02  0.1297904E+00
         -1   -1    0    0    0  501 -0.00000000000E+00  0.00000000000E+00  0.58211330721E+01  0.58211330721E+01  0.00000000000E+00 0.  1.
          1   -1    0    0  501    0  0.00000000000E+00 -0.00000000000E+00 -0.36409486303E+03  0.36409486303E+03  0.00000000000E+00 0. -1.
         23    2    1    2    0    0  0.00000000000E+00  0.00000000000E+00 -0.35827372996E+03  0.36991599610E+03  0.92074853214E+02 0.  0.
        -11    1    3    3    0    0  0.28944570216E+02 -0.34390196750E+02 -0.21910517385E+03  0.22366839514E+03  0.00000000000E+00 0. -1.
         11    1    3    3    0    0 -0.28944570216E+02  0.34390196750E+02 -0.13916855611E+03  0.14624760096E+03  0.00000000000E+00 0.  1.
<mgrwt>
<rscale>  0 0.92074853E+02</rscale>
<asrwt>0</asrwt>
<pdfrwt beam="2">  1        1 0.56014609E-01 0.92074853E+02</pdfrwt>
<pdfrwt beam="1">  1       -1 0.89555870E-03 0.92074853E+02</pdfrwt>
<totfact> 0.12933719E+05</totfact>
</mgrwt>
</event>
<event>
 5    1  0.6222456E+000  0.9040885E+02  0.7546771E-02  0.1301865E+00
         -3   -1    0    0    0  501 -0.00000000000E+00  0.00000000000E+00  0.29012595657E+02  0.29012595657E+02  0.00000000000E+00 0.  1.
          3   -1    0    0  501    0  0.00000000000E+00 -0.00000000000E+00 -0.70432857669E+02  0.70432857669E+02  0.00000000000E+00 0. -1.
         23    2    1    2    0    0  0.00000000000E+00  0.00000000000E+00 -0.41420262011E+02  0.99445453326E+02  0.90408849579E+02 0.  0.
        -11    1    3    3    0    0 -0.17809352531E+02  0.36184851254E+02  0.17494778269E+01  0.40368021632E+02  0.00000000000E+00 0.  1.
         11    1    3    3    0    0  0.17809352531E+02 -0.36184851254E+02 -0.43169739838E+02  0.59077431694E+02  0.00000000000E+00 0. -1.
<mgrwt>
<rscale>  0 0.90408850E+02</rscale>
<asrwt>0</asrwt>
<pdfrwt beam="2">  1        3 0.10835824E-01 0.90408850E+02</pdfrwt>
<pdfrwt beam="1">  1       -3 0.44634762E-02 0.90408850E+02</pdfrwt>
<totfact> 0.35519391E+04</totfact>
</mgrwt>
</event>
<event>
 5    1  0.6222456E+000  0.9236411E+02  0.7546771E-02  0.1297226E+00
         -2   -1    0    0    0  501 -0.00000000000E+00  0.00000000000E+00  0.76034547395E+02  0.76034547395E+02  0.00000000000E+00 0. -1.
          2   -1    0    0  501    0  0.00000000000E+00 -0.00000000000E+00 -0.28050175790E+02  0.28050175790E+02  0.00000000000E+00 0.  1.
         23    2    1    2    0    0  0.00000000000E+00  0.00000000000E+00  0.47984371605E+02  0.10408472319E+03  0.92364114689E+02 0.  0.
        -11    1    3    3    0    0  0.39512947521E+02 -0.11308784581E+02  0.47727209252E+02  0.62984507091E+02  0.00000000000E+00 0. -1.
         11    1    3    3    0    0 -0.39512947521E+02  0.11308784581E+02  0.25716235251E+00  0.41100216094E+02  0.00000000000E+00 0.  1.
<mgrwt>
<rscale>  0 0.92364115E+02</rscale>
<asrwt>0</asrwt>
<pdfrwt beam="2">  1        2 0.43154117E-02 0.92364115E+02</pdfrwt>
<pdfrwt beam="1">  1       -2 0.11697623E-01 0.92364115E+02</pdfrwt>
<totfact> 0.83580857E+04</totfact>
</mgrwt>
</event>
<event>
 5    1  0.6222456E+000  0.9687726E+02  0.7546771E-02  0.1287003E+00
          1   -1    0    0  501    0  0.00000000000E+00  0.00000000000E+00  0.40495527879E+02  0.40495527879E+02  0.00000000000E+00 0. -1.
         -1   -1    0    0    0  501 -0.00000000000E+00 -0.00000000000E+00 -0.57939758567E+02  0.57939758567E+02  0.00000000000E+00 0.  1.
         23    2    1    2    0    0  0.00000000000E+00  0.00000000000E+00 -0.17444230688E+02  0.98435286447E+02  0.96877264792E+02 0.  0.
        -11    1    3    3    0    0  0.45414742477E+02  0.12615397740E+02  0.26222988549E+01  0.47207240395E+02  0.00000000000E+00 0. -1.
         11    1    3    3    0    0 -0.45414742477E+02 -0.12615397740E+02 -0.20066529543E+02  0.51228046052E+02  0.00000000000E+00 0.  1.
<mgrwt>
<rscale>  0 0.96877265E+02</rscale>
<asrwt>0</asrwt>
<pdfrwt beam="1">  1        1 0.62300812E-02 0.96877265E+02</pdfrwt>
<pdfrwt beam="2">  1       -1 0.89138090E-02 0.96877265E+02</pdfrwt>
<totfact> 0.76461516E+04</totfact>
</mgrwt>
</event>
<event>
 5    1  0.6222456E+000  0.9018680E+02  0.7546771E-02  0.1302400E+00
         -1   -1    0    0    0  501 -0.00000000000E+00  0.00000000000E+00  0.16143292073E+02  0.16143292073E+02  0.00000000000E+00 0.  1.
          1   -1    0    0  501    0  0.00000000000E+00 -0.00000000000E+00 -0.12596035999E+03  0.12596035999E+03  0.00000000000E+00 0. -1.
         23    2    1    2    0    0  0.00000000000E+00  0.00000000000E+00 -0.10981706791E+03  0.14210365206E+03  0.90186803490E+02 0.  0.
        -11    1    3    3    0    0  0.14003829886E+02  0.26993881189E+02 -0.24450500862E+01  0.30508279910E+02  0.00000000000E+00 0.  1.
         11    1    3    3    0    0 -0.14003829886E+02 -0.26993881189E+02 -0.10737201783E+03  0.11159537215E+03  0.00000000000E+00 0. -1.
<mgrwt>
<rscale>  0 0.90186803E+02</rscale>
<asrwt>0</asrwt>
<pdfrwt beam="2">  1        1 0.19378517E-01 0.90186803E+02</pdfrwt>
<pdfrwt beam="1">  1       -1 0.24835834E-02 0.90186803E+02</pdfrwt>
<totfact> 0.11191489E+05</totfact>
</mgrwt>
</event>
<event>
 5    1  0.6222456E+000  0.9148428E+02  0.7546771E-02  0.1299297E+00
          3   -1    0    0  501    0  0.00000000000E+00  0.00000000000E+00  0.32389256561E+02  0.32389256561E+02  0.00000000000E+00 0. -1.
         -3   -1    0    0    0  501 -0.00000000000E+00 -0.00000000000E+00 -0.64599923387E+02  0.64599923387E+02  0.00000000000E+00 0.  1.
         23    2    1    2    0    0  0.00000000000E+00  0.00000000000E+00 -0.32210666825E+02  0.96989179948E+02  0.91484282637E+02 0.  0.
        -11    1    3    3    0    0  0.11441959095E+02 -0.11168030177E+02 -0.61540898424E+02  0.63584003529E+02  0.00000000000E+00 0.  1.
         11    1    3    3    0    0 -0.11441959095E+02  0.11168030177E+02  0.29330231599E+02  0.33405176419E+02  0.00000000000E+00 0. -1.
<mgrwt>
<rscale>  0 0.91484283E+02</rscale>
<asrwt>0</asrwt>
<pdfrwt beam="1">  1        3 0.49829626E-02 0.91484283E+02</pdfrwt>
<pdfrwt beam="2">  1       -3 0.99384496E-02 0.91484283E+02</pdfrwt>
<totfact> 0.34577979E+04</totfact>
</mgrwt>
</event>
<event>
 5    1  0.6222456E+000  0.1009433E+03  0.7546771E-02  0.1278325E+00
          1   -1    0    0  501    0  0.00000000000E+00  0.00000000000E+00  0.17668193582E+02  0.17668193582E+02  0.00000000000E+00 0. -1.
         -1   -1    0    0    0  501 -0.00000000000E+00 -0.00000000000E+00 -0.14417936483E+03  0.14417936483E+03  0.00000000000E+00 0.  1.
         23    2    1    2    0    0  0.00000000000E+00  0.00000000000E+00 -0.12651117125E+03  0.16184755842E+03  0.10094332922E+03 0.  0.
        -11    1    3    3    0    0 -0.36128348560E+02  0.18388545826E+02 -0.11146268488E+03  0.11860576001E+03  0.00000000000E+00 0.  1.
         11    1    3    3    0    0  0.36128348560E+02 -0.18388545826E+02 -0.15048486375E+02  0.43241798407E+02  0.00000000000E+00 0. -1.
<mgrwt>
<rscale>  0 0.10094333E+03</rscale>
<asrwt>0</asrwt>
<pdfrwt beam="1">  1        1 0.27181837E-02 0.10094333E+03</pdfrwt>
<pdfrwt beam="2">  1       -1 0.22181440E-01 0.10094333E+03</pdfrwt>
<totfact> 0.57923206E+04</totfact>
</mgrwt>
</event>
<event>
 5    1  0.6222456E+000  0.9542906E+02  0.7546771E-02  0.1290213E+00
          1   -1    0    0  501    0  0.00000000000E+00  0.00000000000E+00  0.76406166532E+02  0.76406166532E+02  0.00000000000E+00 0.  1.
         -1   -1    0    0    0  501 -0.00000000000E+00 -0.00000000000E+00 -0.29797024666E+02  0.29797024666E+02  0.00000000000E+00 0. -1.
         23    2    1    2    0    0  0.00000000000E+00  0.00000000000E+00  0.46609141866E+02  0.10620319120E+03  0.95429061167E+02 0.  0.
        -11    1    3    3    0    0  0.12363955602E+02  0.36995722784E+02  0.53886613687E+02  0.66523063949E+02  0.00000000000E+00 0.  1.
         11    1    3    3    0    0 -0.12363955602E+02 -0.36995722784E+02 -0.72774718214E+01  0.39680127250E+02  0.00000000000E+00 0. -1.
<mgrwt>
<rscale>  0 0.95429061E+02</rscale>
<asrwt>0</asrwt>
<pdfrwt beam="1">  1        1 0.11754795E-01 0.95429061E+02</pdfrwt>
<pdfrwt beam="2">  1       -1 0.45841577E-02 0.95429061E+02</pdfrwt>
<totfact> 0.88193160E+04</totfact>
</mgrwt>
</event>
<event>
 5    1  0.6222456E+000  0.9225247E+02  0.7546771E-02  0.1297487E+00
         -2   -1    0    0    0  501 -0.00000000000E+00  0.00000000000E+00  0.78184069216E+01  0.78184069216E+01  0.00000000000E+00 0.  1.
          2   -1    0    0  501    0  0.00000000000E+00 -0.00000000000E+00 -0.27213083205E+03  0.27213083205E+03  0.00000000000E+00 0. -1.
         23    2    1    2    0    0  0.00000000000E+00  0.00000000000E+00 -0.26431242513E+03  0.27994923898E+03  0.92252470556E+02 0.  0.
        -11    1    3    3    0    0  0.75420106008E+01  0.45481950541E+02 -0.12771715148E+03  0.13578350611E+03  0.00000000000E+00 0.  1.
         11    1    3    3    0    0 -0.75420106008E+01 -0.45481950541E+02 -0.13659527366E+03  0.14416573287E+03  0.00000000000E+00 0. -1.
<mgrwt>
<rscale>  0 0.92252471E+02</rscale>
<asrwt>0</asrwt>
<pdfrwt beam="2">  1        2 0.41866279E-01 0.92252471E+02</pdfrwt>
<pdfrwt beam="1">  1       -2 0.12028319E-02 0.92252471E+02</pdfrwt>
<totfact> 0.16788956E+05</totfact>
</mgrwt>
</event>
<event>
 5    1  0.6222456E+000  0.8993801E+02  0.7546771E-02  0.1303002E+00
         -2   -1    0    0    0  501 -0.00000000000E+00  0.00000000000E+00  0.11267635661E+02  0.11267635661E+02  0.00000000000E+00 0.  1.
          2   -1    0    0  501    0  0.00000000000E+00 -0.00000000000E+00 -0.17947076966E+03  0.17947076966E+03  0.00000000000E+00 0. -1.
         23    2    1    2    0    0  0.00000000000E+00  0.00000000000E+00 -0.16820313400E+03  0.19073840532E+03  0.89938006301E+02 0.  0.
        -11    1    3    3    0    0 -0.48514062712E+01 -0.34827035908E+02 -0.24653488149E+02  0.42944767444E+02  0.00000000000E+00 0.  1.
         11    1    3    3    0    0  0.48514062712E+01  0.34827035908E+02 -0.14354964585E+03  0.14779363788E+03  0.00000000000E+00 0. -1.
<mgrwt>
<rscale>  0 0.89938006E+02</rscale>
<asrwt>0</asrwt>
<pdfrwt beam="2">  1        2 0.27610888E-01 0.89938006E+02</pdfrwt>
<pdfrwt beam="1">  1       -2 0.17334824E-02 0.89938006E+02</pdfrwt>
<totfact> 0.15438105E+05</totfact>
</mgrwt>
</event>
<event>
 5    1  0.6222456E+000  0.6009950E+02  0.7546771E-02  0.1397415E+00
         -2   -1    0    0    0  501 -0.00000000000E+00  0.00000000000E+00  0.19542176229E+02  0.19542176229E+02  0.00000000000E+00 0.  1.
          2   -1    0    0  501    0  0.00000000000E+00 -0.00000000000E+00 -0.46207105074E+02  0.46207105074E+02  0.00000000000E+00 0. -1.
         23    2    1    2    0    0  0.00000000000E+00  0.00000000000E+00 -0.26664928845E+02  0.65749281302E+02  0.60099497181E+02 0.  0.
        -11    1    3    3    0    0 -0.10964435812E+02  0.35997403663E+01  0.17021265139E+02  0.20564543523E+02  0.00000000000E+00 0.  1.
         11    1    3    3    0    0  0.10964435812E+02 -0.35997403663E+01 -0.43686193984E+02  0.45184737779E+02  0.00000000000E+00 0. -1.
<mgrwt>
<rscale>  0 0.60099497E+02</rscale>
<asrwt>0</asrwt>
<pdfrwt beam="2">  1        2 0.71087853E-02 0.60099497E+02</pdfrwt>
<pdfrwt beam="1">  1       -2 0.30064887E-02 0.60099497E+02</pdfrwt>
<totfact> 0.31230390E+05</totfact>
</mgrwt>
</event>
<event>
 5    1  0.6222456E+000  0.9018193E+02  0.7546771E-02  0.1302412E+00
         -3   -1    0    0    0  501 -0.00000000000E+00  0.00000000000E+00  0.16690748942E+02  0.16690748942E+02  0.00000000000E+00 0.  1.
          3   -1    0    0  501    0  0.00000000000E+00 -0.00000000000E+00 -0.12181569945E+03  0.12181569945E+03  0.00000000000E+00 0. -1.
         23    2    1    2    0    0  0.00000000000E+00  0.00000000000E+00 -0.10512495051E+03  0.13850644839E+03  0.90181932928E+02 0.  0.
        -11    1    3    3    0    0 -0.37776130431E+02 -0.33143333854E+01 -0.15093433843E+02  0.40814612350E+02  0.00000000000E+00 0.  1.
         11    1    3    3    0    0  0.37776130431E+02  0.33143333854E+01 -0.90031516666E+02  0.97691836042E+02  0.00000000000E+00 0. -1.
<mgrwt>
<rscale>  0 0.90181933E+02</rscale>
<asrwt>0</asrwt>
<pdfrwt beam="2">  1        3 0.18740877E-01 0.90181933E+02</pdfrwt>
<pdfrwt beam="1">  1       -3 0.25678075E-02 0.90181933E+02</pdfrwt>
<totfact> 0.32990166E+04</totfact>
</mgrwt>
</event>
<event>
 5    1  0.6222456E+000  0.7246683E+02  0.7546771E-02  0.1351900E+00
         -1   -1    0    0    0  501 -0.00000000000E+00  0.00000000000E+00  0.10830217779E+02  0.10830217779E+02  0.00000000000E+00 0.  1.
          1   -1    0    0  501    0  0.00000000000E+00 -0.00000000000E+00 -0.12122197880E+03  0.12122197880E+03  0.00000000000E+00 0. -1.
         23    2    1    2    0    0  0.00000000000E+00  0.00000000000E+00 -0.11039176102E+03  0.13205219658E+03  0.72466831864E+02 0.  0.
        -11    1    3    3    0    0 -0.26522668248E+02 -0.88658911552E+01 -0.97178897213E+02  0.10112266818E+03  0.00000000000E+00 0. -1.
         11    1    3    3    0    0  0.26522668248E+02  0.88658911552E+01 -0.13212863811E+02  0.30929528400E+02  0.00000000000E+00 0.  1.
<mgrwt>
<rscale>  0 0.72466832E+02</rscale>
<asrwt>0</asrwt>
<pdfrwt beam="2">  1        1 0.18649536E-01 0.72466832E+02</pdfrwt>
<pdfrwt beam="1">  1       -1 0.16661873E-02 0.72466832E+02</pdfrwt>
<totfact> 0.19938834E+05</totfact>
</mgrwt>
</event>
<event>
 5    1  0.6222456E+000  0.9161568E+02  0.7546771E-02  0.1298986E+00
          3   -1    0    0  501    0  0.00000000000E+00  0.00000000000E+00  0.21960504841E+02  0.21960504841E+02  0.00000000000E+00 0. -1.
         -3   -1    0    0    0  501 -0.00000000000E+00 -0.00000000000E+00 -0.95551456022E+02  0.95551456022E+02  0.00000000000E+00 0.  1.
         23    2    1    2    0    0  0.00000000000E+00  0.00000000000E+00 -0.73590951181E+02  0.11751196086E+03  0.91615680154E+02 0.  0.
        -11    1    3    3    0    0  0.28565056744E+02  0.56451677522E+01 -0.82154002644E+02  0.87161405084E+02  0.00000000000E+00 0.  1.
         11    1    3    3    0    0 -0.28565056744E+02 -0.56451677522E+01  0.85630514630E+01  0.30350555779E+02  0.00000000000E+00 0. -1.
<mgrwt>
<rscale>  0 0.91615680E+02</rscale>
<asrwt>0</asrwt>
<pdfrwt beam="1">  1        3 0.33785392E-02 0.91615680E+02</pdfrwt>
<pdfrwt beam="2">  1       -3 0.14700224E-01 0.91615680E+02</pdfrwt>
<totfact> 0.32985136E+04</totfact>
</mgrwt>
</event>
<event>
 5    1  0.6222456E+000  0.9189180E+02  0.7546771E-02  0.1298334E+00
         -2   -1    0    0    0  501 -0.00000000000E+00  0.00000000000E+00  0.65475358058E+01  0.65475358058E+01  0.00000000000E+00 0.  1.
          2   -1    0    0  501    0  0.00000000000E+00 -0.00000000000E+00 -0.32241530293E+03  0.32241530293E+03  0.00000000000E+00 0. -1.
         23    2    1    2    0    0  0.00000000000E+00  0.00000000000E+00 -0.31586776712E+03  0.32896283873E+03  0.91891800293E+02 0.  0.
        -11    1    3    3    0    0  0.74552673477E+01 -0.45231757447E+02 -0.16898691485E+03  0.17509446103E+03  0.00000000000E+00 0. -1.
         11    1    3    3    0    0 -0.74552673477E+01  0.45231757447E+02 -0.14688085227E+03  0.15386837771E+03  0.00000000000E+00 0.  1.
<mgrwt>
<rscale>  0 0.91891800E+02</rscale>
<asrwt>0</asrwt>
<pdfrwt beam="2">  1        2 0.49602362E-01 0.91891800E+02</pdfrwt>
<pdfrwt beam="1">  1       -2 0.10073130E-02 0.91891800E+02</pdfrwt>
<totfact> 0.18072829E+05</totfact>
</mgrwt>
</event>
<event>
 5    1  0.6222456E+000  0.9062896E+02  0.7546771E-02  0.1301336E+00
          4   -1    0    0  501    0  0.00000000000E+00  0.00000000000E+00  0.32410268017E+02  0.32410268017E+02  0.00000000000E+00 0. -1.
         -4   -1    0    0    0  501 -0.00000000000E+00 -0.00000000000E+00 -0.63356525508E+02  0.63356525508E+02  0.00000000000E+00 0.  1.
         23    2    1    2    0    0  0.00000000000E+00  0.00000000000E+00 -0.30946257491E+02  0.95766793525E+02  0.90628957235E+02 0.  0.
        -11    1    3    3    0    0 -0.34032453486E+02 -0.23460124616E+02  0.41488168947E+01  0.41542725222E+02  0.00000000000E+00 0. -1.
         11    1    3    3    0    0  0.34032453486E+02  0.23460124616E+02 -0.35095074386E+02  0.54224068303E+02  0.00000000000E+00 0.  1.
<mgrwt>
<rscale>  0 0.90628957E+02</rscale>
<asrwt>0</asrwt>
<pdfrwt beam="1">  1        4 0.49861951E-02 0.90628957E+02</pdfrwt>
<pdfrwt beam="2">  1       -4 0.97471578E-02 0.90628957E+02</pdfrwt>
<totfact> 0.27162860E+04</totfact>
</mgrwt>
</event>
<event>
 5    1  0.6222456E+000  0.8474361E+02  0.7546771E-02  0.1316104E+00
          4   -1    0    0  501    0  0.00000000000E+00  0.00000000000E+00  0.22240490442E+02  0.22240490442E+02  0.00000000000E+00 0. -1.
         -4   -1    0    0    0  501 -0.00000000000E+00 -0.00000000000E+00 -0.80725282305E+02  0.80725282305E+02  0.00000000000E+00 0.  1.
         23    2    1    2    0    0  0.00000000000E+00  0.00000000000E+00 -0.58484791864E+02  0.10296577275E+03  0.84743610249E+02 0.  0.
        -11    1    3    3    0    0  0.20205535342E+02  0.23438974308E+02 -0.64409413900E+02  0.71457832139E+02  0.00000000000E+00 0.  1.
         11    1    3    3    0    0 -0.20205535342E+02 -0.23438974308E+02  0.59246220361E+01  0.31507940608E+02  0.00000000000E+00 0. -1.
<mgrwt>
<rscale>  0 0.84743610E+02</rscale>
<asrwt>0</asrwt>
<pdfrwt beam="1">  1        4 0.34216139E-02 0.84743610E+02</pdfrwt>
<pdfrwt beam="2">  1       -4 0.12419274E-01 0.84743610E+02</pdfrwt>
<totfact> 0.31993212E+04</totfact>
</mgrwt>
</event>
<event>
 5    1  0.6222456E+000  0.9262214E+02  0.7546771E-02  0.1296623E+00
         -1   -1    0    0    0  501 -0.00000000000E+00  0.00000000000E+00  0.38747967111E+02  0.38747967111E+02  0.00000000000E+00 0.  1.
          1   -1    0    0  501    0  0.00000000000E+00 -0.00000000000E+00 -0.55350396629E+02  0.55350396629E+02  0.00000000000E+00 0. -1.
         23    2    1    2    0    0  0.00000000000E+00  0.00000000000E+00 -0.16602429518E+02  0.94098363739E+02  0.92622143100E+02 0.  0.
        -11    1    3    3    0    0  0.38234703488E+02  0.10210506466E+02 -0.32738028811E+02  0.51360739126E+02  0.00000000000E+00 0.  1.
         11    1    3    3    0    0 -0.38234703488E+02 -0.10210506466E+02  0.16135599292E+02  0.42737624614E+02  0.00000000000E+00 0. -1.
<mgrwt>
<rscale>  0 0.92622143E+02</rscale>
<asrwt>0</asrwt>
<pdfrwt beam="2">  1        1 0.85154456E-02 0.92622143E+02</pdfrwt>
<pdfrwt beam="1">  1       -1 0.59612257E-02 0.92622143E+02</pdfrwt>
<totfact> 0.91120459E+04</totfact>
</mgrwt>
</event>
<event>
 5    1  0.6222456E+000  0.9080149E+02  0.7546771E-02  0.1300922E+00
         -1   -1    0    0    0  501 -0.00000000000E+00  0.00000000000E+00  0.14200591528E+02  0.14200591528E+02  0.00000000000E+00 0.  1.
          1   -1    0    0  501    0  0.00000000000E+00 -0.00000000000E+00 -0.14515084194E+03  0.14515084194E+03  0.00000000000E+00 0. -1.
         23    2    1    2    0    0  0.00000000000E+00  0.00000000000E+00 -0.13095025042E+03  0.15935143347E+03  0.90801493742E+02 0.  0.
        -11    1    3    3    0    0  0.37829783869E+02 -0.20653286510E+02 -0.90514723861E+02  0.10025251132E+03  0.00000000000E+00 0.  1.
         11    1    3    3    0    0 -0.37829783869E+02  0.20653286510E+02 -0.40435526555E+02  0.59098922148E+02  0.00000000000E+00 0. -1.
<mgrwt>
<rscale>  0 0.90801494E+02</rscale>
<asrwt>0</asrwt>
<pdfrwt beam="2">  1        1 0.22330898E-01 0.90801494E+02</pdfrwt>
<pdfrwt beam="1">  1       -1 0.21847065E-02 0.90801494E+02</pdfrwt>
<totfact> 0.11270740E+05</totfact>
</mgrwt>
</event>
<event>
 5    1  0.6222456E+000  0.9169453E+02  0.7546771E-02  0.1298799E+00
          1   -1    0    0  501    0  0.00000000000E+00  0.00000000000E+00  0.77243642109E+02  0.77243642109E+02  0.00000000000E+00 0. -1.
         -1   -1    0    0    0  501 -0.00000000000E+00 -0.00000000000E+00 -0.27212229766E+02  0.27212229766E+02  0.00000000000E+00 0.  1.
         23    2    1    2    0    0  0.00000000000E+00  0.00000000000E+00  0.50031412342E+02  0.10445587187E+03  0.91694530633E+02 0.  0.
        -11    1    3    3    0    0 -0.81971286568E+01 -0.38046190095E+02 -0.25905137624E+01  0.39005336308E+02  0.00000000000E+00 0.  1.
         11    1    3    3    0    0  0.81971286568E+01  0.38046190095E+02  0.52621926105E+02  0.65450535566E+02  0.00000000000E+00 0. -1.
<mgrwt>
<rscale>  0 0.91694531E+02</rscale>
<asrwt>0</asrwt>
<pdfrwt beam="1">  1        1 0.11883637E-01 0.91694531E+02</pdfrwt>
<pdfrwt beam="2">  1       -1 0.41864969E-02 0.91694531E+02</pdfrwt>
<totfact> 0.98641225E+04</totfact>
</mgrwt>
</event>
<event>
 5    1  0.6222456E+000  0.9205658E+02  0.7546771E-02  0.1297946E+00
         -2   -1    0    0    0  501 -0.00000000000E+00  0.00000000000E+00  0.22569798400E+02  0.22569798400E+02  0.00000000000E+00 0.  1.
          2   -1    0    0  501    0  0.00000000000E+00 -0.00000000000E+00 -0.93868964641E+02  0.93868964641E+02  0.00000000000E+00 0. -1.
         23    2    1    2    0    0  0.00000000000E+00  0.00000000000E+00 -0.71299166241E+02  0.11643876304E+03  0.92056582772E+02 0.  0.
        -11    1    3    3    0    0 -0.17758140493E+02 -0.42368526289E+02 -0.39262755849E+02  0.60431842356E+02  0.00000000000E+00 0. -1.
         11    1    3    3    0    0  0.17758140493E+02  0.42368526289E+02 -0.32036410392E+02  0.56006920684E+02  0.00000000000E+00 0.  1.
<mgrwt>
<rscale>  0 0.92056583E+02</rscale>
<asrwt>0</asrwt>
<pdfrwt beam="2">  1        2 0.14441379E-01 0.92056583E+02</pdfrwt>
<pdfrwt beam="1">  1       -2 0.34722767E-02 0.92056583E+02</pdfrwt>
<totfact> 0.11720266E+05</totfact>
</mgrwt>
</event>
<event>
 5    1  0.6222456E+000  0.8844335E+02  0.7546771E-02  0.1306666E+00
          2   -1    0    0  501    0  0.00000000000E+00  0.00000000000E+00  0.79829383796E+02  0.79829383796E+02  0.00000000000E+00 0. -1.
         -2   -1    0    0    0  501 -0.00000000000E+00 -0.00000000000E+00 -0.24496700694E+02  0.24496700694E+02  0.00000000000E+00 0.  1.
         23    2    1    2    0    0  0.00000000000E+00  0.00000000000E+00  0.55332683103E+02  0.10432608449E+03  0.88443349584E+02 0.  0.
        -11    1    3    3    0    0  0.27320848016E+02  0.34605707323E+02  0.23653545777E+02  0.50034727375E+02  0.00000000000E+00 0.  1.
         11    1    3    3    0    0 -0.27320848016E+02 -0.34605707323E+02  0.31679137326E+02  0.54291357115E+02  0.00000000000E+00 0. -1.
<mgrwt>
<rscale>  0 0.88443350E+02</rscale>
<asrwt>0</asrwt>
<pdfrwt beam="1">  1        2 0.12281444E-01 0.88443350E+02</pdfrwt>
<pdfrwt beam="2">  1       -2 0.37687232E-02 0.88443350E+02</pdfrwt>
<totfact> 0.12488552E+05</totfact>
</mgrwt>
</event>
<event>
 5    1  0.6222456E+000  0.9186522E+02  0.7546771E-02  0.1298397E+00
          2   -1    0    0  501    0  0.00000000000E+00  0.00000000000E+00  0.27787922183E+02  0.27787922183E+02  0.00000000000E+00 0. -1.
         -2   -1    0    0    0  501 -0.00000000000E+00 -0.00000000000E+00 -0.75925247191E+02  0.75925247191E+02  0.00000000000E+00 0.  1.
         23    2    1    2    0    0  0.00000000000E+00  0.00000000000E+00 -0.48137325008E+02  0.10371316937E+03  0.91865224338E+02 0.  0.
        -11    1    3    3    0    0  0.69596393399E+01  0.15432005213E+02  0.24137491342E+02  0.29482229443E+02  0.00000000000E+00 0. -1.
         11    1    3    3    0    0 -0.69596393399E+01 -0.15432005213E+02 -0.72274816350E+02  0.74230939931E+02  0.00000000000E+00 0.  1.
<mgrwt>
<rscale>  0 0.91865224E+02</rscale>
<asrwt>0</asrwt>
<pdfrwt beam="1">  1        2 0.42750649E-02 0.91865224E+02</pdfrwt>
<pdfrwt beam="2">  1       -2 0.11680807E-01 0.91865224E+02</pdfrwt>
<totfact> 0.84730865E+04</totfact>
</mgrwt>
</event>
<event>
 5    1  0.6222456E+000  0.9428218E+02  0.7546771E-02  0.1292801E+00
         -1   -1    0    0    0  501 -0.00000000000E+00  0.00000000000E+00  0.10240332837E+02  0.10240332837E+02  0.00000000000E+00 0.  1.
          1   -1    0    0  501    0  0.00000000000E+00 -0.00000000000E+00 -0.21701269762E+03  0.21701269762E+03  0.00000000000E+00 0. -1.
         23    2    1    2    0    0  0.00000000000E+00  0.00000000000E+00 -0.20677236479E+03  0.22725303046E+03  0.94282177605E+02 0.  0.
        -11    1    3    3    0    0 -0.41026968063E+02 -0.18453389082E+02 -0.69423115130E+02  0.82724292632E+02  0.00000000000E+00 0.  1.
         11    1    3    3    0    0  0.41026968063E+02  0.18453389082E+02 -0.13734924965E+03  0.14452873783E+03  0.00000000000E+00 0. -1.
<mgrwt>
<rscale>  0 0.94282178E+02</rscale>
<asrwt>0</asrwt>
<pdfrwt beam="2">  1        1 0.33386570E-01 0.94282178E+02</pdfrwt>
<pdfrwt beam="1">  1       -1 0.15754358E-02 0.94282178E+02</pdfrwt>
<totfact> 0.10995710E+05</totfact>
</mgrwt>
</event>
<event>
 5    1  0.6222456E+000  0.7500293E+02  0.7546771E-02  0.1343862E+00
          2   -1    0    0  501    0  0.00000000000E+00  0.00000000000E+00  0.38873004721E+03  0.38873004721E+03  0.00000000000E+00 0. -1.
         -2   -1    0    0    0  501 -0.00000000000E+00 -0.00000000000E+00 -0.36178319671E+01  0.36178319671E+01  0.00000000000E+00 0.  1.
         23    2    1    2    0    0  0.00000000000E+00  0.00000000000E+00  0.38511221524E+03  0.39234787918E+03  0.75002933045E+02 0.  0.
        -11    1    3    3    0    0 -0.32553171282E+02 -0.18595246062E+02  0.19742933389E+03  0.20095729401E+03  0.00000000000E+00 0.  1.
         11    1    3    3    0    0  0.32553171282E+02  0.18595246062E+02  0.18768288135E+03  0.19139058516E+03  0.00000000000E+00 0. -1.
<mgrwt>
<rscale>  0 0.75002933E+02</rscale>
<asrwt>0</asrwt>
<pdfrwt beam="1">  1        2 0.59804590E-01 0.75002933E+02</pdfrwt>
<pdfrwt beam="2">  1       -2 0.55658984E-03 0.75002933E+02</pdfrwt>
<totfact> 0.33009072E+05</totfact>
</mgrwt>
</event>
<event>
 5    1  0.6222456E+000  0.8782043E+02  0.7546771E-02  0.1308217E+00
         -1   -1    0    0    0  501 -0.00000000000E+00  0.00000000000E+00  0.25238902204E+02  0.25238902204E+02  0.00000000000E+00 0.  1.
          1   -1    0    0  501    0  0.00000000000E+00 -0.00000000000E+00 -0.76394256531E+02  0.76394256531E+02  0.00000000000E+00 0. -1.
         23    2    1    2    0    0  0.00000000000E+00  0.00000000000E+00 -0.51155354327E+02  0.10163315873E+03  0.87820434285E+02 0.  0.
        -11    1    3    3    0    0 -0.31645919702E+02  0.16021184590E+02 -0.55532431661E+02  0.65893805138E+02  0.00000000000E+00 0. -1.
         11    1    3    3    0    0  0.31645919702E+02 -0.16021184590E+02  0.43770773334E+01  0.35739353596E+02  0.00000000000E+00 0.  1.
<mgrwt>
<rscale>  0 0.87820434E+02</rscale>
<asrwt>0</asrwt>
<pdfrwt beam="2">  1        1 0.11752963E-01 0.87820434E+02</pdfrwt>
<pdfrwt beam="1">  1       -1 0.38829080E-02 0.87820434E+02</pdfrwt>
<totfact> 0.11084026E+05</totfact>
</mgrwt>
</event>
<event>
 5    1  0.6222456E+000  0.9306761E+02  0.7546771E-02  0.1295589E+00
          3   -1    0    0  501    0  0.00000000000E+00  0.00000000000E+00  0.10249418705E+03  0.10249418705E+03  0.00000000000E+00 0. -1.
         -3   -1    0    0    0  501 -0.00000000000E+00 -0.00000000000E+00 -0.21127001136E+02  0.21127001136E+02  0.00000000000E+00 0.  1.
         23    2    1    2    0    0  0.00000000000E+00  0.00000000000E+00  0.81367185916E+02  0.12362118819E+03  0.93067605669E+02 0.  0.
        -11    1    3    3    0    0  0.35594636122E+00  0.37873334051E+02  0.47734595856E+01  0.38174625687E+02  0.00000000000E+00 0.  1.
         11    1    3    3    0    0 -0.35594636122E+00 -0.37873334051E+02  0.76593726330E+02  0.85446562500E+02  0.00000000000E+00 0. -1.
<mgrwt>
<rscale>  0 0.93067606E+02</rscale>
<asrwt>0</asrwt>
<pdfrwt beam="1">  1        3 0.15768336E-01 0.93067606E+02</pdfrwt>
<pdfrwt beam="2">  1       -3 0.32503079E-02 0.93067606E+02</pdfrwt>
<totfact> 0.31206974E+04</totfact>
</mgrwt>
</event>
<event>
 5    1  0.6222456E+000  0.9059850E+02  0.7546771E-02  0.1301409E+00
          2   -1    0    0  501    0  0.00000000000E+00  0.00000000000E+00  0.20361293596E+03  0.20361293596E+03  0.00000000000E+00 0. -1.
         -2   -1    0    0    0  501 -0.00000000000E+00 -0.00000000000E+00 -0.10078053382E+02  0.10078053382E+02  0.00000000000E+00 0.  1.
         23    2    1    2    0    0  0.00000000000E+00  0.00000000000E+00  0.19353488258E+03  0.21369098935E+03  0.90598499721E+02 0.  0.
        -11    1    3    3    0    0 -0.16424691153E+02 -0.37520608852E+02  0.51125375438E+02  0.65508553501E+02  0.00000000000E+00 0.  1.
         11    1    3    3    0    0  0.16424691153E+02  0.37520608852E+02  0.14240950714E+03  0.14818243584E+03  0.00000000000E+00 0. -1.
<mgrwt>
<rscale>  0 0.90598500E+02</rscale>
<asrwt>0</asrwt>
<pdfrwt beam="1">  1        2 0.31325064E-01 0.90598500E+02</pdfrwt>
<pdfrwt beam="2">  1       -2 0.15504699E-02 0.90598500E+02</pdfrwt>
<totfact> 0.15837253E+05</totfact>
</mgrwt>
</event>
<event>
 4    1  0.6222456E+000  0.5005632E+02  0.7546771E-02  0.1445038E+00
          3   -1    0    0  501    0  0.00000000000E+00  0.00000000000E+00  0.10366302746E+03  0.10366302746E+03  0.00000000000E+00 0. -1.
         -3   -1    0    0    0  501 -0.00000000000E+00 -0.00000000000E+00 -0.60427408113E+01  0.60427408113E+01  0.00000000000E+00 0.  1.
        -11    1    1    2    0    0 -0.24884666176E+02  0.18576911229E+01  0.53032224042E+02  0.58609849119E+02  0.00000000000E+00 0. -1.
         11    1    1    2    0    0  0.24884666176E+02 -0.18576911229E+01  0.44588062611E+02  0.51095919156E+02  0.00000000000E+00 0.  1.
<mgrwt>
<rscale>  0 0.50056321E+02</rscale>
<asrwt>0</asrwt>
<pdfrwt beam="1">  1        3 0.15948157E-01 0.50056321E+02</pdfrwt>
<pdfrwt beam="2">  1       -3 0.92965251E-03 0.50056321E+02</pdfrwt>
<totfact> 0.16283319E+05</totfact>
</mgrwt>
</event>
<event>
 5    1  0.6222456E+000  0.9264744E+02  0.7546771E-02  0.1296564E+00
          2   -1    0    0  501    0  0.00000000000E+00  0.00000000000E+00  0.52479261157E+02  0.52479261157E+02  0.00000000000E+00 0. -1.
         -2   -1    0    0    0  501 -0.00000000000E+00 -0.00000000000E+00 -0.40890193443E+02  0.40890193443E+02  0.00000000000E+00 0.  1.
         23    2    1    2    0    0  0.00000000000E+00  0.00000000000E+00  0.11589067714E+02  0.93369454601E+02  0.92647442285E+02 0.  0.
        -11    1    3    3    0    0 -0.27214684950E+02  0.30328452728E+01 -0.31860397538E+02  0.42010976644E+02  0.00000000000E+00 0.  1.
         11    1    3    3    0    0  0.27214684950E+02 -0.30328452728E+01  0.43449465252E+02  0.51358477956E+02  0.00000000000E+00 0. -1.
<mgrwt>
<rscale>  0 0.92647442E+02</rscale>
<asrwt>0</asrwt>
<pdfrwt beam="1">  1        2 0.80737325E-02 0.92647442E+02</pdfrwt>
<pdfrwt beam="2">  1       -2 0.62907990E-02 0.92647442E+02</pdfrwt>
<totfact> 0.97803510E+04</totfact>
</mgrwt>
</event>
<event>
 5    1  0.6222456E+000  0.9785539E+02  0.7546771E-02  0.1284872E+00
         -3   -1    0    0    0  501 -0.00000000000E+00  0.00000000000E+00  0.55269088435E+02  0.55269088435E+02  0.00000000000E+00 0. -1.
          3   -1    0    0  501    0  0.00000000000E+00 -0.00000000000E+00 -0.43313891113E+02  0.43313891113E+02  0.00000000000E+00 0.  1.
         23    2    1    2    0    0  0.00000000000E+00  0.00000000000E+00  0.11955197322E+02  0.98582979548E+02  0.97855388782E+02 0.  0.
        -11    1    3    3    0    0 -0.14701319977E+02  0.14762503228E+02 -0.38621861659E+02  0.43882895400E+02  0.00000000000E+00 0.  1.
         11    1    3    3    0    0  0.14701319977E+02 -0.14762503228E+02  0.50577058982E+02  0.54700084149E+02  0.00000000000E+00 0. -1.
<mgrwt>
<rscale>  0 0.97855389E+02</rscale>
<asrwt>0</asrwt>
<pdfrwt beam="2">  1        3 0.66636755E-02 0.97855389E+02</pdfrwt>
<pdfrwt beam="1">  1       -3 0.85029367E-02 0.97855389E+02</pdfrwt>
<totfact> 0.28659520E+04</totfact>
</mgrwt>
</event>
<event>
 5    1  0.6222456E+000  0.9242317E+02  0.7546771E-02  0.1297088E+00
         -4   -1    0    0    0  501 -0.00000000000E+00  0.00000000000E+00  0.19735181198E+03  0.19735181198E+03  0.00000000000E+00 0.  1.
          4   -1    0    0  501    0  0.00000000000E+00 -0.00000000000E+00 -0.10820830236E+02  0.10820830236E+02  0.00000000000E+00 0. -1.
         23    2    1    2    0    0  0.00000000000E+00  0.00000000000E+00  0.18653098174E+03  0.20817264221E+03  0.92423167100E+02 0.  0.
        -11    1    3    3    0    0  0.31647466881E+02  0.32234650332E+02  0.71326325406E+02  0.84427954718E+02  0.00000000000E+00 0.  1.
         11    1    3    3    0    0 -0.31647466881E+02 -0.32234650332E+02  0.11520465634E+03  0.12374468750E+03  0.00000000000E+00 0. -1.
<mgrwt>
<rscale>  0 0.92423167E+02</rscale>
<asrwt>0</asrwt>
<pdfrwt beam="2">  1        4 0.16647433E-02 0.92423167E+02</pdfrwt>
<pdfrwt beam="1">  1       -4 0.30361814E-01 0.92423167E+02</pdfrwt>
<totfact> 0.20296807E+04</totfact>
</mgrwt>
</event>
<event>
 5    1  0.6222456E+000  0.9071574E+02  0.7546771E-02  0.1301128E+00
         -1   -1    0    0    0  501 -0.00000000000E+00  0.00000000000E+00  0.64033289674E+02  0.64033289674E+02  0.00000000000E+00 0.  1.
          1   -1    0    0  501    0  0.00000000000E+00 -0.00000000000E+00 -0.32129171405E+02  0.32129171405E+02  0.00000000000E+00 0. -1.
         23    2    1    2    0    0  0.00000000000E+00  0.00000000000E+00  0.31904118269E+02  0.96162461080E+02  0.90715743718E+02 0.  0.
        -11    1    3    3    0    0  0.35009951704E+02 -0.23080950651E+02  0.34279118690E+02  0.54161655989E+02  0.00000000000E+00 0.  1.
         11    1    3    3    0    0 -0.35009951704E+02  0.23080950651E+02 -0.23750004210E+01  0.42000805091E+02  0.00000000000E+00 0. -1.
<mgrwt>
<rscale>  0 0.90715744E+02</rscale>
<asrwt>0</asrwt>
<pdfrwt beam="2">  1        1 0.49429495E-02 0.90715744E+02</pdfrwt>
<pdfrwt beam="1">  1       -1 0.98512753E-02 0.90715744E+02</pdfrwt>
<totfact> 0.88918134E+04</totfact>
</mgrwt>
</event>
<event>
 5    1  0.6222456E+000  0.9210062E+02  0.7546771E-02  0.1297843E+00
          2   -1    0    0  501    0  0.00000000000E+00  0.00000000000E+00  0.19069358112E+02  0.19069358112E+02  0.00000000000E+00 0. -1.
         -2   -1    0    0    0  501 -0.00000000000E+00 -0.00000000000E+00 -0.11120621477E+03  0.11120621477E+03  0.00000000000E+00 0.  1.
         23    2    1    2    0    0  0.00000000000E+00  0.00000000000E+00 -0.92136856655E+02  0.13027557288E+03  0.92100621794E+02 0.  0.
        -11    1    3    3    0    0  0.20270606020E+02 -0.19701882399E+01  0.12352856898E+02  0.23819575639E+02  0.00000000000E+00 0. -1.
         11    1    3    3    0    0 -0.20270606020E+02  0.19701882399E+01 -0.10448971355E+03  0.10645599724E+03  0.00000000000E+00 0.  1.
<mgrwt>
<rscale>  0 0.92100622E+02</rscale>
<asrwt>0</asrwt>
<pdfrwt beam="1">  1        2 0.29337474E-02 0.92100622E+02</pdfrwt>
<pdfrwt beam="2">  1       -2 0.17108648E-01 0.92100622E+02</pdfrwt>
<totfact> 0.75336707E+04</totfact>
</mgrwt>
</event>
<event>
 5    1  0.6222456E+000  0.9100847E+02  0.7546771E-02  0.1300428E+00
         -1   -1    0    0    0  501 -0.00000000000E+00  0.00000000000E+00  0.63706047929E+02  0.63706047929E+02  0.00000000000E+00 0.  1.
          1   -1    0    0  501    0  0.00000000000E+00 -0.00000000000E+00 -0.32502966492E+02  0.32502966492E+02  0.00000000000E+00 0. -1.
         23    2    1    2    0    0  0.00000000000E+00  0.00000000000E+00  0.31203081437E+02  0.96209014422E+02  0.91008473039E+02 0.  0.
        -11    1    3    3    0    0  0.43485212040E+01 -0.20386474704E+02 -0.27158803249E+02  0.34236217393E+02  0.00000000000E+00 0. -1.
         11    1    3    3    0    0 -0.43485212040E+01  0.20386474704E+02  0.58361884686E+02  0.61972797029E+02  0.00000000000E+00 0.  1.
<mgrwt>
<rscale>  0 0.91008473E+02</rscale>
<asrwt>0</asrwt>
<pdfrwt beam="2">  1        1 0.50004564E-02 0.91008473E+02</pdfrwt>
<pdfrwt beam="1">  1       -1 0.98009305E-02 0.91008473E+02</pdfrwt>
<totfact> 0.88265212E+04</totfact>
</mgrwt>
</event>
<event>
 5    1  0.6222456E+000  0.9245372E+02  0.7546771E-02  0.1297016E+00
         -4   -1    0    0    0  501 -0.00000000000E+00  0.00000000000E+00  0.30239474514E+02  0.30239474514E+02  0.00000000000E+00 0.  1.
          4   -1    0    0  501    0  0.00000000000E+00 -0.00000000000E+00 -0.70666660990E+02  0.70666660990E+02  0.00000000000E+00 0. -1.
         23    2    1    2    0    0  0.00000000000E+00  0.00000000000E+00 -0.40427186475E+02  0.10090613550E+03  0.92453722348E+02 0.  0.
        -11    1    3    3    0    0 -0.24421348812E+02  0.28256327579E+02  0.95184322246E+01  0.38541184181E+02  0.00000000000E+00 0.  1.
         11    1    3    3    0    0  0.24421348812E+02 -0.28256327579E+02 -0.49945618700E+02  0.62364951322E+02  0.00000000000E+00 0. -1.
<mgrwt>
<rscale>  0 0.92453722E+02</rscale>
<asrwt>0</asrwt>
<pdfrwt beam="2">  1        4 0.10871794E-01 0.92453722E+02</pdfrwt>
<pdfrwt beam="1">  1       -4 0.46522269E-02 0.92453722E+02</pdfrwt>
<totfact> 0.25422880E+04</totfact>
</mgrwt>
</event>
<event>
 5    1  0.6222456E+000  0.9094781E+02  0.7546771E-02  0.1300573E+00
          2   -1    0    0  501    0  0.00000000000E+00  0.00000000000E+00  0.11431209114E+02  0.11431209114E+02  0.00000000000E+00 0. -1.
         -2   -1    0    0    0  501 -0.00000000000E+00 -0.00000000000E+00 -0.18089739621E+03  0.18089739621E+03  0.00000000000E+00 0.  1.
         23    2    1    2    0    0  0.00000000000E+00  0.00000000000E+00 -0.16946618710E+03  0.19232860533E+03  0.90947808424E+02 0.  0.
        -11    1    3    3    0    0  0.22383951197E+02  0.22586053320E+02 -0.15347609689E+03  0.15673571193E+03  0.00000000000E+00 0.  1.
         11    1    3    3    0    0 -0.22383951197E+02 -0.22586053320E+02 -0.15990090207E+02  0.35592893400E+02  0.00000000000E+00 0. -1.
<mgrwt>
<rscale>  0 0.90947808E+02</rscale>
<asrwt>0</asrwt>
<pdfrwt beam="1">  1        2 0.17586476E-02 0.90947808E+02</pdfrwt>
<pdfrwt beam="2">  1       -2 0.27830368E-01 0.90947808E+02</pdfrwt>
<totfact> 0.65419797E+04</totfact>
</mgrwt>
</event>
<event>
 5    1  0.6222456E+000  0.9073823E+02  0.7546771E-02  0.1301074E+00
          1   -1    0    0  501    0  0.00000000000E+00  0.00000000000E+00  0.25641800397E+03  0.25641800397E+03  0.00000000000E+00 0. -1.
         -1   -1    0    0    0  501 -0.00000000000E+00 -0.00000000000E+00 -0.80273479896E+01  0.80273479896E+01  0.00000000000E+00 0.  1.
         23    2    1    2    0    0  0.00000000000E+00  0.00000000000E+00  0.24839065598E+03  0.26444535196E+03  0.90738228959E+02 0.  0.
        -11    1    3    3    0    0 -0.26382233547E+02  0.35184562374E+02  0.91692403510E+02  0.10169303092E+03  0.00000000000E+00 0. -1.
         11    1    3    3    0    0  0.26382233547E+02 -0.35184562374E+02  0.15669825247E+03  0.16275232104E+03  0.00000000000E+00 0.  1.
<mgrwt>
<rscale>  0 0.90738229E+02</rscale>
<asrwt>0</asrwt>
<pdfrwt beam="1">  1        1 0.39448917E-01 0.90738229E+02</pdfrwt>
<pdfrwt beam="2">  1       -1 0.12349768E-02 0.90738229E+02</pdfrwt>
<totfact> 0.12589137E+05</totfact>
</mgrwt>
</event>
<event>
 5    1  0.6222456E+000  0.9203920E+02  0.7546771E-02  0.1297987E+00
         -1   -1    0    0    0  501 -0.00000000000E+00  0.00000000000E+00  0.21937085877E+02  0.21937085877E+02  0.00000000000E+00 0.  1.
          1   -1    0    0  501    0  0.00000000000E+00 -0.00000000000E+00 -0.96539885423E+02  0.96539885423E+02  0.00000000000E+00 0. -1.
         23    2    1    2    0    0  0.00000000000E+00  0.00000000000E+00 -0.74602799547E+02  0.11847697130E+03  0.92039203757E+02 0.  0.
        -11    1    3    3    0    0 -0.28617513172E+02  0.11439356341E+02 -0.81293968244E+02  0.86939807950E+02  0.00000000000E+00 0. -1.
         11    1    3    3    0    0  0.28617513172E+02 -0.11439356341E+02  0.66911686966E+01  0.31537163350E+02  0.00000000000E+00 0.  1.
<mgrwt>
<rscale>  0 0.92039204E+02</rscale>
<asrwt>0</asrwt>
<pdfrwt beam="2">  1        1 0.14852290E-01 0.92039204E+02</pdfrwt>
<pdfrwt beam="1">  1       -1 0.33749364E-02 0.92039204E+02</pdfrwt>
<totfact> 0.10120687E+05</totfact>
</mgrwt>
</event>
<event>
 5    1  0.6222456E+000  0.6629634E+02  0.7546771E-02  0.1373160E+00
         -3   -1    0    0    0  501 -0.00000000000E+00  0.00000000000E+00  0.73532390735E+02  0.73532390735E+02  0.00000000000E+00 0.  1.
          3   -1    0    0  501    0  0.00000000000E+00 -0.00000000000E+00 -0.14943092169E+02  0.14943092169E+02  0.00000000000E+00 0. -1.
         23    2    1    2    0    0  0.00000000000E+00  0.00000000000E+00  0.58589298566E+02  0.88475482903E+02  0.66296343553E+02 0.  0.
        -11    1    3    3    0    0 -0.20601492784E+02 -0.20275889592E+02  0.50948367224E+02  0.58577037535E+02  0.00000000000E+00 0.  1.
         11    1    3    3    0    0  0.20601492784E+02  0.20275889592E+02  0.76409313422E+01  0.29898445368E+02  0.00000000000E+00 0. -1.
<mgrwt>
<rscale>  0 0.66296344E+02</rscale>
<asrwt>0</asrwt>
<pdfrwt beam="2">  1        3 0.22989373E-02 0.66296344E+02</pdfrwt>
<pdfrwt beam="1">  1       -3 0.11312675E-01 0.66296344E+02</pdfrwt>
<totfact> 0.83225093E+04</totfact>
</mgrwt>
</event>
<event>
 5    1  0.6222456E+000  0.9331144E+02  0.7546771E-02  0.1295025E+00
         -3   -1    0    0    0  501 -0.00000000000E+00  0.00000000000E+00  0.53591686242E+02  0.53591686242E+02  0.00000000000E+00 0.  1.
          3   -1    0    0  501    0  0.00000000000E+00 -0.00000000000E+00 -0.40617424519E+02  0.40617424519E+02  0.00000000000E+00 0. -1.
         23    2    1    2    0    0  0.00000000000E+00  0.00000000000E+00  0.12974261723E+02  0.94209110760E+02  0.93311441330E+02 0.  0.
        -11    1    3    3    0    0  0.38004194973E+02 -0.92480197665E+01 -0.19192008518E+02  0.43568083457E+02  0.00000000000E+00 0. -1.
         11    1    3    3    0    0 -0.38004194973E+02  0.92480197665E+01  0.32166270241E+02  0.50641027304E+02  0.00000000000E+00 0.  1.
<mgrwt>
<rscale>  0 0.93311441E+02</rscale>
<asrwt>0</asrwt>
<pdfrwt beam="2">  1        3 0.62488345E-02 0.93311441E+02</pdfrwt>
<pdfrwt beam="1">  1       -3 0.82448748E-02 0.93311441E+02</pdfrwt>
<totfact> 0.32956837E+04</totfact>
</mgrwt>
</event>
<event>
 5    1  0.6222456E+000  0.9099058E+02  0.7546771E-02  0.1300470E+00
         -1   -1    0    0    0  501 -0.00000000000E+00  0.00000000000E+00  0.34290334663E+02  0.34290334663E+02  0.00000000000E+00 0. -1.
          1   -1    0    0  501    0  0.00000000000E+00 -0.00000000000E+00 -0.60361654962E+02  0.60361654962E+02  0.00000000000E+00 0.  1.
         23    2    1    2    0    0  0.00000000000E+00  0.00000000000E+00 -0.26071320300E+02  0.94651989625E+02  0.90990578621E+02 0.  0.
        -11    1    3    3    0    0  0.16162415566E+02 -0.12509957157E+01 -0.57255414366E+02  0.59506059704E+02  0.00000000000E+00 0.  1.
         11    1    3    3    0    0 -0.16162415566E+02  0.12509957157E+01  0.31184094067E+02  0.35145929921E+02  0.00000000000E+00 0. -1.
<mgrwt>
<rscale>  0 0.90990579E+02</rscale>
<asrwt>0</asrwt>
<pdfrwt beam="2">  1        1 0.92864084E-02 0.90990579E+02</pdfrwt>
<pdfrwt beam="1">  1       -1 0.52754361E-02 0.90990579E+02</pdfrwt>
<totfact> 0.97007783E+04</totfact>
</mgrwt>
</event>
<event>
 5    1  0.6222456E+000  0.8605890E+02  0.7546771E-02  0.1312686E+00
          4   -1    0    0  501    0  0.00000000000E+00  0.00000000000E+00  0.71905755618E+02  0.71905755618E+02  0.00000000000E+00 0. -1.
         -4   -1    0    0    0  501 -0.00000000000E+00 -0.00000000000E+00 -0.25749447581E+02  0.25749447581E+02  0.00000000000E+00 0.  1.
         23    2    1    2    0    0  0.00000000000E+00  0.00000000000E+00  0.46156308037E+02  0.97655203199E+02  0.86058898089E+02 0.  0.
        -11    1    3    3    0    0  0.31766850979E+02 -0.28427362302E+02  0.29722562879E+02  0.51968052615E+02  0.00000000000E+00 0.  1.
         11    1    3    3    0    0 -0.31766850979E+02  0.28427362302E+02  0.16433745158E+02  0.45687150584E+02  0.00000000000E+00 0. -1.
<mgrwt>
<rscale>  0 0.86058898E+02</rscale>
<asrwt>0</asrwt>
<pdfrwt beam="1">  1        4 0.11062424E-01 0.86058898E+02</pdfrwt>
<pdfrwt beam="2">  1       -4 0.39614535E-02 0.86058898E+02</pdfrwt>
<totfact> 0.31087356E+04</totfact>
</mgrwt>
</event>
<event>
 5    1  0.6222456E+000  0.9218766E+02  0.7546771E-02  0.1297639E+00
         -3   -1    0    0    0  501 -0.00000000000E+00  0.00000000000E+00  0.16135730179E+03  0.16135730179E+03  0.00000000000E+00 0. -1.
          3   -1    0    0  501    0  0.00000000000E+00 -0.00000000000E+00 -0.13167306981E+02  0.13167306981E+02  0.00000000000E+00 0.  1.
         23    2    1    2    0    0  0.00000000000E+00  0.00000000000E+00  0.14818999481E+03  0.17452460877E+03  0.92187659182E+02 0.  0.
        -11    1    3    3    0    0 -0.45114933841E+02 -0.71620482175E+01  0.85763428122E+02  0.97170045762E+02  0.00000000000E+00 0.  1.
         11    1    3    3    0    0  0.45114933841E+02  0.71620482175E+01  0.62426566687E+02  0.77354563010E+02  0.00000000000E+00 0. -1.
<mgrwt>
<rscale>  0 0.92187659E+02</rscale>
<asrwt>0</asrwt>
<pdfrwt beam="2">  1        3 0.20257396E-02 0.92187659E+02</pdfrwt>
<pdfrwt beam="1">  1       -3 0.24824199E-01 0.92187659E+02</pdfrwt>
<totfact> 0.28991889E+04</totfact>
</mgrwt>
</event>
<event>
 5    1  0.6222456E+000  0.8966941E+02  0.7546771E-02  0.1303654E+00
          1   -1    0    0  501    0  0.00000000000E+00  0.00000000000E+00  0.27446611432E+02  0.27446611432E+02  0.00000000000E+00 0. -1.
         -1   -1    0    0    0  501 -0.00000000000E+00 -0.00000000000E+00 -0.73238584750E+02  0.73238584750E+02  0.00000000000E+00 0.  1.
         23    2    1    2    0    0  0.00000000000E+00  0.00000000000E+00 -0.45791973319E+02  0.10068519618E+03  0.89669414572E+02 0.  0.
        -11    1    3    3    0    0  0.18724055474E+02  0.25256672953E+02 -0.58786092198E+02  0.66665541458E+02  0.00000000000E+00 0.  1.
         11    1    3    3    0    0 -0.18724055474E+02 -0.25256672953E+02  0.12994118879E+02  0.34019654723E+02  0.00000000000E+00 0. -1.
<mgrwt>
<rscale>  0 0.89669415E+02</rscale>
<asrwt>0</asrwt>
<pdfrwt beam="1">  1        1 0.42225557E-02 0.89669415E+02</pdfrwt>
<pdfrwt beam="2">  1       -1 0.11267474E-01 0.89669415E+02</pdfrwt>
<totfact> 0.89635651E+04</totfact>
</mgrwt>
</event>
<event>
 5    1  0.6222456E+000  0.9268740E+02  0.7546771E-02  0.1296471E+00
          2   -1    0    0  501    0  0.00000000000E+00  0.00000000000E+00  0.41706798839E+03  0.41706798839E+03  0.00000000000E+00 0. -1.
         -2   -1    0    0    0  501 -0.00000000000E+00 -0.00000000000E+00 -0.51496123399E+01  0.51496123399E+01  0.00000000000E+00 0.  1.
         23    2    1    2    0    0  0.00000000000E+00  0.00000000000E+00  0.41191837605E+03  0.42221760073E+03  0.92687398488E+02 0.  0.
        -11    1    3    3    0    0  0.16510860331E+02 -0.42848164172E+02  0.17745140304E+03  0.18329641055E+03  0.00000000000E+00 0.  1.
         11    1    3    3    0    0 -0.16510860331E+02  0.42848164172E+02  0.23446697301E+03  0.23892119018E+03  0.00000000000E+00 0. -1.
<mgrwt>
<rscale>  0 0.92687398E+02</rscale>
<asrwt>0</asrwt>
<pdfrwt beam="1">  1        2 0.64164279E-01 0.92687398E+02</pdfrwt>
<pdfrwt beam="2">  1       -2 0.79224838E-03 0.92687398E+02</pdfrwt>
<totfact> 0.19395519E+05</totfact>
</mgrwt>
</event>
<event>
 5    1  0.6222456E+000  0.9324795E+02  0.7546771E-02  0.1295172E+00
         -4   -1    0    0    0  501 -0.00000000000E+00  0.00000000000E+00  0.14166830225E+02  0.14166830225E+02  0.00000000000E+00 0.  1.
          4   -1    0    0  501    0  0.00000000000E+00 -0.00000000000E+00 -0.15344257525E+03  0.15344257525E+03  0.00000000000E+00 0. -1.
         23    2    1    2    0    0  0.00000000000E+00  0.00000000000E+00 -0.13927574502E+03  0.16760940547E+03  0.93247947168E+02 0.  0.
        -11    1    3    3    0    0 -0.23868029756E+02  0.18980615538E+01  0.22719512950E+01  0.24050930227E+02  0.00000000000E+00 0.  1.
         11    1    3    3    0    0  0.23868029756E+02 -0.18980615538E+01 -0.14154769632E+03  0.14355847524E+03  0.00000000000E+00 0. -1.
<mgrwt>
<rscale>  0 0.93247947E+02</rscale>
<asrwt>0</asrwt>
<pdfrwt beam="2">  1        4 0.23606550E-01 0.93247947E+02</pdfrwt>
<pdfrwt beam="1">  1       -4 0.21795123E-02 0.93247947E+02</pdfrwt>
<totfact> 0.21478963E+04</totfact>
</mgrwt>
</event>
<event>
 5    1  0.6222456E+000  0.9406123E+02  0.7546771E-02  0.1293305E+00
          1   -1    0    0  501    0  0.00000000000E+00  0.00000000000E+00  0.40336040290E+03  0.40336040290E+03  0.00000000000E+00 0. -1.
         -1   -1    0    0    0  501 -0.00000000000E+00 -0.00000000000E+00 -0.54836283200E+01  0.54836283200E+01  0.00000000000E+00 0.  1.
         23    2    1    2    0    0  0.00000000000E+00  0.00000000000E+00  0.39787677458E+03  0.40884403122E+03  0.94061225349E+02 0.  0.
        -11    1    3    3    0    0  0.39662501948E+02  0.20089534411E+02  0.26559491327E+03  0.26929047775E+03  0.00000000000E+00 0. -1.
         11    1    3    3    0    0 -0.39662501948E+02 -0.20089534411E+02  0.13228186131E+03  0.13955355347E+03  0.00000000000E+00 0.  1.
<mgrwt>
<rscale>  0 0.94061225E+02</rscale>
<asrwt>0</asrwt>
<pdfrwt beam="1">  1        1 0.62055423E-01 0.94061225E+02</pdfrwt>
<pdfrwt beam="2">  1       -1 0.84363544E-03 0.94061225E+02</pdfrwt>
<totfact> 0.12433462E+05</totfact>
</mgrwt>
</event>
<event>
 5    1  0.6222456E+000  0.8828226E+02  0.7546771E-02  0.1307066E+00
         -3   -1    0    0    0  501 -0.00000000000E+00  0.00000000000E+00  0.20778644390E+02  0.20778644390E+02  0.00000000000E+00 0.  1.
          3   -1    0    0  501    0  0.00000000000E+00 -0.00000000000E+00 -0.93771241216E+02  0.93771241216E+02  0.00000000000E+00 0. -1.
         23    2    1    2    0    0  0.00000000000E+00  0.00000000000E+00 -0.72992596826E+02  0.11454988561E+03  0.88282258133E+02 0.  0.
        -11    1    3    3    0    0  0.19195631155E+02  0.58069048830E+01 -0.87518670326E+02  0.89787026097E+02  0.00000000000E+00 0. -1.
         11    1    3    3    0    0 -0.19195631155E+02 -0.58069048830E+01  0.14526073500E+02  0.24762859509E+02  0.00000000000E+00 0.  1.
<mgrwt>
<rscale>  0 0.88282258E+02</rscale>
<asrwt>0</asrwt>
<pdfrwt beam="2">  1        3 0.14426344E-01 0.88282258E+02</pdfrwt>
<pdfrwt beam="1">  1       -3 0.31967146E-02 0.88282258E+02</pdfrwt>
<totfact> 0.36692935E+04</totfact>
</mgrwt>
</event>
<event>
 5    1  0.6222456E+000  0.9269353E+02  0.7546771E-02  0.1296457E+00
         -1   -1    0    0    0  501 -0.00000000000E+00  0.00000000000E+00  0.13469279668E+02  0.13469279668E+02  0.00000000000E+00 0.  1.
          1   -1    0    0  501    0  0.00000000000E+00 -0.00000000000E+00 -0.15947568502E+03  0.15947568502E+03  0.00000000000E+00 0. -1.
         23    2    1    2    0    0  0.00000000000E+00  0.00000000000E+00 -0.14600640535E+03  0.17294496469E+03  0.92693529480E+02 0.  0.
        -11    1    3    3    0    0 -0.16693077706E+02  0.17599463563E+02 -0.14668636703E+03  0.14867847939E+03  0.00000000000E+00 0. -1.
         11    1    3    3    0    0  0.16693077706E+02 -0.17599463563E+02  0.67996167611E+00  0.24266485302E+02  0.00000000000E+00 0.  1.
<mgrwt>
<rscale>  0 0.92693529E+02</rscale>
<asrwt>0</asrwt>
<pdfrwt beam="2">  1        1 0.24534720E-01 0.92693529E+02</pdfrwt>
<pdfrwt beam="1">  1       -1 0.20721970E-02 0.92693529E+02</pdfrwt>
<totfact> 0.10847182E+05</totfact>
</mgrwt>
</event>
<event>
 5    1  0.6222456E+000  0.9185939E+02  0.7546771E-02  0.1298410E+00
         -2   -1    0    0    0  501 -0.00000000000E+00  0.00000000000E+00  0.18980265113E+02  0.18980265113E+02  0.00000000000E+00 0.  1.
          2   -1    0    0  501    0  0.00000000000E+00 -0.00000000000E+00 -0.11114369460E+03  0.11114369460E+03  0.00000000000E+00 0. -1.
         23    2    1    2    0    0  0.00000000000E+00  0.00000000000E+00 -0.92163429482E+02  0.13012395971E+03  0.91859387958E+02 0.  0.
        -11    1    3    3    0    0 -0.33825945906E+02  0.23299811978E+02 -0.75197398972E+02  0.85683864682E+02  0.00000000000E+00 0.  1.
         11    1    3    3    0    0  0.33825945906E+02 -0.23299811978E+02 -0.16966030510E+02  0.44440095026E+02  0.00000000000E+00 0. -1.
<mgrwt>
<rscale>  0 0.91859388E+02</rscale>
<asrwt>0</asrwt>
<pdfrwt beam="2">  1        2 0.17099030E-01 0.91859388E+02</pdfrwt>
<pdfrwt beam="1">  1       -2 0.29200408E-02 0.91859388E+02</pdfrwt>
<totfact> 0.12417879E+05</totfact>
</mgrwt>
</event>
<event>
 5    1  0.6222456E+000  0.9253183E+02  0.7546771E-02  0.1296834E+00
         -2   -1    0    0    0  501 -0.00000000000E+00  0.00000000000E+00  0.22701396156E+03  0.22701396156E+03  0.00000000000E+00 0.  1.
          2   -1    0    0  501    0  0.00000000000E+00 -0.00000000000E+00 -0.94290886542E+01  0.94290886542E+01  0.00000000000E+00 0. -1.
         23    2    1    2    0    0  0.00000000000E+00  0.00000000000E+00  0.21758487291E+03  0.23644305022E+03  0.92531827375E+02 0.  0.
        -11    1    3    3    0    0  0.37169889253E+02 -0.14888811150E+02  0.49564497612E+02  0.63717476316E+02  0.00000000000E+00 0.  1.
         11    1    3    3    0    0 -0.37169889253E+02  0.14888811150E+02  0.16802037530E+03  0.17272557390E+03  0.00000000000E+00 0. -1.
<mgrwt>
<rscale>  0 0.92531827E+02</rscale>
<asrwt>0</asrwt>
<pdfrwt beam="2">  1        2 0.14506292E-02 0.92531827E+02</pdfrwt>
<pdfrwt beam="1">  1       -2 0.34925221E-01 0.92531827E+02</pdfrwt>
<totfact> 0.56675817E+04</totfact>
</mgrwt>
</event>
<event>
 5    1  0.6222456E+000  0.9224280E+02  0.7546771E-02  0.1297510E+00
         -2   -1    0    0    0  501 -0.00000000000E+00  0.00000000000E+00  0.62182039283E+01  0.62182039283E+01  0.00000000000E+00 0. -1.
          2   -1    0    0  501    0  0.00000000000E+00 -0.00000000000E+00 -0.34208966993E+03  0.34208966993E+03  0.00000000000E+00 0.  1.
         23    2    1    2    0    0  0.00000000000E+00  0.00000000000E+00 -0.33587146600E+03  0.34830787386E+03  0.92242795478E+02 0.  0.
        -11    1    3    3    0    0  0.39712113524E+02 -0.14464034087E+02 -0.23765600009E+03  0.24138482683E+03  0.00000000000E+00 0.  1.
         11    1    3    3    0    0 -0.39712113524E+02  0.14464034087E+02 -0.98215465910E+02  0.10692304703E+03  0.00000000000E+00 0. -1.
<mgrwt>
<rscale>  0 0.92242795E+02</rscale>
<asrwt>0</asrwt>
<pdfrwt beam="2">  1        2 0.52629170E-01 0.92242795E+02</pdfrwt>
<pdfrwt beam="1">  1       -2 0.95664693E-03 0.92242795E+02</pdfrwt>
<totfact> 0.18285677E+05</totfact>
</mgrwt>
</event>
<event>
 5    1  0.6222456E+000  0.9119067E+02  0.7546771E-02  0.1299994E+00
         -1   -1    0    0    0  501 -0.00000000000E+00  0.00000000000E+00  0.30382887158E+02  0.30382887158E+02  0.00000000000E+00 0.  1.
          1   -1    0    0  501    0  0.00000000000E+00 -0.00000000000E+00 -0.68424526119E+02  0.68424526119E+02  0.00000000000E+00 0. -1.
         23    2    1    2    0    0  0.00000000000E+00  0.00000000000E+00 -0.38041638962E+02  0.98807413277E+02  0.91190671802E+02 0.  0.
        -11    1    3    3    0    0 -0.13049408232E+02  0.36399117285E+02  0.71581926263E+01  0.39324579031E+02  0.00000000000E+00 0.  1.
         11    1    3    3    0    0  0.13049408232E+02 -0.36399117285E+02 -0.45199831588E+02  0.59482834246E+02  0.00000000000E+00 0. -1.
<mgrwt>
<rscale>  0 0.91190672E+02</rscale>
<asrwt>0</asrwt>
<pdfrwt beam="2">  1        1 0.10526850E-01 0.91190672E+02</pdfrwt>
<pdfrwt beam="1">  1       -1 0.46742904E-02 0.91190672E+02</pdfrwt>
<totfact> 0.98280309E+04</totfact>
</mgrwt>
</event>
<event>
 5    1  0.6222456E+000  0.9099546E+02  0.7546771E-02  0.1300459E+00
          4   -1    0    0  501    0  0.00000000000E+00  0.00000000000E+00  0.19942252511E+02  0.19942252511E+02  0.00000000000E+00 0. -1.
         -4   -1    0    0    0  501 -0.00000000000E+00 -0.00000000000E+00 -0.10380189602E+03  0.10380189602E+03  0.00000000000E+00 0.  1.
         23    2    1    2    0    0  0.00000000000E+00  0.00000000000E+00 -0.83859643508E+02  0.12374414853E+03  0.90995464095E+02 0.  0.
        -11    1    3    3    0    0  0.44347449937E+02 -0.19873567264E+01 -0.55487743911E+02  0.71060084626E+02  0.00000000000E+00 0. -1.
         11    1    3    3    0    0 -0.44347449937E+02  0.19873567264E+01 -0.28371899596E+02  0.52684063903E+02  0.00000000000E+00 0.  1.
<mgrwt>
<rscale>  0 0.90995464E+02</rscale>
<asrwt>0</asrwt>
<pdfrwt beam="1">  1        4 0.30680389E-02 0.90995464E+02</pdfrwt>
<pdfrwt beam="2">  1       -4 0.15969522E-01 0.90995464E+02</pdfrwt>
<totfact> 0.25197437E+04</totfact>
</mgrwt>
</event>
<event>
 5    1  0.6222456E+000  0.8746354E+02  0.7546771E-02  0.1309113E+00
         -1   -1    0    0    0  501 -0.00000000000E+00  0.00000000000E+00  0.65672457136E+02  0.65672457136E+02  0.00000000000E+00 0.  1.
          1   -1    0    0  501    0  0.00000000000E+00 -0.00000000000E+00 -0.29121308274E+02  0.29121308274E+02  0.00000000000E+00 0. -1.
         23    2    1    2    0    0  0.00000000000E+00  0.00000000000E+00  0.36551148862E+02  0.94793765409E+02  0.87463543704E+02 0.  0.
        -11    1    3    3    0    0  0.29909674372E+02  0.27204390475E+02  0.21135797166E+00  0.40431573731E+02  0.00000000000E+00 0.  1.
         11    1    3    3    0    0 -0.29909674372E+02 -0.27204390475E+02  0.36339790891E+02  0.54362191679E+02  0.00000000000E+00 0. -1.
<mgrwt>
<rscale>  0 0.87463544E+02</rscale>
<asrwt>0</asrwt>
<pdfrwt beam="2">  1        1 0.44802013E-02 0.87463544E+02</pdfrwt>
<pdfrwt beam="1">  1       -1 0.10103455E-01 0.87463544E+02</pdfrwt>
<totfact> 0.97171286E+04</totfact>
</mgrwt>
</event>
<event>
 5    1  0.6222456E+000  0.1062941E+03  0.7546771E-02  0.1267591E+00
          1   -1    0    0  501    0  0.00000000000E+00  0.00000000000E+00  0.19738298122E+03  0.19738298122E+03  0.00000000000E+00 0. -1.
         -1   -1    0    0    0  501 -0.00000000000E+00 -0.00000000000E+00 -0.14310290593E+02  0.14310290593E+02  0.00000000000E+00 0.  1.
         23    2    1    2    0    0  0.00000000000E+00  0.00000000000E+00  0.18307269063E+03  0.21169327182E+03  0.10629407922E+03 0.  0.
        -11    1    3    3    0    0 -0.11724437345E+02 -0.31344662344E+02  0.93089465489E+01  0.34736245830E+02  0.00000000000E+00 0.  1.
         11    1    3    3    0    0  0.11724437345E+02  0.31344662344E+02  0.17376374408E+03  0.17695702599E+03  0.00000000000E+00 0. -1.
<mgrwt>
<rscale>  0 0.10629408E+03</rscale>
<asrwt>0</asrwt>
<pdfrwt beam="1">  1        1 0.30366611E-01 0.10629408E+03</pdfrwt>
<pdfrwt beam="2">  1       -1 0.22015833E-02 0.10629408E+03</pdfrwt>
<totfact> 0.77971179E+04</totfact>
</mgrwt>
</event>
<event>
 5    1  0.6222456E+000  0.8921931E+02  0.7546771E-02  0.1304753E+00
          1   -1    0    0  501    0  0.00000000000E+00  0.00000000000E+00  0.44299383480E+03  0.44299383480E+03  0.00000000000E+00 0. -1.
         -1   -1    0    0    0  501 -0.00000000000E+00 -0.00000000000E+00 -0.44922099741E+01  0.44922099741E+01  0.00000000000E+00 0.  1.
         23    2    1    2    0    0  0.00000000000E+00  0.00000000000E+00  0.43850162483E+03  0.44748604478E+03  0.89219310089E+02 0.  0.
        -11    1    3    3    0    0  0.43375350111E+02 -0.10307341546E+02  0.21154731504E+03  0.21619419231E+03  0.00000000000E+00 0.  1.
         11    1    3    3    0    0 -0.43375350111E+02  0.10307341546E+02  0.22695430978E+03  0.23129185246E+03  0.00000000000E+00 0. -1.
<mgrwt>
<rscale>  0 0.89219310E+02</rscale>
<asrwt>0</asrwt>
<pdfrwt beam="1">  1        1 0.68152863E-01 0.89219310E+02</pdfrwt>
<pdfrwt beam="2">  1       -1 0.69110958E-03 0.89219310E+02</pdfrwt>
<totfact> 0.14515630E+05</totfact>
</mgrwt>
</event>
<event>
 5    1  0.6222456E+000  0.9091967E+02  0.7546771E-02  0.1300640E+00
         -4   -1    0    0    0  501 -0.00000000000E+00  0.00000000000E+00  0.29367187992E+03  0.29367187992E+03  0.00000000000E+00 0.  1.
          4   -1    0    0  501    0  0.00000000000E+00 -0.00000000000E+00 -0.70370936347E+01  0.70370936347E+01  0.00000000000E+00 0. -1.
         23    2    1    2    0    0  0.00000000000E+00  0.00000000000E+00  0.28663478629E+03  0.30070897356E+03  0.90919668211E+02 0.  0.
        -11    1    3    3    0    0 -0.35041512066E+02  0.27907472055E+02  0.16890702188E+03  0.17474643517E+03  0.00000000000E+00 0.  1.
         11    1    3    3    0    0  0.35041512066E+02 -0.27907472055E+02  0.11772776440E+03  0.12596253838E+03  0.00000000000E+00 0. -1.
<mgrwt>
<rscale>  0 0.90919668E+02</rscale>
<asrwt>0</asrwt>
<pdfrwt beam="2">  1        4 0.10826300E-02 0.90919668E+02</pdfrwt>
<pdfrwt beam="1">  1       -4 0.45180280E-01 0.90919668E+02</pdfrwt>
<totfact> 0.17932675E+04</totfact>
</mgrwt>
</event>
<event>
 5    1  0.6222456E+000  0.9824752E+02  0.7546771E-02  0.1284025E+00
         -1   -1    0    0    0  501 -0.00000000000E+00  0.00000000000E+00  0.14164001321E+02  0.14164001321E+02  0.00000000000E+00 0.  1.
          1   -1    0    0  501    0  0.00000000000E+00 -0.00000000000E+00 -0.17037161462E+03  0.17037161462E+03  0.00000000000E+00 0. -1.
         23    2    1    2    0    0  0.00000000000E+00  0.00000000000E+00 -0.15620761330E+03  0.18453561594E+03  0.98247519552E+02 0.  0.
        -11    1    3    3    0    0  0.45374273227E+02  0.63494593618E+01 -0.44820548958E+02  0.64093852389E+02  0.00000000000E+00 0.  1.
         11    1    3    3    0    0 -0.45374273227E+02 -0.63494593618E+01 -0.11138706434E+03  0.12044176356E+03  0.00000000000E+00 0. -1.
<mgrwt>
<rscale>  0 0.98247520E+02</rscale>
<asrwt>0</asrwt>
<pdfrwt beam="2">  1        1 0.26211018E-01 0.98247520E+02</pdfrwt>
<pdfrwt beam="1">  1       -1 0.21790771E-02 0.98247520E+02</pdfrwt>
<totfact> 0.93828014E+04</totfact>
</mgrwt>
</event>
<event>
 5    1  0.6222456E+000  0.9105372E+02  0.7546771E-02  0.1300320E+00
         -4   -1    0    0    0  501 -0.00000000000E+00  0.00000000000E+00  0.37755209057E+02  0.37755209057E+02  0.00000000000E+00 0. -1.
          4   -1    0    0  501    0  0.00000000000E+00 -0.00000000000E+00 -0.54898246582E+02  0.54898246582E+02  0.00000000000E+00 0.  1.
         23    2    1    2    0    0  0.00000000000E+00  0.00000000000E+00 -0.17143037525E+02  0.92653455638E+02  0.91053715499E+02 0.  0.
        -11    1    3    3    0    0  0.14384898512E+01 -0.45427182402E+02 -0.58799333207E+01  0.45828722106E+02  0.00000000000E+00 0.  1.
         11    1    3    3    0    0 -0.14384898512E+01  0.45427182402E+02 -0.11263104204E+02  0.46824733532E+02  0.00000000000E+00 0. -1.
<mgrwt>
<rscale>  0 0.91053715E+02</rscale>
<asrwt>0</asrwt>
<pdfrwt beam="2">  1        4 0.84458841E-02 0.91053715E+02</pdfrwt>
<pdfrwt beam="1">  1       -4 0.58084937E-02 0.91053715E+02</pdfrwt>
<totfact> 0.27020730E+04</totfact>
</mgrwt>
</event>
<event>
 5    1  0.6222456E+000  0.9031779E+02  0.7546771E-02  0.1302084E+00
         -1   -1    0    0    0  501 -0.00000000000E+00  0.00000000000E+00  0.19743098765E+02  0.19743098765E+02  0.00000000000E+00 0.  1.
          1   -1    0    0  501    0  0.00000000000E+00 -0.00000000000E+00 -0.10329309097E+03  0.10329309097E+03  0.00000000000E+00 0. -1.
         23    2    1    2    0    0  0.00000000000E+00  0.00000000000E+00 -0.83549992201E+02  0.12303618973E+03  0.90317787764E+02 0.  0.
        -11    1    3    3    0    0  0.28775299378E+02 -0.10307525188E+02  0.35098665477E+01  0.30766574281E+02  0.00000000000E+00 0.  1.
         11    1    3    3    0    0 -0.28775299378E+02  0.10307525188E+02 -0.87059858749E+02  0.92269615450E+02  0.00000000000E+00 0. -1.
<mgrwt>
<rscale>  0 0.90317788E+02</rscale>
<asrwt>0</asrwt>
<pdfrwt beam="2">  1        1 0.15891244E-01 0.90317788E+02</pdfrwt>
<pdfrwt beam="1">  1       -1 0.30373999E-02 0.90317788E+02</pdfrwt>
<totfact> 0.10775752E+05</totfact>
</mgrwt>
</event>
<event>
 5    1  0.6222456E+000  0.9389128E+02  0.7546771E-02  0.1293693E+00
         -1   -1    0    0    0  501 -0.00000000000E+00  0.00000000000E+00  0.11376499297E+02  0.11376499297E+02  0.00000000000E+00 0.  1.
          1   -1    0    0  501    0  0.00000000000E+00 -0.00000000000E+00 -0.19372331512E+03  0.19372331512E+03  0.00000000000E+00 0. -1.
         23    2    1    2    0    0  0.00000000000E+00  0.00000000000E+00 -0.18234681582E+03  0.20509981441E+03  0.93891280921E+02 0.  0.
        -11    1    3    3    0    0 -0.19919566622E+02 -0.26327821177E+02 -0.18265804213E+02  0.37730397637E+02  0.00000000000E+00 0.  1.
         11    1    3    3    0    0  0.19919566622E+02  0.26327821177E+02 -0.16408101161E+03  0.16736941678E+03  0.00000000000E+00 0. -1.
<mgrwt>
<rscale>  0 0.93891281E+02</rscale>
<asrwt>0</asrwt>
<pdfrwt beam="2">  1        1 0.29803588E-01 0.93891281E+02</pdfrwt>
<pdfrwt beam="1">  1       -1 0.17502306E-02 0.93891281E+02</pdfrwt>
<totfact> 0.10874849E+05</totfact>
</mgrwt>
</event>
<event>
 5    1  0.6222456E+000  0.8899560E+02  0.7546771E-02  0.1305302E+00
         -2   -1    0    0    0  501 -0.00000000000E+00  0.00000000000E+00  0.21662793825E+02  0.21662793825E+02  0.00000000000E+00 0.  1.
          2   -1    0    0  501    0  0.00000000000E+00 -0.00000000000E+00 -0.91403460260E+02  0.91403460260E+02  0.00000000000E+00 0. -1.
         23    2    1    2    0    0  0.00000000000E+00  0.00000000000E+00 -0.69740666435E+02  0.11306625409E+03  0.88995602465E+02 0.  0.
        -11    1    3    3    0    0  0.21229868490E+02 -0.37521612530E+02 -0.48872942412E+02  0.65170109889E+02  0.00000000000E+00 0.  1.
         11    1    3    3    0    0 -0.21229868490E+02  0.37521612530E+02 -0.20867724023E+02  0.47896144196E+02  0.00000000000E+00 0. -1.
<mgrwt>
<rscale>  0 0.88995602E+02</rscale>
<asrwt>0</asrwt>
<pdfrwt beam="2">  1        2 0.14062071E-01 0.88995602E+02</pdfrwt>
<pdfrwt beam="1">  1       -2 0.33327375E-02 0.88995602E+02</pdfrwt>
<totfact> 0.12764426E+05</totfact>
</mgrwt>
</event>
<event>
 5    1  0.6222456E+000  0.8938219E+02  0.7546771E-02  0.1304355E+00
          3   -1    0    0  501    0  0.00000000000E+00  0.00000000000E+00  0.17050092252E+02  0.17050092252E+02  0.00000000000E+00 0. -1.
         -3   -1    0    0    0  501 -0.00000000000E+00 -0.00000000000E+00 -0.11714270087E+03  0.11714270087E+03  0.00000000000E+00 0.  1.
         23    2    1    2    0    0  0.00000000000E+00  0.00000000000E+00 -0.10009260862E+03  0.13419279313E+03  0.89382187411E+02 0.  0.
        -11    1    3    3    0    0  0.20178655376E+02  0.16441619218E+02 -0.10458822737E+03  0.10777848709E+03  0.00000000000E+00 0.  1.
         11    1    3    3    0    0 -0.20178655376E+02 -0.16441619218E+02  0.44956187503E+01  0.26414306033E+02  0.00000000000E+00 0. -1.
<mgrwt>
<rscale>  0 0.89382187E+02</rscale>
<asrwt>0</asrwt>
<pdfrwt beam="1">  1        3 0.26230912E-02 0.89382187E+02</pdfrwt>
<pdfrwt beam="2">  1       -3 0.18021954E-01 0.89382187E+02</pdfrwt>
<totfact> 0.34088273E+04</totfact>
</mgrwt>
</event>
<event>
 5    1  0.6222456E+000  0.9016453E+02  0.7546771E-02  0.1302454E+00
          4   -1    0    0  501    0  0.00000000000E+00  0.00000000000E+00  0.72529768927E+02  0.72529768927E+02  0.00000000000E+00 0. -1.
         -4   -1    0    0    0  501 -0.00000000000E+00 -0.00000000000E+00 -0.28021743284E+02  0.28021743284E+02  0.00000000000E+00 0.  1.
         23    2    1    2    0    0  0.00000000000E+00  0.00000000000E+00  0.44508025643E+02  0.10055151221E+03  0.90164528841E+02 0.  0.
        -11    1    3    3    0    0  0.26335613921E+02  0.36581301013E+02  0.23156168444E+02  0.50675085411E+02  0.00000000000E+00 0.  1.
         11    1    3    3    0    0 -0.26335613921E+02 -0.36581301013E+02  0.21351857199E+02  0.49876426799E+02  0.00000000000E+00 0. -1.
<mgrwt>
<rscale>  0 0.90164529E+02</rscale>
<asrwt>0</asrwt>
<pdfrwt beam="1">  1        4 0.11158426E-01 0.90164529E+02</pdfrwt>
<pdfrwt beam="2">  1       -4 0.43110375E-02 0.90164529E+02</pdfrwt>
<totfact> 0.27234079E+04</totfact>
</mgrwt>
</event>
<event>
 5    1  0.6222456E+000  0.9009367E+02  0.7546771E-02  0.1302625E+00
          1   -1    0    0  501    0  0.00000000000E+00  0.00000000000E+00  0.22664277722E+02  0.22664277722E+02  0.00000000000E+00 0. -1.
         -1   -1    0    0    0  501 -0.00000000000E+00 -0.00000000000E+00 -0.89533728745E+02  0.89533728745E+02  0.00000000000E+00 0.  1.
         23    2    1    2    0    0  0.00000000000E+00  0.00000000000E+00 -0.66869451023E+02  0.11219800647E+03  0.90093668895E+02 0.  0.
        -11    1    3    3    0    0  0.38303696411E+02  0.69668322024E+01 -0.61655193650E+02  0.72918261182E+02  0.00000000000E+00 0.  1.
         11    1    3    3    0    0 -0.38303696411E+02 -0.69668322024E+01 -0.52142573728E+01  0.39279745285E+02  0.00000000000E+00 0. -1.
<mgrwt>
<rscale>  0 0.90093669E+02</rscale>
<asrwt>0</asrwt>
<pdfrwt beam="1">  1        1 0.34868119E-02 0.90093669E+02</pdfrwt>
<pdfrwt beam="2">  1       -1 0.13774420E-01 0.90093669E+02</pdfrwt>
<totfact> 0.85603283E+04</totfact>
</mgrwt>
</event>
<event>
 5    1  0.6222456E+000  0.9266362E+02  0.7546771E-02  0.1296527E+00
          2   -1    0    0  501    0  0.00000000000E+00  0.00000000000E+00  0.17404035152E+03  0.17404035152E+03  0.00000000000E+00 0. -1.
         -2   -1    0    0    0  501 -0.00000000000E+00 -0.00000000000E+00 -0.12334130778E+02  0.12334130778E+02  0.00000000000E+00 0.  1.
         23    2    1    2    0    0  0.00000000000E+00  0.00000000000E+00  0.16170622074E+03  0.18637448229E+03  0.92663616510E+02 0.  0.
        -11    1    3    3    0    0  0.39329491675E+02  0.16778036783E+02  0.44968139890E+02  0.62051954351E+02  0.00000000000E+00 0. -1.
         11    1    3    3    0    0 -0.39329491675E+02 -0.16778036783E+02  0.11673808085E+03  0.12432252794E+03  0.00000000000E+00 0.  1.
<mgrwt>
<rscale>  0 0.92663617E+02</rscale>
<asrwt>0</asrwt>
<pdfrwt beam="1">  1        2 0.26775437E-01 0.92663617E+02</pdfrwt>
<pdfrwt beam="2">  1       -2 0.18975587E-02 0.92663617E+02</pdfrwt>
<totfact> 0.14087958E+05</totfact>
</mgrwt>
</event>
<event>
 5    1  0.6222456E+000  0.9196216E+02  0.7546771E-02  0.1298168E+00
         -2   -1    0    0    0  501 -0.00000000000E+00  0.00000000000E+00  0.19430523153E+02  0.19430523153E+02  0.00000000000E+00 0.  1.
          2   -1    0    0  501    0  0.00000000000E+00 -0.00000000000E+00 -0.10881125875E+03  0.10881125875E+03  0.00000000000E+00 0. -1.
         23    2    1    2    0    0  0.00000000000E+00  0.00000000000E+00 -0.89380735598E+02  0.12824178190E+03  0.91962159227E+02 0.  0.
        -11    1    3    3    0    0 -0.26793493840E+02 -0.31149447633E+02 -0.15905376495E+02  0.44058601901E+02  0.00000000000E+00 0.  1.
         11    1    3    3    0    0  0.26793493840E+02  0.31149447633E+02 -0.73475359103E+02  0.84183180002E+02  0.00000000000E+00 0. -1.
<mgrwt>
<rscale>  0 0.91962159E+02</rscale>
<asrwt>0</asrwt>
<pdfrwt beam="2">  1        2 0.16740194E-01 0.91962159E+02</pdfrwt>
<pdfrwt beam="1">  1       -2 0.29893112E-02 0.91962159E+02</pdfrwt>
<totfact> 0.12297721E+05</totfact>
</mgrwt>
</event>
<event>
 5    1  0.6222456E+000  0.9147315E+02  0.7546771E-02  0.1299323E+00
          2   -1    0    0  501    0  0.00000000000E+00  0.00000000000E+00  0.21357086288E+03  0.21357086288E+03  0.00000000000E+00 0. -1.
         -2   -1    0    0    0  501 -0.00000000000E+00 -0.00000000000E+00 -0.97945669577E+01  0.97945669577E+01  0.00000000000E+00 0.  1.
         23    2    1    2    0    0  0.00000000000E+00  0.00000000000E+00  0.20377629592E+03  0.22336542983E+03  0.91473146150E+02 0.  0.
        -11    1    3    3    0    0 -0.32096839929E+02  0.11520883006E+02  0.17631093741E+03  0.17957863049E+03  0.00000000000E+00 0. -1.
         11    1    3    3    0    0  0.32096839929E+02 -0.11520883006E+02  0.27465358508E+02  0.43786799342E+02  0.00000000000E+00 0.  1.
<mgrwt>
<rscale>  0 0.91473146E+02</rscale>
<asrwt>0</asrwt>
<pdfrwt beam="1">  1        2 0.32857053E-01 0.91473146E+02</pdfrwt>
<pdfrwt beam="2">  1       -2 0.15068566E-02 0.91473146E+02</pdfrwt>
<totfact> 0.15703647E+05</totfact>
</mgrwt>
</event>
<event>
 5    1  0.6222456E+000  0.9407405E+02  0.7546771E-02  0.1293275E+00
         -2   -1    0    0    0  501 -0.00000000000E+00  0.00000000000E+00  0.46264625295E+01  0.46264625295E+01  0.00000000000E+00 0. -1.
          2   -1    0    0  501    0  0.00000000000E+00 -0.00000000000E+00 -0.47822317278E+03  0.47822317278E+03  0.00000000000E+00 0.  1.
         23    2    1    2    0    0  0.00000000000E+00  0.00000000000E+00 -0.47359671025E+03  0.48284963531E+03  0.94074047210E+02 0.  0.
        -11    1    3    3    0    0  0.33200121022E+02  0.32725565575E+02 -0.20463379841E+03  0.20987663550E+03  0.00000000000E+00 0.  1.
         11    1    3    3    0    0 -0.33200121022E+02 -0.32725565575E+02 -0.26896291184E+03  0.27297299981E+03  0.00000000000E+00 0. -1.
<mgrwt>
<rscale>  0 0.94074047E+02</rscale>
<asrwt>0</asrwt>
<pdfrwt beam="2">  1        2 0.73572816E-01 0.94074047E+02</pdfrwt>
<pdfrwt beam="1">  1       -2 0.71176327E-03 0.94074047E+02</pdfrwt>
<totfact> 0.19544591E+05</totfact>
</mgrwt>
</event>
<event>
 5    1  0.6222456E+000  0.9220100E+02  0.7546771E-02  0.1297608E+00
         -1   -1    0    0    0  501 -0.00000000000E+00  0.00000000000E+00  0.42279452238E+02  0.42279452238E+02  0.00000000000E+00 0.  1.
          1   -1    0    0  501    0  0.00000000000E+00 -0.00000000000E+00 -0.50266877807E+02  0.50266877807E+02  0.00000000000E+00 0. -1.
         23    2    1    2    0    0  0.00000000000E+00  0.00000000000E+00 -0.79874255694E+01  0.92546330045E+02  0.92200999114E+02 0.  0.
        -11    1    3    3    0    0 -0.33305806720E+02 -0.23698924586E+02  0.17401380816E+02  0.44426611868E+02  0.00000000000E+00 0.  1.
         11    1    3    3    0    0  0.33305806720E+02  0.23698924586E+02 -0.25388806386E+02  0.48119718177E+02  0.00000000000E+00 0. -1.
<mgrwt>
<rscale>  0 0.92200999E+02</rscale>
<asrwt>0</asrwt>
<pdfrwt beam="2">  1        1 0.77333658E-02 0.92200999E+02</pdfrwt>
<pdfrwt beam="1">  1       -1 0.65045311E-02 0.92200999E+02</pdfrwt>
<totfact> 0.90949545E+04</totfact>
</mgrwt>
</event>
<event>
 5    1  0.6222456E+000  0.9836991E+02  0.7546771E-02  0.1283762E+00
         -3   -1    0    0    0  501 -0.00000000000E+00  0.00000000000E+00  0.11391265986E+02  0.11391265986E+02  0.00000000000E+00 0.  1.
          3   -1    0    0  501    0  0.00000000000E+00 -0.00000000000E+00 -0.21236968433E+03  0.21236968433E+03  0.00000000000E+00 0. -1.
         23    2    1    2    0    0  0.00000000000E+00  0.00000000000E+00 -0.20097841834E+03  0.22376095031E+03  0.98369905187E+02 0.  0.
        -11    1    3    3    0    0 -0.11761908311E+02 -0.34098824727E+02 -0.17654983387E+03  0.18019688170E+03  0.00000000000E+00 0. -1.
         11    1    3    3    0    0  0.11761908311E+02  0.34098824727E+02 -0.24428584470E+02  0.43564068613E+02  0.00000000000E+00 0.  1.
<mgrwt>
<rscale>  0 0.98369905E+02</rscale>
<asrwt>0</asrwt>
<pdfrwt beam="2">  1        3 0.32672259E-01 0.98369905E+02</pdfrwt>
<pdfrwt beam="1">  1       -3 0.17525025E-02 0.98369905E+02</pdfrwt>
<totfact> 0.22236389E+04</totfact>
</mgrwt>
</event>
<event>
 5    1  0.6222456E+000  0.9050873E+02  0.7546771E-02  0.1301624E+00
         -1   -1    0    0    0  501 -0.00000000000E+00  0.00000000000E+00  0.33480313893E+02  0.33480313893E+02  0.00000000000E+00 0.  1.
          1   -1    0    0  501    0  0.00000000000E+00 -0.00000000000E+00 -0.61169002321E+02  0.61169002321E+02  0.00000000000E+00 0. -1.
         23    2    1    2    0    0  0.00000000000E+00  0.00000000000E+00 -0.27688688428E+02  0.94649316214E+02  0.90508726612E+02 0.  0.
        -11    1    3    3    0    0 -0.11349920882E+02  0.17515595958E+02  0.28146578696E+02  0.35040643517E+02  0.00000000000E+00 0.  1.
         11    1    3    3    0    0  0.11349920882E+02 -0.17515595958E+02 -0.55835267124E+02  0.59608672697E+02  0.00000000000E+00 0. -1.
<mgrwt>
<rscale>  0 0.90508727E+02</rscale>
<asrwt>0</asrwt>
<pdfrwt beam="2">  1        1 0.94106157E-02 0.90508727E+02</pdfrwt>
<pdfrwt beam="1">  1       -1 0.51508176E-02 0.90508727E+02</pdfrwt>
<totfact> 0.98641609E+04</totfact>
</mgrwt>
</event>
<event>
 5    1  0.6222456E+000  0.9135934E+02  0.7546771E-02  0.1299593E+00
         -1   -1    0    0    0  501 -0.00000000000E+00  0.00000000000E+00  0.52511226427E+02  0.52511226427E+02  0.00000000000E+00 0.  1.
          1   -1    0    0  501    0  0.00000000000E+00 -0.00000000000E+00 -0.39736882140E+02  0.39736882140E+02  0.00000000000E+00 0. -1.
         23    2    1    2    0    0  0.00000000000E+00  0.00000000000E+00  0.12774344287E+02  0.92248108566E+02  0.91359343595E+02 0.  0.
        -11    1    3    3    0    0 -0.24373351240E+02  0.85419658503E+01  0.44431381539E+02  0.51392344728E+02  0.00000000000E+00 0.  1.
         11    1    3    3    0    0  0.24373351240E+02 -0.85419658503E+01 -0.31657037252E+02  0.40855763838E+02  0.00000000000E+00 0. -1.
<mgrwt>
<rscale>  0 0.91359344E+02</rscale>
<asrwt>0</asrwt>
<pdfrwt beam="2">  1        1 0.61133665E-02 0.91359344E+02</pdfrwt>
<pdfrwt beam="1">  1       -1 0.80786502E-02 0.91359344E+02</pdfrwt>
<totfact> 0.90061866E+04</totfact>
</mgrwt>
</event>
<event>
 5    1  0.6222456E+000  0.8624373E+02  0.7546771E-02  0.1312212E+00
         -4   -1    0    0    0  501 -0.00000000000E+00  0.00000000000E+00  0.25123679671E+02  0.25123679671E+02  0.00000000000E+00 0.  1.
          4   -1    0    0  501    0  0.00000000000E+00 -0.00000000000E+00 -0.74013645309E+02  0.74013645309E+02  0.00000000000E+00 0. -1.
         23    2    1    2    0    0  0.00000000000E+00  0.00000000000E+00 -0.48889965638E+02  0.99137324980E+02  0.86243727100E+02 0.  0.
        -11    1    3    3    0    0 -0.32725645210E+02  0.27790065970E+02 -0.19812690691E+02  0.47284229225E+02  0.00000000000E+00 0.  1.
         11    1    3    3    0    0  0.32725645210E+02 -0.27790065970E+02 -0.29077274947E+02  0.51853095755E+02  0.00000000000E+00 0. -1.
<mgrwt>
<rscale>  0 0.86243727E+02</rscale>
<asrwt>0</asrwt>
<pdfrwt beam="2">  1        4 0.11386715E-01 0.86243727E+02</pdfrwt>
<pdfrwt beam="1">  1       -4 0.38651815E-02 0.86243727E+02</pdfrwt>
<totfact> 0.30800031E+04</totfact>
</mgrwt>
</event>
<event>
 5    1  0.6222456E+000  0.9133002E+02  0.7546771E-02  0.1299662E+00
         -3   -1    0    0    0  501 -0.00000000000E+00  0.00000000000E+00  0.93941298350E+01  0.93941298350E+01  0.00000000000E+00 0.  1.
          3   -1    0    0  501    0  0.00000000000E+00 -0.00000000000E+00 -0.22197829652E+03  0.22197829652E+03  0.00000000000E+00 0. -1.
         23    2    1    2    0    0  0.00000000000E+00  0.00000000000E+00 -0.21258416668E+03  0.23137242635E+03  0.91330015615E+02 0.  0.
        -11    1    3    3    0    0  0.31800893463E+02  0.28074104427E+02 -0.63460891607E+02  0.76333065758E+02  0.00000000000E+00 0.  1.
         11    1    3    3    0    0 -0.31800893463E+02 -0.28074104427E+02 -0.14912327508E+03  0.15503936060E+03  0.00000000000E+00 0. -1.
<mgrwt>
<rscale>  0 0.91330016E+02</rscale>
<asrwt>0</asrwt>
<pdfrwt beam="2">  1        3 0.34150507E-01 0.91330016E+02</pdfrwt>
<pdfrwt beam="1">  1       -3 0.14452507E-02 0.91330016E+02</pdfrwt>
<totfact> 0.26832202E+04</totfact>
</mgrwt>
</event>
<event>
 5    1  0.6222456E+000  0.9126880E+02  0.7546771E-02  0.1299808E+00
         -2   -1    0    0    0  501 -0.00000000000E+00  0.00000000000E+00  0.67783444054E+01  0.67783444054E+01  0.00000000000E+00 0.  1.
          2   -1    0    0  501    0  0.00000000000E+00 -0.00000000000E+00 -0.30722816100E+03  0.30722816100E+03  0.00000000000E+00 0. -1.
         23    2    1    2    0    0  0.00000000000E+00  0.00000000000E+00 -0.30044981659E+03  0.31400650540E+03  0.91268796120E+02 0.  0.
        -11    1    3    3    0    0 -0.20796094201E+02 -0.37725506752E+02 -0.20203858939E+03  0.20657996756E+03  0.00000000000E+00 0. -1.
         11    1    3    3    0    0  0.20796094201E+02  0.37725506752E+02 -0.98411227197E+02  0.10742653784E+03  0.00000000000E+00 0.  1.
<mgrwt>
<rscale>  0 0.91268796E+02</rscale>
<asrwt>0</asrwt>
<pdfrwt beam="2">  1        2 0.47265866E-01 0.91268796E+02</pdfrwt>
<pdfrwt beam="1">  1       -2 0.10428223E-02 0.91268796E+02</pdfrwt>
<totfact> 0.18077185E+05</totfact>
</mgrwt>
</event>
<event>
 5    1  0.6222456E+000  0.8897794E+02  0.7546771E-02  0.1305346E+00
          1   -1    0    0  501    0  0.00000000000E+00  0.00000000000E+00  0.90390056462E+02  0.90390056462E+02  0.00000000000E+00 0. -1.
         -1   -1    0    0    0  501 -0.00000000000E+00 -0.00000000000E+00 -0.21896971368E+02  0.21896971368E+02  0.00000000000E+00 0.  1.
         23    2    1    2    0    0  0.00000000000E+00  0.00000000000E+00  0.68493085093E+02  0.11228702783E+03  0.88977940599E+02 0.  0.
        -11    1    3    3    0    0  0.27184371020E+02  0.33765916069E+02  0.46875106997E+02  0.63846713084E+02  0.00000000000E+00 0. -1.
         11    1    3    3    0    0 -0.27184371020E+02 -0.33765916069E+02  0.21617978096E+02  0.48440314746E+02  0.00000000000E+00 0.  1.
<mgrwt>
<rscale>  0 0.88977941E+02</rscale>
<asrwt>0</asrwt>
<pdfrwt beam="1">  1        1 0.13906162E-01 0.88977941E+02</pdfrwt>
<pdfrwt beam="2">  1       -1 0.33687649E-02 0.88977941E+02</pdfrwt>
<totfact> 0.10980594E+05</totfact>
</mgrwt>
</event>
<event>
 5    1  0.6222456E+000  0.9069456E+02  0.7546771E-02  0.1301178E+00
          1   -1    0    0  501    0  0.00000000000E+00  0.00000000000E+00  0.20047754797E+02  0.20047754797E+02  0.00000000000E+00 0. -1.
         -1   -1    0    0    0  501 -0.00000000000E+00 -0.00000000000E+00 -0.10257387272E+03  0.10257387272E+03  0.00000000000E+00 0.  1.
         23    2    1    2    0    0  0.00000000000E+00  0.00000000000E+00 -0.82526117923E+02  0.12262162752E+03  0.90694561002E+02 0.  0.
        -11    1    3    3    0    0 -0.34789852352E+02  0.18624112539E+02 -0.11055449416E+02  0.40980658320E+02  0.00000000000E+00 0. -1.
         11    1    3    3    0    0  0.34789852352E+02 -0.18624112539E+02 -0.71470668507E+02  0.81640969197E+02  0.00000000000E+00 0.  1.
<mgrwt>
<rscale>  0 0.90694561E+02</rscale>
<asrwt>0</asrwt>
<pdfrwt beam="1">  1        1 0.30842699E-02 0.90694561E+02</pdfrwt>
<pdfrwt beam="2">  1       -1 0.15780596E-01 0.90694561E+02</pdfrwt>
<totfact> 0.82098316E+04</totfact>
</mgrwt>
</event>
<event>
 5    1  0.6222456E+000  0.8986261E+02  0.7546771E-02  0.1303185E+00
         -2   -1    0    0    0  501 -0.00000000000E+00  0.00000000000E+00  0.13902840559E+03  0.13902840559E+03  0.00000000000E+00 0.  1.
          2   -1    0    0  501    0  0.00000000000E+00 -0.00000000000E+00 -0.14520932379E+02  0.14520932379E+02  0.00000000000E+00 0. -1.
         23    2    1    2    0    0  0.00000000000E+00  0.00000000000E+00  0.12450747321E+03  0.15354933797E+03  0.89862607937E+02 0.  0.
        -11    1    3    3    0    0  0.17546193294E+02 -0.31721935418E+02  0.10761262834E+03  0.11355451494E+03  0.00000000000E+00 0.  1.
         11    1    3    3    0    0 -0.17546193294E+02  0.31721935418E+02  0.16894844874E+02  0.39994823029E+02  0.00000000000E+00 0. -1.
<mgrwt>
<rscale>  0 0.89862608E+02</rscale>
<asrwt>0</asrwt>
<pdfrwt beam="2">  1        2 0.22339897E-02 0.89862608E+02</pdfrwt>
<pdfrwt beam="1">  1       -2 0.21388985E-01 0.89862608E+02</pdfrwt>
<totfact> 0.74451980E+04</totfact>
</mgrwt>
</event>
<event>
 5    1  0.6222456E+000  0.8888926E+02  0.7546771E-02  0.1305564E+00
         -1   -1    0    0    0  501 -0.00000000000E+00  0.00000000000E+00  0.61502155671E+02  0.61502155671E+02  0.00000000000E+00 0.  1.
          1   -1    0    0  501    0  0.00000000000E+00 -0.00000000000E+00 -0.32117981126E+02  0.32117981126E+02  0.00000000000E+00 0. -1.
         23    2    1    2    0    0  0.00000000000E+00  0.00000000000E+00  0.29384174546E+02  0.93620136797E+02  0.88889258632E+02 0.  0.
        -11    1    3    3    0    0  0.27962942954E+02 -0.34415060822E+02  0.17852189923E+02  0.47801917065E+02  0.00000000000E+00 0. -1.
         11    1    3    3    0    0 -0.27962942954E+02  0.34415060822E+02  0.11531984622E+02  0.45818219732E+02  0.00000000000E+00 0.  1.
<mgrwt>
<rscale>  0 0.88889259E+02</rscale>
<asrwt>0</asrwt>
<pdfrwt beam="2">  1        1 0.49412279E-02 0.88889259E+02</pdfrwt>
<pdfrwt beam="1">  1       -1 0.94618701E-02 0.88889259E+02</pdfrwt>
<totfact> 0.94216590E+04</totfact>
</mgrwt>
</event>
<event>
 5    1  0.6222456E+000  0.8904270E+02  0.7546771E-02  0.1305187E+00
          3   -1    0    0  501    0  0.00000000000E+00  0.00000000000E+00  0.19378054937E+03  0.19378054937E+03  0.00000000000E+00 0. -1.
         -3   -1    0    0    0  501 -0.00000000000E+00 -0.00000000000E+00 -0.10228842850E+02  0.10228842850E+02  0.00000000000E+00 0.  1.
         23    2    1    2    0    0  0.00000000000E+00  0.00000000000E+00  0.18355170652E+03  0.20400939222E+03  0.89042704068E+02 0.  0.
        -11    1    3    3    0    0 -0.14034499319E+02 -0.41394760868E+02  0.72381187040E+02  0.84554891259E+02  0.00000000000E+00 0.  1.
         11    1    3    3    0    0  0.14034499319E+02  0.41394760868E+02  0.11117051948E+03  0.11945450096E+03  0.00000000000E+00 0. -1.
<mgrwt>
<rscale>  0 0.89042704E+02</rscale>
<asrwt>0</asrwt>
<pdfrwt beam="1">  1        3 0.29812389E-01 0.89042704E+02</pdfrwt>
<pdfrwt beam="2">  1       -3 0.15736683E-02 0.89042704E+02</pdfrwt>
<totfact> 0.30153735E+04</totfact>
</mgrwt>
</event>
<event>
 5    1  0.6222456E+000  0.8678794E+02  0.7546771E-02  0.1310822E+00
          2   -1    0    0  501    0  0.00000000000E+00  0.00000000000E+00  0.13455075768E+02  0.13455075768E+02  0.00000000000E+00 0. -1.
         -2   -1    0    0    0  501 -0.00000000000E+00 -0.00000000000E+00 -0.13994992059E+03  0.13994992059E+03  0.00000000000E+00 0.  1.
         23    2    1    2    0    0  0.00000000000E+00  0.00000000000E+00 -0.12649484482E+03  0.15340499636E+03  0.86787943524E+02 0.  0.
        -11    1    3    3    0    0  0.32012566231E+02 -0.27997147192E+02 -0.78492991005E+02  0.89273704328E+02  0.00000000000E+00 0.  1.
         11    1    3    3    0    0 -0.32012566231E+02  0.27997147192E+02 -0.48001853818E+02  0.64131292031E+02  0.00000000000E+00 0. -1.
<mgrwt>
<rscale>  0 0.86787944E+02</rscale>
<asrwt>0</asrwt>
<pdfrwt beam="1">  1        2 0.20700116E-02 0.86787944E+02</pdfrwt>
<pdfrwt beam="2">  1       -2 0.21530758E-01 0.86787944E+02</pdfrwt>
<totfact> 0.81099069E+04</totfact>
</mgrwt>
</event>
<event>
 5    1  0.6222456E+000  0.9131754E+02  0.7546771E-02  0.1299692E+00
         -4   -1    0    0    0  501 -0.00000000000E+00  0.00000000000E+00  0.13609862959E+02  0.13609862959E+02  0.00000000000E+00 0. -1.
          4   -1    0    0  501    0  0.00000000000E+00 -0.00000000000E+00 -0.15317740150E+03  0.15317740150E+03  0.00000000000E+00 0.  1.
         23    2    1    2    0    0  0.00000000000E+00  0.00000000000E+00 -0.13956753854E+03  0.16678726446E+03  0.91317543612E+02 0.  0.
        -11    1    3    3    0    0 -0.14575191900E+02 -0.24692421387E+02 -0.48849695910E+01  0.29086333918E+02  0.00000000000E+00 0. -1.
         11    1    3    3    0    0  0.14575191900E+02  0.24692421387E+02 -0.13468256895E+03  0.13770093054E+03  0.00000000000E+00 0.  1.
<mgrwt>
<rscale>  0 0.91317544E+02</rscale>
<asrwt>0</asrwt>
<pdfrwt beam="2">  1        4 0.23565753E-01 0.91317544E+02</pdfrwt>
<pdfrwt beam="1">  1       -4 0.20938251E-02 0.91317544E+02</pdfrwt>
<totfact> 0.22763051E+04</totfact>
</mgrwt>
</event>
<event>
 5    1  0.6222456E+000  0.9258111E+02  0.7546771E-02  0.1296719E+00
          1   -1    0    0  501    0  0.00000000000E+00  0.00000000000E+00  0.27239455056E+03  0.27239455056E+03  0.00000000000E+00 0. -1.
         -1   -1    0    0    0  501 -0.00000000000E+00 -0.00000000000E+00 -0.78665879240E+01  0.78665879240E+01  0.00000000000E+00 0.  1.
         23    2    1    2    0    0  0.00000000000E+00  0.00000000000E+00  0.26452796263E+03  0.28026113848E+03  0.92581114315E+02 0.  0.
        -11    1    3    3    0    0 -0.42723485936E+02 -0.92267310488E+01  0.17841127824E+03  0.18368726961E+03  0.00000000000E+00 0.  1.
         11    1    3    3    0    0  0.42723485936E+02  0.92267310488E+01  0.86116684396E+02  0.96573868866E+02  0.00000000000E+00 0. -1.
<mgrwt>
<rscale>  0 0.92581114E+02</rscale>
<asrwt>0</asrwt>
<pdfrwt beam="1">  1        1 0.41906847E-01 0.92581114E+02</pdfrwt>
<pdfrwt beam="2">  1       -1 0.12102445E-02 0.92581114E+02</pdfrwt>
<totfact> 0.12072609E+05</totfact>
</mgrwt>
</event>
<event>
 5    1  0.6222456E+000  0.8918390E+02  0.7546771E-02  0.1304840E+00
          1   -1    0    0  501    0  0.00000000000E+00  0.00000000000E+00  0.18228942009E+02  0.18228942009E+02  0.00000000000E+00 0. -1.
         -1   -1    0    0    0  501 -0.00000000000E+00 -0.00000000000E+00 -0.10908159887E+03  0.10908159887E+03  0.00000000000E+00 0.  1.
         23    2    1    2    0    0  0.00000000000E+00  0.00000000000E+00 -0.90852656863E+02  0.12731054088E+03  0.89183903033E+02 0.  0.
        -11    1    3    3    0    0 -0.41980393458E+02 -0.13001221017E+02 -0.56209144373E+02  0.71350214394E+02  0.00000000000E+00 0.  1.
         11    1    3    3    0    0  0.41980393458E+02  0.13001221017E+02 -0.34643512489E+02  0.55960326486E+02  0.00000000000E+00 0. -1.
<mgrwt>
<rscale>  0 0.89183903E+02</rscale>
<asrwt>0</asrwt>
<pdfrwt beam="1">  1        1 0.28044527E-02 0.89183903E+02</pdfrwt>
<pdfrwt beam="2">  1       -1 0.16781784E-01 0.89183903E+02</pdfrwt>
<totfact> 0.84728146E+04</totfact>
</mgrwt>
</event>
<event>
 5    1  0.6222456E+000  0.9018286E+02  0.7546771E-02  0.1302409E+00
          2   -1    0    0  501    0  0.00000000000E+00  0.00000000000E+00  0.14267606779E+03  0.14267606779E+03  0.00000000000E+00 0. -1.
         -2   -1    0    0    0  501 -0.00000000000E+00 -0.00000000000E+00 -0.14250722255E+02  0.14250722255E+02  0.00000000000E+00 0.  1.
         23    2    1    2    0    0  0.00000000000E+00  0.00000000000E+00  0.12842534554E+03  0.15692679005E+03  0.90182859004E+02 0.  0.
        -11    1    3    3    0    0 -0.20118492880E+02 -0.40116961607E+02  0.56605320136E+02  0.72237709211E+02  0.00000000000E+00 0.  1.
         11    1    3    3    0    0  0.20118492880E+02  0.40116961607E+02  0.71820025402E+02  0.84689080838E+02  0.00000000000E+00 0. -1.
<mgrwt>
<rscale>  0 0.90182859E+02</rscale>
<asrwt>0</asrwt>
<pdfrwt beam="1">  1        2 0.21950163E-01 0.90182859E+02</pdfrwt>
<pdfrwt beam="2">  1       -2 0.21924189E-02 0.90182859E+02</pdfrwt>
<totfact> 0.14161529E+05</totfact>
</mgrwt>
</event>
<event>
 5    1  0.6222456E+000  0.9414557E+02  0.7546771E-02  0.1293112E+00
          1   -1    0    0  501    0  0.00000000000E+00  0.00000000000E+00  0.77772419408E+01  0.77772419408E+01  0.00000000000E+00 0. -1.
         -1   -1    0    0    0  501 -0.00000000000E+00 -0.00000000000E+00 -0.28491428129E+03  0.28491428129E+03  0.00000000000E+00 0.  1.
         23    2    1    2    0    0  0.00000000000E+00  0.00000000000E+00 -0.27713703935E+03  0.29269152323E+03  0.94145574468E+02 0.  0.
        -11    1    3    3    0    0 -0.25295056173E+01 -0.43227823359E+02 -0.81175021539E+02  0.92002321888E+02  0.00000000000E+00 0.  1.
         11    1    3    3    0    0  0.25295056173E+01  0.43227823359E+02 -0.19596201781E+03  0.20068920134E+03  0.00000000000E+00 0. -1.
<mgrwt>
<rscale>  0 0.94145574E+02</rscale>
<asrwt>0</asrwt>
<pdfrwt beam="1">  1        1 0.11964990E-02 0.94145574E+02</pdfrwt>
<pdfrwt beam="2">  1       -1 0.43832956E-01 0.94145574E+02</pdfrwt>
<totfact> 0.56829494E+04</totfact>
</mgrwt>
</event>
<event>
 5    1  0.6222456E+000  0.9222398E+02  0.7546771E-02  0.1297554E+00
          2   -1    0    0  501    0  0.00000000000E+00  0.00000000000E+00  0.84750149121E+01  0.84750149121E+01  0.00000000000E+00 0.  1.
         -2   -1    0    0    0  501 -0.00000000000E+00 -0.00000000000E+00 -0.25089228266E+03  0.25089228266E+03  0.00000000000E+00 0. -1.
         23    2    1    2    0    0  0.00000000000E+00  0.00000000000E+00 -0.24241726775E+03  0.25936729757E+03  0.92223984665E+02 0.  0.
        -11    1    3    3    0    0 -0.16317203778E+02  0.38631949678E+02 -0.67284765893E+02  0.79283783943E+02  0.00000000000E+00 0.  1.
         11    1    3    3    0    0  0.16317203778E+02 -0.38631949678E+02 -0.17513250186E+03  0.18008351363E+03  0.00000000000E+00 0. -1.
<mgrwt>
<rscale>  0 0.92223985E+02</rscale>
<asrwt>0</asrwt>
<pdfrwt beam="1">  1        2 0.13038483E-02 0.92223985E+02</pdfrwt>
<pdfrwt beam="2">  1       -2 0.38598816E-01 0.92223985E+02</pdfrwt>
<totfact> 0.54455687E+04</totfact>
</mgrwt>
</event>
<event>
 5    1  0.6222456E+000  0.9197241E+02  0.7546771E-02  0.1298144E+00
          1   -1    0    0  501    0  0.00000000000E+00  0.00000000000E+00  0.46282421481E+02  0.46282421481E+02  0.00000000000E+00 0. -1.
         -1   -1    0    0    0  501 -0.00000000000E+00 -0.00000000000E+00 -0.45691885435E+02  0.45691885435E+02  0.00000000000E+00 0.  1.
         23    2    1    2    0    0  0.00000000000E+00  0.00000000000E+00  0.59053604614E+00  0.91974306915E+02  0.91972411079E+02 0.  0.
        -11    1    3    3    0    0 -0.16072232682E+02  0.42669053373E+02  0.62758863267E+01  0.46025552993E+02  0.00000000000E+00 0.  1.
         11    1    3    3    0    0  0.16072232682E+02 -0.42669053373E+02 -0.56853502806E+01  0.45948753922E+02  0.00000000000E+00 0. -1.
<mgrwt>
<rscale>  0 0.91972411E+02</rscale>
<asrwt>0</asrwt>
<pdfrwt beam="1">  1        1 0.71203725E-02 0.91972411E+02</pdfrwt>
<pdfrwt beam="2">  1       -1 0.70295208E-02 0.91972411E+02</pdfrwt>
<totfact> 0.90447521E+04</totfact>
</mgrwt>
</event>
<event>
 5    1  0.6222456E+000  0.9126916E+02  0.7546771E-02  0.1299807E+00
          1   -1    0    0  501    0  0.00000000000E+00  0.00000000000E+00  0.29654657741E+02  0.29654657741E+02  0.00000000000E+00 0. -1.
         -1   -1    0    0    0  501 -0.00000000000E+00 -0.00000000000E+00 -0.70225558248E+02  0.70225558248E+02  0.00000000000E+00 0.  1.
         23    2    1    2    0    0  0.00000000000E+00  0.00000000000E+00 -0.40570900507E+02  0.99880215989E+02  0.91269160060E+02 0.  0.
        -11    1    3    3    0    0  0.21887260455E+02 -0.27043745607E+02 -0.52602983236E+02  0.63067346480E+02  0.00000000000E+00 0.  1.
         11    1    3    3    0    0 -0.21887260455E+02  0.27043745607E+02  0.12032082729E+02  0.36812869509E+02  0.00000000000E+00 0. -1.
<mgrwt>
<rscale>  0 0.91269160E+02</rscale>
<asrwt>0</asrwt>
<pdfrwt beam="1">  1        1 0.45622551E-02 0.91269160E+02</pdfrwt>
<pdfrwt beam="2">  1       -1 0.10803932E-01 0.91269160E+02</pdfrwt>
<totfact> 0.86271106E+04</totfact>
</mgrwt>
</event>
<event>
 5    1  0.6222456E+000  0.9143125E+02  0.7546771E-02  0.1299422E+00
         -2   -1    0    0    0  501 -0.00000000000E+00  0.00000000000E+00  0.18740507330E+03  0.18740507330E+03  0.00000000000E+00 0.  1.
          2   -1    0    0  501    0  0.00000000000E+00 -0.00000000000E+00 -0.11151877924E+02  0.11151877924E+02  0.00000000000E+00 0. -1.
         23    2    1    2    0    0  0.00000000000E+00  0.00000000000E+00  0.17625319538E+03  0.19855695122E+03  0.91431252856E+02 0.  0.
        -11    1    3    3    0    0 -0.20401184769E+02  0.39746290671E+02  0.10917511790E+03  0.11796263107E+03  0.00000000000E+00 0.  1.
         11    1    3    3    0    0  0.20401184769E+02 -0.39746290671E+02  0.67078077480E+02  0.80594320151E+02  0.00000000000E+00 0. -1.
<mgrwt>
<rscale>  0 0.91431253E+02</rscale>
<asrwt>0</asrwt>
<pdfrwt beam="2">  1        2 0.17156737E-02 0.91431253E+02</pdfrwt>
<pdfrwt beam="1">  1       -2 0.28831547E-01 0.91431253E+02</pdfrwt>
<totfact> 0.63609644E+04</totfact>
</mgrwt>
</event>
<event>
 5    1  0.6222456E+000  0.9302466E+02  0.7546771E-02  0.1295688E+00
         -1   -1    0    0    0  501 -0.00000000000E+00  0.00000000000E+00  0.13713100801E+02  0.13713100801E+02  0.00000000000E+00 0.  1.
          1   -1    0    0  501    0  0.00000000000E+00 -0.00000000000E+00 -0.15776131986E+03  0.15776131986E+03  0.00000000000E+00 0. -1.
         23    2    1    2    0    0  0.00000000000E+00  0.00000000000E+00 -0.14404821906E+03  0.17147442066E+03  0.93024660855E+02 0.  0.
        -11    1    3    3    0    0 -0.32867189024E+02  0.11489604738E+02 -0.15175212215E+02  0.37980918856E+02  0.00000000000E+00 0.  1.
         11    1    3    3    0    0  0.32867189024E+02 -0.11489604738E+02 -0.12887300685E+03  0.13349350181E+03  0.00000000000E+00 0. -1.
<mgrwt>
<rscale>  0 0.93024661E+02</rscale>
<asrwt>0</asrwt>
<pdfrwt beam="2">  1        1 0.24270974E-01 0.93024661E+02</pdfrwt>
<pdfrwt beam="1">  1       -1 0.21097077E-02 0.93024661E+02</pdfrwt>
<totfact> 0.10721459E+05</totfact>
</mgrwt>
</event>
<event>
 5    1  0.6222456E+000  0.9175141E+02  0.7546771E-02  0.1298665E+00
         -1   -1    0    0    0  501 -0.00000000000E+00  0.00000000000E+00  0.32496205111E+02  0.32496205111E+02  0.00000000000E+00 0.  1.
          1   -1    0    0  501    0  0.00000000000E+00 -0.00000000000E+00 -0.64763879869E+02  0.64763879869E+02  0.00000000000E+00 0. -1.
         23    2    1    2    0    0  0.00000000000E+00  0.00000000000E+00 -0.32267674758E+02  0.97260084980E+02  0.91751410322E+02 0.  0.
        -11    1    3    3    0    0 -0.23298657401E+02 -0.39504313761E+02 -0.17276558374E+02  0.49009159467E+02  0.00000000000E+00 0. -1.
         11    1    3    3    0    0  0.23298657401E+02  0.39504313761E+02 -0.14991116384E+02  0.48250925513E+02  0.00000000000E+00 0.  1.
<mgrwt>
<rscale>  0 0.91751410E+02</rscale>
<asrwt>0</asrwt>
<pdfrwt beam="2">  1        1 0.99636738E-02 0.91751410E+02</pdfrwt>
<pdfrwt beam="1">  1       -1 0.49994162E-02 0.91751410E+02</pdfrwt>
<totfact> 0.95815005E+04</totfact>
</mgrwt>
</event>
<event>
 5    1  0.6222456E+000  0.9126213E+02  0.7546771E-02  0.1299824E+00
          1   -1    0    0  501    0  0.00000000000E+00  0.00000000000E+00  0.12001645899E+03  0.12001645899E+03  0.00000000000E+00 0. -1.
         -1   -1    0    0    0  501 -0.00000000000E+00 -0.00000000000E+00 -0.17349236865E+02  0.17349236865E+02  0.00000000000E+00 0.  1.
         23    2    1    2    0    0  0.00000000000E+00  0.00000000000E+00  0.10266722213E+03  0.13736569586E+03  0.91262127407E+02 0.  0.
        -11    1    3    3    0    0 -0.41479428819E+02 -0.94875915128E+01  0.26526178550E+02  0.50141754620E+02  0.00000000000E+00 0.  1.
         11    1    3    3    0    0  0.41479428819E+02  0.94875915128E+01  0.76141043577E+02  0.87223941237E+02  0.00000000000E+00 0. -1.
<mgrwt>
<rscale>  0 0.91262127E+02</rscale>
<asrwt>0</asrwt>
<pdfrwt beam="1">  1        1 0.18464070E-01 0.91262127E+02</pdfrwt>
<pdfrwt beam="2">  1       -1 0.26691134E-02 0.91262127E+02</pdfrwt>
<totfact> 0.10746820E+05</totfact>
</mgrwt>
</event>
<event>
 5    1  0.6222456E+000  0.9140364E+02  0.7546771E-02  0.1299488E+00
          2   -1    0    0  501    0  0.00000000000E+00  0.00000000000E+00  0.75285490539E+02  0.75285490539E+02  0.00000000000E+00 0.  1.
         -2   -1    0    0    0  501 -0.00000000000E+00 -0.00000000000E+00 -0.27743144297E+02  0.27743144297E+02  0.00000000000E+00 0. -1.
         23    2    1    2    0    0  0.00000000000E+00  0.00000000000E+00  0.47542346242E+02  0.10302863484E+03  0.91403637290E+02 0.  0.
        -11    1    3    3    0    0  0.34678741830E+02 -0.42184389721E+01  0.56984763782E+02  0.66840658776E+02  0.00000000000E+00 0.  1.
         11    1    3    3    0    0 -0.34678741830E+02  0.42184389721E+01 -0.94424175400E+01  0.36187976060E+02  0.00000000000E+00 0. -1.
<mgrwt>
<rscale>  0 0.91403637E+02</rscale>
<asrwt>0</asrwt>
<pdfrwt beam="1">  1        2 0.11582383E-01 0.91403637E+02</pdfrwt>
<pdfrwt beam="2">  1       -2 0.42681761E-02 0.91403637E+02</pdfrwt>
<totfact> 0.11211250E+05</totfact>
</mgrwt>
</event>
<event>
 5    1  0.6222456E+000  0.8999492E+02  0.7546771E-02  0.1302864E+00
          2   -1    0    0  501    0  0.00000000000E+00  0.00000000000E+00  0.53111565935E+02  0.53111565935E+02  0.00000000000E+00 0. -1.
         -2   -1    0    0    0  501 -0.00000000000E+00 -0.00000000000E+00 -0.38122983080E+02  0.38122983080E+02  0.00000000000E+00 0.  1.
         23    2    1    2    0    0  0.00000000000E+00  0.00000000000E+00  0.14988582855E+02  0.91234549015E+02  0.89994918290E+02 0.  0.
        -11    1    3    3    0    0 -0.26001154291E+02  0.12851936763E+01 -0.29713573114E+02  0.39504533594E+02  0.00000000000E+00 0.  1.
         11    1    3    3    0    0  0.26001154291E+02 -0.12851936763E+01  0.44702155969E+02  0.51730015422E+02  0.00000000000E+00 0. -1.
<mgrwt>
<rscale>  0 0.89994918E+02</rscale>
<asrwt>0</asrwt>
<pdfrwt beam="1">  1        2 0.81710101E-02 0.89994918E+02</pdfrwt>
<pdfrwt beam="2">  1       -2 0.58650743E-02 0.89994918E+02</pdfrwt>
<totfact> 0.10656031E+05</totfact>
</mgrwt>
</event>
<event>
 5    1  0.6222456E+000  0.9224890E+02  0.7546771E-02  0.1297495E+00
          1   -1    0    0  501    0  0.00000000000E+00  0.00000000000E+00  0.11388717512E+02  0.11388717512E+02  0.00000000000E+00 0. -1.
         -1   -1    0    0    0  501 -0.00000000000E+00 -0.00000000000E+00 -0.18680460854E+03  0.18680460854E+03  0.00000000000E+00 0.  1.
         23    2    1    2    0    0  0.00000000000E+00  0.00000000000E+00 -0.17541589103E+03  0.19819332606E+03  0.92248900626E+02 0.  0.
        -11    1    3    3    0    0  0.19540750132E+02  0.27860525105E+02 -0.20814629332E+02  0.39891083829E+02  0.00000000000E+00 0. -1.
         11    1    3    3    0    0 -0.19540750132E+02 -0.27860525105E+02 -0.15460126170E+03  0.15830224223E+03  0.00000000000E+00 0.  1.
<mgrwt>
<rscale>  0 0.92248901E+02</rscale>
<asrwt>0</asrwt>
<pdfrwt beam="1">  1        1 0.17521105E-02 0.92248901E+02</pdfrwt>
<pdfrwt beam="2">  1       -1 0.28739169E-01 0.92248901E+02</pdfrwt>
<totfact> 0.68636633E+04</totfact>
</mgrwt>
</event>
<event>
 5    1  0.6222456E+000  0.9543345E+02  0.7546771E-02  0.1290203E+00
          1   -1    0    0  501    0  0.00000000000E+00  0.00000000000E+00  0.17894876371E+03  0.17894876371E+03  0.00000000000E+00 0. -1.
         -1   -1    0    0    0  501 -0.00000000000E+00 -0.00000000000E+00 -0.12723674199E+02  0.12723674199E+02  0.00000000000E+00 0.  1.
         23    2    1    2    0    0  0.00000000000E+00  0.00000000000E+00  0.16622508952E+03  0.19167243791E+03  0.95433448387E+02 0.  0.
        -11    1    3    3    0    0  0.20860869515E+02 -0.36601733690E+02  0.12811340846E+03  0.13486255305E+03  0.00000000000E+00 0. -1.
         11    1    3    3    0    0 -0.20860869515E+02  0.36601733690E+02  0.38111681053E+02  0.56809884868E+02  0.00000000000E+00 0.  1.
<mgrwt>
<rscale>  0 0.95433448E+02</rscale>
<asrwt>0</asrwt>
<pdfrwt beam="1">  1        1 0.27530577E-01 0.95433448E+02</pdfrwt>
<pdfrwt beam="2">  1       -1 0.19574885E-02 0.95433448E+02</pdfrwt>
<totfact> 0.10248006E+05</totfact>
</mgrwt>
</event>
<event>
 5    1  0.6222456E+000  0.8640116E+02  0.7546771E-02  0.1311808E+00
          1   -1    0    0  501    0  0.00000000000E+00  0.00000000000E+00  0.98365986409E+02  0.98365986409E+02  0.00000000000E+00 0. -1.
         -1   -1    0    0    0  501 -0.00000000000E+00 -0.00000000000E+00 -0.18972921523E+02  0.18972921523E+02  0.00000000000E+00 0.  1.
         23    2    1    2    0    0  0.00000000000E+00  0.00000000000E+00  0.79393064886E+02  0.11733890793E+03  0.86401160656E+02 0.  0.
        -11    1    3    3    0    0 -0.39691237084E+01  0.42749609420E+02  0.33182448790E+02  0.54261938375E+02  0.00000000000E+00 0.  1.
         11    1    3    3    0    0  0.39691237084E+01 -0.42749609420E+02  0.46210616096E+02  0.63076969557E+02  0.00000000000E+00 0. -1.
<mgrwt>
<rscale>  0 0.86401161E+02</rscale>
<asrwt>0</asrwt>
<pdfrwt beam="1">  1        1 0.15133228E-01 0.86401161E+02</pdfrwt>
<pdfrwt beam="2">  1       -1 0.29189111E-02 0.86401161E+02</pdfrwt>
<totfact> 0.12055412E+05</totfact>
</mgrwt>
</event>
<event>
 5    1  0.6222456E+000  0.9019900E+02  0.7546771E-02  0.1302370E+00
         -3   -1    0    0    0  501 -0.00000000000E+00  0.00000000000E+00  0.10705307453E+02  0.10705307453E+02  0.00000000000E+00 0.  1.
          3   -1    0    0  501    0  0.00000000000E+00 -0.00000000000E+00 -0.18999595534E+03  0.18999595534E+03  0.00000000000E+00 0. -1.
         23    2    1    2    0    0  0.00000000000E+00  0.00000000000E+00 -0.17929064789E+03  0.20070126279E+03  0.90199004801E+02 0.  0.
        -11    1    3    3    0    0  0.25953044392E+02 -0.27727130649E+02 -0.35524248636E+02  0.52003139601E+02  0.00000000000E+00 0.  1.
         11    1    3    3    0    0 -0.25953044392E+02  0.27727130649E+02 -0.14376639925E+03  0.14869812319E+03  0.00000000000E+00 0. -1.
<mgrwt>
<rscale>  0 0.90199005E+02</rscale>
<asrwt>0</asrwt>
<pdfrwt beam="2">  1        3 0.29230145E-01 0.90199005E+02</pdfrwt>
<pdfrwt beam="1">  1       -3 0.16469705E-02 0.90199005E+02</pdfrwt>
<totfact> 0.29300896E+04</totfact>
</mgrwt>
</event>
<event>
 5    1  0.6222456E+000  0.8788474E+02  0.7546771E-02  0.1308056E+00
          1   -1    0    0  501    0  0.00000000000E+00  0.00000000000E+00  0.79512438690E+02  0.79512438690E+02  0.00000000000E+00 0. -1.
         -1   -1    0    0    0  501 -0.00000000000E+00 -0.00000000000E+00 -0.24284649616E+02  0.24284649616E+02  0.00000000000E+00 0.  1.
         23    2    1    2    0    0  0.00000000000E+00  0.00000000000E+00  0.55227789074E+02  0.10379708831E+03  0.87884736187E+02 0.  0.
        -11    1    3    3    0    0 -0.40415245387E+02 -0.17035344283E+02  0.24414836841E+02  0.50196406968E+02  0.00000000000E+00 0.  1.
         11    1    3    3    0    0  0.40415245387E+02  0.17035344283E+02  0.30812952234E+02  0.53600681338E+02  0.00000000000E+00 0. -1.
<mgrwt>
<rscale>  0 0.87884736E+02</rscale>
<asrwt>0</asrwt>
<pdfrwt beam="1">  1        1 0.12232683E-01 0.87884736E+02</pdfrwt>
<pdfrwt beam="2">  1       -1 0.37361000E-02 0.87884736E+02</pdfrwt>
<totfact> 0.11130130E+05</totfact>
</mgrwt>
</event>
<event>
 5    1  0.6222456E+000  0.9511412E+02  0.7546771E-02  0.1290919E+00
          1   -1    0    0  501    0  0.00000000000E+00  0.00000000000E+00  0.15672921410E+03  0.15672921410E+03  0.00000000000E+00 0. -1.
         -1   -1    0    0    0  501 -0.00000000000E+00 -0.00000000000E+00 -0.14430455338E+02  0.14430455338E+02  0.00000000000E+00 0.  1.
         23    2    1    2    0    0  0.00000000000E+00  0.00000000000E+00  0.14229875876E+03  0.17115966944E+03  0.95114119337E+02 0.  0.
        -11    1    3    3    0    0 -0.44579247647E+02 -0.22168400618E+01  0.10068837485E+03  0.11013797043E+03  0.00000000000E+00 0.  1.
         11    1    3    3    0    0  0.44579247647E+02  0.22168400618E+01  0.41610383914E+02  0.61021699011E+02  0.00000000000E+00 0. -1.
<mgrwt>
<rscale>  0 0.95114119E+02</rscale>
<asrwt>0</asrwt>
<pdfrwt beam="1">  1        1 0.24112186E-01 0.95114119E+02</pdfrwt>
<pdfrwt beam="2">  1       -1 0.22200702E-02 0.95114119E+02</pdfrwt>
<totfact> 0.10083434E+05</totfact>
</mgrwt>
</event>
<event>
 5    1  0.6222456E+000  0.9126848E+02  0.7546771E-02  0.1299809E+00
         -1   -1    0    0    0  501 -0.00000000000E+00  0.00000000000E+00  0.10751967158E+03  0.10751967158E+03  0.00000000000E+00 0.  1.
          1   -1    0    0  501    0  0.00000000000E+00 -0.00000000000E+00 -0.19368398082E+02  0.19368398082E+02  0.00000000000E+00 0. -1.
         23    2    1    2    0    0  0.00000000000E+00  0.00000000000E+00  0.88151273495E+02  0.12688806966E+03  0.91268478693E+02 0.  0.
        -11    1    3    3    0    0  0.28745343487E+02 -0.20141670679E+02  0.84620671965E+02  0.91611351883E+02  0.00000000000E+00 0.  1.
         11    1    3    3    0    0 -0.28745343487E+02  0.20141670679E+02  0.35306015293E+01  0.35276717776E+02  0.00000000000E+00 0. -1.
<mgrwt>
<rscale>  0 0.91268479E+02</rscale>
<asrwt>0</asrwt>
<pdfrwt beam="2">  1        1 0.29797536E-02 0.91268479E+02</pdfrwt>
<pdfrwt beam="1">  1       -1 0.16541488E-01 0.91268479E+02</pdfrwt>
<totfact> 0.80053551E+04</totfact>
</mgrwt>
</event>
<event>
 5    1  0.6222456E+000  0.9157512E+02  0.7546771E-02  0.1299082E+00
         -1   -1    0    0    0  501 -0.00000000000E+00  0.00000000000E+00  0.16035752979E+02  0.16035752979E+02  0.00000000000E+00 0.  1.
          1   -1    0    0  501    0  0.00000000000E+00 -0.00000000000E+00 -0.13073915551E+03  0.13073915551E+03  0.00000000000E+00 0. -1.
         23    2    1    2    0    0  0.00000000000E+00  0.00000000000E+00 -0.11470340253E+03  0.14677490849E+03  0.91575123313E+02 0.  0.
        -11    1    3    3    0    0  0.21771525211E+02  0.33722981426E+02 -0.92658834406E+02  0.10097969291E+03  0.00000000000E+00 0.  1.
         11    1    3    3    0    0 -0.21771525211E+02 -0.33722981426E+02 -0.22044568125E+02  0.45795215581E+02  0.00000000000E+00 0. -1.
<mgrwt>
<rscale>  0 0.91575123E+02</rscale>
<asrwt>0</asrwt>
<pdfrwt beam="2">  1        1 0.20113716E-01 0.91575123E+02</pdfrwt>
<pdfrwt beam="1">  1       -1 0.24670389E-02 0.91575123E+02</pdfrwt>
<totfact> 0.10809330E+05</totfact>
</mgrwt>
</event>
<event>
 5    1  0.6222456E+000  0.9375263E+02  0.7546771E-02  0.1294010E+00
         -1   -1    0    0    0  501 -0.00000000000E+00  0.00000000000E+00  0.57532641777E+02  0.57532641777E+02  0.00000000000E+00 0.  1.
          1   -1    0    0  501    0  0.00000000000E+00 -0.00000000000E+00 -0.38193778417E+02  0.38193778417E+02  0.00000000000E+00 0. -1.
         23    2    1    2    0    0  0.00000000000E+00  0.00000000000E+00  0.19338863360E+02  0.95726420194E+02  0.93752631361E+02 0.  0.
        -11    1    3    3    0    0  0.26388113557E+02 -0.74651001271E+01  0.48487298690E+02  0.55705281539E+02  0.00000000000E+00 0.  1.
         11    1    3    3    0    0 -0.26388113557E+02  0.74651001271E+01 -0.29148435330E+02  0.40021138655E+02  0.00000000000E+00 0. -1.
<mgrwt>
<rscale>  0 0.93752631E+02</rscale>
<asrwt>0</asrwt>
<pdfrwt beam="2">  1        1 0.58759659E-02 0.93752631E+02</pdfrwt>
<pdfrwt beam="1">  1       -1 0.88511757E-02 0.93752631E+02</pdfrwt>
<totfact> 0.83176477E+04</totfact>
</mgrwt>
</event>
<event>
 5    1  0.6222456E+000  0.9175178E+02  0.7546771E-02  0.1298664E+00
         -2   -1    0    0    0  501 -0.00000000000E+00  0.00000000000E+00  0.12104520909E+03  0.12104520909E+03  0.00000000000E+00 0.  1.
          2   -1    0    0  501    0  0.00000000000E+00 -0.00000000000E+00 -0.17386869560E+02  0.17386869560E+02  0.00000000000E+00 0. -1.
         23    2    1    2    0    0  0.00000000000E+00  0.00000000000E+00  0.10365833953E+03  0.13843207865E+03  0.91751779521E+02 0.  0.
        -11    1    3    3    0    0 -0.12883434186E+02 -0.31397056296E+02  0.52564006130E+01  0.34342215536E+02  0.00000000000E+00 0. -1.
         11    1    3    3    0    0  0.12883434186E+02  0.31397056296E+02  0.98401938918E+02  0.10408986312E+03  0.00000000000E+00 0.  1.
<mgrwt>
<rscale>  0 0.91751780E+02</rscale>
<asrwt>0</asrwt>
<pdfrwt beam="2">  1        2 0.26749031E-02 0.91751780E+02</pdfrwt>
<pdfrwt beam="1">  1       -2 0.18622339E-01 0.91751780E+02</pdfrwt>
<totfact> 0.74026451E+04</totfact>
</mgrwt>
</event>
<event>
 5    1  0.6222456E+000  0.9278671E+02  0.7546771E-02  0.1296240E+00
         -1   -1    0    0    0  501 -0.00000000000E+00  0.00000000000E+00  0.68633114619E+01  0.68633114619E+01  0.00000000000E+00 0. -1.
          1   -1    0    0  501    0  0.00000000000E+00 -0.00000000000E+00 -0.31360132168E+03  0.31360132168E+03  0.00000000000E+00 0.  1.
         23    2    1    2    0    0  0.00000000000E+00  0.00000000000E+00 -0.30673801022E+03  0.32046463315E+03  0.92786713393E+02 0.  0.
        -11    1    3    3    0    0  0.37448229167E+02  0.19002275318E+02 -0.85259747620E+02  0.95040417188E+02  0.00000000000E+00 0. -1.
         11    1    3    3    0    0 -0.37448229167E+02 -0.19002275318E+02 -0.22147826260E+03  0.22542421596E+03  0.00000000000E+00 0.  1.
<mgrwt>
<rscale>  0 0.92786713E+02</rscale>
<asrwt>0</asrwt>
<pdfrwt beam="2">  1        1 0.48246360E-01 0.92786713E+02</pdfrwt>
<pdfrwt beam="1">  1       -1 0.10558940E-02 0.92786713E+02</pdfrwt>
<totfact> 0.12330954E+05</totfact>
</mgrwt>
</event>
<event>
 5    1  0.6222456E+000  0.9042147E+02  0.7546771E-02  0.1301834E+00
         -3   -1    0    0    0  501 -0.00000000000E+00  0.00000000000E+00  0.60508131106E+02  0.60508131106E+02  0.00000000000E+00 0.  1.
          3   -1    0    0  501    0  0.00000000000E+00 -0.00000000000E+00 -0.33780758164E+02  0.33780758164E+02  0.00000000000E+00 0. -1.
         23    2    1    2    0    0  0.00000000000E+00  0.00000000000E+00  0.26727372942E+02  0.94288889270E+02  0.90421469660E+02 0.  0.
        -11    1    3    3    0    0  0.21680204889E+02  0.32611056259E+02 -0.10196899924E+02  0.40465899748E+02  0.00000000000E+00 0. -1.
         11    1    3    3    0    0 -0.21680204889E+02 -0.32611056259E+02  0.36924272867E+02  0.53822989522E+02  0.00000000000E+00 0.  1.
<mgrwt>
<rscale>  0 0.90421470E+02</rscale>
<asrwt>0</asrwt>
<pdfrwt beam="2">  1        3 0.51970397E-02 0.90421470E+02</pdfrwt>
<pdfrwt beam="1">  1       -3 0.93089432E-02 0.90421470E+02</pdfrwt>
<totfact> 0.35904383E+04</totfact>
</mgrwt>
</event>
<event>
 5    1  0.6222456E+000  0.9271368E+02  0.7546771E-02  0.1296410E+00
         -2   -1    0    0    0  501 -0.00000000000E+00  0.00000000000E+00  0.48343193456E+02  0.48343193456E+02  0.00000000000E+00 0.  1.
          2   -1    0    0  501    0  0.00000000000E+00 -0.00000000000E+00 -0.44452100230E+02  0.44452100230E+02  0.00000000000E+00 0. -1.
         23    2    1    2    0    0  0.00000000000E+00  0.00000000000E+00  0.38910932253E+01  0.92795293686E+02  0.92713677113E+02 0.  0.
        -11    1    3    3    0    0 -0.97741636852E+01  0.10943634405E+02  0.45957647221E+02  0.48243162706E+02  0.00000000000E+00 0.  1.
         11    1    3    3    0    0  0.97741636852E+01 -0.10943634405E+02 -0.42066553996E+02  0.44552130980E+02  0.00000000000E+00 0. -1.
<mgrwt>
<rscale>  0 0.92713677E+02</rscale>
<asrwt>0</asrwt>
<pdfrwt beam="2">  1        2 0.68387846E-02 0.92713677E+02</pdfrwt>
<pdfrwt beam="1">  1       -2 0.74374144E-02 0.92713677E+02</pdfrwt>
<totfact> 0.93419521E+04</totfact>
</mgrwt>
</event>
<event>
 5    1  0.6222456E+000  0.9290396E+02  0.7546771E-02  0.1295968E+00
         -2   -1    0    0    0  501 -0.00000000000E+00  0.00000000000E+00  0.64667897682E+01  0.64667897682E+01  0.00000000000E+00 0.  1.
          2   -1    0    0  501    0  0.00000000000E+00 -0.00000000000E+00 -0.33367196078E+03  0.33367196078E+03  0.00000000000E+00 0. -1.
         23    2    1    2    0    0  0.00000000000E+00  0.00000000000E+00 -0.32720517101E+03  0.34013875055E+03  0.92903959484E+02 0.  0.
        -11    1    3    3    0    0  0.44435592142E+02 -0.10165697101E+02 -0.13087166241E+03  0.13858302663E+03  0.00000000000E+00 0.  1.
         11    1    3    3    0    0 -0.44435592142E+02  0.10165697101E+02 -0.19633350860E+03  0.20155572392E+03  0.00000000000E+00 0. -1.
<mgrwt>
<rscale>  0 0.92903959E+02</rscale>
<asrwt>0</asrwt>
<pdfrwt beam="2">  1        2 0.51334153E-01 0.92903959E+02</pdfrwt>
<pdfrwt beam="1">  1       -2 0.99489062E-03 0.92903959E+02</pdfrwt>
<totfact> 0.17776410E+05</totfact>
</mgrwt>
</event>
<event>
 5    1  0.6222456E+000  0.9064512E+02  0.7546771E-02  0.1301297E+00
         -2   -1    0    0    0  501 -0.00000000000E+00  0.00000000000E+00  0.13094579348E+02  0.13094579348E+02  0.00000000000E+00 0.  1.
          2   -1    0    0  501    0  0.00000000000E+00 -0.00000000000E+00 -0.15686905623E+03  0.15686905623E+03  0.00000000000E+00 0. -1.
         23    2    1    2    0    0  0.00000000000E+00  0.00000000000E+00 -0.14377447688E+03  0.16996363558E+03  0.90645116890E+02 0.  0.
        -11    1    3    3    0    0  0.23899131592E+02  0.37656823882E+02 -0.56778354391E+02  0.72201013865E+02  0.00000000000E+00 0.  1.
         11    1    3    3    0    0 -0.23899131592E+02 -0.37656823882E+02 -0.86996122489E+02  0.97762621711E+02  0.00000000000E+00 0. -1.
<mgrwt>
<rscale>  0 0.90645117E+02</rscale>
<asrwt>0</asrwt>
<pdfrwt beam="2">  1        2 0.24133703E-01 0.90645117E+02</pdfrwt>
<pdfrwt beam="1">  1       -2 0.20145505E-02 0.90645117E+02</pdfrwt>
<totfact> 0.14423359E+05</totfact>
</mgrwt>
</event>
<event>
 5    1  0.6222456E+000  0.9921149E+02  0.7546771E-02  0.1281963E+00
          2   -1    0    0  501    0  0.00000000000E+00  0.00000000000E+00  0.67617898604E+02  0.67617898604E+02  0.00000000000E+00 0. -1.
         -2   -1    0    0    0  501 -0.00000000000E+00 -0.00000000000E+00 -0.36391695703E+02  0.36391695703E+02  0.00000000000E+00 0.  1.
         23    2    1    2    0    0  0.00000000000E+00  0.00000000000E+00  0.31226202901E+02  0.10400959431E+03  0.99211491070E+02 0.  0.
        -11    1    3    3    0    0  0.32370309829E+02  0.90115830707E+01  0.53870204617E+02  0.63490507427E+02  0.00000000000E+00 0. -1.
         11    1    3    3    0    0 -0.32370309829E+02 -0.90115830707E+01 -0.22644001716E+02  0.40519086880E+02  0.00000000000E+00 0.  1.
<mgrwt>
<rscale>  0 0.99211491E+02</rscale>
<asrwt>0</asrwt>
<pdfrwt beam="1">  1        2 0.10402754E-01 0.99211491E+02</pdfrwt>
<pdfrwt beam="2">  1       -2 0.55987224E-02 0.99211491E+02</pdfrwt>
<totfact> 0.86309009E+04</totfact>
</mgrwt>
</event>
<event>
 5    1  0.6222456E+000  0.9236254E+02  0.7546771E-02  0.1297229E+00
          1   -1    0    0  501    0  0.00000000000E+00  0.00000000000E+00  0.57805868162E+02  0.57805868162E+02  0.00000000000E+00 0. -1.
         -1   -1    0    0    0  501 -0.00000000000E+00 -0.00000000000E+00 -0.36894344316E+02  0.36894344316E+02  0.00000000000E+00 0.  1.
         23    2    1    2    0    0  0.00000000000E+00  0.00000000000E+00  0.20911523846E+02  0.94700212479E+02  0.92362537936E+02 0.  0.
        -11    1    3    3    0    0  0.30801937341E+02 -0.33946077958E+02  0.16220706932E+02  0.48623110617E+02  0.00000000000E+00 0.  1.
         11    1    3    3    0    0 -0.30801937341E+02  0.33946077958E+02  0.46908169146E+01  0.46077101862E+02  0.00000000000E+00 0. -1.
<mgrwt>
<rscale>  0 0.92362538E+02</rscale>
<asrwt>0</asrwt>
<pdfrwt beam="1">  1        1 0.88932104E-02 0.92362538E+02</pdfrwt>
<pdfrwt beam="2">  1       -1 0.56760530E-02 0.92362538E+02</pdfrwt>
<totfact> 0.92445324E+04</totfact>
</mgrwt>
</event>
<event>
 5    1  0.6222456E+000  0.9165541E+02  0.7546771E-02  0.1298892E+00
         -1   -1    0    0    0  501 -0.00000000000E+00  0.00000000000E+00  0.17465395088E+02  0.17465395088E+02  0.00000000000E+00 0.  1.
          1   -1    0    0  501    0  0.00000000000E+00 -0.00000000000E+00 -0.12024797219E+03  0.12024797219E+03  0.00000000000E+00 0. -1.
         23    2    1    2    0    0  0.00000000000E+00  0.00000000000E+00 -0.10278257711E+03  0.13771336728E+03  0.91655405576E+02 0.  0.
        -11    1    3    3    0    0  0.20678592137E+02 -0.34956820676E+02 -0.19497131396E+02  0.45052431868E+02  0.00000000000E+00 0.  1.
         11    1    3    3    0    0 -0.20678592137E+02  0.34956820676E+02 -0.83285445709E+02  0.92660935413E+02  0.00000000000E+00 0. -1.
<mgrwt>
<rscale>  0 0.91655406E+02</rscale>
<asrwt>0</asrwt>
<pdfrwt beam="2">  1        1 0.18499687E-01 0.91655406E+02</pdfrwt>
<pdfrwt beam="1">  1       -1 0.26869840E-02 0.91655406E+02</pdfrwt>
<totfact> 0.10625621E+05</totfact>
</mgrwt>
</event>
<event>
 5    1  0.6222456E+000  0.9093913E+02  0.7546771E-02  0.1300593E+00
         -2   -1    0    0    0  501 -0.00000000000E+00  0.00000000000E+00  0.42627860157E+02  0.42627860157E+02  0.00000000000E+00 0.  1.
          2   -1    0    0  501    0  0.00000000000E+00 -0.00000000000E+00 -0.48500711781E+02  0.48500711781E+02  0.00000000000E+00 0. -1.
         23    2    1    2    0    0  0.00000000000E+00  0.00000000000E+00 -0.58728516244E+01  0.91128571938E+02  0.90939134795E+02 0.  0.
        -11    1    3    3    0    0  0.20939836443E+02 -0.78274375159E+01  0.36740701087E+02  0.43007262697E+02  0.00000000000E+00 0.  1.
         11    1    3    3    0    0 -0.20939836443E+02  0.78274375159E+01 -0.42613552712E+02  0.48121309241E+02  0.00000000000E+00 0. -1.
<mgrwt>
<rscale>  0 0.90939135E+02</rscale>
<asrwt>0</asrwt>
<pdfrwt beam="2">  1        2 0.74616479E-02 0.90939135E+02</pdfrwt>
<pdfrwt beam="1">  1       -2 0.65581324E-02 0.90939135E+02</pdfrwt>
<totfact> 0.10102774E+05</totfact>
</mgrwt>
</event>
<event>
 5    1  0.6222456E+000  0.8926232E+02  0.7546771E-02  0.1304648E+00
          1   -1    0    0  501    0  0.00000000000E+00  0.00000000000E+00  0.27881303833E+02  0.27881303833E+02  0.00000000000E+00 0. -1.
         -1   -1    0    0    0  501 -0.00000000000E+00 -0.00000000000E+00 -0.71443596015E+02  0.71443596015E+02  0.00000000000E+00 0.  1.
         23    2    1    2    0    0  0.00000000000E+00  0.00000000000E+00 -0.43562292182E+02  0.99324899849E+02  0.89262323686E+02 0.  0.
        -11    1    3    3    0    0 -0.33087829086E+02 -0.96432163461E+01  0.97730419760E+01  0.35823294161E+02  0.00000000000E+00 0.  1.
         11    1    3    3    0    0  0.33087829086E+02  0.96432163461E+01 -0.53335334158E+02  0.63501605687E+02  0.00000000000E+00 0. -1.
<mgrwt>
<rscale>  0 0.89262324E+02</rscale>
<asrwt>0</asrwt>
<pdfrwt beam="1">  1        1 0.42894313E-02 0.89262324E+02</pdfrwt>
<pdfrwt beam="2">  1       -1 0.10991323E-01 0.89262324E+02</pdfrwt>
<totfact> 0.91046083E+04</totfact>
</mgrwt>
</event>
<event>
 5    1  0.6222456E+000  0.9137605E+02  0.7546771E-02  0.1299553E+00
          2   -1    0    0  501    0  0.00000000000E+00  0.00000000000E+00  0.65767910878E+02  0.65767910878E+02  0.00000000000E+00 0. -1.
         -2   -1    0    0    0  501 -0.00000000000E+00 -0.00000000000E+00 -0.31738814987E+02  0.31738814987E+02  0.00000000000E+00 0.  1.
         23    2    1    2    0    0  0.00000000000E+00  0.00000000000E+00  0.34029095891E+02  0.97506725865E+02  0.91376048403E+02 0.  0.
        -11    1    3    3    0    0 -0.30920250096E+01 -0.35604883724E+02 -0.13357830704E+02  0.38153636849E+02  0.00000000000E+00 0.  1.
         11    1    3    3    0    0  0.30920250096E+01  0.35604883724E+02  0.47386926595E+02  0.59353089016E+02  0.00000000000E+00 0. -1.
<mgrwt>
<rscale>  0 0.91376048E+02</rscale>
<asrwt>0</asrwt>
<pdfrwt beam="1">  1        2 0.10118140E-01 0.91376048E+02</pdfrwt>
<pdfrwt beam="2">  1       -2 0.48828946E-02 0.91376048E+02</pdfrwt>
<totfact> 0.10807303E+05</totfact>
</mgrwt>
</event>
<event>
 5    1  0.6222456E+000  0.9051639E+02  0.7546771E-02  0.1301606E+00
          4   -1    0    0  501    0  0.00000000000E+00  0.00000000000E+00  0.41280109565E+03  0.41280109565E+03  0.00000000000E+00 0. -1.
         -4   -1    0    0    0  501 -0.00000000000E+00 -0.00000000000E+00 -0.49619637440E+01  0.49619637440E+01  0.00000000000E+00 0.  1.
         23    2    1    2    0    0  0.00000000000E+00  0.00000000000E+00  0.40783913191E+03  0.41776305939E+03  0.90516386806E+02 0.  0.
        -11    1    3    3    0    0  0.14151328894E+02 -0.42987411336E+02  0.20556062113E+03  0.21048360174E+03  0.00000000000E+00 0.  1.
         11    1    3    3    0    0 -0.14151328894E+02  0.42987411336E+02  0.20227851078E+03  0.20727945765E+03  0.00000000000E+00 0. -1.
<mgrwt>
<rscale>  0 0.90516387E+02</rscale>
<asrwt>0</asrwt>
<pdfrwt beam="1">  1        4 0.63507834E-01 0.90516387E+02</pdfrwt>
<pdfrwt beam="2">  1       -4 0.76337936E-03 0.90516387E+02</pdfrwt>
<totfact> 0.15029377E+04</totfact>
</mgrwt>
</event>
<event>
 5    1  0.6222456E+000  0.6707020E+02  0.7546771E-02  0.1370349E+00
          2   -1    0    0  501    0  0.00000000000E+00  0.00000000000E+00  0.91096450365E+01  0.91096450365E+01  0.00000000000E+00 0. -1.
         -2   -1    0    0    0  501 -0.00000000000E+00 -0.00000000000E+00 -0.12345190957E+03  0.12345190957E+03  0.00000000000E+00 0.  1.
         23    2    1    2    0    0  0.00000000000E+00  0.00000000000E+00 -0.11434226453E+03  0.13256155461E+03  0.67070204271E+02 0.  0.
        -11    1    3    3    0    0 -0.73027732170E+01 -0.19389976629E+02 -0.50547204963E+01  0.21327256964E+02  0.00000000000E+00 0. -1.
         11    1    3    3    0    0  0.73027732170E+01  0.19389976629E+02 -0.10928754404E+03  0.11123429764E+03  0.00000000000E+00 0.  1.
<mgrwt>
<rscale>  0 0.67070204E+02</rscale>
<asrwt>0</asrwt>
<pdfrwt beam="1">  1        2 0.14014840E-02 0.67070204E+02</pdfrwt>
<pdfrwt beam="2">  1       -2 0.18992600E-01 0.67070204E+02</pdfrwt>
<totfact> 0.16128661E+05</totfact>
</mgrwt>
</event>
<event>
 5    1  0.6222456E+000  0.8739612E+02  0.7546771E-02  0.1309283E+00
          1   -1    0    0  501    0  0.00000000000E+00  0.00000000000E+00  0.40654769358E+02  0.40654769358E+02  0.00000000000E+00 0. -1.
         -1   -1    0    0    0  501 -0.00000000000E+00 -0.00000000000E+00 -0.46969159219E+02  0.46969159219E+02  0.00000000000E+00 0.  1.
         23    2    1    2    0    0  0.00000000000E+00  0.00000000000E+00 -0.63143898613E+01  0.87623928576E+02  0.87396117419E+02 0.  0.
        -11    1    3    3    0    0  0.40191375285E+02  0.23507445700E+01 -0.20191115687E+02  0.45039469358E+02  0.00000000000E+00 0.  1.
         11    1    3    3    0    0 -0.40191375285E+02 -0.23507445700E+01  0.13876725826E+02  0.42584459219E+02  0.00000000000E+00 0. -1.
<mgrwt>
<rscale>  0 0.87396117E+02</rscale>
<asrwt>0</asrwt>
<pdfrwt beam="1">  1        1 0.62545799E-02 0.87396117E+02</pdfrwt>
<pdfrwt beam="2">  1       -1 0.72260245E-02 0.87396117E+02</pdfrwt>
<totfact> 0.10237313E+05</totfact>
</mgrwt>
</event>
<event>
 5    1  0.6222456E+000  0.9248026E+02  0.7546771E-02  0.1296954E+00
         -2   -1    0    0    0  501 -0.00000000000E+00  0.00000000000E+00  0.16688596042E+02  0.16688596042E+02  0.00000000000E+00 0.  1.
          2   -1    0    0  501    0  0.00000000000E+00 -0.00000000000E+00 -0.12812038941E+03  0.12812038941E+03  0.00000000000E+00 0. -1.
         23    2    1    2    0    0  0.00000000000E+00  0.00000000000E+00 -0.11143179337E+03  0.14480898545E+03  0.92480255699E+02 0.  0.
        -11    1    3    3    0    0 -0.44404096867E+02 -0.96946170719E+01 -0.42388794605E+02  0.62149169961E+02  0.00000000000E+00 0.  1.
         11    1    3    3    0    0  0.44404096867E+02  0.96946170719E+01 -0.69042998762E+02  0.82659815489E+02  0.00000000000E+00 0. -1.
<mgrwt>
<rscale>  0 0.92480256E+02</rscale>
<asrwt>0</asrwt>
<pdfrwt beam="2">  1        2 0.19710829E-01 0.92480256E+02</pdfrwt>
<pdfrwt beam="1">  1       -2 0.25674763E-02 0.92480256E+02</pdfrwt>
<totfact> 0.12759958E+05</totfact>
</mgrwt>
</event>
<event>
 5    1  0.6222456E+000  0.9085766E+02  0.7546771E-02  0.1300788E+00
          2   -1    0    0  501    0  0.00000000000E+00  0.00000000000E+00  0.12910543211E+02  0.12910543211E+02  0.00000000000E+00 0.  1.
         -2   -1    0    0    0  501 -0.00000000000E+00 -0.00000000000E+00 -0.15985217936E+03  0.15985217936E+03  0.00000000000E+00 0. -1.
         23    2    1    2    0    0  0.00000000000E+00  0.00000000000E+00 -0.14694163615E+03  0.17276272257E+03  0.90857657223E+02 0.  0.
        -11    1    3    3    0    0 -0.18166313015E+02  0.40744747256E+02 -0.57154833534E+02  0.72503960952E+02  0.00000000000E+00 0.  1.
         11    1    3    3    0    0  0.18166313015E+02 -0.40744747256E+02 -0.89786802618E+02  0.10025876162E+03  0.00000000000E+00 0. -1.
<mgrwt>
<rscale>  0 0.90857657E+02</rscale>
<asrwt>0</asrwt>
<pdfrwt beam="1">  1        2 0.19862375E-02 0.90857657E+02</pdfrwt>
<pdfrwt beam="2">  1       -2 0.24592642E-01 0.90857657E+02</pdfrwt>
<totfact> 0.68838349E+04</totfact>
</mgrwt>
</event>
<event>
 5    1  0.6222456E+000  0.1105801E+03  0.7546771E-02  0.1259499E+00
          1   -1    0    0  501    0  0.00000000000E+00  0.00000000000E+00  0.19372099547E+02  0.19372099547E+02  0.00000000000E+00 0. -1.
         -1   -1    0    0    0  501 -0.00000000000E+00 -0.00000000000E+00 -0.15780364009E+03  0.15780364009E+03  0.00000000000E+00 0.  1.
         23    2    1    2    0    0  0.00000000000E+00  0.00000000000E+00 -0.13843154054E+03  0.17717573963E+03  0.11058006737E+03 0.  0.
        -11    1    3    3    0    0 -0.30633027718E+02 -0.20285580149E+02 -0.30159254577E+01  0.36864386005E+02  0.00000000000E+00 0. -1.
         11    1    3    3    0    0  0.30633027718E+02  0.20285580149E+02 -0.13541561508E+03  0.14031135363E+03  0.00000000000E+00 0.  1.
<mgrwt>
<rscale>  0 0.11058007E+03</rscale>
<asrwt>0</asrwt>
<pdfrwt beam="1">  1        1 0.29803229E-02 0.11058007E+03</pdfrwt>
<pdfrwt beam="2">  1       -1 0.24277484E-01 0.11058007E+03</pdfrwt>
<totfact> 0.44661300E+04</totfact>
</mgrwt>
</event>
<event>
 5    1  0.6222456E+000  0.1034100E+03  0.7546771E-02  0.1273284E+00
         -3   -1    0    0    0  501 -0.00000000000E+00  0.00000000000E+00  0.20276107569E+02  0.20276107569E+02  0.00000000000E+00 0.  1.
          3   -1    0    0  501    0  0.00000000000E+00 -0.00000000000E+00 -0.13185019389E+03  0.13185019389E+03  0.00000000000E+00 0. -1.
         23    2    1    2    0    0  0.00000000000E+00  0.00000000000E+00 -0.11157408632E+03  0.15212630145E+03  0.10341003267E+03 0.  0.
        -11    1    3    3    0    0 -0.39458798738E+02  0.33384545887E+02 -0.57806262535E+02  0.77544108030E+02  0.00000000000E+00 0. -1.
         11    1    3    3    0    0  0.39458798738E+02 -0.33384545887E+02 -0.53767823781E+02  0.74582193425E+02  0.00000000000E+00 0.  1.
<mgrwt>
<rscale>  0 0.10341003E+03</rscale>
<asrwt>0</asrwt>
<pdfrwt beam="2">  1        3 0.20284645E-01 0.10341003E+03</pdfrwt>
<pdfrwt beam="1">  1       -3 0.31194012E-02 0.10341003E+03</pdfrwt>
<totfact> 0.22108281E+04</totfact>
</mgrwt>
</event>
<event>
 5    1  0.6222456E+000  0.9238065E+02  0.7546771E-02  0.1297187E+00
         -2   -1    0    0    0  501 -0.00000000000E+00  0.00000000000E+00  0.11290435333E+02  0.11290435333E+02  0.00000000000E+00 0.  1.
          2   -1    0    0  501    0  0.00000000000E+00 -0.00000000000E+00 -0.18896933321E+03  0.18896933321E+03  0.00000000000E+00 0. -1.
         23    2    1    2    0    0  0.00000000000E+00  0.00000000000E+00 -0.17767889788E+03  0.20025976855E+03  0.92380648116E+02 0.  0.
        -11    1    3    3    0    0 -0.16500881889E+02 -0.38519275420E+02 -0.46719310163E+02  0.62759123831E+02  0.00000000000E+00 0. -1.
         11    1    3    3    0    0  0.16500881889E+02  0.38519275420E+02 -0.13095958772E+03  0.13750064472E+03  0.00000000000E+00 0.  1.
<mgrwt>
<rscale>  0 0.92380648E+02</rscale>
<asrwt>0</asrwt>
<pdfrwt beam="2">  1        2 0.29072204E-01 0.92380648E+02</pdfrwt>
<pdfrwt beam="1">  1       -2 0.17369901E-02 0.92380648E+02</pdfrwt>
<totfact> 0.14627839E+05</totfact>
</mgrwt>
</event>
<event>
 5    1  0.6222456E+000  0.8466378E+02  0.7546771E-02  0.1316314E+00
         -4   -1    0    0    0  501 -0.00000000000E+00  0.00000000000E+00  0.10036033153E+02  0.10036033153E+02  0.00000000000E+00 0.  1.
          4   -1    0    0  501    0  0.00000000000E+00 -0.00000000000E+00 -0.17855549511E+03  0.17855549511E+03  0.00000000000E+00 0. -1.
         23    2    1    2    0    0  0.00000000000E+00  0.00000000000E+00 -0.16851946196E+03  0.18859152826E+03  0.84663778998E+02 0.  0.
        -11    1    3    3    0    0  0.14781707262E+02 -0.37920698105E+02 -0.11019025249E+03  0.11746646312E+03  0.00000000000E+00 0. -1.
         11    1    3    3    0    0 -0.14781707262E+02  0.37920698105E+02 -0.58329209468E+02  0.71125065143E+02  0.00000000000E+00 0.  1.
<mgrwt>
<rscale>  0 0.84663779E+02</rscale>
<asrwt>0</asrwt>
<pdfrwt beam="2">  1        4 0.27470073E-01 0.84663779E+02</pdfrwt>
<pdfrwt beam="1">  1       -4 0.15440053E-02 0.84663779E+02</pdfrwt>
<totfact> 0.26642920E+04</totfact>
</mgrwt>
</event>
<event>
 5    1  0.6222456E+000  0.8548668E+02  0.7546771E-02  0.1314165E+00
          2   -1    0    0  501    0  0.00000000000E+00  0.00000000000E+00  0.11796952609E+03  0.11796952609E+03  0.00000000000E+00 0. -1.
         -2   -1    0    0    0  501 -0.00000000000E+00 -0.00000000000E+00 -0.15486992611E+02  0.15486992611E+02  0.00000000000E+00 0.  1.
         23    2    1    2    0    0  0.00000000000E+00  0.00000000000E+00  0.10248253348E+03  0.13345651870E+03  0.85486681509E+02 0.  0.
        -11    1    3    3    0    0  0.15490725453E+02 -0.25654242818E+02  0.98821172474E+02  0.10326532273E+03  0.00000000000E+00 0. -1.
         11    1    3    3    0    0 -0.15490725453E+02  0.25654242818E+02  0.36613610033E+01  0.30191195969E+02  0.00000000000E+00 0.  1.
<mgrwt>
<rscale>  0 0.85486682E+02</rscale>
<asrwt>0</asrwt>
<pdfrwt beam="1">  1        2 0.18149157E-01 0.85486682E+02</pdfrwt>
<pdfrwt beam="2">  1       -2 0.23826143E-02 0.85486682E+02</pdfrwt>
<totfact> 0.15391708E+05</totfact>
</mgrwt>
</event>
<event>
 5    1  0.6222456E+000  0.9287445E+02  0.7546771E-02  0.1296036E+00
         -2   -1    0    0    0  501 -0.00000000000E+00  0.00000000000E+00  0.47384053610E+02  0.47384053610E+02  0.00000000000E+00 0.  1.
          2   -1    0    0  501    0  0.00000000000E+00 -0.00000000000E+00 -0.45509314479E+02  0.45509314479E+02  0.00000000000E+00 0. -1.
         23    2    1    2    0    0  0.00000000000E+00  0.00000000000E+00  0.18747391308E+01  0.92893368089E+02  0.92874448521E+02 0.  0.
        -11    1    3    3    0    0  0.24747707152E+02 -0.18390230962E+02  0.35668587500E+02  0.47147616465E+02  0.00000000000E+00 0.  1.
         11    1    3    3    0    0 -0.24747707152E+02  0.18390230962E+02 -0.33793848369E+02  0.45745751624E+02  0.00000000000E+00 0. -1.
<mgrwt>
<rscale>  0 0.92874449E+02</rscale>
<asrwt>0</asrwt>
<pdfrwt beam="2">  1        2 0.70014330E-02 0.92874449E+02</pdfrwt>
<pdfrwt beam="1">  1       -2 0.72898544E-02 0.92874449E+02</pdfrwt>
<totfact> 0.93529867E+04</totfact>
</mgrwt>
</event>
<event>
 5    1  0.6222456E+000  0.9455784E+02  0.7546771E-02  0.1292175E+00
         -3   -1    0    0    0  501 -0.00000000000E+00  0.00000000000E+00  0.13420909324E+02  0.13420909324E+02  0.00000000000E+00 0.  1.
          3   -1    0    0  501    0  0.00000000000E+00 -0.00000000000E+00 -0.16655325345E+03  0.16655325345E+03  0.00000000000E+00 0. -1.
         23    2    1    2    0    0  0.00000000000E+00  0.00000000000E+00 -0.15313234412E+03  0.17997416277E+03  0.94557836525E+02 0.  0.
        -11    1    3    3    0    0 -0.15202112066E+01  0.35966089543E+02 -0.13490313302E+03  0.13962351498E+03  0.00000000000E+00 0. -1.
         11    1    3    3    0    0  0.15202112066E+01 -0.35966089543E+02 -0.18229211105E+02  0.40350647785E+02  0.00000000000E+00 0.  1.
<mgrwt>
<rscale>  0 0.94557837E+02</rscale>
<asrwt>0</asrwt>
<pdfrwt beam="2">  1        3 0.25623577E-01 0.94557837E+02</pdfrwt>
<pdfrwt beam="1">  1       -3 0.20647553E-02 0.94557837E+02</pdfrwt>
<totfact> 0.26788221E+04</totfact>
</mgrwt>
</event>
<event>
 5    1  0.6222456E+000  0.9222318E+02  0.7546771E-02  0.1297556E+00
          2   -1    0    0  501    0  0.00000000000E+00  0.00000000000E+00  0.49401749917E+02  0.49401749917E+02  0.00000000000E+00 0. -1.
         -2   -1    0    0    0  501 -0.00000000000E+00 -0.00000000000E+00 -0.43040557866E+02  0.43040557866E+02  0.00000000000E+00 0.  1.
         23    2    1    2    0    0  0.00000000000E+00  0.00000000000E+00  0.63611920516E+01  0.92442307783E+02  0.92223183115E+02 0.  0.
        -11    1    3    3    0    0  0.37442580379E+02 -0.18593224134E+02 -0.16323902058E+02  0.44878999405E+02  0.00000000000E+00 0.  1.
         11    1    3    3    0    0 -0.37442580379E+02  0.18593224134E+02  0.22685094110E+02  0.47563308379E+02  0.00000000000E+00 0. -1.
<mgrwt>
<rscale>  0 0.92223183E+02</rscale>
<asrwt>0</asrwt>
<pdfrwt beam="1">  1        2 0.76002692E-02 0.92223183E+02</pdfrwt>
<pdfrwt beam="2">  1       -2 0.66216243E-02 0.92223183E+02</pdfrwt>
<totfact> 0.97524023E+04</totfact>
</mgrwt>
</event>
<event>
 4    1  0.6222456E+000  0.4818571E+02  0.7546771E-02  0.1455380E+00
          1   -1    0    0  501    0  0.00000000000E+00  0.00000000000E+00  0.77768517501E+02  0.77768517501E+02  0.00000000000E+00 0. -1.
         -1   -1    0    0    0  501 -0.00000000000E+00 -0.00000000000E+00 -0.74640189887E+01  0.74640189887E+01  0.00000000000E+00 0.  1.
        -11    1    1    2    0    0  0.15363323000E+02 -0.17783997695E+02  0.44539315104E+02  0.50359238056E+02  0.00000000000E+00 0.  1.
         11    1    1    2    0    0 -0.15363323000E+02  0.17783997695E+02  0.25765183408E+02  0.34873298434E+02  0.00000000000E+00 0. -1.
<mgrwt>
<rscale>  0 0.48185711E+02</rscale>
<asrwt>0</asrwt>
<pdfrwt beam="1">  1        1 0.11964387E-01 0.48185711E+02</pdfrwt>
<pdfrwt beam="2">  1       -1 0.11483107E-02 0.48185711E+02</pdfrwt>
<totfact> 0.53699453E+05</totfact>
</mgrwt>
</event>
<event>
 5    1  0.6222456E+000  0.8835934E+02  0.7546771E-02  0.1306874E+00
          2   -1    0    0  501    0  0.00000000000E+00  0.00000000000E+00  0.76118104028E+02  0.76118104028E+02  0.00000000000E+00 0. -1.
         -2   -1    0    0    0  501 -0.00000000000E+00 -0.00000000000E+00 -0.25642299320E+02  0.25642299320E+02  0.00000000000E+00 0.  1.
         23    2    1    2    0    0  0.00000000000E+00  0.00000000000E+00  0.50475804708E+02  0.10176040335E+03  0.88359339227E+02 0.  0.
        -11    1    3    3    0    0 -0.29741814607E+02  0.32505038279E+02  0.21472439120E+02  0.49012434049E+02  0.00000000000E+00 0.  1.
         11    1    3    3    0    0  0.29741814607E+02 -0.32505038279E+02  0.29003365588E+02  0.52747969298E+02  0.00000000000E+00 0. -1.
<mgrwt>
<rscale>  0 0.88359339E+02</rscale>
<asrwt>0</asrwt>
<pdfrwt beam="1">  1        2 0.11710477E-01 0.88359339E+02</pdfrwt>
<pdfrwt beam="2">  1       -2 0.39449692E-02 0.88359339E+02</pdfrwt>
<totfact> 0.12355502E+05</totfact>
</mgrwt>
</event>
<event>
 5    1  0.6222456E+000  0.8641183E+02  0.7546771E-02  0.1311781E+00
         -2   -1    0    0    0  501 -0.00000000000E+00  0.00000000000E+00  0.13501704125E+02  0.13501704125E+02  0.00000000000E+00 0.  1.
          2   -1    0    0  501    0  0.00000000000E+00 -0.00000000000E+00 -0.13826039271E+03  0.13826039271E+03  0.00000000000E+00 0. -1.
         23    2    1    2    0    0  0.00000000000E+00  0.00000000000E+00 -0.12475868859E+03  0.15176209684E+03  0.86411825917E+02 0.  0.
        -11    1    3    3    0    0  0.26406625740E+02  0.24151220256E+02 -0.10489981606E+03  0.11083574663E+03  0.00000000000E+00 0. -1.
         11    1    3    3    0    0 -0.26406625740E+02 -0.24151220256E+02 -0.19858872530E+02  0.40926350204E+02  0.00000000000E+00 0.  1.
<mgrwt>
<rscale>  0 0.86411826E+02</rscale>
<asrwt>0</asrwt>
<pdfrwt beam="2">  1        2 0.21270830E-01 0.86411826E+02</pdfrwt>
<pdfrwt beam="1">  1       -2 0.20771852E-02 0.86411826E+02</pdfrwt>
<totfact> 0.15731852E+05</totfact>
</mgrwt>
</event>
<event>
 5    1  0.6222456E+000  0.1133412E+03  0.7546771E-02  0.1254505E+00
         -1   -1    0    0    0  501 -0.00000000000E+00  0.00000000000E+00  0.29990012015E+02  0.29990012015E+02  0.00000000000E+00 0.  1.
          1   -1    0    0  501    0  0.00000000000E+00 -0.00000000000E+00 -0.10708762487E+03  0.10708762487E+03  0.00000000000E+00 0. -1.
         23    2    1    2    0    0  0.00000000000E+00  0.00000000000E+00 -0.77097612858E+02  0.13707763689E+03  0.11334123974E+03 0.  0.
        -11    1    3    3    0    0 -0.14495072429E+02  0.46044885240E+02 -0.26445774616E+01  0.48344931187E+02  0.00000000000E+00 0.  1.
         11    1    3    3    0    0  0.14495072429E+02 -0.46044885240E+02 -0.74453035396E+02  0.88732705702E+02  0.00000000000E+00 0. -1.
<mgrwt>
<rscale>  0 0.11334124E+03</rscale>
<asrwt>0</asrwt>
<pdfrwt beam="2">  1        1 0.16475019E-01 0.11334124E+03</pdfrwt>
<pdfrwt beam="1">  1       -1 0.46138480E-02 0.11334124E+03</pdfrwt>
<totfact> 0.57936756E+04</totfact>
</mgrwt>
</event>
<event>
 5    1  0.6222456E+000  0.9070268E+02  0.7546771E-02  0.1301159E+00
          2   -1    0    0  501    0  0.00000000000E+00  0.00000000000E+00  0.43287832988E+02  0.43287832988E+02  0.00000000000E+00 0. -1.
         -2   -1    0    0    0  501 -0.00000000000E+00 -0.00000000000E+00 -0.47513213048E+02  0.47513213048E+02  0.00000000000E+00 0.  1.
         23    2    1    2    0    0  0.00000000000E+00  0.00000000000E+00 -0.42253800599E+01  0.90801046036E+02  0.90702679809E+02 0.  0.
        -11    1    3    3    0    0  0.38293361234E+02  0.20277346997E+02 -0.15513458277E+02  0.46024120888E+02  0.00000000000E+00 0. -1.
         11    1    3    3    0    0 -0.38293361234E+02 -0.20277346997E+02  0.11288078217E+02  0.44776925147E+02  0.00000000000E+00 0.  1.
<mgrwt>
<rscale>  0 0.90702680E+02</rscale>
<asrwt>0</asrwt>
<pdfrwt beam="1">  1        2 0.66596666E-02 0.90702680E+02</pdfrwt>
<pdfrwt beam="2">  1       -2 0.73097251E-02 0.90702680E+02</pdfrwt>
<totfact> 0.98830486E+04</totfact>
</mgrwt>
</event>
<event>
 5    1  0.6222456E+000  0.9217748E+02  0.7546771E-02  0.1297663E+00
          1   -1    0    0  501    0  0.00000000000E+00  0.00000000000E+00  0.16325884424E+02  0.16325884424E+02  0.00000000000E+00 0. -1.
         -1   -1    0    0    0  501 -0.00000000000E+00 -0.00000000000E+00 -0.13011068968E+03  0.13011068968E+03  0.00000000000E+00 0.  1.
         23    2    1    2    0    0  0.00000000000E+00  0.00000000000E+00 -0.11378480526E+03  0.14643657411E+03  0.92177482762E+02 0.  0.
        -11    1    3    3    0    0 -0.10727308863E+02 -0.26469146095E+02  0.57326608328E+00  0.28566054758E+02  0.00000000000E+00 0. -1.
         11    1    3    3    0    0  0.10727308863E+02  0.26469146095E+02 -0.11435807134E+03  0.11787051935E+03  0.00000000000E+00 0.  1.
<mgrwt>
<rscale>  0 0.92177483E+02</rscale>
<asrwt>0</asrwt>
<pdfrwt beam="1">  1        1 0.25116745E-02 0.92177483E+02</pdfrwt>
<pdfrwt beam="2">  1       -1 0.20017029E-01 0.92177483E+02</pdfrwt>
<totfact> 0.75056662E+04</totfact>
</mgrwt>
</event>
<event>
 5    1  0.6222456E+000  0.9116262E+02  0.7546771E-02  0.1300060E+00
          2   -1    0    0  501    0  0.00000000000E+00  0.00000000000E+00  0.22847243769E+03  0.22847243769E+03  0.00000000000E+00 0. -1.
         -2   -1    0    0    0  501 -0.00000000000E+00 -0.00000000000E+00 -0.90936820756E+01  0.90936820756E+01  0.00000000000E+00 0.  1.
         23    2    1    2    0    0  0.00000000000E+00  0.00000000000E+00  0.21937875561E+03  0.23756611976E+03  0.91162617588E+02 0.  0.
        -11    1    3    3    0    0  0.28343161298E+02 -0.32872131411E+02  0.73416523517E+02  0.85287148746E+02  0.00000000000E+00 0.  1.
         11    1    3    3    0    0 -0.28343161298E+02  0.32872131411E+02  0.14596223210E+03  0.15227897102E+03  0.00000000000E+00 0. -1.
<mgrwt>
<rscale>  0 0.91162618E+02</rscale>
<asrwt>0</asrwt>
<pdfrwt beam="1">  1        2 0.35149601E-01 0.91162618E+02</pdfrwt>
<pdfrwt beam="2">  1       -2 0.13990282E-02 0.91162618E+02</pdfrwt>
<totfact> 0.16244416E+05</totfact>
</mgrwt>
</event>
<event>
 5    1  0.6222456E+000  0.8493740E+02  0.7546771E-02  0.1315596E+00
         -3   -1    0    0    0  501 -0.00000000000E+00  0.00000000000E+00  0.19388691230E+03  0.19388691230E+03  0.00000000000E+00 0.  1.
          3   -1    0    0  501    0  0.00000000000E+00 -0.00000000000E+00 -0.93022806712E+01  0.93022806712E+01  0.00000000000E+00 0. -1.
         23    2    1    2    0    0  0.00000000000E+00  0.00000000000E+00  0.18458463163E+03  0.20318919297E+03  0.84937399930E+02 0.  0.
        -11    1    3    3    0    0 -0.34377248803E+02 -0.20108521633E+02  0.12756787918E+03  0.13364023225E+03  0.00000000000E+00 0.  1.
         11    1    3    3    0    0  0.34377248803E+02  0.20108521633E+02  0.57016752449E+02  0.69548960720E+02  0.00000000000E+00 0. -1.
<mgrwt>
<rscale>  0 0.84937400E+02</rscale>
<asrwt>0</asrwt>
<pdfrwt beam="2">  1        3 0.14311203E-02 0.84937400E+02</pdfrwt>
<pdfrwt beam="1">  1       -3 0.29828753E-01 0.84937400E+02</pdfrwt>
<totfact> 0.34268062E+04</totfact>
</mgrwt>
</event>
<event>
 5    1  0.6222456E+000  0.9297057E+02  0.7546771E-02  0.1295813E+00
          2   -1    0    0  501    0  0.00000000000E+00  0.00000000000E+00  0.46580277339E+03  0.46580277339E+03  0.00000000000E+00 0. -1.
         -2   -1    0    0    0  501 -0.00000000000E+00 -0.00000000000E+00 -0.46390481733E+01  0.46390481733E+01  0.00000000000E+00 0.  1.
         23    2    1    2    0    0  0.00000000000E+00  0.00000000000E+00  0.46116372521E+03  0.47044182156E+03  0.92970565342E+02 0.  0.
        -11    1    3    3    0    0  0.42044384132E+02 -0.18582126051E+02  0.19557702952E+03  0.20090644620E+03  0.00000000000E+00 0.  1.
         11    1    3    3    0    0 -0.42044384132E+02  0.18582126051E+02  0.26558669569E+03  0.26953537537E+03  0.00000000000E+00 0. -1.
<mgrwt>
<rscale>  0 0.92970565E+02</rscale>
<asrwt>0</asrwt>
<pdfrwt beam="1">  1        2 0.71661928E-01 0.92970565E+02</pdfrwt>
<pdfrwt beam="2">  1       -2 0.71370009E-03 0.92970565E+02</pdfrwt>
<totfact> 0.19989334E+05</totfact>
</mgrwt>
</event>
<event>
 5    1  0.6222456E+000  0.9082585E+02  0.7546771E-02  0.1300864E+00
          1   -1    0    0  501    0  0.00000000000E+00  0.00000000000E+00  0.32586526271E+03  0.32586526271E+03  0.00000000000E+00 0. -1.
         -1   -1    0    0    0  501 -0.00000000000E+00 -0.00000000000E+00 -0.63287929147E+01  0.63287929147E+01  0.00000000000E+00 0.  1.
         23    2    1    2    0    0  0.00000000000E+00  0.00000000000E+00  0.31953646979E+03  0.33219405562E+03  0.90825850192E+02 0.  0.
        -11    1    3    3    0    0  0.40334351039E+02 -0.40431472558E+01  0.23464638869E+03  0.23812210027E+03  0.00000000000E+00 0. -1.
         11    1    3    3    0    0 -0.40334351039E+02  0.40431472558E+01  0.84890081103E+02  0.94071955349E+02  0.00000000000E+00 0.  1.
<mgrwt>
<rscale>  0 0.90825850E+02</rscale>
<asrwt>0</asrwt>
<pdfrwt beam="1">  1        1 0.50133104E-01 0.90825850E+02</pdfrwt>
<pdfrwt beam="2">  1       -1 0.97366070E-03 0.90825850E+02</pdfrwt>
<totfact> 0.13147215E+05</totfact>
</mgrwt>
</event>
<event>
 5    1  0.6222456E+000  0.9111392E+02  0.7546771E-02  0.1300176E+00
          1   -1    0    0  501    0  0.00000000000E+00  0.00000000000E+00  0.11690256139E+02  0.11690256139E+02  0.00000000000E+00 0. -1.
         -1   -1    0    0    0  501 -0.00000000000E+00 -0.00000000000E+00 -0.17753560137E+03  0.17753560137E+03  0.00000000000E+00 0.  1.
         23    2    1    2    0    0  0.00000000000E+00  0.00000000000E+00 -0.16584534523E+03  0.18922585751E+03  0.91113921085E+02 0.  0.
        -11    1    3    3    0    0  0.24105678295E+02 -0.34532308798E+02 -0.46839262361E+02  0.62987939921E+02  0.00000000000E+00 0. -1.
         11    1    3    3    0    0 -0.24105678295E+02  0.34532308798E+02 -0.11900608287E+03  0.12623791759E+03  0.00000000000E+00 0.  1.
<mgrwt>
<rscale>  0 0.91113921E+02</rscale>
<asrwt>0</asrwt>
<pdfrwt beam="1">  1        1 0.17985010E-02 0.91113921E+02</pdfrwt>
<pdfrwt beam="2">  1       -1 0.27313168E-01 0.91113921E+02</pdfrwt>
<totfact> 0.71859031E+04</totfact>
</mgrwt>
</event>
<event>
 5    1  0.6222456E+000  0.9199668E+02  0.7546771E-02  0.1298087E+00
          2   -1    0    0  501    0  0.00000000000E+00  0.00000000000E+00  0.44364186434E+02  0.44364186434E+02  0.00000000000E+00 0. -1.
         -2   -1    0    0    0  501 -0.00000000000E+00 -0.00000000000E+00 -0.47692686925E+02  0.47692686925E+02  0.00000000000E+00 0.  1.
         23    2    1    2    0    0  0.00000000000E+00  0.00000000000E+00 -0.33285004908E+01  0.92056873358E+02  0.91996679380E+02 0.  0.
        -11    1    3    3    0    0  0.24035020359E+02  0.37378246191E+01 -0.40730718583E+02  0.47440963026E+02  0.00000000000E+00 0.  1.
         11    1    3    3    0    0 -0.24035020359E+02 -0.37378246191E+01  0.37402218092E+02  0.44615910332E+02  0.00000000000E+00 0. -1.
<mgrwt>
<rscale>  0 0.91996679E+02</rscale>
<asrwt>0</asrwt>
<pdfrwt beam="1">  1        2 0.68252595E-02 0.91996679E+02</pdfrwt>
<pdfrwt beam="2">  1       -2 0.73373364E-02 0.91996679E+02</pdfrwt>
<totfact> 0.95486164E+04</totfact>
</mgrwt>
</event>
<event>
 5    1  0.6222456E+000  0.9653842E+02  0.7546771E-02  0.1287748E+00
         -3   -1    0    0    0  501 -0.00000000000E+00  0.00000000000E+00  0.23788484948E+03  0.23788484948E+03  0.00000000000E+00 0.  1.
          3   -1    0    0  501    0  0.00000000000E+00 -0.00000000000E+00 -0.97943046157E+01  0.97943046157E+01  0.00000000000E+00 0. -1.
         23    2    1    2    0    0  0.00000000000E+00  0.00000000000E+00  0.22809054487E+03  0.24767915410E+03  0.96538420938E+02 0.  0.
        -11    1    3    3    0    0  0.42573199049E+02 -0.29736540583E+01  0.17190495805E+03  0.17712321841E+03  0.00000000000E+00 0.  1.
         11    1    3    3    0    0 -0.42573199049E+02  0.29736540583E+01  0.56185586816E+02  0.70555935693E+02  0.00000000000E+00 0. -1.
<mgrwt>
<rscale>  0 0.96538421E+02</rscale>
<asrwt>0</asrwt>
<pdfrwt beam="2">  1        3 0.15068163E-02 0.96538421E+02</pdfrwt>
<pdfrwt beam="1">  1       -3 0.36597665E-01 0.96538421E+02</pdfrwt>
<totfact> 0.22453371E+04</totfact>
</mgrwt>
</event>
<event>
 5    1  0.6222456E+000  0.9068414E+02  0.7546771E-02  0.1301203E+00
          1   -1    0    0  501    0  0.00000000000E+00  0.00000000000E+00  0.10351347859E+02  0.10351347859E+02  0.00000000000E+00 0. -1.
         -1   -1    0    0    0  501 -0.00000000000E+00 -0.00000000000E+00 -0.19861211834E+03  0.19861211834E+03  0.00000000000E+00 0.  1.
         23    2    1    2    0    0  0.00000000000E+00  0.00000000000E+00 -0.18826077048E+03  0.20896346620E+03  0.90684135898E+02 0.  0.
        -11    1    3    3    0    0 -0.15284867299E+02 -0.33919669411E+02 -0.15385275862E+03  0.15828721514E+03  0.00000000000E+00 0.  1.
         11    1    3    3    0    0  0.15284867299E+02  0.33919669411E+02 -0.34408011863E+02  0.50676251061E+02  0.00000000000E+00 0. -1.
<mgrwt>
<rscale>  0 0.90684136E+02</rscale>
<asrwt>0</asrwt>
<pdfrwt beam="1">  1        1 0.15925151E-02 0.90684136E+02</pdfrwt>
<pdfrwt beam="2">  1       -1 0.30555709E-01 0.90684136E+02</pdfrwt>
<totfact> 0.70551092E+04</totfact>
</mgrwt>
</event>
<event>
 5    1  0.6222456E+000  0.9428459E+02  0.7546771E-02  0.1292796E+00
         -1   -1    0    0    0  501 -0.00000000000E+00  0.00000000000E+00  0.59821525847E+02  0.59821525847E+02  0.00000000000E+00 0.  1.
          1   -1    0    0  501    0  0.00000000000E+00 -0.00000000000E+00 -0.37150440464E+02  0.37150440464E+02  0.00000000000E+00 0. -1.
         23    2    1    2    0    0  0.00000000000E+00  0.00000000000E+00  0.22671085382E+02  0.96971966311E+02  0.94284591200E+02 0.  0.
        -11    1    3    3    0    0 -0.33435119488E+02 -0.32848974117E+02  0.16522472981E+02  0.49698636090E+02  0.00000000000E+00 0.  1.
         11    1    3    3    0    0  0.33435119488E+02  0.32848974117E+02  0.61486124012E+01  0.47273330221E+02  0.00000000000E+00 0. -1.
<mgrwt>
<rscale>  0 0.94284591E+02</rscale>
<asrwt>0</asrwt>
<pdfrwt beam="2">  1        1 0.57154524E-02 0.94284591E+02</pdfrwt>
<pdfrwt beam="1">  1       -1 0.92033116E-02 0.94284591E+02</pdfrwt>
<totfact> 0.81487542E+04</totfact>
</mgrwt>
</event>
<event>
 5    1  0.6222456E+000  0.8826496E+02  0.7546771E-02  0.1307109E+00
         -1   -1    0    0    0  501 -0.00000000000E+00  0.00000000000E+00  0.48674736235E+02  0.48674736235E+02  0.00000000000E+00 0.  1.
          1   -1    0    0  501    0  0.00000000000E+00 -0.00000000000E+00 -0.40014099811E+02  0.40014099811E+02  0.00000000000E+00 0. -1.
         23    2    1    2    0    0  0.00000000000E+00  0.00000000000E+00  0.86606364240E+01  0.88688836047E+02  0.88264959163E+02 0.  0.
        -11    1    3    3    0    0 -0.13757450174E+02 -0.38149028891E+02  0.21822536084E+02  0.46052566940E+02  0.00000000000E+00 0.  1.
         11    1    3    3    0    0  0.13757450174E+02  0.38149028891E+02 -0.13161899660E+02  0.42636269106E+02  0.00000000000E+00 0. -1.
<mgrwt>
<rscale>  0 0.88264959E+02</rscale>
<asrwt>0</asrwt>
<pdfrwt beam="2">  1        1 0.61560154E-02 0.88264959E+02</pdfrwt>
<pdfrwt beam="1">  1       -1 0.74884209E-02 0.88264959E+02</pdfrwt>
<totfact> 0.99341424E+04</totfact>
</mgrwt>
</event>
<event>
 5    1  0.6222456E+000  0.9209038E+02  0.7546771E-02  0.1297867E+00
          2   -1    0    0  501    0  0.00000000000E+00  0.00000000000E+00  0.32214809592E+02  0.32214809592E+02  0.00000000000E+00 0. -1.
         -2   -1    0    0    0  501 -0.00000000000E+00 -0.00000000000E+00 -0.65813196685E+02  0.65813196685E+02  0.00000000000E+00 0.  1.
         23    2    1    2    0    0  0.00000000000E+00  0.00000000000E+00 -0.33598387092E+02  0.98028006277E+02  0.92090381688E+02 0.  0.
        -11    1    3    3    0    0  0.12558357081E+02 -0.40949289568E+01 -0.63753072179E+02  0.65107103975E+02  0.00000000000E+00 0.  1.
         11    1    3    3    0    0 -0.12558357081E+02  0.40949289568E+01  0.30154685087E+02  0.32920902302E+02  0.00000000000E+00 0. -1.
<mgrwt>
<rscale>  0 0.92090382E+02</rscale>
<asrwt>0</asrwt>
<pdfrwt beam="1">  1        2 0.49561246E-02 0.92090382E+02</pdfrwt>
<pdfrwt beam="2">  1       -2 0.10125107E-01 0.92090382E+02</pdfrwt>
<totfact> 0.87536722E+04</totfact>
</mgrwt>
</event>
<event>
 5    1  0.6222456E+000  0.9307930E+02  0.7546771E-02  0.1295562E+00
          2   -1    0    0  501    0  0.00000000000E+00  0.00000000000E+00  0.15695148909E+03  0.15695148909E+03  0.00000000000E+00 0. -1.
         -2   -1    0    0    0  501 -0.00000000000E+00 -0.00000000000E+00 -0.13800054032E+02  0.13800054032E+02  0.00000000000E+00 0.  1.
         23    2    1    2    0    0  0.00000000000E+00  0.00000000000E+00  0.14315143506E+03  0.17075154312E+03  0.93079300163E+02 0.  0.
        -11    1    3    3    0    0 -0.10761825117E+02  0.45163436028E+02  0.65663644567E+02  0.80419320138E+02  0.00000000000E+00 0.  1.
         11    1    3    3    0    0  0.10761825117E+02 -0.45163436028E+02  0.77487790488E+02  0.90332222980E+02  0.00000000000E+00 0. -1.
<mgrwt>
<rscale>  0 0.93079300E+02</rscale>
<asrwt>0</asrwt>
<pdfrwt beam="1">  1        2 0.24146382E-01 0.93079300E+02</pdfrwt>
<pdfrwt beam="2">  1       -2 0.21230853E-02 0.93079300E+02</pdfrwt>
<totfact> 0.13424678E+05</totfact>
</mgrwt>
</event>
<event>
 5    1  0.6222456E+000  0.8451238E+02  0.7546771E-02  0.1316713E+00
         -3   -1    0    0    0  501 -0.00000000000E+00  0.00000000000E+00  0.18037696899E+02  0.18037696899E+02  0.00000000000E+00 0.  1.
          3   -1    0    0  501    0  0.00000000000E+00 -0.00000000000E+00 -0.98991885554E+02  0.98991885554E+02  0.00000000000E+00 0. -1.
         23    2    1    2    0    0  0.00000000000E+00  0.00000000000E+00 -0.80954188655E+02  0.11702958245E+03  0.84512380800E+02 0.  0.
        -11    1    3    3    0    0 -0.13330791321E+02 -0.11249461249E+02  0.12819631784E+02  0.21647247740E+02  0.00000000000E+00 0.  1.
         11    1    3    3    0    0  0.13330791321E+02  0.11249461249E+02 -0.93773820439E+02  0.95382334714E+02  0.00000000000E+00 0. -1.
<mgrwt>
<rscale>  0 0.84512381E+02</rscale>
<asrwt>0</asrwt>
<pdfrwt beam="2">  1        3 0.15229521E-01 0.84512381E+02</pdfrwt>
<pdfrwt beam="1">  1       -3 0.27750303E-02 0.84512381E+02</pdfrwt>
<totfact> 0.41061083E+04</totfact>
</mgrwt>
</event>
<event>
 5    1  0.6222456E+000  0.9129343E+02  0.7546771E-02  0.1299749E+00
         -2   -1    0    0    0  501 -0.00000000000E+00  0.00000000000E+00  0.92368251022E+02  0.92368251022E+02  0.00000000000E+00 0.  1.
          2   -1    0    0  501    0  0.00000000000E+00 -0.00000000000E+00 -0.22557779579E+02  0.22557779579E+02  0.00000000000E+00 0. -1.
         23    2    1    2    0    0  0.00000000000E+00  0.00000000000E+00  0.69810471443E+02  0.11492603060E+03  0.91293431234E+02 0.  0.
        -11    1    3    3    0    0 -0.45383201733E+02 -0.42927414272E+00  0.28763401249E+02  0.53732229874E+02  0.00000000000E+00 0.  1.
         11    1    3    3    0    0  0.45383201733E+02  0.42927414272E+00  0.41047070194E+02  0.61193800726E+02  0.00000000000E+00 0. -1.
<mgrwt>
<rscale>  0 0.91293431E+02</rscale>
<asrwt>0</asrwt>
<pdfrwt beam="2">  1        2 0.34704277E-02 0.91293431E+02</pdfrwt>
<pdfrwt beam="1">  1       -2 0.14210500E-01 0.91293431E+02</pdfrwt>
<totfact> 0.81431783E+04</totfact>
</mgrwt>
</event>
<event>
 5    1  0.6222456E+000  0.9069092E+02  0.7546771E-02  0.1301187E+00
          1   -1    0    0  501    0  0.00000000000E+00  0.00000000000E+00  0.18023880681E+02  0.18023880681E+02  0.00000000000E+00 0. -1.
         -1   -1    0    0    0  501 -0.00000000000E+00 -0.00000000000E+00 -0.11408257590E+03  0.11408257590E+03  0.00000000000E+00 0.  1.
         23    2    1    2    0    0  0.00000000000E+00  0.00000000000E+00 -0.96058695222E+02  0.13210645658E+03  0.90690919852E+02 0.  0.
        -11    1    3    3    0    0 -0.34167342436E+01  0.38762880789E+02 -0.81941094255E+02  0.90711509345E+02  0.00000000000E+00 0. -1.
         11    1    3    3    0    0  0.34167342436E+01 -0.38762880789E+02 -0.14117600967E+02  0.41394947240E+02  0.00000000000E+00 0.  1.
<mgrwt>
<rscale>  0 0.90690920E+02</rscale>
<asrwt>0</asrwt>
<pdfrwt beam="1">  1        1 0.27729047E-02 0.90690920E+02</pdfrwt>
<pdfrwt beam="2">  1       -1 0.17551166E-01 0.90690920E+02</pdfrwt>
<totfact> 0.80437544E+04</totfact>
</mgrwt>
</event>
<event>
 5    1  0.6222456E+000  0.9601627E+02  0.7546771E-02  0.1288903E+00
         -2   -1    0    0    0  501 -0.00000000000E+00  0.00000000000E+00  0.18305938119E+03  0.18305938119E+03  0.00000000000E+00 0.  1.
          2   -1    0    0  501    0  0.00000000000E+00 -0.00000000000E+00 -0.12590346145E+02  0.12590346145E+02  0.00000000000E+00 0. -1.
         23    2    1    2    0    0  0.00000000000E+00  0.00000000000E+00  0.17046903505E+03  0.19564972734E+03  0.96016268919E+02 0.  0.
        -11    1    3    3    0    0  0.31559802441E+02  0.26698637715E+02  0.35490983934E+02  0.54483468379E+02  0.00000000000E+00 0.  1.
         11    1    3    3    0    0 -0.31559802441E+02 -0.26698637715E+02  0.13497805111E+03  0.14116625896E+03  0.00000000000E+00 0. -1.
<mgrwt>
<rscale>  0 0.96016269E+02</rscale>
<asrwt>0</asrwt>
<pdfrwt beam="2">  1        2 0.19369765E-02 0.96016269E+02</pdfrwt>
<pdfrwt beam="1">  1       -2 0.28162980E-01 0.96016269E+02</pdfrwt>
<totfact> 0.56693102E+04</totfact>
</mgrwt>
</event>
<event>
 5    1  0.6222456E+000  0.9191856E+02  0.7546771E-02  0.1298271E+00
         -4   -1    0    0    0  501 -0.00000000000E+00  0.00000000000E+00  0.21063401246E+02  0.21063401246E+02  0.00000000000E+00 0.  1.
          4   -1    0    0  501    0  0.00000000000E+00 -0.00000000000E+00 -0.10028083310E+03  0.10028083310E+03  0.00000000000E+00 0. -1.
         23    2    1    2    0    0  0.00000000000E+00  0.00000000000E+00 -0.79217431854E+02  0.12134423435E+03  0.91918560146E+02 0.  0.
        -11    1    3    3    0    0 -0.24029550403E+02  0.28907216556E+02 -0.74516270563E+02  0.83460895275E+02  0.00000000000E+00 0. -1.
         11    1    3    3    0    0  0.24029550403E+02 -0.28907216556E+02 -0.47011612913E+01  0.37883339070E+02  0.00000000000E+00 0.  1.
<mgrwt>
<rscale>  0 0.91918560E+02</rscale>
<asrwt>0</asrwt>
<pdfrwt beam="2">  1        4 0.15427821E-01 0.91918560E+02</pdfrwt>
<pdfrwt beam="1">  1       -4 0.32405232E-02 0.91918560E+02</pdfrwt>
<totfact> 0.24649912E+04</totfact>
</mgrwt>
</event>
<event>
 5    1  0.6222456E+000  0.8762880E+02  0.7546771E-02  0.1308698E+00
          2   -1    0    0  501    0  0.00000000000E+00  0.00000000000E+00  0.31799613965E+02  0.31799613965E+02  0.00000000000E+00 0. -1.
         -2   -1    0    0    0  501 -0.00000000000E+00 -0.00000000000E+00 -0.60368709325E+02  0.60368709325E+02  0.00000000000E+00 0.  1.
         23    2    1    2    0    0  0.00000000000E+00  0.00000000000E+00 -0.28569095361E+02  0.92168323290E+02  0.87628800108E+02 0.  0.
        -11    1    3    3    0    0 -0.41983354466E+02  0.62033852914E+01 -0.28291701143E+01  0.42533378009E+02  0.00000000000E+00 0. -1.
         11    1    3    3    0    0  0.41983354466E+02 -0.62033852914E+01 -0.25739925246E+02  0.49634945281E+02  0.00000000000E+00 0.  1.
<mgrwt>
<rscale>  0 0.87628800E+02</rscale>
<asrwt>0</asrwt>
<pdfrwt beam="1">  1        2 0.48922483E-02 0.87628800E+02</pdfrwt>
<pdfrwt beam="2">  1       -2 0.92874937E-02 0.87628800E+02</pdfrwt>
<totfact> 0.10094955E+05</totfact>
</mgrwt>
</event>
<event>
 5    1  0.6222456E+000  0.9028297E+02  0.7546771E-02  0.1302168E+00
         -4   -1    0    0    0  501 -0.00000000000E+00  0.00000000000E+00  0.10104425637E+03  0.10104425637E+03  0.00000000000E+00 0.  1.
          4   -1    0    0  501    0  0.00000000000E+00 -0.00000000000E+00 -0.20166940611E+02  0.20166940611E+02  0.00000000000E+00 0. -1.
         23    2    1    2    0    0  0.00000000000E+00  0.00000000000E+00  0.80877315763E+02  0.12121119698E+03  0.90282966663E+02 0.  0.
        -11    1    3    3    0    0  0.23033533659E+01  0.41044170049E+02  0.15399667859E+02  0.43898509108E+02  0.00000000000E+00 0. -1.
         11    1    3    3    0    0 -0.23033533659E+01 -0.41044170049E+02  0.65477647904E+02  0.77312687877E+02  0.00000000000E+00 0.  1.
<mgrwt>
<rscale>  0 0.90282967E+02</rscale>
<asrwt>0</asrwt>
<pdfrwt beam="2">  1        4 0.31026063E-02 0.90282967E+02</pdfrwt>
<pdfrwt beam="1">  1       -4 0.15545270E-01 0.90282967E+02</pdfrwt>
<totfact> 0.25882534E+04</totfact>
</mgrwt>
</event>
<event>
 5    1  0.6222456E+000  0.9125889E+02  0.7546771E-02  0.1299831E+00
         -1   -1    0    0    0  501 -0.00000000000E+00  0.00000000000E+00  0.94058270395E+02  0.94058270395E+02  0.00000000000E+00 0.  1.
          1   -1    0    0  501    0  0.00000000000E+00 -0.00000000000E+00 -0.22135707779E+02  0.22135707779E+02  0.00000000000E+00 0. -1.
         23    2    1    2    0    0  0.00000000000E+00  0.00000000000E+00  0.71922562616E+02  0.11619397817E+03  0.91258892995E+02 0.  0.
        -11    1    3    3    0    0 -0.32014586837E+02  0.26799179183E+02  0.59401132658E+02  0.72605952485E+02  0.00000000000E+00 0. -1.
         11    1    3    3    0    0  0.32014586837E+02 -0.26799179183E+02  0.12521429957E+02  0.43588025688E+02  0.00000000000E+00 0.  1.
<mgrwt>
<rscale>  0 0.91258893E+02</rscale>
<asrwt>0</asrwt>
<pdfrwt beam="2">  1        1 0.34054936E-02 0.91258893E+02</pdfrwt>
<pdfrwt beam="1">  1       -1 0.14470503E-01 0.91258893E+02</pdfrwt>
<totfact> 0.82099303E+04</totfact>
</mgrwt>
</event>
<event>
 5    1  0.6222456E+000  0.9086437E+02  0.7546771E-02  0.1300772E+00
          2   -1    0    0  501    0  0.00000000000E+00  0.00000000000E+00  0.60690394596E+02  0.60690394596E+02  0.00000000000E+00 0.  1.
         -2   -1    0    0    0  501 -0.00000000000E+00 -0.00000000000E+00 -0.34010053055E+02  0.34010053055E+02  0.00000000000E+00 0. -1.
         23    2    1    2    0    0  0.00000000000E+00  0.00000000000E+00  0.26680341541E+02  0.94700447651E+02  0.90864372339E+02 0.  0.
        -11    1    3    3    0    0  0.17100499319E+02  0.41117248426E+02  0.39585713467E+01  0.44707107736E+02  0.00000000000E+00 0.  1.
         11    1    3    3    0    0 -0.17100499319E+02 -0.41117248426E+02  0.22721770194E+02  0.49993339915E+02  0.00000000000E+00 0. -1.
<mgrwt>
<rscale>  0 0.90864372E+02</rscale>
<asrwt>0</asrwt>
<pdfrwt beam="1">  1        2 0.93369837E-02 0.90864372E+02</pdfrwt>
<pdfrwt beam="2">  1       -2 0.52323159E-02 0.90864372E+02</pdfrwt>
<totfact> 0.10742995E+05</totfact>
</mgrwt>
</event>
<event>
 5    1  0.6222456E+000  0.9029473E+02  0.7546771E-02  0.1302140E+00
         -1   -1    0    0    0  501 -0.00000000000E+00  0.00000000000E+00  0.23167729912E+03  0.23167729912E+03  0.00000000000E+00 0.  1.
          1   -1    0    0  501    0  0.00000000000E+00 -0.00000000000E+00 -0.87979474048E+01  0.87979474048E+01  0.00000000000E+00 0. -1.
         23    2    1    2    0    0  0.00000000000E+00  0.00000000000E+00  0.22287935172E+03  0.24047524653E+03  0.90294732794E+02 0.  0.
        -11    1    3    3    0    0  0.84145999053E+01 -0.31308366783E+02  0.19512030051E+03  0.19779522490E+03  0.00000000000E+00 0.  1.
         11    1    3    3    0    0 -0.84145999053E+01  0.31308366783E+02  0.27759051208E+02  0.42680021628E+02  0.00000000000E+00 0. -1.
<mgrwt>
<rscale>  0 0.90294733E+02</rscale>
<asrwt>0</asrwt>
<pdfrwt beam="2">  1        1 0.13535305E-02 0.90294733E+02</pdfrwt>
<pdfrwt beam="1">  1       -1 0.35642657E-01 0.90294733E+02</pdfrwt>
<totfact> 0.68111886E+04</totfact>
</mgrwt>
</event>
<event>
 5    1  0.6222456E+000  0.8827425E+02  0.7546771E-02  0.1307085E+00
         -1   -1    0    0    0  501 -0.00000000000E+00  0.00000000000E+00  0.11411453222E+03  0.11411453222E+03  0.00000000000E+00 0. -1.
          1   -1    0    0  501    0  0.00000000000E+00 -0.00000000000E+00 -0.17071322031E+02  0.17071322031E+02  0.00000000000E+00 0.  1.
         23    2    1    2    0    0  0.00000000000E+00  0.00000000000E+00  0.97043210188E+02  0.13118585425E+03  0.88274252824E+02 0.  0.
        -11    1    3    3    0    0  0.25727543247E+02  0.30694819113E+01 -0.45799457408E+01  0.26311672386E+02  0.00000000000E+00 0.  1.
         11    1    3    3    0    0 -0.25727543247E+02 -0.30694819113E+01  0.10162315593E+03  0.10487418186E+03  0.00000000000E+00 0. -1.
<mgrwt>
<rscale>  0 0.88274253E+02</rscale>
<asrwt>0</asrwt>
<pdfrwt beam="2">  1        1 0.26263573E-02 0.88274253E+02</pdfrwt>
<pdfrwt beam="1">  1       -1 0.17556081E-01 0.88274253E+02</pdfrwt>
<totfact> 0.86233487E+04</totfact>
</mgrwt>
</event>
<event>
 5    1  0.6222456E+000  0.9449925E+02  0.7546771E-02  0.1292308E+00
         -2   -1    0    0    0  501 -0.00000000000E+00  0.00000000000E+00  0.14775560509E+02  0.14775560509E+02  0.00000000000E+00 0. -1.
          2   -1    0    0  501    0  0.00000000000E+00 -0.00000000000E+00 -0.15109594484E+03  0.15109594484E+03  0.00000000000E+00 0.  1.
         23    2    1    2    0    0  0.00000000000E+00  0.00000000000E+00 -0.13632038434E+03  0.16587150535E+03  0.94499254510E+02 0.  0.
        -11    1    3    3    0    0  0.28971344038E+02 -0.25047456559E+02 -0.11673430642E+03  0.12285606274E+03  0.00000000000E+00 0.  1.
         11    1    3    3    0    0 -0.28971344038E+02  0.25047456559E+02 -0.19586077913E+02  0.43015442616E+02  0.00000000000E+00 0. -1.
<mgrwt>
<rscale>  0 0.94499255E+02</rscale>
<asrwt>0</asrwt>
<pdfrwt beam="2">  1        2 0.23245531E-01 0.94499255E+02</pdfrwt>
<pdfrwt beam="1">  1       -2 0.22731631E-02 0.94499255E+02</pdfrwt>
<totfact> 0.12714622E+05</totfact>
</mgrwt>
</event>
<event>
 5    1  0.6222456E+000  0.7441474E+02  0.7546771E-02  0.1345693E+00
         -2   -1    0    0    0  501 -0.00000000000E+00  0.00000000000E+00  0.15955879961E+02  0.15955879961E+02  0.00000000000E+00 0.  1.
          2   -1    0    0  501    0  0.00000000000E+00 -0.00000000000E+00 -0.86763531717E+02  0.86763531717E+02  0.00000000000E+00 0. -1.
         23    2    1    2    0    0  0.00000000000E+00  0.00000000000E+00 -0.70807651757E+02  0.10271941168E+03  0.74414743083E+02 0.  0.
        -11    1    3    3    0    0  0.37010626589E+02 -0.37798064160E+01 -0.34629000288E+02  0.50825594714E+02  0.00000000000E+00 0.  1.
         11    1    3    3    0    0 -0.37010626589E+02  0.37798064160E+01 -0.36178651469E+02  0.51893816965E+02  0.00000000000E+00 0. -1.
<mgrwt>
<rscale>  0 0.74414743E+02</rscale>
<asrwt>0</asrwt>
<pdfrwt beam="2">  1        2 0.13348236E-01 0.74414743E+02</pdfrwt>
<pdfrwt beam="1">  1       -2 0.24547508E-02 0.74414743E+02</pdfrwt>
<totfact> 0.20457644E+05</totfact>
</mgrwt>
</event>
<event>
 5    1  0.6222456E+000  0.9111329E+02  0.7546771E-02  0.1300178E+00
          4   -1    0    0  501    0  0.00000000000E+00  0.00000000000E+00  0.88871225057E+01  0.88871225057E+01  0.00000000000E+00 0. -1.
         -4   -1    0    0    0  501 -0.00000000000E+00 -0.00000000000E+00 -0.23352980226E+03  0.23352980226E+03  0.00000000000E+00 0.  1.
         23    2    1    2    0    0  0.00000000000E+00  0.00000000000E+00 -0.22464267976E+03  0.24241692477E+03  0.91113291269E+02 0.  0.
        -11    1    3    3    0    0 -0.36338050305E+01 -0.44689524186E+02 -0.13378008661E+03  0.14109383291E+03  0.00000000000E+00 0. -1.
         11    1    3    3    0    0  0.36338050305E+01  0.44689524186E+02 -0.90862593150E+02  0.10132309186E+03  0.00000000000E+00 0.  1.
<mgrwt>
<rscale>  0 0.91113291E+02</rscale>
<asrwt>0</asrwt>
<pdfrwt beam="1">  1        4 0.13672495E-02 0.91113291E+02</pdfrwt>
<pdfrwt beam="2">  1       -4 0.35927664E-01 0.91113291E+02</pdfrwt>
<totfact> 0.19772388E+04</totfact>
</mgrwt>
</event>
<event>
 5    1  0.6222456E+000  0.9080362E+02  0.7546771E-02  0.1300917E+00
          1   -1    0    0  501    0  0.00000000000E+00  0.00000000000E+00  0.17001909492E+03  0.17001909492E+03  0.00000000000E+00 0. -1.
         -1   -1    0    0    0  501 -0.00000000000E+00 -0.00000000000E+00 -0.12124074370E+02  0.12124074370E+02  0.00000000000E+00 0.  1.
         23    2    1    2    0    0  0.00000000000E+00  0.00000000000E+00  0.15789502055E+03  0.18214316929E+03  0.90803615591E+02 0.  0.
        -11    1    3    3    0    0  0.24537435743E+02  0.28112633747E+02  0.13082706751E+03  0.13604457917E+03  0.00000000000E+00 0. -1.
         11    1    3    3    0    0 -0.24537435743E+02 -0.28112633747E+02  0.27067953040E+02  0.46098590117E+02  0.00000000000E+00 0.  1.
<mgrwt>
<rscale>  0 0.90803616E+02</rscale>
<asrwt>0</asrwt>
<pdfrwt beam="1">  1        1 0.26156782E-01 0.90803616E+02</pdfrwt>
<pdfrwt beam="2">  1       -1 0.18652423E-02 0.90803616E+02</pdfrwt>
<totfact> 0.11605096E+05</totfact>
</mgrwt>
</event>
<event>
 5    1  0.6222456E+000  0.9289127E+02  0.7546771E-02  0.1295997E+00
          2   -1    0    0  501    0  0.00000000000E+00  0.00000000000E+00  0.28462614830E+02  0.28462614830E+02  0.00000000000E+00 0. -1.
         -2   -1    0    0    0  501 -0.00000000000E+00 -0.00000000000E+00 -0.75790542682E+02  0.75790542682E+02  0.00000000000E+00 0.  1.
         23    2    1    2    0    0  0.00000000000E+00  0.00000000000E+00 -0.47327927852E+02  0.10425315751E+03  0.92891270291E+02 0.  0.
        -11    1    3    3    0    0  0.18347825831E+02 -0.27826544020E+02 -0.59965876817E+02  0.68606600610E+02  0.00000000000E+00 0.  1.
         11    1    3    3    0    0 -0.18347825831E+02  0.27826544020E+02  0.12637948965E+02  0.35646556901E+02  0.00000000000E+00 0. -1.
<mgrwt>
<rscale>  0 0.92891270E+02</rscale>
<asrwt>0</asrwt>
<pdfrwt beam="1">  1        2 0.43788639E-02 0.92891270E+02</pdfrwt>
<pdfrwt beam="2">  1       -2 0.11660083E-01 0.92891270E+02</pdfrwt>
<totfact> 0.82496686E+04</totfact>
</mgrwt>
</event>
<event>
 5    1  0.6222456E+000  0.9081000E+02  0.7546771E-02  0.1300902E+00
          2   -1    0    0  501    0  0.00000000000E+00  0.00000000000E+00  0.21827745091E+03  0.21827745091E+03  0.00000000000E+00 0. -1.
         -2   -1    0    0    0  501 -0.00000000000E+00 -0.00000000000E+00 -0.94449243228E+01  0.94449243228E+01  0.00000000000E+00 0.  1.
         23    2    1    2    0    0  0.00000000000E+00  0.00000000000E+00  0.20883252658E+03  0.22772237523E+03  0.90809999564E+02 0.  0.
        -11    1    3    3    0    0 -0.47055748597E+01 -0.44647884353E+02  0.87401331059E+02  0.98257664754E+02  0.00000000000E+00 0.  1.
         11    1    3    3    0    0  0.47055748597E+01  0.44647884353E+02  0.12143119552E+03  0.12946471047E+03  0.00000000000E+00 0. -1.
<mgrwt>
<rscale>  0 0.90810000E+02</rscale>
<asrwt>0</asrwt>
<pdfrwt beam="1">  1        2 0.33581142E-01 0.90810000E+02</pdfrwt>
<pdfrwt beam="2">  1       -2 0.14530654E-02 0.90810000E+02</pdfrwt>
<totfact> 0.16141836E+05</totfact>
</mgrwt>
</event>
<event>
 5    1  0.6222456E+000  0.9075541E+02  0.7546771E-02  0.1301033E+00
          2   -1    0    0  501    0  0.00000000000E+00  0.00000000000E+00  0.18981727223E+02  0.18981727223E+02  0.00000000000E+00 0. -1.
         -2   -1    0    0    0  501 -0.00000000000E+00 -0.00000000000E+00 -0.10847991785E+03  0.10847991785E+03  0.00000000000E+00 0.  1.
         23    2    1    2    0    0  0.00000000000E+00  0.00000000000E+00 -0.89498190631E+02  0.12746164508E+03  0.90755412178E+02 0.  0.
        -11    1    3    3    0    0  0.33543803108E+02  0.26087372742E+02 -0.67105861092E+02  0.79428800421E+02  0.00000000000E+00 0.  1.
         11    1    3    3    0    0 -0.33543803108E+02 -0.26087372742E+02 -0.22392329540E+02  0.48032844656E+02  0.00000000000E+00 0. -1.
<mgrwt>
<rscale>  0 0.90755412E+02</rscale>
<asrwt>0</asrwt>
<pdfrwt beam="1">  1        2 0.29202657E-02 0.90755412E+02</pdfrwt>
<pdfrwt beam="2">  1       -2 0.16689218E-01 0.90755412E+02</pdfrwt>
<totfact> 0.78765843E+04</totfact>
</mgrwt>
</event>
<event>
 5    1  0.6222456E+000  0.9260895E+02  0.7546771E-02  0.1296654E+00
         -1   -1    0    0    0  501 -0.00000000000E+00  0.00000000000E+00  0.99781424088E+02  0.99781424088E+02  0.00000000000E+00 0.  1.
          1   -1    0    0  501    0  0.00000000000E+00 -0.00000000000E+00 -0.21488012195E+02  0.21488012195E+02  0.00000000000E+00 0. -1.
         23    2    1    2    0    0  0.00000000000E+00  0.00000000000E+00  0.78293411893E+02  0.12126943628E+03  0.92608951137E+02 0.  0.
        -11    1    3    3    0    0  0.27771970067E+02  0.32132010284E+02  0.63304937051E+02  0.76231643438E+02  0.00000000000E+00 0. -1.
         11    1    3    3    0    0 -0.27771970067E+02 -0.32132010284E+02  0.14988474842E+02  0.45037792845E+02  0.00000000000E+00 0.  1.
<mgrwt>
<rscale>  0 0.92608951E+02</rscale>
<asrwt>0</asrwt>
<pdfrwt beam="2">  1        1 0.33058481E-02 0.92608951E+02</pdfrwt>
<pdfrwt beam="1">  1       -1 0.15350988E-01 0.92608951E+02</pdfrwt>
<totfact> 0.78197623E+04</totfact>
</mgrwt>
</event>
<event>
 5    1  0.6222456E+000  0.9364828E+02  0.7546771E-02  0.1294250E+00
         -2   -1    0    0    0  501 -0.00000000000E+00  0.00000000000E+00  0.19286063215E+03  0.19286063215E+03  0.00000000000E+00 0.  1.
          2   -1    0    0  501    0  0.00000000000E+00 -0.00000000000E+00 -0.11368312945E+02  0.11368312945E+02  0.00000000000E+00 0. -1.
         23    2    1    2    0    0  0.00000000000E+00  0.00000000000E+00  0.18149231920E+03  0.20422894509E+03  0.93648278597E+02 0.  0.
        -11    1    3    3    0    0  0.25756754957E+02 -0.28554991169E+02  0.14900689669E+03  0.15388909386E+03  0.00000000000E+00 0.  1.
         11    1    3    3    0    0 -0.25756754957E+02  0.28554991169E+02  0.32485422508E+02  0.50339851232E+02  0.00000000000E+00 0. -1.
<mgrwt>
<rscale>  0 0.93648279E+02</rscale>
<asrwt>0</asrwt>
<pdfrwt beam="2">  1        2 0.17489714E-02 0.93648279E+02</pdfrwt>
<pdfrwt beam="1">  1       -2 0.29670864E-01 0.93648279E+02</pdfrwt>
<totfact> 0.59117289E+04</totfact>
</mgrwt>
</event>
<event>
 5    1  0.6222456E+000  0.9166805E+02  0.7546771E-02  0.1298862E+00
          1   -1    0    0  501    0  0.00000000000E+00  0.00000000000E+00  0.26602624310E+03  0.26602624310E+03  0.00000000000E+00 0. -1.
         -1   -1    0    0    0  501 -0.00000000000E+00 -0.00000000000E+00 -0.78968066324E+01  0.78968066324E+01  0.00000000000E+00 0.  1.
         23    2    1    2    0    0  0.00000000000E+00  0.00000000000E+00  0.25812943647E+03  0.27392304973E+03  0.91668048979E+02 0.  0.
        -11    1    3    3    0    0  0.52700758099E+01  0.36256047650E+02  0.46767804748E+02  0.59409614131E+02  0.00000000000E+00 0.  1.
         11    1    3    3    0    0 -0.52700758099E+01 -0.36256047650E+02  0.21136163172E+03  0.21451343560E+03  0.00000000000E+00 0. -1.
<mgrwt>
<rscale>  0 0.91668049E+02</rscale>
<asrwt>0</asrwt>
<pdfrwt beam="1">  1        1 0.40927107E-01 0.91668049E+02</pdfrwt>
<pdfrwt beam="2">  1       -1 0.12148935E-02 0.91668049E+02</pdfrwt>
<totfact> 0.12339551E+05</totfact>
</mgrwt>
</event>
<event>
 5    1  0.6222456E+000  0.8878201E+02  0.7546771E-02  0.1305828E+00
         -1   -1    0    0    0  501 -0.00000000000E+00  0.00000000000E+00  0.14317464087E+03  0.14317464087E+03  0.00000000000E+00 0.  1.
          1   -1    0    0  501    0  0.00000000000E+00 -0.00000000000E+00 -0.13763341918E+02  0.13763341918E+02  0.00000000000E+00 0. -1.
         23    2    1    2    0    0  0.00000000000E+00  0.00000000000E+00  0.12941129896E+03  0.15693798279E+03  0.88782014765E+02 0.  0.
        -11    1    3    3    0    0 -0.31501563449E+02  0.20207176651E+02  0.22507253892E+02  0.43672130308E+02  0.00000000000E+00 0. -1.
         11    1    3    3    0    0  0.31501563449E+02 -0.20207176651E+02  0.10690404506E+03  0.11326585249E+03  0.00000000000E+00 0.  1.
<mgrwt>
<rscale>  0 0.88782015E+02</rscale>
<asrwt>0</asrwt>
<pdfrwt beam="2">  1        1 0.21174373E-02 0.88782015E+02</pdfrwt>
<pdfrwt beam="1">  1       -1 0.22026867E-01 0.88782015E+02</pdfrwt>
<totfact> 0.80991273E+04</totfact>
</mgrwt>
</event>
<event>
 5    1  0.6222456E+000  0.9187500E+02  0.7546771E-02  0.1298374E+00
          1   -1    0    0  501    0  0.00000000000E+00  0.00000000000E+00  0.49554958215E+02  0.49554958215E+02  0.00000000000E+00 0. -1.
         -1   -1    0    0    0  501 -0.00000000000E+00 -0.00000000000E+00 -0.42584113659E+02  0.42584113659E+02  0.00000000000E+00 0.  1.
         23    2    1    2    0    0  0.00000000000E+00  0.00000000000E+00  0.69708445559E+01  0.92139071874E+02  0.91875001453E+02 0.  0.
        -11    1    3    3    0    0  0.17456655495E+02  0.19258474431E+02 -0.34499957778E+02  0.43195726006E+02  0.00000000000E+00 0.  1.
         11    1    3    3    0    0 -0.17456655495E+02 -0.19258474431E+02  0.41470802334E+02  0.48943345868E+02  0.00000000000E+00 0. -1.
<mgrwt>
<rscale>  0 0.91875001E+02</rscale>
<asrwt>0</asrwt>
<pdfrwt beam="1">  1        1 0.76238398E-02 0.91875001E+02</pdfrwt>
<pdfrwt beam="2">  1       -1 0.65514021E-02 0.91875001E+02</pdfrwt>
<totfact> 0.91658823E+04</totfact>
</mgrwt>
</event>
<event>
 5    1  0.6222456E+000  0.9183886E+02  0.7546771E-02  0.1298459E+00
         -1   -1    0    0    0  501 -0.00000000000E+00  0.00000000000E+00  0.70768623001E+01  0.70768623001E+01  0.00000000000E+00 0.  1.
          1   -1    0    0  501    0  0.00000000000E+00 -0.00000000000E+00 -0.29795604831E+03  0.29795604831E+03  0.00000000000E+00 0. -1.
         23    2    1    2    0    0  0.00000000000E+00  0.00000000000E+00 -0.29087918601E+03  0.30503291061E+03  0.91838857253E+02 0.  0.
        -11    1    3    3    0    0 -0.36470260516E+02  0.27879562203E+02 -0.14914415160E+03  0.15604911998E+03  0.00000000000E+00 0.  1.
         11    1    3    3    0    0  0.36470260516E+02 -0.27879562203E+02 -0.14173503441E+03  0.14898379063E+03  0.00000000000E+00 0. -1.
<mgrwt>
<rscale>  0 0.91838857E+02</rscale>
<asrwt>0</asrwt>
<pdfrwt beam="2">  1        1 0.45839402E-01 0.91838857E+02</pdfrwt>
<pdfrwt beam="1">  1       -1 0.10887478E-02 0.91838857E+02</pdfrwt>
<totfact> 0.12550927E+05</totfact>
</mgrwt>
</event>
<event>
 5    1  0.6222456E+000  0.9132498E+02  0.7546771E-02  0.1299674E+00
          2   -1    0    0  501    0  0.00000000000E+00  0.00000000000E+00  0.31326899061E+03  0.31326899061E+03  0.00000000000E+00 0. -1.
         -2   -1    0    0    0  501 -0.00000000000E+00 -0.00000000000E+00 -0.66558236737E+01  0.66558236737E+01  0.00000000000E+00 0.  1.
         23    2    1    2    0    0  0.00000000000E+00  0.00000000000E+00  0.30661316694E+03  0.31992481428E+03  0.91324983743E+02 0.  0.
        -11    1    3    3    0    0 -0.43721348721E+02  0.12132656621E+02  0.17127382404E+03  0.17718205466E+03  0.00000000000E+00 0.  1.
         11    1    3    3    0    0  0.43721348721E+02 -0.12132656621E+02  0.13533934289E+03  0.14274275962E+03  0.00000000000E+00 0. -1.
<mgrwt>
<rscale>  0 0.91324984E+02</rscale>
<asrwt>0</asrwt>
<pdfrwt beam="1">  1        2 0.48195218E-01 0.91324984E+02</pdfrwt>
<pdfrwt beam="2">  1       -2 0.10239731E-02 0.91324984E+02</pdfrwt>
<totfact> 0.18178576E+05</totfact>
</mgrwt>
</event>
<event>
 5    1  0.6222456E+000  0.5806395E+02  0.7546771E-02  0.1406141E+00
         -2   -1    0    0    0  501 -0.00000000000E+00  0.00000000000E+00  0.35497889772E+02  0.35497889772E+02  0.00000000000E+00 0.  1.
          2   -1    0    0  501    0  0.00000000000E+00 -0.00000000000E+00 -0.23743821109E+02  0.23743821109E+02  0.00000000000E+00 0. -1.
         23    2    1    2    0    0  0.00000000000E+00  0.00000000000E+00  0.11754068664E+02  0.59241710881E+02  0.58063949038E+02 0.  0.
        -11    1    3    3    0    0 -0.25109080396E+02 -0.65320223232E+01  0.19169039160E+02  0.32258104350E+02  0.00000000000E+00 0.  1.
         11    1    3    3    0    0  0.25109080396E+02  0.65320223232E+01 -0.74149704963E+01  0.26983606531E+02  0.00000000000E+00 0. -1.
<mgrwt>
<rscale>  0 0.58063949E+02</rscale>
<asrwt>0</asrwt>
<pdfrwt beam="2">  1        2 0.36528955E-02 0.58063949E+02</pdfrwt>
<pdfrwt beam="1">  1       -2 0.54612139E-02 0.58063949E+02</pdfrwt>
<totfact> 0.30281737E+05</totfact>
</mgrwt>
</event>
<event>
 5    1  0.6222456E+000  0.9248892E+02  0.7546771E-02  0.1296934E+00
         -2   -1    0    0    0  501 -0.00000000000E+00  0.00000000000E+00  0.10131387486E+02  0.10131387486E+02  0.00000000000E+00 0. -1.
          2   -1    0    0  501    0  0.00000000000E+00 -0.00000000000E+00 -0.21108164240E+03  0.21108164240E+03  0.00000000000E+00 0.  1.
         23    2    1    2    0    0  0.00000000000E+00  0.00000000000E+00 -0.20095025492E+03  0.22121302989E+03  0.92488916315E+02 0.  0.
        -11    1    3    3    0    0 -0.27550074993E+02 -0.28673412630E+02 -0.44007935399E+02  0.59311631254E+02  0.00000000000E+00 0. -1.
         11    1    3    3    0    0  0.27550074993E+02  0.28673412630E+02 -0.15694231952E+03  0.16190139864E+03  0.00000000000E+00 0.  1.
<mgrwt>
<rscale>  0 0.92488916E+02</rscale>
<asrwt>0</asrwt>
<pdfrwt beam="2">  1        2 0.32474097E-01 0.92488916E+02</pdfrwt>
<pdfrwt beam="1">  1       -2 0.15586751E-02 0.92488916E+02</pdfrwt>
<totfact> 0.15178341E+05</totfact>
</mgrwt>
</event>
<event>
 5    1  0.6222456E+000  0.9136817E+02  0.7546771E-02  0.1299572E+00
         -1   -1    0    0    0  501 -0.00000000000E+00  0.00000000000E+00  0.90739812678E+02  0.90739812678E+02  0.00000000000E+00 0.  1.
          1   -1    0    0  501    0  0.00000000000E+00 -0.00000000000E+00 -0.23000221893E+02  0.23000221893E+02  0.00000000000E+00 0. -1.
         23    2    1    2    0    0  0.00000000000E+00  0.00000000000E+00  0.67739590785E+02  0.11374003457E+03  0.91368174462E+02 0.  0.
        -11    1    3    3    0    0  0.14137677934E+01 -0.22676647618E+02  0.83207596069E+02  0.86253887623E+02  0.00000000000E+00 0.  1.
         11    1    3    3    0    0 -0.14137677934E+01  0.22676647618E+02 -0.15468005284E+02  0.27486146947E+02  0.00000000000E+00 0. -1.
<mgrwt>
<rscale>  0 0.91368174E+02</rscale>
<asrwt>0</asrwt>
<pdfrwt beam="2">  1        1 0.35384957E-02 0.91368174E+02</pdfrwt>
<pdfrwt beam="1">  1       -1 0.13959971E-01 0.91368174E+02</pdfrwt>
<totfact> 0.82376244E+04</totfact>
</mgrwt>
</event>
<event>
 5    1  0.6222456E+000  0.9122273E+02  0.7546771E-02  0.1299917E+00
          1   -1    0    0  501    0  0.00000000000E+00  0.00000000000E+00  0.23087608705E+02  0.23087608705E+02  0.00000000000E+00 0. -1.
         -1   -1    0    0    0  501 -0.00000000000E+00 -0.00000000000E+00 -0.90108786274E+02  0.90108786274E+02  0.00000000000E+00 0.  1.
         23    2    1    2    0    0  0.00000000000E+00  0.00000000000E+00 -0.67021177570E+02  0.11319639498E+03  0.91222725203E+02 0.  0.
        -11    1    3    3    0    0  0.44413834787E+01 -0.33088712162E+02  0.50527716502E+01  0.33765652090E+02  0.00000000000E+00 0. -1.
         11    1    3    3    0    0 -0.44413834787E+01  0.33088712162E+02 -0.72073949220E+02  0.79430742889E+02  0.00000000000E+00 0.  1.
<mgrwt>
<rscale>  0 0.91222725E+02</rscale>
<asrwt>0</asrwt>
<pdfrwt beam="1">  1        1 0.35519398E-02 0.91222725E+02</pdfrwt>
<pdfrwt beam="2">  1       -1 0.13862890E-01 0.91222725E+02</pdfrwt>
<totfact> 0.82817114E+04</totfact>
</mgrwt>
</event>
<event>
 5    1  0.6222456E+000  0.8906488E+02  0.7546771E-02  0.1305132E+00
         -2   -1    0    0    0  501 -0.00000000000E+00  0.00000000000E+00  0.11803962203E+03  0.11803962203E+03  0.00000000000E+00 0.  1.
          2   -1    0    0  501    0  0.00000000000E+00 -0.00000000000E+00 -0.16800613639E+02  0.16800613639E+02  0.00000000000E+00 0. -1.
         23    2    1    2    0    0  0.00000000000E+00  0.00000000000E+00  0.10123900840E+03  0.13484023567E+03  0.89064877115E+02 0.  0.
        -11    1    3    3    0    0  0.62622932953E+01  0.42699930827E+02  0.67248059046E+02  0.79904955137E+02  0.00000000000E+00 0.  1.
         11    1    3    3    0    0 -0.62622932953E+01 -0.42699930827E+02  0.33990949349E+02  0.54935280537E+02  0.00000000000E+00 0. -1.
<mgrwt>
<rscale>  0 0.89064877E+02</rscale>
<asrwt>0</asrwt>
<pdfrwt beam="2">  1        2 0.25847099E-02 0.89064877E+02</pdfrwt>
<pdfrwt beam="1">  1       -2 0.18159941E-01 0.89064877E+02</pdfrwt>
<totfact> 0.80403506E+04</totfact>
</mgrwt>
</event>
<event>
 5    1  0.6222456E+000  0.9154205E+02  0.7546771E-02  0.1299160E+00
          3   -1    0    0  501    0  0.00000000000E+00  0.00000000000E+00  0.46265005246E+02  0.46265005246E+02  0.00000000000E+00 0. -1.
         -3   -1    0    0    0  501 -0.00000000000E+00 -0.00000000000E+00 -0.45282323208E+02  0.45282323208E+02  0.00000000000E+00 0.  1.
         23    2    1    2    0    0  0.00000000000E+00  0.00000000000E+00  0.98268203837E+00  0.91547328454E+02  0.91542054178E+02 0.  0.
        -11    1    3    3    0    0 -0.28735699001E+02  0.15124794789E+02 -0.31767099844E+02  0.45427397537E+02  0.00000000000E+00 0.  1.
         11    1    3    3    0    0  0.28735699001E+02 -0.15124794789E+02  0.32749781882E+02  0.46119930917E+02  0.00000000000E+00 0. -1.
<mgrwt>
<rscale>  0 0.91542054E+02</rscale>
<asrwt>0</asrwt>
<pdfrwt beam="1">  1        3 0.71176931E-02 0.91542054E+02</pdfrwt>
<pdfrwt beam="2">  1       -3 0.69665113E-02 0.91542054E+02</pdfrwt>
<totfact> 0.34926781E+04</totfact>
</mgrwt>
</event>
<event>
 5    1  0.6222456E+000  0.9376392E+02  0.7546771E-02  0.1293985E+00
          3   -1    0    0  501    0  0.00000000000E+00  0.00000000000E+00  0.38182090503E+03  0.38182090503E+03  0.00000000000E+00 0. -1.
         -3   -1    0    0    0  501 -0.00000000000E+00 -0.00000000000E+00 -0.57564116499E+01  0.57564116499E+01  0.00000000000E+00 0.  1.
         23    2    1    2    0    0  0.00000000000E+00  0.00000000000E+00  0.37606449338E+03  0.38757731668E+03  0.93763922825E+02 0.  0.
        -11    1    3    3    0    0  0.44412753480E+02  0.13244166638E+02  0.15879850715E+03  0.16542329490E+03  0.00000000000E+00 0.  1.
         11    1    3    3    0    0 -0.44412753480E+02 -0.13244166638E+02  0.21726598623E+03  0.22215402178E+03  0.00000000000E+00 0. -1.
<mgrwt>
<rscale>  0 0.93763923E+02</rscale>
<asrwt>0</asrwt>
<pdfrwt beam="1">  1        3 0.58741658E-01 0.93763923E+02</pdfrwt>
<pdfrwt beam="2">  1       -3 0.88560209E-03 0.93763923E+02</pdfrwt>
<totfact> 0.19476902E+04</totfact>
</mgrwt>
</event>
<event>
 5    1  0.6222456E+000  0.1169088E+03  0.7546771E-02  0.1248285E+00
         -1   -1    0    0    0  501 -0.00000000000E+00  0.00000000000E+00  0.33135403408E+03  0.33135403408E+03  0.00000000000E+00 0.  1.
          1   -1    0    0  501    0  0.00000000000E+00 -0.00000000000E+00 -0.10311986956E+02  0.10311986956E+02  0.00000000000E+00 0. -1.
         23    2    1    2    0    0  0.00000000000E+00  0.00000000000E+00  0.32104204713E+03  0.34166602104E+03  0.11690882733E+03 0.  0.
        -11    1    3    3    0    0  0.43969763231E+02 -0.13352064561E+02  0.54934185899E+02  0.71619707393E+02  0.00000000000E+00 0. -1.
         11    1    3    3    0    0 -0.43969763231E+02  0.13352064561E+02  0.26610786123E+03  0.27004631364E+03  0.00000000000E+00 0.  1.
<mgrwt>
<rscale>  0 0.11690883E+03</rscale>
<asrwt>0</asrwt>
<pdfrwt beam="2">  1        1 0.15864598E-02 0.11690883E+03</pdfrwt>
<pdfrwt beam="1">  1       -1 0.50977535E-01 0.11690883E+03</pdfrwt>
<totfact> 0.30180419E+04</totfact>
</mgrwt>
</event>
<event>
 5    1  0.6222456E+000  0.9299314E+02  0.7546771E-02  0.1295761E+00
         -4   -1    0    0    0  501 -0.00000000000E+00  0.00000000000E+00  0.25991124659E+02  0.25991124659E+02  0.00000000000E+00 0.  1.
          4   -1    0    0  501    0  0.00000000000E+00 -0.00000000000E+00 -0.83179587344E+02  0.83179587344E+02  0.00000000000E+00 0. -1.
         23    2    1    2    0    0  0.00000000000E+00  0.00000000000E+00 -0.57188462685E+02  0.10917071200E+03  0.92993140042E+02 0.  0.
        -11    1    3    3    0    0  0.32603324220E+02 -0.28152984535E+02 -0.80460254729E+01  0.43821294074E+02  0.00000000000E+00 0.  1.
         11    1    3    3    0    0 -0.32603324220E+02  0.28152984535E+02 -0.49142437212E+02  0.65349417928E+02  0.00000000000E+00 0. -1.
<mgrwt>
<rscale>  0 0.92993140E+02</rscale>
<asrwt>0</asrwt>
<pdfrwt beam="2">  1        4 0.12796859E-01 0.92993140E+02</pdfrwt>
<pdfrwt beam="1">  1       -4 0.39986347E-02 0.92993140E+02</pdfrwt>
<totfact> 0.24551628E+04</totfact>
</mgrwt>
</event>
<event>
 5    1  0.6222456E+000  0.9171759E+02  0.7546771E-02  0.1298745E+00
         -2   -1    0    0    0  501 -0.00000000000E+00  0.00000000000E+00  0.11477708316E+02  0.11477708316E+02  0.00000000000E+00 0.  1.
          2   -1    0    0  501    0  0.00000000000E+00 -0.00000000000E+00 -0.18322727814E+03  0.18322727814E+03  0.00000000000E+00 0. -1.
         23    2    1    2    0    0  0.00000000000E+00  0.00000000000E+00 -0.17174956983E+03  0.19470498646E+03  0.91717593820E+02 0.  0.
        -11    1    3    3    0    0  0.30066317010E+02  0.27653884827E+02 -0.41633922864E+02  0.58327560360E+02  0.00000000000E+00 0.  1.
         11    1    3    3    0    0 -0.30066317010E+02 -0.27653884827E+02 -0.13011564696E+03  0.13637742610E+03  0.00000000000E+00 0. -1.
<mgrwt>
<rscale>  0 0.91717594E+02</rscale>
<asrwt>0</asrwt>
<pdfrwt beam="2">  1        2 0.28188810E-01 0.91717594E+02</pdfrwt>
<pdfrwt beam="1">  1       -2 0.17658014E-02 0.91717594E+02</pdfrwt>
<totfact> 0.14751541E+05</totfact>
</mgrwt>
</event>
<event>
 5    1  0.6222456E+000  0.9140161E+02  0.7546771E-02  0.1299493E+00
          1   -1    0    0  501    0  0.00000000000E+00  0.00000000000E+00  0.42491309595E+02  0.42491309595E+02  0.00000000000E+00 0. -1.
         -1   -1    0    0    0  501 -0.00000000000E+00 -0.00000000000E+00 -0.49152721945E+02  0.49152721945E+02  0.00000000000E+00 0.  1.
         23    2    1    2    0    0  0.00000000000E+00  0.00000000000E+00 -0.66614123491E+01  0.91644031540E+02  0.91401608861E+02 0.  0.
        -11    1    3    3    0    0 -0.29721302506E+02  0.28645263359E+02 -0.22995388477E+02  0.47251400263E+02  0.00000000000E+00 0.  1.
         11    1    3    3    0    0  0.29721302506E+02 -0.28645263359E+02  0.16333976128E+02  0.44392631277E+02  0.00000000000E+00 0. -1.
<mgrwt>
<rscale>  0 0.91401609E+02</rscale>
<asrwt>0</asrwt>
<pdfrwt beam="1">  1        1 0.65371245E-02 0.91401609E+02</pdfrwt>
<pdfrwt beam="2">  1       -1 0.75619572E-02 0.91401609E+02</pdfrwt>
<totfact> 0.90864242E+04</totfact>
</mgrwt>
</event>
<event>
 5    1  0.6222456E+000  0.8507247E+02  0.7546771E-02  0.1315243E+00
          1   -1    0    0  501    0  0.00000000000E+00  0.00000000000E+00  0.81654689168E+01  0.81654689168E+01  0.00000000000E+00 0. -1.
         -1   -1    0    0    0  501 -0.00000000000E+00 -0.00000000000E+00 -0.22158329197E+03  0.22158329197E+03  0.00000000000E+00 0.  1.
         23    2    1    2    0    0  0.00000000000E+00  0.00000000000E+00 -0.21341782306E+03  0.22974876089E+03  0.85072474587E+02 0.  0.
        -11    1    3    3    0    0 -0.30593417841E+02  0.23904634032E+02 -0.15363630232E+03  0.15846609143E+03  0.00000000000E+00 0.  1.
         11    1    3    3    0    0  0.30593417841E+02 -0.23904634032E+02 -0.59781520737E+02  0.71282669458E+02  0.00000000000E+00 0. -1.
<mgrwt>
<rscale>  0 0.85072475E+02</rscale>
<asrwt>0</asrwt>
<pdfrwt beam="1">  1        1 0.12562261E-02 0.85072475E+02</pdfrwt>
<pdfrwt beam="2">  1       -1 0.34089733E-01 0.85072475E+02</pdfrwt>
<totfact> 0.80642856E+04</totfact>
</mgrwt>
</event>
<event>
 5    1  0.6222456E+000  0.9312903E+02  0.7546771E-02  0.1295446E+00
          3   -1    0    0  501    0  0.00000000000E+00  0.00000000000E+00  0.22268045993E+03  0.22268045993E+03  0.00000000000E+00 0. -1.
         -3   -1    0    0    0  501 -0.00000000000E+00 -0.00000000000E+00 -0.97370644448E+01  0.97370644448E+01  0.00000000000E+00 0.  1.
         23    2    1    2    0    0  0.00000000000E+00  0.00000000000E+00  0.21294339549E+03  0.23241752438E+03  0.93129028534E+02 0.  0.
        -11    1    3    3    0    0 -0.40000120113E+02  0.19485746856E+02  0.14074035781E+03  0.14760607120E+03  0.00000000000E+00 0. -1.
         11    1    3    3    0    0  0.40000120113E+02 -0.19485746856E+02  0.72203037677E+02  0.84811453173E+02  0.00000000000E+00 0.  1.
<mgrwt>
<rscale>  0 0.93129029E+02</rscale>
<asrwt>0</asrwt>
<pdfrwt beam="1">  1        3 0.34258529E-01 0.93129029E+02</pdfrwt>
<pdfrwt beam="2">  1       -3 0.14980101E-02 0.93129029E+02</pdfrwt>
<totfact> 0.25409307E+04</totfact>
</mgrwt>
</event>
<event>
 5    1  0.6222456E+000  0.9021781E+02  0.7546771E-02  0.1302325E+00
          2   -1    0    0  501    0  0.00000000000E+00  0.00000000000E+00  0.46632716952E+02  0.46632716952E+02  0.00000000000E+00 0. -1.
         -2   -1    0    0    0  501 -0.00000000000E+00 -0.00000000000E+00 -0.43634891068E+02  0.43634891068E+02  0.00000000000E+00 0.  1.
         23    2    1    2    0    0  0.00000000000E+00  0.00000000000E+00  0.29978258838E+01  0.90267608020E+02  0.90217814746E+02 0.  0.
        -11    1    3    3    0    0 -0.44884686455E+02  0.26772828727E+01 -0.21100991515E+01  0.45013947174E+02  0.00000000000E+00 0.  1.
         11    1    3    3    0    0  0.44884686455E+02 -0.26772828727E+01  0.51079250353E+01  0.45253660846E+02  0.00000000000E+00 0. -1.
<mgrwt>
<rscale>  0 0.90217815E+02</rscale>
<asrwt>0</asrwt>
<pdfrwt beam="1">  1        2 0.71742642E-02 0.90217815E+02</pdfrwt>
<pdfrwt beam="2">  1       -2 0.67130601E-02 0.90217815E+02</pdfrwt>
<totfact> 0.10230471E+05</totfact>
</mgrwt>
</event>
<event>
 5    1  0.6222456E+000  0.9497015E+02  0.7546771E-02  0.1291243E+00
          2   -1    0    0  501    0  0.00000000000E+00  0.00000000000E+00  0.15135632282E+02  0.15135632282E+02  0.00000000000E+00 0. -1.
         -2   -1    0    0    0  501 -0.00000000000E+00 -0.00000000000E+00 -0.14897509207E+03  0.14897509207E+03  0.00000000000E+00 0.  1.
         23    2    1    2    0    0  0.00000000000E+00  0.00000000000E+00 -0.13383945979E+03  0.16411072436E+03  0.94970147157E+02 0.  0.
        -11    1    3    3    0    0  0.32665931102E+01  0.47335932893E+02 -0.70139164576E+02  0.84680951700E+02  0.00000000000E+00 0. -1.
         11    1    3    3    0    0 -0.32665931102E+01 -0.47335932893E+02 -0.63700295217E+02  0.79429772655E+02  0.00000000000E+00 0.  1.
<mgrwt>
<rscale>  0 0.94970147E+02</rscale>
<asrwt>0</asrwt>
<pdfrwt beam="1">  1        2 0.23285590E-02 0.94970147E+02</pdfrwt>
<pdfrwt beam="2">  1       -2 0.22919243E-01 0.94970147E+02</pdfrwt>
<totfact> 0.63159448E+04</totfact>
</mgrwt>
</event>
<event>
 5    1  0.6222456E+000  0.9371842E+02  0.7546771E-02  0.1294089E+00
          3   -1    0    0  501    0  0.00000000000E+00  0.00000000000E+00  0.18580943003E+02  0.18580943003E+02  0.00000000000E+00 0. -1.
         -3   -1    0    0    0  501 -0.00000000000E+00 -0.00000000000E+00 -0.11817406007E+03  0.11817406007E+03  0.00000000000E+00 0.  1.
         23    2    1    2    0    0  0.00000000000E+00  0.00000000000E+00 -0.99593117070E+02  0.13675500308E+03  0.93718418139E+02 0.  0.
        -11    1    3    3    0    0 -0.25568380325E+02  0.37843442603E+02 -0.65095141615E+02  0.79518838538E+02  0.00000000000E+00 0. -1.
         11    1    3    3    0    0  0.25568380325E+02 -0.37843442603E+02 -0.34497975454E+02  0.57236164538E+02  0.00000000000E+00 0.  1.
<mgrwt>
<rscale>  0 0.93718418E+02</rscale>
<asrwt>0</asrwt>
<pdfrwt beam="1">  1        3 0.28586066E-02 0.93718418E+02</pdfrwt>
<pdfrwt beam="2">  1       -3 0.18180625E-01 0.93718418E+02</pdfrwt>
<totfact> 0.29823145E+04</totfact>
</mgrwt>
</event>
<event>
 5    1  0.6222456E+000  0.9219973E+02  0.7546771E-02  0.1297610E+00
         -2   -1    0    0    0  501 -0.00000000000E+00  0.00000000000E+00  0.23152709368E+02  0.23152709368E+02  0.00000000000E+00 0.  1.
          2   -1    0    0  501    0  0.00000000000E+00 -0.00000000000E+00 -0.91790446404E+02  0.91790446404E+02  0.00000000000E+00 0. -1.
         23    2    1    2    0    0  0.00000000000E+00  0.00000000000E+00 -0.68637737036E+02  0.11494315577E+03  0.92199729465E+02 0.  0.
        -11    1    3    3    0    0  0.10377558731E+01  0.38421846492E+02 -0.25865701945E+01  0.38522792869E+02  0.00000000000E+00 0.  1.
         11    1    3    3    0    0 -0.10377558731E+01 -0.38421846492E+02 -0.66051166842E+02  0.76420362903E+02  0.00000000000E+00 0. -1.
<mgrwt>
<rscale>  0 0.92199729E+02</rscale>
<asrwt>0</asrwt>
<pdfrwt beam="2">  1        2 0.14121607E-01 0.92199729E+02</pdfrwt>
<pdfrwt beam="1">  1       -2 0.35619553E-02 0.92199729E+02</pdfrwt>
<totfact> 0.11591980E+05</totfact>
</mgrwt>
</event>
<event>
 5    1  0.6222456E+000  0.9489763E+02  0.7546771E-02  0.1291407E+00
          1   -1    0    0  501    0  0.00000000000E+00  0.00000000000E+00  0.30871318452E+02  0.30871318452E+02  0.00000000000E+00 0. -1.
         -1   -1    0    0    0  501 -0.00000000000E+00 -0.00000000000E+00 -0.72928212607E+02  0.72928212607E+02  0.00000000000E+00 0.  1.
         23    2    1    2    0    0  0.00000000000E+00  0.00000000000E+00 -0.42056894156E+02  0.10379953106E+03  0.94897630645E+02 0.  0.
        -11    1    3    3    0    0  0.39334538292E+02 -0.10968321306E+02 -0.47458732871E+02  0.62608635991E+02  0.00000000000E+00 0.  1.
         11    1    3    3    0    0 -0.39334538292E+02  0.10968321306E+02  0.54018387157E+01  0.41190895068E+02  0.00000000000E+00 0. -1.
<mgrwt>
<rscale>  0 0.94897631E+02</rscale>
<asrwt>0</asrwt>
<pdfrwt beam="1">  1        1 0.47494336E-02 0.94897631E+02</pdfrwt>
<pdfrwt beam="2">  1       -1 0.11219725E-01 0.94897631E+02</pdfrwt>
<totfact> 0.77610295E+04</totfact>
</mgrwt>
</event>
<event>
 4    1  0.6222456E+000  0.2381023E+03  0.7546771E-02  0.1121063E+00
          1   -1    0    0  501    0  0.00000000000E+00  0.00000000000E+00  0.36435217155E+03  0.36435217155E+03  0.00000000000E+00 0. -1.
         -1   -1    0    0    0  501 -0.00000000000E+00 -0.00000000000E+00 -0.38899674805E+02  0.38899674805E+02  0.00000000000E+00 0.  1.
        -11    1    1    2    0    0 -0.64935930451E+01 -0.10127302080E+03  0.57302911301E+02  0.11654190292E+03  0.00000000000E+00 0.  1.
         11    1    1    2    0    0  0.64935930451E+01  0.10127302080E+03  0.26814958545E+03  0.28670994344E+03  0.00000000000E+00 0. -1.
<mgrwt>
<rscale>  0 0.23810234E+03</rscale>
<asrwt>0</asrwt>
<pdfrwt beam="1">  1        1 0.56054178E-01 0.23810234E+03</pdfrwt>
<pdfrwt beam="2">  1       -1 0.59845656E-02 0.23810234E+03</pdfrwt>
<totfact> 0.90307315E+03</totfact>
</mgrwt>
</event>
<event>
 5    1  0.6222456E+000  0.9263142E+02  0.7546771E-02  0.1296602E+00
         -4   -1    0    0    0  501 -0.00000000000E+00  0.00000000000E+00  0.41498198542E+02  0.41498198542E+02  0.00000000000E+00 0.  1.
          4   -1    0    0  501    0  0.00000000000E+00 -0.00000000000E+00 -0.51692484341E+02  0.51692484341E+02  0.00000000000E+00 0. -1.
         23    2    1    2    0    0  0.00000000000E+00  0.00000000000E+00 -0.10194285799E+02  0.93190682883E+02  0.92631419687E+02 0.  0.
        -11    1    3    3    0    0 -0.19724693126E+00  0.25135705538E+02 -0.44233196612E+02  0.50876500290E+02  0.00000000000E+00 0. -1.
         11    1    3    3    0    0  0.19724693126E+00 -0.25135705538E+02  0.34038910813E+02  0.42314182593E+02  0.00000000000E+00 0.  1.
<mgrwt>
<rscale>  0 0.92631420E+02</rscale>
<asrwt>0</asrwt>
<pdfrwt beam="2">  1        4 0.79526899E-02 0.92631420E+02</pdfrwt>
<pdfrwt beam="1">  1       -4 0.63843383E-02 0.92631420E+02</pdfrwt>
<totfact> 0.25753482E+04</totfact>
</mgrwt>
</event>
<event>
 5    1  0.6222456E+000  0.1023008E+03  0.7546771E-02  0.1275531E+00
         -1   -1    0    0    0  501 -0.00000000000E+00  0.00000000000E+00  0.21483367890E+03  0.21483367890E+03  0.00000000000E+00 0.  1.
          1   -1    0    0  501    0  0.00000000000E+00 -0.00000000000E+00 -0.12178544722E+02  0.12178544722E+02  0.00000000000E+00 0. -1.
         23    2    1    2    0    0  0.00000000000E+00  0.00000000000E+00  0.20265513417E+03  0.22701222362E+03  0.10230076376E+03 0.  0.
        -11    1    3    3    0    0 -0.43913227342E+02  0.21548195399E+02  0.13451469567E+03  0.14313245478E+03  0.00000000000E+00 0.  1.
         11    1    3    3    0    0  0.43913227342E+02 -0.21548195399E+02  0.68140438501E+02  0.83879768834E+02  0.00000000000E+00 0. -1.
<mgrwt>
<rscale>  0 0.10230076E+03</rscale>
<asrwt>0</asrwt>
<pdfrwt beam="2">  1        1 0.18736224E-02 0.10230076E+03</pdfrwt>
<pdfrwt beam="1">  1       -1 0.33051332E-01 0.10230076E+03</pdfrwt>
<totfact> 0.50296056E+04</totfact>
</mgrwt>
</event>
<event>
 5    1  0.6222456E+000  0.1037846E+03  0.7546771E-02  0.1272533E+00
         -1   -1    0    0    0  501 -0.00000000000E+00  0.00000000000E+00  0.30555932294E+02  0.30555932294E+02  0.00000000000E+00 0.  1.
          1   -1    0    0  501    0  0.00000000000E+00 -0.00000000000E+00 -0.88127325608E+02  0.88127325608E+02  0.00000000000E+00 0. -1.
         23    2    1    2    0    0  0.00000000000E+00  0.00000000000E+00 -0.57571393314E+02  0.11868325790E+03  0.10378463459E+03 0.  0.
        -11    1    3    3    0    0 -0.99838210066E+01 -0.46917318506E+02 -0.61473523733E+01  0.48360121990E+02  0.00000000000E+00 0.  1.
         11    1    3    3    0    0  0.99838210066E+01  0.46917318506E+02 -0.51424040941E+02  0.70323135911E+02  0.00000000000E+00 0. -1.
<mgrwt>
<rscale>  0 0.10378463E+03</rscale>
<asrwt>0</asrwt>
<pdfrwt beam="2">  1        1 0.13558050E-01 0.10378463E+03</pdfrwt>
<pdfrwt beam="1">  1       -1 0.47009126E-02 0.10378463E+03</pdfrwt>
<totfact> 0.71540332E+04</totfact>
</mgrwt>
</event>
<event>
 5    1  0.6222456E+000  0.8976445E+02  0.7546771E-02  0.1303423E+00
          1   -1    0    0  501    0  0.00000000000E+00  0.00000000000E+00  0.20610589324E+03  0.20610589324E+03  0.00000000000E+00 0. -1.
         -1   -1    0    0    0  501 -0.00000000000E+00 -0.00000000000E+00 -0.97736846831E+01  0.97736846831E+01  0.00000000000E+00 0.  1.
         23    2    1    2    0    0  0.00000000000E+00  0.00000000000E+00  0.19633220856E+03  0.21587957792E+03  0.89764447570E+02 0.  0.
        -11    1    3    3    0    0  0.14179392041E+02  0.30469624902E+02  0.26622763262E+02  0.42874523018E+02  0.00000000000E+00 0.  1.
         11    1    3    3    0    0 -0.14179392041E+02 -0.30469624902E+02  0.16970944530E+03  0.17300505491E+03  0.00000000000E+00 0. -1.
<mgrwt>
<rscale>  0 0.89764448E+02</rscale>
<asrwt>0</asrwt>
<pdfrwt beam="1">  1        1 0.31708596E-01 0.89764448E+02</pdfrwt>
<pdfrwt beam="2">  1       -1 0.15036440E-02 0.89764448E+02</pdfrwt>
<totfact> 0.12418158E+05</totfact>
</mgrwt>
</event>
<event>
 5    1  0.6222456E+000  0.1073666E+03  0.7546771E-02  0.1265526E+00
         -1   -1    0    0    0  501 -0.00000000000E+00  0.00000000000E+00  0.24237251418E+02  0.24237251418E+02  0.00000000000E+00 0.  1.
          1   -1    0    0  501    0  0.00000000000E+00 -0.00000000000E+00 -0.11890354158E+03  0.11890354158E+03  0.00000000000E+00 0. -1.
         23    2    1    2    0    0  0.00000000000E+00  0.00000000000E+00 -0.94666290165E+02  0.14314079300E+03  0.10736656895E+03 0.  0.
        -11    1    3    3    0    0  0.96296545704E+00  0.42813164973E+02 -0.90492517088E+02  0.10011388538E+03  0.00000000000E+00 0. -1.
         11    1    3    3    0    0 -0.96296545704E+00 -0.42813164973E+02 -0.41737730768E+01  0.43026907619E+02  0.00000000000E+00 0.  1.
<mgrwt>
<rscale>  0 0.10736657E+03</rscale>
<asrwt>0</asrwt>
<pdfrwt beam="2">  1        1 0.18292853E-01 0.10736657E+03</pdfrwt>
<pdfrwt beam="1">  1       -1 0.37288079E-02 0.10736657E+03</pdfrwt>
<totfact> 0.68709170E+04</totfact>
</mgrwt>
</event>
<event>
 5    1  0.6222456E+000  0.9137025E+02  0.7546771E-02  0.1299567E+00
          3   -1    0    0  501    0  0.00000000000E+00  0.00000000000E+00  0.28933798547E+02  0.28933798547E+02  0.00000000000E+00 0. -1.
         -3   -1    0    0    0  501 -0.00000000000E+00 -0.00000000000E+00 -0.72134692092E+02  0.72134692092E+02  0.00000000000E+00 0.  1.
         23    2    1    2    0    0  0.00000000000E+00  0.00000000000E+00 -0.43200893546E+02  0.10106849064E+03  0.91370250065E+02 0.  0.
        -11    1    3    3    0    0  0.41724953095E+02  0.49656762487E+01 -0.41434073208E+02  0.59011965515E+02  0.00000000000E+00 0.  1.
         11    1    3    3    0    0 -0.41724953095E+02 -0.49656762487E+01 -0.17668203372E+01  0.42056525123E+02  0.00000000000E+00 0. -1.
<mgrwt>
<rscale>  0 0.91370250E+02</rscale>
<asrwt>0</asrwt>
<pdfrwt beam="1">  1        3 0.44513536E-02 0.91370250E+02</pdfrwt>
<pdfrwt beam="2">  1       -3 0.11097645E-01 0.91370250E+02</pdfrwt>
<totfact> 0.34394116E+04</totfact>
</mgrwt>
</event>
<event>
 5    1  0.6222456E+000  0.9096284E+02  0.7546771E-02  0.1300537E+00
         -3   -1    0    0    0  501 -0.00000000000E+00  0.00000000000E+00  0.14990730609E+02  0.14990730609E+02  0.00000000000E+00 0.  1.
          3   -1    0    0  501    0  0.00000000000E+00 -0.00000000000E+00 -0.13798923507E+03  0.13798923507E+03  0.00000000000E+00 0. -1.
         23    2    1    2    0    0  0.00000000000E+00  0.00000000000E+00 -0.12299850446E+03  0.15297996568E+03  0.90962837463E+02 0.  0.
        -11    1    3    3    0    0 -0.40903812871E+02  0.18300613584E+02 -0.48415320673E+02  0.65970278465E+02  0.00000000000E+00 0.  1.
         11    1    3    3    0    0  0.40903812871E+02 -0.18300613584E+02 -0.74583183787E+02  0.87009687212E+02  0.00000000000E+00 0. -1.
<mgrwt>
<rscale>  0 0.90962837E+02</rscale>
<asrwt>0</asrwt>
<pdfrwt beam="2">  1        3 0.21229112E-01 0.90962837E+02</pdfrwt>
<pdfrwt beam="1">  1       -3 0.23062664E-02 0.90962837E+02</pdfrwt>
<totfact> 0.31324439E+04</totfact>
</mgrwt>
</event>
<event>
 5    1  0.6222456E+000  0.6267409E+02  0.7546771E-02  0.1386941E+00
          1   -1    0    0  501    0  0.00000000000E+00  0.00000000000E+00  0.75433480632E+02  0.75433480632E+02  0.00000000000E+00 0. -1.
         -1   -1    0    0    0  501 -0.00000000000E+00 -0.00000000000E+00 -0.13018231002E+02  0.13018231002E+02  0.00000000000E+00 0.  1.
         23    2    1    2    0    0  0.00000000000E+00  0.00000000000E+00  0.62415249630E+02  0.88451711634E+02  0.62674092770E+02 0.  0.
        -11    1    3    3    0    0  0.50009860911E+01  0.21034419336E+02 -0.80590687333E+00  0.21635760781E+02  0.00000000000E+00 0.  1.
         11    1    3    3    0    0 -0.50009860911E+01 -0.21034419336E+02  0.63221156504E+02  0.66815950853E+02  0.00000000000E+00 0. -1.
<mgrwt>
<rscale>  0 0.62674093E+02</rscale>
<asrwt>0</asrwt>
<pdfrwt beam="1">  1        1 0.11605151E-01 0.62674093E+02</pdfrwt>
<pdfrwt beam="2">  1       -1 0.20028048E-02 0.62674093E+02</pdfrwt>
<totfact> 0.27253377E+05</totfact>
</mgrwt>
</event>
<event>
 5    1  0.6222456E+000  0.9116032E+02  0.7546771E-02  0.1300066E+00
          2   -1    0    0  501    0  0.00000000000E+00  0.00000000000E+00  0.17572855694E+03  0.17572855694E+03  0.00000000000E+00 0. -1.
         -2   -1    0    0    0  501 -0.00000000000E+00 -0.00000000000E+00 -0.11822499631E+02  0.11822499631E+02  0.00000000000E+00 0.  1.
         23    2    1    2    0    0  0.00000000000E+00  0.00000000000E+00  0.16390605730E+03  0.18755105657E+03  0.91160315919E+02 0.  0.
        -11    1    3    3    0    0  0.16375121212E+02 -0.36267571596E+02  0.12768371255E+03  0.13374083818E+03  0.00000000000E+00 0. -1.
         11    1    3    3    0    0 -0.16375121212E+02  0.36267571596E+02  0.36222344749E+02  0.53810218391E+02  0.00000000000E+00 0.  1.
<mgrwt>
<rscale>  0 0.91160316E+02</rscale>
<asrwt>0</asrwt>
<pdfrwt beam="1">  1        2 0.27035161E-01 0.91160316E+02</pdfrwt>
<pdfrwt beam="2">  1       -2 0.18188462E-02 0.91160316E+02</pdfrwt>
<totfact> 0.14775821E+05</totfact>
</mgrwt>
</event>
<event>
 5    1  0.6222456E+000  0.9597921E+02  0.7546771E-02  0.1288986E+00
         -4   -1    0    0    0  501 -0.00000000000E+00  0.00000000000E+00  0.84495267710E+01  0.84495267710E+01  0.00000000000E+00 0. -1.
          4   -1    0    0  501    0  0.00000000000E+00 -0.00000000000E+00 -0.27255989312E+03  0.27255989312E+03  0.00000000000E+00 0.  1.
         23    2    1    2    0    0  0.00000000000E+00  0.00000000000E+00 -0.26411036635E+03  0.28100941989E+03  0.95979208448E+02 0.  0.
        -11    1    3    3    0    0  0.34185887411E+02 -0.30791911024E+02 -0.17200516276E+03  0.17805221902E+03  0.00000000000E+00 0.  1.
         11    1    3    3    0    0 -0.34185887411E+02  0.30791911024E+02 -0.92105203585E+02  0.10295720087E+03  0.00000000000E+00 0. -1.
<mgrwt>
<rscale>  0 0.95979208E+02</rscale>
<asrwt>0</asrwt>
<pdfrwt beam="2">  1        4 0.41932291E-01 0.95979208E+02</pdfrwt>
<pdfrwt beam="1">  1       -4 0.12999272E-02 0.95979208E+02</pdfrwt>
<totfact> 0.16053771E+04</totfact>
</mgrwt>
</event>
<event>
 5    1  0.6222456E+000  0.9098809E+02  0.7546771E-02  0.1300476E+00
          3   -1    0    0  501    0  0.00000000000E+00  0.00000000000E+00  0.14925436705E+02  0.14925436705E+02  0.00000000000E+00 0. -1.
         -3   -1    0    0    0  501 -0.00000000000E+00 -0.00000000000E+00 -0.13866985216E+03  0.13866985216E+03  0.00000000000E+00 0.  1.
         23    2    1    2    0    0  0.00000000000E+00  0.00000000000E+00 -0.12374441545E+03  0.15359528886E+03  0.90988089359E+02 0.  0.
        -11    1    3    3    0    0  0.92493303865E+01 -0.21562455326E+02  0.39243951123E+01  0.23788452435E+02  0.00000000000E+00 0. -1.
         11    1    3    3    0    0 -0.92493303865E+01  0.21562455326E+02 -0.12766881057E+03  0.12980683643E+03  0.00000000000E+00 0.  1.
<mgrwt>
<rscale>  0 0.90988089E+02</rscale>
<asrwt>0</asrwt>
<pdfrwt beam="1">  1        3 0.22962210E-02 0.90988089E+02</pdfrwt>
<pdfrwt beam="2">  1       -3 0.21333824E-01 0.90988089E+02</pdfrwt>
<totfact> 0.31264530E+04</totfact>
</mgrwt>
</event>
<event>
 5    1  0.6222456E+000  0.9323206E+02  0.7546771E-02  0.1295208E+00
          2   -1    0    0  501    0  0.00000000000E+00  0.00000000000E+00  0.11861428937E+02  0.11861428937E+02  0.00000000000E+00 0.  1.
         -2   -1    0    0    0  501 -0.00000000000E+00 -0.00000000000E+00 -0.18320339633E+03  0.18320339633E+03  0.00000000000E+00 0. -1.
         23    2    1    2    0    0  0.00000000000E+00  0.00000000000E+00 -0.17134196739E+03  0.19506482527E+03  0.93232056003E+02 0.  0.
        -11    1    3    3    0    0  0.22582362158E+02  0.33017414091E+02 -0.13575149866E+03  0.14152237315E+03  0.00000000000E+00 0. -1.
         11    1    3    3    0    0 -0.22582362158E+02 -0.33017414091E+02 -0.35590468729E+02  0.53542452112E+02  0.00000000000E+00 0.  1.
<mgrwt>
<rscale>  0 0.93232056E+02</rscale>
<asrwt>0</asrwt>
<pdfrwt beam="1">  1        2 0.18248352E-02 0.93232056E+02</pdfrwt>
<pdfrwt beam="2">  1       -2 0.28185138E-01 0.93232056E+02</pdfrwt>
<totfact> 0.61092830E+04</totfact>
</mgrwt>
</event>
<event>
 5    1  0.6222456E+000  0.9238082E+02  0.7546771E-02  0.1297186E+00
         -1   -1    0    0    0  501 -0.00000000000E+00  0.00000000000E+00  0.61056039144E+02  0.61056039144E+02  0.00000000000E+00 0.  1.
          1   -1    0    0  501    0  0.00000000000E+00 -0.00000000000E+00 -0.34944194944E+02  0.34944194944E+02  0.00000000000E+00 0. -1.
         23    2    1    2    0    0  0.00000000000E+00  0.00000000000E+00  0.26111844200E+02  0.96000234088E+02  0.92380823429E+02 0.  0.
        -11    1    3    3    0    0  0.35274494686E+02  0.29635653063E+02  0.96105724897E+01  0.47062989827E+02  0.00000000000E+00 0. -1.
         11    1    3    3    0    0 -0.35274494686E+02 -0.29635653063E+02  0.16501271710E+02  0.48937244261E+02  0.00000000000E+00 0.  1.
<mgrwt>
<rscale>  0 0.92380823E+02</rscale>
<asrwt>0</asrwt>
<pdfrwt beam="2">  1        1 0.53760300E-02 0.92380823E+02</pdfrwt>
<pdfrwt beam="1">  1       -1 0.93932368E-02 0.92380823E+02</pdfrwt>
<totfact> 0.85541326E+04</totfact>
</mgrwt>
</event>
<event>
 5    1  0.6222456E+000  0.8822469E+02  0.7546771E-02  0.1307209E+00
         -2   -1    0    0    0  501 -0.00000000000E+00  0.00000000000E+00  0.24663212378E+02  0.24663212378E+02  0.00000000000E+00 0. -1.
          2   -1    0    0  501    0  0.00000000000E+00 -0.00000000000E+00 -0.78898847042E+02  0.78898847042E+02  0.00000000000E+00 0.  1.
         23    2    1    2    0    0  0.00000000000E+00  0.00000000000E+00 -0.54235634664E+02  0.10356205942E+03  0.88224690897E+02 0.  0.
        -11    1    3    3    0    0  0.58200766428E+01  0.43196215766E+02 -0.35088961770E+02  0.55955532226E+02  0.00000000000E+00 0.  1.
         11    1    3    3    0    0 -0.58200766428E+01 -0.43196215766E+02 -0.19146672894E+02  0.47606527194E+02  0.00000000000E+00 0. -1.
<mgrwt>
<rscale>  0 0.88224691E+02</rscale>
<asrwt>0</asrwt>
<pdfrwt beam="2">  1        2 0.12138284E-01 0.88224691E+02</pdfrwt>
<pdfrwt beam="1">  1       -2 0.37943404E-02 0.88224691E+02</pdfrwt>
<totfact> 0.12532859E+05</totfact>
</mgrwt>
</event>
<event>
 5    1  0.6222456E+000  0.8980891E+02  0.7546771E-02  0.1303315E+00
         -2   -1    0    0    0  501 -0.00000000000E+00  0.00000000000E+00  0.42177480082E+02  0.42177480082E+02  0.00000000000E+00 0. -1.
          2   -1    0    0  501    0  0.00000000000E+00 -0.00000000000E+00 -0.47807742414E+02  0.47807742414E+02  0.00000000000E+00 0.  1.
         23    2    1    2    0    0  0.00000000000E+00  0.00000000000E+00 -0.56302623317E+01  0.89985222496E+02  0.89808910547E+02 0.  0.
        -11    1    3    3    0    0  0.18605607447E+02  0.15556876715E+02 -0.40681188796E+02  0.47361842906E+02  0.00000000000E+00 0.  1.
         11    1    3    3    0    0 -0.18605607447E+02 -0.15556876715E+02  0.35050926465E+02  0.42623379590E+02  0.00000000000E+00 0. -1.
<mgrwt>
<rscale>  0 0.89808911E+02</rscale>
<asrwt>0</asrwt>
<pdfrwt beam="2">  1        2 0.73550373E-02 0.89808911E+02</pdfrwt>
<pdfrwt beam="1">  1       -2 0.64888431E-02 0.89808911E+02</pdfrwt>
<totfact> 0.10430609E+05</totfact>
</mgrwt>
</event>
<event>
 5    1  0.6222456E+000  0.9292853E+02  0.7546771E-02  0.1295911E+00
          1   -1    0    0  501    0  0.00000000000E+00  0.00000000000E+00  0.58467884577E+01  0.58467884577E+01  0.00000000000E+00 0. -1.
         -1   -1    0    0    0  501 -0.00000000000E+00 -0.00000000000E+00 -0.36925025091E+03  0.36925025091E+03  0.00000000000E+00 0.  1.
         23    2    1    2    0    0  0.00000000000E+00  0.00000000000E+00 -0.36340346245E+03  0.37509703937E+03  0.92928533939E+02 0.  0.
        -11    1    3    3    0    0 -0.44497088617E+02 -0.59685569815E+00 -0.23564188038E+03  0.23980709522E+03  0.00000000000E+00 0. -1.
         11    1    3    3    0    0  0.44497088617E+02  0.59685569815E+00 -0.12776158208E+03  0.13528994415E+03  0.00000000000E+00 0.  1.
<mgrwt>
<rscale>  0 0.92928534E+02</rscale>
<asrwt>0</asrwt>
<pdfrwt beam="1">  1        1 0.89950583E-03 0.92928534E+02</pdfrwt>
<pdfrwt beam="2">  1       -1 0.56807737E-01 0.92928534E+02</pdfrwt>
<totfact> 0.52712913E+04</totfact>
</mgrwt>
</event>
<event>
 5    1  0.6222456E+000  0.9013776E+02  0.7546771E-02  0.1302518E+00
         -2   -1    0    0    0  501 -0.00000000000E+00  0.00000000000E+00  0.49806794424E+02  0.49806794424E+02  0.00000000000E+00 0.  1.
          2   -1    0    0  501    0  0.00000000000E+00 -0.00000000000E+00 -0.40781665935E+02  0.40781665935E+02  0.00000000000E+00 0. -1.
         23    2    1    2    0    0  0.00000000000E+00  0.00000000000E+00  0.90251284888E+01  0.90588460359E+02  0.90137762375E+02 0.  0.
        -11    1    3    3    0    0 -0.34829544985E+01  0.23764179386E+02  0.42839015711E+02  0.49112610000E+02  0.00000000000E+00 0.  1.
         11    1    3    3    0    0  0.34829544985E+01 -0.23764179386E+02 -0.33813887222E+02  0.41475850359E+02  0.00000000000E+00 0. -1.
<mgrwt>
<rscale>  0 0.90137762E+02</rscale>
<asrwt>0</asrwt>
<pdfrwt beam="2">  1        2 0.62741025E-02 0.90137762E+02</pdfrwt>
<pdfrwt beam="1">  1       -2 0.76625837E-02 0.90137762E+02</pdfrwt>
<totfact> 0.99092627E+04</totfact>
</mgrwt>
</event>
<event>
 5    1  0.6222456E+000  0.9186382E+02  0.7546771E-02  0.1298400E+00
          1   -1    0    0  501    0  0.00000000000E+00  0.00000000000E+00  0.12299715578E+02  0.12299715578E+02  0.00000000000E+00 0. -1.
         -1   -1    0    0    0  501 -0.00000000000E+00 -0.00000000000E+00 -0.17152757773E+03  0.17152757773E+03  0.00000000000E+00 0.  1.
         23    2    1    2    0    0  0.00000000000E+00  0.00000000000E+00 -0.15922786215E+03  0.18382729330E+03  0.91863821382E+02 0.  0.
        -11    1    3    3    0    0 -0.33553154859E+02 -0.29509353670E+02 -0.10089744686E+03  0.11034904140E+03  0.00000000000E+00 0.  1.
         11    1    3    3    0    0  0.33553154859E+02  0.29509353670E+02 -0.58330415283E+02  0.73478251899E+02  0.00000000000E+00 0. -1.
<mgrwt>
<rscale>  0 0.91863821E+02</rscale>
<asrwt>0</asrwt>
<pdfrwt beam="1">  1        1 0.18922640E-02 0.91863821E+02</pdfrwt>
<pdfrwt beam="2">  1       -1 0.26388857E-01 0.91863821E+02</pdfrwt>
<totfact> 0.70972426E+04</totfact>
</mgrwt>
</event>
<event>
 5    1  0.6222456E+000  0.9086127E+02  0.7546771E-02  0.1300779E+00
          2   -1    0    0  501    0  0.00000000000E+00  0.00000000000E+00  0.28295370099E+03  0.28295370099E+03  0.00000000000E+00 0.  1.
         -2   -1    0    0    0  501 -0.00000000000E+00 -0.00000000000E+00 -0.72942774397E+01  0.72942774397E+01  0.00000000000E+00 0. -1.
         23    2    1    2    0    0  0.00000000000E+00  0.00000000000E+00  0.27565942355E+03  0.29024797843E+03  0.90861274426E+02 0.  0.
        -11    1    3    3    0    0  0.37762177787E+02 -0.86856801196E+01  0.62066348959E+02  0.73168673512E+02  0.00000000000E+00 0. -1.
         11    1    3    3    0    0 -0.37762177787E+02  0.86856801196E+01  0.21359307459E+03  0.21707930492E+03  0.00000000000E+00 0.  1.
<mgrwt>
<rscale>  0 0.90861274E+02</rscale>
<asrwt>0</asrwt>
<pdfrwt beam="1">  1        2 0.43531330E-01 0.90861274E+02</pdfrwt>
<pdfrwt beam="2">  1       -2 0.11221967E-02 0.90861274E+02</pdfrwt>
<totfact> 0.17741919E+05</totfact>
</mgrwt>
</event>
<event>
 5    1  0.6222456E+000  0.9140076E+02  0.7546771E-02  0.1299495E+00
         -4   -1    0    0    0  501 -0.00000000000E+00  0.00000000000E+00  0.66381179153E+01  0.66381179153E+01  0.00000000000E+00 0. -1.
          4   -1    0    0  501    0  0.00000000000E+00 -0.00000000000E+00 -0.31462603640E+03  0.31462603640E+03  0.00000000000E+00 0.  1.
         23    2    1    2    0    0  0.00000000000E+00  0.00000000000E+00 -0.30798791848E+03  0.32126415431E+03  0.91400759928E+02 0.  0.
        -11    1    3    3    0    0 -0.24102837839E+02  0.38506508209E+02 -0.17150744162E+03  0.17742181517E+03  0.00000000000E+00 0.  1.
         11    1    3    3    0    0  0.24102837839E+02 -0.38506508209E+02 -0.13648047687E+03  0.14384233915E+03  0.00000000000E+00 0. -1.
<mgrwt>
<rscale>  0 0.91400760E+02</rscale>
<asrwt>0</asrwt>
<pdfrwt beam="2">  1        4 0.48404003E-01 0.91400760E+02</pdfrwt>
<pdfrwt beam="1">  1       -4 0.10212490E-02 0.91400760E+02</pdfrwt>
<totfact> 0.17078832E+04</totfact>
</mgrwt>
</event>
<event>
 5    1  0.6222456E+000  0.8918799E+02  0.7546771E-02  0.1304830E+00
         -1   -1    0    0    0  501 -0.00000000000E+00  0.00000000000E+00  0.21938164727E+02  0.21938164727E+02  0.00000000000E+00 0.  1.
          1   -1    0    0  501    0  0.00000000000E+00 -0.00000000000E+00 -0.90646800108E+02  0.90646800108E+02  0.00000000000E+00 0. -1.
         23    2    1    2    0    0  0.00000000000E+00  0.00000000000E+00 -0.68708635380E+02  0.11258496483E+03  0.89187990958E+02 0.  0.
        -11    1    3    3    0    0  0.12798482061E+02  0.26810438832E+02  0.76270152800E+01  0.30672008991E+02  0.00000000000E+00 0.  1.
         11    1    3    3    0    0 -0.12798482061E+02 -0.26810438832E+02 -0.76335650660E+02  0.81912955844E+02  0.00000000000E+00 0. -1.
<mgrwt>
<rscale>  0 0.89187991E+02</rscale>
<asrwt>0</asrwt>
<pdfrwt beam="2">  1        1 0.13945662E-01 0.89187991E+02</pdfrwt>
<pdfrwt beam="1">  1       -1 0.33751023E-02 0.89187991E+02</pdfrwt>
<totfact> 0.10915277E+05</totfact>
</mgrwt>
</event>
<event>
 5    1  0.6222456E+000  0.8592117E+02  0.7546771E-02  0.1313041E+00
         -1   -1    0    0    0  501 -0.00000000000E+00  0.00000000000E+00  0.34761323963E+02  0.34761323963E+02  0.00000000000E+00 0.  1.
          1   -1    0    0  501    0  0.00000000000E+00 -0.00000000000E+00 -0.53093831681E+02  0.53093831681E+02  0.00000000000E+00 0. -1.
         23    2    1    2    0    0  0.00000000000E+00  0.00000000000E+00 -0.18332507719E+02  0.87855155644E+02  0.85921170464E+02 0.  0.
        -11    1    3    3    0    0  0.27450967143E+02 -0.27313855879E+02  0.98537727048E+01  0.39958718155E+02  0.00000000000E+00 0.  1.
         11    1    3    3    0    0 -0.27450967143E+02  0.27313855879E+02 -0.28186280424E+02  0.47896437489E+02  0.00000000000E+00 0. -1.
<mgrwt>
<rscale>  0 0.85921170E+02</rscale>
<asrwt>0</asrwt>
<pdfrwt beam="2">  1        1 0.81682818E-02 0.85921170E+02</pdfrwt>
<pdfrwt beam="1">  1       -1 0.53478960E-02 0.85921170E+02</pdfrwt>
<totfact> 0.11154213E+05</totfact>
</mgrwt>
</event>
<event>
 5    1  0.6222456E+000  0.9072309E+02  0.7546771E-02  0.1301110E+00
          1   -1    0    0  501    0  0.00000000000E+00  0.00000000000E+00  0.11322918665E+02  0.11322918665E+02  0.00000000000E+00 0. -1.
         -1   -1    0    0    0  501 -0.00000000000E+00 -0.00000000000E+00 -0.18172607953E+03  0.18172607953E+03  0.00000000000E+00 0.  1.
         23    2    1    2    0    0  0.00000000000E+00  0.00000000000E+00 -0.17040316086E+03  0.19304899819E+03  0.90723086761E+02 0.  0.
        -11    1    3    3    0    0 -0.43886316033E+02 -0.22216493828E+01 -0.10915575183E+03  0.11766869855E+03  0.00000000000E+00 0.  1.
         11    1    3    3    0    0  0.43886316033E+02  0.22216493828E+01 -0.61247409028E+02  0.75380299639E+02  0.00000000000E+00 0. -1.
<mgrwt>
<rscale>  0 0.90723087E+02</rscale>
<asrwt>0</asrwt>
<pdfrwt beam="1">  1        1 0.17419876E-02 0.90723087E+02</pdfrwt>
<pdfrwt beam="2">  1       -1 0.27957857E-01 0.90723087E+02</pdfrwt>
<totfact> 0.72219132E+04</totfact>
</mgrwt>
</event>
<event>
 5    1  0.6222456E+000  0.9202563E+02  0.7546771E-02  0.1298019E+00
          1   -1    0    0  501    0  0.00000000000E+00  0.00000000000E+00  0.72133037534E+01  0.72133037534E+01  0.00000000000E+00 0. -1.
         -1   -1    0    0    0  501 -0.00000000000E+00 -0.00000000000E+00 -0.29351031829E+03  0.29351031829E+03  0.00000000000E+00 0.  1.
         23    2    1    2    0    0  0.00000000000E+00  0.00000000000E+00 -0.28629701453E+03  0.30072362204E+03  0.92025628616E+02 0.  0.
        -11    1    3    3    0    0 -0.15371382737E+02 -0.43312031202E+02 -0.15043189140E+03  0.15729578953E+03  0.00000000000E+00 0.  1.
         11    1    3    3    0    0  0.15371382737E+02  0.43312031202E+02 -0.13586512313E+03  0.14342783251E+03  0.00000000000E+00 0. -1.
<mgrwt>
<rscale>  0 0.92025629E+02</rscale>
<asrwt>0</asrwt>
<pdfrwt beam="1">  1        1 0.11097391E-02 0.92025629E+02</pdfrwt>
<pdfrwt beam="2">  1       -1 0.45155433E-01 0.92025629E+02</pdfrwt>
<totfact> 0.59641381E+04</totfact>
</mgrwt>
</event>
<event>
 5    1  0.6222456E+000  0.9274663E+02  0.7546771E-02  0.1296333E+00
         -4   -1    0    0    0  501 -0.00000000000E+00  0.00000000000E+00  0.21433560134E+03  0.21433560134E+03  0.00000000000E+00 0.  1.
          4   -1    0    0  501    0  0.00000000000E+00 -0.00000000000E+00 -0.10033257685E+02  0.10033257685E+02  0.00000000000E+00 0. -1.
         23    2    1    2    0    0  0.00000000000E+00  0.00000000000E+00  0.20430234366E+03  0.22436885903E+03  0.92746629466E+02 0.  0.
        -11    1    3    3    0    0  0.29547750813E+02 -0.29192477232E+02  0.15203597104E+03  0.15760776249E+03  0.00000000000E+00 0.  1.
         11    1    3    3    0    0 -0.29547750813E+02  0.29192477232E+02  0.52266372615E+02  0.66761096541E+02  0.00000000000E+00 0. -1.
<mgrwt>
<rscale>  0 0.92746629E+02</rscale>
<asrwt>0</asrwt>
<pdfrwt beam="2">  1        4 0.15435783E-02 0.92746629E+02</pdfrwt>
<pdfrwt beam="1">  1       -4 0.32974705E-01 0.92746629E+02</pdfrwt>
<totfact> 0.19497115E+04</totfact>
</mgrwt>
</event>
<event>
 5    1  0.6222456E+000  0.9034623E+02  0.7546771E-02  0.1302015E+00
          2   -1    0    0  501    0  0.00000000000E+00  0.00000000000E+00  0.17886020193E+02  0.17886020193E+02  0.00000000000E+00 0. -1.
         -2   -1    0    0    0  501 -0.00000000000E+00 -0.00000000000E+00 -0.11408967561E+03  0.11408967561E+03  0.00000000000E+00 0.  1.
         23    2    1    2    0    0  0.00000000000E+00  0.00000000000E+00 -0.96203655420E+02  0.13197569581E+03  0.90346228296E+02 0.  0.
        -11    1    3    3    0    0 -0.26454020695E+02 -0.65905967190E+01  0.45137119511E+01  0.27633761445E+02  0.00000000000E+00 0. -1.
         11    1    3    3    0    0  0.26454020695E+02  0.65905967190E+01 -0.10071736737E+03  0.10434193436E+03  0.00000000000E+00 0.  1.
<mgrwt>
<rscale>  0 0.90346228E+02</rscale>
<asrwt>0</asrwt>
<pdfrwt beam="1">  1        2 0.27516955E-02 0.90346228E+02</pdfrwt>
<pdfrwt beam="2">  1       -2 0.17552257E-01 0.90346228E+02</pdfrwt>
<totfact> 0.78419047E+04</totfact>
</mgrwt>
</event>
<event>
 5    1  0.6222456E+000  0.9044425E+02  0.7546771E-02  0.1301779E+00
         -2   -1    0    0    0  501 -0.00000000000E+00  0.00000000000E+00  0.40929494507E+02  0.40929494507E+02  0.00000000000E+00 0.  1.
          2   -1    0    0  501    0  0.00000000000E+00 -0.00000000000E+00 -0.49964962383E+02  0.49964962383E+02  0.00000000000E+00 0. -1.
         23    2    1    2    0    0  0.00000000000E+00  0.00000000000E+00 -0.90354678761E+01  0.90894456889E+02  0.90444251412E+02 0.  0.
        -11    1    3    3    0    0 -0.33630862155E+02  0.23130909289E+02 -0.24081705032E+02  0.47392007460E+02  0.00000000000E+00 0.  1.
         11    1    3    3    0    0  0.33630862155E+02 -0.23130909289E+02  0.15046237156E+02  0.43502449429E+02  0.00000000000E+00 0. -1.
<mgrwt>
<rscale>  0 0.90444251E+02</rscale>
<asrwt>0</asrwt>
<pdfrwt beam="2">  1        2 0.76869172E-02 0.90444251E+02</pdfrwt>
<pdfrwt beam="1">  1       -2 0.62968454E-02 0.90444251E+02</pdfrwt>
<totfact> 0.10340773E+05</totfact>
</mgrwt>
</event>
<event>
 5    1  0.6222456E+000  0.8903212E+02  0.7546771E-02  0.1305213E+00
         -1   -1    0    0    0  501 -0.00000000000E+00  0.00000000000E+00  0.10750688256E+03  0.10750688256E+03  0.00000000000E+00 0.  1.
          1   -1    0    0  501    0  0.00000000000E+00 -0.00000000000E+00 -0.18433047743E+02  0.18433047743E+02  0.00000000000E+00 0. -1.
         23    2    1    2    0    0  0.00000000000E+00  0.00000000000E+00  0.89073834818E+02  0.12593993030E+03  0.89032117776E+02 0.  0.
        -11    1    3    3    0    0  0.44066409613E+02 -0.17550912075E+01  0.35961613141E+02  0.56904889254E+02  0.00000000000E+00 0.  1.
         11    1    3    3    0    0 -0.44066409613E+02  0.17550912075E+01  0.53112221677E+02  0.69035041050E+02  0.00000000000E+00 0. -1.
<mgrwt>
<rscale>  0 0.89032118E+02</rscale>
<asrwt>0</asrwt>
<pdfrwt beam="2">  1        1 0.28358535E-02 0.89032118E+02</pdfrwt>
<pdfrwt beam="1">  1       -1 0.16539520E-01 0.89032118E+02</pdfrwt>
<totfact> 0.85338892E+04</totfact>
</mgrwt>
</event>
<event>
 5    1  0.6222456E+000  0.8841726E+02  0.7546771E-02  0.1306730E+00
         -1   -1    0    0    0  501 -0.00000000000E+00  0.00000000000E+00  0.16550976713E+02  0.16550976713E+02  0.00000000000E+00 0.  1.
          1   -1    0    0  501    0  0.00000000000E+00 -0.00000000000E+00 -0.11808383874E+03  0.11808383874E+03  0.00000000000E+00 0. -1.
         23    2    1    2    0    0  0.00000000000E+00  0.00000000000E+00 -0.10153286203E+03  0.13463481545E+03  0.88417257708E+02 0.  0.
        -11    1    3    3    0    0 -0.22909420797E+02 -0.20912781464E+02 -0.98731342013E+02  0.10348943852E+03  0.00000000000E+00 0.  1.
         11    1    3    3    0    0  0.22909420797E+02  0.20912781464E+02 -0.28015200136E+01  0.31145376931E+02  0.00000000000E+00 0. -1.
<mgrwt>
<rscale>  0 0.88417258E+02</rscale>
<asrwt>0</asrwt>
<pdfrwt beam="2">  1        1 0.18166744E-01 0.88417258E+02</pdfrwt>
<pdfrwt beam="1">  1       -1 0.25463041E-02 0.88417258E+02</pdfrwt>
<totfact> 0.11675566E+05</totfact>
</mgrwt>
</event>
<event>
 5    1  0.6222456E+000  0.9306678E+02  0.7546771E-02  0.1295590E+00
         -3   -1    0    0    0  501 -0.00000000000E+00  0.00000000000E+00  0.12998152773E+03  0.12998152773E+03  0.00000000000E+00 0.  1.
          3   -1    0    0  501    0  0.00000000000E+00 -0.00000000000E+00 -0.16658955404E+02  0.16658955404E+02  0.00000000000E+00 0. -1.
         23    2    1    2    0    0  0.00000000000E+00  0.00000000000E+00  0.11332257233E+03  0.14664048313E+03  0.93066781909E+02 0.  0.
        -11    1    3    3    0    0 -0.36886076578E+02  0.15438525984E+02  0.94161235211E+02  0.10229989710E+03  0.00000000000E+00 0. -1.
         11    1    3    3    0    0  0.36886076578E+02 -0.15438525984E+02  0.19161337115E+02  0.44340586035E+02  0.00000000000E+00 0.  1.
<mgrwt>
<rscale>  0 0.93066782E+02</rscale>
<asrwt>0</asrwt>
<pdfrwt beam="2">  1        3 0.25629163E-02 0.93066782E+02</pdfrwt>
<pdfrwt beam="1">  1       -3 0.19997157E-01 0.93066782E+02</pdfrwt>
<totfact> 0.29806811E+04</totfact>
</mgrwt>
</event>
<event>
 5    1  0.6222456E+000  0.9742957E+02  0.7546771E-02  0.1285796E+00
          2   -1    0    0  501    0  0.00000000000E+00  0.00000000000E+00  0.32088536752E+02  0.32088536752E+02  0.00000000000E+00 0. -1.
         -2   -1    0    0    0  501 -0.00000000000E+00 -0.00000000000E+00 -0.73955706233E+02  0.73955706233E+02  0.00000000000E+00 0.  1.
         23    2    1    2    0    0  0.00000000000E+00  0.00000000000E+00 -0.41867169481E+02  0.10604424298E+03  0.97429572461E+02 0.  0.
        -11    1    3    3    0    0  0.41286248737E+02  0.19025413550E+02 -0.39992107972E+02  0.60546588637E+02  0.00000000000E+00 0.  1.
         11    1    3    3    0    0 -0.41286248737E+02 -0.19025413550E+02 -0.18750615087E+01  0.45497654348E+02  0.00000000000E+00 0. -1.
<mgrwt>
<rscale>  0 0.97429572E+02</rscale>
<asrwt>0</asrwt>
<pdfrwt beam="1">  1        2 0.49366981E-02 0.97429572E+02</pdfrwt>
<pdfrwt beam="2">  1       -2 0.11377801E-01 0.97429572E+02</pdfrwt>
<totfact> 0.73926140E+04</totfact>
</mgrwt>
</event>
<event>
 5    1  0.6222456E+000  0.9346436E+02  0.7546771E-02  0.1294673E+00
         -2   -1    0    0    0  501 -0.00000000000E+00  0.00000000000E+00  0.61148920538E+02  0.61148920538E+02  0.00000000000E+00 0. -1.
          2   -1    0    0  501    0  0.00000000000E+00 -0.00000000000E+00 -0.35714393155E+02  0.35714393155E+02  0.00000000000E+00 0.  1.
         23    2    1    2    0    0  0.00000000000E+00  0.00000000000E+00  0.25434527383E+02  0.96863313693E+02  0.93464358749E+02 0.  0.
        -11    1    3    3    0    0  0.23640226888E+02  0.61593722018E+01 -0.28569916041E+02  0.37590401644E+02  0.00000000000E+00 0.  1.
         11    1    3    3    0    0 -0.23640226888E+02 -0.61593722018E+01  0.54004443424E+02  0.59272912049E+02  0.00000000000E+00 0. -1.
<mgrwt>
<rscale>  0 0.93464359E+02</rscale>
<asrwt>0</asrwt>
<pdfrwt beam="2">  1        2 0.54945220E-02 0.93464359E+02</pdfrwt>
<pdfrwt beam="1">  1       -2 0.94075262E-02 0.93464359E+02</pdfrwt>
<totfact> 0.86129053E+04</totfact>
</mgrwt>
</event>
<event>
 5    1  0.6222456E+000  0.9268284E+02  0.7546771E-02  0.1296482E+00
         -1   -1    0    0    0  501 -0.00000000000E+00  0.00000000000E+00  0.13542335052E+02  0.13542335052E+02  0.00000000000E+00 0.  1.
          1   -1    0    0  501    0  0.00000000000E+00 -0.00000000000E+00 -0.15857878358E+03  0.15857878358E+03  0.00000000000E+00 0. -1.
         23    2    1    2    0    0  0.00000000000E+00  0.00000000000E+00 -0.14503644853E+03  0.17212111863E+03  0.92682835938E+02 0.  0.
        -11    1    3    3    0    0 -0.45182800567E+02  0.45504622154E+01 -0.55362934803E+02  0.71604795394E+02  0.00000000000E+00 0.  1.
         11    1    3    3    0    0  0.45182800567E+02 -0.45504622154E+01 -0.89673513723E+02  0.10051632324E+03  0.00000000000E+00 0. -1.
<mgrwt>
<rscale>  0 0.92682836E+02</rscale>
<asrwt>0</asrwt>
<pdfrwt beam="2">  1        1 0.24396737E-01 0.92682836E+02</pdfrwt>
<pdfrwt beam="1">  1       -1 0.20834360E-02 0.92682836E+02</pdfrwt>
<totfact> 0.10839123E+05</totfact>
</mgrwt>
</event>
<event>
 5    1  0.6222456E+000  0.8847955E+02  0.7546771E-02  0.1306576E+00
          2   -1    0    0  501    0  0.00000000000E+00  0.00000000000E+00  0.45405796808E+02  0.45405796808E+02  0.00000000000E+00 0. -1.
         -2   -1    0    0    0  501 -0.00000000000E+00 -0.00000000000E+00 -0.43103695362E+02  0.43103695362E+02  0.00000000000E+00 0.  1.
         23    2    1    2    0    0  0.00000000000E+00  0.00000000000E+00  0.23021014460E+01  0.88509492169E+02  0.88479548671E+02 0.  0.
        -11    1    3    3    0    0  0.10300797556E+02  0.10965296075E+01 -0.41873373733E+02  0.43135695604E+02  0.00000000000E+00 0.  1.
         11    1    3    3    0    0 -0.10300797556E+02 -0.10965296075E+01  0.44175475179E+02  0.45373796565E+02  0.00000000000E+00 0. -1.
<mgrwt>
<rscale>  0 0.88479549E+02</rscale>
<asrwt>0</asrwt>
<pdfrwt beam="1">  1        2 0.69855073E-02 0.88479549E+02</pdfrwt>
<pdfrwt beam="2">  1       -2 0.66313377E-02 0.88479549E+02</pdfrwt>
<totfact> 0.10740998E+05</totfact>
</mgrwt>
</event>
<event>
 5    1  0.6222456E+000  0.8999400E+02  0.7546771E-02  0.1302866E+00
          4   -1    0    0  501    0  0.00000000000E+00  0.00000000000E+00  0.10249717454E+03  0.10249717454E+03  0.00000000000E+00 0.  1.
         -4   -1    0    0    0  501 -0.00000000000E+00 -0.00000000000E+00 -0.19754009372E+02  0.19754009372E+02  0.00000000000E+00 0. -1.
         23    2    1    2    0    0  0.00000000000E+00  0.00000000000E+00  0.82743165169E+02  0.12225118391E+03  0.89994003055E+02 0.  0.
        -11    1    3    3    0    0  0.23004275623E+02 -0.35469014056E+02  0.20437434036E+02  0.46956749941E+02  0.00000000000E+00 0. -1.
         11    1    3    3    0    0 -0.23004275623E+02  0.35469014056E+02  0.62305731132E+02  0.75294433971E+02  0.00000000000E+00 0.  1.
<mgrwt>
<rscale>  0 0.89994003E+02</rscale>
<asrwt>0</asrwt>
<pdfrwt beam="1">  1        4 0.15768796E-01 0.89994003E+02</pdfrwt>
<pdfrwt beam="2">  1       -4 0.30390784E-02 0.89994003E+02</pdfrwt>
<totfact> 0.26046089E+04</totfact>
</mgrwt>
</event>
<event>
 5    1  0.6222456E+000  0.8990999E+02  0.7546771E-02  0.1303070E+00
          3   -1    0    0  501    0  0.00000000000E+00  0.00000000000E+00  0.66274379106E+02  0.66274379106E+02  0.00000000000E+00 0. -1.
         -3   -1    0    0    0  501 -0.00000000000E+00 -0.00000000000E+00 -0.30493710506E+02  0.30493710506E+02  0.00000000000E+00 0.  1.
         23    2    1    2    0    0  0.00000000000E+00  0.00000000000E+00  0.35780668600E+02  0.96768089612E+02  0.89909993447E+02 0.  0.
        -11    1    3    3    0    0  0.33809031069E+02 -0.29557629055E+02  0.15672128702E+02  0.47563847986E+02  0.00000000000E+00 0.  1.
         11    1    3    3    0    0 -0.33809031069E+02  0.29557629055E+02  0.20108539898E+02  0.49204241626E+02  0.00000000000E+00 0. -1.
<mgrwt>
<rscale>  0 0.89909993E+02</rscale>
<asrwt>0</asrwt>
<pdfrwt beam="1">  1        3 0.10196058E-01 0.89909993E+02</pdfrwt>
<pdfrwt beam="2">  1       -3 0.46913401E-02 0.89909993E+02</pdfrwt>
<totfact> 0.36265064E+04</totfact>
</mgrwt>
</event>
<event>
 5    1  0.6222456E+000  0.9047341E+02  0.7546771E-02  0.1301709E+00
          1   -1    0    0  501    0  0.00000000000E+00  0.00000000000E+00  0.91250510591E+01  0.91250510591E+01  0.00000000000E+00 0. -1.
         -1   -1    0    0    0  501 -0.00000000000E+00 -0.00000000000E+00 -0.22425732401E+03  0.22425732401E+03  0.00000000000E+00 0.  1.
         23    2    1    2    0    0  0.00000000000E+00  0.00000000000E+00 -0.21513227295E+03  0.23338237507E+03  0.90473411166E+02 0.  0.
        -11    1    3    3    0    0  0.24620396296E+02 -0.30254707668E+02 -0.48469334429E+02  0.62215654218E+02  0.00000000000E+00 0. -1.
         11    1    3    3    0    0 -0.24620396296E+02  0.30254707668E+02 -0.16666293853E+03  0.17116672085E+03  0.00000000000E+00 0.  1.
<mgrwt>
<rscale>  0 0.90473411E+02</rscale>
<asrwt>0</asrwt>
<pdfrwt beam="1">  1        1 0.14038542E-02 0.90473411E+02</pdfrwt>
<pdfrwt beam="2">  1       -1 0.34501123E-01 0.90473411E+02</pdfrwt>
<totfact> 0.68460766E+04</totfact>
</mgrwt>
</event>
<event>
 5    1  0.6222456E+000  0.9455762E+02  0.7546771E-02  0.1292176E+00
         -1   -1    0    0    0  501 -0.00000000000E+00  0.00000000000E+00  0.48243375623E+02  0.48243375623E+02  0.00000000000E+00 0.  1.
          1   -1    0    0  501    0  0.00000000000E+00 -0.00000000000E+00 -0.46333529023E+02  0.46333529023E+02  0.00000000000E+00 0. -1.
         23    2    1    2    0    0  0.00000000000E+00  0.00000000000E+00  0.19098466001E+01  0.94576904646E+02  0.94557619356E+02 0.  0.
        -11    1    3    3    0    0 -0.35889152339E+02 -0.29252373450E+02  0.10525220337E+02  0.47481710913E+02  0.00000000000E+00 0.  1.
         11    1    3    3    0    0  0.35889152339E+02  0.29252373450E+02 -0.86153737372E+01  0.47095193733E+02  0.00000000000E+00 0. -1.
<mgrwt>
<rscale>  0 0.94557619E+02</rscale>
<asrwt>0</asrwt>
<pdfrwt beam="2">  1        1 0.71282352E-02 0.94557619E+02</pdfrwt>
<pdfrwt beam="1">  1       -1 0.74220578E-02 0.94557619E+02</pdfrwt>
<totfact> 0.83665763E+04</totfact>
</mgrwt>
</event>
<event>
 5    1  0.6222456E+000  0.9047893E+02  0.7546771E-02  0.1301696E+00
         -1   -1    0    0    0  501 -0.00000000000E+00  0.00000000000E+00  0.94398522661E+01  0.94398522661E+01  0.00000000000E+00 0.  1.
          1   -1    0    0  501    0  0.00000000000E+00 -0.00000000000E+00 -0.21680519512E+03  0.21680519512E+03  0.00000000000E+00 0. -1.
         23    2    1    2    0    0  0.00000000000E+00  0.00000000000E+00 -0.20736534285E+03  0.22624504739E+03  0.90478925998E+02 0.  0.
        -11    1    3    3    0    0  0.13181033049E+02  0.39587409706E+02 -0.14740304765E+03  0.15319452045E+03  0.00000000000E+00 0. -1.
         11    1    3    3    0    0 -0.13181033049E+02 -0.39587409706E+02 -0.59962295205E+02  0.73050526937E+02  0.00000000000E+00 0.  1.
<mgrwt>
<rscale>  0 0.90478926E+02</rscale>
<asrwt>0</asrwt>
<pdfrwt beam="2">  1        1 0.33354641E-01 0.90478926E+02</pdfrwt>
<pdfrwt beam="1">  1       -1 0.14522852E-02 0.90478926E+02</pdfrwt>
<totfact> 0.12277802E+05</totfact>
</mgrwt>
</event>
<event>
 5    1  0.6222456E+000  0.9200757E+02  0.7546771E-02  0.1298062E+00
          2   -1    0    0  501    0  0.00000000000E+00  0.00000000000E+00  0.24717278028E+03  0.24717278028E+03  0.00000000000E+00 0. -1.
         -2   -1    0    0    0  501 -0.00000000000E+00 -0.00000000000E+00 -0.85622220947E+01  0.85622220947E+01  0.00000000000E+00 0.  1.
         23    2    1    2    0    0  0.00000000000E+00  0.00000000000E+00  0.23861055818E+03  0.25573500237E+03  0.92007570134E+02 0.  0.
        -11    1    3    3    0    0 -0.24962412065E+02 -0.38447994260E+02  0.10854823443E+03  0.11783076626E+03  0.00000000000E+00 0.  1.
         11    1    3    3    0    0  0.24962412065E+02  0.38447994260E+02  0.13006232375E+03  0.13790423612E+03  0.00000000000E+00 0. -1.
<mgrwt>
<rscale>  0 0.92007570E+02</rscale>
<asrwt>0</asrwt>
<pdfrwt beam="1">  1        2 0.38026576E-01 0.92007570E+02</pdfrwt>
<pdfrwt beam="2">  1       -2 0.13172651E-02 0.92007570E+02</pdfrwt>
<totfact> 0.16313850E+05</totfact>
</mgrwt>
</event>
<event>
 5    1  0.6222456E+000  0.9103910E+02  0.7546771E-02  0.1300355E+00
         -2   -1    0    0    0  501 -0.00000000000E+00  0.00000000000E+00  0.10584674969E+02  0.10584674969E+02  0.00000000000E+00 0.  1.
          2   -1    0    0  501    0  0.00000000000E+00 -0.00000000000E+00 -0.19575750650E+03  0.19575750650E+03  0.00000000000E+00 0. -1.
         23    2    1    2    0    0  0.00000000000E+00  0.00000000000E+00 -0.18517283153E+03  0.20634218147E+03  0.91039103226E+02 0.  0.
        -11    1    3    3    0    0 -0.40978782449E+02 -0.19818325674E+02 -0.92709216766E+02  0.10328129316E+03  0.00000000000E+00 0.  1.
         11    1    3    3    0    0  0.40978782449E+02  0.19818325674E+02 -0.92463614765E+02  0.10306088831E+03  0.00000000000E+00 0. -1.
<mgrwt>
<rscale>  0 0.91039103E+02</rscale>
<asrwt>0</asrwt>
<pdfrwt beam="2">  1        2 0.30116538E-01 0.91039103E+02</pdfrwt>
<pdfrwt beam="1">  1       -2 0.16284116E-02 0.91039103E+02</pdfrwt>
<totfact> 0.15411377E+05</totfact>
</mgrwt>
</event>
<event>
 4    1  0.6222456E+000  0.4638935E+02  0.7546771E-02  0.1465850E+00
         -1   -1    0    0    0  501 -0.00000000000E+00  0.00000000000E+00  0.54118231552E+01  0.54118231552E+01  0.00000000000E+00 0.  1.
          1   -1    0    0  501    0  0.00000000000E+00 -0.00000000000E+00 -0.99410665218E+02  0.99410665218E+02  0.00000000000E+00 0. -1.
        -11    1    1    2    0    0 -0.50075130643E+01 -0.19224620531E+02 -0.19946925443E+02  0.28152105717E+02  0.00000000000E+00 0. -1.
         11    1    1    2    0    0  0.50075130643E+01  0.19224620531E+02 -0.74051916619E+02  0.76670382656E+02  0.00000000000E+00 0.  1.
<mgrwt>
<rscale>  0 0.46389350E+02</rscale>
<asrwt>0</asrwt>
<pdfrwt beam="2">  1        1 0.15293948E-01 0.46389350E+02</pdfrwt>
<pdfrwt beam="1">  1       -1 0.83258823E-03 0.46389350E+02</pdfrwt>
<totfact> 0.60904799E+05</totfact>
</mgrwt>
</event>
<event>
 5    1  0.6222456E+000  0.9245529E+02  0.7546771E-02  0.1297012E+00
          1   -1    0    0  501    0  0.00000000000E+00  0.00000000000E+00  0.21276275764E+02  0.21276275764E+02  0.00000000000E+00 0. -1.
         -1   -1    0    0    0  501 -0.00000000000E+00 -0.00000000000E+00 -0.10044029102E+03  0.10044029102E+03  0.00000000000E+00 0.  1.
         23    2    1    2    0    0  0.00000000000E+00  0.00000000000E+00 -0.79164015253E+02  0.12171656678E+03  0.92455293619E+02 0.  0.
        -11    1    3    3    0    0 -0.32204917437E+02 -0.32294843425E+02 -0.29653036772E+02  0.54400516622E+02  0.00000000000E+00 0. -1.
         11    1    3    3    0    0  0.32204917437E+02  0.32294843425E+02 -0.49510978481E+02  0.67316050160E+02  0.00000000000E+00 0.  1.
<mgrwt>
<rscale>  0 0.92455294E+02</rscale>
<asrwt>0</asrwt>
<pdfrwt beam="1">  1        1 0.32732732E-02 0.92455294E+02</pdfrwt>
<pdfrwt beam="2">  1       -1 0.15452352E-01 0.92455294E+02</pdfrwt>
<totfact> 0.78436627E+04</totfact>
</mgrwt>
</event>
<event>
 5    1  0.6222456E+000  0.8663896E+02  0.7546771E-02  0.1311201E+00
         -2   -1    0    0    0  501 -0.00000000000E+00  0.00000000000E+00  0.95361097624E+02  0.95361097624E+02  0.00000000000E+00 0.  1.
          2   -1    0    0  501    0  0.00000000000E+00 -0.00000000000E+00 -0.19678645461E+02  0.19678645461E+02  0.00000000000E+00 0. -1.
         23    2    1    2    0    0  0.00000000000E+00  0.00000000000E+00  0.75682452164E+02  0.11503974309E+03  0.86638957309E+02 0.  0.
        -11    1    3    3    0    0  0.42034784168E+02  0.48828020788E+01  0.25541096209E+02  0.49427850770E+02  0.00000000000E+00 0. -1.
         11    1    3    3    0    0 -0.42034784168E+02 -0.48828020788E+01  0.50141355954E+02  0.65611892315E+02  0.00000000000E+00 0.  1.
<mgrwt>
<rscale>  0 0.86638957E+02</rscale>
<asrwt>0</asrwt>
<pdfrwt beam="2">  1        2 0.30274840E-02 0.86638957E+02</pdfrwt>
<pdfrwt beam="1">  1       -2 0.14670938E-01 0.86638957E+02</pdfrwt>
<totfact> 0.91865202E+04</totfact>
</mgrwt>
</event>
<event>
 5    1  0.6222456E+000  0.9098860E+02  0.7546771E-02  0.1300475E+00
         -1   -1    0    0    0  501 -0.00000000000E+00  0.00000000000E+00  0.10756411413E+03  0.10756411413E+03  0.00000000000E+00 0.  1.
          1   -1    0    0  501    0  0.00000000000E+00 -0.00000000000E+00 -0.19241836884E+02  0.19241836884E+02  0.00000000000E+00 0. -1.
         23    2    1    2    0    0  0.00000000000E+00  0.00000000000E+00  0.88322277249E+02  0.12680595102E+03  0.90988595741E+02 0.  0.
        -11    1    3    3    0    0 -0.70844356738E+01  0.43664212641E+02  0.29347884671E+02  0.53085318394E+02  0.00000000000E+00 0. -1.
         11    1    3    3    0    0  0.70844356738E+01 -0.43664212641E+02  0.58974392577E+02  0.73720632622E+02  0.00000000000E+00 0.  1.
<mgrwt>
<rscale>  0 0.90988596E+02</rscale>
<asrwt>0</asrwt>
<pdfrwt beam="2">  1        1 0.29602827E-02 0.90988596E+02</pdfrwt>
<pdfrwt beam="1">  1       -1 0.16548325E-01 0.90988596E+02</pdfrwt>
<totfact> 0.80684314E+04</totfact>
</mgrwt>
</event>
<event>
 5    1  0.6222456E+000  0.1123726E+03  0.7546771E-02  0.1256238E+00
          1   -1    0    0  501    0  0.00000000000E+00  0.00000000000E+00  0.19591241072E+03  0.19591241072E+03  0.00000000000E+00 0. -1.
         -1   -1    0    0    0  501 -0.00000000000E+00 -0.00000000000E+00 -0.16113846615E+02  0.16113846615E+02  0.00000000000E+00 0.  1.
         23    2    1    2    0    0  0.00000000000E+00  0.00000000000E+00  0.17979856410E+03  0.21202625733E+03  0.11237263966E+03 0.  0.
        -11    1    3    3    0    0  0.30600631805E+02  0.19227532736E+02  0.87266745707E+01  0.37178643480E+02  0.00000000000E+00 0.  1.
         11    1    3    3    0    0 -0.30600631805E+02 -0.19227532736E+02  0.17107188953E+03  0.17484761385E+03  0.00000000000E+00 0. -1.
<mgrwt>
<rscale>  0 0.11237264E+03</rscale>
<asrwt>0</asrwt>
<pdfrwt beam="1">  1        1 0.30140369E-01 0.11237264E+03</pdfrwt>
<pdfrwt beam="2">  1       -1 0.24790535E-02 0.11237264E+03</pdfrwt>
<totfact> 0.66851056E+04</totfact>
</mgrwt>
</event>
<event>
 5    1  0.6222456E+000  0.9201232E+02  0.7546771E-02  0.1298050E+00
         -1   -1    0    0    0  501 -0.00000000000E+00  0.00000000000E+00  0.19648976586E+02  0.19648976586E+02  0.00000000000E+00 0.  1.
          1   -1    0    0  501    0  0.00000000000E+00 -0.00000000000E+00 -0.10771893707E+03  0.10771893707E+03  0.00000000000E+00 0. -1.
         23    2    1    2    0    0  0.00000000000E+00  0.00000000000E+00 -0.88069960480E+02  0.12736791365E+03  0.92012322486E+02 0.  0.
        -11    1    3    3    0    0  0.13724261765E+02 -0.15460306481E+02 -0.10092726155E+03  0.10302275749E+03  0.00000000000E+00 0. -1.
         11    1    3    3    0    0 -0.13724261765E+02  0.15460306481E+02  0.12857301072E+02  0.24345156158E+02  0.00000000000E+00 0.  1.
<mgrwt>
<rscale>  0 0.92012322E+02</rscale>
<asrwt>0</asrwt>
<pdfrwt beam="2">  1        1 0.16572144E-01 0.92012322E+02</pdfrwt>
<pdfrwt beam="1">  1       -1 0.30229195E-02 0.92012322E+02</pdfrwt>
<totfact> 0.10316698E+05</totfact>
</mgrwt>
</event>
<event>
 5    1  0.6222456E+000  0.9286681E+02  0.7546771E-02  0.1296054E+00
          1   -1    0    0  501    0  0.00000000000E+00  0.00000000000E+00  0.32392289434E+03  0.32392289434E+03  0.00000000000E+00 0. -1.
         -1   -1    0    0    0  501 -0.00000000000E+00 -0.00000000000E+00 -0.66560939010E+01  0.66560939010E+01  0.00000000000E+00 0.  1.
         23    2    1    2    0    0  0.00000000000E+00  0.00000000000E+00  0.31726680044E+03  0.33057898824E+03  0.92866812186E+02 0.  0.
        -11    1    3    3    0    0 -0.18524443701E+02  0.37305560078E+02  0.23169002400E+03  0.23540417806E+03  0.00000000000E+00 0. -1.
         11    1    3    3    0    0  0.18524443701E+02 -0.37305560078E+02  0.85576776436E+02  0.95174810177E+02  0.00000000000E+00 0.  1.
<mgrwt>
<rscale>  0 0.92866812E+02</rscale>
<asrwt>0</asrwt>
<pdfrwt beam="1">  1        1 0.49834279E-01 0.92866812E+02</pdfrwt>
<pdfrwt beam="2">  1       -1 0.10240147E-02 0.92866812E+02</pdfrwt>
<totfact> 0.12377473E+05</totfact>
</mgrwt>
</event>
<event>
 5    1  0.6222456E+000  0.9077098E+02  0.7546771E-02  0.1300995E+00
          1   -1    0    0  501    0  0.00000000000E+00  0.00000000000E+00  0.53026411922E+02  0.53026411922E+02  0.00000000000E+00 0. -1.
         -1   -1    0    0    0  501 -0.00000000000E+00 -0.00000000000E+00 -0.38845602514E+02  0.38845602514E+02  0.00000000000E+00 0.  1.
         23    2    1    2    0    0  0.00000000000E+00  0.00000000000E+00  0.14180809408E+02  0.91872014435E+02  0.90770984797E+02 0.  0.
        -11    1    3    3    0    0  0.44054763300E+02  0.70519752758E+01  0.15515459070E+02  0.47236447738E+02  0.00000000000E+00 0. -1.
         11    1    3    3    0    0 -0.44054763300E+02 -0.70519752758E+01 -0.13346496617E+01  0.44635566698E+02  0.00000000000E+00 0.  1.
<mgrwt>
<rscale>  0 0.90770985E+02</rscale>
<asrwt>0</asrwt>
<pdfrwt beam="1">  1        1 0.81579096E-02 0.90770985E+02</pdfrwt>
<pdfrwt beam="2">  1       -1 0.59762465E-02 0.90770985E+02</pdfrwt>
<totfact> 0.95777637E+04</totfact>
</mgrwt>
</event>
<event>
 5    1  0.6222456E+000  0.9158364E+02  0.7546771E-02  0.1299061E+00
          2   -1    0    0  501    0  0.00000000000E+00  0.00000000000E+00  0.69575355099E+02  0.69575355099E+02  0.00000000000E+00 0. -1.
         -2   -1    0    0    0  501 -0.00000000000E+00 -0.00000000000E+00 -0.30138411327E+02  0.30138411327E+02  0.00000000000E+00 0.  1.
         23    2    1    2    0    0  0.00000000000E+00  0.00000000000E+00  0.39436943772E+02  0.99713766426E+02  0.91583637626E+02 0.  0.
        -11    1    3    3    0    0 -0.12245779226E+02  0.41515163672E+02  0.35992719698E+02  0.56293372566E+02  0.00000000000E+00 0. -1.
         11    1    3    3    0    0  0.12245779226E+02 -0.41515163672E+02  0.34442240733E+01  0.43420393861E+02  0.00000000000E+00 0.  1.
<mgrwt>
<rscale>  0 0.91583638E+02</rscale>
<asrwt>0</asrwt>
<pdfrwt beam="1">  1        2 0.10703901E-01 0.91583638E+02</pdfrwt>
<pdfrwt beam="2">  1       -2 0.46366787E-02 0.91583638E+02</pdfrwt>
<totfact> 0.10906421E+05</totfact>
</mgrwt>
</event>
<event>
 5    1  0.6222456E+000  0.9073353E+02  0.7546771E-02  0.1301085E+00
          2   -1    0    0  501    0  0.00000000000E+00  0.00000000000E+00  0.39866351762E+03  0.39866351762E+03  0.00000000000E+00 0. -1.
         -2   -1    0    0    0  501 -0.00000000000E+00 -0.00000000000E+00 -0.51626077773E+01  0.51626077773E+01  0.00000000000E+00 0.  1.
         23    2    1    2    0    0  0.00000000000E+00  0.00000000000E+00  0.39350090985E+03  0.40382612540E+03  0.90733530221E+02 0.  0.
        -11    1    3    3    0    0 -0.38588142216E+02  0.23855161934E+02  0.19598078211E+03  0.20116306924E+03  0.00000000000E+00 0. -1.
         11    1    3    3    0    0  0.38588142216E+02 -0.23855161934E+02  0.19752012774E+03  0.20266305616E+03  0.00000000000E+00 0.  1.
<mgrwt>
<rscale>  0 0.90733530E+02</rscale>
<asrwt>0</asrwt>
<pdfrwt beam="1">  1        2 0.61332825E-01 0.90733530E+02</pdfrwt>
<pdfrwt beam="2">  1       -2 0.79424766E-03 0.90733530E+02</pdfrwt>
<totfact> 0.20198177E+05</totfact>
</mgrwt>
</event>
<event>
 5    1  0.6222456E+000  0.9241929E+02  0.7546771E-02  0.1297097E+00
          2   -1    0    0  501    0  0.00000000000E+00  0.00000000000E+00  0.73813484754E+02  0.73813484754E+02  0.00000000000E+00 0. -1.
         -2   -1    0    0    0  501 -0.00000000000E+00 -0.00000000000E+00 -0.28928742806E+02  0.28928742806E+02  0.00000000000E+00 0.  1.
         23    2    1    2    0    0  0.00000000000E+00  0.00000000000E+00  0.44884741949E+02  0.10274222756E+03  0.92419290542E+02 0.  0.
        -11    1    3    3    0    0  0.11752881062E+02 -0.58914903758E+01 -0.26805814428E+02  0.29856181257E+02  0.00000000000E+00 0.  1.
         11    1    3    3    0    0 -0.11752881062E+02  0.58914903758E+01  0.71690556377E+02  0.72886046303E+02  0.00000000000E+00 0. -1.
<mgrwt>
<rscale>  0 0.92419291E+02</rscale>
<asrwt>0</asrwt>
<pdfrwt beam="1">  1        2 0.11355921E-01 0.92419291E+02</pdfrwt>
<pdfrwt beam="2">  1       -2 0.44505758E-02 0.92419291E+02</pdfrwt>
<totfact> 0.10809814E+05</totfact>
</mgrwt>
</event>
<event>
 5    1  0.6222456E+000  0.9134325E+02  0.7546771E-02  0.1299631E+00
          1   -1    0    0  501    0  0.00000000000E+00  0.00000000000E+00  0.17438502195E+02  0.17438502195E+02  0.00000000000E+00 0. -1.
         -1   -1    0    0    0  501 -0.00000000000E+00 -0.00000000000E+00 -0.11961448028E+03  0.11961448028E+03  0.00000000000E+00 0.  1.
         23    2    1    2    0    0  0.00000000000E+00  0.00000000000E+00 -0.10217597809E+03  0.13705298247E+03  0.91343251023E+02 0.  0.
        -11    1    3    3    0    0 -0.66254798552E+01 -0.23777310879E+02 -0.10874462814E+03  0.11151076919E+03  0.00000000000E+00 0.  1.
         11    1    3    3    0    0  0.66254798552E+01  0.23777310879E+02  0.65686500547E+01  0.25542213285E+02  0.00000000000E+00 0. -1.
<mgrwt>
<rscale>  0 0.91343251E+02</rscale>
<asrwt>0</asrwt>
<pdfrwt beam="1">  1        1 0.26828465E-02 0.91343251E+02</pdfrwt>
<pdfrwt beam="2">  1       -1 0.18402228E-01 0.91343251E+02</pdfrwt>
<totfact> 0.78212416E+04</totfact>
</mgrwt>
</event>
<event>
 5    1  0.6222456E+000  0.7534112E+02  0.7546771E-02  0.1342818E+00
         -2   -1    0    0    0  501 -0.00000000000E+00  0.00000000000E+00  0.11930400488E+02  0.11930400488E+02  0.00000000000E+00 0.  1.
          2   -1    0    0  501    0  0.00000000000E+00 -0.00000000000E+00 -0.11894579686E+03  0.11894579686E+03  0.00000000000E+00 0. -1.
         23    2    1    2    0    0  0.00000000000E+00  0.00000000000E+00 -0.10701539637E+03  0.13087619734E+03  0.75341117401E+02 0.  0.
        -11    1    3    3    0    0  0.16577152173E+02  0.15406999757E+02 -0.10582034884E+03  0.10821332563E+03  0.00000000000E+00 0. -1.
         11    1    3    3    0    0 -0.16577152173E+02 -0.15406999757E+02 -0.11950475301E+01  0.22662871713E+02  0.00000000000E+00 0.  1.
<mgrwt>
<rscale>  0 0.75341117E+02</rscale>
<asrwt>0</asrwt>
<pdfrwt beam="2">  1        2 0.18299354E-01 0.75341117E+02</pdfrwt>
<pdfrwt beam="1">  1       -2 0.18354462E-02 0.75341117E+02</pdfrwt>
<totfact> 0.21670160E+05</totfact>
</mgrwt>
</event>
<event>
 5    1  0.6222456E+000  0.9002392E+02  0.7546771E-02  0.1302794E+00
          1   -1    0    0  501    0  0.00000000000E+00  0.00000000000E+00  0.83735495569E+02  0.83735495569E+02  0.00000000000E+00 0. -1.
         -1   -1    0    0    0  501 -0.00000000000E+00 -0.00000000000E+00 -0.24196146916E+02  0.24196146916E+02  0.00000000000E+00 0.  1.
         23    2    1    2    0    0  0.00000000000E+00  0.00000000000E+00  0.59539348653E+02  0.10793164249E+03  0.90023915776E+02 0.  0.
        -11    1    3    3    0    0  0.22102157226E+02 -0.19947326207E+02 -0.10704819945E+02  0.31638494701E+02  0.00000000000E+00 0.  1.
         11    1    3    3    0    0 -0.22102157226E+02  0.19947326207E+02  0.70244168598E+02  0.76293147784E+02  0.00000000000E+00 0. -1.
<mgrwt>
<rscale>  0 0.90023916E+02</rscale>
<asrwt>0</asrwt>
<pdfrwt beam="1">  1        1 0.12882384E-01 0.90023916E+02</pdfrwt>
<pdfrwt beam="2">  1       -1 0.37224842E-02 0.90023916E+02</pdfrwt>
<totfact> 0.10507170E+05</totfact>
</mgrwt>
</event>
<event>
 5    1  0.6222456E+000  0.9146522E+02  0.7546771E-02  0.1299342E+00
         -3   -1    0    0    0  501 -0.00000000000E+00  0.00000000000E+00  0.81021590617E+01  0.81021590617E+01  0.00000000000E+00 0.  1.
          3   -1    0    0  501    0  0.00000000000E+00 -0.00000000000E+00 -0.25813754086E+03  0.25813754086E+03  0.00000000000E+00 0. -1.
         23    2    1    2    0    0  0.00000000000E+00  0.00000000000E+00 -0.25003538180E+03  0.26623969993E+03  0.91465215593E+02 0.  0.
        -11    1    3    3    0    0  0.13274430045E+02  0.38771588723E+02 -0.65932512992E+02  0.77630811245E+02  0.00000000000E+00 0.  1.
         11    1    3    3    0    0 -0.13274430045E+02 -0.38771588723E+02 -0.18410286881E+03  0.18860888868E+03  0.00000000000E+00 0. -1.
<mgrwt>
<rscale>  0 0.91465216E+02</rscale>
<asrwt>0</asrwt>
<pdfrwt beam="2">  1        3 0.39713465E-01 0.91465216E+02</pdfrwt>
<pdfrwt beam="1">  1       -3 0.12464861E-02 0.91465216E+02</pdfrwt>
<totfact> 0.25184029E+04</totfact>
</mgrwt>
</event>
<event>
 5    1  0.6222456E+000  0.9448146E+02  0.7546771E-02  0.1292348E+00
         -2   -1    0    0    0  501 -0.00000000000E+00  0.00000000000E+00  0.15996480491E+02  0.15996480491E+02  0.00000000000E+00 0.  1.
          2   -1    0    0  501    0  0.00000000000E+00 -0.00000000000E+00 -0.13951109863E+03  0.13951109863E+03  0.00000000000E+00 0. -1.
         23    2    1    2    0    0  0.00000000000E+00  0.00000000000E+00 -0.12351461814E+03  0.15550757912E+03  0.94481459926E+02 0.  0.
        -11    1    3    3    0    0 -0.24117854204E+02  0.13466528938E+01 -0.12857788432E+03  0.13082720169E+03  0.00000000000E+00 0. -1.
         11    1    3    3    0    0  0.24117854204E+02 -0.13466528938E+01  0.50632661874E+01  0.24680377426E+02  0.00000000000E+00 0.  1.
<mgrwt>
<rscale>  0 0.94481460E+02</rscale>
<asrwt>0</asrwt>
<pdfrwt beam="2">  1        2 0.21463247E-01 0.94481460E+02</pdfrwt>
<pdfrwt beam="1">  1       -2 0.24609969E-02 0.94481460E+02</pdfrwt>
<totfact> 0.12380213E+05</totfact>
</mgrwt>
</event>
<event>
 5    1  0.6222456E+000  0.9126645E+02  0.7546771E-02  0.1299813E+00
         -3   -1    0    0    0  501 -0.00000000000E+00  0.00000000000E+00  0.31899694490E+02  0.31899694490E+02  0.00000000000E+00 0.  1.
          3   -1    0    0  501    0  0.00000000000E+00 -0.00000000000E+00 -0.65279343151E+02  0.65279343151E+02  0.00000000000E+00 0. -1.
         23    2    1    2    0    0  0.00000000000E+00  0.00000000000E+00 -0.33379648661E+02  0.97179037641E+02  0.91266447351E+02 0.  0.
        -11    1    3    3    0    0 -0.35998458621E+02  0.50057850943E+01  0.12692117101E+02  0.38497230342E+02  0.00000000000E+00 0.  1.
         11    1    3    3    0    0  0.35998458621E+02 -0.50057850943E+01 -0.46071765762E+02  0.58681807299E+02  0.00000000000E+00 0. -1.
<mgrwt>
<rscale>  0 0.91266447E+02</rscale>
<asrwt>0</asrwt>
<pdfrwt beam="2">  1        3 0.10042976E-01 0.91266447E+02</pdfrwt>
<pdfrwt beam="1">  1       -3 0.49076454E-02 0.91266447E+02</pdfrwt>
<totfact> 0.34788223E+04</totfact>
</mgrwt>
</event>
<event>
 5    1  0.6222456E+000  0.8641823E+02  0.7546771E-02  0.1311765E+00
         -1   -1    0    0    0  501 -0.00000000000E+00  0.00000000000E+00  0.10288789912E+03  0.10288789912E+03  0.00000000000E+00 0.  1.
          1   -1    0    0  501    0  0.00000000000E+00 -0.00000000000E+00 -0.18146232485E+02  0.18146232485E+02  0.00000000000E+00 0. -1.
         23    2    1    2    0    0  0.00000000000E+00  0.00000000000E+00  0.84741666632E+02  0.12103413160E+03  0.86418232734E+02 0.  0.
        -11    1    3    3    0    0 -0.34142108923E+02 -0.21674109762E+02  0.63684113039E+02  0.75439491576E+02  0.00000000000E+00 0.  1.
         11    1    3    3    0    0  0.34142108923E+02  0.21674109762E+02  0.21057553593E+02  0.45594640025E+02  0.00000000000E+00 0. -1.
<mgrwt>
<rscale>  0 0.86418233E+02</rscale>
<asrwt>0</asrwt>
<pdfrwt beam="2">  1        1 0.27917281E-02 0.86418233E+02</pdfrwt>
<pdfrwt beam="1">  1       -1 0.15828907E-01 0.86418233E+02</pdfrwt>
<totfact> 0.92903147E+04</totfact>
</mgrwt>
</event>
<event>
 5    1  0.6222456E+000  0.9095893E+02  0.7546771E-02  0.1300546E+00
         -1   -1    0    0    0  501 -0.00000000000E+00  0.00000000000E+00  0.10676587809E+03  0.10676587809E+03  0.00000000000E+00 0.  1.
          1   -1    0    0  501    0  0.00000000000E+00 -0.00000000000E+00 -0.19373057680E+02  0.19373057680E+02  0.00000000000E+00 0. -1.
         23    2    1    2    0    0  0.00000000000E+00  0.00000000000E+00  0.87392820414E+02  0.12613893577E+03  0.90958925115E+02 0.  0.
        -11    1    3    3    0    0 -0.10235874670E+02 -0.34022043014E+02  0.83069610927E+02  0.90348396780E+02  0.00000000000E+00 0.  1.
         11    1    3    3    0    0  0.10235874670E+02  0.34022043014E+02  0.43232094863E+01  0.35790538993E+02  0.00000000000E+00 0. -1.
<mgrwt>
<rscale>  0 0.90958925E+02</rscale>
<asrwt>0</asrwt>
<pdfrwt beam="2">  1        1 0.29804705E-02 0.90958925E+02</pdfrwt>
<pdfrwt beam="1">  1       -1 0.16425519E-01 0.90958925E+02</pdfrwt>
<totfact> 0.80867872E+04</totfact>
</mgrwt>
</event>
<event>
 5    1  0.6222456E+000  0.1029491E+03  0.7546771E-02  0.1274214E+00
          2   -1    0    0  501    0  0.00000000000E+00  0.00000000000E+00  0.15807420707E+03  0.15807420707E+03  0.00000000000E+00 0. -1.
         -2   -1    0    0    0  501 -0.00000000000E+00 -0.00000000000E+00 -0.16761946283E+02  0.16761946283E+02  0.00000000000E+00 0.  1.
         23    2    1    2    0    0  0.00000000000E+00  0.00000000000E+00  0.14131226079E+03  0.17483615336E+03  0.10294914021E+03 0.  0.
        -11    1    3    3    0    0  0.27988028024E+02 -0.23746159706E+02  0.93668804726E+01  0.37880710965E+02  0.00000000000E+00 0.  1.
         11    1    3    3    0    0 -0.27988028024E+02  0.23746159706E+02  0.13194538032E+03  0.13695544239E+03  0.00000000000E+00 0. -1.
<mgrwt>
<rscale>  0 0.10294914E+03</rscale>
<asrwt>0</asrwt>
<pdfrwt beam="1">  1        2 0.24319108E-01 0.10294914E+03</pdfrwt>
<pdfrwt beam="2">  1       -2 0.25787611E-02 0.10294914E+03</pdfrwt>
<totfact> 0.10214359E+05</totfact>
</mgrwt>
</event>
<event>
 5    1  0.6222456E+000  0.9028369E+02  0.7546771E-02  0.1302166E+00
         -2   -1    0    0    0  501 -0.00000000000E+00  0.00000000000E+00  0.22844922147E+02  0.22844922147E+02  0.00000000000E+00 0.  1.
          2   -1    0    0  501    0  0.00000000000E+00 -0.00000000000E+00 -0.89200842381E+02  0.89200842381E+02  0.00000000000E+00 0. -1.
         23    2    1    2    0    0  0.00000000000E+00  0.00000000000E+00 -0.66355920234E+02  0.11204576453E+03  0.90283692872E+02 0.  0.
        -11    1    3    3    0    0 -0.27917047986E+02  0.32493419364E+02 -0.50842749104E+02  0.66484351592E+02  0.00000000000E+00 0. -1.
         11    1    3    3    0    0  0.27917047986E+02 -0.32493419364E+02 -0.15513171129E+02  0.45561412935E+02  0.00000000000E+00 0.  1.
<mgrwt>
<rscale>  0 0.90283693E+02</rscale>
<asrwt>0</asrwt>
<pdfrwt beam="2">  1        2 0.13723206E-01 0.90283693E+02</pdfrwt>
<pdfrwt beam="1">  1       -2 0.35146034E-02 0.90283693E+02</pdfrwt>
<totfact> 0.12181310E+05</totfact>
</mgrwt>
</event>
<event>
 5    1  0.6222456E+000  0.8857846E+02  0.7546771E-02  0.1306331E+00
          1   -1    0    0  501    0  0.00000000000E+00  0.00000000000E+00  0.82000829471E+02  0.82000829471E+02  0.00000000000E+00 0. -1.
         -1   -1    0    0    0  501 -0.00000000000E+00 -0.00000000000E+00 -0.23920924781E+02  0.23920924781E+02  0.00000000000E+00 0.  1.
         23    2    1    2    0    0  0.00000000000E+00  0.00000000000E+00  0.58079904690E+02  0.10592175425E+03  0.88578455027E+02 0.  0.
        -11    1    3    3    0    0  0.16992604731E+02  0.16787905967E+02 -0.15557837209E+02  0.28506643102E+02  0.00000000000E+00 0.  1.
         11    1    3    3    0    0 -0.16992604731E+02 -0.16787905967E+02  0.73637741900E+02  0.77415111150E+02  0.00000000000E+00 0. -1.
<mgrwt>
<rscale>  0 0.88578455E+02</rscale>
<asrwt>0</asrwt>
<pdfrwt beam="1">  1        1 0.12615512E-01 0.88578455E+02</pdfrwt>
<pdfrwt beam="2">  1       -1 0.36801423E-02 0.88578455E+02</pdfrwt>
<totfact> 0.10946070E+05</totfact>
</mgrwt>
</event>
<event>
 5    1  0.6222456E+000  0.8651226E+02  0.7546771E-02  0.1311525E+00
          1   -1    0    0  501    0  0.00000000000E+00  0.00000000000E+00  0.42396538712E+03  0.42396538712E+03  0.00000000000E+00 0. -1.
         -1   -1    0    0    0  501 -0.00000000000E+00 -0.00000000000E+00 -0.44133144555E+01  0.44133144555E+01  0.00000000000E+00 0.  1.
         23    2    1    2    0    0  0.00000000000E+00  0.00000000000E+00  0.41955207267E+03  0.42837870158E+03  0.86512255123E+02 0.  0.
        -11    1    3    3    0    0 -0.43151751858E+02  0.29920273569E+01  0.20849763200E+03  0.21293728763E+03  0.00000000000E+00 0.  1.
         11    1    3    3    0    0  0.43151751858E+02 -0.29920273569E+01  0.21105444067E+03  0.21544141395E+03  0.00000000000E+00 0. -1.
<mgrwt>
<rscale>  0 0.86512255E+02</rscale>
<asrwt>0</asrwt>
<pdfrwt beam="1">  1        1 0.65225412E-01 0.86512255E+02</pdfrwt>
<pdfrwt beam="2">  1       -1 0.67897179E-03 0.86512255E+02</pdfrwt>
<totfact> 0.15644084E+05</totfact>
</mgrwt>
</event>
<event>
 5    1  0.6222456E+000  0.9302160E+02  0.7546771E-02  0.1295695E+00
         -1   -1    0    0    0  501 -0.00000000000E+00  0.00000000000E+00  0.27903405204E+02  0.27903405204E+02  0.00000000000E+00 0.  1.
          1   -1    0    0  501    0  0.00000000000E+00 -0.00000000000E+00 -0.77526540902E+02  0.77526540902E+02  0.00000000000E+00 0. -1.
         23    2    1    2    0    0  0.00000000000E+00  0.00000000000E+00 -0.49623135699E+02  0.10542994611E+03  0.93021599317E+02 0.  0.
        -11    1    3    3    0    0  0.45290244161E+02 -0.71821906835E+01 -0.33624695827E+02  0.56863083355E+02  0.00000000000E+00 0.  1.
         11    1    3    3    0    0 -0.45290244161E+02  0.71821906835E+01 -0.15998439871E+02  0.48566862751E+02  0.00000000000E+00 0. -1.
<mgrwt>
<rscale>  0 0.93021599E+02</rscale>
<asrwt>0</asrwt>
<pdfrwt beam="2">  1        1 0.11927160E-01 0.93021599E+02</pdfrwt>
<pdfrwt beam="1">  1       -1 0.42928316E-02 0.93021599E+02</pdfrwt>
<totfact> 0.94866750E+04</totfact>
</mgrwt>
</event>
<event>
 5    1  0.6222456E+000  0.9410265E+02  0.7546771E-02  0.1293210E+00
          1   -1    0    0  501    0  0.00000000000E+00  0.00000000000E+00  0.75657268507E+02  0.75657268507E+02  0.00000000000E+00 0. -1.
         -1   -1    0    0    0  501 -0.00000000000E+00 -0.00000000000E+00 -0.29261259810E+02  0.29261259810E+02  0.00000000000E+00 0.  1.
         23    2    1    2    0    0  0.00000000000E+00  0.00000000000E+00  0.46396008697E+02  0.10491852832E+03  0.94102645877E+02 0.  0.
        -11    1    3    3    0    0 -0.92523290463E+01  0.25658289068E+02 -0.19547490619E+02  0.33556784414E+02  0.00000000000E+00 0.  1.
         11    1    3    3    0    0  0.92523290463E+01 -0.25658289068E+02  0.65943499317E+02  0.71361743903E+02  0.00000000000E+00 0. -1.
<mgrwt>
<rscale>  0 0.94102646E+02</rscale>
<asrwt>0</asrwt>
<pdfrwt beam="1">  1        1 0.11639580E-01 0.94102646E+02</pdfrwt>
<pdfrwt beam="2">  1       -1 0.45017323E-02 0.94102646E+02</pdfrwt>
<totfact> 0.91531211E+04</totfact>
</mgrwt>
</event>
<event>
 5    1  0.6222456E+000  0.8777242E+02  0.7546771E-02  0.1308338E+00
         -2   -1    0    0    0  501 -0.00000000000E+00  0.00000000000E+00  0.15672537524E+02  0.15672537524E+02  0.00000000000E+00 0.  1.
          2   -1    0    0  501    0  0.00000000000E+00 -0.00000000000E+00 -0.12289006968E+03  0.12289006968E+03  0.00000000000E+00 0. -1.
         23    2    1    2    0    0  0.00000000000E+00  0.00000000000E+00 -0.10721753216E+03  0.13856260721E+03  0.87772415448E+02 0.  0.
        -11    1    3    3    0    0  0.38872883845E+02  0.11165754010E+02 -0.26714808935E+02  0.48471189149E+02  0.00000000000E+00 0.  1.
         11    1    3    3    0    0 -0.38872883845E+02 -0.11165754010E+02 -0.80502723224E+02  0.90091418057E+02  0.00000000000E+00 0. -1.
<mgrwt>
<rscale>  0 0.87772415E+02</rscale>
<asrwt>0</asrwt>
<pdfrwt beam="2">  1        2 0.18906164E-01 0.87772415E+02</pdfrwt>
<pdfrwt beam="1">  1       -2 0.24111597E-02 0.87772415E+02</pdfrwt>
<totfact> 0.14514671E+05</totfact>
</mgrwt>
</event>
<event>
 5    1  0.6222456E+000  0.9115584E+02  0.7546771E-02  0.1300077E+00
          4   -1    0    0  501    0  0.00000000000E+00  0.00000000000E+00  0.24260197578E+02  0.24260197578E+02  0.00000000000E+00 0. -1.
         -4   -1    0    0    0  501 -0.00000000000E+00 -0.00000000000E+00 -0.85627783863E+02  0.85627783863E+02  0.00000000000E+00 0.  1.
         23    2    1    2    0    0  0.00000000000E+00  0.00000000000E+00 -0.61367586285E+02  0.10988798144E+03  0.91155843580E+02 0.  0.
        -11    1    3    3    0    0 -0.44107035036E+02  0.10840753641E+02 -0.35257450276E+02  0.57498176311E+02  0.00000000000E+00 0.  1.
         11    1    3    3    0    0  0.44107035036E+02 -0.10840753641E+02 -0.26110136009E+02  0.52389805130E+02  0.00000000000E+00 0. -1.
<mgrwt>
<rscale>  0 0.91155844E+02</rscale>
<asrwt>0</asrwt>
<pdfrwt beam="1">  1        4 0.37323381E-02 0.91155844E+02</pdfrwt>
<pdfrwt beam="2">  1       -4 0.13173505E-01 0.91155844E+02</pdfrwt>
<totfact> 0.25875540E+04</totfact>
</mgrwt>
</event>
<event>
 5    1  0.6222456E+000  0.9181693E+02  0.7546771E-02  0.1298510E+00
         -3   -1    0    0    0  501 -0.00000000000E+00  0.00000000000E+00  0.22339869742E+03  0.22339869742E+03  0.00000000000E+00 0.  1.
          3   -1    0    0  501    0  0.00000000000E+00 -0.00000000000E+00 -0.94341968339E+01  0.94341968339E+01  0.00000000000E+00 0. -1.
         23    2    1    2    0    0  0.00000000000E+00  0.00000000000E+00  0.21396450058E+03  0.23283289425E+03  0.91816932727E+02 0.  0.
        -11    1    3    3    0    0  0.14209330070E+02  0.30035987993E+02  0.18731357505E+03  0.19023785384E+03  0.00000000000E+00 0.  1.
         11    1    3    3    0    0 -0.14209330070E+02 -0.30035987993E+02  0.26650925532E+02  0.42595040409E+02  0.00000000000E+00 0. -1.
<mgrwt>
<rscale>  0 0.91816933E+02</rscale>
<asrwt>0</asrwt>
<pdfrwt beam="2">  1        3 0.14514151E-02 0.91816933E+02</pdfrwt>
<pdfrwt beam="1">  1       -3 0.34369026E-01 0.91816933E+02</pdfrwt>
<totfact> 0.26379781E+04</totfact>
</mgrwt>
</event>
<event>
 5    1  0.6222456E+000  0.9102612E+02  0.7546771E-02  0.1300386E+00
         -4   -1    0    0    0  501 -0.00000000000E+00  0.00000000000E+00  0.17417557337E+02  0.17417557337E+02  0.00000000000E+00 0.  1.
          4   -1    0    0  501    0  0.00000000000E+00 -0.00000000000E+00 -0.11892820414E+03  0.11892820414E+03  0.00000000000E+00 0. -1.
         23    2    1    2    0    0  0.00000000000E+00  0.00000000000E+00 -0.10151064681E+03  0.13634576148E+03  0.91026124046E+02 0.  0.
        -11    1    3    3    0    0  0.13962112869E+02  0.17777213765E+02  0.84148917679E+01  0.24120122895E+02  0.00000000000E+00 0.  1.
         11    1    3    3    0    0 -0.13962112869E+02 -0.17777213765E+02 -0.10992553858E+03  0.11222563859E+03  0.00000000000E+00 0. -1.
<mgrwt>
<rscale>  0 0.91026124E+02</rscale>
<asrwt>0</asrwt>
<pdfrwt beam="2">  1        4 0.18296647E-01 0.91026124E+02</pdfrwt>
<pdfrwt beam="1">  1       -4 0.26796242E-02 0.91026124E+02</pdfrwt>
<totfact> 0.24486537E+04</totfact>
</mgrwt>
</event>
<event>
 5    1  0.6222456E+000  0.9873785E+02  0.7546771E-02  0.1282973E+00
          2   -1    0    0  501    0  0.00000000000E+00  0.00000000000E+00  0.12541338934E+03  0.12541338934E+03  0.00000000000E+00 0. -1.
         -2   -1    0    0    0  501 -0.00000000000E+00 -0.00000000000E+00 -0.19434053712E+02  0.19434053712E+02  0.00000000000E+00 0.  1.
         23    2    1    2    0    0  0.00000000000E+00  0.00000000000E+00  0.10597933562E+03  0.14484744305E+03  0.98737845725E+02 0.  0.
        -11    1    3    3    0    0 -0.11350999458E+02  0.34315844792E+02  0.36571623792E+01  0.36329013600E+02  0.00000000000E+00 0.  1.
         11    1    3    3    0    0  0.11350999458E+02 -0.34315844792E+02  0.10232217324E+03  0.10851842945E+03  0.00000000000E+00 0. -1.
<mgrwt>
<rscale>  0 0.98737846E+02</rscale>
<asrwt>0</asrwt>
<pdfrwt beam="1">  1        2 0.19294367E-01 0.98737846E+02</pdfrwt>
<pdfrwt beam="2">  1       -2 0.29898545E-02 0.98737846E+02</pdfrwt>
<totfact> 0.10583710E+05</totfact>
</mgrwt>
</event>
<event>
 5    1  0.6222456E+000  0.9060506E+02  0.7546771E-02  0.1301393E+00
         -1   -1    0    0    0  501 -0.00000000000E+00  0.00000000000E+00  0.15136303451E+03  0.15136303451E+03  0.00000000000E+00 0.  1.
          1   -1    0    0  501    0  0.00000000000E+00 -0.00000000000E+00 -0.13558918334E+02  0.13558918334E+02  0.00000000000E+00 0. -1.
         23    2    1    2    0    0  0.00000000000E+00  0.00000000000E+00  0.13780411618E+03  0.16492195284E+03  0.90605055571E+02 0.  0.
        -11    1    3    3    0    0  0.21972202693E+02  0.13989566573E+02  0.13636931710E+03  0.13883470860E+03  0.00000000000E+00 0.  1.
         11    1    3    3    0    0 -0.21972202693E+02 -0.13989566573E+02  0.14347990731E+01  0.26087244248E+02  0.00000000000E+00 0. -1.
<mgrwt>
<rscale>  0 0.90605056E+02</rscale>
<asrwt>0</asrwt>
<pdfrwt beam="2">  1        1 0.20859875E-02 0.90605056E+02</pdfrwt>
<pdfrwt beam="1">  1       -1 0.23286620E-01 0.90605056E+02</pdfrwt>
<totfact> 0.75857773E+04</totfact>
</mgrwt>
</event>
<event>
 5    1  0.6222456E+000  0.9054861E+02  0.7546771E-02  0.1301529E+00
         -2   -1    0    0    0  501 -0.00000000000E+00  0.00000000000E+00  0.26547099647E+02  0.26547099647E+02  0.00000000000E+00 0.  1.
          2   -1    0    0  501    0  0.00000000000E+00 -0.00000000000E+00 -0.77212303337E+02  0.77212303337E+02  0.00000000000E+00 0. -1.
         23    2    1    2    0    0  0.00000000000E+00  0.00000000000E+00 -0.50665203690E+02  0.10375940298E+03  0.90548610385E+02 0.  0.
        -11    1    3    3    0    0  0.25282394037E+02  0.27321595115E+02 -0.54862391642E+02  0.66298951911E+02  0.00000000000E+00 0. -1.
         11    1    3    3    0    0 -0.25282394037E+02 -0.27321595115E+02  0.41971879519E+01  0.37460451073E+02  0.00000000000E+00 0.  1.
<mgrwt>
<rscale>  0 0.90548610E+02</rscale>
<asrwt>0</asrwt>
<pdfrwt beam="2">  1        2 0.11878816E-01 0.90548610E+02</pdfrwt>
<pdfrwt beam="1">  1       -2 0.40841692E-02 0.90548610E+02</pdfrwt>
<totfact> 0.11590888E+05</totfact>
</mgrwt>
</event>
<event>
 5    1  0.6222456E+000  0.8723211E+02  0.7546771E-02  0.1309696E+00
          2   -1    0    0  501    0  0.00000000000E+00  0.00000000000E+00  0.15989177783E+03  0.15989177783E+03  0.00000000000E+00 0. -1.
         -2   -1    0    0    0  501 -0.00000000000E+00 -0.00000000000E+00 -0.11897798356E+02  0.11897798356E+02  0.00000000000E+00 0.  1.
         23    2    1    2    0    0  0.00000000000E+00  0.00000000000E+00  0.14799397948E+03  0.17178957619E+03  0.87232107197E+02 0.  0.
        -11    1    3    3    0    0  0.68308303896E+01 -0.25944025768E+02  0.62732793951E+01  0.27551891972E+02  0.00000000000E+00 0.  1.
         11    1    3    3    0    0 -0.68308303896E+01  0.25944025768E+02  0.14172070008E+03  0.14423768422E+03  0.00000000000E+00 0. -1.
<mgrwt>
<rscale>  0 0.87232107E+02</rscale>
<asrwt>0</asrwt>
<pdfrwt beam="1">  1        2 0.24598733E-01 0.87232107E+02</pdfrwt>
<pdfrwt beam="2">  1       -2 0.18304306E-02 0.87232107E+02</pdfrwt>
<totfact> 0.16102324E+05</totfact>
</mgrwt>
</event>
<event>
 5    1  0.6222456E+000  0.9242933E+02  0.7546771E-02  0.1297073E+00
          1   -1    0    0  501    0  0.00000000000E+00  0.00000000000E+00  0.10131177303E+03  0.10131177303E+03  0.00000000000E+00 0. -1.
         -1   -1    0    0    0  501 -0.00000000000E+00 -0.00000000000E+00 -0.21081410097E+02  0.21081410097E+02  0.00000000000E+00 0.  1.
         23    2    1    2    0    0  0.00000000000E+00  0.00000000000E+00  0.80230362929E+02  0.12239318312E+03  0.92429325104E+02 0.  0.
        -11    1    3    3    0    0  0.63098538452E+01 -0.22618097295E+02 -0.12593263190E+02  0.26645503534E+02  0.00000000000E+00 0.  1.
         11    1    3    3    0    0 -0.63098538452E+01  0.22618097295E+02  0.92823626119E+02  0.95747679589E+02  0.00000000000E+00 0. -1.
<mgrwt>
<rscale>  0 0.92429325E+02</rscale>
<asrwt>0</asrwt>
<pdfrwt beam="1">  1        1 0.15586426E-01 0.92429325E+02</pdfrwt>
<pdfrwt beam="2">  1       -1 0.32432939E-02 0.92429325E+02</pdfrwt>
<totfact> 0.10085152E+05</totfact>
</mgrwt>
</event>
<event>
 5    1  0.6222456E+000  0.9846926E+02  0.7546771E-02  0.1283548E+00
         -1   -1    0    0    0  501 -0.00000000000E+00  0.00000000000E+00  0.73659368877E+02  0.73659368877E+02  0.00000000000E+00 0.  1.
          1   -1    0    0  501    0  0.00000000000E+00 -0.00000000000E+00 -0.32908898895E+02  0.32908898895E+02  0.00000000000E+00 0. -1.
         23    2    1    2    0    0  0.00000000000E+00  0.00000000000E+00  0.40750469982E+02  0.10656826777E+03  0.98469258614E+02 0.  0.
        -11    1    3    3    0    0  0.18449788488E+02 -0.44456491981E+02  0.31584449526E+02  0.57570407558E+02  0.00000000000E+00 0.  1.
         11    1    3    3    0    0 -0.18449788488E+02  0.44456491981E+02  0.91660204565E+01  0.48997860214E+02  0.00000000000E+00 0. -1.
<mgrwt>
<rscale>  0 0.98469259E+02</rscale>
<asrwt>0</asrwt>
<pdfrwt beam="2">  1        1 0.50629075E-02 0.98469259E+02</pdfrwt>
<pdfrwt beam="1">  1       -1 0.11332211E-01 0.98469259E+02</pdfrwt>
<totfact> 0.70496420E+04</totfact>
</mgrwt>
</event>
<event>
 5    1  0.6222456E+000  0.9028261E+02  0.7546771E-02  0.1302169E+00
          1   -1    0    0  501    0  0.00000000000E+00  0.00000000000E+00  0.42622099362E+02  0.42622099362E+02  0.00000000000E+00 0. -1.
         -1   -1    0    0    0  501 -0.00000000000E+00 -0.00000000000E+00 -0.47809412195E+02  0.47809412195E+02  0.00000000000E+00 0.  1.
         23    2    1    2    0    0  0.00000000000E+00  0.00000000000E+00 -0.51873128333E+01  0.90431511557E+02  0.90282612213E+02 0.  0.
        -11    1    3    3    0    0 -0.69430693750E+00  0.14021865144E+02  0.40379813887E+02  0.42750720857E+02  0.00000000000E+00 0. -1.
         11    1    3    3    0    0  0.69430693750E+00 -0.14021865144E+02 -0.45567126720E+02  0.47680790700E+02  0.00000000000E+00 0.  1.
<mgrwt>
<rscale>  0 0.90282612E+02</rscale>
<asrwt>0</asrwt>
<pdfrwt beam="1">  1        1 0.65572461E-02 0.90282612E+02</pdfrwt>
<pdfrwt beam="2">  1       -1 0.73552942E-02 0.90282612E+02</pdfrwt>
<totfact> 0.94111928E+04</totfact>
</mgrwt>
</event>
<event>
 5    1  0.6222456E+000  0.9173410E+02  0.7546771E-02  0.1298706E+00
          4   -1    0    0  501    0  0.00000000000E+00  0.00000000000E+00  0.25110290880E+03  0.25110290880E+03  0.00000000000E+00 0. -1.
         -4   -1    0    0    0  501 -0.00000000000E+00 -0.00000000000E+00 -0.83781833158E+01  0.83781833158E+01  0.00000000000E+00 0.  1.
         23    2    1    2    0    0  0.00000000000E+00  0.00000000000E+00  0.24272472549E+03  0.25948109212E+03  0.91734098373E+02 0.  0.
        -11    1    3    3    0    0 -0.66520144712E+01 -0.45091133482E+02  0.13587586388E+03  0.14331681688E+03  0.00000000000E+00 0. -1.
         11    1    3    3    0    0  0.66520144712E+01  0.45091133482E+02  0.10684886161E+03  0.11616427524E+03  0.00000000000E+00 0.  1.
<mgrwt>
<rscale>  0 0.91734098E+02</rscale>
<asrwt>0</asrwt>
<pdfrwt beam="1">  1        4 0.38631211E-01 0.91734098E+02</pdfrwt>
<pdfrwt beam="2">  1       -4 0.12889515E-02 0.91734098E+02</pdfrwt>
<totfact> 0.18823937E+04</totfact>
</mgrwt>
</event>
<event>
 5    1  0.6222456E+000  0.9265645E+02  0.7546771E-02  0.1296543E+00
          2   -1    0    0  501    0  0.00000000000E+00  0.00000000000E+00  0.28952578824E+03  0.28952578824E+03  0.00000000000E+00 0. -1.
         -2   -1    0    0    0  501 -0.00000000000E+00 -0.00000000000E+00 -0.74131713409E+01  0.74131713409E+01  0.00000000000E+00 0.  1.
         23    2    1    2    0    0  0.00000000000E+00  0.00000000000E+00  0.28211261690E+03  0.29693895958E+03  0.92656446637E+02 0.  0.
        -11    1    3    3    0    0  0.99278504280E+01 -0.38650155485E+02  0.21648041616E+03  0.22012761597E+03  0.00000000000E+00 0. -1.
         11    1    3    3    0    0 -0.99278504280E+01  0.38650155485E+02  0.65632200743E+02  0.76811343612E+02  0.00000000000E+00 0.  1.
<mgrwt>
<rscale>  0 0.92656447E+02</rscale>
<asrwt>0</asrwt>
<pdfrwt beam="1">  1        2 0.44542420E-01 0.92656447E+02</pdfrwt>
<pdfrwt beam="2">  1       -2 0.11404881E-02 0.92656447E+02</pdfrwt>
<totfact> 0.16982617E+05</totfact>
</mgrwt>
</event>
<event>
 5    1  0.6222456E+000  0.9070404E+02  0.7546771E-02  0.1301156E+00
         -1   -1    0    0    0  501 -0.00000000000E+00  0.00000000000E+00  0.37658800618E+02  0.37658800618E+02  0.00000000000E+00 0.  1.
          1   -1    0    0  501    0  0.00000000000E+00 -0.00000000000E+00 -0.54616861965E+02  0.54616861965E+02  0.00000000000E+00 0. -1.
         23    2    1    2    0    0  0.00000000000E+00  0.00000000000E+00 -0.16958061347E+02  0.92275662583E+02  0.90704035525E+02 0.  0.
        -11    1    3    3    0    0 -0.17614167120E+02  0.24771897713E+02  0.25762746473E+02  0.39845011048E+02  0.00000000000E+00 0.  1.
         11    1    3    3    0    0  0.17614167120E+02 -0.24771897713E+02 -0.42720807820E+02  0.52430651535E+02  0.00000000000E+00 0. -1.
<mgrwt>
<rscale>  0 0.90704036E+02</rscale>
<asrwt>0</asrwt>
<pdfrwt beam="2">  1        1 0.84025942E-02 0.90704036E+02</pdfrwt>
<pdfrwt beam="1">  1       -1 0.57936616E-02 0.90704036E+02</pdfrwt>
<totfact> 0.96399606E+04</totfact>
</mgrwt>
</event>
<event>
 5    1  0.6222456E+000  0.9874800E+02  0.7546771E-02  0.1282951E+00
          4   -1    0    0  501    0  0.00000000000E+00  0.00000000000E+00  0.73668615344E+02  0.73668615344E+02  0.00000000000E+00 0. -1.
         -4   -1    0    0    0  501 -0.00000000000E+00 -0.00000000000E+00 -0.33091319107E+02  0.33091319107E+02  0.00000000000E+00 0.  1.
         23    2    1    2    0    0  0.00000000000E+00  0.00000000000E+00  0.40577296237E+02  0.10675993445E+03  0.98747995596E+02 0.  0.
        -11    1    3    3    0    0 -0.11933256575E+02 -0.47072301031E+02  0.10643642165E+02  0.49714095138E+02  0.00000000000E+00 0.  1.
         11    1    3    3    0    0  0.11933256575E+02  0.47072301031E+02  0.29933654073E+02  0.57045839314E+02  0.00000000000E+00 0. -1.
<mgrwt>
<rscale>  0 0.98747996E+02</rscale>
<asrwt>0</asrwt>
<pdfrwt beam="1">  1        4 0.11333633E-01 0.98747996E+02</pdfrwt>
<pdfrwt beam="2">  1       -4 0.50909722E-02 0.98747996E+02</pdfrwt>
<totfact> 0.20955164E+04</totfact>
</mgrwt>
</event>
<event>
 5    1  0.6222456E+000  0.9339534E+02  0.7546771E-02  0.1294832E+00
         -2   -1    0    0    0  501 -0.00000000000E+00  0.00000000000E+00  0.17617482050E+03  0.17617482050E+03  0.00000000000E+00 0. -1.
          2   -1    0    0  501    0  0.00000000000E+00 -0.00000000000E+00 -0.12377887881E+02  0.12377887881E+02  0.00000000000E+00 0.  1.
         23    2    1    2    0    0  0.00000000000E+00  0.00000000000E+00  0.16379693262E+03  0.18855270838E+03  0.93395335551E+02 0.  0.
        -11    1    3    3    0    0 -0.41459980568E+01  0.35141485845E+02  0.20379036064E+02  0.40834035291E+02  0.00000000000E+00 0.  1.
         11    1    3    3    0    0  0.41459980568E+01 -0.35141485845E+02  0.14341789656E+03  0.14771867309E+03  0.00000000000E+00 0. -1.
<mgrwt>
<rscale>  0 0.93395336E+02</rscale>
<asrwt>0</asrwt>
<pdfrwt beam="2">  1        2 0.19042906E-02 0.93395336E+02</pdfrwt>
<pdfrwt beam="1">  1       -2 0.27103817E-01 0.93395336E+02</pdfrwt>
<totfact> 0.61797327E+04</totfact>
</mgrwt>
</event>
<event>
 5    1  0.6222456E+000  0.8950990E+02  0.7546771E-02  0.1304043E+00
          2   -1    0    0  501    0  0.00000000000E+00  0.00000000000E+00  0.31925237636E+02  0.31925237636E+02  0.00000000000E+00 0. -1.
         -2   -1    0    0    0  501 -0.00000000000E+00 -0.00000000000E+00 -0.62740506812E+02  0.62740506812E+02  0.00000000000E+00 0.  1.
         23    2    1    2    0    0  0.00000000000E+00  0.00000000000E+00 -0.30815269176E+02  0.94665744449E+02  0.89509900891E+02 0.  0.
        -11    1    3    3    0    0  0.20096040859E+02  0.25051627494E+02  0.17557813311E+02  0.36602072436E+02  0.00000000000E+00 0. -1.
         11    1    3    3    0    0 -0.20096040859E+02 -0.25051627494E+02 -0.48373082487E+02  0.58063672013E+02  0.00000000000E+00 0.  1.
<mgrwt>
<rscale>  0 0.89509901E+02</rscale>
<asrwt>0</asrwt>
<pdfrwt beam="1">  1        2 0.49115751E-02 0.89509901E+02</pdfrwt>
<pdfrwt beam="2">  1       -2 0.96523856E-02 0.89509901E+02</pdfrwt>
<totfact> 0.94957377E+04</totfact>
</mgrwt>
</event>
<event>
 5    1  0.6222456E+000  0.9125490E+02  0.7546771E-02  0.1299841E+00
         -1   -1    0    0    0  501 -0.00000000000E+00  0.00000000000E+00  0.18441127776E+03  0.18441127776E+03  0.00000000000E+00 0.  1.
          1   -1    0    0  501    0  0.00000000000E+00 -0.00000000000E+00 -0.11289245952E+02  0.11289245952E+02  0.00000000000E+00 0. -1.
         23    2    1    2    0    0  0.00000000000E+00  0.00000000000E+00  0.17312203181E+03  0.19570052372E+03  0.91254901698E+02 0.  0.
        -11    1    3    3    0    0 -0.17811614302E+02  0.36103813792E+02  0.13261267277E+03  0.13858881612E+03  0.00000000000E+00 0.  1.
         11    1    3    3    0    0  0.17811614302E+02 -0.36103813792E+02  0.40509359038E+02  0.57111707592E+02  0.00000000000E+00 0. -1.
<mgrwt>
<rscale>  0 0.91254902E+02</rscale>
<asrwt>0</asrwt>
<pdfrwt beam="2">  1        1 0.17368072E-02 0.91254902E+02</pdfrwt>
<pdfrwt beam="1">  1       -1 0.28370964E-01 0.91254902E+02</pdfrwt>
<totfact> 0.70849637E+04</totfact>
</mgrwt>
</event>
<event>
 5    1  0.6222456E+000  0.9110331E+02  0.7546771E-02  0.1300202E+00
          2   -1    0    0  501    0  0.00000000000E+00  0.00000000000E+00  0.23492670361E+03  0.23492670361E+03  0.00000000000E+00 0. -1.
         -2   -1    0    0    0  501 -0.00000000000E+00 -0.00000000000E+00 -0.88323438283E+01  0.88323438283E+01  0.00000000000E+00 0.  1.
         23    2    1    2    0    0  0.00000000000E+00  0.00000000000E+00  0.22609435979E+03  0.24375904744E+03  0.91103313239E+02 0.  0.
        -11    1    3    3    0    0  0.32861067347E+01  0.44871922884E+02  0.13209224964E+03  0.13954443872E+03  0.00000000000E+00 0.  1.
         11    1    3    3    0    0 -0.32861067347E+01 -0.44871922884E+02  0.94002110141E+02  0.10421460873E+03  0.00000000000E+00 0. -1.
<mgrwt>
<rscale>  0 0.91103313E+02</rscale>
<asrwt>0</asrwt>
<pdfrwt beam="1">  1        2 0.36142565E-01 0.91103313E+02</pdfrwt>
<pdfrwt beam="2">  1       -2 0.13588223E-02 0.91103313E+02</pdfrwt>
<totfact> 0.16440493E+05</totfact>
</mgrwt>
</event>
<event>
 4    1  0.6222456E+000  0.1522385E+03  0.7546771E-02  0.1197749E+00
          1   -1    0    0  501    0  0.00000000000E+00  0.00000000000E+00  0.10040152206E+03  0.10040152206E+03  0.00000000000E+00 0. -1.
         -1   -1    0    0    0  501 -0.00000000000E+00 -0.00000000000E+00 -0.57709668483E+02  0.57709668483E+02  0.00000000000E+00 0.  1.
        -11    1    1    2    0    0 -0.44783927139E+02 -0.57467130459E+02 -0.15514850495E+01  0.72873028749E+02  0.00000000000E+00 0. -1.
         11    1    1    2    0    0  0.44783927139E+02  0.57467130459E+02  0.44243338627E+02  0.85238161794E+02  0.00000000000E+00 0.  1.
<mgrwt>
<rscale>  0 0.15223848E+03</rscale>
<asrwt>0</asrwt>
<pdfrwt beam="1">  1        1 0.15446388E-01 0.15223848E+03</pdfrwt>
<pdfrwt beam="2">  1       -1 0.88784105E-02 0.15223848E+03</pdfrwt>
<totfact> 0.24523712E+04</totfact>
</mgrwt>
</event>
<event>
 5    1  0.6222456E+000  0.9241092E+02  0.7546771E-02  0.1297116E+00
          1   -1    0    0  501    0  0.00000000000E+00  0.00000000000E+00  0.92846158461E+02  0.92846158461E+02  0.00000000000E+00 0. -1.
         -1   -1    0    0    0  501 -0.00000000000E+00 -0.00000000000E+00 -0.22994429806E+02  0.22994429806E+02  0.00000000000E+00 0.  1.
         23    2    1    2    0    0  0.00000000000E+00  0.00000000000E+00  0.69851728655E+02  0.11584058827E+03  0.92410918695E+02 0.  0.
        -11    1    3    3    0    0 -0.23324030294E+02  0.39862325486E+02  0.33184803879E+02  0.56870436879E+02  0.00000000000E+00 0.  1.
         11    1    3    3    0    0  0.23324030294E+02 -0.39862325486E+02  0.36666924776E+02  0.58970151389E+02  0.00000000000E+00 0. -1.
<mgrwt>
<rscale>  0 0.92410919E+02</rscale>
<asrwt>0</asrwt>
<pdfrwt beam="1">  1        1 0.14284024E-01 0.92410919E+02</pdfrwt>
<pdfrwt beam="2">  1       -1 0.35376046E-02 0.92410919E+02</pdfrwt>
<totfact> 0.99454166E+04</totfact>
</mgrwt>
</event>
<event>
 5    1  0.6222456E+000  0.9166082E+02  0.7546771E-02  0.1298879E+00
         -1   -1    0    0    0  501 -0.00000000000E+00  0.00000000000E+00  0.52398923975E+01  0.52398923975E+01  0.00000000000E+00 0.  1.
          1   -1    0    0  501    0  0.00000000000E+00 -0.00000000000E+00 -0.40085299168E+03  0.40085299168E+03  0.00000000000E+00 0. -1.
         23    2    1    2    0    0  0.00000000000E+00  0.00000000000E+00 -0.39561309929E+03  0.40609288408E+03  0.91660821372E+02 0.  0.
        -11    1    3    3    0    0  0.25036490528E+02 -0.36660930214E+02 -0.14737464194E+03  0.15391599900E+03  0.00000000000E+00 0.  1.
         11    1    3    3    0    0 -0.25036490528E+02  0.36660930214E+02 -0.24823845735E+03  0.25217688508E+03  0.00000000000E+00 0. -1.
<mgrwt>
<rscale>  0 0.91660821E+02</rscale>
<asrwt>0</asrwt>
<pdfrwt beam="2">  1        1 0.61669695E-01 0.91660821E+02</pdfrwt>
<pdfrwt beam="1">  1       -1 0.80613724E-03 0.91660821E+02</pdfrwt>
<totfact> 0.13305352E+05</totfact>
</mgrwt>
</event>
<event>
 5    1  0.6222456E+000  0.9115226E+02  0.7546771E-02  0.1300085E+00
          4   -1    0    0  501    0  0.00000000000E+00  0.00000000000E+00  0.98068192811E+02  0.98068192811E+02  0.00000000000E+00 0. -1.
         -4   -1    0    0    0  501 -0.00000000000E+00 -0.00000000000E+00 -0.21181011477E+02  0.21181011477E+02  0.00000000000E+00 0.  1.
         23    2    1    2    0    0  0.00000000000E+00  0.00000000000E+00  0.76887181334E+02  0.11924920429E+03  0.91152257624E+02 0.  0.
        -11    1    3    3    0    0  0.31025216378E+02 -0.29400376439E+02  0.59138527745E+02  0.72967880947E+02  0.00000000000E+00 0. -1.
         11    1    3    3    0    0 -0.31025216378E+02  0.29400376439E+02  0.17748653589E+02  0.46281323342E+02  0.00000000000E+00 0.  1.
<mgrwt>
<rscale>  0 0.91152258E+02</rscale>
<asrwt>0</asrwt>
<pdfrwt beam="1">  1        4 0.15087414E-01 0.91152258E+02</pdfrwt>
<pdfrwt beam="2">  1       -4 0.32586172E-02 0.91152258E+02</pdfrwt>
<totfact> 0.25333835E+04</totfact>
</mgrwt>
</event>
<event>
 5    1  0.6222456E+000  0.9045084E+02  0.7546771E-02  0.1301764E+00
         -1   -1    0    0    0  501 -0.00000000000E+00  0.00000000000E+00  0.21312686406E+02  0.21312686406E+02  0.00000000000E+00 0.  1.
          1   -1    0    0  501    0  0.00000000000E+00 -0.00000000000E+00 -0.95968118093E+02  0.95968118093E+02  0.00000000000E+00 0. -1.
         23    2    1    2    0    0  0.00000000000E+00  0.00000000000E+00 -0.74655431688E+02  0.11728080450E+03  0.90450835394E+02 0.  0.
        -11    1    3    3    0    0 -0.11111938477E+02  0.42546284961E+02 -0.51030094390E+02  0.67362690521E+02  0.00000000000E+00 0.  1.
         11    1    3    3    0    0  0.11111938477E+02 -0.42546284961E+02 -0.23625337297E+02  0.49918113978E+02  0.00000000000E+00 0. -1.
<mgrwt>
<rscale>  0 0.90450835E+02</rscale>
<asrwt>0</asrwt>
<pdfrwt beam="2">  1        1 0.14764326E-01 0.90450835E+02</pdfrwt>
<pdfrwt beam="1">  1       -1 0.32788748E-02 0.90450835E+02</pdfrwt>
<totfact> 0.10602892E+05</totfact>
</mgrwt>
</event>
<event>
 5    1  0.6222456E+000  0.9060938E+02  0.7546771E-02  0.1301383E+00
         -2   -1    0    0    0  501 -0.00000000000E+00  0.00000000000E+00  0.98063819405E+01  0.98063819405E+01  0.00000000000E+00 0.  1.
          2   -1    0    0  501    0  0.00000000000E+00 -0.00000000000E+00 -0.20930397685E+03  0.20930397685E+03  0.00000000000E+00 0. -1.
         23    2    1    2    0    0  0.00000000000E+00  0.00000000000E+00 -0.19949759491E+03  0.21911035879E+03  0.90609375645E+02 0.  0.
        -11    1    3    3    0    0 -0.70925864782E+01  0.42525943076E+02 -0.66088709487E+02  0.78908035960E+02  0.00000000000E+00 0.  1.
         11    1    3    3    0    0  0.70925864782E+01 -0.42525943076E+02 -0.13340888543E+03  0.14020232283E+03  0.00000000000E+00 0. -1.
<mgrwt>
<rscale>  0 0.90609376E+02</rscale>
<asrwt>0</asrwt>
<pdfrwt beam="2">  1        2 0.32200613E-01 0.90609376E+02</pdfrwt>
<pdfrwt beam="1">  1       -2 0.15086741E-02 0.90609376E+02</pdfrwt>
<totfact> 0.15991310E+05</totfact>
</mgrwt>
</event>
<event>
 5    1  0.6222456E+000  0.8716752E+02  0.7546771E-02  0.1309860E+00
         -3   -1    0    0    0  501 -0.00000000000E+00  0.00000000000E+00  0.33486807932E+02  0.33486807932E+02  0.00000000000E+00 0.  1.
          3   -1    0    0  501    0  0.00000000000E+00 -0.00000000000E+00 -0.56725149217E+02  0.56725149217E+02  0.00000000000E+00 0. -1.
         23    2    1    2    0    0  0.00000000000E+00  0.00000000000E+00 -0.23238341284E+02  0.90211957149E+02  0.87167520941E+02 0.  0.
        -11    1    3    3    0    0 -0.26687904781E+02  0.94379116396E+01  0.22677757159E+02  0.36271188393E+02  0.00000000000E+00 0.  1.
         11    1    3    3    0    0  0.26687904781E+02 -0.94379116396E+01 -0.45916098443E+02  0.53940768756E+02  0.00000000000E+00 0. -1.
<mgrwt>
<rscale>  0 0.87167521E+02</rscale>
<asrwt>0</asrwt>
<pdfrwt beam="2">  1        3 0.87269458E-02 0.87167521E+02</pdfrwt>
<pdfrwt beam="1">  1       -3 0.51518167E-02 0.87167521E+02</pdfrwt>
<totfact> 0.40009154E+04</totfact>
</mgrwt>
</event>
<event>
 5    1  0.6222456E+000  0.9082203E+02  0.7546771E-02  0.1300873E+00
          1   -1    0    0  501    0  0.00000000000E+00  0.00000000000E+00  0.19225466194E+03  0.19225466194E+03  0.00000000000E+00 0.  1.
         -1   -1    0    0    0  501 -0.00000000000E+00 -0.00000000000E+00 -0.10726190145E+02  0.10726190145E+02  0.00000000000E+00 0. -1.
         23    2    1    2    0    0  0.00000000000E+00  0.00000000000E+00  0.18152847179E+03  0.20298085209E+03  0.90822025089E+02 0.  0.
        -11    1    3    3    0    0 -0.21806120697E+02 -0.19810521705E+02  0.16799703358E+03  0.17056074274E+03  0.00000000000E+00 0.  1.
         11    1    3    3    0    0  0.21806120697E+02  0.19810521705E+02  0.13531438210E+02  0.32420109347E+02  0.00000000000E+00 0. -1.
<mgrwt>
<rscale>  0 0.90822025E+02</rscale>
<asrwt>0</asrwt>
<pdfrwt beam="1">  1        1 0.29577638E-01 0.90822025E+02</pdfrwt>
<pdfrwt beam="2">  1       -1 0.16501832E-02 0.90822025E+02</pdfrwt>
<totfact> 0.11874003E+05</totfact>
</mgrwt>
</event>
<event>
 5    1  0.6222456E+000  0.9091851E+02  0.7546771E-02  0.1300643E+00
          1   -1    0    0  501    0  0.00000000000E+00  0.00000000000E+00  0.36751037533E+03  0.36751037533E+03  0.00000000000E+00 0. -1.
         -1   -1    0    0    0  501 -0.00000000000E+00 -0.00000000000E+00 -0.56230903943E+01  0.56230903943E+01  0.00000000000E+00 0.  1.
         23    2    1    2    0    0  0.00000000000E+00  0.00000000000E+00  0.36188728494E+03  0.37313346573E+03  0.90918514315E+02 0.  0.
        -11    1    3    3    0    0 -0.44969654846E+02  0.19298861484E+00  0.20823998803E+03  0.21304037110E+03  0.00000000000E+00 0. -1.
         11    1    3    3    0    0  0.44969654846E+02 -0.19298861484E+00  0.15364729690E+03  0.16009309463E+03  0.00000000000E+00 0.  1.
<mgrwt>
<rscale>  0 0.90918514E+02</rscale>
<asrwt>0</asrwt>
<pdfrwt beam="1">  1        1 0.56540039E-01 0.90918514E+02</pdfrwt>
<pdfrwt beam="2">  1       -1 0.86509112E-03 0.90918514E+02</pdfrwt>
<totfact> 0.13397633E+05</totfact>
</mgrwt>
</event>
<event>
 5    1  0.6222456E+000  0.8881222E+02  0.7546771E-02  0.1305754E+00
          4   -1    0    0  501    0  0.00000000000E+00  0.00000000000E+00  0.96863549718E+02  0.96863549718E+02  0.00000000000E+00 0. -1.
         -4   -1    0    0    0  501 -0.00000000000E+00 -0.00000000000E+00 -0.20357528334E+02  0.20357528334E+02  0.00000000000E+00 0.  1.
         23    2    1    2    0    0  0.00000000000E+00  0.00000000000E+00  0.76506021384E+02  0.11722107805E+03  0.88812216681E+02 0.  0.
        -11    1    3    3    0    0 -0.28717734784E+02  0.26470940687E+01 -0.63147748061E+01  0.29522733258E+02  0.00000000000E+00 0.  1.
         11    1    3    3    0    0  0.28717734784E+02 -0.26470940687E+01  0.82820796190E+02  0.87698344794E+02  0.00000000000E+00 0. -1.
<mgrwt>
<rscale>  0 0.88812217E+02</rscale>
<asrwt>0</asrwt>
<pdfrwt beam="1">  1        4 0.14902084E-01 0.88812217E+02</pdfrwt>
<pdfrwt beam="2">  1       -4 0.31319275E-02 0.88812217E+02</pdfrwt>
<totfact> 0.27296135E+04</totfact>
</mgrwt>
</event>
<event>
 5    1  0.6222456E+000  0.9126682E+02  0.7546771E-02  0.1299813E+00
          3   -1    0    0  501    0  0.00000000000E+00  0.00000000000E+00  0.95651949905E+01  0.95651949905E+01  0.00000000000E+00 0. -1.
         -3   -1    0    0    0  501 -0.00000000000E+00 -0.00000000000E+00 -0.21770679832E+03  0.21770679832E+03  0.00000000000E+00 0.  1.
         23    2    1    2    0    0  0.00000000000E+00  0.00000000000E+00 -0.20814160333E+03  0.22727199331E+03  0.91266817118E+02 0.  0.
        -11    1    3    3    0    0  0.14847443227E+02 -0.29583732645E+02 -0.18229474433E+03  0.18527551813E+03  0.00000000000E+00 0. -1.
         11    1    3    3    0    0 -0.14847443227E+02  0.29583732645E+02 -0.25846859001E+02  0.41996475183E+02  0.00000000000E+00 0.  1.
<mgrwt>
<rscale>  0 0.91266817E+02</rscale>
<asrwt>0</asrwt>
<pdfrwt beam="1">  1        3 0.14715686E-02 0.91266817E+02</pdfrwt>
<pdfrwt beam="2">  1       -3 0.33493350E-01 0.91266817E+02</pdfrwt>
<totfact> 0.27072450E+04</totfact>
</mgrwt>
</event>
<event>
 5    1  0.6222456E+000  0.8907571E+02  0.7546771E-02  0.1305106E+00
          2   -1    0    0  501    0  0.00000000000E+00  0.00000000000E+00  0.13183249580E+03  0.13183249580E+03  0.00000000000E+00 0. -1.
         -2   -1    0    0    0  501 -0.00000000000E+00 -0.00000000000E+00 -0.15046522146E+02  0.15046522146E+02  0.00000000000E+00 0.  1.
         23    2    1    2    0    0  0.00000000000E+00  0.00000000000E+00  0.11678597366E+03  0.14687901795E+03  0.89075710892E+02 0.  0.
        -11    1    3    3    0    0  0.76242606601E+01  0.27621397808E+02  0.21709974646E+01  0.28736461116E+02  0.00000000000E+00 0.  1.
         11    1    3    3    0    0 -0.76242606601E+01 -0.27621397808E+02  0.11461497619E+03  0.11814255683E+03  0.00000000000E+00 0. -1.
<mgrwt>
<rscale>  0 0.89075711E+02</rscale>
<asrwt>0</asrwt>
<pdfrwt beam="1">  1        2 0.20281922E-01 0.89075711E+02</pdfrwt>
<pdfrwt beam="2">  1       -2 0.23148496E-02 0.89075711E+02</pdfrwt>
<totfact> 0.14265789E+05</totfact>
</mgrwt>
</event>
<event>
 5    1  0.6222456E+000  0.9111263E+02  0.7546771E-02  0.1300179E+00
         -2   -1    0    0    0  501 -0.00000000000E+00  0.00000000000E+00  0.33770440343E+02  0.33770440343E+02  0.00000000000E+00 0.  1.
          2   -1    0    0  501    0  0.00000000000E+00 -0.00000000000E+00 -0.61455459443E+02  0.61455459443E+02  0.00000000000E+00 0. -1.
         23    2    1    2    0    0  0.00000000000E+00  0.00000000000E+00 -0.27685019100E+02  0.95225899786E+02  0.91112631986E+02 0.  0.
        -11    1    3    3    0    0  0.18457190760E+02  0.34461032878E+02  0.10604661019E+02  0.40505425725E+02  0.00000000000E+00 0.  1.
         11    1    3    3    0    0 -0.18457190760E+02 -0.34461032878E+02 -0.38289680119E+02  0.54720474061E+02  0.00000000000E+00 0. -1.
<mgrwt>
<rscale>  0 0.91112632E+02</rscale>
<asrwt>0</asrwt>
<pdfrwt beam="2">  1        2 0.94546861E-02 0.91112632E+02</pdfrwt>
<pdfrwt beam="1">  1       -2 0.51954524E-02 0.91112632E+02</pdfrwt>
<totfact> 0.10696741E+05</totfact>
</mgrwt>
</event>
<event>
 5    1  0.6222456E+000  0.9029838E+02  0.7546771E-02  0.1302131E+00
          2   -1    0    0  501    0  0.00000000000E+00  0.00000000000E+00  0.51043822039E+02  0.51043822039E+02  0.00000000000E+00 0. -1.
         -2   -1    0    0    0  501 -0.00000000000E+00 -0.00000000000E+00 -0.39935279745E+02  0.39935279745E+02  0.00000000000E+00 0.  1.
         23    2    1    2    0    0  0.00000000000E+00  0.00000000000E+00  0.11108542295E+02  0.90979101784E+02  0.90298378997E+02 0.  0.
        -11    1    3    3    0    0 -0.17596859670E+02  0.19121436458E+02 -0.31645201383E+02  0.40947497763E+02  0.00000000000E+00 0.  1.
         11    1    3    3    0    0  0.17596859670E+02 -0.19121436458E+02  0.42753743678E+02  0.50031604021E+02  0.00000000000E+00 0. -1.
<mgrwt>
<rscale>  0 0.90298379E+02</rscale>
<asrwt>0</asrwt>
<pdfrwt beam="1">  1        2 0.78528957E-02 0.90298379E+02</pdfrwt>
<pdfrwt beam="2">  1       -2 0.61438892E-02 0.90298379E+02</pdfrwt>
<totfact> 0.10446229E+05</totfact>
</mgrwt>
</event>
<event>
 5    1  0.6222456E+000  0.9384845E+02  0.7546771E-02  0.1293791E+00
         -2   -1    0    0    0  501 -0.00000000000E+00  0.00000000000E+00  0.84285863458E+01  0.84285863458E+01  0.00000000000E+00 0.  1.
          2   -1    0    0  501    0  0.00000000000E+00 -0.00000000000E+00 -0.26123990521E+03  0.26123990521E+03  0.00000000000E+00 0. -1.
         23    2    1    2    0    0  0.00000000000E+00  0.00000000000E+00 -0.25281131886E+03  0.26966849156E+03  0.93848454394E+02 0.  0.
        -11    1    3    3    0    0  0.46660128016E+02  0.49404552715E+01 -0.12481237734E+03  0.13334056090E+03  0.00000000000E+00 0. -1.
         11    1    3    3    0    0 -0.46660128016E+02 -0.49404552715E+01 -0.12799894153E+03  0.13632793065E+03  0.00000000000E+00 0.  1.
<mgrwt>
<rscale>  0 0.93848454E+02</rscale>
<asrwt>0</asrwt>
<pdfrwt beam="2">  1        2 0.40190748E-01 0.93848454E+02</pdfrwt>
<pdfrwt beam="1">  1       -2 0.12967058E-02 0.93848454E+02</pdfrwt>
<totfact> 0.15790860E+05</totfact>
</mgrwt>
</event>
<event>
 5    1  0.6222456E+000  0.9036165E+02  0.7546771E-02  0.1301978E+00
          2   -1    0    0  501    0  0.00000000000E+00  0.00000000000E+00  0.46987931523E+02  0.46987931523E+02  0.00000000000E+00 0. -1.
         -2   -1    0    0    0  501 -0.00000000000E+00 -0.00000000000E+00 -0.43443214554E+02  0.43443214554E+02  0.00000000000E+00 0.  1.
         23    2    1    2    0    0  0.00000000000E+00  0.00000000000E+00  0.35447169687E+01  0.90431146077E+02  0.90361646523E+02 0.  0.
        -11    1    3    3    0    0  0.11259270851E+02  0.13457881052E+02 -0.39894037020E+02  0.43582335094E+02  0.00000000000E+00 0.  1.
         11    1    3    3    0    0 -0.11259270851E+02 -0.13457881052E+02  0.43438753988E+02  0.46848810983E+02  0.00000000000E+00 0. -1.
<mgrwt>
<rscale>  0 0.90361647E+02</rscale>
<asrwt>0</asrwt>
<pdfrwt beam="1">  1        2 0.72289125E-02 0.90361647E+02</pdfrwt>
<pdfrwt beam="2">  1       -2 0.66835715E-02 0.90361647E+02</pdfrwt>
<totfact> 0.10203997E+05</totfact>
</mgrwt>
</event>
<event>
 5    1  0.6222456E+000  0.9136049E+02  0.7546771E-02  0.1299590E+00
         -2   -1    0    0    0  501 -0.00000000000E+00  0.00000000000E+00  0.61149567284E+02  0.61149567284E+02  0.00000000000E+00 0.  1.
          2   -1    0    0  501    0  0.00000000000E+00 -0.00000000000E+00 -0.34124280223E+02  0.34124280223E+02  0.00000000000E+00 0. -1.
         23    2    1    2    0    0  0.00000000000E+00  0.00000000000E+00  0.27025287062E+02  0.95273847507E+02  0.91360494077E+02 0.  0.
        -11    1    3    3    0    0 -0.35628341162E+02  0.19532531164E+02 -0.82570417956E+01  0.41461755955E+02  0.00000000000E+00 0. -1.
         11    1    3    3    0    0  0.35628341162E+02 -0.19532531164E+02  0.35282328857E+02  0.53812091552E+02  0.00000000000E+00 0.  1.
<mgrwt>
<rscale>  0 0.91360494E+02</rscale>
<asrwt>0</asrwt>
<pdfrwt beam="2">  1        2 0.52498893E-02 0.91360494E+02</pdfrwt>
<pdfrwt beam="1">  1       -2 0.94076257E-02 0.91360494E+02</pdfrwt>
<totfact> 0.90989533E+04</totfact>
</mgrwt>
</event>
<event>
 5    1  0.6222456E+000  0.9134142E+02  0.7546771E-02  0.1299635E+00
          2   -1    0    0  501    0  0.00000000000E+00  0.00000000000E+00  0.12086774233E+02  0.12086774233E+02  0.00000000000E+00 0.  1.
         -2   -1    0    0    0  501 -0.00000000000E+00 -0.00000000000E+00 -0.17256991785E+03  0.17256991785E+03  0.00000000000E+00 0. -1.
         23    2    1    2    0    0  0.00000000000E+00  0.00000000000E+00 -0.16048314362E+03  0.18465669209E+03  0.91341417475E+02 0.  0.
        -11    1    3    3    0    0 -0.22180256237E+02  0.36379589962E+02 -0.11348308728E+03  0.12121818936E+03  0.00000000000E+00 0. -1.
         11    1    3    3    0    0  0.22180256237E+02 -0.36379589962E+02 -0.47000056339E+02  0.63438502729E+02  0.00000000000E+00 0.  1.
<mgrwt>
<rscale>  0 0.91341417E+02</rscale>
<asrwt>0</asrwt>
<pdfrwt beam="1">  1        2 0.18595038E-02 0.91341417E+02</pdfrwt>
<pdfrwt beam="2">  1       -2 0.26549217E-01 0.91341417E+02</pdfrwt>
<totfact> 0.65938443E+04</totfact>
</mgrwt>
</event>
<event>
 5    1  0.6222456E+000  0.9055647E+02  0.7546771E-02  0.1301510E+00
          2   -1    0    0  501    0  0.00000000000E+00  0.00000000000E+00  0.12696015303E+03  0.12696015303E+03  0.00000000000E+00 0. -1.
         -2   -1    0    0    0  501 -0.00000000000E+00 -0.00000000000E+00 -0.16147732327E+02  0.16147732327E+02  0.00000000000E+00 0.  1.
         23    2    1    2    0    0  0.00000000000E+00  0.00000000000E+00  0.11081242071E+03  0.14310788536E+03  0.90556470058E+02 0.  0.
        -11    1    3    3    0    0 -0.16019384890E+02 -0.32024473718E+02  0.99199257757E+02  0.10546411877E+03  0.00000000000E+00 0. -1.
         11    1    3    3    0    0  0.16019384890E+02  0.32024473718E+02  0.11613162951E+02  0.37643766588E+02  0.00000000000E+00 0.  1.
<mgrwt>
<rscale>  0 0.90556470E+02</rscale>
<asrwt>0</asrwt>
<pdfrwt beam="1">  1        2 0.19532331E-01 0.90556470E+02</pdfrwt>
<pdfrwt beam="2">  1       -2 0.24842666E-02 0.90556470E+02</pdfrwt>
<totfact> 0.13473767E+05</totfact>
</mgrwt>
</event>
<event>
 5    1  0.6222456E+000  0.9119944E+02  0.7546771E-02  0.1299973E+00
          1   -1    0    0  501    0  0.00000000000E+00  0.00000000000E+00  0.15352282772E+03  0.15352282772E+03  0.00000000000E+00 0. -1.
         -1   -1    0    0    0  501 -0.00000000000E+00 -0.00000000000E+00 -0.13544137950E+02  0.13544137950E+02  0.00000000000E+00 0.  1.
         23    2    1    2    0    0  0.00000000000E+00  0.00000000000E+00  0.13997868977E+03  0.16706696567E+03  0.91199437653E+02 0.  0.
        -11    1    3    3    0    0 -0.62218245461E+01  0.44996806196E+02  0.62682280884E+02  0.77411187857E+02  0.00000000000E+00 0. -1.
         11    1    3    3    0    0  0.62218245461E+01 -0.44996806196E+02  0.77296408883E+02  0.89655777810E+02  0.00000000000E+00 0.  1.
<mgrwt>
<rscale>  0 0.91199438E+02</rscale>
<asrwt>0</asrwt>
<pdfrwt beam="1">  1        1 0.23618895E-01 0.91199438E+02</pdfrwt>
<pdfrwt beam="2">  1       -1 0.20837136E-02 0.91199438E+02</pdfrwt>
<totfact> 0.11253818E+05</totfact>
</mgrwt>
</event>
<event>
 5    1  0.6222456E+000  0.9403355E+02  0.7546771E-02  0.1293368E+00
         -1   -1    0    0    0  501 -0.00000000000E+00  0.00000000000E+00  0.39505611023E+02  0.39505611023E+02  0.00000000000E+00 0.  1.
          1   -1    0    0  501    0  0.00000000000E+00 -0.00000000000E+00 -0.55956031139E+02  0.55956031139E+02  0.00000000000E+00 0. -1.
         23    2    1    2    0    0  0.00000000000E+00  0.00000000000E+00 -0.16450420115E+02  0.95461642162E+02  0.94033551471E+02 0.  0.
        -11    1    3    3    0    0 -0.38045875540E+02  0.27481934611E+02 -0.53841687405E+01  0.47241238855E+02  0.00000000000E+00 0.  1.
         11    1    3    3    0    0  0.38045875540E+02 -0.27481934611E+02 -0.11066251375E+02  0.48220403307E+02  0.00000000000E+00 0. -1.
<mgrwt>
<rscale>  0 0.94033551E+02</rscale>
<asrwt>0</asrwt>
<pdfrwt beam="2">  1        1 0.86086202E-02 0.94033551E+02</pdfrwt>
<pdfrwt beam="1">  1       -1 0.60777863E-02 0.94033551E+02</pdfrwt>
<totfact> 0.87495343E+04</totfact>
</mgrwt>
</event>
<event>
 5    1  0.6222456E+000  0.9028150E+02  0.7546771E-02  0.1302171E+00
          3   -1    0    0  501    0  0.00000000000E+00  0.00000000000E+00  0.11484542942E+02  0.11484542942E+02  0.00000000000E+00 0. -1.
         -3   -1    0    0    0  501 -0.00000000000E+00 -0.00000000000E+00 -0.17742870061E+03  0.17742870061E+03  0.00000000000E+00 0.  1.
         23    2    1    2    0    0  0.00000000000E+00  0.00000000000E+00 -0.16594415767E+03  0.18891324355E+03  0.90281504889E+02 0.  0.
        -11    1    3    3    0    0 -0.30533327301E+02 -0.30838980389E+02 -0.10896960634E+03  0.11729323038E+03  0.00000000000E+00 0.  1.
         11    1    3    3    0    0  0.30533327301E+02  0.30838980389E+02 -0.56974551333E+02  0.71620013174E+02  0.00000000000E+00 0. -1.
<mgrwt>
<rscale>  0 0.90281505E+02</rscale>
<asrwt>0</asrwt>
<pdfrwt beam="1">  1        3 0.17668528E-02 0.90281505E+02</pdfrwt>
<pdfrwt beam="2">  1       -3 0.27296722E-01 0.90281505E+02</pdfrwt>
<totfact> 0.29865355E+04</totfact>
</mgrwt>
</event>
<event>
 5    1  0.6222456E+000  0.9114762E+02  0.7546771E-02  0.1300096E+00
         -2   -1    0    0    0  501 -0.00000000000E+00  0.00000000000E+00  0.79074151681E+02  0.79074151681E+02  0.00000000000E+00 0.  1.
          2   -1    0    0  501    0  0.00000000000E+00 -0.00000000000E+00 -0.26266130197E+02  0.26266130197E+02  0.00000000000E+00 0. -1.
         23    2    1    2    0    0  0.00000000000E+00  0.00000000000E+00  0.52808021483E+02  0.10534028188E+03  0.91147615729E+02 0.  0.
        -11    1    3    3    0    0 -0.15382107968E+02 -0.42627648717E+02  0.20831820697E+02  0.49876752443E+02  0.00000000000E+00 0. -1.
         11    1    3    3    0    0  0.15382107968E+02  0.42627648717E+02  0.31976200786E+02  0.55463529435E+02  0.00000000000E+00 0.  1.
<mgrwt>
<rscale>  0 0.91147616E+02</rscale>
<asrwt>0</asrwt>
<pdfrwt beam="2">  1        2 0.40409431E-02 0.91147616E+02</pdfrwt>
<pdfrwt beam="1">  1       -2 0.12165254E-01 0.91147616E+02</pdfrwt>
<totfact> 0.85419524E+04</totfact>
</mgrwt>
</event>
<event>
 5    1  0.6222456E+000  0.9082628E+02  0.7546771E-02  0.1300863E+00
          2   -1    0    0  501    0  0.00000000000E+00  0.00000000000E+00  0.75294938297E+02  0.75294938297E+02  0.00000000000E+00 0. -1.
         -2   -1    0    0    0  501 -0.00000000000E+00 -0.00000000000E+00 -0.27390332689E+02  0.27390332689E+02  0.00000000000E+00 0.  1.
         23    2    1    2    0    0  0.00000000000E+00  0.00000000000E+00  0.47904605608E+02  0.10268527099E+03  0.90826282755E+02 0.  0.
        -11    1    3    3    0    0  0.14578934692E+02 -0.16627887974E+02  0.68796405690E+02  0.72263250904E+02  0.00000000000E+00 0. -1.
         11    1    3    3    0    0 -0.14578934692E+02  0.16627887974E+02 -0.20891800083E+02  0.30422020083E+02  0.00000000000E+00 0.  1.
<mgrwt>
<rscale>  0 0.90826283E+02</rscale>
<asrwt>0</asrwt>
<pdfrwt beam="1">  1        2 0.11583837E-01 0.90826283E+02</pdfrwt>
<pdfrwt beam="2">  1       -2 0.42138974E-02 0.90826283E+02</pdfrwt>
<totfact> 0.11411473E+05</totfact>
</mgrwt>
</event>
<event>
 5    1  0.6222456E+000  0.9180220E+02  0.7546771E-02  0.1298545E+00
         -2   -1    0    0    0  501 -0.00000000000E+00  0.00000000000E+00  0.13088925540E+02  0.13088925540E+02  0.00000000000E+00 0.  1.
          2   -1    0    0  501    0  0.00000000000E+00 -0.00000000000E+00 -0.16096898517E+03  0.16096898517E+03  0.00000000000E+00 0. -1.
         23    2    1    2    0    0  0.00000000000E+00  0.00000000000E+00 -0.14788005963E+03  0.17405791070E+03  0.91802201738E+02 0.  0.
        -11    1    3    3    0    0  0.38953242244E+02 -0.19297466667E+02 -0.45999518780E+02  0.63290623548E+02  0.00000000000E+00 0.  1.
         11    1    3    3    0    0 -0.38953242244E+02  0.19297466667E+02 -0.10188054085E+03  0.11076728716E+03  0.00000000000E+00 0. -1.
<mgrwt>
<rscale>  0 0.91802202E+02</rscale>
<asrwt>0</asrwt>
<pdfrwt beam="2">  1        2 0.24764459E-01 0.91802202E+02</pdfrwt>
<pdfrwt beam="1">  1       -2 0.20136809E-02 0.91802202E+02</pdfrwt>
<totfact> 0.14060427E+05</totfact>
</mgrwt>
</event>
<event>
 5    1  0.6222456E+000  0.9297811E+02  0.7546771E-02  0.1295796E+00
          1   -1    0    0  501    0  0.00000000000E+00  0.00000000000E+00  0.69892430535E+02  0.69892430535E+02  0.00000000000E+00 0. -1.
         -1   -1    0    0    0  501 -0.00000000000E+00 -0.00000000000E+00 -0.30922262487E+02  0.30922262487E+02  0.00000000000E+00 0.  1.
         23    2    1    2    0    0  0.00000000000E+00  0.00000000000E+00  0.38970168049E+02  0.10081469302E+03  0.92978106731E+02 0.  0.
        -11    1    3    3    0    0 -0.37762612250E+02 -0.17681436061E+02 -0.28043821491E+01  0.41791298428E+02  0.00000000000E+00 0.  1.
         11    1    3    3    0    0  0.37762612250E+02  0.17681436061E+02  0.41774550198E+02  0.59023394593E+02  0.00000000000E+00 0. -1.
<mgrwt>
<rscale>  0 0.92978107E+02</rscale>
<asrwt>0</asrwt>
<pdfrwt beam="1">  1        1 0.10752682E-01 0.92978107E+02</pdfrwt>
<pdfrwt beam="2">  1       -1 0.47572712E-02 0.92978107E+02</pdfrwt>
<totfact> 0.93450363E+04</totfact>
</mgrwt>
</event>
<event>
 5    1  0.6222456E+000  0.8079140E+02  0.7546771E-02  0.1326820E+00
         -1   -1    0    0    0  501 -0.00000000000E+00  0.00000000000E+00  0.17532294686E+02  0.17532294686E+02  0.00000000000E+00 0.  1.
          1   -1    0    0  501    0  0.00000000000E+00 -0.00000000000E+00 -0.93074676339E+02  0.93074676339E+02  0.00000000000E+00 0. -1.
         23    2    1    2    0    0  0.00000000000E+00  0.00000000000E+00 -0.75542381652E+02  0.11060697102E+03  0.80791401854E+02 0.  0.
        -11    1    3    3    0    0 -0.20771271257E+02 -0.40232364751E+01 -0.84882623370E+02  0.87479665589E+02  0.00000000000E+00 0. -1.
         11    1    3    3    0    0  0.20771271257E+02  0.40232364751E+01  0.93402417177E+01  0.23127305436E+02  0.00000000000E+00 0.  1.
<mgrwt>
<rscale>  0 0.80791402E+02</rscale>
<asrwt>0</asrwt>
<pdfrwt beam="2">  1        1 0.14319181E-01 0.80791402E+02</pdfrwt>
<pdfrwt beam="1">  1       -1 0.26972761E-02 0.80791402E+02</pdfrwt>
<totfact> 0.14322922E+05</totfact>
</mgrwt>
</event>
<event>
 5    1  0.6222456E+000  0.9171898E+02  0.7546771E-02  0.1298742E+00
          4   -1    0    0  501    0  0.00000000000E+00  0.00000000000E+00  0.22733975899E+02  0.22733975899E+02  0.00000000000E+00 0. -1.
         -4   -1    0    0    0  501 -0.00000000000E+00 -0.00000000000E+00 -0.92508790104E+02  0.92508790104E+02  0.00000000000E+00 0.  1.
         23    2    1    2    0    0  0.00000000000E+00  0.00000000000E+00 -0.69774814205E+02  0.11524276600E+03  0.91718975238E+02 0.  0.
        -11    1    3    3    0    0 -0.20053179931E+02 -0.39856625364E+02 -0.21565671640E+02  0.49555613244E+02  0.00000000000E+00 0. -1.
         11    1    3    3    0    0  0.20053179931E+02  0.39856625364E+02 -0.48209142565E+02  0.65687152759E+02  0.00000000000E+00 0.  1.
<mgrwt>
<rscale>  0 0.91718975E+02</rscale>
<asrwt>0</asrwt>
<pdfrwt beam="1">  1        4 0.34975347E-02 0.91718975E+02</pdfrwt>
<pdfrwt beam="2">  1       -4 0.14232122E-01 0.91718975E+02</pdfrwt>
<totfact> 0.25138231E+04</totfact>
</mgrwt>
</event>
<event>
 5    1  0.6222456E+000  0.9119830E+02  0.7546771E-02  0.1299976E+00
         -1   -1    0    0    0  501 -0.00000000000E+00  0.00000000000E+00  0.23445295710E+03  0.23445295710E+03  0.00000000000E+00 0.  1.
          1   -1    0    0  501    0  0.00000000000E+00 -0.00000000000E+00 -0.88686549369E+01  0.88686549369E+01  0.00000000000E+00 0. -1.
         23    2    1    2    0    0  0.00000000000E+00  0.00000000000E+00  0.22558430216E+03  0.24332161203E+03  0.91198297690E+02 0.  0.
        -11    1    3    3    0    0 -0.41069339570E+02 -0.19491606299E+02  0.10329561474E+03  0.11285653456E+03  0.00000000000E+00 0. -1.
         11    1    3    3    0    0  0.41069339570E+02  0.19491606299E+02  0.12228868742E+03  0.13046507747E+03  0.00000000000E+00 0.  1.
<mgrwt>
<rscale>  0 0.91198298E+02</rscale>
<asrwt>0</asrwt>
<pdfrwt beam="2">  1        1 0.13644086E-02 0.91198298E+02</pdfrwt>
<pdfrwt beam="1">  1       -1 0.36069681E-01 0.91198298E+02</pdfrwt>
<totfact> 0.66113321E+04</totfact>
</mgrwt>
</event>
<event>
 5    1  0.6222456E+000  0.9134522E+02  0.7546771E-02  0.1299626E+00
         -1   -1    0    0    0  501 -0.00000000000E+00  0.00000000000E+00  0.17434878253E+03  0.17434878253E+03  0.00000000000E+00 0.  1.
          1   -1    0    0  501    0  0.00000000000E+00 -0.00000000000E+00 -0.11964450532E+02  0.11964450532E+02  0.00000000000E+00 0. -1.
         23    2    1    2    0    0  0.00000000000E+00  0.00000000000E+00  0.16238433199E+03  0.18631323306E+03  0.91345221742E+02 0.  0.
        -11    1    3    3    0    0  0.80521247349E+01  0.32507822847E+02  0.14453313389E+03  0.14836246847E+03  0.00000000000E+00 0.  1.
         11    1    3    3    0    0 -0.80521247349E+01 -0.32507822847E+02  0.17851198107E+02  0.37950764588E+02  0.00000000000E+00 0. -1.
<mgrwt>
<rscale>  0 0.91345222E+02</rscale>
<asrwt>0</asrwt>
<pdfrwt beam="2">  1        1 0.18406848E-02 0.91345222E+02</pdfrwt>
<pdfrwt beam="1">  1       -1 0.26822888E-01 0.91345222E+02</pdfrwt>
<totfact> 0.71724174E+04</totfact>
</mgrwt>
</event>
<event>
 5    1  0.6222456E+000  0.7551848E+02  0.7546771E-02  0.1342273E+00
          1   -1    0    0  501    0  0.00000000000E+00  0.00000000000E+00  0.15197570630E+02  0.15197570630E+02  0.00000000000E+00 0. -1.
         -1   -1    0    0    0  501 -0.00000000000E+00 -0.00000000000E+00 -0.93815014457E+02  0.93815014457E+02  0.00000000000E+00 0.  1.
         23    2    1    2    0    0  0.00000000000E+00  0.00000000000E+00 -0.78617443827E+02  0.10901258509E+03  0.75518482728E+02 0.  0.
        -11    1    3    3    0    0  0.28697771091E+02 -0.64944306268E+01 -0.51481298460E+01  0.29870435814E+02  0.00000000000E+00 0. -1.
         11    1    3    3    0    0 -0.28697771091E+02  0.64944306268E+01 -0.73469313981E+02  0.79142149274E+02  0.00000000000E+00 0.  1.
<mgrwt>
<rscale>  0 0.75518483E+02</rscale>
<asrwt>0</asrwt>
<pdfrwt beam="1">  1        1 0.23380877E-02 0.75518483E+02</pdfrwt>
<pdfrwt beam="2">  1       -1 0.14433079E-01 0.75518483E+02</pdfrwt>
<totfact> 0.13339377E+05</totfact>
</mgrwt>
</event>
<event>
 5    1  0.6222456E+000  0.9325924E+02  0.7546771E-02  0.1295146E+00
          2   -1    0    0  501    0  0.00000000000E+00  0.00000000000E+00  0.21671402018E+02  0.21671402018E+02  0.00000000000E+00 0.  1.
         -2   -1    0    0    0  501 -0.00000000000E+00 -0.00000000000E+00 -0.10033137609E+03  0.10033137609E+03  0.00000000000E+00 0. -1.
         23    2    1    2    0    0  0.00000000000E+00  0.00000000000E+00 -0.78659974076E+02  0.12200277811E+03  0.93259242682E+02 0.  0.
        -11    1    3    3    0    0 -0.63714370971E+01  0.16174982298E+02  0.17273336333E+02  0.24507007388E+02  0.00000000000E+00 0.  1.
         11    1    3    3    0    0  0.63714370971E+01 -0.16174982298E+02 -0.95933310409E+02  0.97495770724E+02  0.00000000000E+00 0. -1.
<mgrwt>
<rscale>  0 0.93259243E+02</rscale>
<asrwt>0</asrwt>
<pdfrwt beam="1">  1        2 0.33340618E-02 0.93259243E+02</pdfrwt>
<pdfrwt beam="2">  1       -2 0.15435597E-01 0.93259243E+02</pdfrwt>
<totfact> 0.75367104E+04</totfact>
</mgrwt>
</event>
<event>
 5    1  0.6222456E+000  0.9259693E+02  0.7546771E-02  0.1296682E+00
         -2   -1    0    0    0  501 -0.00000000000E+00  0.00000000000E+00  0.22139062410E+02  0.22139062410E+02  0.00000000000E+00 0.  1.
          2   -1    0    0  501    0  0.00000000000E+00 -0.00000000000E+00 -0.96821982854E+02  0.96821982854E+02  0.00000000000E+00 0. -1.
         23    2    1    2    0    0  0.00000000000E+00  0.00000000000E+00 -0.74682920444E+02  0.11896104526E+03  0.92596931290E+02 0.  0.
        -11    1    3    3    0    0  0.27025904557E+02 -0.26599126033E+02 -0.71468467338E+02  0.80905221379E+02  0.00000000000E+00 0. -1.
         11    1    3    3    0    0 -0.27025904557E+02  0.26599126033E+02 -0.32144531059E+01  0.38055823885E+02  0.00000000000E+00 0.  1.
<mgrwt>
<rscale>  0 0.92596931E+02</rscale>
<asrwt>0</asrwt>
<pdfrwt beam="2">  1        2 0.14895690E-01 0.92596931E+02</pdfrwt>
<pdfrwt beam="1">  1       -2 0.34060096E-02 0.92596931E+02</pdfrwt>
<totfact> 0.11640411E+05</totfact>
</mgrwt>
</event>
<event>
 5    1  0.6222456E+000  0.1003574E+03  0.7546771E-02  0.1279546E+00
          2   -1    0    0  501    0  0.00000000000E+00  0.00000000000E+00  0.41717180520E+02  0.41717180520E+02  0.00000000000E+00 0.  1.
         -2   -1    0    0    0  501 -0.00000000000E+00 -0.00000000000E+00 -0.60356459782E+02  0.60356459782E+02  0.00000000000E+00 0. -1.
         23    2    1    2    0    0  0.00000000000E+00  0.00000000000E+00 -0.18639279263E+02  0.10207364030E+03  0.10035738793E+03 0.  0.
        -11    1    3    3    0    0  0.30290146916E+01 -0.20161657156E+02  0.37314587123E+02  0.42521121357E+02  0.00000000000E+00 0.  1.
         11    1    3    3    0    0 -0.30290146916E+01  0.20161657156E+02 -0.55953866385E+02  0.59552518945E+02  0.00000000000E+00 0. -1.
<mgrwt>
<rscale>  0 0.10035739E+03</rscale>
<asrwt>0</asrwt>
<pdfrwt beam="1">  1        2 0.64180278E-02 0.10035739E+03</pdfrwt>
<pdfrwt beam="2">  1       -2 0.92856091E-02 0.10035739E+03</pdfrwt>
<totfact> 0.72869404E+04</totfact>
</mgrwt>
</event>
<event>
 5    1  0.6222456E+000  0.9188263E+02  0.7546771E-02  0.1298356E+00
          1   -1    0    0  501    0  0.00000000000E+00  0.00000000000E+00  0.43256254555E+02  0.43256254555E+02  0.00000000000E+00 0. -1.
         -1   -1    0    0    0  501 -0.00000000000E+00 -0.00000000000E+00 -0.48793050464E+02  0.48793050464E+02  0.00000000000E+00 0.  1.
         23    2    1    2    0    0  0.00000000000E+00  0.00000000000E+00 -0.55367959084E+01  0.92049305019E+02  0.91882634080E+02 0.  0.
        -11    1    3    3    0    0  0.28954934929E+02 -0.35533309448E+02  0.33565340710E+00  0.45837942801E+02  0.00000000000E+00 0. -1.
         11    1    3    3    0    0 -0.28954934929E+02  0.35533309448E+02 -0.58724493155E+01  0.46211362218E+02  0.00000000000E+00 0.  1.
<mgrwt>
<rscale>  0 0.91882634E+02</rscale>
<asrwt>0</asrwt>
<pdfrwt beam="1">  1        1 0.66548084E-02 0.91882634E+02</pdfrwt>
<pdfrwt beam="2">  1       -1 0.75066231E-02 0.91882634E+02</pdfrwt>
<totfact> 0.89771566E+04</totfact>
</mgrwt>
</event>
<event>
 5    1  0.6222456E+000  0.9145594E+02  0.7546771E-02  0.1299364E+00
         -1   -1    0    0    0  501 -0.00000000000E+00  0.00000000000E+00  0.21374153458E+02  0.21374153458E+02  0.00000000000E+00 0.  1.
          1   -1    0    0  501    0  0.00000000000E+00 -0.00000000000E+00 -0.97830651103E+02  0.97830651103E+02  0.00000000000E+00 0. -1.
         23    2    1    2    0    0  0.00000000000E+00  0.00000000000E+00 -0.76456497645E+02  0.11920480456E+03  0.91455942390E+02 0.  0.
        -11    1    3    3    0    0 -0.27444065664E+02 -0.30988361024E+02 -0.63555804285E+02  0.75847185297E+02  0.00000000000E+00 0. -1.
         11    1    3    3    0    0  0.27444065664E+02  0.30988361024E+02 -0.12900693360E+02  0.43357619265E+02  0.00000000000E+00 0.  1.
<mgrwt>
<rscale>  0 0.91455942E+02</rscale>
<asrwt>0</asrwt>
<pdfrwt beam="2">  1        1 0.15050870E-01 0.91455942E+02</pdfrwt>
<pdfrwt beam="1">  1       -1 0.32883313E-02 0.91455942E+02</pdfrwt>
<totfact> 0.10320747E+05</totfact>
</mgrwt>
</event>
<event>
 5    1  0.6222456E+000  0.9185983E+02  0.7546771E-02  0.1298409E+00
         -2   -1    0    0    0  501 -0.00000000000E+00  0.00000000000E+00  0.20421314380E+02  0.20421314380E+02  0.00000000000E+00 0.  1.
          2   -1    0    0  501    0  0.00000000000E+00 -0.00000000000E+00 -0.10330173245E+03  0.10330173245E+03  0.00000000000E+00 0. -1.
         23    2    1    2    0    0  0.00000000000E+00  0.00000000000E+00 -0.82880418069E+02  0.12372304683E+03  0.91859831358E+02 0.  0.
        -11    1    3    3    0    0  0.18835402930E+02  0.34140573034E+02 -0.74133493385E+02  0.83762318331E+02  0.00000000000E+00 0. -1.
         11    1    3    3    0    0 -0.18835402930E+02 -0.34140573034E+02 -0.87469246839E+01  0.39960728498E+02  0.00000000000E+00 0.  1.
<mgrwt>
<rscale>  0 0.91859831E+02</rscale>
<asrwt>0</asrwt>
<pdfrwt beam="2">  1        2 0.15892574E-01 0.91859831E+02</pdfrwt>
<pdfrwt beam="1">  1       -2 0.31417407E-02 0.91859831E+02</pdfrwt>
<totfact> 0.12138115E+05</totfact>
</mgrwt>
</event>
<event>
 5    1  0.6222456E+000  0.9660951E+02  0.7546771E-02  0.1287592E+00
          1   -1    0    0  501    0  0.00000000000E+00  0.00000000000E+00  0.17585707141E+02  0.17585707141E+02  0.00000000000E+00 0. -1.
         -1   -1    0    0    0  501 -0.00000000000E+00 -0.00000000000E+00 -0.13268443343E+03  0.13268443343E+03  0.00000000000E+00 0.  1.
         23    2    1    2    0    0  0.00000000000E+00  0.00000000000E+00 -0.11509872629E+03  0.15027014057E+03  0.96609514821E+02 0.  0.
        -11    1    3    3    0    0 -0.37231191364E+02 -0.36812731038E+01 -0.10507649804E+03  0.11153826170E+03  0.00000000000E+00 0.  1.
         11    1    3    3    0    0  0.37231191364E+02  0.36812731038E+01 -0.10022228249E+02  0.38731878874E+02  0.00000000000E+00 0. -1.
<mgrwt>
<rscale>  0 0.96609515E+02</rscale>
<asrwt>0</asrwt>
<pdfrwt beam="1">  1        1 0.27054933E-02 0.96609515E+02</pdfrwt>
<pdfrwt beam="2">  1       -1 0.20412990E-01 0.96609515E+02</pdfrwt>
<totfact> 0.66161848E+04</totfact>
</mgrwt>
</event>
<event>
 5    1  0.6222456E+000  0.8842034E+02  0.7546771E-02  0.1306723E+00
          1   -1    0    0  501    0  0.00000000000E+00  0.00000000000E+00  0.49755672668E+02  0.49755672668E+02  0.00000000000E+00 0. -1.
         -1   -1    0    0    0  501 -0.00000000000E+00 -0.00000000000E+00 -0.39282736783E+02  0.39282736783E+02  0.00000000000E+00 0.  1.
         23    2    1    2    0    0  0.00000000000E+00  0.00000000000E+00  0.10472935885E+02  0.89038409451E+02  0.88420336866E+02 0.  0.
        -11    1    3    3    0    0 -0.35644519715E+02  0.51323509653E+01  0.31060733736E+02  0.47556723944E+02  0.00000000000E+00 0.  1.
         11    1    3    3    0    0  0.35644519715E+02 -0.51323509653E+01 -0.20587797851E+02  0.41481685507E+02  0.00000000000E+00 0. -1.
<mgrwt>
<rscale>  0 0.88420337E+02</rscale>
<asrwt>0</asrwt>
<pdfrwt beam="1">  1        1 0.76547189E-02 0.88420337E+02</pdfrwt>
<pdfrwt beam="2">  1       -1 0.60434980E-02 0.88420337E+02</pdfrwt>
<totfact> 0.10206279E+05</totfact>
</mgrwt>
</event>
<event>
 5    1  0.6222456E+000  0.9198286E+02  0.7546771E-02  0.1298120E+00
         -1   -1    0    0    0  501 -0.00000000000E+00  0.00000000000E+00  0.45701108565E+03  0.45701108565E+03  0.00000000000E+00 0.  1.
          1   -1    0    0  501    0  0.00000000000E+00 -0.00000000000E+00 -0.46283592876E+01  0.46283592876E+01  0.00000000000E+00 0. -1.
         23    2    1    2    0    0  0.00000000000E+00  0.00000000000E+00  0.45238272637E+03  0.46163944494E+03  0.91982857160E+02 0.  0.
        -11    1    3    3    0    0 -0.20580645002E+02  0.40856088331E+02  0.24995960744E+03  0.25411136978E+03  0.00000000000E+00 0.  1.
         11    1    3    3    0    0  0.20580645002E+02 -0.40856088331E+02  0.20242311893E+03  0.20752807516E+03  0.00000000000E+00 0. -1.
<mgrwt>
<rscale>  0 0.91982857E+02</rscale>
<asrwt>0</asrwt>
<pdfrwt beam="2">  1        1 0.71205563E-03 0.91982857E+02</pdfrwt>
<pdfrwt beam="1">  1       -1 0.70309362E-01 0.91982857E+02</pdfrwt>
<totfact> 0.48482898E+04</totfact>
</mgrwt>
</event>
<event>
 5    1  0.6222456E+000  0.9224396E+02  0.7546771E-02  0.1297507E+00
         -3   -1    0    0    0  501 -0.00000000000E+00  0.00000000000E+00  0.50500802585E+02  0.50500802585E+02  0.00000000000E+00 0.  1.
          3   -1    0    0  501    0  0.00000000000E+00 -0.00000000000E+00 -0.42122833864E+02  0.42122833864E+02  0.00000000000E+00 0. -1.
         23    2    1    2    0    0  0.00000000000E+00  0.00000000000E+00  0.83779687214E+01  0.92623636449E+02  0.92243957358E+02 0.  0.
        -11    1    3    3    0    0 -0.44870272089E+01 -0.41395710604E+02  0.24107433606E+02  0.48113476539E+02  0.00000000000E+00 0.  1.
         11    1    3    3    0    0  0.44870272089E+01  0.41395710604E+02 -0.15729464885E+02  0.44510159910E+02  0.00000000000E+00 0. -1.
<mgrwt>
<rscale>  0 0.92243957E+02</rscale>
<asrwt>0</asrwt>
<pdfrwt beam="2">  1        3 0.64804360E-02 0.92243957E+02</pdfrwt>
<pdfrwt beam="1">  1       -3 0.77693543E-02 0.92243957E+02</pdfrwt>
<totfact> 0.34126256E+04</totfact>
</mgrwt>
</event>
<event>
 5    1  0.6222456E+000  0.9194693E+02  0.7546771E-02  0.1298204E+00
          1   -1    0    0  501    0  0.00000000000E+00  0.00000000000E+00  0.28254497617E+02  0.28254497617E+02  0.00000000000E+00 0. -1.
         -1   -1    0    0    0  501 -0.00000000000E+00 -0.00000000000E+00 -0.74804360639E+02  0.74804360639E+02  0.00000000000E+00 0.  1.
         23    2    1    2    0    0  0.00000000000E+00  0.00000000000E+00 -0.46549863022E+02  0.10305885826E+03  0.91946933160E+02 0.  0.
        -11    1    3    3    0    0 -0.95036391161E+01 -0.78935376288E+01 -0.72908946203E+02  0.73948235471E+02  0.00000000000E+00 0.  1.
         11    1    3    3    0    0  0.95036391161E+01  0.78935376288E+01  0.26359083182E+02  0.29110622785E+02  0.00000000000E+00 0. -1.
<mgrwt>
<rscale>  0 0.91946933E+02</rscale>
<asrwt>0</asrwt>
<pdfrwt beam="1">  1        1 0.43468458E-02 0.91946933E+02</pdfrwt>
<pdfrwt beam="2">  1       -1 0.11508363E-01 0.91946933E+02</pdfrwt>
<totfact> 0.83783862E+04</totfact>
</mgrwt>
</event>
<event>
 5    1  0.6222456E+000  0.9078440E+02  0.7546771E-02  0.1300963E+00
         -2   -1    0    0    0  501 -0.00000000000E+00  0.00000000000E+00  0.13632307450E+02  0.13632307450E+02  0.00000000000E+00 0.  1.
          2   -1    0    0  501    0  0.00000000000E+00 -0.00000000000E+00 -0.15114476550E+03  0.15114476550E+03  0.00000000000E+00 0. -1.
         23    2    1    2    0    0  0.00000000000E+00  0.00000000000E+00 -0.13751245805E+03  0.16477707295E+03  0.90784402027E+02 0.  0.
        -11    1    3    3    0    0 -0.24203035586E+02  0.10781089045E+02 -0.18595321713E+01  0.26560810839E+02  0.00000000000E+00 0.  1.
         11    1    3    3    0    0  0.24203035586E+02 -0.10781089045E+02 -0.13565292588E+03  0.13821626211E+03  0.00000000000E+00 0. -1.
<mgrwt>
<rscale>  0 0.90784402E+02</rscale>
<asrwt>0</asrwt>
<pdfrwt beam="2">  1        2 0.23253040E-01 0.90784402E+02</pdfrwt>
<pdfrwt beam="1">  1       -2 0.20972781E-02 0.90784402E+02</pdfrwt>
<totfact> 0.14182149E+05</totfact>
</mgrwt>
</event>
<event>
 5    1  0.6222456E+000  0.9287125E+02  0.7546771E-02  0.1296044E+00
          2   -1    0    0  501    0  0.00000000000E+00  0.00000000000E+00  0.14973640971E+03  0.14973640971E+03  0.00000000000E+00 0. -1.
         -2   -1    0    0    0  501 -0.00000000000E+00 -0.00000000000E+00 -0.14400421215E+02  0.14400421215E+02  0.00000000000E+00 0.  1.
         23    2    1    2    0    0  0.00000000000E+00  0.00000000000E+00  0.13533598850E+03  0.16413683093E+03  0.92871252196E+02 0.  0.
        -11    1    3    3    0    0  0.43766971035E+02 -0.26935936972E+01  0.94672414775E+02  0.10433441101E+03  0.00000000000E+00 0.  1.
         11    1    3    3    0    0 -0.43766971035E+02  0.26935936972E+01  0.40663573721E+02  0.59802419921E+02  0.00000000000E+00 0. -1.
<mgrwt>
<rscale>  0 0.92871252E+02</rscale>
<asrwt>0</asrwt>
<pdfrwt beam="1">  1        2 0.23036370E-01 0.92871252E+02</pdfrwt>
<pdfrwt beam="2">  1       -2 0.22154495E-02 0.92871252E+02</pdfrwt>
<totfact> 0.13290085E+05</totfact>
</mgrwt>
</event>
<event>
 5    1  0.6222456E+000  0.6636498E+02  0.7546771E-02  0.1372909E+00
          1   -1    0    0  501    0  0.00000000000E+00  0.00000000000E+00  0.34232185945E+02  0.34232185945E+02  0.00000000000E+00 0. -1.
         -1   -1    0    0    0  501 -0.00000000000E+00 -0.00000000000E+00 -0.32164984260E+02  0.32164984260E+02  0.00000000000E+00 0.  1.
         23    2    1    2    0    0  0.00000000000E+00  0.00000000000E+00  0.20672016847E+01  0.66397170205E+02  0.66364982396E+02 0.  0.
        -11    1    3    3    0    0  0.27058880024E+02 -0.18389268930E+02 -0.45125093059E+01  0.33025913162E+02  0.00000000000E+00 0.  1.
         11    1    3    3    0    0 -0.27058880024E+02  0.18389268930E+02  0.65797109905E+01  0.33371257043E+02  0.00000000000E+00 0. -1.
<mgrwt>
<rscale>  0 0.66364982E+02</rscale>
<asrwt>0</asrwt>
<pdfrwt beam="1">  1        1 0.52664901E-02 0.66364982E+02</pdfrwt>
<pdfrwt beam="2">  1       -1 0.49484591E-02 0.66364982E+02</pdfrwt>
<totfact> 0.21331472E+05</totfact>
</mgrwt>
</event>
<event>
 5    1  0.6222456E+000  0.8924221E+02  0.7546771E-02  0.1304697E+00
          1   -1    0    0  501    0  0.00000000000E+00  0.00000000000E+00  0.31662126473E+03  0.31662126473E+03  0.00000000000E+00 0. -1.
         -1   -1    0    0    0  501 -0.00000000000E+00 -0.00000000000E+00 -0.62884058290E+01  0.62884058290E+01  0.00000000000E+00 0.  1.
         23    2    1    2    0    0  0.00000000000E+00  0.00000000000E+00  0.31033285890E+03  0.32290967056E+03  0.89242209894E+02 0.  0.
        -11    1    3    3    0    0 -0.38954609117E+02 -0.21649580276E+02  0.16315726096E+03  0.16913443677E+03  0.00000000000E+00 0. -1.
         11    1    3    3    0    0  0.38954609117E+02  0.21649580276E+02  0.14717559794E+03  0.15377523379E+03  0.00000000000E+00 0.  1.
<mgrwt>
<rscale>  0 0.89242210E+02</rscale>
<asrwt>0</asrwt>
<pdfrwt beam="1">  1        1 0.48710952E-01 0.89242210E+02</pdfrwt>
<pdfrwt beam="2">  1       -1 0.96744729E-03 0.89242210E+02</pdfrwt>
<totfact> 0.13702834E+05</totfact>
</mgrwt>
</event>
<event>
 5    1  0.6222456E+000  0.9007181E+02  0.7546771E-02  0.1302678E+00
          3   -1    0    0  501    0  0.00000000000E+00  0.00000000000E+00  0.46479230525E+02  0.46479230525E+02  0.00000000000E+00 0. -1.
         -3   -1    0    0    0  501 -0.00000000000E+00 -0.00000000000E+00 -0.43637400371E+02  0.43637400371E+02  0.00000000000E+00 0.  1.
         23    2    1    2    0    0  0.00000000000E+00  0.00000000000E+00  0.28418301540E+01  0.90116630897E+02  0.90071811159E+02 0.  0.
        -11    1    3    3    0    0 -0.18380174481E+02 -0.39916161788E+02  0.11279853432E+02  0.45369217310E+02  0.00000000000E+00 0.  1.
         11    1    3    3    0    0  0.18380174481E+02  0.39916161788E+02 -0.84380232781E+01  0.44747413587E+02  0.00000000000E+00 0. -1.
<mgrwt>
<rscale>  0 0.90071811E+02</rscale>
<asrwt>0</asrwt>
<pdfrwt beam="1">  1        3 0.71506508E-02 0.90071811E+02</pdfrwt>
<pdfrwt beam="2">  1       -3 0.67134463E-02 0.90071811E+02</pdfrwt>
<totfact> 0.36614655E+04</totfact>
</mgrwt>
</event>
<event>
 5    1  0.6222456E+000  0.8785129E+02  0.7546771E-02  0.1308140E+00
         -2   -1    0    0    0  501 -0.00000000000E+00  0.00000000000E+00  0.37192684310E+02  0.37192684310E+02  0.00000000000E+00 0. -1.
          2   -1    0    0  501    0  0.00000000000E+00 -0.00000000000E+00 -0.51877473616E+02  0.51877473616E+02  0.00000000000E+00 0.  1.
         23    2    1    2    0    0  0.00000000000E+00  0.00000000000E+00 -0.14684789306E+02  0.89070157926E+02  0.87851294788E+02 0.  0.
        -11    1    3    3    0    0 -0.51566638202E+01  0.25964623320E+02  0.28196890724E+02  0.38675799828E+02  0.00000000000E+00 0. -1.
         11    1    3    3    0    0  0.51566638202E+01 -0.25964623320E+02 -0.42881680029E+02  0.50394358097E+02  0.00000000000E+00 0.  1.
<mgrwt>
<rscale>  0 0.87851295E+02</rscale>
<asrwt>0</asrwt>
<pdfrwt beam="2">  1        2 0.79811498E-02 0.87851295E+02</pdfrwt>
<pdfrwt beam="1">  1       -2 0.57219514E-02 0.87851295E+02</pdfrwt>
<totfact> 0.11338502E+05</totfact>
</mgrwt>
</event>
<event>
 5    1  0.6222456E+000  0.9118111E+02  0.7546771E-02  0.1300016E+00
          1   -1    0    0  501    0  0.00000000000E+00  0.00000000000E+00  0.17575530855E+03  0.17575530855E+03  0.00000000000E+00 0. -1.
         -1   -1    0    0    0  501 -0.00000000000E+00 -0.00000000000E+00 -0.11826093071E+02  0.11826093071E+02  0.00000000000E+00 0.  1.
         23    2    1    2    0    0  0.00000000000E+00  0.00000000000E+00  0.16392921548E+03  0.18758140162E+03  0.91181108499E+02 0.  0.
        -11    1    3    3    0    0 -0.33191586124E+02  0.22654633618E+02  0.37670137321E+02  0.55081331316E+02  0.00000000000E+00 0.  1.
         11    1    3    3    0    0  0.33191586124E+02 -0.22654633618E+02  0.12625907816E+03  0.13250007031E+03  0.00000000000E+00 0. -1.
<mgrwt>
<rscale>  0 0.91181108E+02</rscale>
<asrwt>0</asrwt>
<pdfrwt beam="1">  1        1 0.27039276E-01 0.91181108E+02</pdfrwt>
<pdfrwt beam="2">  1       -1 0.18193991E-02 0.91181108E+02</pdfrwt>
<totfact> 0.11548493E+05</totfact>
</mgrwt>
</event>
<event>
 5    1  0.6222456E+000  0.9922998E+02  0.7546771E-02  0.1281924E+00
         -3   -1    0    0    0  501 -0.00000000000E+00  0.00000000000E+00  0.66682561402E+02  0.66682561402E+02  0.00000000000E+00 0.  1.
          3   -1    0    0  501    0  0.00000000000E+00 -0.00000000000E+00 -0.36915903386E+02  0.36915903386E+02  0.00000000000E+00 0. -1.
         23    2    1    2    0    0  0.00000000000E+00  0.00000000000E+00  0.29766658016E+02  0.10359846479E+03  0.99229975193E+02 0.  0.
        -11    1    3    3    0    0 -0.19608760801E+02 -0.13852303556E+00 -0.32698560125E+02  0.38127660865E+02  0.00000000000E+00 0. -1.
         11    1    3    3    0    0  0.19608760801E+02  0.13852303556E+00  0.62465218141E+02  0.65470803922E+02  0.00000000000E+00 0.  1.
<mgrwt>
<rscale>  0 0.99229975E+02</rscale>
<asrwt>0</asrwt>
<pdfrwt beam="2">  1        3 0.56793698E-02 0.99229975E+02</pdfrwt>
<pdfrwt beam="1">  1       -3 0.10258856E-01 0.99229975E+02</pdfrwt>
<totfact> 0.27290878E+04</totfact>
</mgrwt>
</event>
<event>
 5    1  0.6222456E+000  0.1014755E+03  0.7546771E-02  0.1277224E+00
          3   -1    0    0  501    0  0.00000000000E+00  0.00000000000E+00  0.12303428613E+03  0.12303428613E+03  0.00000000000E+00 0. -1.
         -3   -1    0    0    0  501 -0.00000000000E+00 -0.00000000000E+00 -0.20923572817E+02  0.20923572817E+02  0.00000000000E+00 0.  1.
         23    2    1    2    0    0  0.00000000000E+00  0.00000000000E+00  0.10211071331E+03  0.14395785895E+03  0.10147545210E+03 0.  0.
        -11    1    3    3    0    0  0.28425210007E+02  0.41030172782E+02  0.63968100917E+02  0.81138064911E+02  0.00000000000E+00 0. -1.
         11    1    3    3    0    0 -0.28425210007E+02 -0.41030172782E+02  0.38142612396E+02  0.62819794037E+02  0.00000000000E+00 0.  1.
<mgrwt>
<rscale>  0 0.10147545E+03</rscale>
<asrwt>0</asrwt>
<pdfrwt beam="1">  1        3 0.18928351E-01 0.10147545E+03</pdfrwt>
<pdfrwt beam="2">  1       -3 0.32190113E-02 0.10147545E+03</pdfrwt>
<totfact> 0.23655933E+04</totfact>
</mgrwt>
</event>
<event>
 5    1  0.6222456E+000  0.8895859E+02  0.7546771E-02  0.1305393E+00
         -3   -1    0    0    0  501 -0.00000000000E+00  0.00000000000E+00  0.13527391268E+03  0.13527391268E+03  0.00000000000E+00 0.  1.
          3   -1    0    0  501    0  0.00000000000E+00 -0.00000000000E+00 -0.14625198448E+02  0.14625198448E+02  0.00000000000E+00 0. -1.
         23    2    1    2    0    0  0.00000000000E+00  0.00000000000E+00  0.12064871424E+03  0.14989911113E+03  0.88958593015E+02 0.  0.
        -11    1    3    3    0    0 -0.27604705257E+02  0.33319763991E+02  0.77687780763E+02  0.88924786784E+02  0.00000000000E+00 0.  1.
         11    1    3    3    0    0  0.27604705257E+02 -0.33319763991E+02  0.42960933474E+02  0.60974324348E+02  0.00000000000E+00 0. -1.
<mgrwt>
<rscale>  0 0.88958593E+02</rscale>
<asrwt>0</asrwt>
<pdfrwt beam="2">  1        3 0.22500306E-02 0.88958593E+02</pdfrwt>
<pdfrwt beam="1">  1       -3 0.20811370E-01 0.88958593E+02</pdfrwt>
<totfact> 0.33467832E+04</totfact>
</mgrwt>
</event>
<event>
 5    1  0.6222456E+000  0.9141232E+02  0.7546771E-02  0.1299467E+00
         -1   -1    0    0    0  501 -0.00000000000E+00  0.00000000000E+00  0.10240450746E+03  0.10240450746E+03  0.00000000000E+00 0.  1.
          1   -1    0    0  501    0  0.00000000000E+00 -0.00000000000E+00 -0.20400008821E+02  0.20400008821E+02  0.00000000000E+00 0. -1.
         23    2    1    2    0    0  0.00000000000E+00  0.00000000000E+00  0.82004498641E+02  0.12280451628E+03  0.91412315483E+02 0.  0.
        -11    1    3    3    0    0 -0.26512266304E+02 -0.35605110156E+02  0.55621938851E+02  0.71164768076E+02  0.00000000000E+00 0.  1.
         11    1    3    3    0    0  0.26512266304E+02  0.35605110156E+02  0.26382559790E+02  0.51639748207E+02  0.00000000000E+00 0. -1.
<mgrwt>
<rscale>  0 0.91412315E+02</rscale>
<asrwt>0</asrwt>
<pdfrwt beam="2">  1        1 0.31384630E-02 0.91412315E+02</pdfrwt>
<pdfrwt beam="1">  1       -1 0.15754539E-01 0.91412315E+02</pdfrwt>
<totfact> 0.80472604E+04</totfact>
</mgrwt>
</event>
<event>
 5    1  0.6222456E+000  0.9042316E+02  0.7546771E-02  0.1301830E+00
         -1   -1    0    0    0  501 -0.00000000000E+00  0.00000000000E+00  0.33955898257E+02  0.33955898257E+02  0.00000000000E+00 0.  1.
          1   -1    0    0  501    0  0.00000000000E+00 -0.00000000000E+00 -0.60198288655E+02  0.60198288655E+02  0.00000000000E+00 0. -1.
         23    2    1    2    0    0  0.00000000000E+00  0.00000000000E+00 -0.26242390398E+02  0.94154186912E+02  0.90423159971E+02 0.  0.
        -11    1    3    3    0    0  0.29611533423E+02 -0.39605519119E+01 -0.48456015015E+02  0.56925515142E+02  0.00000000000E+00 0. -1.
         11    1    3    3    0    0 -0.29611533423E+02  0.39605519119E+01  0.22213624617E+02  0.37228671770E+02  0.00000000000E+00 0.  1.
<mgrwt>
<rscale>  0 0.90423160E+02</rscale>
<asrwt>0</asrwt>
<pdfrwt beam="2">  1        1 0.92612751E-02 0.90423160E+02</pdfrwt>
<pdfrwt beam="1">  1       -1 0.52239844E-02 0.90423160E+02</pdfrwt>
<totfact> 0.98661968E+04</totfact>
</mgrwt>
</event>
<event>
 5    1  0.6222456E+000  0.8988368E+02  0.7546771E-02  0.1303134E+00
          2   -1    0    0  501    0  0.00000000000E+00  0.00000000000E+00  0.14562839764E+03  0.14562839764E+03  0.00000000000E+00 0. -1.
         -2   -1    0    0    0  501 -0.00000000000E+00 -0.00000000000E+00 -0.13869333609E+02  0.13869333609E+02  0.00000000000E+00 0.  1.
         23    2    1    2    0    0  0.00000000000E+00  0.00000000000E+00  0.13175906403E+03  0.15949773125E+03  0.89883676602E+02 0.  0.
        -11    1    3    3    0    0  0.43167170654E+02  0.56170129559E+01  0.46054940780E+02  0.63372020854E+02  0.00000000000E+00 0.  1.
         11    1    3    3    0    0 -0.43167170654E+02 -0.56170129559E+01  0.85704123253E+02  0.96125710397E+02  0.00000000000E+00 0. -1.
<mgrwt>
<rscale>  0 0.89883677E+02</rscale>
<asrwt>0</asrwt>
<pdfrwt beam="1">  1        2 0.22404368E-01 0.89883677E+02</pdfrwt>
<pdfrwt beam="2">  1       -2 0.21337437E-02 0.89883677E+02</pdfrwt>
<totfact> 0.14388302E+05</totfact>
</mgrwt>
</event>
<event>
 5    1  0.6222456E+000  0.9389923E+02  0.7546771E-02  0.1293675E+00
         -2   -1    0    0    0  501 -0.00000000000E+00  0.00000000000E+00  0.39824456108E+02  0.39824456108E+02  0.00000000000E+00 0.  1.
          2   -1    0    0  501    0  0.00000000000E+00 -0.00000000000E+00 -0.55349565436E+02  0.55349565436E+02  0.00000000000E+00 0. -1.
         23    2    1    2    0    0  0.00000000000E+00  0.00000000000E+00 -0.15525109328E+02  0.95174021544E+02  0.93899229801E+02 0.  0.
        -11    1    3    3    0    0 -0.24396695313E+02  0.11570151753E+02 -0.46692314330E+02  0.53937365260E+02  0.00000000000E+00 0. -1.
         11    1    3    3    0    0  0.24396695313E+02 -0.11570151753E+02  0.31167205002E+02  0.41236656283E+02  0.00000000000E+00 0.  1.
<mgrwt>
<rscale>  0 0.93899230E+02</rscale>
<asrwt>0</asrwt>
<pdfrwt beam="2">  1        2 0.85153177E-02 0.93899230E+02</pdfrwt>
<pdfrwt beam="1">  1       -2 0.61268394E-02 0.93899230E+02</pdfrwt>
<totfact> 0.95480693E+04</totfact>
</mgrwt>
</event>
<event>
 5    1  0.6222456E+000  0.9131704E+02  0.7546771E-02  0.1299693E+00
          1   -1    0    0  501    0  0.00000000000E+00  0.00000000000E+00  0.24879408611E+03  0.24879408611E+03  0.00000000000E+00 0. -1.
         -1   -1    0    0    0  501 -0.00000000000E+00 -0.00000000000E+00 -0.83792211593E+01  0.83792211593E+01  0.00000000000E+00 0.  1.
         23    2    1    2    0    0  0.00000000000E+00  0.00000000000E+00  0.24041486495E+03  0.25717330727E+03  0.91317044863E+02 0.  0.
        -11    1    3    3    0    0  0.30606511907E+02  0.33686657293E+02  0.10999434476E+03  0.11903909161E+03  0.00000000000E+00 0.  1.
         11    1    3    3    0    0 -0.30606511907E+02 -0.33686657293E+02  0.13042052019E+03  0.13813421566E+03  0.00000000000E+00 0. -1.
<mgrwt>
<rscale>  0 0.91317045E+02</rscale>
<asrwt>0</asrwt>
<pdfrwt beam="1">  1        1 0.38276008E-01 0.91317045E+02</pdfrwt>
<pdfrwt beam="2">  1       -1 0.12891111E-02 0.91317045E+02</pdfrwt>
<totfact> 0.12304701E+05</totfact>
</mgrwt>
</event>
<event>
 5    1  0.6222456E+000  0.9069652E+02  0.7546771E-02  0.1301174E+00
          2   -1    0    0  501    0  0.00000000000E+00  0.00000000000E+00  0.35423709528E+03  0.35423709528E+03  0.00000000000E+00 0. -1.
         -2   -1    0    0    0  501 -0.00000000000E+00 -0.00000000000E+00 -0.58053341751E+01  0.58053341751E+01  0.00000000000E+00 0.  1.
         23    2    1    2    0    0  0.00000000000E+00  0.00000000000E+00  0.34843176111E+03  0.36004242946E+03  0.90696520668E+02 0.  0.
        -11    1    3    3    0    0 -0.40414405880E+02  0.10259425972E+02  0.10343794946E+03  0.11152573431E+03  0.00000000000E+00 0.  1.
         11    1    3    3    0    0  0.40414405880E+02 -0.10259425972E+02  0.24499381165E+03  0.24851669515E+03  0.00000000000E+00 0. -1.
<mgrwt>
<rscale>  0 0.90696521E+02</rscale>
<asrwt>0</asrwt>
<pdfrwt beam="1">  1        2 0.54497998E-01 0.90696521E+02</pdfrwt>
<pdfrwt beam="2">  1       -2 0.89312861E-03 0.90696521E+02</pdfrwt>
<totfact> 0.19373700E+05</totfact>
</mgrwt>
</event>
<event>
 5    1  0.6222456E+000  0.9236553E+02  0.7546771E-02  0.1297222E+00
         -1   -1    0    0    0  501 -0.00000000000E+00  0.00000000000E+00  0.14918731820E+03  0.14918731820E+03  0.00000000000E+00 0.  1.
          1   -1    0    0  501    0  0.00000000000E+00 -0.00000000000E+00 -0.14296441773E+02  0.14296441773E+02  0.00000000000E+00 0. -1.
         23    2    1    2    0    0  0.00000000000E+00  0.00000000000E+00  0.13489087642E+03  0.16348375997E+03  0.92365530536E+02 0.  0.
        -11    1    3    3    0    0  0.35094065494E+02 -0.29443677329E+02  0.57075762974E+02  0.73185833920E+02  0.00000000000E+00 0.  1.
         11    1    3    3    0    0 -0.35094065494E+02  0.29443677329E+02  0.77815113449E+02  0.90297926049E+02  0.00000000000E+00 0. -1.
<mgrwt>
<rscale>  0 0.92365531E+02</rscale>
<asrwt>0</asrwt>
<pdfrwt beam="2">  1        1 0.21994527E-02 0.92365531E+02</pdfrwt>
<pdfrwt beam="1">  1       -1 0.22951894E-01 0.92365531E+02</pdfrwt>
<totfact> 0.72405033E+04</totfact>
</mgrwt>
</event>
<event>
 5    1  0.6222456E+000  0.9188433E+02  0.7546771E-02  0.1298352E+00
          3   -1    0    0  501    0  0.00000000000E+00  0.00000000000E+00  0.16105218886E+02  0.16105218886E+02  0.00000000000E+00 0. -1.
         -3   -1    0    0    0  501 -0.00000000000E+00 -0.00000000000E+00 -0.13105579998E+03  0.13105579998E+03  0.00000000000E+00 0.  1.
         23    2    1    2    0    0  0.00000000000E+00  0.00000000000E+00 -0.11495058109E+03  0.14716101886E+03  0.91884326081E+02 0.  0.
        -11    1    3    3    0    0  0.35041724534E+02 -0.29664271819E+02 -0.54799693647E+02  0.71490544163E+02  0.00000000000E+00 0.  1.
         11    1    3    3    0    0 -0.35041724534E+02  0.29664271819E+02 -0.60150887443E+02  0.75670474698E+02  0.00000000000E+00 0. -1.
<mgrwt>
<rscale>  0 0.91884326E+02</rscale>
<asrwt>0</asrwt>
<pdfrwt beam="1">  1        3 0.24777260E-02 0.91884326E+02</pdfrwt>
<pdfrwt beam="2">  1       -3 0.20162431E-01 0.91884326E+02</pdfrwt>
<totfact> 0.30829149E+04</totfact>
</mgrwt>
</event>
<event>
 5    1  0.6222456E+000  0.9220019E+02  0.7546771E-02  0.1297609E+00
         -1   -1    0    0    0  501 -0.00000000000E+00  0.00000000000E+00  0.29276771561E+02  0.29276771561E+02  0.00000000000E+00 0.  1.
          1   -1    0    0  501    0  0.00000000000E+00 -0.00000000000E+00 -0.72590606551E+02  0.72590606551E+02  0.00000000000E+00 0. -1.
         23    2    1    2    0    0  0.00000000000E+00  0.00000000000E+00 -0.43313834990E+02  0.10186737811E+03  0.92200186669E+02 0.  0.
        -11    1    3    3    0    0  0.38400191846E+02 -0.29452036350E+01  0.63367999910E+01  0.39030808247E+02  0.00000000000E+00 0.  1.
         11    1    3    3    0    0 -0.38400191846E+02  0.29452036350E+01 -0.49650634981E+02  0.62836569864E+02  0.00000000000E+00 0. -1.
<mgrwt>
<rscale>  0 0.92200187E+02</rscale>
<asrwt>0</asrwt>
<pdfrwt beam="2">  1        1 0.11167786E-01 0.92200187E+02</pdfrwt>
<pdfrwt beam="1">  1       -1 0.45041187E-02 0.92200187E+02</pdfrwt>
<totfact> 0.96214452E+04</totfact>
</mgrwt>
</event>
<event>
 5    1  0.6222456E+000  0.9082198E+02  0.7546771E-02  0.1300873E+00
         -1   -1    0    0    0  501 -0.00000000000E+00  0.00000000000E+00  0.26356160716E+02  0.26356160716E+02  0.00000000000E+00 0.  1.
          1   -1    0    0  501    0  0.00000000000E+00 -0.00000000000E+00 -0.78241973697E+02  0.78241973697E+02  0.00000000000E+00 0. -1.
         23    2    1    2    0    0  0.00000000000E+00  0.00000000000E+00 -0.51885812981E+02  0.10459813441E+03  0.90821980456E+02 0.  0.
        -11    1    3    3    0    0 -0.25330206256E+02 -0.21826454245E+02  0.94447842189E+01  0.34745034218E+02  0.00000000000E+00 0.  1.
         11    1    3    3    0    0  0.25330206256E+02  0.21826454245E+02 -0.61330597200E+02  0.69853100194E+02  0.00000000000E+00 0. -1.
<mgrwt>
<rscale>  0 0.90821980E+02</rscale>
<asrwt>0</asrwt>
<pdfrwt beam="2">  1        1 0.12037227E-01 0.90821980E+02</pdfrwt>
<pdfrwt beam="1">  1       -1 0.40547939E-02 0.90821980E+02</pdfrwt>
<totfact> 0.10147285E+05</totfact>
</mgrwt>
</event>
<event>
 5    1  0.6222456E+000  0.9067243E+02  0.7546771E-02  0.1301231E+00
          1   -1    0    0  501    0  0.00000000000E+00  0.00000000000E+00  0.10679296364E+02  0.10679296364E+02  0.00000000000E+00 0. -1.
         -1   -1    0    0    0  501 -0.00000000000E+00 -0.00000000000E+00 -0.19246328887E+03  0.19246328887E+03  0.00000000000E+00 0.  1.
         23    2    1    2    0    0  0.00000000000E+00  0.00000000000E+00 -0.18178399251E+03  0.20314258524E+03  0.90672432438E+02 0.  0.
        -11    1    3    3    0    0 -0.14618438394E+02 -0.32224998153E+02 -0.15438762750E+03  0.15839093652E+03  0.00000000000E+00 0.  1.
         11    1    3    3    0    0  0.14618438394E+02  0.32224998153E+02 -0.27396365009E+02  0.44751648715E+02  0.00000000000E+00 0. -1.
<mgrwt>
<rscale>  0 0.90672432E+02</rscale>
<asrwt>0</asrwt>
<pdfrwt beam="1">  1        1 0.16429687E-02 0.90672432E+02</pdfrwt>
<pdfrwt beam="2">  1       -1 0.29609735E-01 0.90672432E+02</pdfrwt>
<totfact> 0.71201751E+04</totfact>
</mgrwt>
</event>
<event>
 5    1  0.6222456E+000  0.9427049E+02  0.7546771E-02  0.1292828E+00
          2   -1    0    0  501    0  0.00000000000E+00  0.00000000000E+00  0.36260646363E+03  0.36260646363E+03  0.00000000000E+00 0.  1.
         -2   -1    0    0    0  501 -0.00000000000E+00 -0.00000000000E+00 -0.61271140883E+01  0.61271140883E+01  0.00000000000E+00 0. -1.
         23    2    1    2    0    0  0.00000000000E+00  0.00000000000E+00  0.35647934954E+03  0.36873357771E+03  0.94270486830E+02 0.  0.
        -11    1    3    3    0    0 -0.22081312932E+02 -0.38615033341E+02  0.11726306157E+03  0.12541662884E+03  0.00000000000E+00 0. -1.
         11    1    3    3    0    0  0.22081312932E+02  0.38615033341E+02  0.23921628796E+03  0.24331694887E+03  0.00000000000E+00 0.  1.
<mgrwt>
<rscale>  0 0.94270487E+02</rscale>
<asrwt>0</asrwt>
<pdfrwt beam="1">  1        2 0.55785593E-01 0.94270487E+02</pdfrwt>
<pdfrwt beam="2">  1       -2 0.94263322E-03 0.94270487E+02</pdfrwt>
<totfact> 0.17627446E+05</totfact>
</mgrwt>
</event>
<event>
 5    1  0.6222456E+000  0.9001199E+02  0.7546771E-02  0.1302823E+00
          2   -1    0    0  501    0  0.00000000000E+00  0.00000000000E+00  0.22458043710E+02  0.22458043710E+02  0.00000000000E+00 0.  1.
         -2   -1    0    0    0  501 -0.00000000000E+00 -0.00000000000E+00 -0.90192170484E+02  0.90192170484E+02  0.00000000000E+00 0. -1.
         23    2    1    2    0    0  0.00000000000E+00  0.00000000000E+00 -0.67734126774E+02  0.11265021419E+03  0.90011992692E+02 0.  0.
        -11    1    3    3    0    0  0.12634468169E+02 -0.11112571285E+02  0.18373536348E+02  0.24913969263E+02  0.00000000000E+00 0.  1.
         11    1    3    3    0    0 -0.12634468169E+02  0.11112571285E+02 -0.86107663122E+02  0.87736244932E+02  0.00000000000E+00 0. -1.
<mgrwt>
<rscale>  0 0.90011993E+02</rscale>
<asrwt>0</asrwt>
<pdfrwt beam="1">  1        2 0.34550837E-02 0.90011993E+02</pdfrwt>
<pdfrwt beam="2">  1       -2 0.13875718E-01 0.90011993E+02</pdfrwt>
<totfact> 0.84911466E+04</totfact>
</mgrwt>
</event>
<event>
 5    1  0.6222456E+000  0.9141426E+02  0.7546771E-02  0.1299463E+00
          3   -1    0    0  501    0  0.00000000000E+00  0.00000000000E+00  0.57594497043E+02  0.57594497043E+02  0.00000000000E+00 0. -1.
         -3   -1    0    0    0  501 -0.00000000000E+00 -0.00000000000E+00 -0.36273283335E+02  0.36273283335E+02  0.00000000000E+00 0.  1.
         23    2    1    2    0    0  0.00000000000E+00  0.00000000000E+00  0.21321213708E+02  0.93867780377E+02  0.91414255119E+02 0.  0.
        -11    1    3    3    0    0  0.16981145067E+02  0.30274529360E+02  0.41194803446E+02  0.53869455601E+02  0.00000000000E+00 0. -1.
         11    1    3    3    0    0 -0.16981145067E+02 -0.30274529360E+02 -0.19873589738E+02  0.39998324776E+02  0.00000000000E+00 0.  1.
<mgrwt>
<rscale>  0 0.91414255E+02</rscale>
<asrwt>0</asrwt>
<pdfrwt beam="1">  1        3 0.88606918E-02 0.91414255E+02</pdfrwt>
<pdfrwt beam="2">  1       -3 0.55805051E-02 0.91414255E+02</pdfrwt>
<totfact> 0.34884505E+04</totfact>
</mgrwt>
</event>
<event>
 5    1  0.6222456E+000  0.9181616E+02  0.7546771E-02  0.1298512E+00
         -1   -1    0    0    0  501 -0.00000000000E+00  0.00000000000E+00  0.20336267280E+02  0.20336267280E+02  0.00000000000E+00 0.  1.
          1   -1    0    0  501    0  0.00000000000E+00 -0.00000000000E+00 -0.10363513973E+03  0.10363513973E+03  0.00000000000E+00 0. -1.
         23    2    1    2    0    0  0.00000000000E+00  0.00000000000E+00 -0.83298872451E+02  0.12397140701E+03  0.91816162002E+02 0.  0.
        -11    1    3    3    0    0 -0.70528013679E+01 -0.36584878786E+02 -0.54356033532E+01  0.37652903563E+02  0.00000000000E+00 0.  1.
         11    1    3    3    0    0  0.70528013679E+01  0.36584878786E+02 -0.77863269098E+02  0.86318503448E+02  0.00000000000E+00 0. -1.
<mgrwt>
<rscale>  0 0.91816162E+02</rscale>
<asrwt>0</asrwt>
<pdfrwt beam="2">  1        1 0.15943868E-01 0.91816162E+02</pdfrwt>
<pdfrwt beam="1">  1       -1 0.31286565E-02 0.91816162E+02</pdfrwt>
<totfact> 0.10309307E+05</totfact>
</mgrwt>
</event>
<event>
 5    1  0.6222456E+000  0.9042064E+02  0.7546771E-02  0.1301836E+00
          1   -1    0    0  501    0  0.00000000000E+00  0.00000000000E+00  0.36713738796E+02  0.36713738796E+02  0.00000000000E+00 0. -1.
         -1   -1    0    0    0  501 -0.00000000000E+00 -0.00000000000E+00 -0.55673241813E+02  0.55673241813E+02  0.00000000000E+00 0.  1.
         23    2    1    2    0    0  0.00000000000E+00  0.00000000000E+00 -0.18959503017E+02  0.92386980609E+02  0.90420636092E+02 0.  0.
        -11    1    3    3    0    0  0.29591467409E+02  0.12887239920E+02 -0.41826335521E+02  0.52831602657E+02  0.00000000000E+00 0.  1.
         11    1    3    3    0    0 -0.29591467409E+02 -0.12887239920E+02  0.22866832504E+02  0.39555377952E+02  0.00000000000E+00 0. -1.
<mgrwt>
<rscale>  0 0.90420636E+02</rscale>
<asrwt>0</asrwt>
<pdfrwt beam="1">  1        1 0.56482675E-02 0.90420636E+02</pdfrwt>
<pdfrwt beam="2">  1       -1 0.85651141E-02 0.90420636E+02</pdfrwt>
<totfact> 0.91619866E+04</totfact>
</mgrwt>
</event>
<event>
 5    1  0.6222456E+000  0.8251613E+02  0.7546771E-02  0.1322059E+00
          2   -1    0    0  501    0  0.00000000000E+00  0.00000000000E+00  0.76987211215E+02  0.76987211215E+02  0.00000000000E+00 0.  1.
         -2   -1    0    0    0  501 -0.00000000000E+00 -0.00000000000E+00 -0.22110527886E+02  0.22110527886E+02  0.00000000000E+00 0. -1.
         23    2    1    2    0    0  0.00000000000E+00  0.00000000000E+00  0.54876683329E+02  0.99097739101E+02  0.82516128859E+02 0.  0.
        -11    1    3    3    0    0  0.30133104198E+02 -0.15121229739E+02 -0.11223667328E+01  0.33732999637E+02  0.00000000000E+00 0. -1.
         11    1    3    3    0    0 -0.30133104198E+02  0.15121229739E+02  0.55999050061E+02  0.65364739464E+02  0.00000000000E+00 0.  1.
<mgrwt>
<rscale>  0 0.82516129E+02</rscale>
<asrwt>0</asrwt>
<pdfrwt beam="1">  1        2 0.11844186E-01 0.82516129E+02</pdfrwt>
<pdfrwt beam="2">  1       -2 0.34016197E-02 0.82516129E+02</pdfrwt>
<totfact> 0.14964315E+05</totfact>
</mgrwt>
</event>
<event>
 5    1  0.6222456E+000  0.9097425E+02  0.7546771E-02  0.1300509E+00
         -1   -1    0    0    0  501 -0.00000000000E+00  0.00000000000E+00  0.47169632845E+02  0.47169632845E+02  0.00000000000E+00 0.  1.
          1   -1    0    0  501    0  0.00000000000E+00 -0.00000000000E+00 -0.43864628407E+02  0.43864628407E+02  0.00000000000E+00 0. -1.
         23    2    1    2    0    0  0.00000000000E+00  0.00000000000E+00  0.33050044382E+01  0.91034261252E+02  0.90974247275E+02 0.  0.
        -11    1    3    3    0    0 -0.12725923058E+02  0.50536056602E+01  0.45058419861E+02  0.47092985128E+02  0.00000000000E+00 0.  1.
         11    1    3    3    0    0  0.12725923058E+02 -0.50536056602E+01 -0.41753415423E+02  0.43941276124E+02  0.00000000000E+00 0. -1.
<mgrwt>
<rscale>  0 0.90974247E+02</rscale>
<asrwt>0</asrwt>
<pdfrwt beam="2">  1        1 0.67484044E-02 0.90974247E+02</pdfrwt>
<pdfrwt beam="1">  1       -1 0.72568666E-02 0.90974247E+02</pdfrwt>
<totfact> 0.92514410E+04</totfact>
</mgrwt>
</event>
<event>
 5    1  0.6222456E+000  0.9307584E+02  0.7546771E-02  0.1295570E+00
         -1   -1    0    0    0  501 -0.00000000000E+00  0.00000000000E+00  0.70269001583E+01  0.70269001583E+01  0.00000000000E+00 0.  1.
          1   -1    0    0  501    0  0.00000000000E+00 -0.00000000000E+00 -0.30821242686E+03  0.30821242686E+03  0.00000000000E+00 0. -1.
         23    2    1    2    0    0  0.00000000000E+00  0.00000000000E+00 -0.30118552670E+03  0.31523932702E+03  0.93075838994E+02 0.  0.
        -11    1    3    3    0    0  0.38799884256E+01 -0.42136182690E+02 -0.21620319515E+03  0.22030509253E+03  0.00000000000E+00 0.  1.
         11    1    3    3    0    0 -0.38799884256E+01  0.42136182690E+02 -0.84982331556E+02  0.94934234491E+02  0.00000000000E+00 0. -1.
<mgrwt>
<rscale>  0 0.93075839E+02</rscale>
<asrwt>0</asrwt>
<pdfrwt beam="2">  1        1 0.47417296E-01 0.93075839E+02</pdfrwt>
<pdfrwt beam="1">  1       -1 0.10810616E-02 0.93075839E+02</pdfrwt>
<totfact> 0.12188916E+05</totfact>
</mgrwt>
</event>
<event>
 5    1  0.6222456E+000  0.9275218E+02  0.7546771E-02  0.1296321E+00
          1   -1    0    0  501    0  0.00000000000E+00  0.00000000000E+00  0.36377392841E+02  0.36377392841E+02  0.00000000000E+00 0. -1.
         -1   -1    0    0    0  501 -0.00000000000E+00 -0.00000000000E+00 -0.59123032765E+02  0.59123032765E+02  0.00000000000E+00 0.  1.
         23    2    1    2    0    0  0.00000000000E+00  0.00000000000E+00 -0.22745639925E+02  0.95500425606E+02  0.92752181405E+02 0.  0.
        -11    1    3    3    0    0  0.19909032158E+02  0.33330551325E+02 -0.37490669863E+02  0.53970784132E+02  0.00000000000E+00 0.  1.
         11    1    3    3    0    0 -0.19909032158E+02 -0.33330551325E+02  0.14745029938E+02  0.41529641474E+02  0.00000000000E+00 0. -1.
<mgrwt>
<rscale>  0 0.92752181E+02</rscale>
<asrwt>0</asrwt>
<pdfrwt beam="1">  1        1 0.55965219E-02 0.92752181E+02</pdfrwt>
<pdfrwt beam="2">  1       -1 0.90958513E-02 0.92752181E+02</pdfrwt>
<totfact> 0.85104246E+04</totfact>
</mgrwt>
</event>
<event>
 5    1  0.6222456E+000  0.9040518E+02  0.7546771E-02  0.1301873E+00
          1   -1    0    0  501    0  0.00000000000E+00  0.00000000000E+00  0.70924848566E+02  0.70924848566E+02  0.00000000000E+00 0. -1.
         -1   -1    0    0    0  501 -0.00000000000E+00 -0.00000000000E+00 -0.28808999583E+02  0.28808999583E+02  0.00000000000E+00 0.  1.
         23    2    1    2    0    0  0.00000000000E+00  0.00000000000E+00  0.42115848983E+02  0.99733848148E+02  0.90405175355E+02 0.  0.
        -11    1    3    3    0    0 -0.15235070024E+02 -0.29057984132E+02 -0.13243932655E+02  0.35381853437E+02  0.00000000000E+00 0.  1.
         11    1    3    3    0    0  0.15235070024E+02  0.29057984132E+02  0.55359781638E+02  0.64351994712E+02  0.00000000000E+00 0. -1.
<mgrwt>
<rscale>  0 0.90405175E+02</rscale>
<asrwt>0</asrwt>
<pdfrwt beam="1">  1        1 0.10911515E-01 0.90405175E+02</pdfrwt>
<pdfrwt beam="2">  1       -1 0.44321538E-02 0.90405175E+02</pdfrwt>
<totfact> 0.10120807E+05</totfact>
</mgrwt>
</event>
<event>
 5    1  0.6222456E+000  0.8871313E+02  0.7546771E-02  0.1305998E+00
         -1   -1    0    0    0  501 -0.00000000000E+00  0.00000000000E+00  0.65532763512E+01  0.65532763512E+01  0.00000000000E+00 0.  1.
          1   -1    0    0  501    0  0.00000000000E+00 -0.00000000000E+00 -0.30023225491E+03  0.30023225491E+03  0.00000000000E+00 0. -1.
         23    2    1    2    0    0  0.00000000000E+00  0.00000000000E+00 -0.29367897856E+03  0.30678553126E+03  0.88713131744E+02 0.  0.
        -11    1    3    3    0    0  0.32920935086E+02 -0.20298503199E+02 -0.71733554604E+02  0.81495521688E+02  0.00000000000E+00 0.  1.
         11    1    3    3    0    0 -0.32920935086E+02  0.20298503199E+02 -0.22194542395E+03  0.22529000957E+03  0.00000000000E+00 0. -1.
<mgrwt>
<rscale>  0 0.88713132E+02</rscale>
<asrwt>0</asrwt>
<pdfrwt beam="2">  1        1 0.46189583E-01 0.88713132E+02</pdfrwt>
<pdfrwt beam="1">  1       -1 0.10081962E-02 0.88713132E+02</pdfrwt>
<totfact> 0.13782389E+05</totfact>
</mgrwt>
</event>
<event>
 5    1  0.6222456E+000  0.8903302E+02  0.7546771E-02  0.1305210E+00
          1   -1    0    0  501    0  0.00000000000E+00  0.00000000000E+00  0.24499743268E+03  0.24499743268E+03  0.00000000000E+00 0.  1.
         -1   -1    0    0    0  501 -0.00000000000E+00 -0.00000000000E+00 -0.80887366916E+01  0.80887366916E+01  0.00000000000E+00 0. -1.
         23    2    1    2    0    0  0.00000000000E+00  0.00000000000E+00  0.23690869599E+03  0.25308616937E+03  0.89033021358E+02 0.  0.
        -11    1    3    3    0    0 -0.29378391523E+02 -0.33361679381E+02  0.12519809739E+03  0.13285576814E+03  0.00000000000E+00 0.  1.
         11    1    3    3    0    0  0.29378391523E+02  0.33361679381E+02  0.11171059860E+03  0.12023040123E+03  0.00000000000E+00 0. -1.
<mgrwt>
<rscale>  0 0.89033021E+02</rscale>
<asrwt>0</asrwt>
<pdfrwt beam="1">  1        1 0.37691907E-01 0.89033021E+02</pdfrwt>
<pdfrwt beam="2">  1       -1 0.12444212E-02 0.89033021E+02</pdfrwt>
<totfact> 0.13125536E+05</totfact>
</mgrwt>
</event>
<event>
 5    1  0.6222456E+000  0.8841241E+02  0.7546771E-02  0.1306742E+00
         -2   -1    0    0    0  501 -0.00000000000E+00  0.00000000000E+00  0.28706553478E+02  0.28706553478E+02  0.00000000000E+00 0.  1.
          2   -1    0    0  501    0  0.00000000000E+00 -0.00000000000E+00 -0.68074653487E+02  0.68074653487E+02  0.00000000000E+00 0. -1.
         23    2    1    2    0    0  0.00000000000E+00  0.00000000000E+00 -0.39368100010E+02  0.96781206965E+02  0.88412412721E+02 0.  0.
        -11    1    3    3    0    0  0.21102900904E+02 -0.10246078448E+02  0.21330870791E+02  0.31706791052E+02  0.00000000000E+00 0.  1.
         11    1    3    3    0    0 -0.21102900904E+02  0.10246078448E+02 -0.60698970801E+02  0.65074415913E+02  0.00000000000E+00 0. -1.
<mgrwt>
<rscale>  0 0.88412413E+02</rscale>
<asrwt>0</asrwt>
<pdfrwt beam="2">  1        2 0.10473024E-01 0.88412413E+02</pdfrwt>
<pdfrwt beam="1">  1       -2 0.44163929E-02 0.88412413E+02</pdfrwt>
<totfact> 0.11962435E+05</totfact>
</mgrwt>
</event>
<event>
 5    1  0.6222456E+000  0.9041178E+02  0.7546771E-02  0.1301858E+00
         -2   -1    0    0    0  501 -0.00000000000E+00  0.00000000000E+00  0.20149145345E+02  0.20149145345E+02  0.00000000000E+00 0.  1.
          2   -1    0    0  501    0  0.00000000000E+00 -0.00000000000E+00 -0.10142228999E+03  0.10142228999E+03  0.00000000000E+00 0. -1.
         23    2    1    2    0    0  0.00000000000E+00  0.00000000000E+00 -0.81273144645E+02  0.12157143533E+03  0.90411779370E+02 0.  0.
        -11    1    3    3    0    0 -0.16365103201E+02  0.22468925522E+02 -0.88572680529E+02  0.92832047015E+02  0.00000000000E+00 0. -1.
         11    1    3    3    0    0  0.16365103201E+02 -0.22468925522E+02  0.72995358839E+01  0.28739388320E+02  0.00000000000E+00 0.  1.
<mgrwt>
<rscale>  0 0.90411779E+02</rscale>
<asrwt>0</asrwt>
<pdfrwt beam="2">  1        2 0.15603429E-01 0.90411779E+02</pdfrwt>
<pdfrwt beam="1">  1       -2 0.30998685E-02 0.90411779E+02</pdfrwt>
<totfact> 0.12609228E+05</totfact>
</mgrwt>
</event>
<event>
 5    1  0.6222456E+000  0.9034424E+02  0.7546771E-02  0.1302020E+00
          1   -1    0    0  501    0  0.00000000000E+00  0.00000000000E+00  0.21519783475E+03  0.21519783475E+03  0.00000000000E+00 0. -1.
         -1   -1    0    0    0  501 -0.00000000000E+00 -0.00000000000E+00 -0.94820677371E+01  0.94820677371E+01  0.00000000000E+00 0.  1.
         23    2    1    2    0    0  0.00000000000E+00  0.00000000000E+00  0.20571576702E+03  0.22467990249E+03  0.90344240458E+02 0.  0.
        -11    1    3    3    0    0 -0.36189202377E+02 -0.12936087810E+01  0.17001371131E+03  0.17382748294E+03  0.00000000000E+00 0. -1.
         11    1    3    3    0    0  0.36189202377E+02  0.12936087810E+01  0.35702055707E+02  0.50852419550E+02  0.00000000000E+00 0.  1.
<mgrwt>
<rscale>  0 0.90344240E+02</rscale>
<asrwt>0</asrwt>
<pdfrwt beam="1">  1        1 0.33107355E-01 0.90344240E+02</pdfrwt>
<pdfrwt beam="2">  1       -1 0.14587798E-02 0.90344240E+02</pdfrwt>
<totfact> 0.12308960E+05</totfact>
</mgrwt>
</event>
<event>
 5    1  0.6222456E+000  0.1035472E+03  0.7546771E-02  0.1273009E+00
         -1   -1    0    0    0  501 -0.00000000000E+00  0.00000000000E+00  0.31418844138E+02  0.31418844138E+02  0.00000000000E+00 0.  1.
          1   -1    0    0  501    0  0.00000000000E+00 -0.00000000000E+00 -0.85315223506E+02  0.85315223506E+02  0.00000000000E+00 0. -1.
         23    2    1    2    0    0  0.00000000000E+00  0.00000000000E+00 -0.53896379368E+02  0.11673406764E+03  0.10354720102E+03 0.  0.
        -11    1    3    3    0    0  0.19794340752E+02 -0.43346343042E+02 -0.41270710826E+01  0.47830472469E+02  0.00000000000E+00 0.  1.
         11    1    3    3    0    0 -0.19794340752E+02  0.43346343042E+02 -0.49769308285E+02  0.68903595176E+02  0.00000000000E+00 0. -1.
<mgrwt>
<rscale>  0 0.10354720E+03</rscale>
<asrwt>0</asrwt>
<pdfrwt beam="2">  1        1 0.13125419E-01 0.10354720E+03</pdfrwt>
<pdfrwt beam="1">  1       -1 0.48336684E-02 0.10354720E+03</pdfrwt>
<totfact> 0.71595538E+04</totfact>
</mgrwt>
</event>
<event>
 5    1  0.6222456E+000  0.9056413E+02  0.7546771E-02  0.1301491E+00
          1   -1    0    0  501    0  0.00000000000E+00  0.00000000000E+00  0.10102840269E+03  0.10102840269E+03  0.00000000000E+00 0. -1.
         -1   -1    0    0    0  501 -0.00000000000E+00 -0.00000000000E+00 -0.20295932034E+02  0.20295932034E+02  0.00000000000E+00 0.  1.
         23    2    1    2    0    0  0.00000000000E+00  0.00000000000E+00  0.80732470655E+02  0.12132433472E+03  0.90564134059E+02 0.  0.
        -11    1    3    3    0    0  0.36647907418E+02  0.21236967867E+02  0.18915595577E+02  0.46388335585E+02  0.00000000000E+00 0. -1.
         11    1    3    3    0    0 -0.36647907418E+02 -0.21236967867E+02  0.61816875078E+02  0.74935999137E+02  0.00000000000E+00 0.  1.
<mgrwt>
<rscale>  0 0.90564134E+02</rscale>
<asrwt>0</asrwt>
<pdfrwt beam="1">  1        1 0.15542831E-01 0.90564134E+02</pdfrwt>
<pdfrwt beam="2">  1       -1 0.31224511E-02 0.90564134E+02</pdfrwt>
<totfact> 0.10656832E+05</totfact>
</mgrwt>
</event>
<event>
 5    1  0.6222456E+000  0.9276750E+02  0.7546771E-02  0.1296285E+00
          1   -1    0    0  501    0  0.00000000000E+00  0.00000000000E+00  0.73498824734E+02  0.73498824734E+02  0.00000000000E+00 0. -1.
         -1   -1    0    0    0  501 -0.00000000000E+00 -0.00000000000E+00 -0.29271929847E+02  0.29271929847E+02  0.00000000000E+00 0.  1.
         23    2    1    2    0    0  0.00000000000E+00  0.00000000000E+00  0.44226894887E+02  0.10277075458E+03  0.92767503824E+02 0.  0.
        -11    1    3    3    0    0 -0.34471934522E+02 -0.23919375501E+02  0.20745325739E+00  0.41958239130E+02  0.00000000000E+00 0.  1.
         11    1    3    3    0    0  0.34471934522E+02  0.23919375501E+02  0.44019441629E+02  0.60812515450E+02  0.00000000000E+00 0. -1.
<mgrwt>
<rscale>  0 0.92767504E+02</rscale>
<asrwt>0</asrwt>
<pdfrwt beam="1">  1        1 0.11307511E-01 0.92767504E+02</pdfrwt>
<pdfrwt beam="2">  1       -1 0.45033738E-02 0.92767504E+02</pdfrwt>
<totfact> 0.94782778E+04</totfact>
</mgrwt>
</event>
<event>
 5    1  0.6222456E+000  0.8847468E+02  0.7546771E-02  0.1306588E+00
         -4   -1    0    0    0  501 -0.00000000000E+00  0.00000000000E+00  0.13872056136E+02  0.13872056136E+02  0.00000000000E+00 0. -1.
          4   -1    0    0  501    0  0.00000000000E+00 -0.00000000000E+00 -0.14107081138E+03  0.14107081138E+03  0.00000000000E+00 0.  1.
         23    2    1    2    0    0  0.00000000000E+00  0.00000000000E+00 -0.12719875524E+03  0.15494286751E+03  0.88474679191E+02 0.  0.
        -11    1    3    3    0    0  0.43356913428E+02  0.62597485369E+01 -0.52812957421E+02  0.68616432910E+02  0.00000000000E+00 0. -1.
         11    1    3    3    0    0 -0.43356913428E+02 -0.62597485369E+01 -0.74385797820E+02  0.86326434602E+02  0.00000000000E+00 0.  1.
<mgrwt>
<rscale>  0 0.88474679E+02</rscale>
<asrwt>0</asrwt>
<pdfrwt beam="2">  1        4 0.21703202E-01 0.88474679E+02</pdfrwt>
<pdfrwt beam="1">  1       -4 0.21341624E-02 0.88474679E+02</pdfrwt>
<totfact> 0.25393952E+04</totfact>
</mgrwt>
</event>
<event>
 5    1  0.6222456E+000  0.9177519E+02  0.7546771E-02  0.1298609E+00
         -1   -1    0    0    0  501 -0.00000000000E+00  0.00000000000E+00  0.21624308861E+03  0.21624308861E+03  0.00000000000E+00 0.  1.
          1   -1    0    0  501    0  0.00000000000E+00 -0.00000000000E+00 -0.97375207112E+01  0.97375207112E+01  0.00000000000E+00 0. -1.
         23    2    1    2    0    0  0.00000000000E+00  0.00000000000E+00  0.20650556790E+03  0.22598060932E+03  0.91775193904E+02 0.  0.
        -11    1    3    3    0    0 -0.13947363868E+02 -0.39318024444E+02  0.56194900985E+02  0.69987876820E+02  0.00000000000E+00 0.  1.
         11    1    3    3    0    0  0.13947363868E+02  0.39318024444E+02  0.15031066692E+03  0.15599273250E+03  0.00000000000E+00 0. -1.
<mgrwt>
<rscale>  0 0.91775194E+02</rscale>
<asrwt>0</asrwt>
<pdfrwt beam="2">  1        1 0.14980803E-02 0.91775194E+02</pdfrwt>
<pdfrwt beam="1">  1       -1 0.33268164E-01 0.91775194E+02</pdfrwt>
<totfact> 0.66698051E+04</totfact>
</mgrwt>
</event>
<event>
 5    1  0.6222456E+000  0.1255779E+03  0.7546771E-02  0.1234169E+00
          2   -1    0    0  501    0  0.00000000000E+00  0.00000000000E+00  0.25215027465E+03  0.25215027465E+03  0.00000000000E+00 0. -1.
         -2   -1    0    0    0  501 -0.00000000000E+00 -0.00000000000E+00 -0.15635317732E+02  0.15635317732E+02  0.00000000000E+00 0.  1.
         23    2    1    2    0    0  0.00000000000E+00  0.00000000000E+00  0.23651495692E+03  0.26778559239E+03  0.12557785888E+03 0.  0.
        -11    1    3    3    0    0  0.47073914491E+02 -0.44303357818E+01  0.30157835772E+02  0.56080980369E+02  0.00000000000E+00 0.  1.
         11    1    3    3    0    0 -0.47073914491E+02  0.44303357818E+01  0.20635712115E+03  0.21170461202E+03  0.00000000000E+00 0. -1.
<mgrwt>
<rscale>  0 0.12557786E+03</rscale>
<asrwt>0</asrwt>
<pdfrwt beam="1">  1        2 0.38792347E-01 0.12557786E+03</pdfrwt>
<pdfrwt beam="2">  1       -2 0.24054337E-02 0.12557786E+03</pdfrwt>
<totfact> 0.70268705E+04</totfact>
</mgrwt>
</event>
<event>
 5    1  0.6222456E+000  0.7283336E+02  0.7546771E-02  0.1350715E+00
         -1   -1    0    0    0  501 -0.00000000000E+00  0.00000000000E+00  0.34529158495E+02  0.34529158495E+02  0.00000000000E+00 0.  1.
          1   -1    0    0  501    0  0.00000000000E+00 -0.00000000000E+00 -0.38407387258E+02  0.38407387258E+02  0.00000000000E+00 0. -1.
         23    2    1    2    0    0  0.00000000000E+00  0.00000000000E+00 -0.38782287635E+01  0.72936545753E+02  0.72833364937E+02 0.  0.
        -11    1    3    3    0    0 -0.23267073931E+02  0.25668845128E+02 -0.13176795334E+02  0.37065810051E+02  0.00000000000E+00 0.  1.
         11    1    3    3    0    0  0.23267073931E+02 -0.25668845128E+02  0.92985665707E+01  0.35870735701E+02  0.00000000000E+00 0. -1.
<mgrwt>
<rscale>  0 0.72833365E+02</rscale>
<asrwt>0</asrwt>
<pdfrwt beam="2">  1        1 0.59088288E-02 0.72833365E+02</pdfrwt>
<pdfrwt beam="1">  1       -1 0.53121782E-02 0.72833365E+02</pdfrwt>
<totfact> 0.16809536E+05</totfact>
</mgrwt>
</event>
<event>
 5    1  0.6222456E+000  0.8823436E+02  0.7546771E-02  0.1307185E+00
         -3   -1    0    0    0  501 -0.00000000000E+00  0.00000000000E+00  0.47886109612E+02  0.47886109612E+02  0.00000000000E+00 0.  1.
          3   -1    0    0  501    0  0.00000000000E+00 -0.00000000000E+00 -0.40644885337E+02  0.40644885337E+02  0.00000000000E+00 0. -1.
         23    2    1    2    0    0  0.00000000000E+00  0.00000000000E+00  0.72412242750E+01  0.88530994949E+02  0.88234356900E+02 0.  0.
        -11    1    3    3    0    0 -0.42834709852E+02  0.38448013980E+01 -0.62476230294E+01  0.43458343956E+02  0.00000000000E+00 0. -1.
         11    1    3    3    0    0  0.42834709852E+02 -0.38448013980E+01  0.13488847304E+02  0.45072650993E+02  0.00000000000E+00 0.  1.
<mgrwt>
<rscale>  0 0.88234357E+02</rscale>
<asrwt>0</asrwt>
<pdfrwt beam="2">  1        3 0.62530593E-02 0.88234357E+02</pdfrwt>
<pdfrwt beam="1">  1       -3 0.73670938E-02 0.88234357E+02</pdfrwt>
<totfact> 0.38856444E+04</totfact>
</mgrwt>
</event>
<event>
 5    1  0.6222456E+000  0.9422403E+02  0.7546771E-02  0.1292933E+00
          2   -1    0    0  501    0  0.00000000000E+00  0.00000000000E+00  0.55192537807E+01  0.55192537807E+01  0.00000000000E+00 0. -1.
         -2   -1    0    0    0  501 -0.00000000000E+00 -0.00000000000E+00 -0.40214529755E+03  0.40214529755E+03  0.00000000000E+00 0.  1.
         23    2    1    2    0    0  0.00000000000E+00  0.00000000000E+00 -0.39662604377E+03  0.40766455133E+03  0.94224029926E+02 0.  0.
        -11    1    3    3    0    0  0.42292106921E+02 -0.19906181210E+02 -0.17284014014E+03  0.17904913404E+03  0.00000000000E+00 0.  1.
         11    1    3    3    0    0 -0.42292106921E+02  0.19906181210E+02 -0.22378590363E+03  0.22861541728E+03  0.00000000000E+00 0. -1.
<mgrwt>
<rscale>  0 0.94224030E+02</rscale>
<asrwt>0</asrwt>
<pdfrwt beam="1">  1        2 0.84911577E-03 0.94224030E+02</pdfrwt>
<pdfrwt beam="2">  1       -2 0.61868522E-01 0.94224030E+02</pdfrwt>
<totfact> 0.39067304E+04</totfact>
</mgrwt>
</event>
<event>
 5    1  0.6222456E+000  0.8729752E+02  0.7546771E-02  0.1309531E+00
         -1   -1    0    0    0  501 -0.00000000000E+00  0.00000000000E+00  0.14926008264E+02  0.14926008264E+02  0.00000000000E+00 0.  1.
          1   -1    0    0  501    0  0.00000000000E+00 -0.00000000000E+00 -0.12764392658E+03  0.12764392658E+03  0.00000000000E+00 0. -1.
         23    2    1    2    0    0  0.00000000000E+00  0.00000000000E+00 -0.11271791831E+03  0.14256993484E+03  0.87297521224E+02 0.  0.
        -11    1    3    3    0    0 -0.33044571087E+02 -0.67242733568E+01 -0.10161974966E+03  0.10706882390E+03  0.00000000000E+00 0. -1.
         11    1    3    3    0    0  0.33044571087E+02  0.67242733568E+01 -0.11098168652E+02  0.35501110939E+02  0.00000000000E+00 0.  1.
<mgrwt>
<rscale>  0 0.87297521E+02</rscale>
<asrwt>0</asrwt>
<pdfrwt beam="2">  1        1 0.19637526E-01 0.87297521E+02</pdfrwt>
<pdfrwt beam="1">  1       -1 0.22963090E-02 0.87297521E+02</pdfrwt>
<totfact> 0.12247300E+05</totfact>
</mgrwt>
</event>
<event>
 5    1  0.6222456E+000  0.9308626E+02  0.7546771E-02  0.1295545E+00
         -2   -1    0    0    0  501 -0.00000000000E+00  0.00000000000E+00  0.86916883684E+02  0.86916883684E+02  0.00000000000E+00 0. -1.
          2   -1    0    0  501    0  0.00000000000E+00 -0.00000000000E+00 -0.24923385971E+02  0.24923385971E+02  0.00000000000E+00 0.  1.
         23    2    1    2    0    0  0.00000000000E+00  0.00000000000E+00  0.61993497713E+02  0.11184026966E+03  0.93086261919E+02 0.  0.
        -11    1    3    3    0    0 -0.38822276062E+02  0.23466218378E+00  0.15293135647E+00  0.38823286479E+02  0.00000000000E+00 0.  1.
         11    1    3    3    0    0  0.38822276062E+02 -0.23466218378E+00  0.61840566357E+02  0.73016983177E+02  0.00000000000E+00 0. -1.
<mgrwt>
<rscale>  0 0.93086262E+02</rscale>
<asrwt>0</asrwt>
<pdfrwt beam="2">  1        2 0.38343671E-02 0.93086262E+02</pdfrwt>
<pdfrwt beam="1">  1       -2 0.13371828E-01 0.93086262E+02</pdfrwt>
<totfact> 0.78977526E+04</totfact>
</mgrwt>
</event>
<event>
 5    1  0.6222456E+000  0.8944691E+02  0.7546771E-02  0.1304197E+00
          1   -1    0    0  501    0  0.00000000000E+00  0.00000000000E+00  0.82781247755E+02  0.82781247755E+02  0.00000000000E+00 0. -1.
         -1   -1    0    0    0  501 -0.00000000000E+00 -0.00000000000E+00 -0.24162325173E+02  0.24162325173E+02  0.00000000000E+00 0.  1.
         23    2    1    2    0    0  0.00000000000E+00  0.00000000000E+00  0.58618922582E+02  0.10694357293E+03  0.89446909985E+02 0.  0.
        -11    1    3    3    0    0  0.23633317671E+02 -0.34411600090E+02  0.10123914967E+02  0.42955623371E+02  0.00000000000E+00 0.  1.
         11    1    3    3    0    0 -0.23633317671E+02  0.34411600090E+02  0.48495007615E+02  0.63987949557E+02  0.00000000000E+00 0. -1.
<mgrwt>
<rscale>  0 0.89446910E+02</rscale>
<asrwt>0</asrwt>
<pdfrwt beam="1">  1        1 0.12735576E-01 0.89446910E+02</pdfrwt>
<pdfrwt beam="2">  1       -1 0.37172808E-02 0.89446910E+02</pdfrwt>
<totfact> 0.10674114E+05</totfact>
</mgrwt>
</event>
<event>
 5    1  0.6222456E+000  0.9667512E+02  0.7546771E-02  0.1287447E+00
         -3   -1    0    0    0  501 -0.00000000000E+00  0.00000000000E+00  0.23152563873E+02  0.23152563873E+02  0.00000000000E+00 0.  1.
          3   -1    0    0  501    0  0.00000000000E+00 -0.00000000000E+00 -0.10091840779E+03  0.10091840779E+03  0.00000000000E+00 0. -1.
         23    2    1    2    0    0  0.00000000000E+00  0.00000000000E+00 -0.77765843918E+02  0.12407097166E+03  0.96675123633E+02 0.  0.
        -11    1    3    3    0    0 -0.24993945088E+02 -0.34916468428E+02 -0.10396995865E+02  0.44180930067E+02  0.00000000000E+00 0.  1.
         11    1    3    3    0    0  0.24993945088E+02  0.34916468428E+02 -0.67368848053E+02  0.79890041598E+02  0.00000000000E+00 0. -1.
<mgrwt>
<rscale>  0 0.96675124E+02</rscale>
<asrwt>0</asrwt>
<pdfrwt beam="2">  1        3 0.15525909E-01 0.96675124E+02</pdfrwt>
<pdfrwt beam="1">  1       -3 0.35619329E-02 0.96675124E+02</pdfrwt>
<totfact> 0.28102926E+04</totfact>
</mgrwt>
</event>
<event>
 5    1  0.6222456E+000  0.9059691E+02  0.7546771E-02  0.1301413E+00
         -4   -1    0    0    0  501 -0.00000000000E+00  0.00000000000E+00  0.16699313208E+02  0.16699313208E+02  0.00000000000E+00 0. -1.
          4   -1    0    0  501    0  0.00000000000E+00 -0.00000000000E+00 -0.12287632272E+03  0.12287632272E+03  0.00000000000E+00 0.  1.
         23    2    1    2    0    0  0.00000000000E+00  0.00000000000E+00 -0.10617700951E+03  0.13957563593E+03  0.90596913833E+02 0.  0.
        -11    1    3    3    0    0 -0.37873933695E+02  0.24102973841E+02 -0.43772897541E+02  0.62701313868E+02  0.00000000000E+00 0.  1.
         11    1    3    3    0    0  0.37873933695E+02 -0.24102973841E+02 -0.62404111973E+02  0.76874322063E+02  0.00000000000E+00 0. -1.
<mgrwt>
<rscale>  0 0.90596914E+02</rscale>
<asrwt>0</asrwt>
<pdfrwt beam="2">  1        4 0.18904050E-01 0.90596914E+02</pdfrwt>
<pdfrwt beam="1">  1       -4 0.25691251E-02 0.90596914E+02</pdfrwt>
<totfact> 0.24626565E+04</totfact>
</mgrwt>
</event>
<event>
 5    1  0.6222456E+000  0.9125755E+02  0.7546771E-02  0.1299835E+00
          1   -1    0    0  501    0  0.00000000000E+00  0.00000000000E+00  0.24042179908E+02  0.24042179908E+02  0.00000000000E+00 0. -1.
         -1   -1    0    0    0  501 -0.00000000000E+00 -0.00000000000E+00 -0.86597194282E+02  0.86597194282E+02  0.00000000000E+00 0.  1.
         23    2    1    2    0    0  0.00000000000E+00  0.00000000000E+00 -0.62555014374E+02  0.11063937419E+03  0.91257554744E+02 0.  0.
        -11    1    3    3    0    0  0.23317231364E+01 -0.14452790391E+02 -0.83672574322E+02  0.84943627051E+02  0.00000000000E+00 0.  1.
         11    1    3    3    0    0 -0.23317231364E+01  0.14452790391E+02  0.21117559948E+02  0.25695747139E+02  0.00000000000E+00 0. -1.
<mgrwt>
<rscale>  0 0.91257555E+02</rscale>
<asrwt>0</asrwt>
<pdfrwt beam="1">  1        1 0.36987969E-02 0.91257555E+02</pdfrwt>
<pdfrwt beam="2">  1       -1 0.13322645E-01 0.91257555E+02</pdfrwt>
<totfact> 0.83316905E+04</totfact>
</mgrwt>
</event>
<event>
 5    1  0.6222456E+000  0.9312435E+02  0.7546771E-02  0.1295457E+00
         -3   -1    0    0    0  501 -0.00000000000E+00  0.00000000000E+00  0.33015365299E+03  0.33015365299E+03  0.00000000000E+00 0.  1.
          3   -1    0    0  501    0  0.00000000000E+00 -0.00000000000E+00 -0.65667487005E+01  0.65667487005E+01  0.00000000000E+00 0. -1.
         23    2    1    2    0    0  0.00000000000E+00  0.00000000000E+00  0.32358690429E+03  0.33672040169E+03  0.93124348519E+02 0.  0.
        -11    1    3    3    0    0  0.65283108950E+01  0.40267384107E+02  0.80622233717E+02  0.90354997845E+02  0.00000000000E+00 0. -1.
         11    1    3    3    0    0 -0.65283108950E+01 -0.40267384107E+02  0.24296467058E+03  0.24636540385E+03  0.00000000000E+00 0.  1.
<mgrwt>
<rscale>  0 0.93124349E+02</rscale>
<asrwt>0</asrwt>
<pdfrwt beam="2">  1        3 0.10102693E-02 0.93124349E+02</pdfrwt>
<pdfrwt beam="1">  1       -3 0.50792857E-01 0.93124349E+02</pdfrwt>
<totfact> 0.21415176E+04</totfact>
</mgrwt>
</event>
<event>
 5    1  0.6222456E+000  0.9103044E+02  0.7546771E-02  0.1300375E+00
          1   -1    0    0  501    0  0.00000000000E+00  0.00000000000E+00  0.19827594027E+03  0.19827594027E+03  0.00000000000E+00 0. -1.
         -1   -1    0    0    0  501 -0.00000000000E+00 -0.00000000000E+00 -0.10448242689E+02  0.10448242689E+02  0.00000000000E+00 0.  1.
         23    2    1    2    0    0  0.00000000000E+00  0.00000000000E+00  0.18782769758E+03  0.20872418296E+03  0.91030437623E+02 0.  0.
        -11    1    3    3    0    0  0.28849046329E+02  0.29621552960E+02  0.13753520785E+03  0.14361628484E+03  0.00000000000E+00 0. -1.
         11    1    3    3    0    0 -0.28849046329E+02 -0.29621552960E+02  0.50292489734E+02  0.65107898119E+02  0.00000000000E+00 0.  1.
<mgrwt>
<rscale>  0 0.91030438E+02</rscale>
<asrwt>0</asrwt>
<pdfrwt beam="1">  1        1 0.30503988E-01 0.91030438E+02</pdfrwt>
<pdfrwt beam="2">  1       -1 0.16074221E-02 0.91030438E+02</pdfrwt>
<totfact> 0.11871845E+05</totfact>
</mgrwt>
</event>
<event>
 5    1  0.6222456E+000  0.9210329E+02  0.7546771E-02  0.1297837E+00
         -4   -1    0    0    0  501 -0.00000000000E+00  0.00000000000E+00  0.98021123342E+02  0.98021123342E+02  0.00000000000E+00 0.  1.
          4   -1    0    0  501    0  0.00000000000E+00 -0.00000000000E+00 -0.21635682667E+02  0.21635682667E+02  0.00000000000E+00 0. -1.
         23    2    1    2    0    0  0.00000000000E+00  0.00000000000E+00  0.76385440675E+02  0.11965680601E+03  0.92103288091E+02 0.  0.
        -11    1    3    3    0    0  0.31707156715E+02 -0.17010355081E+02  0.85330362169E+00  0.35992000417E+02  0.00000000000E+00 0.  1.
         11    1    3    3    0    0 -0.31707156715E+02  0.17010355081E+02  0.75532137054E+02  0.83664805593E+02  0.00000000000E+00 0. -1.
<mgrwt>
<rscale>  0 0.92103288E+02</rscale>
<asrwt>0</asrwt>
<pdfrwt beam="2">  1        4 0.33285666E-02 0.92103288E+02</pdfrwt>
<pdfrwt beam="1">  1       -4 0.15080173E-01 0.92103288E+02</pdfrwt>
<totfact> 0.24608909E+04</totfact>
</mgrwt>
</event>
<event>
 5    1  0.6222456E+000  0.9230024E+02  0.7546771E-02  0.1297375E+00
         -2   -1    0    0    0  501 -0.00000000000E+00  0.00000000000E+00  0.95373971576E+01  0.95373971576E+01  0.00000000000E+00 0.  1.
          2   -1    0    0  501    0  0.00000000000E+00 -0.00000000000E+00 -0.22331392339E+03  0.22331392339E+03  0.00000000000E+00 0. -1.
         23    2    1    2    0    0  0.00000000000E+00  0.00000000000E+00 -0.21377652623E+03  0.23285132055E+03  0.92300240047E+02 0.  0.
        -11    1    3    3    0    0  0.38196027618E+02 -0.59096283908E+01 -0.17050850728E+03  0.17483423947E+03  0.00000000000E+00 0. -1.
         11    1    3    3    0    0 -0.38196027618E+02  0.59096283908E+01 -0.43268018949E+02  0.58017081082E+02  0.00000000000E+00 0.  1.
<mgrwt>
<rscale>  0 0.92300240E+02</rscale>
<asrwt>0</asrwt>
<pdfrwt beam="2">  1        2 0.34355990E-01 0.92300240E+02</pdfrwt>
<pdfrwt beam="1">  1       -2 0.14672918E-02 0.92300240E+02</pdfrwt>
<totfact> 0.15580407E+05</totfact>
</mgrwt>
</event>
<event>
 5    1  0.6222456E+000  0.9061739E+02  0.7546771E-02  0.1301363E+00
          3   -1    0    0  501    0  0.00000000000E+00  0.00000000000E+00  0.76685289311E+01  0.76685289311E+01  0.00000000000E+00 0. -1.
         -3   -1    0    0    0  501 -0.00000000000E+00 -0.00000000000E+00 -0.26770162278E+03  0.26770162278E+03  0.00000000000E+00 0.  1.
         23    2    1    2    0    0  0.00000000000E+00  0.00000000000E+00 -0.26003309384E+03  0.27537015171E+03  0.90617385510E+02 0.  0.
        -11    1    3    3    0    0 -0.37504206436E+02 -0.93790704511E+01 -0.20182188318E+03  0.20549113118E+03  0.00000000000E+00 0.  1.
         11    1    3    3    0    0  0.37504206436E+02  0.93790704511E+01 -0.58211210667E+02  0.69879020530E+02  0.00000000000E+00 0. -1.
<mgrwt>
<rscale>  0 0.90617386E+02</rscale>
<asrwt>0</asrwt>
<pdfrwt beam="1">  1        3 0.11797738E-02 0.90617386E+02</pdfrwt>
<pdfrwt beam="2">  1       -3 0.41184861E-01 0.90617386E+02</pdfrwt>
<totfact> 0.25427031E+04</totfact>
</mgrwt>
</event>
<event>
 5    1  0.6222456E+000  0.9173749E+02  0.7546771E-02  0.1298698E+00
          2   -1    0    0  501    0  0.00000000000E+00  0.00000000000E+00  0.12242901067E+03  0.12242901067E+03  0.00000000000E+00 0. -1.
         -2   -1    0    0    0  501 -0.00000000000E+00 -0.00000000000E+00 -0.17184991826E+02  0.17184991826E+02  0.00000000000E+00 0.  1.
         23    2    1    2    0    0  0.00000000000E+00  0.00000000000E+00  0.10524401884E+03  0.13961400249E+03  0.91737485198E+02 0.  0.
        -11    1    3    3    0    0 -0.18737192966E+00 -0.43326992137E+02  0.29708742365E+02  0.52534490849E+02  0.00000000000E+00 0.  1.
         11    1    3    3    0    0  0.18737192966E+00  0.43326992137E+02  0.75535276476E+02  0.87079511644E+02  0.00000000000E+00 0. -1.
<mgrwt>
<rscale>  0 0.91737485E+02</rscale>
<asrwt>0</asrwt>
<pdfrwt beam="1">  1        2 0.18835232E-01 0.91737485E+02</pdfrwt>
<pdfrwt beam="2">  1       -2 0.26438450E-02 0.91737485E+02</pdfrwt>
<totfact> 0.12852943E+05</totfact>
</mgrwt>
</event>
<event>
 5    1  0.6222456E+000  0.8370230E+02  0.7546771E-02  0.1318861E+00
         -1   -1    0    0    0  501 -0.00000000000E+00  0.00000000000E+00  0.69123040363E+02  0.69123040363E+02  0.00000000000E+00 0.  1.
          1   -1    0    0  501    0  0.00000000000E+00 -0.00000000000E+00 -0.25339142814E+02  0.25339142814E+02  0.00000000000E+00 0. -1.
         23    2    1    2    0    0  0.00000000000E+00  0.00000000000E+00  0.43783897550E+02  0.94462183177E+02  0.83702296062E+02 0.  0.
        -11    1    3    3    0    0  0.16195778806E+02 -0.37018013771E+02  0.95870327890E+01  0.41527675018E+02  0.00000000000E+00 0. -1.
         11    1    3    3    0    0 -0.16195778806E+02  0.37018013771E+02  0.34196864761E+02  0.52934508160E+02  0.00000000000E+00 0.  1.
<mgrwt>
<rscale>  0 0.83702296E+02</rscale>
<asrwt>0</asrwt>
<pdfrwt beam="2">  1        1 0.38983297E-02 0.83702296E+02</pdfrwt>
<pdfrwt beam="1">  1       -1 0.10634314E-01 0.83702296E+02</pdfrwt>
<totfact> 0.10779866E+05</totfact>
</mgrwt>
</event>
<event>
 5    1  0.6222456E+000  0.9258766E+02  0.7546771E-02  0.1296704E+00
         -2   -1    0    0    0  501 -0.00000000000E+00  0.00000000000E+00  0.14937002857E+03  0.14937002857E+03  0.00000000000E+00 0.  1.
          2   -1    0    0  501    0  0.00000000000E+00 -0.00000000000E+00 -0.14347715007E+02  0.14347715007E+02  0.00000000000E+00 0. -1.
         23    2    1    2    0    0  0.00000000000E+00  0.00000000000E+00  0.13502231356E+03  0.16371774358E+03  0.92587657937E+02 0.  0.
        -11    1    3    3    0    0 -0.75135826574E+01  0.39536732433E+02  0.10796928165E+03  0.11522574762E+03  0.00000000000E+00 0.  1.
         11    1    3    3    0    0  0.75135826574E+01 -0.39536732433E+02  0.27053031917E+02  0.48491995956E+02  0.00000000000E+00 0. -1.
<mgrwt>
<rscale>  0 0.92587658E+02</rscale>
<asrwt>0</asrwt>
<pdfrwt beam="2">  1        2 0.22073409E-02 0.92587658E+02</pdfrwt>
<pdfrwt beam="1">  1       -2 0.22980003E-01 0.92587658E+02</pdfrwt>
<totfact> 0.67293760E+04</totfact>
</mgrwt>
</event>
<event>
 5    1  0.6222456E+000  0.9077382E+02  0.7546771E-02  0.1300989E+00
         -2   -1    0    0    0  501 -0.00000000000E+00  0.00000000000E+00  0.13508129412E+02  0.13508129412E+02  0.00000000000E+00 0.  1.
          2   -1    0    0  501    0  0.00000000000E+00 -0.00000000000E+00 -0.15249867357E+03  0.15249867357E+03  0.00000000000E+00 0. -1.
         23    2    1    2    0    0  0.00000000000E+00  0.00000000000E+00 -0.13899054416E+03  0.16600680299E+03  0.90773824814E+02 0.  0.
        -11    1    3    3    0    0 -0.33076880992E+02  0.22630634786E+02 -0.10845103536E+03  0.11561943071E+03  0.00000000000E+00 0. -1.
         11    1    3    3    0    0  0.33076880992E+02 -0.22630634786E+02 -0.30539508799E+02  0.50387372274E+02  0.00000000000E+00 0.  1.
<mgrwt>
<rscale>  0 0.90773825E+02</rscale>
<asrwt>0</asrwt>
<pdfrwt beam="2">  1        2 0.23461333E-01 0.90773825E+02</pdfrwt>
<pdfrwt beam="1">  1       -2 0.20781739E-02 0.90773825E+02</pdfrwt>
<totfact> 0.14229804E+05</totfact>
</mgrwt>
</event>
<event>
 5    1  0.6222456E+000  0.9134956E+02  0.7546771E-02  0.1299616E+00
          4   -1    0    0  501    0  0.00000000000E+00  0.00000000000E+00  0.11290571014E+02  0.11290571014E+02  0.00000000000E+00 0. -1.
         -4   -1    0    0    0  501 -0.00000000000E+00 -0.00000000000E+00 -0.18477238651E+03  0.18477238651E+03  0.00000000000E+00 0.  1.
         23    2    1    2    0    0  0.00000000000E+00  0.00000000000E+00 -0.17348181550E+03  0.19606295753E+03  0.91349564889E+02 0.  0.
        -11    1    3    3    0    0  0.41847262083E+02  0.68325139520E+01 -0.50297558150E+02  0.65785415911E+02  0.00000000000E+00 0. -1.
         11    1    3    3    0    0 -0.41847262083E+02 -0.68325139520E+01 -0.12318425735E+03  0.13027754161E+03  0.00000000000E+00 0.  1.
<mgrwt>
<rscale>  0 0.91349565E+02</rscale>
<asrwt>0</asrwt>
<pdfrwt beam="1">  1        4 0.17370112E-02 0.91349565E+02</pdfrwt>
<pdfrwt beam="2">  1       -4 0.28426517E-01 0.91349565E+02</pdfrwt>
<totfact> 0.21442608E+04</totfact>
</mgrwt>
</event>
<event>
 5    1  0.6222456E+000  0.9117546E+02  0.7546771E-02  0.1300030E+00
         -2   -1    0    0    0  501 -0.00000000000E+00  0.00000000000E+00  0.10124269727E+02  0.10124269727E+02  0.00000000000E+00 0. -1.
          2   -1    0    0  501    0  0.00000000000E+00 -0.00000000000E+00 -0.20527320954E+03  0.20527320954E+03  0.00000000000E+00 0.  1.
         23    2    1    2    0    0  0.00000000000E+00  0.00000000000E+00 -0.19514893982E+03  0.21539747927E+03  0.91175464708E+02 0.  0.
        -11    1    3    3    0    0 -0.20360075386E+02  0.39445912349E+02 -0.12209491115E+03  0.12991412548E+03  0.00000000000E+00 0. -1.
         11    1    3    3    0    0  0.20360075386E+02 -0.39445912349E+02 -0.73054028668E+02  0.85483353791E+02  0.00000000000E+00 0.  1.
<mgrwt>
<rscale>  0 0.91175465E+02</rscale>
<asrwt>0</asrwt>
<pdfrwt beam="2">  1        2 0.31580492E-01 0.91175465E+02</pdfrwt>
<pdfrwt beam="1">  1       -2 0.15575800E-02 0.91175465E+02</pdfrwt>
<totfact> 0.15615133E+05</totfact>
</mgrwt>
</event>
<event>
 5    1  0.6222456E+000  0.9121442E+02  0.7546771E-02  0.1299937E+00
         -3   -1    0    0    0  501 -0.00000000000E+00  0.00000000000E+00  0.90623976382E+01  0.90623976382E+01  0.00000000000E+00 0.  1.
          3   -1    0    0  501    0  0.00000000000E+00 -0.00000000000E+00 -0.22952178777E+03  0.22952178777E+03  0.00000000000E+00 0. -1.
         23    2    1    2    0    0  0.00000000000E+00  0.00000000000E+00 -0.22045939013E+03  0.23858418541E+03  0.91214422267E+02 0.  0.
        -11    1    3    3    0    0  0.75394538031E+01  0.37352318538E+02 -0.17577635684E+03  0.17985929692E+03  0.00000000000E+00 0. -1.
         11    1    3    3    0    0 -0.75394538031E+01 -0.37352318538E+02 -0.44683033284E+02  0.58724888482E+02  0.00000000000E+00 0.  1.
<mgrwt>
<rscale>  0 0.91214422E+02</rscale>
<asrwt>0</asrwt>
<pdfrwt beam="2">  1        3 0.35311043E-01 0.91214422E+02</pdfrwt>
<pdfrwt beam="1">  1       -3 0.13942151E-02 0.91214422E+02</pdfrwt>
<totfact> 0.26589803E+04</totfact>
</mgrwt>
</event>
<event>
 5    1  0.6222456E+000  0.9191797E+02  0.7546771E-02  0.1298272E+00
          1   -1    0    0  501    0  0.00000000000E+00  0.00000000000E+00  0.48749170873E+02  0.48749170873E+02  0.00000000000E+00 0. -1.
         -1   -1    0    0    0  501 -0.00000000000E+00 -0.00000000000E+00 -0.43328500517E+02  0.43328500517E+02  0.00000000000E+00 0.  1.
         23    2    1    2    0    0  0.00000000000E+00  0.00000000000E+00  0.54206703563E+01  0.92077671391E+02  0.91917973768E+02 0.  0.
        -11    1    3    3    0    0  0.31020396789E+02  0.56583883446E+01  0.36204127100E+02  0.48010636266E+02  0.00000000000E+00 0.  1.
         11    1    3    3    0    0 -0.31020396789E+02 -0.56583883446E+01 -0.30783456743E+02  0.44067035125E+02  0.00000000000E+00 0. -1.
<mgrwt>
<rscale>  0 0.91917974E+02</rscale>
<asrwt>0</asrwt>
<pdfrwt beam="1">  1        1 0.74998724E-02 0.91917974E+02</pdfrwt>
<pdfrwt beam="2">  1       -1 0.66659232E-02 0.91917974E+02</pdfrwt>
<totfact> 0.91312305E+04</totfact>
</mgrwt>
</event>
<event>
 5    1  0.6222456E+000  0.9263222E+02  0.7546771E-02  0.1296600E+00
          4   -1    0    0  501    0  0.00000000000E+00  0.00000000000E+00  0.15866489490E+03  0.15866489490E+03  0.00000000000E+00 0. -1.
         -4   -1    0    0    0  501 -0.00000000000E+00 -0.00000000000E+00 -0.13520207291E+02  0.13520207291E+02  0.00000000000E+00 0.  1.
         23    2    1    2    0    0  0.00000000000E+00  0.00000000000E+00  0.14514468761E+03  0.17218510219E+03  0.92632224821E+02 0.  0.
        -11    1    3    3    0    0 -0.87556977837E+01 -0.35005834809E+02  0.18599413397E+02  0.40595675793E+02  0.00000000000E+00 0.  1.
         11    1    3    3    0    0  0.87556977837E+01  0.35005834809E+02  0.12654527421E+03  0.13158942639E+03  0.00000000000E+00 0. -1.
<mgrwt>
<rscale>  0 0.92632225E+02</rscale>
<asrwt>0</asrwt>
<pdfrwt beam="1">  1        4 0.24409983E-01 0.92632225E+02</pdfrwt>
<pdfrwt beam="2">  1       -4 0.20800320E-02 0.92632225E+02</pdfrwt>
<totfact> 0.21662920E+04</totfact>
</mgrwt>
</event>
<event>
 5    1  0.6222456E+000  0.9031762E+02  0.7546771E-02  0.1302084E+00
          2   -1    0    0  501    0  0.00000000000E+00  0.00000000000E+00  0.79986993627E+02  0.79986993627E+02  0.00000000000E+00 0. -1.
         -2   -1    0    0    0  501 -0.00000000000E+00 -0.00000000000E+00 -0.25495620468E+02  0.25495620468E+02  0.00000000000E+00 0.  1.
         23    2    1    2    0    0  0.00000000000E+00  0.00000000000E+00  0.54491373159E+02  0.10548261410E+03  0.90317618036E+02 0.  0.
        -11    1    3    3    0    0 -0.29782725396E+02 -0.54245255176E+01 -0.11890223228E+02  0.32524046758E+02  0.00000000000E+00 0.  1.
         11    1    3    3    0    0  0.29782725396E+02  0.54245255176E+01  0.66381596387E+02  0.72958567338E+02  0.00000000000E+00 0. -1.
<mgrwt>
<rscale>  0 0.90317618E+02</rscale>
<asrwt>0</asrwt>
<pdfrwt beam="1">  1        2 0.12305691E-01 0.90317618E+02</pdfrwt>
<pdfrwt beam="2">  1       -2 0.39224032E-02 0.90317618E+02</pdfrwt>
<totfact> 0.11790842E+05</totfact>
</mgrwt>
</event>
<event>
 5    1  0.6222456E+000  0.9091308E+02  0.7546771E-02  0.1300655E+00
         -1   -1    0    0    0  501 -0.00000000000E+00  0.00000000000E+00  0.71087832677E+01  0.71087832677E+01  0.00000000000E+00 0.  1.
          1   -1    0    0  501    0  0.00000000000E+00 -0.00000000000E+00 -0.29066818218E+03  0.29066818218E+03  0.00000000000E+00 0. -1.
         23    2    1    2    0    0  0.00000000000E+00  0.00000000000E+00 -0.28355939892E+03  0.29777696545E+03  0.90913081786E+02 0.  0.
        -11    1    3    3    0    0  0.38154052132E+02 -0.17333019035E+02 -0.19946138158E+03  0.20381611316E+03  0.00000000000E+00 0. -1.
         11    1    3    3    0    0 -0.38154052132E+02  0.17333019035E+02 -0.84098017336E+02  0.93960852289E+02  0.00000000000E+00 0.  1.
<mgrwt>
<rscale>  0 0.90913082E+02</rscale>
<asrwt>0</asrwt>
<pdfrwt beam="2">  1        1 0.44718178E-01 0.90913082E+02</pdfrwt>
<pdfrwt beam="1">  1       -1 0.10936591E-02 0.90913082E+02</pdfrwt>
<totfact> 0.12833626E+05</totfact>
</mgrwt>
</event>
<event>
 5    1  0.6222456E+000  0.1007194E+03  0.7546771E-02  0.1278790E+00
         -1   -1    0    0    0  501 -0.00000000000E+00  0.00000000000E+00  0.20096505288E+03  0.20096505288E+03  0.00000000000E+00 0.  1.
          1   -1    0    0  501    0  0.00000000000E+00 -0.00000000000E+00 -0.12619598585E+02  0.12619598585E+02  0.00000000000E+00 0. -1.
         23    2    1    2    0    0  0.00000000000E+00  0.00000000000E+00  0.18834545430E+03  0.21358465147E+03  0.10071937841E+03 0.  0.
        -11    1    3    3    0    0 -0.40259476871E+02  0.19847525100E+02  0.14259231578E+03  0.14949019449E+03  0.00000000000E+00 0.  1.
         11    1    3    3    0    0  0.40259476871E+02 -0.19847525100E+02  0.45753138521E+02  0.64094456976E+02  0.00000000000E+00 0. -1.
<mgrwt>
<rscale>  0 0.10071938E+03</rscale>
<asrwt>0</asrwt>
<pdfrwt beam="2">  1        1 0.19414768E-02 0.10071938E+03</pdfrwt>
<pdfrwt beam="1">  1       -1 0.30917698E-01 0.10071938E+03</pdfrwt>
<totfact> 0.53444876E+04</totfact>
</mgrwt>
</event>
<event>
 5    1  0.6222456E+000  0.9038840E+02  0.7546771E-02  0.1301914E+00
          4   -1    0    0  501    0  0.00000000000E+00  0.00000000000E+00  0.97004818064E+02  0.97004818064E+02  0.00000000000E+00 0. -1.
         -4   -1    0    0    0  501 -0.00000000000E+00 -0.00000000000E+00 -0.21055817681E+02  0.21055817681E+02  0.00000000000E+00 0.  1.
         23    2    1    2    0    0  0.00000000000E+00  0.00000000000E+00  0.75949000383E+02  0.11806063574E+03  0.90388401099E+02 0.  0.
        -11    1    3    3    0    0 -0.25251093104E+02  0.34197341240E+02  0.58016103293E+02  0.71923181883E+02  0.00000000000E+00 0. -1.
         11    1    3    3    0    0  0.25251093104E+02 -0.34197341240E+02  0.17932897089E+02  0.46137453861E+02  0.00000000000E+00 0.  1.
<mgrwt>
<rscale>  0 0.90388401E+02</rscale>
<asrwt>0</asrwt>
<pdfrwt beam="1">  1        4 0.14923818E-01 0.90388401E+02</pdfrwt>
<pdfrwt beam="2">  1       -4 0.32393566E-02 0.90388401E+02</pdfrwt>
<totfact> 0.25984754E+04</totfact>
</mgrwt>
</event>
<event>
 5    1  0.6222456E+000  0.9158864E+02  0.7546771E-02  0.1299050E+00
         -3   -1    0    0    0  501 -0.00000000000E+00  0.00000000000E+00  0.38281819471E+02  0.38281819471E+02  0.00000000000E+00 0.  1.
          3   -1    0    0  501    0  0.00000000000E+00 -0.00000000000E+00 -0.54781088847E+02  0.54781088847E+02  0.00000000000E+00 0. -1.
         23    2    1    2    0    0  0.00000000000E+00  0.00000000000E+00 -0.16499269375E+02  0.93062908318E+02  0.91588640206E+02 0.  0.
        -11    1    3    3    0    0 -0.77594575628E+01  0.12033732220E+02  0.35948815005E+02  0.38695441502E+02  0.00000000000E+00 0.  1.
         11    1    3    3    0    0  0.77594575628E+01 -0.12033732220E+02 -0.52448084380E+02  0.54367466816E+02  0.00000000000E+00 0. -1.
<mgrwt>
<rscale>  0 0.91588640E+02</rscale>
<asrwt>0</asrwt>
<pdfrwt beam="2">  1        3 0.84278598E-02 0.91588640E+02</pdfrwt>
<pdfrwt beam="1">  1       -3 0.58895107E-02 0.91588640E+02</pdfrwt>
<totfact> 0.34764087E+04</totfact>
</mgrwt>
</event>
<event>
 5    1  0.6222456E+000  0.8772034E+02  0.7546771E-02  0.1308468E+00
         -1   -1    0    0    0  501 -0.00000000000E+00  0.00000000000E+00  0.97286667729E+02  0.97286667729E+02  0.00000000000E+00 0.  1.
          1   -1    0    0  501    0  0.00000000000E+00 -0.00000000000E+00 -0.19773672548E+02  0.19773672548E+02  0.00000000000E+00 0. -1.
         23    2    1    2    0    0  0.00000000000E+00  0.00000000000E+00  0.77512995181E+02  0.11706034028E+03  0.87720344526E+02 0.  0.
        -11    1    3    3    0    0 -0.80435612393E+01  0.42763701352E+02  0.31413059504E+02  0.53667619084E+02  0.00000000000E+00 0. -1.
         11    1    3    3    0    0  0.80435612393E+01 -0.42763701352E+02  0.46099935677E+02  0.63392721193E+02  0.00000000000E+00 0.  1.
<mgrwt>
<rscale>  0 0.87720345E+02</rscale>
<asrwt>0</asrwt>
<pdfrwt beam="2">  1        1 0.30421035E-02 0.87720345E+02</pdfrwt>
<pdfrwt beam="1">  1       -1 0.14967179E-01 0.87720345E+02</pdfrwt>
<totfact> 0.90324059E+04</totfact>
</mgrwt>
</event>
<event>
 5    1  0.6222456E+000  0.8572771E+02  0.7546771E-02  0.1313540E+00
          1   -1    0    0  501    0  0.00000000000E+00  0.00000000000E+00  0.18951696981E+02  0.18951696981E+02  0.00000000000E+00 0. -1.
         -1   -1    0    0    0  501 -0.00000000000E+00 -0.00000000000E+00 -0.96946999699E+02  0.96946999699E+02  0.00000000000E+00 0.  1.
         23    2    1    2    0    0  0.00000000000E+00  0.00000000000E+00 -0.77995302718E+02  0.11589869668E+03  0.85727712241E+02 0.  0.
        -11    1    3    3    0    0  0.38379994747E+02  0.46636062380E+01 -0.64019017953E+02  0.74787752203E+02  0.00000000000E+00 0.  1.
         11    1    3    3    0    0 -0.38379994747E+02 -0.46636062380E+01 -0.13976284766E+02  0.41110944477E+02  0.00000000000E+00 0. -1.
<mgrwt>
<rscale>  0 0.85727712E+02</rscale>
<asrwt>0</asrwt>
<pdfrwt beam="1">  1        1 0.29156457E-02 0.85727712E+02</pdfrwt>
<pdfrwt beam="2">  1       -1 0.14914923E-01 0.85727712E+02</pdfrwt>
<totfact> 0.95872712E+04</totfact>
</mgrwt>
</event>
<event>
 5    1  0.6222456E+000  0.9620367E+02  0.7546771E-02  0.1288488E+00
         -1   -1    0    0    0  501 -0.00000000000E+00  0.00000000000E+00  0.89997256635E+01  0.89997256635E+01  0.00000000000E+00 0.  1.
          1   -1    0    0  501    0  0.00000000000E+00 -0.00000000000E+00 -0.25709521190E+03  0.25709521190E+03  0.00000000000E+00 0. -1.
         23    2    1    2    0    0  0.00000000000E+00  0.00000000000E+00 -0.24809548624E+03  0.26609493757E+03  0.96203666801E+02 0.  0.
        -11    1    3    3    0    0  0.20564988274E+02 -0.37733375572E+02 -0.18382435904E+03  0.18878061699E+03  0.00000000000E+00 0. -1.
         11    1    3    3    0    0 -0.20564988274E+02  0.37733375572E+02 -0.64271127203E+02  0.77314320580E+02  0.00000000000E+00 0.  1.
<mgrwt>
<rscale>  0 0.96203667E+02</rscale>
<asrwt>0</asrwt>
<pdfrwt beam="2">  1        1 0.39553105E-01 0.96203667E+02</pdfrwt>
<pdfrwt beam="1">  1       -1 0.13845733E-02 0.96203667E+02</pdfrwt>
<totfact> 0.10769111E+05</totfact>
</mgrwt>
</event>
<event>
 5    1  0.6222456E+000  0.9104677E+02  0.7546771E-02  0.1300336E+00
          1   -1    0    0  501    0  0.00000000000E+00  0.00000000000E+00  0.65354150514E+02  0.65354150514E+02  0.00000000000E+00 0. -1.
         -1   -1    0    0    0  501 -0.00000000000E+00 -0.00000000000E+00 -0.31709977526E+02  0.31709977526E+02  0.00000000000E+00 0.  1.
         23    2    1    2    0    0  0.00000000000E+00  0.00000000000E+00  0.33644172988E+02  0.97064128040E+02  0.91046771366E+02 0.  0.
        -11    1    3    3    0    0 -0.16710976600E+02 -0.13919644135E+02 -0.25813089259E+02  0.33753945086E+02  0.00000000000E+00 0.  1.
         11    1    3    3    0    0  0.16710976600E+02  0.13919644135E+02  0.59457262247E+02  0.63310182954E+02  0.00000000000E+00 0. -1.
<mgrwt>
<rscale>  0 0.91046771E+02</rscale>
<asrwt>0</asrwt>
<pdfrwt beam="1">  1        1 0.10054485E-01 0.91046771E+02</pdfrwt>
<pdfrwt beam="2">  1       -1 0.48784581E-02 0.91046771E+02</pdfrwt>
<totfact> 0.98018373E+04</totfact>
</mgrwt>
</event>
<event>
 5    1  0.6222456E+000  0.9095795E+02  0.7546771E-02  0.1300548E+00
          4   -1    0    0  501    0  0.00000000000E+00  0.00000000000E+00  0.20647239641E+03  0.20647239641E+03  0.00000000000E+00 0. -1.
         -4   -1    0    0    0  501 -0.00000000000E+00 -0.00000000000E+00 -0.10017499406E+02  0.10017499406E+02  0.00000000000E+00 0.  1.
         23    2    1    2    0    0  0.00000000000E+00  0.00000000000E+00  0.19645489700E+03  0.21648989582E+03  0.90957948709E+02 0.  0.
        -11    1    3    3    0    0 -0.30540009532E+02 -0.13183858439E+02  0.17204273582E+03  0.17522901944E+03  0.00000000000E+00 0. -1.
         11    1    3    3    0    0  0.30540009532E+02  0.13183858439E+02  0.24412161183E+02  0.41260876374E+02  0.00000000000E+00 0.  1.
<mgrwt>
<rscale>  0 0.90957949E+02</rscale>
<asrwt>0</asrwt>
<pdfrwt beam="1">  1        4 0.31764981E-01 0.90957949E+02</pdfrwt>
<pdfrwt beam="2">  1       -4 0.15411539E-02 0.90957949E+02</pdfrwt>
<totfact> 0.20850197E+04</totfact>
</mgrwt>
</event>
<event>
 5    1  0.6222456E+000  0.8766003E+02  0.7546771E-02  0.1308619E+00
          4   -1    0    0  501    0  0.00000000000E+00  0.00000000000E+00  0.13704910020E+03  0.13704910020E+03  0.00000000000E+00 0. -1.
         -4   -1    0    0    0  501 -0.00000000000E+00 -0.00000000000E+00 -0.14017387584E+02  0.14017387584E+02  0.00000000000E+00 0.  1.
         23    2    1    2    0    0  0.00000000000E+00  0.00000000000E+00  0.12303171261E+03  0.15106648778E+03  0.87660033206E+02 0.  0.
        -11    1    3    3    0    0  0.92328214201E+01 -0.21194001906E+02 -0.26565475721E+01  0.23269893708E+02  0.00000000000E+00 0.  1.
         11    1    3    3    0    0 -0.92328214201E+01  0.21194001906E+02  0.12568826018E+03  0.12779659407E+03  0.00000000000E+00 0. -1.
<mgrwt>
<rscale>  0 0.87660033E+02</rscale>
<asrwt>0</asrwt>
<pdfrwt beam="1">  1        4 0.21084476E-01 0.87660033E+02</pdfrwt>
<pdfrwt beam="2">  1       -4 0.21565213E-02 0.87660033E+02</pdfrwt>
<totfact> 0.26244242E+04</totfact>
</mgrwt>
</event>
<event>
 5    1  0.6222456E+000  0.8645780E+02  0.7546771E-02  0.1311664E+00
         -3   -1    0    0    0  501 -0.00000000000E+00  0.00000000000E+00  0.32213744910E+02  0.32213744910E+02  0.00000000000E+00 0.  1.
          3   -1    0    0  501    0  0.00000000000E+00 -0.00000000000E+00 -0.58010577000E+02  0.58010577000E+02  0.00000000000E+00 0. -1.
         23    2    1    2    0    0  0.00000000000E+00  0.00000000000E+00 -0.25796832090E+02  0.90224321911E+02  0.86457803109E+02 0.  0.
        -11    1    3    3    0    0 -0.13146387110E+02 -0.73555932752E+01  0.29385997164E+02  0.33022251223E+02  0.00000000000E+00 0.  1.
         11    1    3    3    0    0  0.13146387110E+02  0.73555932752E+01 -0.55182829254E+02  0.57202070688E+02  0.00000000000E+00 0. -1.
<mgrwt>
<rscale>  0 0.86457803E+02</rscale>
<asrwt>0</asrwt>
<pdfrwt beam="2">  1        3 0.89247041E-02 0.86457803E+02</pdfrwt>
<pdfrwt beam="1">  1       -3 0.49559608E-02 0.86457803E+02</pdfrwt>
<totfact> 0.40902923E+04</totfact>
</mgrwt>
</event>
<event>
 5    1  0.6222456E+000  0.9104967E+02  0.7546771E-02  0.1300329E+00
          2   -1    0    0  501    0  0.00000000000E+00  0.00000000000E+00  0.80054997114E+01  0.80054997114E+01  0.00000000000E+00 0. -1.
         -2   -1    0    0    0  501 -0.00000000000E+00 -0.00000000000E+00 -0.25888587773E+03  0.25888587773E+03  0.00000000000E+00 0.  1.
         23    2    1    2    0    0  0.00000000000E+00  0.00000000000E+00 -0.25088037802E+03  0.26689137745E+03  0.91049674782E+02 0.  0.
        -11    1    3    3    0    0  0.23526398812E+02 -0.37188682066E+02 -0.15962708039E+03  0.16558168470E+03  0.00000000000E+00 0. -1.
         11    1    3    3    0    0 -0.23526398812E+02  0.37188682066E+02 -0.91253297630E+02  0.10130969274E+03  0.00000000000E+00 0.  1.
<mgrwt>
<rscale>  0 0.91049675E+02</rscale>
<asrwt>0</asrwt>
<pdfrwt beam="1">  1        2 0.12316156E-02 0.91049675E+02</pdfrwt>
<pdfrwt beam="2">  1       -2 0.39828589E-01 0.91049675E+02</pdfrwt>
<totfact> 0.55393563E+04</totfact>
</mgrwt>
</event>
<event>
 5    1  0.6222456E+000  0.1024835E+03  0.7546771E-02  0.1275159E+00
          1   -1    0    0  501    0  0.00000000000E+00  0.00000000000E+00  0.10322627443E+03  0.10322627443E+03  0.00000000000E+00 0. -1.
         -1   -1    0    0    0  501 -0.00000000000E+00 -0.00000000000E+00 -0.25436520153E+02  0.25436520153E+02  0.00000000000E+00 0.  1.
         23    2    1    2    0    0  0.00000000000E+00  0.00000000000E+00  0.77789754280E+02  0.12866279459E+03  0.10248350521E+03 0.  0.
        -11    1    3    3    0    0  0.14425175752E+02  0.14194957495E+02 -0.20206429927E+02  0.28598641999E+02  0.00000000000E+00 0.  1.
         11    1    3    3    0    0 -0.14425175752E+02 -0.14194957495E+02  0.97996184207E+02  0.10006415259E+03  0.00000000000E+00 0. -1.
<mgrwt>
<rscale>  0 0.10248351E+03</rscale>
<asrwt>0</asrwt>
<pdfrwt beam="1">  1        1 0.15880965E-01 0.10248351E+03</pdfrwt>
<pdfrwt beam="2">  1       -1 0.39133108E-02 0.10248351E+03</pdfrwt>
<totfact> 0.76173784E+04</totfact>
</mgrwt>
</event>
<event>
 5    1  0.6222456E+000  0.9391050E+02  0.7546771E-02  0.1293649E+00
         -3   -1    0    0    0  501 -0.00000000000E+00  0.00000000000E+00  0.16563207919E+03  0.16563207919E+03  0.00000000000E+00 0.  1.
          3   -1    0    0  501    0  0.00000000000E+00 -0.00000000000E+00 -0.13311402618E+02  0.13311402618E+02  0.00000000000E+00 0. -1.
         23    2    1    2    0    0  0.00000000000E+00  0.00000000000E+00  0.15232067657E+03  0.17894348180E+03  0.93910495527E+02 0.  0.
        -11    1    3    3    0    0  0.42057304062E+02 -0.19323371037E+02  0.91234725026E+02  0.10230339459E+03  0.00000000000E+00 0.  1.
         11    1    3    3    0    0 -0.42057304062E+02  0.19323371037E+02  0.61085951541E+02  0.76640087218E+02  0.00000000000E+00 0. -1.
<mgrwt>
<rscale>  0 0.93910496E+02</rscale>
<asrwt>0</asrwt>
<pdfrwt beam="2">  1        3 0.20479082E-02 0.93910496E+02</pdfrwt>
<pdfrwt beam="1">  1       -3 0.25481857E-01 0.93910496E+02</pdfrwt>
<totfact> 0.27344819E+04</totfact>
</mgrwt>
</event>
<event>
 5    1  0.6222456E+000  0.9456707E+02  0.7546771E-02  0.1292154E+00
          3   -1    0    0  501    0  0.00000000000E+00  0.00000000000E+00  0.21162401647E+02  0.21162401647E+02  0.00000000000E+00 0. -1.
         -3   -1    0    0    0  501 -0.00000000000E+00 -0.00000000000E+00 -0.10564645392E+03  0.10564645392E+03  0.00000000000E+00 0.  1.
         23    2    1    2    0    0  0.00000000000E+00  0.00000000000E+00 -0.84484052276E+02  0.12680885557E+03  0.94567070177E+02 0.  0.
        -11    1    3    3    0    0 -0.29273911772E+02 -0.72777852369E+01 -0.91067831251E+02  0.95933716477E+02  0.00000000000E+00 0.  1.
         11    1    3    3    0    0  0.29273911772E+02  0.72777852369E+01  0.65837789750E+01  0.30875139092E+02  0.00000000000E+00 0. -1.
<mgrwt>
<rscale>  0 0.94567070E+02</rscale>
<asrwt>0</asrwt>
<pdfrwt beam="1">  1        3 0.32557542E-02 0.94567070E+02</pdfrwt>
<pdfrwt beam="2">  1       -3 0.16253300E-01 0.94567070E+02</pdfrwt>
<totfact> 0.29684662E+04</totfact>
</mgrwt>
</event>
<event>
 5    1  0.6222456E+000  0.8998034E+02  0.7546771E-02  0.1302899E+00
          2   -1    0    0  501    0  0.00000000000E+00  0.00000000000E+00  0.32518596854E+03  0.32518596854E+03  0.00000000000E+00 0. -1.
         -2   -1    0    0    0  501 -0.00000000000E+00 -0.00000000000E+00 -0.62244850436E+01  0.62244850436E+01  0.00000000000E+00 0.  1.
         23    2    1    2    0    0  0.00000000000E+00  0.00000000000E+00  0.31896148350E+03  0.33141045358E+03  0.89980335575E+02 0.  0.
        -11    1    3    3    0    0  0.62160093576E+01 -0.42569746437E+02  0.20796594794E+03  0.21236915404E+03  0.00000000000E+00 0.  1.
         11    1    3    3    0    0 -0.62160093576E+01  0.42569746437E+02  0.11099553555E+03  0.11904129954E+03  0.00000000000E+00 0. -1.
<mgrwt>
<rscale>  0 0.89980336E+02</rscale>
<asrwt>0</asrwt>
<pdfrwt beam="1">  1        2 0.50028597E-01 0.89980336E+02</pdfrwt>
<pdfrwt beam="2">  1       -2 0.95761333E-03 0.89980336E+02</pdfrwt>
<totfact> 0.19174128E+05</totfact>
</mgrwt>
</event>
<event>
 5    1  0.6222456E+000  0.8919617E+02  0.7546771E-02  0.1304810E+00
          2   -1    0    0  501    0  0.00000000000E+00  0.00000000000E+00  0.99265793395E+02  0.99265793395E+02  0.00000000000E+00 0. -1.
         -2   -1    0    0    0  501 -0.00000000000E+00 -0.00000000000E+00 -0.20037002885E+02  0.20037002885E+02  0.00000000000E+00 0.  1.
         23    2    1    2    0    0  0.00000000000E+00  0.00000000000E+00  0.79228790510E+02  0.11930279628E+03  0.89196165581E+02 0.  0.
        -11    1    3    3    0    0 -0.36546525485E+02  0.62877072229E+01  0.64768968284E+01  0.37644840014E+02  0.00000000000E+00 0.  1.
         11    1    3    3    0    0  0.36546525485E+02 -0.62877072229E+01  0.72751893682E+02  0.81657956265E+02  0.00000000000E+00 0. -1.
<mgrwt>
<rscale>  0 0.89196166E+02</rscale>
<asrwt>0</asrwt>
<pdfrwt beam="1">  1        2 0.15271660E-01 0.89196166E+02</pdfrwt>
<pdfrwt beam="2">  1       -2 0.30826159E-02 0.89196166E+02</pdfrwt>
<totfact> 0.13001413E+05</totfact>
</mgrwt>
</event>
<event>
 5    1  0.6222456E+000  0.9196517E+02  0.7546771E-02  0.1298161E+00
         -3   -1    0    0    0  501 -0.00000000000E+00  0.00000000000E+00  0.28399859570E+03  0.28399859570E+03  0.00000000000E+00 0.  1.
          3   -1    0    0  501    0  0.00000000000E+00 -0.00000000000E+00 -0.74451011473E+01  0.74451011473E+01  0.00000000000E+00 0. -1.
         23    2    1    2    0    0  0.00000000000E+00  0.00000000000E+00  0.27655349455E+03  0.29144369684E+03  0.91965173205E+02 0.  0.
        -11    1    3    3    0    0  0.11660713267E+02  0.44454770059E+02  0.13357684431E+03  0.14126206905E+03  0.00000000000E+00 0. -1.
         11    1    3    3    0    0 -0.11660713267E+02 -0.44454770059E+02  0.14297665024E+03  0.15018162780E+03  0.00000000000E+00 0.  1.
<mgrwt>
<rscale>  0 0.91965173E+02</rscale>
<asrwt>0</asrwt>
<pdfrwt beam="2">  1        3 0.11454004E-02 0.91965173E+02</pdfrwt>
<pdfrwt beam="1">  1       -3 0.43692083E-01 0.91965173E+02</pdfrwt>
<totfact> 0.23801310E+04</totfact>
</mgrwt>
</event>
<event>
 5    1  0.6222456E+000  0.8770682E+02  0.7546771E-02  0.1308502E+00
         -1   -1    0    0    0  501 -0.00000000000E+00  0.00000000000E+00  0.18891994104E+03  0.18891994104E+03  0.00000000000E+00 0.  1.
          1   -1    0    0  501    0  0.00000000000E+00 -0.00000000000E+00 -0.10179559141E+02  0.10179559141E+02  0.00000000000E+00 0. -1.
         23    2    1    2    0    0  0.00000000000E+00  0.00000000000E+00  0.17874038190E+03  0.19909950018E+03  0.87706823286E+02 0.  0.
        -11    1    3    3    0    0  0.13267962369E+02  0.40398222585E+02  0.65019502807E+02  0.77689065889E+02  0.00000000000E+00 0. -1.
         11    1    3    3    0    0 -0.13267962369E+02 -0.40398222585E+02  0.11372087909E+03  0.12141043429E+03  0.00000000000E+00 0.  1.
<mgrwt>
<rscale>  0 0.87706823E+02</rscale>
<asrwt>0</asrwt>
<pdfrwt beam="2">  1        1 0.15660862E-02 0.87706823E+02</pdfrwt>
<pdfrwt beam="1">  1       -1 0.29064604E-01 0.87706823E+02</pdfrwt>
<totfact> 0.78026890E+04</totfact>
</mgrwt>
</event>
<event>
 5    1  0.6222456E+000  0.9087289E+02  0.7546771E-02  0.1300752E+00
          1   -1    0    0  501    0  0.00000000000E+00  0.00000000000E+00  0.73119063139E+02  0.73119063139E+02  0.00000000000E+00 0. -1.
         -1   -1    0    0    0  501 -0.00000000000E+00 -0.00000000000E+00 -0.28234367525E+02  0.28234367525E+02  0.00000000000E+00 0.  1.
         23    2    1    2    0    0  0.00000000000E+00  0.00000000000E+00  0.44884695614E+02  0.10135343066E+03  0.90872889286E+02 0.  0.
        -11    1    3    3    0    0 -0.22814246454E+02  0.28019780449E+02  0.53167110897E+02  0.64283276354E+02  0.00000000000E+00 0. -1.
         11    1    3    3    0    0  0.22814246454E+02 -0.28019780449E+02 -0.82824152829E+01  0.37070154311E+02  0.00000000000E+00 0.  1.
<mgrwt>
<rscale>  0 0.90872889E+02</rscale>
<asrwt>0</asrwt>
<pdfrwt beam="1">  1        1 0.11249087E-01 0.90872889E+02</pdfrwt>
<pdfrwt beam="2">  1       -1 0.43437489E-02 0.90872889E+02</pdfrwt>
<totfact> 0.10025278E+05</totfact>
</mgrwt>
</event>
<event>
 5    1  0.6222456E+000  0.8965535E+02  0.7546771E-02  0.1303688E+00
         -1   -1    0    0    0  501 -0.00000000000E+00  0.00000000000E+00  0.12926549213E+02  0.12926549213E+02  0.00000000000E+00 0.  1.
          1   -1    0    0  501    0  0.00000000000E+00 -0.00000000000E+00 -0.15545682520E+03  0.15545682520E+03  0.00000000000E+00 0. -1.
         23    2    1    2    0    0  0.00000000000E+00  0.00000000000E+00 -0.14253027599E+03  0.16838337441E+03  0.89655346776E+02 0.  0.
        -11    1    3    3    0    0 -0.28163492710E+02 -0.31887563091E+02 -0.44736335485E+02  0.61736040642E+02  0.00000000000E+00 0.  1.
         11    1    3    3    0    0  0.28163492710E+02  0.31887563091E+02 -0.97793940502E+02  0.10664733377E+03  0.00000000000E+00 0. -1.
<mgrwt>
<rscale>  0 0.89655347E+02</rscale>
<asrwt>0</asrwt>
<pdfrwt beam="2">  1        1 0.23916434E-01 0.89655347E+02</pdfrwt>
<pdfrwt beam="1">  1       -1 0.19886999E-02 0.89655347E+02</pdfrwt>
<totfact> 0.11810365E+05</totfact>
</mgrwt>
</event>
<event>
 5    1  0.6222456E+000  0.7978959E+02  0.7546771E-02  0.1329650E+00
          2   -1    0    0  501    0  0.00000000000E+00  0.00000000000E+00  0.13879251846E+03  0.13879251846E+03  0.00000000000E+00 0. -1.
         -2   -1    0    0    0  501 -0.00000000000E+00 -0.00000000000E+00 -0.11467437765E+02  0.11467437765E+02  0.00000000000E+00 0.  1.
         23    2    1    2    0    0  0.00000000000E+00  0.00000000000E+00  0.12732508070E+03  0.15025995623E+03  0.79789587483E+02 0.  0.
        -11    1    3    3    0    0  0.39691648702E+02  0.39900810097E+01  0.64598180372E+02  0.75922807051E+02  0.00000000000E+00 0.  1.
         11    1    3    3    0    0 -0.39691648702E+02 -0.39900810097E+01  0.62726900328E+02  0.74337149178E+02  0.00000000000E+00 0. -1.
<mgrwt>
<rscale>  0 0.79789587E+02</rscale>
<asrwt>0</asrwt>
<pdfrwt beam="1">  1        2 0.21352694E-01 0.79789587E+02</pdfrwt>
<pdfrwt beam="2">  1       -2 0.17642213E-02 0.79789587E+02</pdfrwt>
<totfact> 0.19514524E+05</totfact>
</mgrwt>
</event>
<event>
 5    1  0.6222456E+000  0.9493186E+02  0.7546771E-02  0.1291330E+00
          1   -1    0    0  501    0  0.00000000000E+00  0.00000000000E+00  0.33263485230E+03  0.33263485230E+03  0.00000000000E+00 0. -1.
         -1   -1    0    0    0  501 -0.00000000000E+00 -0.00000000000E+00 -0.67732358236E+01  0.67732358236E+01  0.00000000000E+00 0.  1.
         23    2    1    2    0    0  0.00000000000E+00  0.00000000000E+00  0.32586161647E+03  0.33940808812E+03  0.94931855512E+02 0.  0.
        -11    1    3    3    0    0 -0.32958525277E+02  0.30489869207E+02  0.21798523976E+03  0.22256114051E+03  0.00000000000E+00 0. -1.
         11    1    3    3    0    0  0.32958525277E+02 -0.30489869207E+02  0.10787637671E+03  0.11684694761E+03  0.00000000000E+00 0.  1.
<mgrwt>
<rscale>  0 0.94931856E+02</rscale>
<asrwt>0</asrwt>
<pdfrwt beam="1">  1        1 0.51174580E-01 0.94931856E+02</pdfrwt>
<pdfrwt beam="2">  1       -1 0.10420365E-02 0.94931856E+02</pdfrwt>
<totfact> 0.11729000E+05</totfact>
</mgrwt>
</event>
<event>
 5    1  0.6222456E+000  0.9197556E+02  0.7546771E-02  0.1298137E+00
          3   -1    0    0  501    0  0.00000000000E+00  0.00000000000E+00  0.10856255255E+02  0.10856255255E+02  0.00000000000E+00 0. -1.
         -3   -1    0    0    0  501 -0.00000000000E+00 -0.00000000000E+00 -0.19480714658E+03  0.19480714658E+03  0.00000000000E+00 0.  1.
         23    2    1    2    0    0  0.00000000000E+00  0.00000000000E+00 -0.18395089132E+03  0.20566340183E+03  0.91975564337E+02 0.  0.
        -11    1    3    3    0    0 -0.10003333500E+02  0.44886496270E+02 -0.92219169219E+02  0.10304969384E+03  0.00000000000E+00 0.  1.
         11    1    3    3    0    0  0.10003333500E+02 -0.44886496270E+02 -0.91731722105E+02  0.10261370800E+03  0.00000000000E+00 0. -1.
<mgrwt>
<rscale>  0 0.91975564E+02</rscale>
<asrwt>0</asrwt>
<pdfrwt beam="1">  1        3 0.16701931E-02 0.91975564E+02</pdfrwt>
<pdfrwt beam="2">  1       -3 0.29970330E-01 0.91975564E+02</pdfrwt>
<totfact> 0.27549746E+04</totfact>
</mgrwt>
</event>
<event>
 5    1  0.6222456E+000  0.8954419E+02  0.7546771E-02  0.1303959E+00
          1   -1    0    0  501    0  0.00000000000E+00  0.00000000000E+00  0.37800285081E+02  0.37800285081E+02  0.00000000000E+00 0. -1.
         -1   -1    0    0    0  501 -0.00000000000E+00 -0.00000000000E+00 -0.53029770405E+02  0.53029770405E+02  0.00000000000E+00 0.  1.
         23    2    1    2    0    0  0.00000000000E+00  0.00000000000E+00 -0.15229485325E+02  0.90830055486E+02  0.89544188847E+02 0.  0.
        -11    1    3    3    0    0  0.12424356899E+02  0.40900477356E+02 -0.21122377021E+02  0.47679854271E+02  0.00000000000E+00 0.  1.
         11    1    3    3    0    0 -0.12424356899E+02 -0.40900477356E+02  0.58928916963E+01  0.43150201215E+02  0.00000000000E+00 0. -1.
<mgrwt>
<rscale>  0 0.89544189E+02</rscale>
<asrwt>0</asrwt>
<pdfrwt beam="1">  1        1 0.58154285E-02 0.89544189E+02</pdfrwt>
<pdfrwt beam="2">  1       -1 0.81584262E-02 0.89544189E+02</pdfrwt>
<totfact> 0.94593945E+04</totfact>
</mgrwt>
</event>
<event>
 5    1  0.6222456E+000  0.9130589E+02  0.7546771E-02  0.1299720E+00
         -1   -1    0    0    0  501 -0.00000000000E+00  0.00000000000E+00  0.18198055480E+02  0.18198055480E+02  0.00000000000E+00 0.  1.
          1   -1    0    0  501    0  0.00000000000E+00 -0.00000000000E+00 -0.11452825568E+03  0.11452825568E+03  0.00000000000E+00 0. -1.
         23    2    1    2    0    0  0.00000000000E+00  0.00000000000E+00 -0.96330200204E+02  0.13272631116E+03  0.91305893588E+02 0.  0.
        -11    1    3    3    0    0 -0.21657380215E+02 -0.25438845156E+02 -0.29379560051E+01  0.33538165516E+02  0.00000000000E+00 0.  1.
         11    1    3    3    0    0  0.21657380215E+02  0.25438845156E+02 -0.93392244199E+02  0.99188145649E+02  0.00000000000E+00 0. -1.
<mgrwt>
<rscale>  0 0.91305894E+02</rscale>
<asrwt>0</asrwt>
<pdfrwt beam="2">  1        1 0.17619732E-01 0.91305894E+02</pdfrwt>
<pdfrwt beam="1">  1       -1 0.27997009E-02 0.91305894E+02</pdfrwt>
<totfact> 0.10646367E+05</totfact>
</mgrwt>
</event>
<event>
 5    1  0.6222456E+000  0.9924672E+02  0.7546771E-02  0.1281888E+00
         -3   -1    0    0    0  501 -0.00000000000E+00  0.00000000000E+00  0.11379486033E+02  0.11379486033E+02  0.00000000000E+00 0.  1.
          3   -1    0    0  501    0  0.00000000000E+00 -0.00000000000E+00 -0.21639621800E+03  0.21639621800E+03  0.00000000000E+00 0. -1.
         23    2    1    2    0    0  0.00000000000E+00  0.00000000000E+00 -0.20501673197E+03  0.22777570404E+03  0.99246717634E+02 0.  0.
        -11    1    3    3    0    0  0.30287177366E+02  0.25358464338E+02 -0.33576236479E+02  0.51843307017E+02  0.00000000000E+00 0.  1.
         11    1    3    3    0    0 -0.30287177366E+02 -0.25358464338E+02 -0.17144049549E+03  0.17593239702E+03  0.00000000000E+00 0. -1.
<mgrwt>
<rscale>  0 0.99246718E+02</rscale>
<asrwt>0</asrwt>
<pdfrwt beam="2">  1        3 0.33291726E-01 0.99246718E+02</pdfrwt>
<pdfrwt beam="1">  1       -3 0.17506901E-02 0.99246718E+02</pdfrwt>
<totfact> 0.21554817E+04</totfact>
</mgrwt>
</event>
<event>
 5    1  0.6222456E+000  0.9458968E+02  0.7546771E-02  0.1292103E+00
          1   -1    0    0  501    0  0.00000000000E+00  0.00000000000E+00  0.10786824617E+03  0.10786824617E+03  0.00000000000E+00 0. -1.
         -1   -1    0    0    0  501 -0.00000000000E+00 -0.00000000000E+00 -0.20736424984E+02  0.20736424984E+02  0.00000000000E+00 0.  1.
         23    2    1    2    0    0  0.00000000000E+00  0.00000000000E+00  0.87131821189E+02  0.12860467116E+03  0.94589677976E+02 0.  0.
        -11    1    3    3    0    0 -0.36856530486E+02  0.17042001849E+02  0.10598116514E+02  0.41966102275E+02  0.00000000000E+00 0.  1.
         11    1    3    3    0    0  0.36856530486E+02 -0.17042001849E+02  0.76533704675E+02  0.86638568882E+02  0.00000000000E+00 0. -1.
<mgrwt>
<rscale>  0 0.94589678E+02</rscale>
<asrwt>0</asrwt>
<pdfrwt beam="1">  1        1 0.16595114E-01 0.94589678E+02</pdfrwt>
<pdfrwt beam="2">  1       -1 0.31902193E-02 0.94589678E+02</pdfrwt>
<totfact> 0.95693827E+04</totfact>
</mgrwt>
</event>
<event>
 5    1  0.6222456E+000  0.9187495E+02  0.7546771E-02  0.1298374E+00
         -2   -1    0    0    0  501 -0.00000000000E+00  0.00000000000E+00  0.12108927027E+02  0.12108927027E+02  0.00000000000E+00 0.  1.
          2   -1    0    0  501    0  0.00000000000E+00 -0.00000000000E+00 -0.17427237738E+03  0.17427237738E+03  0.00000000000E+00 0. -1.
         23    2    1    2    0    0  0.00000000000E+00  0.00000000000E+00 -0.16216345035E+03  0.18638130440E+03  0.91874947629E+02 0.  0.
        -11    1    3    3    0    0  0.27385579726E+02 -0.34439075643E+02 -0.54304307346E+02  0.69892615521E+02  0.00000000000E+00 0.  1.
         11    1    3    3    0    0 -0.27385579726E+02  0.34439075643E+02 -0.10785914300E+03  0.11648868888E+03  0.00000000000E+00 0. -1.
<mgrwt>
<rscale>  0 0.91874948E+02</rscale>
<asrwt>0</asrwt>
<pdfrwt beam="2">  1        2 0.26811135E-01 0.91874948E+02</pdfrwt>
<pdfrwt beam="1">  1       -2 0.18629118E-02 0.91874948E+02</pdfrwt>
<totfact> 0.14424648E+05</totfact>
</mgrwt>
</event>
<event>
 5    1  0.6222456E+000  0.9196115E+02  0.7546771E-02  0.1298171E+00
          1   -1    0    0  501    0  0.00000000000E+00  0.00000000000E+00  0.12720529332E+02  0.12720529332E+02  0.00000000000E+00 0. -1.
         -1   -1    0    0    0  501 -0.00000000000E+00 -0.00000000000E+00 -0.16620480781E+03  0.16620480781E+03  0.00000000000E+00 0.  1.
         23    2    1    2    0    0  0.00000000000E+00  0.00000000000E+00 -0.15348427848E+03  0.17892533715E+03  0.91961146859E+02 0.  0.
        -11    1    3    3    0    0  0.23729857670E+01 -0.34328200477E+02 -0.13608186437E+03  0.14036498930E+03  0.00000000000E+00 0.  1.
         11    1    3    3    0    0 -0.23729857670E+01  0.34328200477E+02 -0.17402414111E+02  0.38560347850E+02  0.00000000000E+00 0. -1.
<mgrwt>
<rscale>  0 0.91961147E+02</rscale>
<asrwt>0</asrwt>
<pdfrwt beam="1">  1        1 0.19570045E-02 0.91961147E+02</pdfrwt>
<pdfrwt beam="2">  1       -1 0.25569971E-01 0.91961147E+02</pdfrwt>
<totfact> 0.71345166E+04</totfact>
</mgrwt>
</event>
<event>
 5    1  0.6222456E+000  0.9147191E+02  0.7546771E-02  0.1299326E+00
         -2   -1    0    0    0  501 -0.00000000000E+00  0.00000000000E+00  0.16329617202E+03  0.16329617202E+03  0.00000000000E+00 0. -1.
          2   -1    0    0  501    0  0.00000000000E+00 -0.00000000000E+00 -0.12809714984E+02  0.12809714984E+02  0.00000000000E+00 0.  1.
         23    2    1    2    0    0  0.00000000000E+00  0.00000000000E+00  0.15048645704E+03  0.17610588700E+03  0.91471906543E+02 0.  0.
        -11    1    3    3    0    0 -0.10324688714E+02 -0.36504739292E+02  0.26061502503E+02  0.46026048066E+02  0.00000000000E+00 0.  1.
         11    1    3    3    0    0  0.10324688714E+02  0.36504739292E+02  0.12442495453E+03  0.13007983894E+03  0.00000000000E+00 0. -1.
<mgrwt>
<rscale>  0 0.91471907E+02</rscale>
<asrwt>0</asrwt>
<pdfrwt beam="2">  1        2 0.19707255E-02 0.91471907E+02</pdfrwt>
<pdfrwt beam="1">  1       -2 0.25122487E-01 0.91471907E+02</pdfrwt>
<totfact> 0.67125138E+04</totfact>
</mgrwt>
</event>
<event>
 5    1  0.6222456E+000  0.9155475E+02  0.7546771E-02  0.1299130E+00
          1   -1    0    0  501    0  0.00000000000E+00  0.00000000000E+00  0.44614145364E+02  0.44614145364E+02  0.00000000000E+00 0. -1.
         -1   -1    0    0    0  501 -0.00000000000E+00 -0.00000000000E+00 -0.46970934694E+02  0.46970934694E+02  0.00000000000E+00 0.  1.
         23    2    1    2    0    0  0.00000000000E+00  0.00000000000E+00 -0.23567893295E+01  0.91585080058E+02  0.91554751015E+02 0.  0.
        -11    1    3    3    0    0  0.24959014231E+02 -0.15887204007E+02 -0.36121506022E+02  0.46691742737E+02  0.00000000000E+00 0.  1.
         11    1    3    3    0    0 -0.24959014231E+02  0.15887204007E+02  0.33764716693E+02  0.44893337321E+02  0.00000000000E+00 0. -1.
<mgrwt>
<rscale>  0 0.91554751E+02</rscale>
<asrwt>0</asrwt>
<pdfrwt beam="1">  1        1 0.68637147E-02 0.91554751E+02</pdfrwt>
<pdfrwt beam="2">  1       -1 0.72262976E-02 0.91554751E+02</pdfrwt>
<totfact> 0.91105810E+04</totfact>
</mgrwt>
</event>
<event>
 5    1  0.6222456E+000  0.9099353E+02  0.7546771E-02  0.1300463E+00
          2   -1    0    0  501    0  0.00000000000E+00  0.00000000000E+00  0.52653525916E+02  0.52653525916E+02  0.00000000000E+00 0. -1.
         -2   -1    0    0    0  501 -0.00000000000E+00 -0.00000000000E+00 -0.39312767470E+02  0.39312767470E+02  0.00000000000E+00 0.  1.
         23    2    1    2    0    0  0.00000000000E+00  0.00000000000E+00  0.13340758447E+02  0.91966293386E+02  0.90993534293E+02 0.  0.
        -11    1    3    3    0    0 -0.29235929208E+02  0.23559179687E+02  0.32639052592E+02  0.49750198575E+02  0.00000000000E+00 0. -1.
         11    1    3    3    0    0  0.29235929208E+02 -0.23559179687E+02 -0.19298294146E+02  0.42216094811E+02  0.00000000000E+00 0.  1.
<mgrwt>
<rscale>  0 0.90993534E+02</rscale>
<asrwt>0</asrwt>
<pdfrwt beam="1">  1        2 0.81005424E-02 0.90993534E+02</pdfrwt>
<pdfrwt beam="2">  1       -2 0.60481181E-02 0.90993534E+02</pdfrwt>
<totfact> 0.10304475E+05</totfact>
</mgrwt>
</event>
<event>
 5    1  0.6222456E+000  0.8859573E+02  0.7546771E-02  0.1306288E+00
          1   -1    0    0  501    0  0.00000000000E+00  0.00000000000E+00  0.31461346759E+02  0.31461346759E+02  0.00000000000E+00 0. -1.
         -1   -1    0    0    0  501 -0.00000000000E+00 -0.00000000000E+00 -0.62371806545E+02  0.62371806545E+02  0.00000000000E+00 0.  1.
         23    2    1    2    0    0  0.00000000000E+00  0.00000000000E+00 -0.30910459786E+02  0.93833153304E+02  0.88595734293E+02 0.  0.
        -11    1    3    3    0    0 -0.96779052903E+01 -0.38414984248E+02 -0.36449466189E+02  0.53832485091E+02  0.00000000000E+00 0.  1.
         11    1    3    3    0    0  0.96779052903E+01  0.38414984248E+02  0.55390064033E+01  0.40000668213E+02  0.00000000000E+00 0. -1.
<mgrwt>
<rscale>  0 0.88595734E+02</rscale>
<asrwt>0</asrwt>
<pdfrwt beam="1">  1        1 0.48402072E-02 0.88595734E+02</pdfrwt>
<pdfrwt beam="2">  1       -1 0.95956625E-02 0.88595734E+02</pdfrwt>
<totfact> 0.94804389E+04</totfact>
</mgrwt>
</event>
<event>
 5    1  0.6222456E+000  0.9246821E+02  0.7546771E-02  0.1296982E+00
         -2   -1    0    0    0  501 -0.00000000000E+00  0.00000000000E+00  0.48454202631E+02  0.48454202631E+02  0.00000000000E+00 0.  1.
          2   -1    0    0  501    0  0.00000000000E+00 -0.00000000000E+00 -0.44115733317E+02  0.44115733317E+02  0.00000000000E+00 0. -1.
         23    2    1    2    0    0  0.00000000000E+00  0.00000000000E+00  0.43384693145E+01  0.92569935948E+02  0.92468214676E+02 0.  0.
        -11    1    3    3    0    0  0.39396484501E+02 -0.37942424418E+01  0.26093503346E+02  0.47406225156E+02  0.00000000000E+00 0.  1.
         11    1    3    3    0    0 -0.39396484501E+02  0.37942424418E+01 -0.21755034031E+02  0.45163710791E+02  0.00000000000E+00 0. -1.
<mgrwt>
<rscale>  0 0.92468215E+02</rscale>
<asrwt>0</asrwt>
<pdfrwt beam="2">  1        2 0.67870359E-02 0.92468215E+02</pdfrwt>
<pdfrwt beam="1">  1       -2 0.74544927E-02 0.92468215E+02</pdfrwt>
<totfact> 0.93949945E+04</totfact>
</mgrwt>
</event>
<event>
 5    1  0.6222456E+000  0.8828259E+02  0.7546771E-02  0.1307065E+00
          1   -1    0    0  501    0  0.00000000000E+00  0.00000000000E+00  0.98639620718E+02  0.98639620718E+02  0.00000000000E+00 0. -1.
         -1   -1    0    0    0  501 -0.00000000000E+00 -0.00000000000E+00 -0.19753260111E+02  0.19753260111E+02  0.00000000000E+00 0.  1.
         23    2    1    2    0    0  0.00000000000E+00  0.00000000000E+00  0.78886360606E+02  0.11839288083E+03  0.88282593648E+02 0.  0.
        -11    1    3    3    0    0 -0.10196689565E+02 -0.29576625377E+02  0.81204122240E+02  0.87022173700E+02  0.00000000000E+00 0. -1.
         11    1    3    3    0    0  0.10196689565E+02  0.29576625377E+02 -0.23177616337E+01  0.31370707129E+02  0.00000000000E+00 0.  1.
<mgrwt>
<rscale>  0 0.88282594E+02</rscale>
<asrwt>0</asrwt>
<pdfrwt beam="1">  1        1 0.15175326E-01 0.88282594E+02</pdfrwt>
<pdfrwt beam="2">  1       -1 0.30389631E-02 0.88282594E+02</pdfrwt>
<totfact> 0.11376885E+05</totfact>
</mgrwt>
</event>
<event>
 5    1  0.6222456E+000  0.9111374E+02  0.7546771E-02  0.1300177E+00
          1   -1    0    0  501    0  0.00000000000E+00  0.00000000000E+00  0.24574986350E+02  0.24574986350E+02  0.00000000000E+00 0. -1.
         -1   -1    0    0    0  501 -0.00000000000E+00 -0.00000000000E+00 -0.84452873369E+02  0.84452873369E+02  0.00000000000E+00 0.  1.
         23    2    1    2    0    0  0.00000000000E+00  0.00000000000E+00 -0.59877887019E+02  0.10902785972E+03  0.91113735743E+02 0.  0.
        -11    1    3    3    0    0  0.37033619153E+02 -0.16158854269E+00  0.18088226677E+01  0.37078118855E+02  0.00000000000E+00 0. -1.
         11    1    3    3    0    0 -0.37033619153E+02  0.16158854269E+00 -0.61686709686E+02  0.71949740864E+02  0.00000000000E+00 0.  1.
<mgrwt>
<rscale>  0 0.91113736E+02</rscale>
<asrwt>0</asrwt>
<pdfrwt beam="1">  1        1 0.37807671E-02 0.91113736E+02</pdfrwt>
<pdfrwt beam="2">  1       -1 0.12992750E-01 0.91113736E+02</pdfrwt>
<totfact> 0.84020097E+04</totfact>
</mgrwt>
</event>
<event>
 5    1  0.6222456E+000  0.8705938E+02  0.7546771E-02  0.1310133E+00
          3   -1    0    0  501    0  0.00000000000E+00  0.00000000000E+00  0.20227344012E+03  0.20227344012E+03  0.00000000000E+00 0. -1.
         -3   -1    0    0    0  501 -0.00000000000E+00 -0.00000000000E+00 -0.93676858350E+01  0.93676858350E+01  0.00000000000E+00 0.  1.
         23    2    1    2    0    0  0.00000000000E+00  0.00000000000E+00  0.19290575428E+03  0.21164112595E+03  0.87059382948E+02 0.  0.
        -11    1    3    3    0    0  0.38413394370E+02 -0.93187266832E+01  0.52130888692E+02  0.65422145256E+02  0.00000000000E+00 0.  1.
         11    1    3    3    0    0 -0.38413394370E+02  0.93187266832E+01  0.14077486559E+03  0.14621898070E+03  0.00000000000E+00 0. -1.
<mgrwt>
<rscale>  0 0.87059383E+02</rscale>
<asrwt>0</asrwt>
<pdfrwt beam="1">  1        3 0.31118988E-01 0.87059383E+02</pdfrwt>
<pdfrwt beam="2">  1       -3 0.14411826E-02 0.87059383E+02</pdfrwt>
<totfact> 0.31594621E+04</totfact>
</mgrwt>
</event>
<event>
 5    1  0.6222456E+000  0.8950731E+02  0.7546771E-02  0.1304049E+00
         -3   -1    0    0    0  501 -0.00000000000E+00  0.00000000000E+00  0.68294540501E+02  0.68294540501E+02  0.00000000000E+00 0.  1.
          3   -1    0    0  501    0  0.00000000000E+00 -0.00000000000E+00 -0.29327228472E+02  0.29327228472E+02  0.00000000000E+00 0. -1.
         23    2    1    2    0    0  0.00000000000E+00  0.00000000000E+00  0.38967312029E+02  0.97621768973E+02  0.89507309035E+02 0.  0.
        -11    1    3    3    0    0  0.44601568594E+01 -0.40481245384E+02  0.39720129816E+02  0.56888601140E+02  0.00000000000E+00 0.  1.
         11    1    3    3    0    0 -0.44601568594E+01  0.40481245384E+02 -0.75281778691E+00  0.40733167833E+02  0.00000000000E+00 0. -1.
<mgrwt>
<rscale>  0 0.89507309E+02</rscale>
<asrwt>0</asrwt>
<pdfrwt beam="2">  1        3 0.45118813E-02 0.89507309E+02</pdfrwt>
<pdfrwt beam="1">  1       -3 0.10506852E-01 0.89507309E+02</pdfrwt>
<totfact> 0.36643259E+04</totfact>
</mgrwt>
</event>
<event>
 5    1  0.6222456E+000  0.7661337E+02  0.7546771E-02  0.1338947E+00
         -3   -1    0    0    0  501 -0.00000000000E+00  0.00000000000E+00  0.44134698906E+02  0.44134698906E+02  0.00000000000E+00 0.  1.
          3   -1    0    0  501    0  0.00000000000E+00 -0.00000000000E+00 -0.33248260226E+02  0.33248260226E+02  0.00000000000E+00 0. -1.
         23    2    1    2    0    0  0.00000000000E+00  0.00000000000E+00  0.10886438680E+02  0.77382959132E+02  0.76613365785E+02 0.  0.
        -11    1    3    3    0    0  0.32001525406E+01  0.11515814334E+02  0.42203132548E+02  0.43862961059E+02  0.00000000000E+00 0.  1.
         11    1    3    3    0    0 -0.32001525406E+01 -0.11515814334E+02 -0.31316693867E+02  0.33519998073E+02  0.00000000000E+00 0. -1.
<mgrwt>
<rscale>  0 0.76613366E+02</rscale>
<asrwt>0</asrwt>
<pdfrwt beam="2">  1        3 0.51151169E-02 0.76613366E+02</pdfrwt>
<pdfrwt beam="1">  1       -3 0.67899537E-02 0.76613366E+02</pdfrwt>
<totfact> 0.58275624E+04</totfact>
</mgrwt>
</event>
<event>
 5    1  0.6222456E+000  0.9199529E+02  0.7546771E-02  0.1298091E+00
          1   -1    0    0  501    0  0.00000000000E+00  0.00000000000E+00  0.21238819670E+02  0.21238819670E+02  0.00000000000E+00 0. -1.
         -1   -1    0    0    0  501 -0.00000000000E+00 -0.00000000000E+00 -0.99618686870E+02  0.99618686870E+02  0.00000000000E+00 0.  1.
         23    2    1    2    0    0  0.00000000000E+00  0.00000000000E+00 -0.78379867200E+02  0.12085750654E+03  0.91995289578E+02 0.  0.
        -11    1    3    3    0    0 -0.24840662685E+02  0.18902753896E+02 -0.83574196167E+02  0.89213333602E+02  0.00000000000E+00 0.  1.
         11    1    3    3    0    0  0.24840662685E+02 -0.18902753896E+02  0.51943289668E+01  0.31644172937E+02  0.00000000000E+00 0. -1.
<mgrwt>
<rscale>  0 0.91995290E+02</rscale>
<asrwt>0</asrwt>
<pdfrwt beam="1">  1        1 0.32675107E-02 0.91995290E+02</pdfrwt>
<pdfrwt beam="2">  1       -1 0.15325952E-01 0.91995290E+02</pdfrwt>
<totfact> 0.79573902E+04</totfact>
</mgrwt>
</event>
<event>
 5    1  0.6222456E+000  0.8786634E+02  0.7546771E-02  0.1308102E+00
          2   -1    0    0  501    0  0.00000000000E+00  0.00000000000E+00  0.86520036784E+02  0.86520036784E+02  0.00000000000E+00 0. -1.
         -2   -1    0    0    0  501 -0.00000000000E+00 -0.00000000000E+00 -0.22308396060E+02  0.22308396060E+02  0.00000000000E+00 0.  1.
         23    2    1    2    0    0  0.00000000000E+00  0.00000000000E+00  0.64211640724E+02  0.10882843284E+03  0.87866335936E+02 0.  0.
        -11    1    3    3    0    0 -0.16872772436E+02 -0.40557699048E+02  0.31224915509E+02  0.53894459365E+02  0.00000000000E+00 0.  1.
         11    1    3    3    0    0  0.16872772436E+02  0.40557699048E+02  0.32986725215E+02  0.54933973479E+02  0.00000000000E+00 0. -1.
<mgrwt>
<rscale>  0 0.87866336E+02</rscale>
<asrwt>0</asrwt>
<pdfrwt beam="1">  1        2 0.13310775E-01 0.87866336E+02</pdfrwt>
<pdfrwt beam="2">  1       -2 0.34320610E-02 0.87866336E+02</pdfrwt>
<totfact> 0.13011135E+05</totfact>
</mgrwt>
</event>
<event>
 5    1  0.6222456E+000  0.9250319E+02  0.7546771E-02  0.1296901E+00
         -1   -1    0    0    0  501 -0.00000000000E+00  0.00000000000E+00  0.21013605514E+02  0.21013605514E+02  0.00000000000E+00 0.  1.
          1   -1    0    0  501    0  0.00000000000E+00 -0.00000000000E+00 -0.10180119100E+03  0.10180119100E+03  0.00000000000E+00 0. -1.
         23    2    1    2    0    0  0.00000000000E+00  0.00000000000E+00 -0.80787585483E+02  0.12281479651E+03  0.92503190614E+02 0.  0.
        -11    1    3    3    0    0 -0.38820663175E+02  0.24467025008E+02 -0.48081845725E+02  0.66464600280E+02  0.00000000000E+00 0. -1.
         11    1    3    3    0    0  0.38820663175E+02 -0.24467025008E+02 -0.32705739758E+02  0.56350196230E+02  0.00000000000E+00 0.  1.
<mgrwt>
<rscale>  0 0.92503191E+02</rscale>
<asrwt>0</asrwt>
<pdfrwt beam="2">  1        1 0.15661721E-01 0.92503191E+02</pdfrwt>
<pdfrwt beam="1">  1       -1 0.32328625E-02 0.92503191E+02</pdfrwt>
<totfact> 0.10071315E+05</totfact>
</mgrwt>
</event>
<event>
 5    1  0.6222456E+000  0.9153514E+02  0.7546771E-02  0.1299176E+00
         -2   -1    0    0    0  501 -0.00000000000E+00  0.00000000000E+00  0.10558663246E+02  0.10558663246E+02  0.00000000000E+00 0.  1.
          2   -1    0    0  501    0  0.00000000000E+00 -0.00000000000E+00 -0.19838407136E+03  0.19838407136E+03  0.00000000000E+00 0. -1.
         23    2    1    2    0    0  0.00000000000E+00  0.00000000000E+00 -0.18782540812E+03  0.20894273461E+03  0.91535143041E+02 0.  0.
        -11    1    3    3    0    0 -0.42454260354E+01 -0.43815487116E+02 -0.12250057019E+03  0.13016992836E+03  0.00000000000E+00 0. -1.
         11    1    3    3    0    0  0.42454260354E+01  0.43815487116E+02 -0.65324837925E+02  0.78772806243E+02  0.00000000000E+00 0.  1.
<mgrwt>
<rscale>  0 0.91535143E+02</rscale>
<asrwt>0</asrwt>
<pdfrwt beam="2">  1        2 0.30520628E-01 0.91535143E+02</pdfrwt>
<pdfrwt beam="1">  1       -2 0.16244096E-02 0.91535143E+02</pdfrwt>
<totfact> 0.15260482E+05</totfact>
</mgrwt>
</event>
<event>
 5    1  0.6222456E+000  0.9088380E+02  0.7546771E-02  0.1300725E+00
          2   -1    0    0  501    0  0.00000000000E+00  0.00000000000E+00  0.13362403815E+02  0.13362403815E+02  0.00000000000E+00 0.  1.
         -2   -1    0    0    0  501 -0.00000000000E+00 -0.00000000000E+00 -0.15453552891E+03  0.15453552891E+03  0.00000000000E+00 0. -1.
         23    2    1    2    0    0  0.00000000000E+00  0.00000000000E+00 -0.14117312510E+03  0.16789793273E+03  0.90883797041E+02 0.  0.
        -11    1    3    3    0    0  0.11343644999E+02 -0.30003335563E+02 -0.11122147967E+02  0.33949677497E+02  0.00000000000E+00 0.  1.
         11    1    3    3    0    0 -0.11343644999E+02  0.30003335563E+02 -0.13005097713E+03  0.13394825523E+03  0.00000000000E+00 0. -1.
<mgrwt>
<rscale>  0 0.90883797E+02</rscale>
<asrwt>0</asrwt>
<pdfrwt beam="1">  1        2 0.20557546E-02 0.90883797E+02</pdfrwt>
<pdfrwt beam="2">  1       -2 0.23774695E-01 0.90883797E+02</pdfrwt>
<totfact> 0.69662837E+04</totfact>
</mgrwt>
</event>
<event>
 5    1  0.6222456E+000  0.9132762E+02  0.7546771E-02  0.1299668E+00
         -1   -1    0    0    0  501 -0.00000000000E+00  0.00000000000E+00  0.28082826119E+02  0.28082826119E+02  0.00000000000E+00 0.  1.
          1   -1    0    0  501    0  0.00000000000E+00 -0.00000000000E+00 -0.74251197233E+02  0.74251197233E+02  0.00000000000E+00 0. -1.
         23    2    1    2    0    0  0.00000000000E+00  0.00000000000E+00 -0.46168371114E+02  0.10233402335E+03  0.91327618190E+02 0.  0.
        -11    1    3    3    0    0 -0.20378478230E+02  0.38936880676E+01 -0.68665079345E+02  0.71730999597E+02  0.00000000000E+00 0. -1.
         11    1    3    3    0    0  0.20378478230E+02 -0.38936880676E+01  0.22496708231E+02  0.30603023756E+02  0.00000000000E+00 0.  1.
<mgrwt>
<rscale>  0 0.91327618E+02</rscale>
<asrwt>0</asrwt>
<pdfrwt beam="2">  1        1 0.11423261E-01 0.91327618E+02</pdfrwt>
<pdfrwt beam="1">  1       -1 0.43204348E-02 0.91327618E+02</pdfrwt>
<totfact> 0.99121014E+04</totfact>
</mgrwt>
</event>
<event>
 5    1  0.6222456E+000  0.9935371E+02  0.7546771E-02  0.1281661E+00
         -2   -1    0    0    0  501 -0.00000000000E+00  0.00000000000E+00  0.76593980900E+02  0.76593980900E+02  0.00000000000E+00 0. -1.
          2   -1    0    0  501    0  0.00000000000E+00 -0.00000000000E+00 -0.32219113351E+02  0.32219113351E+02  0.00000000000E+00 0.  1.
         23    2    1    2    0    0  0.00000000000E+00  0.00000000000E+00  0.44374867549E+02  0.10881309425E+03  0.99353714628E+02 0.  0.
        -11    1    3    3    0    0  0.90709166852E+01 -0.44446961840E+02  0.11782813061E-01  0.45363135751E+02  0.00000000000E+00 0.  1.
         11    1    3    3    0    0 -0.90709166852E+01  0.44446961840E+02  0.44363084736E+02  0.63449958500E+02  0.00000000000E+00 0. -1.
<mgrwt>
<rscale>  0 0.99353715E+02</rscale>
<asrwt>0</asrwt>
<pdfrwt beam="2">  1        2 0.49567867E-02 0.99353715E+02</pdfrwt>
<pdfrwt beam="1">  1       -2 0.11783689E-01 0.99353715E+02</pdfrwt>
<totfact> 0.69784380E+04</totfact>
</mgrwt>
</event>
<event>
 5    1  0.6222456E+000  0.9141026E+02  0.7546771E-02  0.1299472E+00
          4   -1    0    0  501    0  0.00000000000E+00  0.00000000000E+00  0.57665365538E+01  0.57665365538E+01  0.00000000000E+00 0.  1.
         -4   -1    0    0    0  501 -0.00000000000E+00 -0.00000000000E+00 -0.36225541829E+03  0.36225541829E+03  0.00000000000E+00 0. -1.
         23    2    1    2    0    0  0.00000000000E+00  0.00000000000E+00 -0.35648888174E+03  0.36802195485E+03  0.91410264444E+02 0.  0.
        -11    1    3    3    0    0  0.95636902776E+01 -0.43743121567E+02 -0.21515128753E+03  0.21976123721E+03  0.00000000000E+00 0. -1.
         11    1    3    3    0    0 -0.95636902776E+01  0.43743121567E+02 -0.14133759421E+03  0.14826071764E+03  0.00000000000E+00 0.  1.
<mgrwt>
<rscale>  0 0.91410264E+02</rscale>
<asrwt>0</asrwt>
<pdfrwt beam="1">  1        4 0.88715925E-03 0.91410264E+02</pdfrwt>
<pdfrwt beam="2">  1       -4 0.55731617E-01 0.91410264E+02</pdfrwt>
<totfact> 0.15820924E+04</totfact>
</mgrwt>
</event>
<event>
 5    1  0.6222456E+000  0.9170454E+02  0.7546771E-02  0.1298776E+00
         -3   -1    0    0    0  501 -0.00000000000E+00  0.00000000000E+00  0.30480368376E+02  0.30480368376E+02  0.00000000000E+00 0.  1.
          3   -1    0    0  501    0  0.00000000000E+00 -0.00000000000E+00 -0.68976554951E+02  0.68976554951E+02  0.00000000000E+00 0. -1.
         23    2    1    2    0    0  0.00000000000E+00  0.00000000000E+00 -0.38496186575E+02  0.99456923328E+02  0.91704543055E+02 0.  0.
        -11    1    3    3    0    0  0.42122471923E+02  0.18072714203E+02 -0.20578658541E+02  0.50243475466E+02  0.00000000000E+00 0.  1.
         11    1    3    3    0    0 -0.42122471923E+02 -0.18072714203E+02 -0.17917528034E+02  0.49213447861E+02  0.00000000000E+00 0. -1.
<mgrwt>
<rscale>  0 0.91704543E+02</rscale>
<asrwt>0</asrwt>
<pdfrwt beam="2">  1        3 0.10611778E-01 0.91704543E+02</pdfrwt>
<pdfrwt beam="1">  1       -3 0.46892875E-02 0.91704543E+02</pdfrwt>
<totfact> 0.34169208E+04</totfact>
</mgrwt>
</event>
<event>
 5    1  0.6222456E+000  0.9021040E+02  0.7546771E-02  0.1302343E+00
          2   -1    0    0  501    0  0.00000000000E+00  0.00000000000E+00  0.50616678725E+02  0.50616678725E+02  0.00000000000E+00 0. -1.
         -2   -1    0    0    0  501 -0.00000000000E+00 -0.00000000000E+00 -0.40193850630E+02  0.40193850630E+02  0.00000000000E+00 0.  1.
         23    2    1    2    0    0  0.00000000000E+00  0.00000000000E+00  0.10422828095E+02  0.90810529354E+02  0.90210403481E+02 0.  0.
        -11    1    3    3    0    0 -0.38252727856E+02  0.19299456286E+02 -0.89798524882E+01  0.43776454311E+02  0.00000000000E+00 0.  1.
         11    1    3    3    0    0  0.38252727856E+02 -0.19299456286E+02  0.19402680583E+02  0.47034075043E+02  0.00000000000E+00 0. -1.
<mgrwt>
<rscale>  0 0.90210403E+02</rscale>
<asrwt>0</asrwt>
<pdfrwt beam="1">  1        2 0.77871814E-02 0.90210403E+02</pdfrwt>
<pdfrwt beam="2">  1       -2 0.61836693E-02 0.90210403E+02</pdfrwt>
<totfact> 0.10452324E+05</totfact>
</mgrwt>
</event>
<event>
 5    1  0.6222456E+000  0.9082880E+02  0.7546771E-02  0.1300857E+00
          2   -1    0    0  501    0  0.00000000000E+00  0.00000000000E+00  0.18067001643E+03  0.18067001643E+03  0.00000000000E+00 0. -1.
         -2   -1    0    0    0  501 -0.00000000000E+00 -0.00000000000E+00 -0.11415660381E+02  0.11415660381E+02  0.00000000000E+00 0.  1.
         23    2    1    2    0    0  0.00000000000E+00  0.00000000000E+00  0.16925435605E+03  0.19208567681E+03  0.90828796062E+02 0.  0.
        -11    1    3    3    0    0 -0.19993014429E+02  0.39816863416E+02  0.10322841191E+03  0.11243312797E+03  0.00000000000E+00 0.  1.
         11    1    3    3    0    0  0.19993014429E+02 -0.39816863416E+02  0.66025944132E+02  0.79652548840E+02  0.00000000000E+00 0. -1.
<mgrwt>
<rscale>  0 0.90828796E+02</rscale>
<asrwt>0</asrwt>
<pdfrwt beam="1">  1        2 0.27795385E-01 0.90828796E+02</pdfrwt>
<pdfrwt beam="2">  1       -2 0.17562556E-02 0.90828796E+02</pdfrwt>
<totfact> 0.15069040E+05</totfact>
</mgrwt>
</event>
<event>
 5    1  0.6222456E+000  0.9169280E+02  0.7546771E-02  0.1298803E+00
         -1   -1    0    0    0  501 -0.00000000000E+00  0.00000000000E+00  0.32340702469E+02  0.32340702469E+02  0.00000000000E+00 0.  1.
          1   -1    0    0  501    0  0.00000000000E+00 -0.00000000000E+00 -0.64992165610E+02  0.64992165610E+02  0.00000000000E+00 0. -1.
         23    2    1    2    0    0  0.00000000000E+00  0.00000000000E+00 -0.32651463141E+02  0.97332868078E+02  0.91692797771E+02 0.  0.
        -11    1    3    3    0    0 -0.34723914056E+02 -0.28121430416E+02 -0.54315492847E+01  0.45011851591E+02  0.00000000000E+00 0. -1.
         11    1    3    3    0    0  0.34723914056E+02  0.28121430416E+02 -0.27219913856E+02  0.52321016488E+02  0.00000000000E+00 0.  1.
<mgrwt>
<rscale>  0 0.91692798E+02</rscale>
<asrwt>0</asrwt>
<pdfrwt beam="2">  1        1 0.99987946E-02 0.91692798E+02</pdfrwt>
<pdfrwt beam="1">  1       -1 0.49754928E-02 0.91692798E+02</pdfrwt>
<totfact> 0.96036586E+04</totfact>
</mgrwt>
</event>
<event>
 5    1  0.6222456E+000  0.9510460E+02  0.7546771E-02  0.1290941E+00
          2   -1    0    0  501    0  0.00000000000E+00  0.00000000000E+00  0.60090681837E+02  0.60090681837E+02  0.00000000000E+00 0. -1.
         -2   -1    0    0    0  501 -0.00000000000E+00 -0.00000000000E+00 -0.37630144242E+02  0.37630144242E+02  0.00000000000E+00 0.  1.
         23    2    1    2    0    0  0.00000000000E+00  0.00000000000E+00  0.22460537595E+02  0.97720826079E+02  0.95104595580E+02 0.  0.
        -11    1    3    3    0    0 -0.29531895535E+02  0.68005989211E+01 -0.26422573496E+02  0.40206136220E+02  0.00000000000E+00 0.  1.
         11    1    3    3    0    0  0.29531895535E+02 -0.68005989211E+01  0.48883111091E+02  0.57514689859E+02  0.00000000000E+00 0. -1.
<mgrwt>
<rscale>  0 0.95104596E+02</rscale>
<asrwt>0</asrwt>
<pdfrwt beam="1">  1        2 0.92447203E-02 0.95104596E+02</pdfrwt>
<pdfrwt beam="2">  1       -2 0.57892530E-02 0.95104596E+02</pdfrwt>
<totfact> 0.94158970E+04</totfact>
</mgrwt>
</event>
<event>
 5    1  0.6222456E+000  0.8949364E+02  0.7546771E-02  0.1304083E+00
         -4   -1    0    0    0  501 -0.00000000000E+00  0.00000000000E+00  0.11129078213E+03  0.11129078213E+03  0.00000000000E+00 0. -1.
          4   -1    0    0  501    0  0.00000000000E+00 -0.00000000000E+00 -0.17991407783E+02  0.17991407783E+02  0.00000000000E+00 0.  1.
         23    2    1    2    0    0  0.00000000000E+00  0.00000000000E+00  0.93299374344E+02  0.12928218991E+03  0.89493638739E+02 0.  0.
        -11    1    3    3    0    0 -0.17728464849E+02  0.26142616934E+02  0.86388893130E+00  0.31598752984E+02  0.00000000000E+00 0.  1.
         11    1    3    3    0    0  0.17728464849E+02 -0.26142616934E+02  0.92435485412E+02  0.97683436925E+02  0.00000000000E+00 0. -1.
<mgrwt>
<rscale>  0 0.89493639E+02</rscale>
<asrwt>0</asrwt>
<pdfrwt beam="2">  1        4 0.27679090E-02 0.89493639E+02</pdfrwt>
<pdfrwt beam="1">  1       -4 0.17121658E-01 0.89493639E+02</pdfrwt>
<totfact> 0.26029279E+04</totfact>
</mgrwt>
</event>
<event>
 5    1  0.6222456E+000  0.8917233E+02  0.7546771E-02  0.1304868E+00
          1   -1    0    0  501    0  0.00000000000E+00  0.00000000000E+00  0.92769024531E+02  0.92769024531E+02  0.00000000000E+00 0. -1.
         -1   -1    0    0    0  501 -0.00000000000E+00 -0.00000000000E+00 -0.21428771620E+02  0.21428771620E+02  0.00000000000E+00 0.  1.
         23    2    1    2    0    0  0.00000000000E+00  0.00000000000E+00  0.71340252911E+02  0.11419779615E+03  0.89172332931E+02 0.  0.
        -11    1    3    3    0    0  0.21430920071E+02 -0.36765699566E+02  0.18635897074E+02  0.46457482276E+02  0.00000000000E+00 0.  1.
         11    1    3    3    0    0 -0.21430920071E+02  0.36765699566E+02  0.52704355837E+02  0.67740313875E+02  0.00000000000E+00 0. -1.
<mgrwt>
<rscale>  0 0.89172333E+02</rscale>
<asrwt>0</asrwt>
<pdfrwt beam="1">  1        1 0.14272157E-01 0.89172333E+02</pdfrwt>
<pdfrwt beam="2">  1       -1 0.32967342E-02 0.89172333E+02</pdfrwt>
<totfact> 0.10961281E+05</totfact>
</mgrwt>
</event>
<event>
 5    1  0.6222456E+000  0.9101082E+02  0.7546771E-02  0.1300422E+00
          1   -1    0    0  501    0  0.00000000000E+00  0.00000000000E+00  0.21463104193E+02  0.21463104193E+02  0.00000000000E+00 0. -1.
         -1   -1    0    0    0  501 -0.00000000000E+00 -0.00000000000E+00 -0.96479167133E+02  0.96479167133E+02  0.00000000000E+00 0.  1.
         23    2    1    2    0    0  0.00000000000E+00  0.00000000000E+00 -0.75016062940E+02  0.11794227133E+03  0.91010821701E+02 0.  0.
        -11    1    3    3    0    0 -0.35056085971E+02  0.13812568109E+02 -0.44424861026E+01  0.37940109174E+02  0.00000000000E+00 0. -1.
         11    1    3    3    0    0  0.35056085971E+02 -0.13812568109E+02 -0.70573576838E+02  0.80002162152E+02  0.00000000000E+00 0.  1.
<mgrwt>
<rscale>  0 0.91010822E+02</rscale>
<asrwt>0</asrwt>
<pdfrwt beam="1">  1        1 0.33020160E-02 0.91010822E+02</pdfrwt>
<pdfrwt beam="2">  1       -1 0.14842949E-01 0.91010822E+02</pdfrwt>
<totfact> 0.82295528E+04</totfact>
</mgrwt>
</event>
<event>
 5    1  0.6222456E+000  0.8152033E+02  0.7546771E-02  0.1324792E+00
          2   -1    0    0  501    0  0.00000000000E+00  0.00000000000E+00  0.38542166661E+03  0.38542166661E+03  0.00000000000E+00 0. -1.
         -2   -1    0    0    0  501 -0.00000000000E+00 -0.00000000000E+00 -0.43105800586E+01  0.43105800586E+01  0.00000000000E+00 0.  1.
         23    2    1    2    0    0  0.00000000000E+00  0.00000000000E+00  0.38111108655E+03  0.38973224667E+03  0.81520327532E+02 0.  0.
        -11    1    3    3    0    0 -0.50471056949E+01  0.40445793789E+02  0.19168120649E+03  0.19596688606E+03  0.00000000000E+00 0.  1.
         11    1    3    3    0    0  0.50471056949E+01 -0.40445793789E+02  0.18942988006E+03  0.19376536061E+03  0.00000000000E+00 0. -1.
<mgrwt>
<rscale>  0 0.81520328E+02</rscale>
<asrwt>0</asrwt>
<pdfrwt beam="1">  1        2 0.59295614E-01 0.81520328E+02</pdfrwt>
<pdfrwt beam="2">  1       -2 0.66316647E-03 0.81520328E+02</pdfrwt>
<totfact> 0.26470485E+05</totfact>
</mgrwt>
</event>
<event>
 5    1  0.6222456E+000  0.7395023E+02  0.7546771E-02  0.1347153E+00
          1   -1    0    0  501    0  0.00000000000E+00  0.00000000000E+00  0.33851552699E+02  0.33851552699E+02  0.00000000000E+00 0. -1.
         -1   -1    0    0    0  501 -0.00000000000E+00 -0.00000000000E+00 -0.40386893205E+02  0.40386893205E+02  0.00000000000E+00 0.  1.
         23    2    1    2    0    0  0.00000000000E+00  0.00000000000E+00 -0.65353405058E+01  0.74238445904E+02  0.73950227685E+02 0.  0.
        -11    1    3    3    0    0  0.73451899492E+00 -0.16364249786E+02 -0.36545483424E+02  0.40048727169E+02  0.00000000000E+00 0.  1.
         11    1    3    3    0    0 -0.73451899492E+00  0.16364249786E+02  0.30010142918E+02  0.34189718735E+02  0.00000000000E+00 0. -1.
<mgrwt>
<rscale>  0 0.73950228E+02</rscale>
<asrwt>0</asrwt>
<pdfrwt beam="1">  1        1 0.52079312E-02 0.73950228E+02</pdfrwt>
<pdfrwt beam="2">  1       -1 0.62133682E-02 0.73950228E+02</pdfrwt>
<totfact> 0.15871237E+05</totfact>
</mgrwt>
</event>
<event>
 5    1  0.6222456E+000  0.8910588E+02  0.7546771E-02  0.1305031E+00
         -1   -1    0    0    0  501 -0.00000000000E+00  0.00000000000E+00  0.58131069076E+02  0.58131069076E+02  0.00000000000E+00 0.  1.
          1   -1    0    0  501    0  0.00000000000E+00 -0.00000000000E+00 -0.34146361219E+02  0.34146361219E+02  0.00000000000E+00 0. -1.
         23    2    1    2    0    0  0.00000000000E+00  0.00000000000E+00  0.23984707857E+02  0.92277430295E+02  0.89105880451E+02 0.  0.
        -11    1    3    3    0    0 -0.42819038712E+02 -0.11772038412E+02  0.15713797306E+02  0.47105991024E+02  0.00000000000E+00 0.  1.
         11    1    3    3    0    0  0.42819038712E+02  0.11772038412E+02  0.82709105512E+01  0.45171439272E+02  0.00000000000E+00 0. -1.
<mgrwt>
<rscale>  0 0.89105880E+02</rscale>
<asrwt>0</asrwt>
<pdfrwt beam="2">  1        1 0.52532863E-02 0.89105880E+02</pdfrwt>
<pdfrwt beam="1">  1       -1 0.89432414E-02 0.89105880E+02</pdfrwt>
<totfact> 0.94450722E+04</totfact>
</mgrwt>
</event>
<event>
 5    1  0.6222456E+000  0.9271524E+02  0.7546771E-02  0.1296406E+00
          1   -1    0    0  501    0  0.00000000000E+00  0.00000000000E+00  0.31116528755E+02  0.31116528755E+02  0.00000000000E+00 0. -1.
         -1   -1    0    0    0  501 -0.00000000000E+00 -0.00000000000E+00 -0.69063907946E+02  0.69063907946E+02  0.00000000000E+00 0.  1.
         23    2    1    2    0    0  0.00000000000E+00  0.00000000000E+00 -0.37947379191E+02  0.10018043670E+03  0.92715243138E+02 0.  0.
        -11    1    3    3    0    0 -0.25743219473E+02  0.25838772664E+02  0.11942585297E+02  0.38379432841E+02  0.00000000000E+00 0. -1.
         11    1    3    3    0    0  0.25743219473E+02 -0.25838772664E+02 -0.49889964488E+02  0.61801003861E+02  0.00000000000E+00 0.  1.
<mgrwt>
<rscale>  0 0.92715243E+02</rscale>
<asrwt>0</asrwt>
<pdfrwt beam="1">  1        1 0.47871583E-02 0.92715243E+02</pdfrwt>
<pdfrwt beam="2">  1       -1 0.10625216E-01 0.92715243E+02</pdfrwt>
<totfact> 0.83103527E+04</totfact>
</mgrwt>
</event>
<event>
 5    1  0.6222456E+000  0.8540301E+02  0.7546771E-02  0.1314382E+00
         -1   -1    0    0    0  501 -0.00000000000E+00  0.00000000000E+00  0.81778536642E+02  0.81778536642E+02  0.00000000000E+00 0.  1.
          1   -1    0    0  501    0  0.00000000000E+00 -0.00000000000E+00 -0.22297029855E+02  0.22297029855E+02  0.00000000000E+00 0. -1.
         23    2    1    2    0    0  0.00000000000E+00  0.00000000000E+00  0.59481506787E+02  0.10407556650E+03  0.85403008682E+02 0.  0.
        -11    1    3    3    0    0  0.31482433545E+02  0.41079552827E+01  0.64539279325E+02  0.71925916708E+02  0.00000000000E+00 0.  1.
         11    1    3    3    0    0 -0.31482433545E+02 -0.41079552827E+01 -0.50577725377E+01  0.32149649789E+02  0.00000000000E+00 0. -1.
<mgrwt>
<rscale>  0 0.85403009E+02</rscale>
<asrwt>0</asrwt>
<pdfrwt beam="2">  1        1 0.34303123E-02 0.85403009E+02</pdfrwt>
<pdfrwt beam="1">  1       -1 0.12581313E-01 0.85403009E+02</pdfrwt>
<totfact> 0.99693086E+04</totfact>
</mgrwt>
</event>
<event>
 5    1  0.6222456E+000  0.9129781E+02  0.7546771E-02  0.1299739E+00
         -2   -1    0    0    0  501 -0.00000000000E+00  0.00000000000E+00  0.14270275143E+02  0.14270275143E+02  0.00000000000E+00 0. -1.
          2   -1    0    0  501    0  0.00000000000E+00 -0.00000000000E+00 -0.14602538849E+03  0.14602538849E+03  0.00000000000E+00 0.  1.
         23    2    1    2    0    0  0.00000000000E+00  0.00000000000E+00 -0.13175511335E+03  0.16029566363E+03  0.91297808770E+02 0.  0.
        -11    1    3    3    0    0  0.88694605536E+01 -0.22157765835E+02 -0.13419811379E+03  0.13630395322E+03  0.00000000000E+00 0.  1.
         11    1    3    3    0    0 -0.88694605536E+01  0.22157765835E+02  0.24430004483E+01  0.23991710412E+02  0.00000000000E+00 0. -1.
<mgrwt>
<rscale>  0 0.91297809E+02</rscale>
<asrwt>0</asrwt>
<pdfrwt beam="2">  1        2 0.22465445E-01 0.91297809E+02</pdfrwt>
<pdfrwt beam="1">  1       -2 0.21954269E-02 0.91297809E+02</pdfrwt>
<totfact> 0.13804385E+05</totfact>
</mgrwt>
</event>
<event>
 5    1  0.6222456E+000  0.8466588E+02  0.7546771E-02  0.1316309E+00
          2   -1    0    0  501    0  0.00000000000E+00  0.00000000000E+00  0.15558633573E+02  0.15558633573E+02  0.00000000000E+00 0.  1.
         -2   -1    0    0    0  501 -0.00000000000E+00 -0.00000000000E+00 -0.11518221648E+03  0.11518221648E+03  0.00000000000E+00 0. -1.
         23    2    1    2    0    0  0.00000000000E+00  0.00000000000E+00 -0.99623582906E+02  0.13074085005E+03  0.84665882157E+02 0.  0.
        -11    1    3    3    0    0  0.39820519155E+02 -0.36966857747E+01 -0.71249940907E+02  0.81706139982E+02  0.00000000000E+00 0.  1.
         11    1    3    3    0    0 -0.39820519155E+02  0.36966857747E+01 -0.28373641999E+02  0.49034710071E+02  0.00000000000E+00 0. -1.
<mgrwt>
<rscale>  0 0.84665882E+02</rscale>
<asrwt>0</asrwt>
<pdfrwt beam="1">  1        2 0.23936359E-02 0.84665882E+02</pdfrwt>
<pdfrwt beam="2">  1       -2 0.17720341E-01 0.84665882E+02</pdfrwt>
<totfact> 0.91985504E+04</totfact>
</mgrwt>
</event>
<event>
 5    1  0.6222456E+000  0.8357324E+02  0.7546771E-02  0.1319206E+00
         -2   -1    0    0    0  501 -0.00000000000E+00  0.00000000000E+00  0.90855525775E+02  0.90855525775E+02  0.00000000000E+00 0.  1.
          2   -1    0    0  501    0  0.00000000000E+00 -0.00000000000E+00 -0.19218663382E+02  0.19218663382E+02  0.00000000000E+00 0. -1.
         23    2    1    2    0    0  0.00000000000E+00  0.00000000000E+00  0.71636862393E+02  0.11007418916E+03  0.83573243715E+02 0.  0.
        -11    1    3    3    0    0  0.23261214953E+02  0.23616371195E+02  0.23085720784E+01  0.33228701668E+02  0.00000000000E+00 0. -1.
         11    1    3    3    0    0 -0.23261214953E+02 -0.23616371195E+02  0.69328290314E+02  0.76845487489E+02  0.00000000000E+00 0.  1.
<mgrwt>
<rscale>  0 0.83573244E+02</rscale>
<asrwt>0</asrwt>
<pdfrwt beam="2">  1        2 0.29567175E-02 0.83573244E+02</pdfrwt>
<pdfrwt beam="1">  1       -2 0.13977773E-01 0.83573244E+02</pdfrwt>
<totfact> 0.10183272E+05</totfact>
</mgrwt>
</event>
<event>
 5    1  0.6222456E+000  0.9107770E+02  0.7546771E-02  0.1300263E+00
         -4   -1    0    0    0  501 -0.00000000000E+00  0.00000000000E+00  0.40297208217E+02  0.40297208217E+02  0.00000000000E+00 0.  1.
          4   -1    0    0  501    0  0.00000000000E+00 -0.00000000000E+00 -0.51462300103E+02  0.51462300103E+02  0.00000000000E+00 0. -1.
         23    2    1    2    0    0  0.00000000000E+00  0.00000000000E+00 -0.11165091885E+02  0.91759508320E+02  0.91077703585E+02 0.  0.
        -11    1    3    3    0    0 -0.31667846724E+02 -0.30091740458E+02  0.73753711424E+01  0.44303063771E+02  0.00000000000E+00 0.  1.
         11    1    3    3    0    0  0.31667846724E+02  0.30091740458E+02 -0.18540463028E+02  0.47456444549E+02  0.00000000000E+00 0. -1.
<mgrwt>
<rscale>  0 0.91077704E+02</rscale>
<asrwt>0</asrwt>
<pdfrwt beam="2">  1        4 0.79172769E-02 0.91077704E+02</pdfrwt>
<pdfrwt beam="1">  1       -4 0.61995705E-02 0.91077704E+02</pdfrwt>
<totfact> 0.27058993E+04</totfact>
</mgrwt>
</event>
<event>
 5    1  0.6222456E+000  0.9150504E+02  0.7546771E-02  0.1299247E+00
          2   -1    0    0  501    0  0.00000000000E+00  0.00000000000E+00  0.23833383838E+03  0.23833383838E+03  0.00000000000E+00 0. -1.
         -2   -1    0    0    0  501 -0.00000000000E+00 -0.00000000000E+00 -0.87830296020E+01  0.87830296020E+01  0.00000000000E+00 0.  1.
         23    2    1    2    0    0  0.00000000000E+00  0.00000000000E+00  0.22955080878E+03  0.24711686799E+03  0.91505041559E+02 0.  0.
        -11    1    3    3    0    0  0.22404216520E+02  0.34909048514E+02  0.62639301738E+02  0.75128374854E+02  0.00000000000E+00 0.  1.
         11    1    3    3    0    0 -0.22404216520E+02 -0.34909048514E+02  0.16691150704E+03  0.17198849313E+03  0.00000000000E+00 0. -1.
<mgrwt>
<rscale>  0 0.91505042E+02</rscale>
<asrwt>0</asrwt>
<pdfrwt beam="1">  1        2 0.36666739E-01 0.91505042E+02</pdfrwt>
<pdfrwt beam="2">  1       -2 0.13512355E-02 0.91505042E+02</pdfrwt>
<totfact> 0.16333993E+05</totfact>
</mgrwt>
</event>
<event>
 5    1  0.6222456E+000  0.9134680E+02  0.7546771E-02  0.1299623E+00
         -1   -1    0    0    0  501 -0.00000000000E+00  0.00000000000E+00  0.11173620824E+03  0.11173620824E+03  0.00000000000E+00 0.  1.
          1   -1    0    0  501    0  0.00000000000E+00 -0.00000000000E+00 -0.18669504294E+02  0.18669504294E+02  0.00000000000E+00 0. -1.
         23    2    1    2    0    0  0.00000000000E+00  0.00000000000E+00  0.93066703950E+02  0.13040571254E+03  0.91346803329E+02 0.  0.
        -11    1    3    3    0    0 -0.44452168260E+02 -0.48080912654E+01  0.33221772115E+02  0.55702775040E+02  0.00000000000E+00 0. -1.
         11    1    3    3    0    0  0.44452168260E+02  0.48080912654E+01  0.59844931835E+02  0.74702937499E+02  0.00000000000E+00 0.  1.
<mgrwt>
<rscale>  0 0.91346803E+02</rscale>
<asrwt>0</asrwt>
<pdfrwt beam="2">  1        1 0.28722315E-02 0.91346803E+02</pdfrwt>
<pdfrwt beam="1">  1       -1 0.17190185E-01 0.91346803E+02</pdfrwt>
<totfact> 0.79280096E+04</totfact>
</mgrwt>
</event>
<event>
 5    1  0.6222456E+000  0.9125471E+02  0.7546771E-02  0.1299841E+00
          2   -1    0    0  501    0  0.00000000000E+00  0.00000000000E+00  0.50197903669E+02  0.50197903669E+02  0.00000000000E+00 0. -1.
         -2   -1    0    0    0  501 -0.00000000000E+00 -0.00000000000E+00 -0.41472961074E+02  0.41472961074E+02  0.00000000000E+00 0.  1.
         23    2    1    2    0    0  0.00000000000E+00  0.00000000000E+00  0.87249425952E+01  0.91670864742E+02  0.91254713957E+02 0.  0.
        -11    1    3    3    0    0  0.10327011645E+02 -0.41247961803E+02  0.20985264020E+02  0.47417537140E+02  0.00000000000E+00 0. -1.
         11    1    3    3    0    0 -0.10327011645E+02  0.41247961803E+02 -0.12260321425E+02  0.44253327602E+02  0.00000000000E+00 0.  1.
<mgrwt>
<rscale>  0 0.91254714E+02</rscale>
<asrwt>0</asrwt>
<pdfrwt beam="1">  1        2 0.77227544E-02 0.91254714E+02</pdfrwt>
<pdfrwt beam="2">  1       -2 0.63804556E-02 0.91254714E+02</pdfrwt>
<totfact> 0.10093533E+05</totfact>
</mgrwt>
</event>
<event>
 5    1  0.6222456E+000  0.9961894E+02  0.7546771E-02  0.1281099E+00
         -1   -1    0    0    0  501 -0.00000000000E+00  0.00000000000E+00  0.58189700427E+02  0.58189700427E+02  0.00000000000E+00 0.  1.
          1   -1    0    0  501    0  0.00000000000E+00 -0.00000000000E+00 -0.42636128040E+02  0.42636128040E+02  0.00000000000E+00 0. -1.
         23    2    1    2    0    0  0.00000000000E+00  0.00000000000E+00  0.15553572387E+02  0.10082582847E+03  0.99618944344E+02 0.  0.
        -11    1    3    3    0    0  0.21356608132E+02 -0.10262279986E+01 -0.37755180903E+02  0.43389071664E+02  0.00000000000E+00 0. -1.
         11    1    3    3    0    0 -0.21356608132E+02  0.10262279986E+01  0.53308753290E+02  0.57436756804E+02  0.00000000000E+00 0.  1.
<mgrwt>
<rscale>  0 0.99618944E+02</rscale>
<asrwt>0</asrwt>
<pdfrwt beam="2">  1        1 0.65594043E-02 0.99618944E+02</pdfrwt>
<pdfrwt beam="1">  1       -1 0.89522616E-02 0.99618944E+02</pdfrwt>
<totfact> 0.71193480E+04</totfact>
</mgrwt>
</event>
<event>
 5    1  0.6222456E+000  0.8902681E+02  0.7546771E-02  0.1305226E+00
         -1   -1    0    0    0  501 -0.00000000000E+00  0.00000000000E+00  0.11205114649E+02  0.11205114649E+02  0.00000000000E+00 0.  1.
          1   -1    0    0  501    0  0.00000000000E+00 -0.00000000000E+00 -0.17683382411E+03  0.17683382411E+03  0.00000000000E+00 0. -1.
         23    2    1    2    0    0  0.00000000000E+00  0.00000000000E+00 -0.16562870946E+03  0.18803893876E+03  0.89026811085E+02 0.  0.
        -11    1    3    3    0    0  0.13134748700E+02 -0.28744068330E+02 -0.16602234783E+02  0.35698421356E+02  0.00000000000E+00 0.  1.
         11    1    3    3    0    0 -0.13134748700E+02  0.28744068330E+02 -0.14902647468E+03  0.15234051740E+03  0.00000000000E+00 0. -1.
<mgrwt>
<rscale>  0 0.89026811E+02</rscale>
<asrwt>0</asrwt>
<pdfrwt beam="2">  1        1 0.27205203E-01 0.89026811E+02</pdfrwt>
<pdfrwt beam="1">  1       -1 0.17238638E-02 0.89026811E+02</pdfrwt>
<totfact> 0.12327814E+05</totfact>
</mgrwt>
</event>
<event>
 5    1  0.6222456E+000  0.9804038E+02  0.7546771E-02  0.1284472E+00
          2   -1    0    0  501    0  0.00000000000E+00  0.00000000000E+00  0.15654203124E+03  0.15654203124E+03  0.00000000000E+00 0.  1.
         -2   -1    0    0    0  501 -0.00000000000E+00 -0.00000000000E+00 -0.15350375935E+02  0.15350375935E+02  0.00000000000E+00 0. -1.
         23    2    1    2    0    0  0.00000000000E+00  0.00000000000E+00  0.14119165531E+03  0.17189240718E+03  0.98040380032E+02 0.  0.
        -11    1    3    3    0    0  0.76019622786E+01  0.41419139610E+02  0.26601238421E+02  0.49809244544E+02  0.00000000000E+00 0. -1.
         11    1    3    3    0    0 -0.76019622786E+01 -0.41419139610E+02  0.11459041689E+03  0.12208316263E+03  0.00000000000E+00 0.  1.
<mgrwt>
<rscale>  0 0.98040380E+02</rscale>
<asrwt>0</asrwt>
<pdfrwt beam="1">  1        2 0.24083388E-01 0.98040380E+02</pdfrwt>
<pdfrwt beam="2">  1       -2 0.23615964E-02 0.98040380E+02</pdfrwt>
<totfact> 0.11640589E+05</totfact>
</mgrwt>
</event>
<event>
 5    1  0.6222456E+000  0.9041550E+02  0.7546771E-02  0.1301849E+00
         -1   -1    0    0    0  501 -0.00000000000E+00  0.00000000000E+00  0.16745867008E+03  0.16745867008E+03  0.00000000000E+00 0.  1.
          1   -1    0    0  501    0  0.00000000000E+00 -0.00000000000E+00 -0.12204448212E+02  0.12204448212E+02  0.00000000000E+00 0. -1.
         23    2    1    2    0    0  0.00000000000E+00  0.00000000000E+00  0.15525422187E+03  0.17966311830E+03  0.90415500148E+02 0.  0.
        -11    1    3    3    0    0  0.11294993099E+02  0.33196935127E+02  0.20929833860E+02  0.40837131588E+02  0.00000000000E+00 0. -1.
         11    1    3    3    0    0 -0.11294993099E+02 -0.33196935127E+02  0.13432438801E+03  0.13882598671E+03  0.00000000000E+00 0.  1.
<mgrwt>
<rscale>  0 0.90415500E+02</rscale>
<asrwt>0</asrwt>
<pdfrwt beam="2">  1        1 0.18776075E-02 0.90415500E+02</pdfrwt>
<pdfrwt beam="1">  1       -1 0.25762871E-01 0.90415500E+02</pdfrwt>
<totfact> 0.74418804E+04</totfact>
</mgrwt>
</event>
<event>
 5    1  0.6222456E+000  0.9531358E+02  0.7546771E-02  0.1290471E+00
          2   -1    0    0  501    0  0.00000000000E+00  0.00000000000E+00  0.10402485620E+03  0.10402485620E+03  0.00000000000E+00 0. -1.
         -2   -1    0    0    0  501 -0.00000000000E+00 -0.00000000000E+00 -0.21832953676E+02  0.21832953676E+02  0.00000000000E+00 0.  1.
         23    2    1    2    0    0  0.00000000000E+00  0.00000000000E+00  0.82191902522E+02  0.12585780987E+03  0.95313584899E+02 0.  0.
        -11    1    3    3    0    0 -0.27690636576E+02  0.38786274722E+02  0.41297967690E+02  0.63060832504E+02  0.00000000000E+00 0.  1.
         11    1    3    3    0    0  0.27690636576E+02 -0.38786274722E+02  0.40893934832E+02  0.62796977370E+02  0.00000000000E+00 0. -1.
<mgrwt>
<rscale>  0 0.95313585E+02</rscale>
<asrwt>0</asrwt>
<pdfrwt beam="1">  1        2 0.16003824E-01 0.95313585E+02</pdfrwt>
<pdfrwt beam="2">  1       -2 0.33589160E-02 0.95313585E+02</pdfrwt>
<totfact> 0.10985589E+05</totfact>
</mgrwt>
</event>
<event>
 5    1  0.6222456E+000  0.9229269E+02  0.7546771E-02  0.1297393E+00
         -1   -1    0    0    0  501 -0.00000000000E+00  0.00000000000E+00  0.88921555022E+01  0.88921555022E+01  0.00000000000E+00 0.  1.
          1   -1    0    0  501    0  0.00000000000E+00 -0.00000000000E+00 -0.23947906566E+03  0.23947906566E+03  0.00000000000E+00 0. -1.
         23    2    1    2    0    0  0.00000000000E+00  0.00000000000E+00 -0.23058691016E+03  0.24837122116E+03  0.92292688581E+02 0.  0.
        -11    1    3    3    0    0  0.35349900847E+01  0.39525621337E+02 -0.17867584553E+03  0.18302958415E+03  0.00000000000E+00 0. -1.
         11    1    3    3    0    0 -0.35349900847E+01 -0.39525621337E+02 -0.51911064625E+02  0.65341637013E+02  0.00000000000E+00 0.  1.
<mgrwt>
<rscale>  0 0.92292689E+02</rscale>
<asrwt>0</asrwt>
<pdfrwt beam="2">  1        1 0.36842940E-01 0.92292689E+02</pdfrwt>
<pdfrwt beam="1">  1       -1 0.13680237E-02 0.92292689E+02</pdfrwt>
<totfact> 0.11870880E+05</totfact>
</mgrwt>
</event>
<event>
 5    1  0.6222456E+000  0.9315110E+02  0.7546771E-02  0.1295395E+00
          2   -1    0    0  501    0  0.00000000000E+00  0.00000000000E+00  0.19736023364E+03  0.19736023364E+03  0.00000000000E+00 0. -1.
         -2   -1    0    0    0  501 -0.00000000000E+00 -0.00000000000E+00 -0.10991485027E+02  0.10991485027E+02  0.00000000000E+00 0.  1.
         23    2    1    2    0    0  0.00000000000E+00  0.00000000000E+00  0.18636874861E+03  0.20835171867E+03  0.93151104189E+02 0.  0.
        -11    1    3    3    0    0  0.66049703076E+01  0.37629637025E+02  0.15276929088E+03  0.15747403421E+03  0.00000000000E+00 0. -1.
         11    1    3    3    0    0 -0.66049703076E+01 -0.37629637025E+02  0.33599457736E+02  0.50877684455E+02  0.00000000000E+00 0.  1.
<mgrwt>
<rscale>  0 0.93151104E+02</rscale>
<asrwt>0</asrwt>
<pdfrwt beam="1">  1        2 0.30363110E-01 0.93151104E+02</pdfrwt>
<pdfrwt beam="2">  1       -2 0.16909978E-02 0.93151104E+02</pdfrwt>
<totfact> 0.14529170E+05</totfact>
</mgrwt>
</event>
<event>
 5    1  0.6222456E+000  0.9148431E+02  0.7546771E-02  0.1299297E+00
         -4   -1    0    0    0  501 -0.00000000000E+00  0.00000000000E+00  0.75579247049E+02  0.75579247049E+02  0.00000000000E+00 0.  1.
          4   -1    0    0  501    0  0.00000000000E+00 -0.00000000000E+00 -0.27684117554E+02  0.27684117554E+02  0.00000000000E+00 0. -1.
         23    2    1    2    0    0  0.00000000000E+00  0.00000000000E+00  0.47895129495E+02  0.10326336460E+03  0.91484310349E+02 0.  0.
        -11    1    3    3    0    0  0.95709998963E+01  0.43117292933E+02  0.10513969435E+02  0.45400975124E+02  0.00000000000E+00 0.  1.
         11    1    3    3    0    0 -0.95709998963E+01 -0.43117292933E+02  0.37381160060E+02  0.57862389480E+02  0.00000000000E+00 0. -1.
<mgrwt>
<rscale>  0 0.91484310E+02</rscale>
<asrwt>0</asrwt>
<pdfrwt beam="2">  1        4 0.42590950E-02 0.91484310E+02</pdfrwt>
<pdfrwt beam="1">  1       -4 0.11627576E-01 0.91484310E+02</pdfrwt>
<totfact> 0.26018958E+04</totfact>
</mgrwt>
</event>
<event>
 5    1  0.6222456E+000  0.8980844E+02  0.7546771E-02  0.1303316E+00
          1   -1    0    0  501    0  0.00000000000E+00  0.00000000000E+00  0.30457829072E+02  0.30457829072E+02  0.00000000000E+00 0. -1.
         -1   -1    0    0    0  501 -0.00000000000E+00 -0.00000000000E+00 -0.66202651163E+02  0.66202651163E+02  0.00000000000E+00 0.  1.
         23    2    1    2    0    0  0.00000000000E+00  0.00000000000E+00 -0.35744822091E+02  0.96660480236E+02  0.89808441324E+02 0.  0.
        -11    1    3    3    0    0 -0.30343442435E+02 -0.30572461173E+02 -0.31528618207E+02  0.53380273950E+02  0.00000000000E+00 0.  1.
         11    1    3    3    0    0  0.30343442435E+02  0.30572461173E+02 -0.42162038838E+01  0.43280206286E+02  0.00000000000E+00 0. -1.
<mgrwt>
<rscale>  0 0.89808441E+02</rscale>
<asrwt>0</asrwt>
<pdfrwt beam="1">  1        1 0.46858199E-02 0.89808441E+02</pdfrwt>
<pdfrwt beam="2">  1       -1 0.10185023E-01 0.89808441E+02</pdfrwt>
<totfact> 0.90739424E+04</totfact>
</mgrwt>
</event>
<event>
 5    1  0.6222456E+000  0.9332789E+02  0.7546771E-02  0.1294987E+00
          4   -1    0    0  501    0  0.00000000000E+00  0.00000000000E+00  0.77613422833E+02  0.77613422833E+02  0.00000000000E+00 0. -1.
         -4   -1    0    0    0  501 -0.00000000000E+00 -0.00000000000E+00 -0.28056017816E+02  0.28056017816E+02  0.00000000000E+00 0.  1.
         23    2    1    2    0    0  0.00000000000E+00  0.00000000000E+00  0.49557405017E+02  0.10566944065E+03  0.93327885945E+02 0.  0.
        -11    1    3    3    0    0 -0.14121860723E+02  0.42990757906E+02  0.37682814071E+02  0.58886557821E+02  0.00000000000E+00 0.  1.
         11    1    3    3    0    0  0.14121860723E+02 -0.42990757906E+02  0.11874590946E+02  0.46782882828E+02  0.00000000000E+00 0. -1.
<mgrwt>
<rscale>  0 0.93327886E+02</rscale>
<asrwt>0</asrwt>
<pdfrwt beam="1">  1        4 0.11940526E-01 0.93327886E+02</pdfrwt>
<pdfrwt beam="2">  1       -4 0.43163105E-02 0.93327886E+02</pdfrwt>
<totfact> 0.24508785E+04</totfact>
</mgrwt>
</event>
<event>
 5    1  0.6222456E+000  0.8981606E+02  0.7546771E-02  0.1303298E+00
         -3   -1    0    0    0  501 -0.00000000000E+00  0.00000000000E+00  0.81574202274E+02  0.81574202274E+02  0.00000000000E+00 0.  1.
          3   -1    0    0  501    0  0.00000000000E+00 -0.00000000000E+00 -0.24722656520E+02  0.24722656520E+02  0.00000000000E+00 0. -1.
         23    2    1    2    0    0  0.00000000000E+00  0.00000000000E+00  0.56851545754E+02  0.10629685879E+03  0.89816056108E+02 0.  0.
        -11    1    3    3    0    0  0.32500070876E+02  0.30988856708E+02  0.28909613426E+02  0.53407205464E+02  0.00000000000E+00 0.  1.
         11    1    3    3    0    0 -0.32500070876E+02 -0.30988856708E+02  0.27941932328E+02  0.52889653329E+02  0.00000000000E+00 0. -1.
<mgrwt>
<rscale>  0 0.89816056E+02</rscale>
<asrwt>0</asrwt>
<pdfrwt beam="2">  1        3 0.38034857E-02 0.89816056E+02</pdfrwt>
<pdfrwt beam="1">  1       -3 0.12549877E-01 0.89816056E+02</pdfrwt>
<totfact> 0.35636837E+04</totfact>
</mgrwt>
</event>
<event>
 5    1  0.6222456E+000  0.8733752E+02  0.7546771E-02  0.1309430E+00
         -2   -1    0    0    0  501 -0.00000000000E+00  0.00000000000E+00  0.22902945172E+03  0.22902945172E+03  0.00000000000E+00 0.  1.
          2   -1    0    0  501    0  0.00000000000E+00 -0.00000000000E+00 -0.83262679015E+01  0.83262679015E+01  0.00000000000E+00 0. -1.
         23    2    1    2    0    0  0.00000000000E+00  0.00000000000E+00  0.22070318382E+03  0.23735571962E+03  0.87337519369E+02 0.  0.
        -11    1    3    3    0    0 -0.34841836477E+02 -0.23501137529E+02  0.78114833983E+02  0.88702786441E+02  0.00000000000E+00 0. -1.
         11    1    3    3    0    0  0.34841836477E+02  0.23501137529E+02  0.14258834984E+03  0.14865293318E+03  0.00000000000E+00 0.  1.
<mgrwt>
<rscale>  0 0.87337519E+02</rscale>
<asrwt>0</asrwt>
<pdfrwt beam="2">  1        2 0.12809645E-02 0.87337519E+02</pdfrwt>
<pdfrwt beam="1">  1       -2 0.35235296E-01 0.87337519E+02</pdfrwt>
<totfact> 0.65435407E+04</totfact>
</mgrwt>
</event>
<event>
 5    1  0.6222456E+000  0.9174399E+02  0.7546771E-02  0.1298683E+00
         -3   -1    0    0    0  501 -0.00000000000E+00  0.00000000000E+00  0.13084938869E+02  0.13084938869E+02  0.00000000000E+00 0.  1.
          3   -1    0    0  501    0  0.00000000000E+00 -0.00000000000E+00 -0.16081387400E+03  0.16081387400E+03  0.00000000000E+00 0. -1.
         23    2    1    2    0    0  0.00000000000E+00  0.00000000000E+00 -0.14772893513E+03  0.17389881287E+03  0.91743985320E+02 0.  0.
        -11    1    3    3    0    0 -0.44791163736E+02 -0.98898298722E+01 -0.74674498059E+02  0.87637536159E+02  0.00000000000E+00 0. -1.
         11    1    3    3    0    0  0.44791163736E+02  0.98898298722E+01 -0.73054437070E+02  0.86261276708E+02  0.00000000000E+00 0.  1.
<mgrwt>
<rscale>  0 0.91743985E+02</rscale>
<asrwt>0</asrwt>
<pdfrwt beam="2">  1        3 0.24740596E-01 0.91743985E+02</pdfrwt>
<pdfrwt beam="1">  1       -3 0.20130676E-02 0.91743985E+02</pdfrwt>
<totfact> 0.29407853E+04</totfact>
</mgrwt>
</event>
<event>
 5    1  0.6222456E+000  0.9856339E+02  0.7546771E-02  0.1283346E+00
          4   -1    0    0  501    0  0.00000000000E+00  0.00000000000E+00  0.26544481607E+02  0.26544481607E+02  0.00000000000E+00 0. -1.
         -4   -1    0    0    0  501 -0.00000000000E+00 -0.00000000000E+00 -0.91494926310E+02  0.91494926310E+02  0.00000000000E+00 0.  1.
         23    2    1    2    0    0  0.00000000000E+00  0.00000000000E+00 -0.64950444703E+02  0.11803940792E+03  0.98563388509E+02 0.  0.
        -11    1    3    3    0    0  0.10410438388E+02 -0.44574569881E+02 -0.54342994385E+02  0.71052308521E+02  0.00000000000E+00 0.  1.
         11    1    3    3    0    0 -0.10410438388E+02  0.44574569881E+02 -0.10607450318E+02  0.46987099397E+02  0.00000000000E+00 0. -1.
<mgrwt>
<rscale>  0 0.98563389E+02</rscale>
<asrwt>0</asrwt>
<pdfrwt beam="1">  1        4 0.40837663E-02 0.98563389E+02</pdfrwt>
<pdfrwt beam="2">  1       -4 0.14076143E-01 0.98563389E+02</pdfrwt>
<totfact> 0.20536255E+04</totfact>
</mgrwt>
</event>
<event>
 5    1  0.6222456E+000  0.9088998E+02  0.7546771E-02  0.1300711E+00
         -1   -1    0    0    0  501 -0.00000000000E+00  0.00000000000E+00  0.21598853624E+02  0.21598853624E+02  0.00000000000E+00 0.  1.
          1   -1    0    0  501    0  0.00000000000E+00 -0.00000000000E+00 -0.95618365818E+02  0.95618365818E+02  0.00000000000E+00 0. -1.
         23    2    1    2    0    0  0.00000000000E+00  0.00000000000E+00 -0.74019512194E+02  0.11721721944E+03  0.90889979361E+02 0.  0.
        -11    1    3    3    0    0  0.31550566675E+01  0.45306422532E+02 -0.34921946699E+02  0.57290214404E+02  0.00000000000E+00 0.  1.
         11    1    3    3    0    0 -0.31550566675E+01 -0.45306422532E+02 -0.39097565495E+02  0.59927005038E+02  0.00000000000E+00 0. -1.
<mgrwt>
<rscale>  0 0.90889979E+02</rscale>
<asrwt>0</asrwt>
<pdfrwt beam="2">  1        1 0.14710518E-01 0.90889979E+02</pdfrwt>
<pdfrwt beam="1">  1       -1 0.33229006E-02 0.90889979E+02</pdfrwt>
<totfact> 0.10457616E+05</totfact>
</mgrwt>
</event>
<event>
 5    1  0.6222456E+000  0.8626538E+02  0.7546771E-02  0.1312156E+00
         -3   -1    0    0    0  501 -0.00000000000E+00  0.00000000000E+00  0.81030419343E+02  0.81030419343E+02  0.00000000000E+00 0.  1.
          3   -1    0    0  501    0  0.00000000000E+00 -0.00000000000E+00 -0.22959637656E+02  0.22959637656E+02  0.00000000000E+00 0. -1.
         23    2    1    2    0    0  0.00000000000E+00  0.00000000000E+00  0.58070781687E+02  0.10399005700E+03  0.86265382796E+02 0.  0.
        -11    1    3    3    0    0  0.71793429559E+01  0.38659213484E+02  0.76625179487E+01  0.40059854391E+02  0.00000000000E+00 0. -1.
         11    1    3    3    0    0 -0.71793429559E+01 -0.38659213484E+02  0.50408263738E+02  0.63930202608E+02  0.00000000000E+00 0.  1.
<mgrwt>
<rscale>  0 0.86265383E+02</rscale>
<asrwt>0</asrwt>
<pdfrwt beam="2">  1        3 0.35322520E-02 0.86265383E+02</pdfrwt>
<pdfrwt beam="1">  1       -3 0.12466218E-01 0.86265383E+02</pdfrwt>
<totfact> 0.39940172E+04</totfact>
</mgrwt>
</event>
<event>
 4    1  0.6222456E+000  0.4461300E+02  0.7546771E-02  0.1476772E+00
         -2   -1    0    0    0  501 -0.00000000000E+00  0.00000000000E+00  0.82012787216E+02  0.82012787216E+02  0.00000000000E+00 0.  1.
          2   -1    0    0  501    0  0.00000000000E+00 -0.00000000000E+00 -0.60671021703E+01  0.60671021703E+01  0.00000000000E+00 0. -1.
        -11    1    1    2    0    0  0.65189713729E+01 -0.18063144622E+02  0.15565879512E+02  0.24719846002E+02  0.00000000000E+00 0. -1.
         11    1    1    2    0    0 -0.65189713729E+01  0.18063144622E+02  0.60379805533E+02  0.63360043384E+02  0.00000000000E+00 0.  1.
<mgrwt>
<rscale>  0 0.44613001E+02</rscale>
<asrwt>0</asrwt>
<pdfrwt beam="2">  1        2 0.93340039E-03 0.44613001E+02</pdfrwt>
<pdfrwt beam="1">  1       -2 0.12617351E-01 0.44613001E+02</pdfrwt>
<totfact> 0.48760579E+05</totfact>
</mgrwt>
</event>
<event>
 5    1  0.6222456E+000  0.9294449E+02  0.7546771E-02  0.1295874E+00
         -2   -1    0    0    0  501 -0.00000000000E+00  0.00000000000E+00  0.50568089743E+02  0.50568089743E+02  0.00000000000E+00 0.  1.
          2   -1    0    0  501    0  0.00000000000E+00 -0.00000000000E+00 -0.42708151351E+02  0.42708151351E+02  0.00000000000E+00 0. -1.
         23    2    1    2    0    0  0.00000000000E+00  0.00000000000E+00  0.78599383919E+01  0.93276241093E+02  0.92944491612E+02 0.  0.
        -11    1    3    3    0    0 -0.97472188297E+01 -0.33253894477E+02 -0.27145694969E+02  0.44019524397E+02  0.00000000000E+00 0. -1.
         11    1    3    3    0    0  0.97472188297E+01  0.33253894477E+02  0.35005633361E+02  0.49256716697E+02  0.00000000000E+00 0.  1.
<mgrwt>
<rscale>  0 0.92944492E+02</rscale>
<asrwt>0</asrwt>
<pdfrwt beam="2">  1        2 0.65704848E-02 0.92944492E+02</pdfrwt>
<pdfrwt beam="1">  1       -2 0.77797061E-02 0.92944492E+02</pdfrwt>
<totfact> 0.91779933E+04</totfact>
</mgrwt>
</event>
<event>
 5    1  0.6222456E+000  0.9051774E+02  0.7546771E-02  0.1301603E+00
         -1   -1    0    0    0  501 -0.00000000000E+00  0.00000000000E+00  0.11793544949E+03  0.11793544949E+03  0.00000000000E+00 0.  1.
          1   -1    0    0  501    0  0.00000000000E+00 -0.00000000000E+00 -0.17368528248E+02  0.17368528248E+02  0.00000000000E+00 0. -1.
         23    2    1    2    0    0  0.00000000000E+00  0.00000000000E+00  0.10056692124E+03  0.13530397774E+03  0.90517737179E+02 0.  0.
        -11    1    3    3    0    0 -0.23021758603E+02  0.30748093373E+02  0.14504862035E+02  0.41058953201E+02  0.00000000000E+00 0. -1.
         11    1    3    3    0    0  0.23021758603E+02 -0.30748093373E+02  0.86062059210E+02  0.94245024541E+02  0.00000000000E+00 0.  1.
<mgrwt>
<rscale>  0 0.90517737E+02</rscale>
<asrwt>0</asrwt>
<pdfrwt beam="2">  1        1 0.26720813E-02 0.90517737E+02</pdfrwt>
<pdfrwt beam="1">  1       -1 0.18143915E-01 0.90517737E+02</pdfrwt>
<totfact> 0.80298979E+04</totfact>
</mgrwt>
</event>
<event>
 5    1  0.6222456E+000  0.9325343E+02  0.7546771E-02  0.1295159E+00
         -1   -1    0    0    0  501 -0.00000000000E+00  0.00000000000E+00  0.14314267685E+02  0.14314267685E+02  0.00000000000E+00 0.  1.
          1   -1    0    0  501    0  0.00000000000E+00 -0.00000000000E+00 -0.15187995504E+03  0.15187995504E+03  0.00000000000E+00 0. -1.
         23    2    1    2    0    0  0.00000000000E+00  0.00000000000E+00 -0.13756568735E+03  0.16619422272E+03  0.93253425298E+02 0.  0.
        -11    1    3    3    0    0  0.24435724397E+02  0.22918739484E+02 -0.10987568530E+02  0.35257621992E+02  0.00000000000E+00 0.  1.
         11    1    3    3    0    0 -0.24435724397E+02 -0.22918739484E+02 -0.12657811882E+03  0.13093660073E+03  0.00000000000E+00 0. -1.
<mgrwt>
<rscale>  0 0.93253425E+02</rscale>
<asrwt>0</asrwt>
<pdfrwt beam="2">  1        1 0.23366147E-01 0.93253425E+02</pdfrwt>
<pdfrwt beam="1">  1       -1 0.22021951E-02 0.93253425E+02</pdfrwt>
<totfact> 0.10575333E+05</totfact>
</mgrwt>
</event>
<event>
 5    1  0.6222456E+000  0.9044564E+02  0.7546771E-02  0.1301776E+00
         -2   -1    0    0    0  501 -0.00000000000E+00  0.00000000000E+00  0.38387926438E+02  0.38387926438E+02  0.00000000000E+00 0.  1.
          2   -1    0    0  501    0  0.00000000000E+00 -0.00000000000E+00 -0.53274658148E+02  0.53274658148E+02  0.00000000000E+00 0. -1.
         23    2    1    2    0    0  0.00000000000E+00  0.00000000000E+00 -0.14886731711E+02  0.91662584586E+02  0.90445644627E+02 0.  0.
        -11    1    3    3    0    0  0.63551324993E+01 -0.41439308633E+02 -0.24627319786E+02  0.48622102884E+02  0.00000000000E+00 0. -1.
         11    1    3    3    0    0 -0.63551324993E+01  0.41439308633E+02  0.97405880758E+01  0.43040481701E+02  0.00000000000E+00 0.  1.
<mgrwt>
<rscale>  0 0.90445645E+02</rscale>
<asrwt>0</asrwt>
<pdfrwt beam="2">  1        2 0.81961012E-02 0.90445645E+02</pdfrwt>
<pdfrwt beam="1">  1       -2 0.59058348E-02 0.90445645E+02</pdfrwt>
<totfact> 0.10514738E+05</totfact>
</mgrwt>
</event>
<event>
 5    1  0.6222456E+000  0.9179255E+02  0.7546771E-02  0.1298568E+00
          1   -1    0    0  501    0  0.00000000000E+00  0.00000000000E+00  0.73240476526E+02  0.73240476526E+02  0.00000000000E+00 0. -1.
         -1   -1    0    0    0  501 -0.00000000000E+00 -0.00000000000E+00 -0.28760984423E+02  0.28760984423E+02  0.00000000000E+00 0.  1.
         23    2    1    2    0    0  0.00000000000E+00  0.00000000000E+00  0.44479492103E+02  0.10200146095E+03  0.91792553173E+02 0.  0.
        -11    1    3    3    0    0  0.29813653700E+02 -0.10706649050E+02  0.59144570168E+02  0.67093714022E+02  0.00000000000E+00 0. -1.
         11    1    3    3    0    0 -0.29813653700E+02  0.10706649050E+02 -0.14665078065E+02  0.34907746927E+02  0.00000000000E+00 0.  1.
<mgrwt>
<rscale>  0 0.91792553E+02</rscale>
<asrwt>0</asrwt>
<pdfrwt beam="1">  1        1 0.11267766E-01 0.91792553E+02</pdfrwt>
<pdfrwt beam="2">  1       -1 0.44247669E-02 0.91792553E+02</pdfrwt>
<totfact> 0.97534063E+04</totfact>
</mgrwt>
</event>
<event>
 5    1  0.6222456E+000  0.9293704E+02  0.7546771E-02  0.1295891E+00
          4   -1    0    0  501    0  0.00000000000E+00  0.00000000000E+00  0.72808797415E+02  0.72808797415E+02  0.00000000000E+00 0. -1.
         -4   -1    0    0    0  501 -0.00000000000E+00 -0.00000000000E+00 -0.29657452022E+02  0.29657452022E+02  0.00000000000E+00 0.  1.
         23    2    1    2    0    0  0.00000000000E+00  0.00000000000E+00  0.43151345393E+02  0.10246624944E+03  0.92937041402E+02 0.  0.
        -11    1    3    3    0    0 -0.41447577978E+02  0.10687788911E+02  0.16325156632E+01  0.42834514815E+02  0.00000000000E+00 0.  1.
         11    1    3    3    0    0  0.41447577978E+02 -0.10687788911E+02  0.41518829730E+02  0.59631734623E+02  0.00000000000E+00 0. -1.
<mgrwt>
<rscale>  0 0.92937041E+02</rscale>
<asrwt>0</asrwt>
<pdfrwt beam="1">  1        4 0.11201353E-01 0.92937041E+02</pdfrwt>
<pdfrwt beam="2">  1       -4 0.45626849E-02 0.92937041E+02</pdfrwt>
<totfact> 0.24974113E+04</totfact>
</mgrwt>
</event>
<event>
 5    1  0.6222456E+000  0.9216505E+02  0.7546771E-02  0.1297692E+00
         -3   -1    0    0    0  501 -0.00000000000E+00  0.00000000000E+00  0.11406819895E+02  0.11406819895E+02  0.00000000000E+00 0.  1.
          3   -1    0    0  501    0  0.00000000000E+00 -0.00000000000E+00 -0.18616925943E+03  0.18616925943E+03  0.00000000000E+00 0. -1.
         23    2    1    2    0    0  0.00000000000E+00  0.00000000000E+00 -0.17476243953E+03  0.19757607932E+03  0.92165052213E+02 0.  0.
        -11    1    3    3    0    0  0.43736343478E+02 -0.14252406224E+02 -0.93291199368E+02  0.10401560798E+03  0.00000000000E+00 0. -1.
         11    1    3    3    0    0 -0.43736343478E+02  0.14252406224E+02 -0.81471240165E+02  0.93560471344E+02  0.00000000000E+00 0.  1.
<mgrwt>
<rscale>  0 0.92165052E+02</rscale>
<asrwt>0</asrwt>
<pdfrwt beam="2">  1        3 0.28641423E-01 0.92165052E+02</pdfrwt>
<pdfrwt beam="1">  1       -3 0.17548955E-02 0.92165052E+02</pdfrwt>
<totfact> 0.27802015E+04</totfact>
</mgrwt>
</event>
<event>
 4    1  0.6222456E+000  0.1379874E+03  0.7546771E-02  0.1216063E+00
          1   -1    0    0  501    0  0.00000000000E+00  0.00000000000E+00  0.46424722672E+03  0.46424722672E+03  0.00000000000E+00 0. -1.
         -1   -1    0    0    0  501 -0.00000000000E+00 -0.00000000000E+00 -0.10253444002E+02  0.10253444002E+02  0.00000000000E+00 0.  1.
        -11    1    1    2    0    0  0.67700169446E+02 -0.13278751730E+02  0.22941564097E+03  0.23956455187E+03  0.00000000000E+00 0.  1.
         11    1    1    2    0    0 -0.67700169446E+02  0.13278751730E+02  0.22457814174E+03  0.23493611885E+03  0.00000000000E+00 0. -1.
<mgrwt>
<rscale>  0 0.13798743E+03</rscale>
<asrwt>0</asrwt>
<pdfrwt beam="1">  1        1 0.71422634E-01 0.13798743E+03</pdfrwt>
<pdfrwt beam="2">  1       -1 0.15774533E-02 0.13798743E+03</pdfrwt>
<totfact> 0.44932780E+04</totfact>
</mgrwt>
</event>
<event>
 5    1  0.6222456E+000  0.7014873E+02  0.7546771E-02  0.1359588E+00
          2   -1    0    0  501    0  0.00000000000E+00  0.00000000000E+00  0.13633143868E+03  0.13633143868E+03  0.00000000000E+00 0. -1.
         -2   -1    0    0    0  501 -0.00000000000E+00 -0.00000000000E+00 -0.90236781927E+01  0.90236781927E+01  0.00000000000E+00 0.  1.
         23    2    1    2    0    0  0.00000000000E+00  0.00000000000E+00  0.12730776049E+03  0.14535511687E+03  0.70148728576E+02 0.  0.
        -11    1    3    3    0    0  0.16860317437E+02 -0.24319464555E+02  0.24639805006E+02  0.38507488247E+02  0.00000000000E+00 0.  1.
         11    1    3    3    0    0 -0.16860317437E+02  0.24319464555E+02  0.10266795548E+03  0.10684762863E+03  0.00000000000E+00 0. -1.
<mgrwt>
<rscale>  0 0.70148729E+02</rscale>
<asrwt>0</asrwt>
<pdfrwt beam="1">  1        2 0.20974066E-01 0.70148729E+02</pdfrwt>
<pdfrwt beam="2">  1       -2 0.13882583E-02 0.70148729E+02</pdfrwt>
<totfact> 0.27298867E+05</totfact>
</mgrwt>
</event>
<event>
 5    1  0.6222456E+000  0.8723411E+02  0.7546771E-02  0.1309691E+00
         -1   -1    0    0    0  501 -0.00000000000E+00  0.00000000000E+00  0.45848290666E+03  0.45848290666E+03  0.00000000000E+00 0.  1.
          1   -1    0    0  501    0  0.00000000000E+00 -0.00000000000E+00 -0.41494406900E+01  0.41494406900E+01  0.00000000000E+00 0. -1.
         23    2    1    2    0    0  0.00000000000E+00  0.00000000000E+00  0.45433346597E+03  0.46263234735E+03  0.87234113249E+02 0.  0.
        -11    1    3    3    0    0  0.16371314562E+02  0.40424418006E+02  0.22429059539E+03  0.22849162937E+03  0.00000000000E+00 0. -1.
         11    1    3    3    0    0 -0.16371314562E+02 -0.40424418006E+02  0.23004287059E+03  0.23414071799E+03  0.00000000000E+00 0.  1.
<mgrwt>
<rscale>  0 0.87234113E+02</rscale>
<asrwt>0</asrwt>
<pdfrwt beam="2">  1        1 0.63837585E-03 0.87234113E+02</pdfrwt>
<pdfrwt beam="1">  1       -1 0.70535792E-01 0.87234113E+02</pdfrwt>
<totfact> 0.55597548E+04</totfact>
</mgrwt>
</event>
<event>
 5    1  0.6222456E+000  0.9140713E+02  0.7546771E-02  0.1299479E+00
          1   -1    0    0  501    0  0.00000000000E+00  0.00000000000E+00  0.37016961398E+02  0.37016961398E+02  0.00000000000E+00 0. -1.
         -1   -1    0    0    0  501 -0.00000000000E+00 -0.00000000000E+00 -0.56428608740E+02  0.56428608740E+02  0.00000000000E+00 0.  1.
         23    2    1    2    0    0  0.00000000000E+00  0.00000000000E+00 -0.19411647342E+02  0.93445570138E+02  0.91407125138E+02 0.  0.
        -11    1    3    3    0    0  0.35360020590E+02  0.28186827106E+02 -0.29256224532E+01  0.45314319427E+02  0.00000000000E+00 0. -1.
         11    1    3    3    0    0 -0.35360020590E+02 -0.28186827106E+02 -0.16486024889E+02  0.48131250711E+02  0.00000000000E+00 0.  1.
<mgrwt>
<rscale>  0 0.91407125E+02</rscale>
<asrwt>0</asrwt>
<pdfrwt beam="1">  1        1 0.56949172E-02 0.91407125E+02</pdfrwt>
<pdfrwt beam="2">  1       -1 0.86813244E-02 0.91407125E+02</pdfrwt>
<totfact> 0.88956838E+04</totfact>
</mgrwt>
</event>
<event>
 5    1  0.6222456E+000  0.9169741E+02  0.7546771E-02  0.1298792E+00
          2   -1    0    0  501    0  0.00000000000E+00  0.00000000000E+00  0.47745048633E+02  0.47745048633E+02  0.00000000000E+00 0.  1.
         -2   -1    0    0    0  501 -0.00000000000E+00 -0.00000000000E+00 -0.44027684027E+02  0.44027684027E+02  0.00000000000E+00 0. -1.
         23    2    1    2    0    0  0.00000000000E+00  0.00000000000E+00  0.37173646058E+01  0.91772732660E+02  0.91697413597E+02 0.  0.
        -11    1    3    3    0    0  0.42952844525E+02  0.87389856167E+01 -0.11598074631E+02  0.45341284251E+02  0.00000000000E+00 0. -1.
         11    1    3    3    0    0 -0.42952844525E+02 -0.87389856167E+01  0.15315439236E+02  0.46431448409E+02  0.00000000000E+00 0.  1.
<mgrwt>
<rscale>  0 0.91697414E+02</rscale>
<asrwt>0</asrwt>
<pdfrwt beam="1">  1        2 0.73453920E-02 0.91697414E+02</pdfrwt>
<pdfrwt beam="2">  1       -2 0.67734899E-02 0.91697414E+02</pdfrwt>
<totfact> 0.98251488E+04</totfact>
</mgrwt>
</event>
<event>
 5    1  0.6222456E+000  0.9508388E+02  0.7546771E-02  0.1290987E+00
         -2   -1    0    0    0  501 -0.00000000000E+00  0.00000000000E+00  0.85558330147E+01  0.85558330147E+01  0.00000000000E+00 0.  1.
          2   -1    0    0  501    0  0.00000000000E+00 -0.00000000000E+00 -0.26417489183E+03  0.26417489183E+03  0.00000000000E+00 0. -1.
         23    2    1    2    0    0  0.00000000000E+00  0.00000000000E+00 -0.25561905882E+03  0.27273072485E+03  0.95083884254E+02 0.  0.
        -11    1    3    3    0    0 -0.43409969466E+02  0.29171285984E+00 -0.72211088631E+02  0.84255277976E+02  0.00000000000E+00 0.  1.
         11    1    3    3    0    0  0.43409969466E+02 -0.29171285984E+00 -0.18340797019E+03  0.18847544687E+03  0.00000000000E+00 0. -1.
<mgrwt>
<rscale>  0 0.95083884E+02</rscale>
<asrwt>0</asrwt>
<pdfrwt beam="2">  1        2 0.40642292E-01 0.95083884E+02</pdfrwt>
<pdfrwt beam="1">  1       -2 0.13162820E-02 0.95083884E+02</pdfrwt>
<totfact> 0.15309499E+05</totfact>
</mgrwt>
</event>
<event>
 5    1  0.6222456E+000  0.8508213E+02  0.7546771E-02  0.1315218E+00
          2   -1    0    0  501    0  0.00000000000E+00  0.00000000000E+00  0.58095591274E+02  0.58095591274E+02  0.00000000000E+00 0. -1.
         -2   -1    0    0    0  501 -0.00000000000E+00 -0.00000000000E+00 -0.31151114022E+02  0.31151114022E+02  0.00000000000E+00 0.  1.
         23    2    1    2    0    0  0.00000000000E+00  0.00000000000E+00  0.26944477251E+02  0.89246705296E+02  0.85082134152E+02 0.  0.
        -11    1    3    3    0    0  0.44659247145E+01  0.41536856866E+02  0.21895714550E+02  0.47166484685E+02  0.00000000000E+00 0. -1.
         11    1    3    3    0    0 -0.44659247145E+01 -0.41536856866E+02  0.50487627015E+01  0.42080220611E+02  0.00000000000E+00 0.  1.
<mgrwt>
<rscale>  0 0.85082134E+02</rscale>
<asrwt>0</asrwt>
<pdfrwt beam="1">  1        2 0.89377833E-02 0.85082134E+02</pdfrwt>
<pdfrwt beam="2">  1       -2 0.47924791E-02 0.85082134E+02</pdfrwt>
<totfact> 0.12768988E+05</totfact>
</mgrwt>
</event>
<event>
 5    1  0.6222456E+000  0.9043073E+02  0.7546771E-02  0.1301812E+00
         -3   -1    0    0    0  501 -0.00000000000E+00  0.00000000000E+00  0.21988572351E+02  0.21988572351E+02  0.00000000000E+00 0.  1.
          3   -1    0    0  501    0  0.00000000000E+00 -0.00000000000E+00 -0.92976895145E+02  0.92976895145E+02  0.00000000000E+00 0. -1.
         23    2    1    2    0    0  0.00000000000E+00  0.00000000000E+00 -0.70988322795E+02  0.11496546750E+03  0.90430728977E+02 0.  0.
        -11    1    3    3    0    0  0.20236458421E+01  0.32402224519E+02  0.45153499301E+01  0.32777853519E+02  0.00000000000E+00 0.  1.
         11    1    3    3    0    0 -0.20236458421E+01 -0.32402224519E+02 -0.75503672725E+02  0.82187613977E+02  0.00000000000E+00 0. -1.
<mgrwt>
<rscale>  0 0.90430729E+02</rscale>
<asrwt>0</asrwt>
<pdfrwt beam="2">  1        3 0.14304138E-01 0.90430729E+02</pdfrwt>
<pdfrwt beam="1">  1       -3 0.33828572E-02 0.90430729E+02</pdfrwt>
<totfact> 0.34351450E+04</totfact>
</mgrwt>
</event>
<event>
 5    1  0.6222456E+000  0.9371222E+02  0.7546771E-02  0.1294103E+00
         -2   -1    0    0    0  501 -0.00000000000E+00  0.00000000000E+00  0.11079640752E+02  0.11079640752E+02  0.00000000000E+00 0.  1.
          2   -1    0    0  501    0  0.00000000000E+00 -0.00000000000E+00 -0.19815579140E+03  0.19815579140E+03  0.00000000000E+00 0. -1.
         23    2    1    2    0    0  0.00000000000E+00  0.00000000000E+00 -0.18707615065E+03  0.20923543215E+03  0.93712218663E+02 0.  0.
        -11    1    3    3    0    0  0.42739117784E+02  0.23997836468E+01 -0.13608365311E+03  0.14265746315E+03  0.00000000000E+00 0.  1.
         11    1    3    3    0    0 -0.42739117784E+02 -0.23997836468E+01 -0.50992497540E+02  0.66577968998E+02  0.00000000000E+00 0. -1.
<mgrwt>
<rscale>  0 0.93712219E+02</rscale>
<asrwt>0</asrwt>
<pdfrwt beam="2">  1        2 0.30485506E-01 0.93712219E+02</pdfrwt>
<pdfrwt beam="1">  1       -2 0.17045601E-02 0.93712219E+02</pdfrwt>
<totfact> 0.14316103E+05</totfact>
</mgrwt>
</event>
<event>
 5    1  0.6222456E+000  0.9145285E+02  0.7546771E-02  0.1299371E+00
         -1   -1    0    0    0  501 -0.00000000000E+00  0.00000000000E+00  0.45523826372E+02  0.45523826372E+02  0.00000000000E+00 0.  1.
          1   -1    0    0  501    0  0.00000000000E+00 -0.00000000000E+00 -0.45929925396E+02  0.45929925396E+02  0.00000000000E+00 0. -1.
         23    2    1    2    0    0  0.00000000000E+00  0.00000000000E+00 -0.40609902344E+00  0.91453751768E+02  0.91452850125E+02 0.  0.
        -11    1    3    3    0    0 -0.26563815901E+02 -0.36835901086E+02 -0.55309557371E+01  0.45750534372E+02  0.00000000000E+00 0. -1.
         11    1    3    3    0    0  0.26563815901E+02  0.36835901086E+02  0.51248567137E+01  0.45703217396E+02  0.00000000000E+00 0.  1.
<mgrwt>
<rscale>  0 0.91452850E+02</rscale>
<asrwt>0</asrwt>
<pdfrwt beam="2">  1        1 0.70661424E-02 0.91452850E+02</pdfrwt>
<pdfrwt beam="1">  1       -1 0.70036656E-02 0.91452850E+02</pdfrwt>
<totfact> 0.91793270E+04</totfact>
</mgrwt>
</event>
<event>
 5    1  0.6222456E+000  0.9104211E+02  0.7546771E-02  0.1300348E+00
         -4   -1    0    0    0  501 -0.00000000000E+00  0.00000000000E+00  0.11845557802E+02  0.11845557802E+02  0.00000000000E+00 0.  1.
          4   -1    0    0  501    0  0.00000000000E+00 -0.00000000000E+00 -0.17493195998E+03  0.17493195998E+03  0.00000000000E+00 0. -1.
         23    2    1    2    0    0  0.00000000000E+00  0.00000000000E+00 -0.16308640217E+03  0.18677751778E+03  0.91042114286E+02 0.  0.
        -11    1    3    3    0    0  0.44420160050E+02  0.88429053778E+01 -0.72182406639E+02  0.85215300402E+02  0.00000000000E+00 0.  1.
         11    1    3    3    0    0 -0.44420160050E+02 -0.88429053778E+01 -0.90903995536E+02  0.10156221738E+03  0.00000000000E+00 0. -1.
<mgrwt>
<rscale>  0 0.91042114E+02</rscale>
<asrwt>0</asrwt>
<pdfrwt beam="2">  1        4 0.26912607E-01 0.91042114E+02</pdfrwt>
<pdfrwt beam="1">  1       -4 0.18223936E-02 0.91042114E+02</pdfrwt>
<totfact> 0.22038776E+04</totfact>
</mgrwt>
</event>
<event>
 5    1  0.6222456E+000  0.1007516E+03  0.7546771E-02  0.1278723E+00
         -1   -1    0    0    0  501 -0.00000000000E+00  0.00000000000E+00  0.83456503950E+01  0.83456503950E+01  0.00000000000E+00 0.  1.
          1   -1    0    0  501    0  0.00000000000E+00 -0.00000000000E+00 -0.30407738790E+03  0.30407738790E+03  0.00000000000E+00 0. -1.
         23    2    1    2    0    0  0.00000000000E+00  0.00000000000E+00 -0.29573173751E+03  0.31242303830E+03  0.10075164659E+03 0.  0.
        -11    1    3    3    0    0 -0.28786398324E+02 -0.41314963824E+02 -0.14332896575E+03  0.15191700164E+03  0.00000000000E+00 0.  1.
         11    1    3    3    0    0  0.28786398324E+02  0.41314963824E+02 -0.15240277176E+03  0.16050603666E+03  0.00000000000E+00 0. -1.
<mgrwt>
<rscale>  0 0.10075165E+03</rscale>
<asrwt>0</asrwt>
<pdfrwt beam="2">  1        1 0.46781134E-01 0.10075165E+03</pdfrwt>
<pdfrwt beam="1">  1       -1 0.12839463E-02 0.10075165E+03</pdfrwt>
<totfact> 0.98301631E+04</totfact>
</mgrwt>
</event>
<event>
 5    1  0.6222456E+000  0.8959786E+02  0.7546771E-02  0.1303828E+00
         -1   -1    0    0    0  501 -0.00000000000E+00  0.00000000000E+00  0.30849062811E+02  0.30849062811E+02  0.00000000000E+00 0.  1.
          1   -1    0    0  501    0  0.00000000000E+00 -0.00000000000E+00 -0.65056894589E+02  0.65056894589E+02  0.00000000000E+00 0. -1.
         23    2    1    2    0    0  0.00000000000E+00  0.00000000000E+00 -0.34207831778E+02  0.95905957400E+02  0.89597862195E+02 0.  0.
        -11    1    3    3    0    0  0.25809050629E+02  0.28075527422E+02 -0.42266435234E+02  0.56927970997E+02  0.00000000000E+00 0. -1.
         11    1    3    3    0    0 -0.25809050629E+02 -0.28075527422E+02  0.80586034554E+01  0.38977986404E+02  0.00000000000E+00 0.  1.
<mgrwt>
<rscale>  0 0.89597862E+02</rscale>
<asrwt>0</asrwt>
<pdfrwt beam="2">  1        1 0.10008753E-01 0.89597862E+02</pdfrwt>
<pdfrwt beam="1">  1       -1 0.47460097E-02 0.89597862E+02</pdfrwt>
<totfact> 0.10238239E+05</totfact>
</mgrwt>
</event>
<event>
 5    1  0.6222456E+000  0.9015003E+02  0.7546771E-02  0.1302489E+00
          2   -1    0    0  501    0  0.00000000000E+00  0.00000000000E+00  0.72604904361E+01  0.72604904361E+01  0.00000000000E+00 0. -1.
         -2   -1    0    0    0  501 -0.00000000000E+00 -0.00000000000E+00 -0.27983741391E+03  0.27983741391E+03  0.00000000000E+00 0.  1.
         23    2    1    2    0    0  0.00000000000E+00  0.00000000000E+00 -0.27257692347E+03  0.28709790435E+03  0.90150027562E+02 0.  0.
        -11    1    3    3    0    0  0.41516154126E+02 -0.32014669543E+01 -0.81320278759E+02  0.91360977345E+02  0.00000000000E+00 0. -1.
         11    1    3    3    0    0 -0.41516154126E+02  0.32014669543E+01 -0.19125664471E+03  0.19573692700E+03  0.00000000000E+00 0.  1.
<mgrwt>
<rscale>  0 0.90150028E+02</rscale>
<asrwt>0</asrwt>
<pdfrwt beam="1">  1        2 0.11169985E-02 0.90150028E+02</pdfrwt>
<pdfrwt beam="2">  1       -2 0.43051912E-01 0.90150028E+02</pdfrwt>
<totfact> 0.54554792E+04</totfact>
</mgrwt>
</event>
<event>
 5    1  0.6222456E+000  0.9310732E+02  0.7546771E-02  0.1295497E+00
          1   -1    0    0  501    0  0.00000000000E+00  0.00000000000E+00  0.93087121851E+02  0.93087121851E+02  0.00000000000E+00 0. -1.
         -1   -1    0    0    0  501 -0.00000000000E+00 -0.00000000000E+00 -0.23281881159E+02  0.23281881159E+02  0.00000000000E+00 0.  1.
         23    2    1    2    0    0  0.00000000000E+00  0.00000000000E+00  0.69805240692E+02  0.11636900301E+03  0.93107321051E+02 0.  0.
        -11    1    3    3    0    0 -0.25475739904E+02  0.18192368664E+02  0.77967953397E+02  0.84017720501E+02  0.00000000000E+00 0. -1.
         11    1    3    3    0    0  0.25475739904E+02 -0.18192368664E+02 -0.81627127045E+01  0.32351282509E+02  0.00000000000E+00 0.  1.
<mgrwt>
<rscale>  0 0.93107321E+02</rscale>
<asrwt>0</asrwt>
<pdfrwt beam="1">  1        1 0.14321096E-01 0.93107321E+02</pdfrwt>
<pdfrwt beam="2">  1       -1 0.35818279E-02 0.93107321E+02</pdfrwt>
<totfact> 0.97470474E+04</totfact>
</mgrwt>
</event>
<event>
 5    1  0.6222456E+000  0.9123079E+02  0.7546771E-02  0.1299898E+00
          2   -1    0    0  501    0  0.00000000000E+00  0.00000000000E+00  0.15367405718E+02  0.15367405718E+02  0.00000000000E+00 0. -1.
         -2   -1    0    0    0  501 -0.00000000000E+00 -0.00000000000E+00 -0.13540112982E+03  0.13540112982E+03  0.00000000000E+00 0.  1.
         23    2    1    2    0    0  0.00000000000E+00  0.00000000000E+00 -0.12003372411E+03  0.15076853554E+03  0.91230786398E+02 0.  0.
        -11    1    3    3    0    0  0.57976147249E+01 -0.45196486603E+02 -0.56538780702E+02  0.72615208194E+02  0.00000000000E+00 0.  1.
         11    1    3    3    0    0 -0.57976147249E+01  0.45196486603E+02 -0.63494943403E+02  0.78153327348E+02  0.00000000000E+00 0. -1.
<mgrwt>
<rscale>  0 0.91230786E+02</rscale>
<asrwt>0</asrwt>
<pdfrwt beam="1">  1        2 0.23642163E-02 0.91230786E+02</pdfrwt>
<pdfrwt beam="2">  1       -2 0.20830943E-01 0.91230786E+02</pdfrwt>
<totfact> 0.72327668E+04</totfact>
</mgrwt>
</event>
<event>
 5    1  0.6222456E+000  0.9009333E+02  0.7546771E-02  0.1302626E+00
          2   -1    0    0  501    0  0.00000000000E+00  0.00000000000E+00  0.52736537556E+02  0.52736537556E+02  0.00000000000E+00 0. -1.
         -2   -1    0    0    0  501 -0.00000000000E+00 -0.00000000000E+00 -0.38478101789E+02  0.38478101789E+02  0.00000000000E+00 0.  1.
         23    2    1    2    0    0  0.00000000000E+00  0.00000000000E+00  0.14258435766E+02  0.91214639345E+02  0.90093326281E+02 0.  0.
        -11    1    3    3    0    0  0.43758429272E+02 -0.23976282623E+01 -0.34241966552E+01  0.43957637293E+02  0.00000000000E+00 0.  1.
         11    1    3    3    0    0 -0.43758429272E+02  0.23976282623E+01  0.17682632422E+02  0.47257002052E+02  0.00000000000E+00 0. -1.
<mgrwt>
<rscale>  0 0.90093326E+02</rscale>
<asrwt>0</asrwt>
<pdfrwt beam="1">  1        2 0.81133135E-02 0.90093326E+02</pdfrwt>
<pdfrwt beam="2">  1       -2 0.59197080E-02 0.90093326E+02</pdfrwt>
<totfact> 0.10603491E+05</totfact>
</mgrwt>
</event>
<event>
 5    1  0.6222456E+000  0.9159505E+02  0.7546771E-02  0.1299034E+00
          2   -1    0    0  501    0  0.00000000000E+00  0.00000000000E+00  0.43267817729E+03  0.43267817729E+03  0.00000000000E+00 0.  1.
         -2   -1    0    0    0  501 -0.00000000000E+00 -0.00000000000E+00 -0.48475137432E+01  0.48475137432E+01  0.00000000000E+00 0. -1.
         23    2    1    2    0    0  0.00000000000E+00  0.00000000000E+00  0.42783066354E+03  0.43752569103E+03  0.91595052504E+02 0.  0.
        -11    1    3    3    0    0  0.33447198085E+02 -0.30841632160E+02  0.18886950819E+03  0.19427200637E+03  0.00000000000E+00 0. -1.
         11    1    3    3    0    0 -0.33447198085E+02  0.30841632160E+02  0.23896115535E+03  0.24325368466E+03  0.00000000000E+00 0.  1.
<mgrwt>
<rscale>  0 0.91595053E+02</rscale>
<asrwt>0</asrwt>
<pdfrwt beam="1">  1        2 0.66565843E-01 0.91595053E+02</pdfrwt>
<pdfrwt beam="2">  1       -2 0.74577169E-03 0.91595053E+02</pdfrwt>
<totfact> 0.20275974E+05</totfact>
</mgrwt>
</event>
<event>
 5    1  0.6222456E+000  0.9141404E+02  0.7546771E-02  0.1299463E+00
         -1   -1    0    0    0  501 -0.00000000000E+00  0.00000000000E+00  0.33748998689E+03  0.33748998689E+03  0.00000000000E+00 0.  1.
          1   -1    0    0  501    0  0.00000000000E+00 -0.00000000000E+00 -0.61902031875E+01  0.61902031875E+01  0.00000000000E+00 0. -1.
         23    2    1    2    0    0  0.00000000000E+00  0.00000000000E+00  0.33129978370E+03  0.34368019007E+03  0.91414038147E+02 0.  0.
        -11    1    3    3    0    0  0.39064244398E+02  0.11743330293E+02  0.88124558027E+02  0.97107459673E+02  0.00000000000E+00 0. -1.
         11    1    3    3    0    0 -0.39064244398E+02 -0.11743330293E+02  0.24317522567E+03  0.24657273040E+03  0.00000000000E+00 0.  1.
<mgrwt>
<rscale>  0 0.91414038E+02</rscale>
<asrwt>0</asrwt>
<pdfrwt beam="2">  1        1 0.95233921E-03 0.91414038E+02</pdfrwt>
<pdfrwt beam="1">  1       -1 0.51921522E-01 0.91414038E+02</pdfrwt>
<totfact> 0.57315046E+04</totfact>
</mgrwt>
</event>
<event>
 5    1  0.6222456E+000  0.9058887E+02  0.7546771E-02  0.1301432E+00
          4   -1    0    0  501    0  0.00000000000E+00  0.00000000000E+00  0.19245992834E+02  0.19245992834E+02  0.00000000000E+00 0. -1.
         -4   -1    0    0    0  501 -0.00000000000E+00 -0.00000000000E+00 -0.10659807806E+03  0.10659807806E+03  0.00000000000E+00 0.  1.
         23    2    1    2    0    0  0.00000000000E+00  0.00000000000E+00 -0.87352085227E+02  0.12584407089E+03  0.90588870099E+02 0.  0.
        -11    1    3    3    0    0  0.19627248491E+02 -0.19239814362E+02 -0.93690051154E+02  0.97638235468E+02  0.00000000000E+00 0.  1.
         11    1    3    3    0    0 -0.19627248491E+02  0.19239814362E+02  0.63379659272E+01  0.28205835427E+02  0.00000000000E+00 0. -1.
<mgrwt>
<rscale>  0 0.90588870E+02</rscale>
<asrwt>0</asrwt>
<pdfrwt beam="1">  1        4 0.29609220E-02 0.90588870E+02</pdfrwt>
<pdfrwt beam="2">  1       -4 0.16399704E-01 0.90588870E+02</pdfrwt>
<totfact> 0.25384408E+04</totfact>
</mgrwt>
</event>
<event>
 5    1  0.6222456E+000  0.9039485E+02  0.7546771E-02  0.1301898E+00
          1   -1    0    0  501    0  0.00000000000E+00  0.00000000000E+00  0.15119533183E+03  0.15119533183E+03  0.00000000000E+00 0. -1.
         -1   -1    0    0    0  501 -0.00000000000E+00 -0.00000000000E+00 -0.13511047511E+02  0.13511047511E+02  0.00000000000E+00 0.  1.
         23    2    1    2    0    0  0.00000000000E+00  0.00000000000E+00  0.13768428432E+03  0.16470637934E+03  0.90394851884E+02 0.  0.
        -11    1    3    3    0    0 -0.24861533535E+02 -0.31393020608E+02  0.30657141223E+02  0.50432904939E+02  0.00000000000E+00 0.  1.
         11    1    3    3    0    0  0.24861533535E+02  0.31393020608E+02  0.10702714310E+03  0.11427347440E+03  0.00000000000E+00 0. -1.
<mgrwt>
<rscale>  0 0.90394852E+02</rscale>
<asrwt>0</asrwt>
<pdfrwt beam="1">  1        1 0.23260819E-01 0.90394852E+02</pdfrwt>
<pdfrwt beam="2">  1       -1 0.20786228E-02 0.90394852E+02</pdfrwt>
<totfact> 0.11493335E+05</totfact>
</mgrwt>
</event>
<event>
 5    1  0.6222456E+000  0.9196621E+02  0.7546771E-02  0.1298159E+00
          2   -1    0    0  501    0  0.00000000000E+00  0.00000000000E+00  0.16666511410E+02  0.16666511410E+02  0.00000000000E+00 0. -1.
         -2   -1    0    0    0  501 -0.00000000000E+00 -0.00000000000E+00 -0.12686793677E+03  0.12686793677E+03  0.00000000000E+00 0.  1.
         23    2    1    2    0    0  0.00000000000E+00  0.00000000000E+00 -0.11020142536E+03  0.14353444818E+03  0.91966209356E+02 0.  0.
        -11    1    3    3    0    0 -0.29809959728E+02  0.22730351327E+02 -0.13538862385E+02  0.39857287478E+02  0.00000000000E+00 0. -1.
         11    1    3    3    0    0  0.29809959728E+02 -0.22730351327E+02 -0.96662562978E+02  0.10367716071E+03  0.00000000000E+00 0.  1.
<mgrwt>
<rscale>  0 0.91966209E+02</rscale>
<asrwt>0</asrwt>
<pdfrwt beam="1">  1        2 0.25640786E-02 0.91966209E+02</pdfrwt>
<pdfrwt beam="2">  1       -2 0.19518145E-01 0.91966209E+02</pdfrwt>
<totfact> 0.72460822E+04</totfact>
</mgrwt>
</event>
<event>
 5    1  0.6222456E+000  0.9141133E+02  0.7546771E-02  0.1299469E+00
          1   -1    0    0  501    0  0.00000000000E+00  0.00000000000E+00  0.71601545505E+02  0.71601545505E+02  0.00000000000E+00 0. -1.
         -1   -1    0    0    0  501 -0.00000000000E+00 -0.00000000000E+00 -0.29175459281E+02  0.29175459281E+02  0.00000000000E+00 0.  1.
         23    2    1    2    0    0  0.00000000000E+00  0.00000000000E+00  0.42426086224E+02  0.10077700479E+03  0.91411333550E+02 0.  0.
        -11    1    3    3    0    0  0.18093198644E+02  0.25442461877E+02  0.58014701680E+02  0.65881623497E+02  0.00000000000E+00 0. -1.
         11    1    3    3    0    0 -0.18093198644E+02 -0.25442461877E+02 -0.15588615456E+02  0.34895381290E+02  0.00000000000E+00 0.  1.
<mgrwt>
<rscale>  0 0.91411334E+02</rscale>
<asrwt>0</asrwt>
<pdfrwt beam="1">  1        1 0.11015622E-01 0.91411334E+02</pdfrwt>
<pdfrwt beam="2">  1       -1 0.44885322E-02 0.91411334E+02</pdfrwt>
<totfact> 0.98313518E+04</totfact>
</mgrwt>
</event>
<event>
 5    1  0.6222456E+000  0.9517080E+02  0.7546771E-02  0.1290792E+00
         -1   -1    0    0    0  501 -0.00000000000E+00  0.00000000000E+00  0.18292823668E+03  0.18292823668E+03  0.00000000000E+00 0.  1.
          1   -1    0    0  501    0  0.00000000000E+00 -0.00000000000E+00 -0.12378461759E+02  0.12378461759E+02  0.00000000000E+00 0. -1.
         23    2    1    2    0    0  0.00000000000E+00  0.00000000000E+00  0.17054977492E+03  0.19530669844E+03  0.95170797672E+02 0.  0.
        -11    1    3    3    0    0 -0.62135828492E+01  0.46887085657E+02  0.96009674974E+02  0.10702740351E+03  0.00000000000E+00 0.  1.
         11    1    3    3    0    0  0.62135828492E+01 -0.46887085657E+02  0.74540099944E+02  0.88279294927E+02  0.00000000000E+00 0. -1.
<mgrwt>
<rscale>  0 0.95170798E+02</rscale>
<asrwt>0</asrwt>
<pdfrwt beam="2">  1        1 0.19043789E-02 0.95170798E+02</pdfrwt>
<pdfrwt beam="1">  1       -1 0.28142804E-01 0.95170798E+02</pdfrwt>
<totfact> 0.63635412E+04</totfact>
</mgrwt>
</event>
<event>
 5    1  0.6222456E+000  0.1034697E+03  0.7546771E-02  0.1273164E+00
          1   -1    0    0  501    0  0.00000000000E+00  0.00000000000E+00  0.79340869832E+02  0.79340869832E+02  0.00000000000E+00 0. -1.
         -1   -1    0    0    0  501 -0.00000000000E+00 -0.00000000000E+00 -0.33734099476E+02  0.33734099476E+02  0.00000000000E+00 0.  1.
         23    2    1    2    0    0  0.00000000000E+00  0.00000000000E+00  0.45606770356E+02  0.11307496931E+03  0.10346966310E+03 0.  0.
        -11    1    3    3    0    0  0.70600306863E+01 -0.13853417296E+02 -0.31120228540E+02  0.34788357657E+02  0.00000000000E+00 0.  1.
         11    1    3    3    0    0 -0.70600306863E+01  0.13853417296E+02  0.76726998896E+02  0.78286611651E+02  0.00000000000E+00 0. -1.
<mgrwt>
<rscale>  0 0.10346966E+03</rscale>
<asrwt>0</asrwt>
<pdfrwt beam="1">  1        1 0.12206288E-01 0.10346966E+03</pdfrwt>
<pdfrwt beam="2">  1       -1 0.51898615E-02 0.10346966E+03</pdfrwt>
<totfact> 0.70858506E+04</totfact>
</mgrwt>
</event>
<event>
 5    1  0.6222456E+000  0.9165548E+02  0.7546771E-02  0.1298892E+00
          3   -1    0    0  501    0  0.00000000000E+00  0.00000000000E+00  0.15934778938E+02  0.15934778938E+02  0.00000000000E+00 0. -1.
         -3   -1    0    0    0  501 -0.00000000000E+00 -0.00000000000E+00 -0.13179861485E+03  0.13179861485E+03  0.00000000000E+00 0.  1.
         23    2    1    2    0    0  0.00000000000E+00  0.00000000000E+00 -0.11586383591E+03  0.14773339378E+03  0.91655480837E+02 0.  0.
        -11    1    3    3    0    0 -0.98153158590E+01 -0.37681391363E+02 -0.18981726670E+02  0.43318975379E+02  0.00000000000E+00 0. -1.
         11    1    3    3    0    0  0.98153158590E+01  0.37681391363E+02 -0.96882109237E+02  0.10441441840E+03  0.00000000000E+00 0.  1.
<mgrwt>
<rscale>  0 0.91655481E+02</rscale>
<asrwt>0</asrwt>
<pdfrwt beam="1">  1        3 0.24515045E-02 0.91655481E+02</pdfrwt>
<pdfrwt beam="2">  1       -3 0.20276710E-01 0.91655481E+02</pdfrwt>
<totfact> 0.31003738E+04</totfact>
</mgrwt>
</event>
<event>
 5    1  0.6222456E+000  0.9202600E+02  0.7546771E-02  0.1298018E+00
          2   -1    0    0  501    0  0.00000000000E+00  0.00000000000E+00  0.56104963703E+02  0.56104963703E+02  0.00000000000E+00 0. -1.
         -2   -1    0    0    0  501 -0.00000000000E+00 -0.00000000000E+00 -0.37736344264E+02  0.37736344264E+02  0.00000000000E+00 0.  1.
         23    2    1    2    0    0  0.00000000000E+00  0.00000000000E+00  0.18368619439E+02  0.93841307967E+02  0.92026001222E+02 0.  0.
        -11    1    3    3    0    0  0.44726401580E+02 -0.10352772569E+02  0.12338104386E+02  0.47537981846E+02  0.00000000000E+00 0. -1.
         11    1    3    3    0    0 -0.44726401580E+02  0.10352772569E+02  0.60305150526E+01  0.46303326122E+02  0.00000000000E+00 0.  1.
<mgrwt>
<rscale>  0 0.92026001E+02</rscale>
<asrwt>0</asrwt>
<pdfrwt beam="1">  1        2 0.86315329E-02 0.92026001E+02</pdfrwt>
<pdfrwt beam="2">  1       -2 0.58055914E-02 0.92026001E+02</pdfrwt>
<totfact> 0.10148359E+05</totfact>
</mgrwt>
</event>
<event>
 5    1  0.6222456E+000  0.9654307E+02  0.7546771E-02  0.1287738E+00
          2   -1    0    0  501    0  0.00000000000E+00  0.00000000000E+00  0.81025750085E+02  0.81025750085E+02  0.00000000000E+00 0. -1.
         -2   -1    0    0    0  501 -0.00000000000E+00 -0.00000000000E+00 -0.28758030704E+02  0.28758030704E+02  0.00000000000E+00 0.  1.
         23    2    1    2    0    0  0.00000000000E+00  0.00000000000E+00  0.52267719381E+02  0.10978378079E+03  0.96543068292E+02 0.  0.
        -11    1    3    3    0    0 -0.24400427051E+02 -0.36144775025E+02  0.25996870932E+01  0.43687343418E+02  0.00000000000E+00 0.  1.
         11    1    3    3    0    0  0.24400427051E+02  0.36144775025E+02  0.49668032288E+02  0.66096437372E+02  0.00000000000E+00 0. -1.
<mgrwt>
<rscale>  0 0.96543068E+02</rscale>
<asrwt>0</asrwt>
<pdfrwt beam="1">  1        2 0.12465500E-01 0.96543068E+02</pdfrwt>
<pdfrwt beam="2">  1       -2 0.44243124E-02 0.96543068E+02</pdfrwt>
<totfact> 0.98259228E+04</totfact>
</mgrwt>
</event>
<event>
 5    1  0.6222456E+000  0.9110106E+02  0.7546771E-02  0.1300207E+00
         -1   -1    0    0    0  501 -0.00000000000E+00  0.00000000000E+00  0.53253042241E+02  0.53253042241E+02  0.00000000000E+00 0.  1.
          1   -1    0    0  501    0  0.00000000000E+00 -0.00000000000E+00 -0.38962106623E+02  0.38962106623E+02  0.00000000000E+00 0. -1.
         23    2    1    2    0    0  0.00000000000E+00  0.00000000000E+00  0.14290935618E+02  0.92215148863E+02  0.91101058386E+02 0.  0.
        -11    1    3    3    0    0 -0.30192075918E+02 -0.47636378215E+01  0.41331206193E+02  0.51405469542E+02  0.00000000000E+00 0.  1.
         11    1    3    3    0    0  0.30192075918E+02  0.47636378215E+01 -0.27040270575E+02  0.40809679321E+02  0.00000000000E+00 0. -1.
<mgrwt>
<rscale>  0 0.91101058E+02</rscale>
<asrwt>0</asrwt>
<pdfrwt beam="2">  1        1 0.59941702E-02 0.91101058E+02</pdfrwt>
<pdfrwt beam="1">  1       -1 0.81927758E-02 0.91101058E+02</pdfrwt>
<totfact> 0.90514368E+04</totfact>
</mgrwt>
</event>
<event>
 5    1  0.6222456E+000  0.9127345E+02  0.7546771E-02  0.1299797E+00
         -2   -1    0    0    0  501 -0.00000000000E+00  0.00000000000E+00  0.13439327887E+03  0.13439327887E+03  0.00000000000E+00 0.  1.
          2   -1    0    0  501    0  0.00000000000E+00 -0.00000000000E+00 -0.15497134105E+02  0.15497134105E+02  0.00000000000E+00 0. -1.
         23    2    1    2    0    0  0.00000000000E+00  0.00000000000E+00  0.11889614476E+03  0.14989041297E+03  0.91273449927E+02 0.  0.
        -11    1    3    3    0    0 -0.14251525470E+02 -0.36357478816E+02  0.98231364513E+02  0.10570890794E+03  0.00000000000E+00 0.  1.
         11    1    3    3    0    0  0.14251525470E+02  0.36357478816E+02  0.20664780251E+02  0.44181505032E+02  0.00000000000E+00 0. -1.
<mgrwt>
<rscale>  0 0.91273450E+02</rscale>
<asrwt>0</asrwt>
<pdfrwt beam="2">  1        2 0.23841746E-02 0.91273450E+02</pdfrwt>
<pdfrwt beam="1">  1       -2 0.20675888E-01 0.91273450E+02</pdfrwt>
<totfact> 0.72428213E+04</totfact>
</mgrwt>
</event>
<event>
 5    1  0.6222456E+000  0.9095549E+02  0.7546771E-02  0.1300554E+00
          4   -1    0    0  501    0  0.00000000000E+00  0.00000000000E+00  0.82602868728E+01  0.82602868728E+01  0.00000000000E+00 0. -1.
         -4   -1    0    0    0  501 -0.00000000000E+00 -0.00000000000E+00 -0.25038179501E+03  0.25038179501E+03  0.00000000000E+00 0.  1.
         23    2    1    2    0    0  0.00000000000E+00  0.00000000000E+00 -0.24212150813E+03  0.25864208188E+03  0.90955493610E+02 0.  0.
        -11    1    3    3    0    0 -0.25713393175E+02 -0.33252078776E+02 -0.17042392578E+03  0.17553117617E+03  0.00000000000E+00 0.  1.
         11    1    3    3    0    0  0.25713393175E+02  0.33252078776E+02 -0.71697582356E+02  0.83110905705E+02  0.00000000000E+00 0. -1.
<mgrwt>
<rscale>  0 0.90955494E+02</rscale>
<asrwt>0</asrwt>
<pdfrwt beam="1">  1        4 0.12708134E-02 0.90955494E+02</pdfrwt>
<pdfrwt beam="2">  1       -4 0.38520276E-01 0.90955494E+02</pdfrwt>
<totfact> 0.19286191E+04</totfact>
</mgrwt>
</event>
<event>
 5    1  0.6222456E+000  0.8526767E+02  0.7546771E-02  0.1314734E+00
         -3   -1    0    0    0  501 -0.00000000000E+00  0.00000000000E+00  0.62082694708E+02  0.62082694708E+02  0.00000000000E+00 0.  1.
          3   -1    0    0  501    0  0.00000000000E+00 -0.00000000000E+00 -0.29277788336E+02  0.29277788336E+02  0.00000000000E+00 0. -1.
         23    2    1    2    0    0  0.00000000000E+00  0.00000000000E+00  0.32804906372E+02  0.91360483044E+02  0.85267672538E+02 0.  0.
        -11    1    3    3    0    0  0.30295154313E+02 -0.25114308748E+02  0.33979513884E+02  0.51991655508E+02  0.00000000000E+00 0. -1.
         11    1    3    3    0    0 -0.30295154313E+02  0.25114308748E+02 -0.11746075114E+01  0.39368827536E+02  0.00000000000E+00 0.  1.
<mgrwt>
<rscale>  0 0.85267673E+02</rscale>
<asrwt>0</asrwt>
<pdfrwt beam="2">  1        3 0.45042751E-02 0.85267673E+02</pdfrwt>
<pdfrwt beam="1">  1       -3 0.95511838E-02 0.85267673E+02</pdfrwt>
<totfact> 0.42358935E+04</totfact>
</mgrwt>
</event>
<event>
 5    1  0.6222456E+000  0.9133415E+02  0.7546771E-02  0.1299653E+00
         -2   -1    0    0    0  501 -0.00000000000E+00  0.00000000000E+00  0.21588485153E+02  0.21588485153E+02  0.00000000000E+00 0.  1.
          2   -1    0    0  501    0  0.00000000000E+00 -0.00000000000E+00 -0.96601571227E+02  0.96601571227E+02  0.00000000000E+00 0. -1.
         23    2    1    2    0    0  0.00000000000E+00  0.00000000000E+00 -0.75013086075E+02  0.11819005638E+03  0.91334146652E+02 0.  0.
        -11    1    3    3    0    0 -0.34700644731E+02  0.21179019457E+02 -0.10585655636E+02  0.42008829015E+02  0.00000000000E+00 0.  1.
         11    1    3    3    0    0  0.34700644731E+02 -0.21179019457E+02 -0.64427430439E+02  0.76181227365E+02  0.00000000000E+00 0. -1.
<mgrwt>
<rscale>  0 0.91334147E+02</rscale>
<asrwt>0</asrwt>
<pdfrwt beam="2">  1        2 0.14861780E-01 0.91334147E+02</pdfrwt>
<pdfrwt beam="1">  1       -2 0.33213054E-02 0.91334147E+02</pdfrwt>
<totfact> 0.12082139E+05</totfact>
</mgrwt>
</event>
<event>
 5    1  0.6222456E+000  0.9086293E+02  0.7546771E-02  0.1300775E+00
         -2   -1    0    0    0  501 -0.00000000000E+00  0.00000000000E+00  0.10632486810E+03  0.10632486810E+03  0.00000000000E+00 0.  1.
          2   -1    0    0  501    0  0.00000000000E+00 -0.00000000000E+00 -0.19412371736E+02  0.19412371736E+02  0.00000000000E+00 0. -1.
         23    2    1    2    0    0  0.00000000000E+00  0.00000000000E+00  0.86912496359E+02  0.12573723983E+03  0.90862926748E+02 0.  0.
        -11    1    3    3    0    0  0.17223785708E+02  0.94688967476E+01  0.10013682120E+03  0.10204754656E+03  0.00000000000E+00 0.  1.
         11    1    3    3    0    0 -0.17223785708E+02 -0.94688967476E+01 -0.13224324839E+02  0.23689693269E+02  0.00000000000E+00 0. -1.
<mgrwt>
<rscale>  0 0.90862927E+02</rscale>
<asrwt>0</asrwt>
<pdfrwt beam="2">  1        2 0.29865188E-02 0.90862927E+02</pdfrwt>
<pdfrwt beam="1">  1       -2 0.16357672E-01 0.90862927E+02</pdfrwt>
<totfact> 0.79018489E+04</totfact>
</mgrwt>
</event>
<event>
 5    1  0.6222456E+000  0.9062268E+02  0.7546771E-02  0.1301351E+00
          1   -1    0    0  501    0  0.00000000000E+00  0.00000000000E+00  0.39534989526E+02  0.39534989526E+02  0.00000000000E+00 0. -1.
         -1   -1    0    0    0  501 -0.00000000000E+00 -0.00000000000E+00 -0.51931661858E+02  0.51931661858E+02  0.00000000000E+00 0.  1.
         23    2    1    2    0    0  0.00000000000E+00  0.00000000000E+00 -0.12396672332E+02  0.91466651385E+02  0.90622683864E+02 0.  0.
        -11    1    3    3    0    0  0.25212813483E+00 -0.36992425804E+02  0.20210479745E+02  0.42154081973E+02  0.00000000000E+00 0. -1.
         11    1    3    3    0    0 -0.25212813483E+00  0.36992425804E+02 -0.32607152077E+02  0.49312569412E+02  0.00000000000E+00 0.  1.
<mgrwt>
<rscale>  0 0.90622684E+02</rscale>
<asrwt>0</asrwt>
<pdfrwt beam="1">  1        1 0.60823061E-02 0.90622684E+02</pdfrwt>
<pdfrwt beam="2">  1       -1 0.79894864E-02 0.90622684E+02</pdfrwt>
<totfact> 0.92073961E+04</totfact>
</mgrwt>
</event>
<event>
 5    1  0.6222456E+000  0.9016850E+02  0.7546771E-02  0.1302444E+00
         -2   -1    0    0    0  501 -0.00000000000E+00  0.00000000000E+00  0.57729854798E+01  0.57729854798E+01  0.00000000000E+00 0.  1.
          2   -1    0    0  501    0  0.00000000000E+00 -0.00000000000E+00 -0.35208641817E+03  0.35208641817E+03  0.00000000000E+00 0. -1.
         23    2    1    2    0    0  0.00000000000E+00  0.00000000000E+00 -0.34631343269E+03  0.35785940365E+03  0.90168504030E+02 0.  0.
        -11    1    3    3    0    0 -0.30941871273E+02 -0.31393649020E+02 -0.13558316126E+03  0.14256841941E+03  0.00000000000E+00 0.  1.
         11    1    3    3    0    0  0.30941871273E+02  0.31393649020E+02 -0.21073027143E+03  0.21529098424E+03  0.00000000000E+00 0. -1.
<mgrwt>
<rscale>  0 0.90168504E+02</rscale>
<asrwt>0</asrwt>
<pdfrwt beam="2">  1        2 0.54167160E-01 0.90168504E+02</pdfrwt>
<pdfrwt beam="1">  1       -2 0.88815130E-03 0.90168504E+02</pdfrwt>
<totfact> 0.19632815E+05</totfact>
</mgrwt>
</event>
<event>
 5    1  0.6222456E+000  0.9120419E+02  0.7546771E-02  0.1299962E+00
          2   -1    0    0  501    0  0.00000000000E+00  0.00000000000E+00  0.15951965394E+03  0.15951965394E+03  0.00000000000E+00 0. -1.
         -2   -1    0    0    0  501 -0.00000000000E+00 -0.00000000000E+00 -0.13036330945E+02  0.13036330945E+02  0.00000000000E+00 0.  1.
         23    2    1    2    0    0  0.00000000000E+00  0.00000000000E+00  0.14648332300E+03  0.17255598489E+03  0.91204188523E+02 0.  0.
        -11    1    3    3    0    0  0.33098799512E+02  0.88681428704E+01  0.16313146472E+02  0.37951195434E+02  0.00000000000E+00 0.  1.
         11    1    3    3    0    0 -0.33098799512E+02 -0.88681428704E+01  0.13017017653E+03  0.13460478945E+03  0.00000000000E+00 0. -1.
<mgrwt>
<rscale>  0 0.91204189E+02</rscale>
<asrwt>0</asrwt>
<pdfrwt beam="1">  1        2 0.24541484E-01 0.91204189E+02</pdfrwt>
<pdfrwt beam="2">  1       -2 0.20055895E-02 0.91204189E+02</pdfrwt>
<totfact> 0.14267214E+05</totfact>
</mgrwt>
</event>
<event>
 5    1  0.6222456E+000  0.9065659E+02  0.7546771E-02  0.1301269E+00
          2   -1    0    0  501    0  0.00000000000E+00  0.00000000000E+00  0.36682554561E+03  0.36682554561E+03  0.00000000000E+00 0. -1.
         -2   -1    0    0    0  501 -0.00000000000E+00 -0.00000000000E+00 -0.56011756967E+01  0.56011756967E+01  0.00000000000E+00 0.  1.
         23    2    1    2    0    0  0.00000000000E+00  0.00000000000E+00  0.36122436991E+03  0.37242672130E+03  0.90656590074E+02 0.  0.
        -11    1    3    3    0    0  0.16651177878E+02 -0.41659444609E+02  0.15402564612E+03  0.16042652746E+03  0.00000000000E+00 0. -1.
         11    1    3    3    0    0 -0.16651177878E+02  0.41659444609E+02  0.20719872379E+03  0.21200019385E+03  0.00000000000E+00 0.  1.
<mgrwt>
<rscale>  0 0.90656590E+02</rscale>
<asrwt>0</asrwt>
<pdfrwt beam="1">  1        2 0.56434680E-01 0.90656590E+02</pdfrwt>
<pdfrwt beam="2">  1       -2 0.86171963E-03 0.90656590E+02</pdfrwt>
<totfact> 0.19644381E+05</totfact>
</mgrwt>
</event>
<event>
 5    1  0.6222456E+000  0.9289813E+02  0.7546771E-02  0.1295981E+00
          1   -1    0    0  501    0  0.00000000000E+00  0.00000000000E+00  0.65716088093E+01  0.65716088093E+01  0.00000000000E+00 0. -1.
         -1   -1    0    0    0  501 -0.00000000000E+00 -0.00000000000E+00 -0.32830859954E+03  0.32830859954E+03  0.00000000000E+00 0.  1.
         23    2    1    2    0    0  0.00000000000E+00  0.00000000000E+00 -0.32173699073E+03  0.33488020835E+03  0.92898130981E+02 0.  0.
        -11    1    3    3    0    0  0.45882856924E+02 -0.61870253036E+01 -0.17435638773E+03  0.18039863021E+03  0.00000000000E+00 0.  1.
         11    1    3    3    0    0 -0.45882856924E+02  0.61870253036E+01 -0.14738060301E+03  0.15448157814E+03  0.00000000000E+00 0. -1.
<mgrwt>
<rscale>  0 0.92898131E+02</rscale>
<asrwt>0</asrwt>
<pdfrwt beam="1">  1        1 0.10110167E-02 0.92898131E+02</pdfrwt>
<pdfrwt beam="2">  1       -1 0.50509020E-01 0.92898131E+02</pdfrwt>
<totfact> 0.55601163E+04</totfact>
</mgrwt>
</event>
<event>
 5    1  0.6222456E+000  0.9429885E+02  0.7546771E-02  0.1292763E+00
         -4   -1    0    0    0  501 -0.00000000000E+00  0.00000000000E+00  0.49266565296E+02  0.49266565296E+02  0.00000000000E+00 0.  1.
          4   -1    0    0  501    0  0.00000000000E+00 -0.00000000000E+00 -0.45123266020E+02  0.45123266020E+02  0.00000000000E+00 0. -1.
         23    2    1    2    0    0  0.00000000000E+00  0.00000000000E+00  0.41432992761E+01  0.94389831315E+02  0.94298851143E+02 0.  0.
        -11    1    3    3    0    0  0.43976093340E+02 -0.11692966213E+02  0.14430468001E+02  0.47737413535E+02  0.00000000000E+00 0.  1.
         11    1    3    3    0    0 -0.43976093340E+02  0.11692966213E+02 -0.10287168725E+02  0.46652417780E+02  0.00000000000E+00 0. -1.
<mgrwt>
<rscale>  0 0.94298851E+02</rscale>
<asrwt>0</asrwt>
<pdfrwt beam="2">  1        4 0.69420410E-02 0.94298851E+02</pdfrwt>
<pdfrwt beam="1">  1       -4 0.75794715E-02 0.94298851E+02</pdfrwt>
<totfact> 0.24460759E+04</totfact>
</mgrwt>
</event>
<event>
 5    1  0.6222456E+000  0.9048084E+02  0.7546771E-02  0.1301691E+00
         -3   -1    0    0    0  501 -0.00000000000E+00  0.00000000000E+00  0.29577857251E+02  0.29577857251E+02  0.00000000000E+00 0.  1.
          3   -1    0    0  501    0  0.00000000000E+00 -0.00000000000E+00 -0.69196891855E+02  0.69196891855E+02  0.00000000000E+00 0. -1.
         23    2    1    2    0    0  0.00000000000E+00  0.00000000000E+00 -0.39619034605E+02  0.98774749106E+02  0.90480844149E+02 0.  0.
        -11    1    3    3    0    0 -0.10058203772E+02  0.40334547989E+02 -0.39296652614E+02  0.57203759765E+02  0.00000000000E+00 0. -1.
         11    1    3    3    0    0  0.10058203772E+02 -0.40334547989E+02 -0.32238199016E+00  0.41570989341E+02  0.00000000000E+00 0.  1.
<mgrwt>
<rscale>  0 0.90480844E+02</rscale>
<asrwt>0</asrwt>
<pdfrwt beam="2">  1        3 0.10645676E-01 0.90480844E+02</pdfrwt>
<pdfrwt beam="1">  1       -3 0.45504396E-02 0.90480844E+02</pdfrwt>
<totfact> 0.35493723E+04</totfact>
</mgrwt>
</event>
<event>
 5    1  0.6222456E+000  0.9154108E+02  0.7546771E-02  0.1299162E+00
         -2   -1    0    0    0  501 -0.00000000000E+00  0.00000000000E+00  0.93435675795E+02  0.93435675795E+02  0.00000000000E+00 0.  1.
          2   -1    0    0  501    0  0.00000000000E+00 -0.00000000000E+00 -0.22421223375E+02  0.22421223375E+02  0.00000000000E+00 0. -1.
         23    2    1    2    0    0  0.00000000000E+00  0.00000000000E+00  0.71014452420E+02  0.11585689917E+03  0.91541076204E+02 0.  0.
        -11    1    3    3    0    0  0.10806832459E+02  0.26500163406E+02  0.80715039705E+02  0.85638565628E+02  0.00000000000E+00 0.  1.
         11    1    3    3    0    0 -0.10806832459E+02 -0.26500163406E+02 -0.97005872854E+01  0.30218333541E+02  0.00000000000E+00 0. -1.
<mgrwt>
<rscale>  0 0.91541076E+02</rscale>
<asrwt>0</asrwt>
<pdfrwt beam="2">  1        2 0.34494190E-02 0.91541076E+02</pdfrwt>
<pdfrwt beam="1">  1       -2 0.14374719E-01 0.91541076E+02</pdfrwt>
<totfact> 0.80616666E+04</totfact>
</mgrwt>
</event>
<event>
 5    1  0.6222456E+000  0.9117634E+02  0.7546771E-02  0.1300028E+00
          1   -1    0    0  501    0  0.00000000000E+00  0.00000000000E+00  0.20814432129E+03  0.20814432129E+03  0.00000000000E+00 0. -1.
         -1   -1    0    0    0  501 -0.00000000000E+00 -0.00000000000E+00 -0.99848091560E+01  0.99848091560E+01  0.00000000000E+00 0.  1.
         23    2    1    2    0    0  0.00000000000E+00  0.00000000000E+00  0.19815951213E+03  0.21812913044E+03  0.91176341777E+02 0.  0.
        -11    1    3    3    0    0  0.37069248225E+02  0.81077240269E+01  0.38631508223E+02  0.54150325765E+02  0.00000000000E+00 0.  1.
         11    1    3    3    0    0 -0.37069248225E+02 -0.81077240269E+01  0.15952800391E+03  0.16397880468E+03  0.00000000000E+00 0. -1.
<mgrwt>
<rscale>  0 0.91176342E+02</rscale>
<asrwt>0</asrwt>
<pdfrwt beam="1">  1        1 0.32022200E-01 0.91176342E+02</pdfrwt>
<pdfrwt beam="2">  1       -1 0.15361246E-02 0.91176342E+02</pdfrwt>
<totfact> 0.11932955E+05</totfact>
</mgrwt>
</event>
<event>
 5    1  0.6222456E+000  0.1000738E+03  0.7546771E-02  0.1280141E+00
          2   -1    0    0  501    0  0.00000000000E+00  0.00000000000E+00  0.25609528390E+03  0.25609528390E+03  0.00000000000E+00 0.  1.
         -2   -1    0    0    0  501 -0.00000000000E+00 -0.00000000000E+00 -0.97764065908E+01  0.97764065908E+01  0.00000000000E+00 0. -1.
         23    2    1    2    0    0  0.00000000000E+00  0.00000000000E+00  0.24631887731E+03  0.26587169049E+03  0.10007380519E+03 0.  0.
        -11    1    3    3    0    0  0.41557298390E+02 -0.94063293546E+01  0.19285580466E+03  0.19750658083E+03  0.00000000000E+00 0.  1.
         11    1    3    3    0    0 -0.41557298390E+02  0.94063293546E+01  0.53463072648E+02  0.68365109656E+02  0.00000000000E+00 0. -1.
<mgrwt>
<rscale>  0 0.10007381E+03</rscale>
<asrwt>0</asrwt>
<pdfrwt beam="1">  1        2 0.39399269E-01 0.10007381E+03</pdfrwt>
<pdfrwt beam="2">  1       -2 0.15040627E-02 0.10007381E+03</pdfrwt>
<totfact> 0.13181115E+05</totfact>
</mgrwt>
</event>
<event>
 5    1  0.6222456E+000  0.9272075E+02  0.7546771E-02  0.1296394E+00
          1   -1    0    0  501    0  0.00000000000E+00  0.00000000000E+00  0.15837469565E+03  0.15837469565E+03  0.00000000000E+00 0. -1.
         -1   -1    0    0    0  501 -0.00000000000E+00 -0.00000000000E+00 -0.13570880944E+02  0.13570880944E+02  0.00000000000E+00 0.  1.
         23    2    1    2    0    0  0.00000000000E+00  0.00000000000E+00  0.14480381470E+03  0.17194557659E+03  0.92720745019E+02 0.  0.
        -11    1    3    3    0    0 -0.45196773427E+02  0.29175796303E+01  0.54041627918E+02  0.70510695268E+02  0.00000000000E+00 0. -1.
         11    1    3    3    0    0  0.45196773427E+02 -0.29175796303E+01  0.90762186783E+02  0.10143488132E+03  0.00000000000E+00 0.  1.
<mgrwt>
<rscale>  0 0.92720745E+02</rscale>
<asrwt>0</asrwt>
<pdfrwt beam="1">  1        1 0.24365336E-01 0.92720745E+02</pdfrwt>
<pdfrwt beam="2">  1       -1 0.20878280E-02 0.92720745E+02</pdfrwt>
<totfact> 0.10824547E+05</totfact>
</mgrwt>
</event>
<event>
 5    1  0.6222456E+000  0.9295612E+02  0.7546771E-02  0.1295847E+00
          2   -1    0    0  501    0  0.00000000000E+00  0.00000000000E+00  0.65503526970E+02  0.65503526970E+02  0.00000000000E+00 0. -1.
         -2   -1    0    0    0  501 -0.00000000000E+00 -0.00000000000E+00 -0.32978527433E+02  0.32978527433E+02  0.00000000000E+00 0.  1.
         23    2    1    2    0    0  0.00000000000E+00  0.00000000000E+00  0.32524999536E+02  0.98482054403E+02  0.92956115693E+02 0.  0.
        -11    1    3    3    0    0 -0.19154242428E+02 -0.14572294002E+02 -0.25862641758E+02  0.35328642688E+02  0.00000000000E+00 0.  1.
         11    1    3    3    0    0  0.19154242428E+02  0.14572294002E+02  0.58387641294E+02  0.63153411716E+02  0.00000000000E+00 0. -1.
<mgrwt>
<rscale>  0 0.92956116E+02</rscale>
<asrwt>0</asrwt>
<pdfrwt beam="1">  1        2 0.10077466E-01 0.92956116E+02</pdfrwt>
<pdfrwt beam="2">  1       -2 0.50736196E-02 0.92956116E+02</pdfrwt>
<totfact> 0.10286768E+05</totfact>
</mgrwt>
</event>
<event>
 5    1  0.6222456E+000  0.9156795E+02  0.7546771E-02  0.1299098E+00
         -3   -1    0    0    0  501 -0.00000000000E+00  0.00000000000E+00  0.15702338628E+03  0.15702338628E+03  0.00000000000E+00 0.  1.
          3   -1    0    0  501    0  0.00000000000E+00 -0.00000000000E+00 -0.13349427949E+02  0.13349427949E+02  0.00000000000E+00 0. -1.
         23    2    1    2    0    0  0.00000000000E+00  0.00000000000E+00  0.14367395833E+03  0.17037281422E+03  0.91567950320E+02 0.  0.
        -11    1    3    3    0    0 -0.19068032536E+02 -0.16479529081E+02  0.71840395228E+00  0.25212712028E+02  0.00000000000E+00 0. -1.
         11    1    3    3    0    0  0.19068032536E+02  0.16479529081E+02  0.14295555437E+03  0.14516010220E+03  0.00000000000E+00 0.  1.
<mgrwt>
<rscale>  0 0.91567950E+02</rscale>
<asrwt>0</asrwt>
<pdfrwt beam="2">  1        3 0.20537583E-02 0.91567950E+02</pdfrwt>
<pdfrwt beam="1">  1       -3 0.24157443E-01 0.91567950E+02</pdfrwt>
<totfact> 0.29758533E+04</totfact>
</mgrwt>
</event>
<event>
 5    1  0.6222456E+000  0.9209305E+02  0.7546771E-02  0.1297861E+00
          3   -1    0    0  501    0  0.00000000000E+00  0.00000000000E+00  0.12091327549E+03  0.12091327549E+03  0.00000000000E+00 0. -1.
         -3   -1    0    0    0  501 -0.00000000000E+00 -0.00000000000E+00 -0.17535562875E+02  0.17535562875E+02  0.00000000000E+00 0.  1.
         23    2    1    2    0    0  0.00000000000E+00  0.00000000000E+00  0.10337771261E+03  0.13844883836E+03  0.92093047397E+02 0.  0.
        -11    1    3    3    0    0  0.40960320422E+01 -0.28535567622E+02  0.10566813057E+03  0.10952994986E+03  0.00000000000E+00 0. -1.
         11    1    3    3    0    0 -0.40960320422E+01  0.28535567622E+02 -0.22904179550E+01  0.28918888506E+02  0.00000000000E+00 0.  1.
<mgrwt>
<rscale>  0 0.92093047E+02</rscale>
<asrwt>0</asrwt>
<pdfrwt beam="1">  1        3 0.18602042E-01 0.92093047E+02</pdfrwt>
<pdfrwt beam="2">  1       -3 0.26977790E-02 0.92093047E+02</pdfrwt>
<totfact> 0.31170621E+04</totfact>
</mgrwt>
</event>
<event>
 5    1  0.6222456E+000  0.8953237E+02  0.7546771E-02  0.1303988E+00
         -2   -1    0    0    0  501 -0.00000000000E+00  0.00000000000E+00  0.11606857512E+03  0.11606857512E+03  0.00000000000E+00 0.  1.
          2   -1    0    0  501    0  0.00000000000E+00 -0.00000000000E+00 -0.17265754545E+02  0.17265754545E+02  0.00000000000E+00 0. -1.
         23    2    1    2    0    0  0.00000000000E+00  0.00000000000E+00  0.98802820575E+02  0.13333432967E+03  0.89532374668E+02 0.  0.
        -11    1    3    3    0    0  0.29750149987E+02  0.20863583031E+02  0.10462920155E+02  0.37813135539E+02  0.00000000000E+00 0. -1.
         11    1    3    3    0    0 -0.29750149987E+02 -0.20863583031E+02  0.88339900420E+02  0.95521194126E+02  0.00000000000E+00 0.  1.
<mgrwt>
<rscale>  0 0.89532375E+02</rscale>
<asrwt>0</asrwt>
<pdfrwt beam="2">  1        2 0.26562700E-02 0.89532375E+02</pdfrwt>
<pdfrwt beam="1">  1       -2 0.17856703E-01 0.89532375E+02</pdfrwt>
<totfact> 0.79781158E+04</totfact>
</mgrwt>
</event>
<event>
 5    1  0.6222456E+000  0.9523257E+02  0.7546771E-02  0.1290653E+00
         -2   -1    0    0    0  501 -0.00000000000E+00  0.00000000000E+00  0.22364873029E+03  0.22364873029E+03  0.00000000000E+00 0.  1.
          2   -1    0    0  501    0  0.00000000000E+00 -0.00000000000E+00 -0.10137820895E+02  0.10137820895E+02  0.00000000000E+00 0. -1.
         23    2    1    2    0    0  0.00000000000E+00  0.00000000000E+00  0.21351090939E+03  0.23378655118E+03  0.95232573652E+02 0.  0.
        -11    1    3    3    0    0 -0.29023282598E+02  0.37293082079E+02  0.92401971521E+02  0.10378462914E+03  0.00000000000E+00 0. -1.
         11    1    3    3    0    0  0.29023282598E+02 -0.37293082079E+02  0.12110893787E+03  0.13000192205E+03  0.00000000000E+00 0.  1.
<mgrwt>
<rscale>  0 0.95232574E+02</rscale>
<asrwt>0</asrwt>
<pdfrwt beam="2">  1        2 0.15596649E-02 0.95232574E+02</pdfrwt>
<pdfrwt beam="1">  1       -2 0.34407493E-01 0.95232574E+02</pdfrwt>
<totfact> 0.53013367E+04</totfact>
</mgrwt>
</event>
<event>
 5    1  0.6222456E+000  0.8676947E+02  0.7546771E-02  0.1310869E+00
          4   -1    0    0  501    0  0.00000000000E+00  0.00000000000E+00  0.29360696420E+02  0.29360696420E+02  0.00000000000E+00 0.  1.
         -4   -1    0    0    0  501 -0.00000000000E+00 -0.00000000000E+00 -0.64107310600E+02  0.64107310600E+02  0.00000000000E+00 0. -1.
         23    2    1    2    0    0  0.00000000000E+00  0.00000000000E+00 -0.34746614179E+02  0.93468007020E+02  0.86769471240E+02 0.  0.
        -11    1    3    3    0    0 -0.27419873620E+02  0.25709408563E+02 -0.40711820214E+02  0.55410066442E+02  0.00000000000E+00 0. -1.
         11    1    3    3    0    0  0.27419873620E+02 -0.25709408563E+02  0.59652060347E+01  0.38057940578E+02  0.00000000000E+00 0.  1.
<mgrwt>
<rscale>  0 0.86769471E+02</rscale>
<asrwt>0</asrwt>
<pdfrwt beam="1">  1        4 0.45170302E-02 0.86769471E+02</pdfrwt>
<pdfrwt beam="2">  1       -4 0.98626631E-02 0.86769471E+02</pdfrwt>
<totfact> 0.30713958E+04</totfact>
</mgrwt>
</event>
<event>
 5    1  0.6222456E+000  0.9309748E+02  0.7546771E-02  0.1295519E+00
         -1   -1    0    0    0  501 -0.00000000000E+00  0.00000000000E+00  0.91728033753E+02  0.91728033753E+02  0.00000000000E+00 0.  1.
          1   -1    0    0  501    0  0.00000000000E+00 -0.00000000000E+00 -0.23621843929E+02  0.23621843929E+02  0.00000000000E+00 0. -1.
         23    2    1    2    0    0  0.00000000000E+00  0.00000000000E+00  0.68106189824E+02  0.11534987768E+03  0.93097482183E+02 0.  0.
        -11    1    3    3    0    0  0.38739801591E+02  0.36230817140E+01  0.65712153508E+02  0.76367441145E+02  0.00000000000E+00 0.  1.
         11    1    3    3    0    0 -0.38739801591E+02 -0.36230817140E+01  0.23940363163E+01  0.38982436536E+02  0.00000000000E+00 0. -1.
<mgrwt>
<rscale>  0 0.93097482E+02</rscale>
<asrwt>0</asrwt>
<pdfrwt beam="2">  1        1 0.36341299E-02 0.93097482E+02</pdfrwt>
<pdfrwt beam="1">  1       -1 0.14112005E-01 0.93097482E+02</pdfrwt>
<totfact> 0.78344929E+04</totfact>
</mgrwt>
</event>
<event>
 5    1  0.6222456E+000  0.9181101E+02  0.7546771E-02  0.1298524E+00
         -3   -1    0    0    0  501 -0.00000000000E+00  0.00000000000E+00  0.14366246122E+02  0.14366246122E+02  0.00000000000E+00 0.  1.
          3   -1    0    0  501    0  0.00000000000E+00 -0.00000000000E+00 -0.14668519028E+03  0.14668519028E+03  0.00000000000E+00 0. -1.
         23    2    1    2    0    0  0.00000000000E+00  0.00000000000E+00 -0.13231894415E+03  0.16105143640E+03  0.91811013411E+02 0.  0.
        -11    1    3    3    0    0  0.38781214495E+02 -0.16749759386E+02 -0.34644122645E+02  0.54632886350E+02  0.00000000000E+00 0.  1.
         11    1    3    3    0    0 -0.38781214495E+02  0.16749759386E+02 -0.97674821510E+02  0.10641855005E+03  0.00000000000E+00 0. -1.
<mgrwt>
<rscale>  0 0.91811013E+02</rscale>
<asrwt>0</asrwt>
<pdfrwt beam="2">  1        3 0.22566952E-01 0.91811013E+02</pdfrwt>
<pdfrwt beam="1">  1       -3 0.22101917E-02 0.91811013E+02</pdfrwt>
<totfact> 0.30073868E+04</totfact>
</mgrwt>
</event>
<event>
 5    1  0.6222456E+000  0.9077616E+02  0.7546771E-02  0.1300983E+00
         -1   -1    0    0    0  501 -0.00000000000E+00  0.00000000000E+00  0.92489766787E+02  0.92489766787E+02  0.00000000000E+00 0.  1.
          1   -1    0    0  501    0  0.00000000000E+00 -0.00000000000E+00 -0.22273575219E+02  0.22273575219E+02  0.00000000000E+00 0. -1.
         23    2    1    2    0    0  0.00000000000E+00  0.00000000000E+00  0.70216191568E+02  0.11476334201E+03  0.90776159372E+02 0.  0.
        -11    1    3    3    0    0 -0.30544957161E+02 -0.21055712407E+02  0.68166127023E+02  0.77607720661E+02  0.00000000000E+00 0.  1.
         11    1    3    3    0    0  0.30544957161E+02  0.21055712407E+02  0.20500645446E+01  0.37155621345E+02  0.00000000000E+00 0. -1.
<mgrwt>
<rscale>  0 0.90776159E+02</rscale>
<asrwt>0</asrwt>
<pdfrwt beam="2">  1        1 0.34267039E-02 0.90776159E+02</pdfrwt>
<pdfrwt beam="1">  1       -1 0.14229195E-01 0.90776159E+02</pdfrwt>
<totfact> 0.83478538E+04</totfact>
</mgrwt>
</event>
<event>
 5    1  0.6222456E+000  0.9168583E+02  0.7546771E-02  0.1298820E+00
         -4   -1    0    0    0  501 -0.00000000000E+00  0.00000000000E+00  0.38935408171E+02  0.38935408171E+02  0.00000000000E+00 0.  1.
          4   -1    0    0  501    0  0.00000000000E+00 -0.00000000000E+00 -0.53975883686E+02  0.53975883686E+02  0.00000000000E+00 0. -1.
         23    2    1    2    0    0  0.00000000000E+00  0.00000000000E+00 -0.15040475515E+02  0.92911291857E+02  0.91685834515E+02 0.  0.
        -11    1    3    3    0    0 -0.39899505531E+02 -0.20062274301E+02  0.29673726109E+01  0.44757912060E+02  0.00000000000E+00 0.  1.
         11    1    3    3    0    0  0.39899505531E+02  0.20062274301E+02 -0.18007848126E+02  0.48153379797E+02  0.00000000000E+00 0. -1.
<mgrwt>
<rscale>  0 0.91685835E+02</rscale>
<asrwt>0</asrwt>
<pdfrwt beam="2">  1        4 0.83039821E-02 0.91685835E+02</pdfrwt>
<pdfrwt beam="1">  1       -4 0.59900628E-02 0.91685835E+02</pdfrwt>
<totfact> 0.26500835E+04</totfact>
</mgrwt>
</event>
<event>
 5    1  0.6222456E+000  0.9193008E+02  0.7546771E-02  0.1298244E+00
         -1   -1    0    0    0  501 -0.00000000000E+00  0.00000000000E+00  0.53189179913E+02  0.53189179913E+02  0.00000000000E+00 0.  1.
          1   -1    0    0  501    0  0.00000000000E+00 -0.00000000000E+00 -0.39722080409E+02  0.39722080409E+02  0.00000000000E+00 0. -1.
         23    2    1    2    0    0  0.00000000000E+00  0.00000000000E+00  0.13467099504E+02  0.92911260323E+02  0.91930079548E+02 0.  0.
        -11    1    3    3    0    0 -0.14301694205E+02  0.37501354603E+02 -0.15908569591E+02  0.43173749439E+02  0.00000000000E+00 0. -1.
         11    1    3    3    0    0  0.14301694205E+02 -0.37501354603E+02  0.29375669095E+02  0.49737510884E+02  0.00000000000E+00 0.  1.
<mgrwt>
<rscale>  0 0.91930080E+02</rscale>
<asrwt>0</asrwt>
<pdfrwt beam="2">  1        1 0.61110893E-02 0.91930080E+02</pdfrwt>
<pdfrwt beam="1">  1       -1 0.81829507E-02 0.91930080E+02</pdfrwt>
<totfact> 0.88482888E+04</totfact>
</mgrwt>
</event>
<event>
 5    1  0.6222456E+000  0.9646793E+02  0.7546771E-02  0.1287904E+00
          4   -1    0    0  501    0  0.00000000000E+00  0.00000000000E+00  0.29217175384E+02  0.29217175384E+02  0.00000000000E+00 0. -1.
         -4   -1    0    0    0  501 -0.00000000000E+00 -0.00000000000E+00 -0.79628342779E+02  0.79628342779E+02  0.00000000000E+00 0.  1.
         23    2    1    2    0    0  0.00000000000E+00  0.00000000000E+00 -0.50411167395E+02  0.10884551816E+03  0.96467927448E+02 0.  0.
        -11    1    3    3    0    0 -0.13436828850E+02 -0.45734687217E+02 -0.33520322299E+02  0.58273681807E+02  0.00000000000E+00 0.  1.
         11    1    3    3    0    0  0.13436828850E+02  0.45734687217E+02 -0.16890845096E+02  0.50571836356E+02  0.00000000000E+00 0. -1.
<mgrwt>
<rscale>  0 0.96467927E+02</rscale>
<asrwt>0</asrwt>
<pdfrwt beam="1">  1        4 0.44949502E-02 0.96467927E+02</pdfrwt>
<pdfrwt beam="2">  1       -4 0.12250514E-01 0.96467927E+02</pdfrwt>
<totfact> 0.22232669E+04</totfact>
</mgrwt>
</event>
<event>
 5    1  0.6222456E+000  0.8977814E+02  0.7546771E-02  0.1303390E+00
         -2   -1    0    0    0  501 -0.00000000000E+00  0.00000000000E+00  0.64956045552E+01  0.64956045552E+01  0.00000000000E+00 0.  1.
          2   -1    0    0  501    0  0.00000000000E+00 -0.00000000000E+00 -0.31021418085E+03  0.31021418085E+03  0.00000000000E+00 0. -1.
         23    2    1    2    0    0  0.00000000000E+00  0.00000000000E+00 -0.30371857630E+03  0.31670978541E+03  0.89778140908E+02 0.  0.
        -11    1    3    3    0    0  0.42567306996E+02 -0.28304127080E+01 -0.10259244832E+03  0.11110894344E+03  0.00000000000E+00 0.  1.
         11    1    3    3    0    0 -0.42567306996E+02  0.28304127080E+01 -0.20112612798E+03  0.20560084196E+03  0.00000000000E+00 0. -1.
<mgrwt>
<rscale>  0 0.89778141E+02</rscale>
<asrwt>0</asrwt>
<pdfrwt beam="2">  1        2 0.47725254E-01 0.89778141E+02</pdfrwt>
<pdfrwt beam="1">  1       -2 0.99932388E-03 0.89778141E+02</pdfrwt>
<totfact> 0.18955655E+05</totfact>
</mgrwt>
</event>
<event>
 5    1  0.6222456E+000  0.9071439E+02  0.7546771E-02  0.1301131E+00
         -3   -1    0    0    0  501 -0.00000000000E+00  0.00000000000E+00  0.10872572127E+02  0.10872572127E+02  0.00000000000E+00 0.  1.
          3   -1    0    0  501    0  0.00000000000E+00 -0.00000000000E+00 -0.18921695543E+03  0.18921695543E+03  0.00000000000E+00 0. -1.
         23    2    1    2    0    0  0.00000000000E+00  0.00000000000E+00 -0.17834438330E+03  0.20008952755E+03  0.90714386854E+02 0.  0.
        -11    1    3    3    0    0  0.30520624858E+02 -0.19046258916E+02 -0.15009954332E+03  0.15435070919E+03  0.00000000000E+00 0. -1.
         11    1    3    3    0    0 -0.30520624858E+02  0.19046258916E+02 -0.28244839976E+02  0.45738818368E+02  0.00000000000E+00 0.  1.
<mgrwt>
<rscale>  0 0.90714387E+02</rscale>
<asrwt>0</asrwt>
<pdfrwt beam="2">  1        3 0.29110301E-01 0.90714387E+02</pdfrwt>
<pdfrwt beam="1">  1       -3 0.16727034E-02 0.90714387E+02</pdfrwt>
<totfact> 0.28887127E+04</totfact>
</mgrwt>
</event>
<event>
 5    1  0.6222456E+000  0.8798033E+02  0.7546771E-02  0.1307818E+00
         -2   -1    0    0    0  501 -0.00000000000E+00  0.00000000000E+00  0.60413767724E+02  0.60413767724E+02  0.00000000000E+00 0.  1.
          2   -1    0    0  501    0  0.00000000000E+00 -0.00000000000E+00 -0.32031350503E+02  0.32031350503E+02  0.00000000000E+00 0. -1.
         23    2    1    2    0    0  0.00000000000E+00  0.00000000000E+00  0.28382417220E+02  0.92445118227E+02  0.87980328919E+02 0.  0.
        -11    1    3    3    0    0  0.30305479635E+02 -0.30051535234E+02  0.29911214085E+01  0.42783918394E+02  0.00000000000E+00 0. -1.
         11    1    3    3    0    0 -0.30305479635E+02  0.30051535234E+02  0.25391295812E+02  0.49661199833E+02  0.00000000000E+00 0.  1.
<mgrwt>
<rscale>  0 0.87980329E+02</rscale>
<asrwt>0</asrwt>
<pdfrwt beam="2">  1        2 0.49279001E-02 0.87980329E+02</pdfrwt>
<pdfrwt beam="1">  1       -2 0.92944258E-02 0.87980329E+02</pdfrwt>
<totfact> 0.99959986E+04</totfact>
</mgrwt>
</event>
<event>
 5    1  0.6222456E+000  0.8897339E+02  0.7546771E-02  0.1305357E+00
         -1   -1    0    0    0  501 -0.00000000000E+00  0.00000000000E+00  0.32798756514E+02  0.32798756514E+02  0.00000000000E+00 0.  1.
          1   -1    0    0  501    0  0.00000000000E+00 -0.00000000000E+00 -0.60339664672E+02  0.60339664672E+02  0.00000000000E+00 0. -1.
         23    2    1    2    0    0  0.00000000000E+00  0.00000000000E+00 -0.27540908158E+02  0.93138421185E+02  0.88973388599E+02 0.  0.
        -11    1    3    3    0    0  0.25682826810E+02  0.36252990911E+02 -0.11388174013E+02  0.45864773523E+02  0.00000000000E+00 0.  1.
         11    1    3    3    0    0 -0.25682826810E+02 -0.36252990911E+02 -0.16152734144E+02  0.47273647662E+02  0.00000000000E+00 0. -1.
<mgrwt>
<rscale>  0 0.88973389E+02</rscale>
<asrwt>0</asrwt>
<pdfrwt beam="2">  1        1 0.92830253E-02 0.88973389E+02</pdfrwt>
<pdfrwt beam="1">  1       -1 0.50459626E-02 0.88973389E+02</pdfrwt>
<totfact> 0.10320568E+05</totfact>
</mgrwt>
</event>
<event>
 5    1  0.6222456E+000  0.9152223E+02  0.7546771E-02  0.1299207E+00
          4   -1    0    0  501    0  0.00000000000E+00  0.00000000000E+00  0.14893896106E+03  0.14893896106E+03  0.00000000000E+00 0.  1.
         -4   -1    0    0    0  501 -0.00000000000E+00 -0.00000000000E+00 -0.14059984218E+02  0.14059984218E+02  0.00000000000E+00 0. -1.
         23    2    1    2    0    0  0.00000000000E+00  0.00000000000E+00  0.13487897685E+03  0.16299894528E+03  0.91522225543E+02 0.  0.
        -11    1    3    3    0    0  0.38118438194E+02 -0.96888266576E+01  0.25778689371E+02  0.47025838834E+02  0.00000000000E+00 0. -1.
         11    1    3    3    0    0 -0.38118438194E+02  0.96888266576E+01  0.10910028747E+03  0.11597310645E+03  0.00000000000E+00 0.  1.
<mgrwt>
<rscale>  0 0.91522226E+02</rscale>
<asrwt>0</asrwt>
<pdfrwt beam="1">  1        4 0.22913685E-01 0.91522226E+02</pdfrwt>
<pdfrwt beam="2">  1       -4 0.21630746E-02 0.91522226E+02</pdfrwt>
<totfact> 0.22803759E+04</totfact>
</mgrwt>
</event>
<event>
 5    1  0.6222456E+000  0.9244867E+02  0.7546771E-02  0.1297028E+00
         -1   -1    0    0    0  501 -0.00000000000E+00  0.00000000000E+00  0.49392175067E+02  0.49392175067E+02  0.00000000000E+00 0.  1.
          1   -1    0    0  501    0  0.00000000000E+00 -0.00000000000E+00 -0.43259666436E+02  0.43259666436E+02  0.00000000000E+00 0. -1.
         23    2    1    2    0    0  0.00000000000E+00  0.00000000000E+00  0.61325086313E+01  0.92651841503E+02  0.92448667225E+02 0.  0.
        -11    1    3    3    0    0 -0.43803939090E+02  0.13796796349E+02 -0.21943145907E+01  0.45977730325E+02  0.00000000000E+00 0. -1.
         11    1    3    3    0    0  0.43803939090E+02 -0.13796796349E+02  0.83268232220E+01  0.46674111178E+02  0.00000000000E+00 0.  1.
<mgrwt>
<rscale>  0 0.92448667E+02</rscale>
<asrwt>0</asrwt>
<pdfrwt beam="2">  1        1 0.66553333E-02 0.92448667E+02</pdfrwt>
<pdfrwt beam="1">  1       -1 0.75987962E-02 0.92448667E+02</pdfrwt>
<totfact> 0.88230373E+04</totfact>
</mgrwt>
</event>
<event>
 5    1  0.6222456E+000  0.8712009E+02  0.7546771E-02  0.1309980E+00
         -1   -1    0    0    0  501 -0.00000000000E+00  0.00000000000E+00  0.81701387244E+01  0.81701387244E+01  0.00000000000E+00 0.  1.
          1   -1    0    0  501    0  0.00000000000E+00 -0.00000000000E+00 -0.23224546474E+03  0.23224546474E+03  0.00000000000E+00 0. -1.
         23    2    1    2    0    0  0.00000000000E+00  0.00000000000E+00 -0.22407532601E+03  0.24041560346E+03  0.87120093320E+02 0.  0.
        -11    1    3    3    0    0  0.19299264359E+02 -0.32185829594E+02 -0.51008415511E+02  0.63326516440E+02  0.00000000000E+00 0.  1.
         11    1    3    3    0    0 -0.19299264359E+02  0.32185829594E+02 -0.17306691050E+03  0.17708908702E+03  0.00000000000E+00 0. -1.
<mgrwt>
<rscale>  0 0.87120093E+02</rscale>
<asrwt>0</asrwt>
<pdfrwt beam="2">  1        1 0.35730076E-01 0.87120093E+02</pdfrwt>
<pdfrwt beam="1">  1       -1 0.12569443E-02 0.87120093E+02</pdfrwt>
<totfact> 0.13763595E+05</totfact>
</mgrwt>
</event>
<event>
 5    1  0.6222456E+000  0.9044873E+02  0.7546771E-02  0.1301769E+00
          2   -1    0    0  501    0  0.00000000000E+00  0.00000000000E+00  0.92809912165E+01  0.92809912165E+01  0.00000000000E+00 0. -1.
         -2   -1    0    0    0  501 -0.00000000000E+00 -0.00000000000E+00 -0.22036906566E+03  0.22036906566E+03  0.00000000000E+00 0.  1.
         23    2    1    2    0    0  0.00000000000E+00  0.00000000000E+00 -0.21108807444E+03  0.22965005687E+03  0.90448733827E+02 0.  0.
        -11    1    3    3    0    0 -0.38641435132E+02 -0.13355107753E+02 -0.56460084262E+02  0.69708396388E+02  0.00000000000E+00 0. -1.
         11    1    3    3    0    0  0.38641435132E+02  0.13355107753E+02 -0.15462799018E+03  0.15994166048E+03  0.00000000000E+00 0.  1.
<mgrwt>
<rscale>  0 0.90448734E+02</rscale>
<asrwt>0</asrwt>
<pdfrwt beam="1">  1        2 0.14278448E-02 0.90448734E+02</pdfrwt>
<pdfrwt beam="2">  1       -2 0.33902933E-01 0.90448734E+02</pdfrwt>
<totfact> 0.60915359E+04</totfact>
</mgrwt>
</event>
<event>
 5    1  0.6222456E+000  0.9249059E+02  0.7546771E-02  0.1296930E+00
         -2   -1    0    0    0  501 -0.00000000000E+00  0.00000000000E+00  0.15080277854E+03  0.15080277854E+03  0.00000000000E+00 0. -1.
          2   -1    0    0  501    0  0.00000000000E+00 -0.00000000000E+00 -0.14181616285E+02  0.14181616285E+02  0.00000000000E+00 0.  1.
         23    2    1    2    0    0  0.00000000000E+00  0.00000000000E+00  0.13662116225E+03  0.16498439482E+03  0.92490586331E+02 0.  0.
        -11    1    3    3    0    0 -0.35626247164E+02 -0.19231258016E+02  0.28441375265E+02  0.49477091657E+02  0.00000000000E+00 0.  1.
         11    1    3    3    0    0  0.35626247164E+02  0.19231258016E+02  0.10817978699E+03  0.11550730317E+03  0.00000000000E+00 0. -1.
<mgrwt>
<rscale>  0 0.92490586E+02</rscale>
<asrwt>0</asrwt>
<pdfrwt beam="2">  1        2 0.21817872E-02 0.92490586E+02</pdfrwt>
<pdfrwt beam="1">  1       -2 0.23200426E-01 0.92490586E+02</pdfrwt>
<totfact> 0.67237885E+04</totfact>
</mgrwt>
</event>
<event>
 5    1  0.6222456E+000  0.9098254E+02  0.7546771E-02  0.1300490E+00
         -2   -1    0    0    0  501 -0.00000000000E+00  0.00000000000E+00  0.16433332357E+03  0.16433332357E+03  0.00000000000E+00 0.  1.
          2   -1    0    0  501    0  0.00000000000E+00 -0.00000000000E+00 -0.12593038308E+02  0.12593038308E+02  0.00000000000E+00 0. -1.
         23    2    1    2    0    0  0.00000000000E+00  0.00000000000E+00  0.15174028526E+03  0.17692636188E+03  0.90982544236E+02 0.  0.
        -11    1    3    3    0    0  0.45473745156E+02 -0.85254828839E+00  0.77681356237E+02  0.90016562053E+02  0.00000000000E+00 0.  1.
         11    1    3    3    0    0 -0.45473745156E+02  0.85254828839E+00  0.74058929023E+02  0.86909799822E+02  0.00000000000E+00 0. -1.
<mgrwt>
<rscale>  0 0.90982544E+02</rscale>
<asrwt>0</asrwt>
<pdfrwt beam="2">  1        2 0.19373906E-02 0.90982544E+02</pdfrwt>
<pdfrwt beam="1">  1       -2 0.25282048E-01 0.90982544E+02</pdfrwt>
<totfact> 0.67881489E+04</totfact>
</mgrwt>
</event>
<event>
 5    1  0.6222456E+000  0.9010082E+02  0.7546771E-02  0.1302608E+00
          2   -1    0    0  501    0  0.00000000000E+00  0.00000000000E+00  0.94444070563E+02  0.94444070563E+02  0.00000000000E+00 0. -1.
         -2   -1    0    0    0  501 -0.00000000000E+00 -0.00000000000E+00 -0.21489326888E+02  0.21489326888E+02  0.00000000000E+00 0.  1.
         23    2    1    2    0    0  0.00000000000E+00  0.00000000000E+00  0.72954743675E+02  0.11593339745E+03  0.90100821416E+02 0.  0.
        -11    1    3    3    0    0 -0.25403566649E+02 -0.50055876632E+01 -0.10959090485E+02  0.28115809976E+02  0.00000000000E+00 0.  1.
         11    1    3    3    0    0  0.25403566649E+02  0.50055876632E+01  0.83913834161E+02  0.87817587475E+02  0.00000000000E+00 0. -1.
<mgrwt>
<rscale>  0 0.90100821E+02</rscale>
<asrwt>0</asrwt>
<pdfrwt beam="1">  1        2 0.14529857E-01 0.90100821E+02</pdfrwt>
<pdfrwt beam="2">  1       -2 0.33060503E-02 0.90100821E+02</pdfrwt>
<totfact> 0.12458475E+05</totfact>
</mgrwt>
</event>
<event>
 5    1  0.6222456E+000  0.9070889E+02  0.7546771E-02  0.1301144E+00
         -4   -1    0    0    0  501 -0.00000000000E+00  0.00000000000E+00  0.21719192944E+02  0.21719192944E+02  0.00000000000E+00 0.  1.
          4   -1    0    0  501    0  0.00000000000E+00 -0.00000000000E+00 -0.94710045437E+02  0.94710045437E+02  0.00000000000E+00 0. -1.
         23    2    1    2    0    0  0.00000000000E+00  0.00000000000E+00 -0.72990852493E+02  0.11642923838E+03  0.90708891528E+02 0.  0.
        -11    1    3    3    0    0 -0.36024836946E+01  0.44512971412E+02 -0.46654387299E+02  0.64583390798E+02  0.00000000000E+00 0. -1.
         11    1    3    3    0    0  0.36024836946E+01 -0.44512971412E+02 -0.26336465194E+02  0.51845847583E+02  0.00000000000E+00 0.  1.
<mgrwt>
<rscale>  0 0.90708892E+02</rscale>
<asrwt>0</asrwt>
<pdfrwt beam="2">  1        4 0.14570776E-01 0.90708892E+02</pdfrwt>
<pdfrwt beam="1">  1       -4 0.33414143E-02 0.90708892E+02</pdfrwt>
<totfact> 0.25833181E+04</totfact>
</mgrwt>
</event>
<event>
 5    1  0.6222456E+000  0.9141172E+02  0.7546771E-02  0.1299469E+00
          3   -1    0    0  501    0  0.00000000000E+00  0.00000000000E+00  0.33661455455E+02  0.33661455455E+02  0.00000000000E+00 0. -1.
         -3   -1    0    0    0  501 -0.00000000000E+00 -0.00000000000E+00 -0.62059868094E+02  0.62059868094E+02  0.00000000000E+00 0.  1.
         23    2    1    2    0    0  0.00000000000E+00  0.00000000000E+00 -0.28398412638E+02  0.95721323549E+02  0.91411716654E+02 0.  0.
        -11    1    3    3    0    0  0.37434512764E+02 -0.19486816331E+02 -0.32574937451E+02  0.53312337283E+02  0.00000000000E+00 0.  1.
         11    1    3    3    0    0 -0.37434512764E+02  0.19486816331E+02  0.41765248130E+01  0.42408986266E+02  0.00000000000E+00 0. -1.
<mgrwt>
<rscale>  0 0.91411717E+02</rscale>
<asrwt>0</asrwt>
<pdfrwt beam="1">  1        3 0.51786855E-02 0.91411717E+02</pdfrwt>
<pdfrwt beam="2">  1       -3 0.95476720E-02 0.91411717E+02</pdfrwt>
<totfact> 0.34747875E+04</totfact>
</mgrwt>
</event>
<event>
 5    1  0.6222456E+000  0.8785534E+02  0.7546771E-02  0.1308130E+00
         -2   -1    0    0    0  501 -0.00000000000E+00  0.00000000000E+00  0.64588047955E+02  0.64588047955E+02  0.00000000000E+00 0.  1.
          2   -1    0    0  501    0  0.00000000000E+00 -0.00000000000E+00 -0.29876117425E+02  0.29876117425E+02  0.00000000000E+00 0. -1.
         23    2    1    2    0    0  0.00000000000E+00  0.00000000000E+00  0.34711930530E+02  0.94464165381E+02  0.87855338028E+02 0.  0.
        -11    1    3    3    0    0  0.24329100519E+02  0.65678011249E+01 -0.21331169370E+02  0.33016055645E+02  0.00000000000E+00 0. -1.
         11    1    3    3    0    0 -0.24329100519E+02 -0.65678011249E+01  0.56043099900E+02  0.61448109736E+02  0.00000000000E+00 0.  1.
<mgrwt>
<rscale>  0 0.87855338E+02</rscale>
<asrwt>0</asrwt>
<pdfrwt beam="2">  1        2 0.45963258E-02 0.87855338E+02</pdfrwt>
<pdfrwt beam="1">  1       -2 0.99366227E-02 0.87855338E+02</pdfrwt>
<totfact> 0.98602146E+04</totfact>
</mgrwt>
</event>
<event>
 5    1  0.6222456E+000  0.9119262E+02  0.7546771E-02  0.1299989E+00
          2   -1    0    0  501    0  0.00000000000E+00  0.00000000000E+00  0.78912218486E+02  0.78912218486E+02  0.00000000000E+00 0. -1.
         -2   -1    0    0    0  501 -0.00000000000E+00 -0.00000000000E+00 -0.26346025264E+02  0.26346025264E+02  0.00000000000E+00 0.  1.
         23    2    1    2    0    0  0.00000000000E+00  0.00000000000E+00  0.52566193223E+02  0.10525824375E+03  0.91192615969E+02 0.  0.
        -11    1    3    3    0    0 -0.14990772362E+02  0.10243960957E+02 -0.21993450881E+02  0.28519710268E+02  0.00000000000E+00 0.  1.
         11    1    3    3    0    0  0.14990772362E+02 -0.10243960957E+02  0.74559644104E+02  0.76738533482E+02  0.00000000000E+00 0. -1.
<mgrwt>
<rscale>  0 0.91192616E+02</rscale>
<asrwt>0</asrwt>
<pdfrwt beam="1">  1        2 0.12140341E-01 0.91192616E+02</pdfrwt>
<pdfrwt beam="2">  1       -2 0.40532347E-02 0.91192616E+02</pdfrwt>
<totfact> 0.11435251E+05</totfact>
</mgrwt>
</event>
<event>
 5    1  0.6222456E+000  0.8902783E+02  0.7546771E-02  0.1305223E+00
         -3   -1    0    0    0  501 -0.00000000000E+00  0.00000000000E+00  0.57234590749E+02  0.57234590749E+02  0.00000000000E+00 0.  1.
          3   -1    0    0  501    0  0.00000000000E+00 -0.00000000000E+00 -0.34620473512E+02  0.34620473512E+02  0.00000000000E+00 0. -1.
         23    2    1    2    0    0  0.00000000000E+00  0.00000000000E+00  0.22614117238E+02  0.91855064261E+02  0.89027830098E+02 0.  0.
        -11    1    3    3    0    0  0.37756852990E+02  0.88669149552E+01  0.33847732430E+02  0.51476898889E+02  0.00000000000E+00 0.  1.
         11    1    3    3    0    0 -0.37756852990E+02 -0.88669149552E+01 -0.11233615192E+02  0.40378165373E+02  0.00000000000E+00 0. -1.
<mgrwt>
<rscale>  0 0.89027830E+02</rscale>
<asrwt>0</asrwt>
<pdfrwt beam="2">  1        3 0.53262267E-02 0.89027830E+02</pdfrwt>
<pdfrwt beam="1">  1       -3 0.88053217E-02 0.89027830E+02</pdfrwt>
<totfact> 0.37649502E+04</totfact>
</mgrwt>
</event>
<event>
 5    1  0.6222456E+000  0.9026584E+02  0.7546771E-02  0.1302209E+00
         -1   -1    0    0    0  501 -0.00000000000E+00  0.00000000000E+00  0.23372875930E+03  0.23372875930E+03  0.00000000000E+00 0.  1.
          1   -1    0    0  501    0  0.00000000000E+00 -0.00000000000E+00 -0.87151471794E+01  0.87151471794E+01  0.00000000000E+00 0. -1.
         23    2    1    2    0    0  0.00000000000E+00  0.00000000000E+00  0.22501361212E+03  0.24244390648E+03  0.90265841543E+02 0.  0.
        -11    1    3    3    0    0  0.27016630643E+02 -0.32602927195E+02  0.70540609633E+02  0.82272880103E+02  0.00000000000E+00 0.  1.
         11    1    3    3    0    0 -0.27016630643E+02  0.32602927195E+02  0.15447300249E+03  0.16017102638E+03  0.00000000000E+00 0. -1.
<mgrwt>
<rscale>  0 0.90265842E+02</rscale>
<asrwt>0</asrwt>
<pdfrwt beam="2">  1        1 0.13407921E-02 0.90265842E+02</pdfrwt>
<pdfrwt beam="1">  1       -1 0.35958266E-01 0.90265842E+02</pdfrwt>
<totfact> 0.67976530E+04</totfact>
</mgrwt>
</event>
<event>
 5    1  0.6222456E+000  0.9035769E+02  0.7546771E-02  0.1301988E+00
          2   -1    0    0  501    0  0.00000000000E+00  0.00000000000E+00  0.13566800756E+03  0.13566800756E+03  0.00000000000E+00 0. -1.
         -2   -1    0    0    0  501 -0.00000000000E+00 -0.00000000000E+00 -0.15045021465E+02  0.15045021465E+02  0.00000000000E+00 0.  1.
         23    2    1    2    0    0  0.00000000000E+00  0.00000000000E+00  0.12062298610E+03  0.15071302903E+03  0.90357691115E+02 0.  0.
        -11    1    3    3    0    0 -0.29668965031E+02 -0.29225170394E+02  0.89525567211E+02  0.98737962583E+02  0.00000000000E+00 0. -1.
         11    1    3    3    0    0  0.29668965031E+02  0.29225170394E+02  0.31097418888E+02  0.51975066446E+02  0.00000000000E+00 0.  1.
<mgrwt>
<rscale>  0 0.90357691E+02</rscale>
<asrwt>0</asrwt>
<pdfrwt beam="1">  1        2 0.20872000E-01 0.90357691E+02</pdfrwt>
<pdfrwt beam="2">  1       -2 0.23146188E-02 0.90357691E+02</pdfrwt>
<totfact> 0.13852917E+05</totfact>
</mgrwt>
</event>
<event>
 5    1  0.6222456E+000  0.8864661E+02  0.7546771E-02  0.1306163E+00
          2   -1    0    0  501    0  0.00000000000E+00  0.00000000000E+00  0.16180927318E+03  0.16180927318E+03  0.00000000000E+00 0. -1.
         -2   -1    0    0    0  501 -0.00000000000E+00 -0.00000000000E+00 -0.12141178876E+02  0.12141178876E+02  0.00000000000E+00 0.  1.
         23    2    1    2    0    0  0.00000000000E+00  0.00000000000E+00  0.14966809430E+03  0.17395045205E+03  0.88646609172E+02 0.  0.
        -11    1    3    3    0    0  0.35230056412E+02  0.99857258257E+01  0.12383963945E+03  0.12913995468E+03  0.00000000000E+00 0. -1.
         11    1    3    3    0    0 -0.35230056412E+02 -0.99857258257E+01  0.25828454851E+02  0.44810497376E+02  0.00000000000E+00 0.  1.
<mgrwt>
<rscale>  0 0.88646609E+02</rscale>
<asrwt>0</asrwt>
<pdfrwt beam="1">  1        2 0.24893733E-01 0.88646609E+02</pdfrwt>
<pdfrwt beam="2">  1       -2 0.18678738E-02 0.88646609E+02</pdfrwt>
<totfact> 0.15482567E+05</totfact>
</mgrwt>
</event>
<event>
 5    1  0.6222456E+000  0.9114032E+02  0.7546771E-02  0.1300114E+00
         -2   -1    0    0    0  501 -0.00000000000E+00  0.00000000000E+00  0.68002918191E+02  0.68002918191E+02  0.00000000000E+00 0.  1.
          2   -1    0    0  501    0  0.00000000000E+00 -0.00000000000E+00 -0.30537507426E+02  0.30537507426E+02  0.00000000000E+00 0. -1.
         23    2    1    2    0    0  0.00000000000E+00  0.00000000000E+00  0.37465410764E+02  0.98540425617E+02  0.91140323003E+02 0.  0.
        -11    1    3    3    0    0 -0.33774933628E+02 -0.30061053299E+02  0.24870477963E+02  0.51603815180E+02  0.00000000000E+00 0. -1.
         11    1    3    3    0    0  0.33774933628E+02  0.30061053299E+02  0.12594932801E+02  0.46936610437E+02  0.00000000000E+00 0.  1.
<mgrwt>
<rscale>  0 0.91140323E+02</rscale>
<asrwt>0</asrwt>
<pdfrwt beam="2">  1        2 0.46980781E-02 0.91140323E+02</pdfrwt>
<pdfrwt beam="1">  1       -2 0.10461987E-01 0.91140323E+02</pdfrwt>
<totfact> 0.88991472E+04</totfact>
</mgrwt>
</event>
<event>
 5    1  0.6222456E+000  0.8962680E+02  0.7546771E-02  0.1303758E+00
          1   -1    0    0  501    0  0.00000000000E+00  0.00000000000E+00  0.20061943119E+02  0.20061943119E+02  0.00000000000E+00 0. -1.
         -1   -1    0    0    0  501 -0.00000000000E+00 -0.00000000000E+00 -0.10010199875E+03  0.10010199875E+03  0.00000000000E+00 0.  1.
         23    2    1    2    0    0  0.00000000000E+00  0.00000000000E+00 -0.80040055629E+02  0.12016394187E+03  0.89626795213E+02 0.  0.
        -11    1    3    3    0    0  0.34482423755E+02  0.28362106754E+02 -0.45176806374E+02  0.63516851950E+02  0.00000000000E+00 0.  1.
         11    1    3    3    0    0 -0.34482423755E+02 -0.28362106754E+02 -0.34863249255E+02  0.56647089918E+02  0.00000000000E+00 0. -1.
<mgrwt>
<rscale>  0 0.89626795E+02</rscale>
<asrwt>0</asrwt>
<pdfrwt beam="1">  1        1 0.30864529E-02 0.89626795E+02</pdfrwt>
<pdfrwt beam="2">  1       -1 0.15400307E-01 0.89626795E+02</pdfrwt>
<totfact> 0.85023794E+04</totfact>
</mgrwt>
</event>
<event>
 5    1  0.6222456E+000  0.9257625E+02  0.7546771E-02  0.1296730E+00
         -1   -1    0    0    0  501 -0.00000000000E+00  0.00000000000E+00  0.56917657521E+02  0.56917657521E+02  0.00000000000E+00 0.  1.
          1   -1    0    0  501    0  0.00000000000E+00 -0.00000000000E+00 -0.37643687481E+02  0.37643687481E+02  0.00000000000E+00 0. -1.
         23    2    1    2    0    0  0.00000000000E+00  0.00000000000E+00  0.19273970040E+02  0.94561345003E+02  0.92576249911E+02 0.  0.
        -11    1    3    3    0    0 -0.12667176027E+02  0.12914249335E+02  0.53157585454E+02  0.56151260677E+02  0.00000000000E+00 0.  1.
         11    1    3    3    0    0  0.12667176027E+02 -0.12914249335E+02 -0.33883615414E+02  0.38410084325E+02  0.00000000000E+00 0. -1.
<mgrwt>
<rscale>  0 0.92576250E+02</rscale>
<asrwt>0</asrwt>
<pdfrwt beam="2">  1        1 0.57913366E-02 0.92576250E+02</pdfrwt>
<pdfrwt beam="1">  1       -1 0.87565626E-02 0.92576250E+02</pdfrwt>
<totfact> 0.86024354E+04</totfact>
</mgrwt>
</event>
<event>
 5    1  0.6222456E+000  0.9186319E+02  0.7546771E-02  0.1298401E+00
          2   -1    0    0  501    0  0.00000000000E+00  0.00000000000E+00  0.10755096766E+03  0.10755096766E+03  0.00000000000E+00 0.  1.
         -2   -1    0    0    0  501 -0.00000000000E+00 -0.00000000000E+00 -0.19615920470E+02  0.19615920470E+02  0.00000000000E+00 0. -1.
         23    2    1    2    0    0  0.00000000000E+00  0.00000000000E+00  0.87935047188E+02  0.12716688813E+03  0.91863185839E+02 0.  0.
        -11    1    3    3    0    0 -0.10486507129E+02  0.22763551455E+02  0.97251044390E+02  0.10042864005E+03  0.00000000000E+00 0.  1.
         11    1    3    3    0    0  0.10486507129E+02 -0.22763551455E+02 -0.93159972022E+01  0.26738248082E+02  0.00000000000E+00 0. -1.
<mgrwt>
<rscale>  0 0.91863186E+02</rscale>
<asrwt>0</asrwt>
<pdfrwt beam="1">  1        2 0.16546302E-01 0.91863186E+02</pdfrwt>
<pdfrwt beam="2">  1       -2 0.30178340E-02 0.91863186E+02</pdfrwt>
<totfact> 0.12289426E+05</totfact>
</mgrwt>
</event>
<event>
 5    1  0.6222456E+000  0.8629700E+02  0.7546771E-02  0.1312075E+00
          1   -1    0    0  501    0  0.00000000000E+00  0.00000000000E+00  0.50891183143E+02  0.50891183143E+02  0.00000000000E+00 0. -1.
         -1   -1    0    0    0  501 -0.00000000000E+00 -0.00000000000E+00 -0.36583807603E+02  0.36583807603E+02  0.00000000000E+00 0.  1.
         23    2    1    2    0    0  0.00000000000E+00  0.00000000000E+00  0.14307375540E+02  0.87474990746E+02  0.86297004648E+02 0.  0.
        -11    1    3    3    0    0 -0.38125225206E+01  0.17221593126E+02  0.47069826910E+02  0.50266163601E+02  0.00000000000E+00 0. -1.
         11    1    3    3    0    0  0.38125225206E+01 -0.17221593126E+02 -0.32762451370E+02  0.37208827145E+02  0.00000000000E+00 0.  1.
<mgrwt>
<rscale>  0 0.86297005E+02</rscale>
<asrwt>0</asrwt>
<pdfrwt beam="1">  1        1 0.78294128E-02 0.86297005E+02</pdfrwt>
<pdfrwt beam="2">  1       -1 0.56282781E-02 0.86297005E+02</pdfrwt>
<totfact> 0.10953707E+05</totfact>
</mgrwt>
</event>
<event>
 5    1  0.6222456E+000  0.9098781E+02  0.7546771E-02  0.1300477E+00
         -1   -1    0    0    0  501 -0.00000000000E+00  0.00000000000E+00  0.12934365917E+02  0.12934365917E+02  0.00000000000E+00 0.  1.
          1   -1    0    0  501    0  0.00000000000E+00 -0.00000000000E+00 -0.16001521215E+03  0.16001521215E+03  0.00000000000E+00 0. -1.
         23    2    1    2    0    0  0.00000000000E+00  0.00000000000E+00 -0.14708084623E+03  0.17294957806E+03  0.90987808112E+02 0.  0.
        -11    1    3    3    0    0  0.35085615822E+02 -0.17334575907E+02 -0.29443212928E+02  0.48973367732E+02  0.00000000000E+00 0.  1.
         11    1    3    3    0    0 -0.35085615822E+02  0.17334575907E+02 -0.11763763330E+03  0.12397621033E+03  0.00000000000E+00 0. -1.
<mgrwt>
<rscale>  0 0.90987808E+02</rscale>
<asrwt>0</asrwt>
<pdfrwt beam="2">  1        1 0.24617724E-01 0.90987808E+02</pdfrwt>
<pdfrwt beam="1">  1       -1 0.19899025E-02 0.90987808E+02</pdfrwt>
<totfact> 0.11411854E+05</totfact>
</mgrwt>
</event>
<event>
 5    1  0.6222456E+000  0.8979606E+02  0.7546771E-02  0.1303346E+00
         -2   -1    0    0    0  501 -0.00000000000E+00  0.00000000000E+00  0.66759756646E+01  0.66759756646E+01  0.00000000000E+00 0.  1.
          2   -1    0    0  501    0  0.00000000000E+00 -0.00000000000E+00 -0.30195336059E+03  0.30195336059E+03  0.00000000000E+00 0. -1.
         23    2    1    2    0    0  0.00000000000E+00  0.00000000000E+00 -0.29527738492E+03  0.30862933625E+03  0.89796064214E+02 0.  0.
        -11    1    3    3    0    0  0.41902149947E+02 -0.11175234094E+02 -0.10768107431E+03  0.11608570021E+03  0.00000000000E+00 0.  1.
         11    1    3    3    0    0 -0.41902149947E+02  0.11175234094E+02 -0.18759631061E+03  0.19254363604E+03  0.00000000000E+00 0. -1.
<mgrwt>
<rscale>  0 0.89796064E+02</rscale>
<asrwt>0</asrwt>
<pdfrwt beam="2">  1        2 0.46454357E-01 0.89796064E+02</pdfrwt>
<pdfrwt beam="1">  1       -2 0.10270733E-02 0.89796064E+02</pdfrwt>
<totfact> 0.18756750E+05</totfact>
</mgrwt>
</event>
<event>
 5    1  0.6222456E+000  0.9173316E+02  0.7546771E-02  0.1298708E+00
         -3   -1    0    0    0  501 -0.00000000000E+00  0.00000000000E+00  0.19521179643E+02  0.19521179643E+02  0.00000000000E+00 0.  1.
          3   -1    0    0  501    0  0.00000000000E+00 -0.00000000000E+00 -0.10776722042E+03  0.10776722042E+03  0.00000000000E+00 0. -1.
         23    2    1    2    0    0  0.00000000000E+00  0.00000000000E+00 -0.88246040781E+02  0.12728840007E+03  0.91733162368E+02 0.  0.
        -11    1    3    3    0    0  0.39723620821E+01 -0.24108680784E+02  0.97387864208E+01  0.26303081770E+02  0.00000000000E+00 0.  1.
         11    1    3    3    0    0 -0.39723620821E+01  0.24108680784E+02 -0.97984827202E+02  0.10098531830E+03  0.00000000000E+00 0. -1.
<mgrwt>
<rscale>  0 0.91733162E+02</rscale>
<asrwt>0</asrwt>
<pdfrwt beam="2">  1        3 0.16579572E-01 0.91733162E+02</pdfrwt>
<pdfrwt beam="1">  1       -3 0.30032584E-02 0.91733162E+02</pdfrwt>
<totfact> 0.32217714E+04</totfact>
</mgrwt>
</event>
<event>
 5    1  0.6222456E+000  0.8986235E+02  0.7546771E-02  0.1303185E+00
          1   -1    0    0  501    0  0.00000000000E+00  0.00000000000E+00  0.10725306424E+03  0.10725306424E+03  0.00000000000E+00 0. -1.
         -1   -1    0    0    0  501 -0.00000000000E+00 -0.00000000000E+00 -0.18822867944E+02  0.18822867944E+02  0.00000000000E+00 0.  1.
         23    2    1    2    0    0  0.00000000000E+00  0.00000000000E+00  0.88430196299E+02  0.12607593219E+03  0.89862345058E+02 0.  0.
        -11    1    3    3    0    0 -0.18486776652E+02  0.40842299500E+02  0.48413748150E+02  0.65982917103E+02  0.00000000000E+00 0.  1.
         11    1    3    3    0    0  0.18486776652E+02 -0.40842299500E+02  0.40016448149E+02  0.60093015084E+02  0.00000000000E+00 0. -1.
<mgrwt>
<rscale>  0 0.89862345E+02</rscale>
<asrwt>0</asrwt>
<pdfrwt beam="1">  1        1 0.16500471E-01 0.89862345E+02</pdfrwt>
<pdfrwt beam="2">  1       -1 0.28958259E-02 0.89862345E+02</pdfrwt>
<totfact> 0.10993721E+05</totfact>
</mgrwt>
</event>
<event>
 5    1  0.6222456E+000  0.9060118E+02  0.7546771E-02  0.1301402E+00
         -2   -1    0    0    0  501 -0.00000000000E+00  0.00000000000E+00  0.10532675687E+02  0.10532675687E+02  0.00000000000E+00 0.  1.
          2   -1    0    0  501    0  0.00000000000E+00 -0.00000000000E+00 -0.19483589674E+03  0.19483589674E+03  0.00000000000E+00 0. -1.
         23    2    1    2    0    0  0.00000000000E+00  0.00000000000E+00 -0.18430322105E+03  0.20536857242E+03  0.90601176871E+02 0.  0.
        -11    1    3    3    0    0  0.24151493658E+02 -0.34178450567E+02 -0.52846050100E+02  0.67410430500E+02  0.00000000000E+00 0.  1.
         11    1    3    3    0    0 -0.24151493658E+02  0.34178450567E+02 -0.13145717095E+03  0.13795814192E+03  0.00000000000E+00 0. -1.
<mgrwt>
<rscale>  0 0.90601177E+02</rscale>
<asrwt>0</asrwt>
<pdfrwt beam="2">  1        2 0.29974753E-01 0.90601177E+02</pdfrwt>
<pdfrwt beam="1">  1       -2 0.16204117E-02 0.90601177E+02</pdfrwt>
<totfact> 0.15586123E+05</totfact>
</mgrwt>
</event>
<event>
 5    1  0.6222456E+000  0.9491928E+02  0.7546771E-02  0.1291358E+00
         -4   -1    0    0    0  501 -0.00000000000E+00  0.00000000000E+00  0.34203267616E+02  0.34203267616E+02  0.00000000000E+00 0.  1.
          4   -1    0    0  501    0  0.00000000000E+00 -0.00000000000E+00 -0.65853863590E+02  0.65853863590E+02  0.00000000000E+00 0. -1.
         23    2    1    2    0    0  0.00000000000E+00  0.00000000000E+00 -0.31650595973E+02  0.10005713121E+03  0.94919277703E+02 0.  0.
        -11    1    3    3    0    0 -0.32960793338E+02  0.23109316929E+02  0.10674307690E+02  0.41646071496E+02  0.00000000000E+00 0.  1.
         11    1    3    3    0    0  0.32960793338E+02 -0.23109316929E+02 -0.42324903663E+02  0.58411059710E+02  0.00000000000E+00 0. -1.
<mgrwt>
<rscale>  0 0.94919278E+02</rscale>
<asrwt>0</asrwt>
<pdfrwt beam="2">  1        4 0.10131363E-01 0.94919278E+02</pdfrwt>
<pdfrwt beam="1">  1       -4 0.52620413E-02 0.94919278E+02</pdfrwt>
<totfact> 0.23710417E+04</totfact>
</mgrwt>
</event>
<event>
 5    1  0.6222456E+000  0.9183163E+02  0.7546771E-02  0.1298476E+00
         -1   -1    0    0    0  501 -0.00000000000E+00  0.00000000000E+00  0.20026350153E+02  0.20026350153E+02  0.00000000000E+00 0.  1.
          1   -1    0    0  501    0  0.00000000000E+00 -0.00000000000E+00 -0.10527440840E+03  0.10527440840E+03  0.00000000000E+00 0. -1.
         23    2    1    2    0    0  0.00000000000E+00  0.00000000000E+00 -0.85248058242E+02  0.12530075855E+03  0.91831632126E+02 0.  0.
        -11    1    3    3    0    0  0.30979077143E+02  0.22356580181E+02 -0.78706135153E+01  0.39005979735E+02  0.00000000000E+00 0.  1.
         11    1    3    3    0    0 -0.30979077143E+02 -0.22356580181E+02 -0.77377444727E+02  0.86294778813E+02  0.00000000000E+00 0. -1.
<mgrwt>
<rscale>  0 0.91831632E+02</rscale>
<asrwt>0</asrwt>
<pdfrwt beam="2">  1        1 0.16196063E-01 0.91831632E+02</pdfrwt>
<pdfrwt beam="1">  1       -1 0.30809770E-02 0.91831632E+02</pdfrwt>
<totfact> 0.10331870E+05</totfact>
</mgrwt>
</event>
<event>
 5    1  0.6222456E+000  0.7342149E+02  0.7546771E-02  0.1348830E+00
         -2   -1    0    0    0  501 -0.00000000000E+00  0.00000000000E+00  0.28227444365E+02  0.28227444365E+02  0.00000000000E+00 0.  1.
          2   -1    0    0  501    0  0.00000000000E+00 -0.00000000000E+00 -0.47743570208E+02  0.47743570208E+02  0.00000000000E+00 0. -1.
         23    2    1    2    0    0  0.00000000000E+00  0.00000000000E+00 -0.19516125843E+02  0.75971014573E+02  0.73421494722E+02 0.  0.
        -11    1    3    3    0    0  0.17463675649E+02 -0.96506690975E+01 -0.41643085705E+02  0.46176422212E+02  0.00000000000E+00 0. -1.
         11    1    3    3    0    0 -0.17463675649E+02  0.96506690975E+01  0.22126959862E+02  0.29794592361E+02  0.00000000000E+00 0.  1.
<mgrwt>
<rscale>  0 0.73421495E+02</rscale>
<asrwt>0</asrwt>
<pdfrwt beam="2">  1        2 0.73451646E-02 0.73421495E+02</pdfrwt>
<pdfrwt beam="1">  1       -2 0.43426838E-02 0.73421495E+02</pdfrwt>
<totfact> 0.18317146E+05</totfact>
</mgrwt>
</event>
<event>
 5    1  0.6222456E+000  0.8985735E+02  0.7546771E-02  0.1303198E+00
         -2   -1    0    0    0  501 -0.00000000000E+00  0.00000000000E+00  0.10185536518E+02  0.10185536518E+02  0.00000000000E+00 0.  1.
          2   -1    0    0  501    0  0.00000000000E+00 -0.00000000000E+00 -0.19818160660E+03  0.19818160660E+03  0.00000000000E+00 0. -1.
         23    2    1    2    0    0  0.00000000000E+00  0.00000000000E+00 -0.18799607008E+03  0.20836714312E+03  0.89857353428E+02 0.  0.
        -11    1    3    3    0    0  0.41084142752E+02  0.17996000673E+02 -0.10005518832E+03  0.10964854552E+03  0.00000000000E+00 0.  1.
         11    1    3    3    0    0 -0.41084142752E+02 -0.17996000673E+02 -0.87940881762E+02  0.98718597594E+02  0.00000000000E+00 0. -1.
<mgrwt>
<rscale>  0 0.89857353E+02</rscale>
<asrwt>0</asrwt>
<pdfrwt beam="2">  1        2 0.30489476E-01 0.89857353E+02</pdfrwt>
<pdfrwt beam="1">  1       -2 0.15670057E-02 0.89857353E+02</pdfrwt>
<totfact> 0.16033316E+05</totfact>
</mgrwt>
</event>
<event>
 5    1  0.6222456E+000  0.9203385E+02  0.7546771E-02  0.1298000E+00
          1   -1    0    0  501    0  0.00000000000E+00  0.00000000000E+00  0.14486477790E+02  0.14486477790E+02  0.00000000000E+00 0. -1.
         -1   -1    0    0    0  501 -0.00000000000E+00 -0.00000000000E+00 -0.14617476715E+03  0.14617476715E+03  0.00000000000E+00 0.  1.
         23    2    1    2    0    0  0.00000000000E+00  0.00000000000E+00 -0.13168828936E+03  0.16066124494E+03  0.92033852854E+02 0.  0.
        -11    1    3    3    0    0 -0.44400212849E+02  0.35879551955E+01 -0.85999342290E+02  0.96851118723E+02  0.00000000000E+00 0.  1.
         11    1    3    3    0    0  0.44400212849E+02 -0.35879551955E+01 -0.45688947073E+02  0.63810126220E+02  0.00000000000E+00 0. -1.
<mgrwt>
<rscale>  0 0.92033853E+02</rscale>
<asrwt>0</asrwt>
<pdfrwt beam="1">  1        1 0.22286890E-02 0.92033853E+02</pdfrwt>
<pdfrwt beam="2">  1       -1 0.22488425E-01 0.92033853E+02</pdfrwt>
<totfact> 0.73432193E+04</totfact>
</mgrwt>
</event>
<event>
 5    1  0.6222456E+000  0.9238661E+02  0.7546771E-02  0.1297173E+00
         -2   -1    0    0    0  501 -0.00000000000E+00  0.00000000000E+00  0.20652093973E+02  0.20652093973E+02  0.00000000000E+00 0.  1.
          2   -1    0    0  501    0  0.00000000000E+00 -0.00000000000E+00 -0.10332227913E+03  0.10332227913E+03  0.00000000000E+00 0. -1.
         23    2    1    2    0    0  0.00000000000E+00  0.00000000000E+00 -0.82670185152E+02  0.12397437310E+03  0.92386609810E+02 0.  0.
        -11    1    3    3    0    0 -0.27893531271E+02 -0.21821941833E+02 -0.15372642221E+01  0.35448687048E+02  0.00000000000E+00 0.  1.
         11    1    3    3    0    0  0.27893531271E+02  0.21821941833E+02 -0.81132920930E+02  0.88525686051E+02  0.00000000000E+00 0. -1.
<mgrwt>
<rscale>  0 0.92386610E+02</rscale>
<asrwt>0</asrwt>
<pdfrwt beam="2">  1        2 0.15895735E-01 0.92386610E+02</pdfrwt>
<pdfrwt beam="1">  1       -2 0.31772452E-02 0.92386610E+02</pdfrwt>
<totfact> 0.11949055E+05</totfact>
</mgrwt>
</event>
<event>
 5    1  0.6222456E+000  0.8855652E+02  0.7546771E-02  0.1306385E+00
          1   -1    0    0  501    0  0.00000000000E+00  0.00000000000E+00  0.40194230705E+02  0.40194230705E+02  0.00000000000E+00 0. -1.
         -1   -1    0    0    0  501 -0.00000000000E+00 -0.00000000000E+00 -0.48777255132E+02  0.48777255132E+02  0.00000000000E+00 0.  1.
         23    2    1    2    0    0  0.00000000000E+00  0.00000000000E+00 -0.85830244270E+01  0.88971485837E+02  0.88556518584E+02 0.  0.
        -11    1    3    3    0    0 -0.11429796881E+02  0.34278627683E+02 -0.30002436858E+02  0.46966059979E+02  0.00000000000E+00 0.  1.
         11    1    3    3    0    0  0.11429796881E+02 -0.34278627683E+02  0.21419412431E+02  0.42005425857E+02  0.00000000000E+00 0. -1.
<mgrwt>
<rscale>  0 0.88556519E+02</rscale>
<asrwt>0</asrwt>
<pdfrwt beam="1">  1        1 0.61837278E-02 0.88556519E+02</pdfrwt>
<pdfrwt beam="2">  1       -1 0.75041931E-02 0.88556519E+02</pdfrwt>
<totfact> 0.98491299E+04</totfact>
</mgrwt>
</event>
<event>
 5    1  0.6222456E+000  0.9114124E+02  0.7546771E-02  0.1300111E+00
          4   -1    0    0  501    0  0.00000000000E+00  0.00000000000E+00  0.94455202971E+02  0.94455202971E+02  0.00000000000E+00 0. -1.
         -4   -1    0    0    0  501 -0.00000000000E+00 -0.00000000000E+00 -0.21985886748E+02  0.21985886748E+02  0.00000000000E+00 0.  1.
         23    2    1    2    0    0  0.00000000000E+00  0.00000000000E+00  0.72469316223E+02  0.11644108972E+03  0.91141239738E+02 0.  0.
        -11    1    3    3    0    0 -0.28220798315E+02  0.85297271552E+01 -0.81606425756E+01  0.30590289148E+02  0.00000000000E+00 0.  1.
         11    1    3    3    0    0  0.28220798315E+02 -0.85297271552E+01  0.80629958798E+02  0.85850800571E+02  0.00000000000E+00 0. -1.
<mgrwt>
<rscale>  0 0.91141240E+02</rscale>
<asrwt>0</asrwt>
<pdfrwt beam="1">  1        4 0.14531569E-01 0.91141240E+02</pdfrwt>
<pdfrwt beam="2">  1       -4 0.33824442E-02 0.91141240E+02</pdfrwt>
<totfact> 0.25503071E+04</totfact>
</mgrwt>
</event>
<event>
 5    1  0.6222456E+000  0.8821824E+02  0.7546771E-02  0.1307225E+00
         -4   -1    0    0    0  501 -0.00000000000E+00  0.00000000000E+00  0.32708889828E+02  0.32708889828E+02  0.00000000000E+00 0.  1.
          4   -1    0    0  501    0  0.00000000000E+00 -0.00000000000E+00 -0.59482738063E+02  0.59482738063E+02  0.00000000000E+00 0. -1.
         23    2    1    2    0    0  0.00000000000E+00  0.00000000000E+00 -0.26773848235E+02  0.92191627890E+02  0.88218236798E+02 0.  0.
        -11    1    3    3    0    0 -0.84671911667E+01 -0.25207156879E+02  0.23390784254E+02  0.35415009138E+02  0.00000000000E+00 0.  1.
         11    1    3    3    0    0  0.84671911667E+01  0.25207156879E+02 -0.50164632489E+02  0.56776618753E+02  0.00000000000E+00 0. -1.
<mgrwt>
<rscale>  0 0.88218237E+02</rscale>
<asrwt>0</asrwt>
<pdfrwt beam="2">  1        4 0.91511902E-02 0.88218237E+02</pdfrwt>
<pdfrwt beam="1">  1       -4 0.50321370E-02 0.88218237E+02</pdfrwt>
<totfact> 0.29464438E+04</totfact>
</mgrwt>
</event>
<event>
 5    1  0.6222456E+000  0.8255899E+02  0.7546771E-02  0.1321942E+00
          1   -1    0    0  501    0  0.00000000000E+00  0.00000000000E+00  0.33657852715E+03  0.33657852715E+03  0.00000000000E+00 0. -1.
         -1   -1    0    0    0  501 -0.00000000000E+00 -0.00000000000E+00 -0.50627017713E+01  0.50627017713E+01  0.00000000000E+00 0.  1.
         23    2    1    2    0    0  0.00000000000E+00  0.00000000000E+00  0.33151582538E+03  0.34164122892E+03  0.82558989955E+02 0.  0.
        -11    1    3    3    0    0  0.33366155639E+02  0.18979862108E+02  0.10293691754E+03  0.10986147869E+03  0.00000000000E+00 0.  1.
         11    1    3    3    0    0 -0.33366155639E+02 -0.18979862108E+02  0.22857890783E+03  0.23177975023E+03  0.00000000000E+00 0. -1.
<mgrwt>
<rscale>  0 0.82558990E+02</rscale>
<asrwt>0</asrwt>
<pdfrwt beam="1">  1        1 0.51781294E-01 0.82558990E+02</pdfrwt>
<pdfrwt beam="2">  1       -1 0.77887746E-03 0.82558990E+02</pdfrwt>
<totfact> 0.17023723E+05</totfact>
</mgrwt>
</event>
<event>
 5    1  0.6222456E+000  0.9045290E+02  0.7546771E-02  0.1301759E+00
         -2   -1    0    0    0  501 -0.00000000000E+00  0.00000000000E+00  0.33777936986E+02  0.33777936986E+02  0.00000000000E+00 0. -1.
          2   -1    0    0  501    0  0.00000000000E+00 -0.00000000000E+00 -0.60555259784E+02  0.60555259784E+02  0.00000000000E+00 0.  1.
         23    2    1    2    0    0  0.00000000000E+00  0.00000000000E+00 -0.26777322798E+02  0.94333196770E+02  0.90452899327E+02 0.  0.
        -11    1    3    3    0    0 -0.84811160557E+01 -0.34497268912E+02 -0.42579405678E+02  0.55452652595E+02  0.00000000000E+00 0.  1.
         11    1    3    3    0    0  0.84811160557E+01  0.34497268912E+02  0.15802082880E+02  0.38880544175E+02  0.00000000000E+00 0. -1.
<mgrwt>
<rscale>  0 0.90452899E+02</rscale>
<asrwt>0</asrwt>
<pdfrwt beam="2">  1        2 0.93161937E-02 0.90452899E+02</pdfrwt>
<pdfrwt beam="1">  1       -2 0.51966057E-02 0.90452899E+02</pdfrwt>
<totfact> 0.10874555E+05</totfact>
</mgrwt>
</event>
<event>
 5    1  0.6222456E+000  0.9023794E+02  0.7546771E-02  0.1302277E+00
          1   -1    0    0  501    0  0.00000000000E+00  0.00000000000E+00  0.50425786327E+02  0.50425786327E+02  0.00000000000E+00 0. -1.
         -1   -1    0    0    0  501 -0.00000000000E+00 -0.00000000000E+00 -0.40370644146E+02  0.40370644146E+02  0.00000000000E+00 0.  1.
         23    2    1    2    0    0  0.00000000000E+00  0.00000000000E+00  0.10055142181E+02  0.90796430473E+02  0.90237940481E+02 0.  0.
        -11    1    3    3    0    0 -0.21782562477E+02 -0.18724396008E+02 -0.29982003249E+02  0.41521121766E+02  0.00000000000E+00 0.  1.
         11    1    3    3    0    0  0.21782562477E+02  0.18724396008E+02  0.40037145430E+02  0.49275308707E+02  0.00000000000E+00 0. -1.
<mgrwt>
<rscale>  0 0.90237940E+02</rscale>
<asrwt>0</asrwt>
<pdfrwt beam="1">  1        1 0.77578133E-02 0.90237940E+02</pdfrwt>
<pdfrwt beam="2">  1       -1 0.62108683E-02 0.90237940E+02</pdfrwt>
<totfact> 0.96634018E+04</totfact>
</mgrwt>
</event>
<event>
 5    1  0.6222456E+000  0.9140341E+02  0.7546771E-02  0.1299488E+00
          4   -1    0    0  501    0  0.00000000000E+00  0.00000000000E+00  0.15529116668E+03  0.15529116668E+03  0.00000000000E+00 0. -1.
         -4   -1    0    0    0  501 -0.00000000000E+00 -0.00000000000E+00 -0.13449869626E+02  0.13449869626E+02  0.00000000000E+00 0.  1.
         23    2    1    2    0    0  0.00000000000E+00  0.00000000000E+00  0.14184129706E+03  0.16874103631E+03  0.91403412321E+02 0.  0.
        -11    1    3    3    0    0 -0.36370204392E+02 -0.12801447334E+02  0.25625853707E+02  0.46296362704E+02  0.00000000000E+00 0.  1.
         11    1    3    3    0    0  0.36370204392E+02  0.12801447334E+02  0.11621544335E+03  0.12244467361E+03  0.00000000000E+00 0. -1.
<mgrwt>
<rscale>  0 0.91403412E+02</rscale>
<asrwt>0</asrwt>
<pdfrwt beam="1">  1        4 0.23890948E-01 0.91403412E+02</pdfrwt>
<pdfrwt beam="2">  1       -4 0.20692108E-02 0.91403412E+02</pdfrwt>
<totfact> 0.22614653E+04</totfact>
</mgrwt>
</event>
<event>
 5    1  0.6222456E+000  0.9078005E+02  0.7546771E-02  0.1300974E+00
          1   -1    0    0  501    0  0.00000000000E+00  0.00000000000E+00  0.81661802824E+02  0.81661802824E+02  0.00000000000E+00 0. -1.
         -1   -1    0    0    0  501 -0.00000000000E+00 -0.00000000000E+00 -0.25229107988E+02  0.25229107988E+02  0.00000000000E+00 0.  1.
         23    2    1    2    0    0  0.00000000000E+00  0.00000000000E+00  0.56432694837E+02  0.10689091081E+03  0.90780051595E+02 0.  0.
        -11    1    3    3    0    0  0.30616939003E+02  0.10348362884E+02  0.65743689209E+02  0.73257888579E+02  0.00000000000E+00 0. -1.
         11    1    3    3    0    0 -0.30616939003E+02 -0.10348362884E+02 -0.93109943720E+01  0.33633022233E+02  0.00000000000E+00 0.  1.
<mgrwt>
<rscale>  0 0.90780052E+02</rscale>
<asrwt>0</asrwt>
<pdfrwt beam="1">  1        1 0.12563354E-01 0.90780052E+02</pdfrwt>
<pdfrwt beam="2">  1       -1 0.38814013E-02 0.90780052E+02</pdfrwt>
<totfact> 0.10228800E+05</totfact>
</mgrwt>
</event>
<event>
 5    1  0.6222456E+000  0.9029178E+02  0.7546771E-02  0.1302147E+00
          1   -1    0    0  501    0  0.00000000000E+00  0.00000000000E+00  0.55316527966E+02  0.55316527966E+02  0.00000000000E+00 0. -1.
         -1   -1    0    0    0  501 -0.00000000000E+00 -0.00000000000E+00 -0.36845247408E+02  0.36845247408E+02  0.00000000000E+00 0.  1.
         23    2    1    2    0    0  0.00000000000E+00  0.00000000000E+00  0.18471280559E+02  0.92161775374E+02  0.90291775011E+02 0.  0.
        -11    1    3    3    0    0  0.15883877527E+02 -0.37361290207E+02 -0.10921458950E+02  0.42040954281E+02  0.00000000000E+00 0.  1.
         11    1    3    3    0    0 -0.15883877527E+02  0.37361290207E+02  0.29392739509E+02  0.50120821093E+02  0.00000000000E+00 0. -1.
<mgrwt>
<rscale>  0 0.90291775E+02</rscale>
<asrwt>0</asrwt>
<pdfrwt beam="1">  1        1 0.85102352E-02 0.90291775E+02</pdfrwt>
<pdfrwt beam="2">  1       -1 0.56684995E-02 0.90291775E+02</pdfrwt>
<totfact> 0.97813007E+04</totfact>
</mgrwt>
</event>
<event>
 5    1  0.6222456E+000  0.1140828E+03  0.7546771E-02  0.1253191E+00
          2   -1    0    0  501    0  0.00000000000E+00  0.00000000000E+00  0.93049770634E+02  0.93049770634E+02  0.00000000000E+00 0. -1.
         -2   -1    0    0    0  501 -0.00000000000E+00 -0.00000000000E+00 -0.34967563405E+02  0.34967563405E+02  0.00000000000E+00 0.  1.
         23    2    1    2    0    0  0.00000000000E+00  0.00000000000E+00  0.58082207228E+02  0.12801733404E+03  0.11408284278E+03 0.  0.
        -11    1    3    3    0    0 -0.30600733528E+02 -0.31366818602E+02 -0.11935450724E+02  0.45417366564E+02  0.00000000000E+00 0.  1.
         11    1    3    3    0    0  0.30600733528E+02  0.31366818602E+02  0.70017657953E+02  0.82599967475E+02  0.00000000000E+00 0. -1.
<mgrwt>
<rscale>  0 0.11408284E+03</rscale>
<asrwt>0</asrwt>
<pdfrwt beam="1">  1        2 0.14315349E-01 0.11408284E+03</pdfrwt>
<pdfrwt beam="2">  1       -2 0.53796252E-02 0.11408284E+03</pdfrwt>
<totfact> 0.63913276E+04</totfact>
</mgrwt>
</event>
<event>
 5    1  0.6222456E+000  0.9259628E+02  0.7546771E-02  0.1296683E+00
         -2   -1    0    0    0  501 -0.00000000000E+00  0.00000000000E+00  0.75629723011E+02  0.75629723011E+02  0.00000000000E+00 0.  1.
          2   -1    0    0  501    0  0.00000000000E+00 -0.00000000000E+00 -0.28342269470E+02  0.28342269470E+02  0.00000000000E+00 0. -1.
         23    2    1    2    0    0  0.00000000000E+00  0.00000000000E+00  0.47287453541E+02  0.10397199248E+03  0.92596284796E+02 0.  0.
        -11    1    3    3    0    0 -0.43229215867E+02 -0.16555715420E+02  0.24556746195E+02  0.52401246180E+02  0.00000000000E+00 0.  1.
         11    1    3    3    0    0  0.43229215867E+02  0.16555715420E+02  0.22730707346E+02  0.51570746301E+02  0.00000000000E+00 0. -1.
<mgrwt>
<rscale>  0 0.92596285E+02</rscale>
<asrwt>0</asrwt>
<pdfrwt beam="2">  1        2 0.43603492E-02 0.92596285E+02</pdfrwt>
<pdfrwt beam="1">  1       -2 0.11635342E-01 0.92596285E+02</pdfrwt>
<totfact> 0.83190306E+04</totfact>
</mgrwt>
</event>
<event>
 5    1  0.6222456E+000  0.9170149E+02  0.7546771E-02  0.1298783E+00
         -1   -1    0    0    0  501 -0.00000000000E+00  0.00000000000E+00  0.26220951334E+03  0.26220951334E+03  0.00000000000E+00 0.  1.
          1   -1    0    0  501    0  0.00000000000E+00 -0.00000000000E+00 -0.80175992284E+01  0.80175992284E+01  0.00000000000E+00 0. -1.
         23    2    1    2    0    0  0.00000000000E+00  0.00000000000E+00  0.25419191411E+03  0.27022711257E+03  0.91701489450E+02 0.  0.
        -11    1    3    3    0    0  0.78880436377E+00  0.41177210260E+02  0.18648033330E+03  0.19097408088E+03  0.00000000000E+00 0.  1.
         11    1    3    3    0    0 -0.78880436377E+00 -0.41177210260E+02  0.67711580810E+02  0.79253031695E+02  0.00000000000E+00 0. -1.
<mgrwt>
<rscale>  0 0.91701489E+02</rscale>
<asrwt>0</asrwt>
<pdfrwt beam="2">  1        1 0.12334770E-02 0.91701489E+02</pdfrwt>
<pdfrwt beam="1">  1       -1 0.40339919E-01 0.91701489E+02</pdfrwt>
<totfact> 0.62757132E+04</totfact>
</mgrwt>
</event>
<event>
 5    1  0.6222456E+000  0.9141838E+02  0.7546771E-02  0.1299453E+00
         -1   -1    0    0    0  501 -0.00000000000E+00  0.00000000000E+00  0.89425575623E+01  0.89425575623E+01  0.00000000000E+00 0.  1.
          1   -1    0    0  501    0  0.00000000000E+00 -0.00000000000E+00 -0.23363897132E+03  0.23363897132E+03  0.00000000000E+00 0. -1.
         23    2    1    2    0    0  0.00000000000E+00  0.00000000000E+00 -0.22469641375E+03  0.24258152888E+03  0.91418377798E+02 0.  0.
        -11    1    3    3    0    0  0.18434254213E+02  0.41630778432E+02 -0.12308976872E+03  0.13124036957E+03  0.00000000000E+00 0. -1.
         11    1    3    3    0    0 -0.18434254213E+02 -0.41630778432E+02 -0.10160664504E+03  0.11134115931E+03  0.00000000000E+00 0.  1.
<mgrwt>
<rscale>  0 0.91418378E+02</rscale>
<asrwt>0</asrwt>
<pdfrwt beam="2">  1        1 0.35944451E-01 0.91418378E+02</pdfrwt>
<pdfrwt beam="1">  1       -1 0.13757783E-02 0.91418378E+02</pdfrwt>
<totfact> 0.12118715E+05</totfact>
</mgrwt>
</event>
<event>
 5    1  0.6222456E+000  0.9092617E+02  0.7546771E-02  0.1300624E+00
          3   -1    0    0  501    0  0.00000000000E+00  0.00000000000E+00  0.12931096179E+03  0.12931096179E+03  0.00000000000E+00 0. -1.
         -3   -1    0    0    0  501 -0.00000000000E+00 -0.00000000000E+00 -0.15983890058E+02  0.15983890058E+02  0.00000000000E+00 0.  1.
         23    2    1    2    0    0  0.00000000000E+00  0.00000000000E+00  0.11332707174E+03  0.14529485185E+03  0.90926172176E+02 0.  0.
        -11    1    3    3    0    0 -0.34004275670E+02 -0.30616992872E-01  0.84437520363E+01  0.35036961194E+02  0.00000000000E+00 0.  1.
         11    1    3    3    0    0  0.34004275670E+02  0.30616992872E-01  0.10488331970E+03  0.11025789066E+03  0.00000000000E+00 0. -1.
<mgrwt>
<rscale>  0 0.90926172E+02</rscale>
<asrwt>0</asrwt>
<pdfrwt beam="1">  1        3 0.19893993E-01 0.90926172E+02</pdfrwt>
<pdfrwt beam="2">  1       -3 0.24590601E-02 0.90926172E+02</pdfrwt>
<totfact> 0.31833886E+04</totfact>
</mgrwt>
</event>
<event>
 5    1  0.6222456E+000  0.9270547E+02  0.7546771E-02  0.1296429E+00
          2   -1    0    0  501    0  0.00000000000E+00  0.00000000000E+00  0.29500996441E+03  0.29500996441E+03  0.00000000000E+00 0. -1.
         -2   -1    0    0    0  501 -0.00000000000E+00 -0.00000000000E+00 -0.72830618554E+01  0.72830618554E+01  0.00000000000E+00 0.  1.
         23    2    1    2    0    0  0.00000000000E+00  0.00000000000E+00  0.28772690255E+03  0.30229302626E+03  0.92705465184E+02 0.  0.
        -11    1    3    3    0    0  0.16606949958E+02  0.36230231028E+02  0.22103852465E+03  0.22460287133E+03  0.00000000000E+00 0. -1.
         11    1    3    3    0    0 -0.16606949958E+02 -0.36230231028E+02  0.66688377899E+02  0.77690154936E+02  0.00000000000E+00 0.  1.
<mgrwt>
<rscale>  0 0.92705465E+02</rscale>
<asrwt>0</asrwt>
<pdfrwt beam="1">  1        2 0.45386139E-01 0.92705465E+02</pdfrwt>
<pdfrwt beam="2">  1       -2 0.11204713E-02 0.92705465E+02</pdfrwt>
<totfact> 0.17077934E+05</totfact>
</mgrwt>
</event>
<event>
 5    1  0.6222456E+000  0.9207343E+02  0.7546771E-02  0.1297907E+00
          1   -1    0    0  501    0  0.00000000000E+00  0.00000000000E+00  0.31265497888E+02  0.31265497888E+02  0.00000000000E+00 0. -1.
         -1   -1    0    0    0  501 -0.00000000000E+00 -0.00000000000E+00 -0.67786515552E+02  0.67786515552E+02  0.00000000000E+00 0.  1.
         23    2    1    2    0    0  0.00000000000E+00  0.00000000000E+00 -0.36521017664E+02  0.99052013440E+02  0.92073430670E+02 0.  0.
        -11    1    3    3    0    0 -0.27546090687E+02  0.27407547791E+02 -0.44817982129E+02  0.59317891990E+02  0.00000000000E+00 0.  1.
         11    1    3    3    0    0  0.27546090687E+02 -0.27407547791E+02  0.82969644651E+01  0.39734121449E+02  0.00000000000E+00 0. -1.
<mgrwt>
<rscale>  0 0.92073431E+02</rscale>
<asrwt>0</asrwt>
<pdfrwt beam="1">  1        1 0.48100766E-02 0.92073431E+02</pdfrwt>
<pdfrwt beam="2">  1       -1 0.10428695E-01 0.92073431E+02</pdfrwt>
<totfact> 0.84844906E+04</totfact>
</mgrwt>
</event>
<event>
 5    1  0.6222456E+000  0.9177027E+02  0.7546771E-02  0.1298620E+00
          1   -1    0    0  501    0  0.00000000000E+00  0.00000000000E+00  0.30062778382E+03  0.30062778382E+03  0.00000000000E+00 0. -1.
         -1   -1    0    0    0  501 -0.00000000000E+00 -0.00000000000E+00 -0.70034961020E+01  0.70034961020E+01  0.00000000000E+00 0.  1.
         23    2    1    2    0    0  0.00000000000E+00  0.00000000000E+00  0.29362428772E+03  0.30763127993E+03  0.91770267781E+02 0.  0.
        -11    1    3    3    0    0 -0.16892004003E+02 -0.37037469047E+02  0.75833423000E+02  0.86068704862E+02  0.00000000000E+00 0.  1.
         11    1    3    3    0    0  0.16892004003E+02  0.37037469047E+02  0.21779086472E+03  0.22156257506E+03  0.00000000000E+00 0. -1.
<mgrwt>
<rscale>  0 0.91770268E+02</rscale>
<asrwt>0</asrwt>
<pdfrwt beam="1">  1        1 0.46250418E-01 0.91770268E+02</pdfrwt>
<pdfrwt beam="2">  1       -1 0.10774612E-02 0.91770268E+02</pdfrwt>
<totfact> 0.12597433E+05</totfact>
</mgrwt>
</event>
<event>
 5    1  0.6222456E+000  0.9083237E+02  0.7546771E-02  0.1300848E+00
          2   -1    0    0  501    0  0.00000000000E+00  0.00000000000E+00  0.36381148657E+02  0.36381148657E+02  0.00000000000E+00 0. -1.
         -2   -1    0    0    0  501 -0.00000000000E+00 -0.00000000000E+00 -0.56695022416E+02  0.56695022416E+02  0.00000000000E+00 0.  1.
         23    2    1    2    0    0  0.00000000000E+00  0.00000000000E+00 -0.20313873759E+02  0.93076171073E+02  0.90832373934E+02 0.  0.
        -11    1    3    3    0    0 -0.80436260955E+01  0.32976402691E+02  0.20762723506E+02  0.39789869849E+02  0.00000000000E+00 0. -1.
         11    1    3    3    0    0  0.80436260955E+01 -0.32976402691E+02 -0.41076597265E+02  0.53286301224E+02  0.00000000000E+00 0.  1.
<mgrwt>
<rscale>  0 0.90832374E+02</rscale>
<asrwt>0</asrwt>
<pdfrwt beam="1">  1        2 0.55970998E-02 0.90832374E+02</pdfrwt>
<pdfrwt beam="2">  1       -2 0.87223111E-02 0.90832374E+02</pdfrwt>
<totfact> 0.94104879E+04</totfact>
</mgrwt>
</event>
<event>
 5    1  0.6222456E+000  0.1103844E+03  0.7546771E-02  0.1259860E+00
          2   -1    0    0  501    0  0.00000000000E+00  0.00000000000E+00  0.11568366415E+02  0.11568366415E+02  0.00000000000E+00 0. -1.
         -2   -1    0    0    0  501 -0.00000000000E+00 -0.00000000000E+00 -0.26331977434E+03  0.26331977434E+03  0.00000000000E+00 0.  1.
         23    2    1    2    0    0  0.00000000000E+00  0.00000000000E+00 -0.25175140792E+03  0.27488814075E+03  0.11038441256E+03 0.  0.
        -11    1    3    3    0    0  0.48806118508E+02 -0.24734863735E+02 -0.14389008093E+03  0.15394221669E+03  0.00000000000E+00 0.  1.
         11    1    3    3    0    0 -0.48806118508E+02  0.24734863735E+02 -0.10786132699E+03  0.12094592406E+03  0.00000000000E+00 0. -1.
<mgrwt>
<rscale>  0 0.11038441E+03</rscale>
<asrwt>0</asrwt>
<pdfrwt beam="1">  1        2 0.17797486E-02 0.11038441E+03</pdfrwt>
<pdfrwt beam="2">  1       -2 0.40510737E-01 0.11038441E+03</pdfrwt>
<totfact> 0.33423632E+04</totfact>
</mgrwt>
</event>
<event>
 5    1  0.6222456E+000  0.9332742E+02  0.7546771E-02  0.1294988E+00
          1   -1    0    0  501    0  0.00000000000E+00  0.00000000000E+00  0.10400097553E+03  0.10400097553E+03  0.00000000000E+00 0. -1.
         -1   -1    0    0    0  501 -0.00000000000E+00 -0.00000000000E+00 -0.20937320123E+02  0.20937320123E+02  0.00000000000E+00 0.  1.
         23    2    1    2    0    0  0.00000000000E+00  0.00000000000E+00  0.83063655405E+02  0.12493829565E+03  0.93327417573E+02 0.  0.
        -11    1    3    3    0    0  0.39814028176E+02  0.24184653983E+02  0.37878502155E+02  0.60040280257E+02  0.00000000000E+00 0. -1.
         11    1    3    3    0    0 -0.39814028176E+02 -0.24184653983E+02  0.45185153250E+02  0.64898015394E+02  0.00000000000E+00 0.  1.
<mgrwt>
<rscale>  0 0.93327418E+02</rscale>
<asrwt>0</asrwt>
<pdfrwt beam="1">  1        1 0.16000150E-01 0.93327418E+02</pdfrwt>
<pdfrwt beam="2">  1       -1 0.32211262E-02 0.93327418E+02</pdfrwt>
<totfact> 0.98656612E+04</totfact>
</mgrwt>
</event>
<event>
 5    1  0.6222456E+000  0.9090797E+02  0.7546771E-02  0.1300668E+00
         -2   -1    0    0    0  501 -0.00000000000E+00  0.00000000000E+00  0.23256917708E+02  0.23256917708E+02  0.00000000000E+00 0.  1.
          2   -1    0    0  501    0  0.00000000000E+00 -0.00000000000E+00 -0.88836577287E+02  0.88836577287E+02  0.00000000000E+00 0. -1.
         23    2    1    2    0    0  0.00000000000E+00  0.00000000000E+00 -0.65579659579E+02  0.11209349499E+03  0.90907974730E+02 0.  0.
        -11    1    3    3    0    0  0.32006581289E+02 -0.21766405285E+02 -0.34064419891E+01  0.38856164143E+02  0.00000000000E+00 0.  1.
         11    1    3    3    0    0 -0.32006581289E+02  0.21766405285E+02 -0.62173217590E+02  0.73237330852E+02  0.00000000000E+00 0. -1.
<mgrwt>
<rscale>  0 0.90907975E+02</rscale>
<asrwt>0</asrwt>
<pdfrwt beam="2">  1        2 0.13667166E-01 0.90907975E+02</pdfrwt>
<pdfrwt beam="1">  1       -2 0.35779874E-02 0.90907975E+02</pdfrwt>
<totfact> 0.11937388E+05</totfact>
</mgrwt>
</event>
<event>
 5    1  0.6222456E+000  0.8921408E+02  0.7546771E-02  0.1304766E+00
          3   -1    0    0  501    0  0.00000000000E+00  0.00000000000E+00  0.94810216845E+02  0.94810216845E+02  0.00000000000E+00 0. -1.
         -3   -1    0    0    0  501 -0.00000000000E+00 -0.00000000000E+00 -0.20987065476E+02  0.20987065476E+02  0.00000000000E+00 0.  1.
         23    2    1    2    0    0  0.00000000000E+00  0.00000000000E+00  0.73823151369E+02  0.11579728232E+03  0.89214084734E+02 0.  0.
        -11    1    3    3    0    0 -0.77385110849E+00 -0.36455069089E+02  0.70262540298E+02  0.79160567689E+02  0.00000000000E+00 0. -1.
         11    1    3    3    0    0  0.77385110849E+00  0.36455069089E+02  0.35606110715E+01  0.36636714632E+02  0.00000000000E+00 0.  1.
<mgrwt>
<rscale>  0 0.89214085E+02</rscale>
<asrwt>0</asrwt>
<pdfrwt beam="1">  1        3 0.14586187E-01 0.89214085E+02</pdfrwt>
<pdfrwt beam="2">  1       -3 0.32287794E-02 0.89214085E+02</pdfrwt>
<totfact> 0.35573095E+04</totfact>
</mgrwt>
</event>
<event>
 5    1  0.6222456E+000  0.9138355E+02  0.7546771E-02  0.1299535E+00
          2   -1    0    0  501    0  0.00000000000E+00  0.00000000000E+00  0.16040995070E+03  0.16040995070E+03  0.00000000000E+00 0. -1.
         -2   -1    0    0    0  501 -0.00000000000E+00 -0.00000000000E+00 -0.13015018042E+02  0.13015018042E+02  0.00000000000E+00 0.  1.
         23    2    1    2    0    0  0.00000000000E+00  0.00000000000E+00  0.14739493266E+03  0.17342496874E+03  0.91383552186E+02 0.  0.
        -11    1    3    3    0    0 -0.15176205260E+02  0.31727802461E+02  0.18343455031E+02  0.39666774479E+02  0.00000000000E+00 0.  1.
         11    1    3    3    0    0  0.15176205260E+02 -0.31727802461E+02  0.12905147762E+03  0.13375819426E+03  0.00000000000E+00 0. -1.
<mgrwt>
<rscale>  0 0.91383552E+02</rscale>
<asrwt>0</asrwt>
<pdfrwt beam="1">  1        2 0.24678452E-01 0.91383552E+02</pdfrwt>
<pdfrwt beam="2">  1       -2 0.20023106E-02 0.91383552E+02</pdfrwt>
<totfact> 0.14218702E+05</totfact>
</mgrwt>
</event>
<event>
 5    1  0.6222456E+000  0.8619747E+02  0.7546771E-02  0.1312330E+00
          1   -1    0    0  501    0  0.00000000000E+00  0.00000000000E+00  0.11418629075E+02  0.11418629075E+02  0.00000000000E+00 0. -1.
         -1   -1    0    0    0  501 -0.00000000000E+00 -0.00000000000E+00 -0.16267284174E+03  0.16267284174E+03  0.00000000000E+00 0.  1.
         23    2    1    2    0    0  0.00000000000E+00  0.00000000000E+00 -0.15125421266E+03  0.17409147081E+03  0.86197467257E+02 0.  0.
        -11    1    3    3    0    0  0.26225477279E+02  0.33498985812E+02 -0.89553122041E+02  0.99144941254E+02  0.00000000000E+00 0. -1.
         11    1    3    3    0    0 -0.26225477279E+02 -0.33498985812E+02 -0.61701090623E+02  0.74946529559E+02  0.00000000000E+00 0.  1.
<mgrwt>
<rscale>  0 0.86197467E+02</rscale>
<asrwt>0</asrwt>
<pdfrwt beam="1">  1        1 0.17567121E-02 0.86197467E+02</pdfrwt>
<pdfrwt beam="2">  1       -1 0.25026592E-01 0.86197467E+02</pdfrwt>
<totfact> 0.84839720E+04</totfact>
</mgrwt>
</event>
<event>
 5    1  0.6222456E+000  0.8072901E+02  0.7546771E-02  0.1326995E+00
         -1   -1    0    0    0  501 -0.00000000000E+00  0.00000000000E+00  0.62348088939E+02  0.62348088939E+02  0.00000000000E+00 0.  1.
          1   -1    0    0  501    0  0.00000000000E+00 -0.00000000000E+00 -0.26132211058E+02  0.26132211058E+02  0.00000000000E+00 0. -1.
         23    2    1    2    0    0  0.00000000000E+00  0.00000000000E+00  0.36215877882E+02  0.88480299997E+02  0.80729013848E+02 0.  0.
        -11    1    3    3    0    0 -0.17990159616E+02  0.29820352777E+02  0.40472956409E+02  0.53394376888E+02  0.00000000000E+00 0.  1.
         11    1    3    3    0    0  0.17990159616E+02 -0.29820352777E+02 -0.42570785277E+01  0.35085923108E+02  0.00000000000E+00 0. -1.
<mgrwt>
<rscale>  0 0.80729014E+02</rscale>
<asrwt>0</asrwt>
<pdfrwt beam="2">  1        1 0.40203402E-02 0.80729014E+02</pdfrwt>
<pdfrwt beam="1">  1       -1 0.95920136E-02 0.80729014E+02</pdfrwt>
<totfact> 0.12001371E+05</totfact>
</mgrwt>
</event>
<event>
 5    1  0.6222456E+000  0.8324266E+02  0.7546771E-02  0.1320093E+00
          4   -1    0    0  501    0  0.00000000000E+00  0.00000000000E+00  0.14097404866E+03  0.14097404866E+03  0.00000000000E+00 0. -1.
         -4   -1    0    0    0  501 -0.00000000000E+00 -0.00000000000E+00 -0.12288325601E+02  0.12288325601E+02  0.00000000000E+00 0.  1.
         23    2    1    2    0    0  0.00000000000E+00  0.00000000000E+00  0.12868572306E+03  0.15326237426E+03  0.83242657604E+02 0.  0.
        -11    1    3    3    0    0 -0.28565426432E+02 -0.30271256094E+02  0.64434522550E+02  0.76708149691E+02  0.00000000000E+00 0.  1.
         11    1    3    3    0    0  0.28565426432E+02  0.30271256094E+02  0.64251200513E+02  0.76554224573E+02  0.00000000000E+00 0. -1.
<mgrwt>
<rscale>  0 0.83242658E+02</rscale>
<asrwt>0</asrwt>
<pdfrwt beam="1">  1        4 0.21688314E-01 0.83242658E+02</pdfrwt>
<pdfrwt beam="2">  1       -4 0.18905117E-02 0.83242658E+02</pdfrwt>
<totfact> 0.29977196E+04</totfact>
</mgrwt>
</event>
<event>
 5    1  0.6222456E+000  0.1002126E+03  0.7546771E-02  0.1279849E+00
          1   -1    0    0  501    0  0.00000000000E+00  0.00000000000E+00  0.56913957766E+02  0.56913957766E+02  0.00000000000E+00 0. -1.
         -1   -1    0    0    0  501 -0.00000000000E+00 -0.00000000000E+00 -0.44112947812E+02  0.44112947812E+02  0.00000000000E+00 0.  1.
         23    2    1    2    0    0  0.00000000000E+00  0.00000000000E+00  0.12801009954E+02  0.10102690558E+03  0.10021262293E+03 0.  0.
        -11    1    3    3    0    0 -0.41474326043E+02  0.20743091089E+02  0.25534900536E+02  0.52937951358E+02  0.00000000000E+00 0. -1.
         11    1    3    3    0    0  0.41474326043E+02 -0.20743091089E+02 -0.12733890582E+02  0.48088954220E+02  0.00000000000E+00 0.  1.
<mgrwt>
<rscale>  0 0.10021262E+03</rscale>
<asrwt>0</asrwt>
<pdfrwt beam="1">  1        1 0.87559935E-02 0.10021262E+03</pdfrwt>
<pdfrwt beam="2">  1       -1 0.67866073E-02 0.10021262E+03</pdfrwt>
<totfact> 0.73365305E+04</totfact>
</mgrwt>
</event>
<event>
 5    1  0.6222456E+000  0.1084036E+03  0.7546771E-02  0.1263555E+00
          1   -1    0    0  501    0  0.00000000000E+00  0.00000000000E+00  0.43157084881E+02  0.43157084881E+02  0.00000000000E+00 0. -1.
         -1   -1    0    0    0  501 -0.00000000000E+00 -0.00000000000E+00 -0.68073051110E+02  0.68073051110E+02  0.00000000000E+00 0.  1.
         23    2    1    2    0    0  0.00000000000E+00  0.00000000000E+00 -0.24915966229E+02  0.11123013599E+03  0.10840358748E+03 0.  0.
        -11    1    3    3    0    0  0.37279156021E+02  0.34678115478E+02  0.66150596616E+01  0.51342635121E+02  0.00000000000E+00 0.  1.
         11    1    3    3    0    0 -0.37279156021E+02 -0.34678115478E+02 -0.31531025890E+02  0.59887500870E+02  0.00000000000E+00 0. -1.
<mgrwt>
<rscale>  0 0.10840359E+03</rscale>
<asrwt>0</asrwt>
<pdfrwt beam="1">  1        1 0.66395515E-02 0.10840359E+03</pdfrwt>
<pdfrwt beam="2">  1       -1 0.10472777E-01 0.10840359E+03</pdfrwt>
<totfact> 0.55925173E+04</totfact>
</mgrwt>
</event>
<event>
 5    1  0.6222456E+000  0.9204915E+02  0.7546771E-02  0.1297964E+00
         -2   -1    0    0    0  501 -0.00000000000E+00  0.00000000000E+00  0.44866645327E+02  0.44866645327E+02  0.00000000000E+00 0.  1.
          2   -1    0    0  501    0  0.00000000000E+00 -0.00000000000E+00 -0.47212385669E+02  0.47212385669E+02  0.00000000000E+00 0. -1.
         23    2    1    2    0    0  0.00000000000E+00  0.00000000000E+00 -0.23457403423E+01  0.92079030996E+02  0.92049146935E+02 0.  0.
        -11    1    3    3    0    0 -0.94923430642E+01  0.18167801841E+02  0.40048368540E+02  0.44989392342E+02  0.00000000000E+00 0.  1.
         11    1    3    3    0    0  0.94923430642E+01 -0.18167801841E+02 -0.42394108882E+02  0.47089638654E+02  0.00000000000E+00 0. -1.
<mgrwt>
<rscale>  0 0.92049147E+02</rscale>
<asrwt>0</asrwt>
<pdfrwt beam="2">  1        2 0.72634440E-02 0.92049147E+02</pdfrwt>
<pdfrwt beam="1">  1       -2 0.69025608E-02 0.92049147E+02</pdfrwt>
<totfact> 0.96893276E+04</totfact>
</mgrwt>
</event>
<event>
 5    1  0.6222456E+000  0.9179946E+02  0.7546771E-02  0.1298552E+00
         -1   -1    0    0    0  501 -0.00000000000E+00  0.00000000000E+00  0.13932575083E+02  0.13932575083E+02  0.00000000000E+00 0.  1.
          1   -1    0    0  501    0  0.00000000000E+00 -0.00000000000E+00 -0.15121291266E+03  0.15121291266E+03  0.00000000000E+00 0. -1.
         23    2    1    2    0    0  0.00000000000E+00  0.00000000000E+00 -0.13728033758E+03  0.16514548774E+03  0.91799460983E+02 0.  0.
        -11    1    3    3    0    0  0.23272482168E+02 -0.10491277546E+02 -0.16413088911E-01  0.25527937641E+02  0.00000000000E+00 0.  1.
         11    1    3    3    0    0 -0.23272482168E+02  0.10491277546E+02 -0.13726392449E+03  0.13961755010E+03  0.00000000000E+00 0. -1.
<mgrwt>
<rscale>  0 0.91799461E+02</rscale>
<asrwt>0</asrwt>
<pdfrwt beam="2">  1        1 0.23263525E-01 0.91799461E+02</pdfrwt>
<pdfrwt beam="1">  1       -1 0.21434731E-02 0.91799461E+02</pdfrwt>
<totfact> 0.11025383E+05</totfact>
</mgrwt>
</event>
<event>
 5    1  0.6222456E+000  0.1034027E+03  0.7546771E-02  0.1273299E+00
         -2   -1    0    0    0  501 -0.00000000000E+00  0.00000000000E+00  0.19541481190E+03  0.19541481190E+03  0.00000000000E+00 0.  1.
          2   -1    0    0  501    0  0.00000000000E+00 -0.00000000000E+00 -0.13678751858E+02  0.13678751858E+02  0.00000000000E+00 0. -1.
         23    2    1    2    0    0  0.00000000000E+00  0.00000000000E+00  0.18173606004E+03  0.20909356376E+03  0.10340272185E+03 0.  0.
        -11    1    3    3    0    0 -0.28346987561E+02 -0.37118747853E+02  0.13570630485E+03  0.14351848077E+03  0.00000000000E+00 0. -1.
         11    1    3    3    0    0  0.28346987561E+02  0.37118747853E+02  0.46029755185E+02  0.65575082984E+02  0.00000000000E+00 0.  1.
<mgrwt>
<rscale>  0 0.10340272E+03</rscale>
<asrwt>0</asrwt>
<pdfrwt beam="2">  1        2 0.21044235E-02 0.10340272E+03</pdfrwt>
<pdfrwt beam="1">  1       -2 0.30063815E-01 0.10340272E+03</pdfrwt>
<totfact> 0.45628852E+04</totfact>
</mgrwt>
</event>
<event>
 5    1  0.6222456E+000  0.8768172E+02  0.7546771E-02  0.1308565E+00
         -1   -1    0    0    0  501 -0.00000000000E+00  0.00000000000E+00  0.25745420569E+02  0.25745420569E+02  0.00000000000E+00 0.  1.
          1   -1    0    0  501    0  0.00000000000E+00 -0.00000000000E+00 -0.74654873995E+02  0.74654873995E+02  0.00000000000E+00 0. -1.
         23    2    1    2    0    0  0.00000000000E+00  0.00000000000E+00 -0.48909453426E+02  0.10040029456E+03  0.87681722805E+02 0.  0.
        -11    1    3    3    0    0  0.28666992741E+01  0.42876827832E+02 -0.14513126826E+02  0.45357151365E+02  0.00000000000E+00 0.  1.
         11    1    3    3    0    0 -0.28666992741E+01 -0.42876827832E+02 -0.34396326600E+02  0.55043143199E+02  0.00000000000E+00 0. -1.
<mgrwt>
<rscale>  0 0.87681723E+02</rscale>
<asrwt>0</asrwt>
<pdfrwt beam="2">  1        1 0.11485365E-01 0.87681723E+02</pdfrwt>
<pdfrwt beam="1">  1       -1 0.39608339E-02 0.87681723E+02</pdfrwt>
<totfact> 0.11092960E+05</totfact>
</mgrwt>
</event>
<event>
 5    1  0.6222456E+000  0.8373815E+02  0.7546771E-02  0.1318766E+00
          1   -1    0    0  501    0  0.00000000000E+00  0.00000000000E+00  0.21317760943E+02  0.21317760943E+02  0.00000000000E+00 0. -1.
         -1   -1    0    0    0  501 -0.00000000000E+00 -0.00000000000E+00 -0.82232807618E+02  0.82232807618E+02  0.00000000000E+00 0.  1.
         23    2    1    2    0    0  0.00000000000E+00  0.00000000000E+00 -0.60915046676E+02  0.10355056856E+03  0.83738147446E+02 0.  0.
        -11    1    3    3    0    0 -0.21669488366E+02 -0.62926749626E+01 -0.74070325470E+02  0.77431115190E+02  0.00000000000E+00 0.  1.
         11    1    3    3    0    0  0.21669488366E+02  0.62926749626E+01  0.13155278795E+02  0.26119453371E+02  0.00000000000E+00 0. -1.
<mgrwt>
<rscale>  0 0.83738147E+02</rscale>
<asrwt>0</asrwt>
<pdfrwt beam="1">  1        1 0.32796556E-02 0.83738147E+02</pdfrwt>
<pdfrwt beam="2">  1       -1 0.12651201E-01 0.83738147E+02</pdfrwt>
<totfact> 0.10474012E+05</totfact>
</mgrwt>
</event>
<event>
 5    1  0.6222456E+000  0.9203212E+02  0.7546771E-02  0.1298004E+00
          3   -1    0    0  501    0  0.00000000000E+00  0.00000000000E+00  0.76204053887E+02  0.76204053887E+02  0.00000000000E+00 0. -1.
         -3   -1    0    0    0  501 -0.00000000000E+00 -0.00000000000E+00 -0.27786941433E+02  0.27786941433E+02  0.00000000000E+00 0.  1.
         23    2    1    2    0    0  0.00000000000E+00  0.00000000000E+00  0.48417112454E+02  0.10399099532E+03  0.92032115749E+02 0.  0.
        -11    1    3    3    0    0  0.30625069982E+02  0.29028029369E+02  0.34669185795E+01  0.42338409569E+02  0.00000000000E+00 0.  1.
         11    1    3    3    0    0 -0.30625069982E+02 -0.29028029369E+02  0.44950193875E+02  0.61652585751E+02  0.00000000000E+00 0. -1.
<mgrwt>
<rscale>  0 0.92032116E+02</rscale>
<asrwt>0</asrwt>
<pdfrwt beam="1">  1        3 0.11723700E-01 0.92032116E+02</pdfrwt>
<pdfrwt beam="2">  1       -3 0.42749141E-02 0.92032116E+02</pdfrwt>
<totfact> 0.33513735E+04</totfact>
</mgrwt>
</event>
<event>
 5    1  0.6222456E+000  0.8789879E+02  0.7546771E-02  0.1308021E+00
          1   -1    0    0  501    0  0.00000000000E+00  0.00000000000E+00  0.83595233707E+02  0.83595233707E+02  0.00000000000E+00 0. -1.
         -1   -1    0    0    0  501 -0.00000000000E+00 -0.00000000000E+00 -0.23105976182E+02  0.23105976182E+02  0.00000000000E+00 0.  1.
         23    2    1    2    0    0  0.00000000000E+00  0.00000000000E+00  0.60489257525E+02  0.10670120989E+03  0.87898793598E+02 0.  0.
        -11    1    3    3    0    0 -0.12209390978E+02  0.34134163363E+02  0.83448198002E-01  0.36252135112E+02  0.00000000000E+00 0.  1.
         11    1    3    3    0    0  0.12209390978E+02 -0.34134163363E+02  0.60405809327E+02  0.70449074777E+02  0.00000000000E+00 0. -1.
<mgrwt>
<rscale>  0 0.87898794E+02</rscale>
<asrwt>0</asrwt>
<pdfrwt beam="1">  1        1 0.12860805E-01 0.87898794E+02</pdfrwt>
<pdfrwt beam="2">  1       -1 0.35547656E-02 0.87898794E+02</pdfrwt>
<totfact> 0.11212118E+05</totfact>
</mgrwt>
</event>
<event>
 5    1  0.6222456E+000  0.9045830E+02  0.7546771E-02  0.1301746E+00
         -1   -1    0    0    0  501 -0.00000000000E+00  0.00000000000E+00  0.17666005884E+02  0.17666005884E+02  0.00000000000E+00 0.  1.
          1   -1    0    0  501    0  0.00000000000E+00 -0.00000000000E+00 -0.11579730735E+03  0.11579730735E+03  0.00000000000E+00 0. -1.
         23    2    1    2    0    0  0.00000000000E+00  0.00000000000E+00 -0.98131301466E+02  0.13346331323E+03  0.90458297860E+02 0.  0.
        -11    1    3    3    0    0  0.11192392466E+02 -0.22136781076E+02 -0.10486608305E+03  0.10775992808E+03  0.00000000000E+00 0. -1.
         11    1    3    3    0    0 -0.11192392466E+02  0.22136781076E+02  0.67347815816E+01  0.25703385156E+02  0.00000000000E+00 0.  1.
<mgrwt>
<rscale>  0 0.90458298E+02</rscale>
<asrwt>0</asrwt>
<pdfrwt beam="2">  1        1 0.17814970E-01 0.90458298E+02</pdfrwt>
<pdfrwt beam="1">  1       -1 0.27178471E-02 0.90458298E+02</pdfrwt>
<totfact> 0.10939865E+05</totfact>
</mgrwt>
</event>
<event>
 5    1  0.6222456E+000  0.9067576E+02  0.7546771E-02  0.1301223E+00
          2   -1    0    0  501    0  0.00000000000E+00  0.00000000000E+00  0.15210512623E+02  0.15210512623E+02  0.00000000000E+00 0.  1.
         -2   -1    0    0    0  501 -0.00000000000E+00 -0.00000000000E+00 -0.13513833021E+03  0.13513833021E+03  0.00000000000E+00 0. -1.
         23    2    1    2    0    0  0.00000000000E+00  0.00000000000E+00 -0.11992781759E+03  0.15034884284E+03  0.90675758117E+02 0.  0.
        -11    1    3    3    0    0  0.33685589551E+02  0.82428831322E+01 -0.10838644883E+03  0.11379932494E+03  0.00000000000E+00 0. -1.
         11    1    3    3    0    0 -0.33685589551E+02 -0.82428831322E+01 -0.11541368755E+02  0.36549517896E+02  0.00000000000E+00 0.  1.
<mgrwt>
<rscale>  0 0.90675758E+02</rscale>
<asrwt>0</asrwt>
<pdfrwt beam="1">  1        2 0.23400789E-02 0.90675758E+02</pdfrwt>
<pdfrwt beam="2">  1       -2 0.20790512E-01 0.90675758E+02</pdfrwt>
<totfact> 0.73498171E+04</totfact>
</mgrwt>
</event>
<event>
 5    1  0.6222456E+000  0.9377668E+02  0.7546771E-02  0.1293955E+00
          3   -1    0    0  501    0  0.00000000000E+00  0.00000000000E+00  0.14481083081E+02  0.14481083081E+02  0.00000000000E+00 0. -1.
         -3   -1    0    0    0  501 -0.00000000000E+00 -0.00000000000E+00 -0.15181989956E+03  0.15181989956E+03  0.00000000000E+00 0.  1.
         23    2    1    2    0    0  0.00000000000E+00  0.00000000000E+00 -0.13733881648E+03  0.16630098264E+03  0.93776683219E+02 0.  0.
        -11    1    3    3    0    0 -0.15565730328E+02  0.37252656429E+02 -0.11095101763E+03  0.11806854231E+03  0.00000000000E+00 0.  1.
         11    1    3    3    0    0  0.15565730328E+02 -0.37252656429E+02 -0.26387798851E+02  0.48232440326E+02  0.00000000000E+00 0. -1.
<mgrwt>
<rscale>  0 0.93776683E+02</rscale>
<asrwt>0</asrwt>
<pdfrwt beam="1">  1        3 0.22278587E-02 0.93776683E+02</pdfrwt>
<pdfrwt beam="2">  1       -3 0.23356910E-01 0.93776683E+02</pdfrwt>
<totfact> 0.28110869E+04</totfact>
</mgrwt>
</event>
<event>
 5    1  0.6222456E+000  0.8878237E+02  0.7546771E-02  0.1305827E+00
         -1   -1    0    0    0  501 -0.00000000000E+00  0.00000000000E+00  0.37959771086E+02  0.37959771086E+02  0.00000000000E+00 0.  1.
          1   -1    0    0  501    0  0.00000000000E+00 -0.00000000000E+00 -0.51912257118E+02  0.51912257118E+02  0.00000000000E+00 0. -1.
         23    2    1    2    0    0  0.00000000000E+00  0.00000000000E+00 -0.13952486032E+02  0.89872028203E+02  0.88782372051E+02 0.  0.
        -11    1    3    3    0    0 -0.25503053990E+02  0.72119639563E+01  0.29072048687E+02  0.39339575515E+02  0.00000000000E+00 0.  1.
         11    1    3    3    0    0  0.25503053990E+02 -0.72119639563E+01 -0.43024534719E+02  0.50532452688E+02  0.00000000000E+00 0. -1.
<mgrwt>
<rscale>  0 0.88782372E+02</rscale>
<asrwt>0</asrwt>
<pdfrwt beam="2">  1        1 0.79865011E-02 0.88782372E+02</pdfrwt>
<pdfrwt beam="1">  1       -1 0.58399648E-02 0.88782372E+02</pdfrwt>
<totfact> 0.10154014E+05</totfact>
</mgrwt>
</event>
<event>
 5    1  0.6222456E+000  0.9019913E+02  0.7546771E-02  0.1302370E+00
         -1   -1    0    0    0  501 -0.00000000000E+00  0.00000000000E+00  0.18984996691E+03  0.18984996691E+03  0.00000000000E+00 0.  1.
          1   -1    0    0  501    0  0.00000000000E+00 -0.00000000000E+00 -0.10713568091E+02  0.10713568091E+02  0.00000000000E+00 0. -1.
         23    2    1    2    0    0  0.00000000000E+00  0.00000000000E+00  0.17913639882E+03  0.20056353500E+03  0.90199125220E+02 0.  0.
        -11    1    3    3    0    0  0.39834597494E+02  0.11294852028E+02  0.49816637673E+02  0.64777050171E+02  0.00000000000E+00 0. -1.
         11    1    3    3    0    0 -0.39834597494E+02 -0.11294852028E+02  0.12931976114E+03  0.13578648483E+03  0.00000000000E+00 0.  1.
<mgrwt>
<rscale>  0 0.90199125E+02</rscale>
<asrwt>0</asrwt>
<pdfrwt beam="2">  1        1 0.16482414E-02 0.90199125E+02</pdfrwt>
<pdfrwt beam="1">  1       -1 0.29207685E-01 0.90199125E+02</pdfrwt>
<totfact> 0.72450925E+04</totfact>
</mgrwt>
</event>
<event>
 5    1  0.6222456E+000  0.8937442E+02  0.7546771E-02  0.1304374E+00
         -1   -1    0    0    0  501 -0.00000000000E+00  0.00000000000E+00  0.21795882918E+02  0.21795882918E+02  0.00000000000E+00 0.  1.
          1   -1    0    0  501    0  0.00000000000E+00 -0.00000000000E+00 -0.91620365856E+02  0.91620365856E+02  0.00000000000E+00 0. -1.
         23    2    1    2    0    0  0.00000000000E+00  0.00000000000E+00 -0.69824482939E+02  0.11341624877E+03  0.89374420660E+02 0.  0.
        -11    1    3    3    0    0  0.97676228269E+01 -0.14937259752E+02 -0.86901327056E+02  0.88715099214E+02  0.00000000000E+00 0. -1.
         11    1    3    3    0    0 -0.97676228269E+01  0.14937259752E+02  0.17076844117E+02  0.24701149560E+02  0.00000000000E+00 0.  1.
<mgrwt>
<rscale>  0 0.89374421E+02</rscale>
<asrwt>0</asrwt>
<pdfrwt beam="2">  1        1 0.14095441E-01 0.89374421E+02</pdfrwt>
<pdfrwt beam="1">  1       -1 0.33532128E-02 0.89374421E+02</pdfrwt>
<totfact> 0.10872052E+05</totfact>
</mgrwt>
</event>
<event>
 5    1  0.6222456E+000  0.9064138E+02  0.7546771E-02  0.1301306E+00
         -3   -1    0    0    0  501 -0.00000000000E+00  0.00000000000E+00  0.11203648625E+03  0.11203648625E+03  0.00000000000E+00 0.  1.
          3   -1    0    0  501    0  0.00000000000E+00 -0.00000000000E+00 -0.18333001619E+02  0.18333001619E+02  0.00000000000E+00 0. -1.
         23    2    1    2    0    0  0.00000000000E+00  0.00000000000E+00  0.93703484631E+02  0.13036948787E+03  0.90641383128E+02 0.  0.
        -11    1    3    3    0    0 -0.15569962179E+02  0.22161651589E+02  0.99115738616E+02  0.10274965774E+03  0.00000000000E+00 0.  1.
         11    1    3    3    0    0  0.15569962179E+02 -0.22161651589E+02 -0.54122539853E+01  0.27619830134E+02  0.00000000000E+00 0. -1.
<mgrwt>
<rscale>  0 0.90641383E+02</rscale>
<asrwt>0</asrwt>
<pdfrwt beam="2">  1        3 0.28204619E-02 0.90641383E+02</pdfrwt>
<pdfrwt beam="1">  1       -3 0.17236382E-01 0.90641383E+02</pdfrwt>
<totfact> 0.33076862E+04</totfact>
</mgrwt>
</event>
<event>
 5    1  0.6222456E+000  0.9193096E+02  0.7546771E-02  0.1298242E+00
          1   -1    0    0  501    0  0.00000000000E+00  0.00000000000E+00  0.78176411905E+02  0.78176411905E+02  0.00000000000E+00 0. -1.
         -1   -1    0    0    0  501 -0.00000000000E+00 -0.00000000000E+00 -0.27026381994E+02  0.27026381994E+02  0.00000000000E+00 0.  1.
         23    2    1    2    0    0  0.00000000000E+00  0.00000000000E+00  0.51150029911E+02  0.10520279390E+03  0.91930964773E+02 0.  0.
        -11    1    3    3    0    0  0.14484542685E+02  0.23784989793E+02 -0.16273449759E+02  0.32254501752E+02  0.00000000000E+00 0.  1.
         11    1    3    3    0    0 -0.14484542685E+02 -0.23784989793E+02  0.67423479670E+02  0.72948292146E+02  0.00000000000E+00 0. -1.
<mgrwt>
<rscale>  0 0.91930965E+02</rscale>
<asrwt>0</asrwt>
<pdfrwt beam="1">  1        1 0.12027140E-01 0.91930965E+02</pdfrwt>
<pdfrwt beam="2">  1       -1 0.41579050E-02 0.91930965E+02</pdfrwt>
<totfact> 0.98129902E+04</totfact>
</mgrwt>
</event>
<event>
 5    1  0.6222456E+000  0.9191483E+02  0.7546771E-02  0.1298280E+00
         -2   -1    0    0    0  501 -0.00000000000E+00  0.00000000000E+00  0.18786032561E+02  0.18786032561E+02  0.00000000000E+00 0.  1.
          2   -1    0    0  501    0  0.00000000000E+00 -0.00000000000E+00 -0.11242841850E+03  0.11242841850E+03  0.00000000000E+00 0. -1.
         23    2    1    2    0    0  0.00000000000E+00  0.00000000000E+00 -0.93642385941E+02  0.13121445106E+03  0.91914828634E+02 0.  0.
        -11    1    3    3    0    0 -0.26563606649E+02  0.14882304868E+02 -0.95962965192E+02  0.10067769805E+03  0.00000000000E+00 0. -1.
         11    1    3    3    0    0  0.26563606649E+02 -0.14882304868E+02  0.23205792515E+01  0.30536753011E+02  0.00000000000E+00 0.  1.
<mgrwt>
<rscale>  0 0.91914829E+02</rscale>
<asrwt>0</asrwt>
<pdfrwt beam="2">  1        2 0.17296680E-01 0.91914829E+02</pdfrwt>
<pdfrwt beam="1">  1       -2 0.28901588E-02 0.91914829E+02</pdfrwt>
<totfact> 0.12442249E+05</totfact>
</mgrwt>
</event>
<event>
 5    1  0.6222456E+000  0.8995888E+02  0.7546771E-02  0.1302951E+00
         -4   -1    0    0    0  501 -0.00000000000E+00  0.00000000000E+00  0.47311395875E+01  0.47311395875E+01  0.00000000000E+00 0.  1.
          4   -1    0    0  501    0  0.00000000000E+00 -0.00000000000E+00 -0.42762421725E+03  0.42762421725E+03  0.00000000000E+00 0. -1.
         23    2    1    2    0    0  0.00000000000E+00  0.00000000000E+00 -0.42289307767E+03  0.43235535684E+03  0.89958876445E+02 0.  0.
        -11    1    3    3    0    0  0.13852563421E+02  0.42007753235E+02 -0.25067039570E+03  0.25454310465E+03  0.00000000000E+00 0. -1.
         11    1    3    3    0    0 -0.13852563421E+02 -0.42007753235E+02 -0.17222268197E+03  0.17781225219E+03  0.00000000000E+00 0.  1.
<mgrwt>
<rscale>  0 0.89958876E+02</rscale>
<asrwt>0</asrwt>
<pdfrwt beam="2">  1        4 0.65788367E-01 0.89958876E+02</pdfrwt>
<pdfrwt beam="1">  1       -4 0.72786734E-03 0.89958876E+02</pdfrwt>
<totfact> 0.14943320E+04</totfact>
</mgrwt>
</event>
<event>
 5    1  0.6222456E+000  0.9085339E+02  0.7546771E-02  0.1300798E+00
          3   -1    0    0  501    0  0.00000000000E+00  0.00000000000E+00  0.11651312297E+02  0.11651312297E+02  0.00000000000E+00 0. -1.
         -3   -1    0    0    0  501 -0.00000000000E+00 -0.00000000000E+00 -0.17711175772E+03  0.17711175772E+03  0.00000000000E+00 0.  1.
         23    2    1    2    0    0  0.00000000000E+00  0.00000000000E+00 -0.16546044542E+03  0.18876307001E+03  0.90853385202E+02 0.  0.
        -11    1    3    3    0    0  0.33720438734E+02 -0.20741901649E+02 -0.12901558304E+03  0.13495301086E+03  0.00000000000E+00 0.  1.
         11    1    3    3    0    0 -0.33720438734E+02  0.20741901649E+02 -0.36444862377E+02  0.53810059153E+02  0.00000000000E+00 0. -1.
<mgrwt>
<rscale>  0 0.90853385E+02</rscale>
<asrwt>0</asrwt>
<pdfrwt beam="1">  1        3 0.17925097E-02 0.90853385E+02</pdfrwt>
<pdfrwt beam="2">  1       -3 0.27247961E-01 0.90853385E+02</pdfrwt>
<totfact> 0.29369884E+04</totfact>
</mgrwt>
</event>
<event>
 5    1  0.6222456E+000  0.9068746E+02  0.7546771E-02  0.1301195E+00
         -3   -1    0    0    0  501 -0.00000000000E+00  0.00000000000E+00  0.18543736511E+02  0.18543736511E+02  0.00000000000E+00 0.  1.
          3   -1    0    0  501    0  0.00000000000E+00 -0.00000000000E+00 -0.11087591480E+03  0.11087591480E+03  0.00000000000E+00 0. -1.
         23    2    1    2    0    0  0.00000000000E+00  0.00000000000E+00 -0.92332178293E+02  0.12941965132E+03  0.90687457778E+02 0.  0.
        -11    1    3    3    0    0 -0.89904791597E+00 -0.30278221296E+02  0.19859523455E+01  0.30356596956E+02  0.00000000000E+00 0.  1.
         11    1    3    3    0    0  0.89904791597E+00  0.30278221296E+02 -0.94318130638E+02  0.99063054360E+02  0.00000000000E+00 0. -1.
<mgrwt>
<rscale>  0 0.90687458E+02</rscale>
<asrwt>0</asrwt>
<pdfrwt beam="2">  1        3 0.17057833E-01 0.90687458E+02</pdfrwt>
<pdfrwt beam="1">  1       -3 0.28528826E-02 0.90687458E+02</pdfrwt>
<totfact> 0.33093230E+04</totfact>
</mgrwt>
</event>
<event>
 5    1  0.6222456E+000  0.9100214E+02  0.7546771E-02  0.1300443E+00
          1   -1    0    0  501    0  0.00000000000E+00  0.00000000000E+00  0.35839972230E+02  0.35839972230E+02  0.00000000000E+00 0. -1.
         -1   -1    0    0    0  501 -0.00000000000E+00 -0.00000000000E+00 -0.57766430990E+02  0.57766430990E+02  0.00000000000E+00 0.  1.
         23    2    1    2    0    0  0.00000000000E+00  0.00000000000E+00 -0.21926458760E+02  0.93606403221E+02  0.91002138053E+02 0.  0.
        -11    1    3    3    0    0  0.16627681440E+01 -0.25189182598E+02 -0.49902725354E+02  0.55924428612E+02  0.00000000000E+00 0.  1.
         11    1    3    3    0    0 -0.16627681440E+01  0.25189182598E+02  0.27976266594E+02  0.37681974609E+02  0.00000000000E+00 0. -1.
<mgrwt>
<rscale>  0 0.91002138E+02</rscale>
<asrwt>0</asrwt>
<pdfrwt beam="1">  1        1 0.55138419E-02 0.91002138E+02</pdfrwt>
<pdfrwt beam="2">  1       -1 0.88871432E-02 0.91002138E+02</pdfrwt>
<totfact> 0.89638643E+04</totfact>
</mgrwt>
</event>
<event>
 5    1  0.6222456E+000  0.9677843E+02  0.7546771E-02  0.1287220E+00
          2   -1    0    0  501    0  0.00000000000E+00  0.00000000000E+00  0.14497492515E+02  0.14497492515E+02  0.00000000000E+00 0. -1.
         -2   -1    0    0    0  501 -0.00000000000E+00 -0.00000000000E+00 -0.16151181262E+03  0.16151181262E+03  0.00000000000E+00 0.  1.
         23    2    1    2    0    0  0.00000000000E+00  0.00000000000E+00 -0.14701432011E+03  0.17600930514E+03  0.96778433435E+02 0.  0.
        -11    1    3    3    0    0 -0.24574289714E+02 -0.38916528352E+02 -0.46340854946E+02  0.65313602956E+02  0.00000000000E+00 0. -1.
         11    1    3    3    0    0  0.24574289714E+02  0.38916528352E+02 -0.10067346516E+03  0.11069570218E+03  0.00000000000E+00 0.  1.
<mgrwt>
<rscale>  0 0.96778433E+02</rscale>
<asrwt>0</asrwt>
<pdfrwt beam="1">  1        2 0.22303833E-02 0.96778433E+02</pdfrwt>
<pdfrwt beam="2">  1       -2 0.24847973E-01 0.96778433E+02</pdfrwt>
<totfact> 0.58408666E+04</totfact>
</mgrwt>
</event>
<event>
 5    1  0.6222456E+000  0.9121032E+02  0.7546771E-02  0.1299947E+00
          3   -1    0    0  501    0  0.00000000000E+00  0.00000000000E+00  0.99813209464E+01  0.99813209464E+01  0.00000000000E+00 0. -1.
         -3   -1    0    0    0  501 -0.00000000000E+00 -0.00000000000E+00 -0.20837226380E+03  0.20837226380E+03  0.00000000000E+00 0.  1.
         23    2    1    2    0    0  0.00000000000E+00  0.00000000000E+00 -0.19839094286E+03  0.21835358475E+03  0.91210316113E+02 0.  0.
        -11    1    3    3    0    0  0.33525041221E+02  0.19413812989E+02 -0.41590778412E+02  0.56838520148E+02  0.00000000000E+00 0. -1.
         11    1    3    3    0    0 -0.33525041221E+02 -0.19413812989E+02 -0.15680016444E+03  0.16151506460E+03  0.00000000000E+00 0.  1.
<mgrwt>
<rscale>  0 0.91210316E+02</rscale>
<asrwt>0</asrwt>
<pdfrwt beam="1">  1        3 0.15355878E-02 0.91210316E+02</pdfrwt>
<pdfrwt beam="2">  1       -3 0.32057273E-01 0.91210316E+02</pdfrwt>
<totfact> 0.27547109E+04</totfact>
</mgrwt>
</event>
<event>
 5    1  0.6222456E+000  0.8814817E+02  0.7546771E-02  0.1307399E+00
          1   -1    0    0  501    0  0.00000000000E+00  0.00000000000E+00  0.23895129653E+02  0.23895129653E+02  0.00000000000E+00 0. -1.
         -1   -1    0    0    0  501 -0.00000000000E+00 -0.00000000000E+00 -0.81293756876E+02  0.81293756876E+02  0.00000000000E+00 0.  1.
         23    2    1    2    0    0  0.00000000000E+00  0.00000000000E+00 -0.57398627223E+02  0.10518888653E+03  0.88148167548E+02 0.  0.
        -11    1    3    3    0    0 -0.28428609396E+02  0.13881196428E+02  0.79192791839E+01  0.32612703495E+02  0.00000000000E+00 0. -1.
         11    1    3    3    0    0  0.28428609396E+02 -0.13881196428E+02 -0.65317906407E+02  0.72576183034E+02  0.00000000000E+00 0.  1.
<mgrwt>
<rscale>  0 0.88148168E+02</rscale>
<asrwt>0</asrwt>
<pdfrwt beam="1">  1        1 0.36761738E-02 0.88148168E+02</pdfrwt>
<pdfrwt beam="2">  1       -1 0.12506732E-01 0.88148168E+02</pdfrwt>
<totfact> 0.92039347E+04</totfact>
</mgrwt>
</event>
<event>
 5    1  0.6222456E+000  0.9256971E+02  0.7546771E-02  0.1296745E+00
         -1   -1    0    0    0  501 -0.00000000000E+00  0.00000000000E+00  0.56156930436E+01  0.56156930436E+01  0.00000000000E+00 0.  1.
          1   -1    0    0  501    0  0.00000000000E+00 -0.00000000000E+00 -0.38148233574E+03  0.38148233574E+03  0.00000000000E+00 0. -1.
         23    2    1    2    0    0  0.00000000000E+00  0.00000000000E+00 -0.37586664270E+03  0.38709802879E+03  0.92569707769E+02 0.  0.
        -11    1    3    3    0    0  0.24512147285E+02 -0.38692683637E+02 -0.21577176326E+03  0.22057974284E+03  0.00000000000E+00 0. -1.
         11    1    3    3    0    0 -0.24512147285E+02  0.38692683637E+02 -0.16009487944E+03  0.16651828595E+03  0.00000000000E+00 0.  1.
<mgrwt>
<rscale>  0 0.92569708E+02</rscale>
<asrwt>0</asrwt>
<pdfrwt beam="2">  1        1 0.58689586E-01 0.92569708E+02</pdfrwt>
<pdfrwt beam="1">  1       -1 0.86395284E-03 0.92569708E+02</pdfrwt>
<totfact> 0.12853737E+05</totfact>
</mgrwt>
</event>
<event>
 5    1  0.6222456E+000  0.9131106E+02  0.7546771E-02  0.1299707E+00
         -2   -1    0    0    0  501 -0.00000000000E+00  0.00000000000E+00  0.23901580545E+03  0.23901580545E+03  0.00000000000E+00 0.  1.
          2   -1    0    0  501    0  0.00000000000E+00 -0.00000000000E+00 -0.87208762220E+01  0.87208762220E+01  0.00000000000E+00 0. -1.
         23    2    1    2    0    0  0.00000000000E+00  0.00000000000E+00  0.23029492923E+03  0.24773668168E+03  0.91311056384E+02 0.  0.
        -11    1    3    3    0    0  0.91694252953E+01  0.33816198805E+02  0.35731078073E+02  0.50043217344E+02  0.00000000000E+00 0. -1.
         11    1    3    3    0    0 -0.91694252953E+01 -0.33816198805E+02  0.19456385116E+03  0.19769346433E+03  0.00000000000E+00 0.  1.
<mgrwt>
<rscale>  0 0.91311056E+02</rscale>
<asrwt>0</asrwt>
<pdfrwt beam="2">  1        2 0.13416734E-02 0.91311056E+02</pdfrwt>
<pdfrwt beam="1">  1       -2 0.36771657E-01 0.91311056E+02</pdfrwt>
<totfact> 0.57216014E+04</totfact>
</mgrwt>
</event>
<event>
 5    1  0.6222456E+000  0.9296417E+02  0.7546771E-02  0.1295828E+00
          4   -1    0    0  501    0  0.00000000000E+00  0.00000000000E+00  0.34183947936E+02  0.34183947936E+02  0.00000000000E+00 0. -1.
         -4   -1    0    0    0  501 -0.00000000000E+00 -0.00000000000E+00 -0.63204643397E+02  0.63204643397E+02  0.00000000000E+00 0.  1.
         23    2    1    2    0    0  0.00000000000E+00  0.00000000000E+00 -0.29020695460E+02  0.97388591333E+02  0.92964170285E+02 0.  0.
        -11    1    3    3    0    0 -0.16081056905E+02  0.13399169536E+02 -0.57987922165E+02  0.61650119647E+02  0.00000000000E+00 0.  1.
         11    1    3    3    0    0  0.16081056905E+02 -0.13399169536E+02  0.28967226705E+02  0.35738471686E+02  0.00000000000E+00 0. -1.
<mgrwt>
<rscale>  0 0.92964170E+02</rscale>
<asrwt>0</asrwt>
<pdfrwt beam="1">  1        4 0.52590689E-02 0.92964170E+02</pdfrwt>
<pdfrwt beam="2">  1       -4 0.97237913E-02 0.92964170E+02</pdfrwt>
<totfact> 0.25251682E+04</totfact>
</mgrwt>
</event>
<event>
 5    1  0.6222456E+000  0.8982867E+02  0.7546771E-02  0.1303267E+00
          1   -1    0    0  501    0  0.00000000000E+00  0.00000000000E+00  0.44100947037E+02  0.44100947037E+02  0.00000000000E+00 0. -1.
         -1   -1    0    0    0  501 -0.00000000000E+00 -0.00000000000E+00 -0.45742721965E+02  0.45742721965E+02  0.00000000000E+00 0.  1.
         23    2    1    2    0    0  0.00000000000E+00  0.00000000000E+00 -0.16417749289E+01  0.89843669002E+02  0.89828667110E+02 0.  0.
        -11    1    3    3    0    0 -0.41789560752E+02  0.10623725370E+02  0.11753659466E+02  0.44692051188E+02  0.00000000000E+00 0. -1.
         11    1    3    3    0    0  0.41789560752E+02 -0.10623725370E+02 -0.13395434395E+02  0.45151617814E+02  0.00000000000E+00 0.  1.
<mgrwt>
<rscale>  0 0.89828667E+02</rscale>
<asrwt>0</asrwt>
<pdfrwt beam="1">  1        1 0.67847611E-02 0.89828667E+02</pdfrwt>
<pdfrwt beam="2">  1       -1 0.70373418E-02 0.89828667E+02</pdfrwt>
<totfact> 0.95938890E+04</totfact>
</mgrwt>
</event>
<event>
 5    1  0.6222456E+000  0.9108478E+02  0.7546771E-02  0.1300246E+00
          2   -1    0    0  501    0  0.00000000000E+00  0.00000000000E+00  0.16287992442E+03  0.16287992442E+03  0.00000000000E+00 0. -1.
         -2   -1    0    0    0  501 -0.00000000000E+00 -0.00000000000E+00 -0.12733977247E+02  0.12733977247E+02  0.00000000000E+00 0.  1.
         23    2    1    2    0    0  0.00000000000E+00  0.00000000000E+00  0.15014594717E+03  0.17561390166E+03  0.91084779222E+02 0.  0.
        -11    1    3    3    0    0 -0.11429379889E+02  0.37729610351E+02  0.11903684952E+03  0.12539507871E+03  0.00000000000E+00 0. -1.
         11    1    3    3    0    0  0.11429379889E+02 -0.37729610351E+02  0.31109097651E+02  0.50218822951E+02  0.00000000000E+00 0.  1.
<mgrwt>
<rscale>  0 0.91084779E+02</rscale>
<asrwt>0</asrwt>
<pdfrwt beam="1">  1        2 0.25058449E-01 0.91084779E+02</pdfrwt>
<pdfrwt beam="2">  1       -2 0.19590735E-02 0.91084779E+02</pdfrwt>
<totfact> 0.14421493E+05</totfact>
</mgrwt>
</event>
<event>
 5    1  0.6222456E+000  0.8899140E+02  0.7546771E-02  0.1305313E+00
         -2   -1    0    0    0  501 -0.00000000000E+00  0.00000000000E+00  0.10480859317E+02  0.10480859317E+02  0.00000000000E+00 0. -1.
          2   -1    0    0  501    0  0.00000000000E+00 -0.00000000000E+00 -0.18890316371E+03  0.18890316371E+03  0.00000000000E+00 0.  1.
         23    2    1    2    0    0  0.00000000000E+00  0.00000000000E+00 -0.17842230440E+03  0.19938402303E+03  0.88991403706E+02 0.  0.
        -11    1    3    3    0    0 -0.26410546919E+02 -0.96828484568E+01 -0.16645410559E+03  0.16881422870E+03  0.00000000000E+00 0.  1.
         11    1    3    3    0    0  0.26410546919E+02  0.96828484568E+01 -0.11968198804E+02  0.30569794330E+02  0.00000000000E+00 0. -1.
<mgrwt>
<rscale>  0 0.88991404E+02</rscale>
<asrwt>0</asrwt>
<pdfrwt beam="2">  1        2 0.29062023E-01 0.88991404E+02</pdfrwt>
<pdfrwt beam="1">  1       -2 0.16124400E-02 0.88991404E+02</pdfrwt>
<totfact> 0.16175499E+05</totfact>
</mgrwt>
</event>
<event>
 5    1  0.6222456E+000  0.9134791E+02  0.7546771E-02  0.1299620E+00
          2   -1    0    0  501    0  0.00000000000E+00  0.00000000000E+00  0.27808493003E+03  0.27808493003E+03  0.00000000000E+00 0. -1.
         -2   -1    0    0    0  501 -0.00000000000E+00 -0.00000000000E+00 -0.75017013080E+01  0.75017013080E+01  0.00000000000E+00 0.  1.
         23    2    1    2    0    0  0.00000000000E+00  0.00000000000E+00  0.27058322872E+03  0.28558663134E+03  0.91347908205E+02 0.  0.
        -11    1    3    3    0    0 -0.68135845571E+01 -0.38744705619E+02  0.20784294822E+03  0.21153313753E+03  0.00000000000E+00 0.  1.
         11    1    3    3    0    0  0.68135845571E+01  0.38744705619E+02  0.62740280507E+02  0.74053493814E+02  0.00000000000E+00 0. -1.
<mgrwt>
<rscale>  0 0.91347908E+02</rscale>
<asrwt>0</asrwt>
<pdfrwt beam="1">  1        2 0.42782289E-01 0.91347908E+02</pdfrwt>
<pdfrwt beam="2">  1       -2 0.11541081E-02 0.91347908E+02</pdfrwt>
<totfact> 0.17377582E+05</totfact>
</mgrwt>
</event>
<event>
 5    1  0.6222456E+000  0.9504668E+02  0.7546771E-02  0.1291071E+00
         -3   -1    0    0    0  501 -0.00000000000E+00  0.00000000000E+00  0.25698196141E+02  0.25698196141E+02  0.00000000000E+00 0.  1.
          3   -1    0    0  501    0  0.00000000000E+00 -0.00000000000E+00 -0.87884300677E+02  0.87884300677E+02  0.00000000000E+00 0. -1.
         23    2    1    2    0    0  0.00000000000E+00  0.00000000000E+00 -0.62186104536E+02  0.11358249682E+03  0.95046683193E+02 0.  0.
        -11    1    3    3    0    0  0.44264153534E+02 -0.16637450782E+02 -0.36742333467E+02  0.59884214324E+02  0.00000000000E+00 0. -1.
         11    1    3    3    0    0 -0.44264153534E+02  0.16637450782E+02 -0.25443771070E+02  0.53698282494E+02  0.00000000000E+00 0.  1.
<mgrwt>
<rscale>  0 0.95046683E+02</rscale>
<asrwt>0</asrwt>
<pdfrwt beam="2">  1        3 0.13520662E-01 0.95046683E+02</pdfrwt>
<pdfrwt beam="1">  1       -3 0.39535686E-02 0.95046683E+02</pdfrwt>
<totfact> 0.30079467E+04</totfact>
</mgrwt>
</event>
<event>
 5    1  0.6222456E+000  0.9255767E+02  0.7546771E-02  0.1296774E+00
         -4   -1    0    0    0  501 -0.00000000000E+00  0.00000000000E+00  0.32932756974E+02  0.32932756974E+02  0.00000000000E+00 0.  1.
          4   -1    0    0  501    0  0.00000000000E+00 -0.00000000000E+00 -0.65033444046E+02  0.65033444046E+02  0.00000000000E+00 0. -1.
         23    2    1    2    0    0  0.00000000000E+00  0.00000000000E+00 -0.32100687072E+02  0.97966201021E+02  0.92557670843E+02 0.  0.
        -11    1    3    3    0    0 -0.37109440512E+02  0.25268964065E+02 -0.41647599301E+01  0.45088538957E+02  0.00000000000E+00 0.  1.
         11    1    3    3    0    0  0.37109440512E+02 -0.25268964065E+02 -0.27935927142E+02  0.52877662064E+02  0.00000000000E+00 0. -1.
<mgrwt>
<rscale>  0 0.92557671E+02</rscale>
<asrwt>0</asrwt>
<pdfrwt beam="2">  1        4 0.10005145E-01 0.92557671E+02</pdfrwt>
<pdfrwt beam="1">  1       -4 0.50665780E-02 0.92557671E+02</pdfrwt>
<totfact> 0.25520066E+04</totfact>
</mgrwt>
</event>
<event>
 5    1  0.6222456E+000  0.9019930E+02  0.7546771E-02  0.1302370E+00
         -2   -1    0    0    0  501 -0.00000000000E+00  0.00000000000E+00  0.12771498094E+03  0.12771498094E+03  0.00000000000E+00 0.  1.
          2   -1    0    0  501    0  0.00000000000E+00 -0.00000000000E+00 -0.15925918963E+02  0.15925918963E+02  0.00000000000E+00 0. -1.
         23    2    1    2    0    0  0.00000000000E+00  0.00000000000E+00  0.11178906198E+03  0.14364089990E+03  0.90199300147E+02 0.  0.
        -11    1    3    3    0    0  0.14065233669E+02  0.16180708113E+02  0.11908086451E+03  0.12099544788E+03  0.00000000000E+00 0.  1.
         11    1    3    3    0    0 -0.14065233669E+02 -0.16180708113E+02 -0.72918025383E+01  0.22645452026E+02  0.00000000000E+00 0. -1.
<mgrwt>
<rscale>  0 0.90199300E+02</rscale>
<asrwt>0</asrwt>
<pdfrwt beam="2">  1        2 0.24501415E-02 0.90199300E+02</pdfrwt>
<pdfrwt beam="1">  1       -2 0.19648458E-01 0.90199300E+02</pdfrwt>
<totfact> 0.75916487E+04</totfact>
</mgrwt>
</event>
<event>
 5    1  0.6222456E+000  0.8787077E+02  0.7546771E-02  0.1308091E+00
         -2   -1    0    0    0  501 -0.00000000000E+00  0.00000000000E+00  0.52404557288E+02  0.52404557288E+02  0.00000000000E+00 0.  1.
          2   -1    0    0  501    0  0.00000000000E+00 -0.00000000000E+00 -0.36834927726E+02  0.36834927726E+02  0.00000000000E+00 0. -1.
         23    2    1    2    0    0  0.00000000000E+00  0.00000000000E+00  0.15569629563E+02  0.89239485014E+02  0.87870770572E+02 0.  0.
        -11    1    3    3    0    0  0.24824493068E+02  0.10745656448E+02 -0.27375161874E+02  0.38485374835E+02  0.00000000000E+00 0. -1.
         11    1    3    3    0    0 -0.24824493068E+02 -0.10745656448E+02  0.42944791436E+02  0.50754110179E+02  0.00000000000E+00 0.  1.
<mgrwt>
<rscale>  0 0.87870771E+02</rscale>
<asrwt>0</asrwt>
<pdfrwt beam="2">  1        2 0.56669120E-02 0.87870771E+02</pdfrwt>
<pdfrwt beam="1">  1       -2 0.80622396E-02 0.87870771E+02</pdfrwt>
<totfact> 0.10393096E+05</totfact>
</mgrwt>
</event>
<event>
 5    1  0.6222456E+000  0.8956557E+02  0.7546771E-02  0.1303907E+00
         -3   -1    0    0    0  501 -0.00000000000E+00  0.00000000000E+00  0.35225038885E+02  0.35225038885E+02  0.00000000000E+00 0.  1.
          3   -1    0    0  501    0  0.00000000000E+00 -0.00000000000E+00 -0.56933867640E+02  0.56933867640E+02  0.00000000000E+00 0. -1.
         23    2    1    2    0    0  0.00000000000E+00  0.00000000000E+00 -0.21708828755E+02  0.92158906526E+02  0.89565567078E+02 0.  0.
        -11    1    3    3    0    0  0.13633675816E+02  0.42586787550E+02 -0.13371909460E+02  0.46672471037E+02  0.00000000000E+00 0.  1.
         11    1    3    3    0    0 -0.13633675816E+02 -0.42586787550E+02 -0.83369192950E+01  0.45486435488E+02  0.00000000000E+00 0. -1.
<mgrwt>
<rscale>  0 0.89565567E+02</rscale>
<asrwt>0</asrwt>
<pdfrwt beam="2">  1        3 0.87590565E-02 0.89565567E+02</pdfrwt>
<pdfrwt beam="1">  1       -3 0.54192368E-02 0.89565567E+02</pdfrwt>
<totfact> 0.37013940E+04</totfact>
</mgrwt>
</event>
<event>
 5    1  0.6222456E+000  0.9174033E+02  0.7546771E-02  0.1298691E+00
         -2   -1    0    0    0  501 -0.00000000000E+00  0.00000000000E+00  0.36755226547E+02  0.36755226547E+02  0.00000000000E+00 0.  1.
          2   -1    0    0  501    0  0.00000000000E+00 -0.00000000000E+00 -0.57245517845E+02  0.57245517845E+02  0.00000000000E+00 0. -1.
         23    2    1    2    0    0  0.00000000000E+00  0.00000000000E+00 -0.20490291298E+02  0.94000744392E+02  0.91740328693E+02 0.  0.
        -11    1    3    3    0    0  0.24124936958E+02  0.25255565724E+02  0.20223288478E+02  0.40358859996E+02  0.00000000000E+00 0.  1.
         11    1    3    3    0    0 -0.24124936958E+02 -0.25255565724E+02 -0.40713579776E+02  0.53641884396E+02  0.00000000000E+00 0. -1.
<mgrwt>
<rscale>  0 0.91740329E+02</rscale>
<asrwt>0</asrwt>
<pdfrwt beam="2">  1        2 0.88070027E-02 0.91740329E+02</pdfrwt>
<pdfrwt beam="1">  1       -2 0.56546503E-02 0.91740329E+02</pdfrwt>
<totfact> 0.10293377E+05</totfact>
</mgrwt>
</event>
<event>
 5    1  0.6222456E+000  0.9040843E+02  0.7546771E-02  0.1301866E+00
          1   -1    0    0  501    0  0.00000000000E+00  0.00000000000E+00  0.47677552871E+02  0.47677552871E+02  0.00000000000E+00 0. -1.
         -1   -1    0    0    0  501 -0.00000000000E+00 -0.00000000000E+00 -0.42859185683E+02  0.42859185683E+02  0.00000000000E+00 0.  1.
         23    2    1    2    0    0  0.00000000000E+00  0.00000000000E+00  0.48183671876E+01  0.90536738553E+02  0.90408430832E+02 0.  0.
        -11    1    3    3    0    0  0.27297464230E+02 -0.13729222141E+02 -0.30951425339E+02  0.43492916946E+02  0.00000000000E+00 0.  1.
         11    1    3    3    0    0 -0.27297464230E+02  0.13729222141E+02  0.35769792526E+02  0.47043821607E+02  0.00000000000E+00 0. -1.
<mgrwt>
<rscale>  0 0.90408431E+02</rscale>
<asrwt>0</asrwt>
<pdfrwt beam="1">  1        1 0.73350082E-02 0.90408431E+02</pdfrwt>
<pdfrwt beam="2">  1       -1 0.65937209E-02 0.90408431E+02</pdfrwt>
<totfact> 0.95327339E+04</totfact>
</mgrwt>
</event>
<event>
 5    1  0.6222456E+000  0.9085661E+02  0.7546771E-02  0.1300790E+00
         -2   -1    0    0    0  501 -0.00000000000E+00  0.00000000000E+00  0.30046167463E+03  0.30046167463E+03  0.00000000000E+00 0.  1.
          2   -1    0    0  501    0  0.00000000000E+00 -0.00000000000E+00 -0.68685335993E+01  0.68685335993E+01  0.00000000000E+00 0. -1.
         23    2    1    2    0    0  0.00000000000E+00  0.00000000000E+00  0.29359314103E+03  0.30733020823E+03  0.90856614674E+02 0.  0.
        -11    1    3    3    0    0  0.55875243139E+01  0.38007023526E+02  0.64774862262E+02  0.75309607929E+02  0.00000000000E+00 0. -1.
         11    1    3    3    0    0 -0.55875243139E+01 -0.38007023526E+02  0.22881827877E+03  0.23202060030E+03  0.00000000000E+00 0.  1.
<mgrwt>
<rscale>  0 0.90856615E+02</rscale>
<asrwt>0</asrwt>
<pdfrwt beam="2">  1        2 0.10566977E-02 0.90856615E+02</pdfrwt>
<pdfrwt beam="1">  1       -2 0.46224863E-01 0.90856615E+02</pdfrwt>
<totfact> 0.51420924E+04</totfact>
</mgrwt>
</event>
<event>
 5    1  0.6222456E+000  0.9223882E+02  0.7546771E-02  0.1297519E+00
         -1   -1    0    0    0  501 -0.00000000000E+00  0.00000000000E+00  0.55907517841E+01  0.55907517841E+01  0.00000000000E+00 0.  1.
          1   -1    0    0  501    0  0.00000000000E+00 -0.00000000000E+00 -0.38044976550E+03  0.38044976550E+03  0.00000000000E+00 0. -1.
         23    2    1    2    0    0  0.00000000000E+00  0.00000000000E+00 -0.37485901372E+03  0.38604051728E+03  0.92238824911E+02 0.  0.
        -11    1    3    3    0    0  0.16402615135E+02  0.42987544901E+02 -0.17417785257E+03  0.18015243302E+03  0.00000000000E+00 0. -1.
         11    1    3    3    0    0 -0.16402615135E+02 -0.42987544901E+02 -0.20068116115E+03  0.20588808426E+03  0.00000000000E+00 0.  1.
<mgrwt>
<rscale>  0 0.92238825E+02</rscale>
<asrwt>0</asrwt>
<pdfrwt beam="2">  1        1 0.58530736E-01 0.92238825E+02</pdfrwt>
<pdfrwt beam="1">  1       -1 0.86011562E-03 0.92238825E+02</pdfrwt>
<totfact> 0.12970812E+05</totfact>
</mgrwt>
</event>
<event>
 5    1  0.6222456E+000  0.9057967E+02  0.7546771E-02  0.1301454E+00
          1   -1    0    0  501    0  0.00000000000E+00  0.00000000000E+00  0.78760498570E+02  0.78760498570E+02  0.00000000000E+00 0. -1.
         -1   -1    0    0    0  501 -0.00000000000E+00 -0.00000000000E+00 -0.26043121510E+02  0.26043121510E+02  0.00000000000E+00 0.  1.
         23    2    1    2    0    0  0.00000000000E+00  0.00000000000E+00  0.52717377060E+02  0.10480362008E+03  0.90579671769E+02 0.  0.
        -11    1    3    3    0    0 -0.37532244821E+02 -0.22384413529E+02  0.12598373202E+02  0.45480219631E+02  0.00000000000E+00 0.  1.
         11    1    3    3    0    0  0.37532244821E+02  0.22384413529E+02  0.40119003858E+02  0.59323400450E+02  0.00000000000E+00 0. -1.
<mgrwt>
<rscale>  0 0.90579672E+02</rscale>
<asrwt>0</asrwt>
<pdfrwt beam="1">  1        1 0.12117000E-01 0.90579672E+02</pdfrwt>
<pdfrwt beam="2">  1       -1 0.40066341E-02 0.90579672E+02</pdfrwt>
<totfact> 0.10232474E+05</totfact>
</mgrwt>
</event>
<event>
 5    1  0.6222456E+000  0.9067043E+02  0.7546771E-02  0.1301236E+00
          3   -1    0    0  501    0  0.00000000000E+00  0.00000000000E+00  0.35292170768E+02  0.35292170768E+02  0.00000000000E+00 0. -1.
         -3   -1    0    0    0  501 -0.00000000000E+00 -0.00000000000E+00 -0.58236189094E+02  0.58236189094E+02  0.00000000000E+00 0.  1.
         23    2    1    2    0    0  0.00000000000E+00  0.00000000000E+00 -0.22944018326E+02  0.93528359862E+02  0.90670425837E+02 0.  0.
        -11    1    3    3    0    0 -0.33258938331E+02 -0.29191218958E+02 -0.21631161139E+02  0.49256384108E+02  0.00000000000E+00 0.  1.
         11    1    3    3    0    0  0.33258938331E+02  0.29191218958E+02 -0.13128571863E+01  0.44271975754E+02  0.00000000000E+00 0. -1.
<mgrwt>
<rscale>  0 0.90670426E+02</rscale>
<asrwt>0</asrwt>
<pdfrwt beam="1">  1        3 0.54295648E-02 0.90670426E+02</pdfrwt>
<pdfrwt beam="2">  1       -3 0.89594136E-02 0.90670426E+02</pdfrwt>
<totfact> 0.35696347E+04</totfact>
</mgrwt>
</event>
<event>
 5    1  0.6222456E+000  0.8714575E+02  0.7546771E-02  0.1309915E+00
          1   -1    0    0  501    0  0.00000000000E+00  0.00000000000E+00  0.41871580960E+02  0.41871580960E+02  0.00000000000E+00 0. -1.
         -1   -1    0    0    0  501 -0.00000000000E+00 -0.00000000000E+00 -0.45343291877E+02  0.45343291877E+02  0.00000000000E+00 0.  1.
         23    2    1    2    0    0  0.00000000000E+00  0.00000000000E+00 -0.34717109165E+01  0.87214872837E+02  0.87145747271E+02 0.  0.
        -11    1    3    3    0    0  0.58306857308E+01  0.40406479408E+02  0.13504974786E+02  0.43000753693E+02  0.00000000000E+00 0.  1.
         11    1    3    3    0    0 -0.58306857308E+01 -0.40406479408E+02 -0.16976685702E+02  0.44214119144E+02  0.00000000000E+00 0. -1.
<mgrwt>
<rscale>  0 0.87145747E+02</rscale>
<asrwt>0</asrwt>
<pdfrwt beam="1">  1        1 0.64417817E-02 0.87145747E+02</pdfrwt>
<pdfrwt beam="2">  1       -1 0.69758910E-02 0.87145747E+02</pdfrwt>
<totfact> 0.10364189E+05</totfact>
</mgrwt>
</event>
<event>
 5    1  0.6222456E+000  0.9163114E+02  0.7546771E-02  0.1298949E+00
          3   -1    0    0  501    0  0.00000000000E+00  0.00000000000E+00  0.15621761649E+02  0.15621761649E+02  0.00000000000E+00 0. -1.
         -3   -1    0    0    0  501 -0.00000000000E+00 -0.00000000000E+00 -0.13436809960E+03  0.13436809960E+03  0.00000000000E+00 0.  1.
         23    2    1    2    0    0  0.00000000000E+00  0.00000000000E+00 -0.11874633795E+03  0.14998986125E+03  0.91631139363E+02 0.  0.
        -11    1    3    3    0    0 -0.62893232763E+01  0.36287384432E+02 -0.14762758409E+02  0.39677057502E+02  0.00000000000E+00 0. -1.
         11    1    3    3    0    0  0.62893232763E+01 -0.36287384432E+02 -0.10398357954E+03  0.11031280375E+03  0.00000000000E+00 0.  1.
<mgrwt>
<rscale>  0 0.91631139E+02</rscale>
<asrwt>0</asrwt>
<pdfrwt beam="1">  1        3 0.24033479E-02 0.91631139E+02</pdfrwt>
<pdfrwt beam="2">  1       -3 0.20672016E-01 0.91631139E+02</pdfrwt>
<totfact> 0.30889345E+04</totfact>
</mgrwt>
</event>
<event>
 5    1  0.6222456E+000  0.9141209E+02  0.7546771E-02  0.1299468E+00
          1   -1    0    0  501    0  0.00000000000E+00  0.00000000000E+00  0.12516759407E+03  0.12516759407E+03  0.00000000000E+00 0. -1.
         -1   -1    0    0    0  501 -0.00000000000E+00 -0.00000000000E+00 -0.16689961738E+02  0.16689961738E+02  0.00000000000E+00 0.  1.
         23    2    1    2    0    0  0.00000000000E+00  0.00000000000E+00  0.10847763234E+03  0.14185755581E+03  0.91412085764E+02 0.  0.
        -11    1    3    3    0    0  0.34888823976E+02 -0.70891677951E+01  0.98719089242E+02  0.10494257915E+03  0.00000000000E+00 0. -1.
         11    1    3    3    0    0 -0.34888823976E+02  0.70891677951E+01  0.97585430944E+01  0.36914976660E+02  0.00000000000E+00 0.  1.
<mgrwt>
<rscale>  0 0.91412086E+02</rscale>
<asrwt>0</asrwt>
<pdfrwt beam="1">  1        1 0.19256552E-01 0.91412086E+02</pdfrwt>
<pdfrwt beam="2">  1       -1 0.25676865E-02 0.91412086E+02</pdfrwt>
<totfact> 0.10778098E+05</totfact>
</mgrwt>
</event>
<event>
 5    1  0.6222456E+000  0.9141813E+02  0.7546771E-02  0.1299453E+00
          1   -1    0    0  501    0  0.00000000000E+00  0.00000000000E+00  0.30006391063E+02  0.30006391063E+02  0.00000000000E+00 0. -1.
         -1   -1    0    0    0  501 -0.00000000000E+00 -0.00000000000E+00 -0.69629115802E+02  0.69629115802E+02  0.00000000000E+00 0.  1.
         23    2    1    2    0    0  0.00000000000E+00  0.00000000000E+00 -0.39622724740E+02  0.99635506865E+02  0.91418126827E+02 0.  0.
        -11    1    3    3    0    0 -0.40419317186E+02 -0.14661615270E+02 -0.36718130429E+02  0.56541182039E+02  0.00000000000E+00 0.  1.
         11    1    3    3    0    0  0.40419317186E+02  0.14661615270E+02 -0.29045943104E+01  0.43094324826E+02  0.00000000000E+00 0. -1.
<mgrwt>
<rscale>  0 0.91418127E+02</rscale>
<asrwt>0</asrwt>
<pdfrwt beam="1">  1        1 0.46163679E-02 0.91418127E+02</pdfrwt>
<pdfrwt beam="2">  1       -1 0.10712172E-01 0.91418127E+02</pdfrwt>
<totfact> 0.86031480E+04</totfact>
</mgrwt>
</event>
<event>
 5    1  0.6222456E+000  0.9244356E+02  0.7546771E-02  0.1297040E+00
          4   -1    0    0  501    0  0.00000000000E+00  0.00000000000E+00  0.12350619520E+02  0.12350619520E+02  0.00000000000E+00 0. -1.
         -4   -1    0    0    0  501 -0.00000000000E+00 -0.00000000000E+00 -0.17298347003E+03  0.17298347003E+03  0.00000000000E+00 0.  1.
         23    2    1    2    0    0  0.00000000000E+00  0.00000000000E+00 -0.16063285051E+03  0.18533408954E+03  0.92443561625E+02 0.  0.
        -11    1    3    3    0    0 -0.31514379052E+02 -0.69368260531E+01 -0.14666336133E+03  0.15017129286E+03  0.00000000000E+00 0.  1.
         11    1    3    3    0    0  0.31514379052E+02  0.69368260531E+01 -0.13969489172E+02  0.35162796681E+02  0.00000000000E+00 0. -1.
<mgrwt>
<rscale>  0 0.92443562E+02</rscale>
<asrwt>0</asrwt>
<pdfrwt beam="1">  1        4 0.19000954E-02 0.92443562E+02</pdfrwt>
<pdfrwt beam="2">  1       -4 0.26612841E-01 0.92443562E+02</pdfrwt>
<totfact> 0.21213212E+04</totfact>
</mgrwt>
</event>
<event>
 5    1  0.6222456E+000  0.9006464E+02  0.7546771E-02  0.1302695E+00
         -2   -1    0    0    0  501 -0.00000000000E+00  0.00000000000E+00  0.49977247912E+01  0.49977247912E+01  0.00000000000E+00 0.  1.
          2   -1    0    0  501    0  0.00000000000E+00 -0.00000000000E+00 -0.40576657921E+03  0.40576657921E+03  0.00000000000E+00 0. -1.
         23    2    1    2    0    0  0.00000000000E+00  0.00000000000E+00 -0.40076885442E+03  0.41076430400E+03  0.90064636620E+02 0.  0.
        -11    1    3    3    0    0  0.40591212661E+02  0.14590372757E+02 -0.25939034720E+03  0.26295223472E+03  0.00000000000E+00 0.  1.
         11    1    3    3    0    0 -0.40591212661E+02 -0.14590372757E+02 -0.14137850721E+03  0.14781206928E+03  0.00000000000E+00 0. -1.
<mgrwt>
<rscale>  0 0.90064637E+02</rscale>
<asrwt>0</asrwt>
<pdfrwt beam="2">  1        2 0.62425619E-01 0.90064637E+02</pdfrwt>
<pdfrwt beam="1">  1       -2 0.76888084E-03 0.90064637E+02</pdfrwt>
<totfact> 0.20728384E+05</totfact>
</mgrwt>
</event>
<event>
 5    1  0.6222456E+000  0.8998323E+02  0.7546771E-02  0.1302892E+00
         -4   -1    0    0    0  501 -0.00000000000E+00  0.00000000000E+00  0.62396776460E+02  0.62396776460E+02  0.00000000000E+00 0.  1.
          4   -1    0    0  501    0  0.00000000000E+00 -0.00000000000E+00 -0.32441508293E+02  0.32441508293E+02  0.00000000000E+00 0. -1.
         23    2    1    2    0    0  0.00000000000E+00  0.00000000000E+00  0.29955268167E+02  0.94838284752E+02  0.89983232681E+02 0.  0.
        -11    1    3    3    0    0  0.36225167399E+01  0.23645173320E+02 -0.25183844968E+02  0.34733886858E+02  0.00000000000E+00 0. -1.
         11    1    3    3    0    0 -0.36225167399E+01 -0.23645173320E+02  0.55139113136E+02  0.60104397894E+02  0.00000000000E+00 0.  1.
<mgrwt>
<rscale>  0 0.89983233E+02</rscale>
<asrwt>0</asrwt>
<pdfrwt beam="2">  1        4 0.49910013E-02 0.89983233E+02</pdfrwt>
<pdfrwt beam="1">  1       -4 0.95995040E-02 0.89983233E+02</pdfrwt>
<totfact> 0.27754081E+04</totfact>
</mgrwt>
</event>
<event>
 5    1  0.6222456E+000  0.9217722E+02  0.7546771E-02  0.1297663E+00
          1   -1    0    0  501    0  0.00000000000E+00  0.00000000000E+00  0.15655743803E+03  0.15655743803E+03  0.00000000000E+00 0. -1.
         -1   -1    0    0    0  501 -0.00000000000E+00 -0.00000000000E+00 -0.13567928690E+02  0.13567928690E+02  0.00000000000E+00 0.  1.
         23    2    1    2    0    0  0.00000000000E+00  0.00000000000E+00  0.14298950934E+03  0.17012536672E+03  0.92177223979E+02 0.  0.
        -11    1    3    3    0    0 -0.24715890440E+02 -0.19365189323E+01 -0.21314723823E+00  0.24792554882E+02  0.00000000000E+00 0.  1.
         11    1    3    3    0    0  0.24715890440E+02  0.19365189323E+01  0.14320265658E+03  0.14533281184E+03  0.00000000000E+00 0. -1.
<mgrwt>
<rscale>  0 0.92177224E+02</rscale>
<asrwt>0</asrwt>
<pdfrwt beam="1">  1        1 0.24085758E-01 0.92177224E+02</pdfrwt>
<pdfrwt beam="2">  1       -1 0.20873738E-02 0.92177224E+02</pdfrwt>
<totfact> 0.10974183E+05</totfact>
</mgrwt>
</event>
<event>
 5    1  0.6222456E+000  0.8996335E+02  0.7546771E-02  0.1302940E+00
          4   -1    0    0  501    0  0.00000000000E+00  0.00000000000E+00  0.43488218418E+02  0.43488218418E+02  0.00000000000E+00 0. -1.
         -4   -1    0    0    0  501 -0.00000000000E+00 -0.00000000000E+00 -0.46526419620E+02  0.46526419620E+02  0.00000000000E+00 0.  1.
         23    2    1    2    0    0  0.00000000000E+00  0.00000000000E+00 -0.30382012011E+01  0.90014638038E+02  0.89963350285E+02 0.  0.
        -11    1    3    3    0    0 -0.13568564905E+02 -0.41499025364E+02  0.93072360892E+01  0.44641905239E+02  0.00000000000E+00 0. -1.
         11    1    3    3    0    0  0.13568564905E+02  0.41499025364E+02 -0.12345437290E+02  0.45372732799E+02  0.00000000000E+00 0.  1.
<mgrwt>
<rscale>  0 0.89963350E+02</rscale>
<asrwt>0</asrwt>
<pdfrwt beam="1">  1        4 0.66904952E-02 0.89963350E+02</pdfrwt>
<pdfrwt beam="2">  1       -4 0.71579107E-02 0.89963350E+02</pdfrwt>
<totfact> 0.28092555E+04</totfact>
</mgrwt>
</event>
<event>
 5    1  0.6222456E+000  0.9495467E+02  0.7546771E-02  0.1291278E+00
          1   -1    0    0  501    0  0.00000000000E+00  0.00000000000E+00  0.16993969199E+03  0.16993969199E+03  0.00000000000E+00 0. -1.
         -1   -1    0    0    0  501 -0.00000000000E+00 -0.00000000000E+00 -0.13264100570E+02  0.13264100570E+02  0.00000000000E+00 0.  1.
         23    2    1    2    0    0  0.00000000000E+00  0.00000000000E+00  0.15667559141E+03  0.18320379256E+03  0.94954666349E+02 0.  0.
        -11    1    3    3    0    0 -0.28813086784E+02 -0.27122334604E+02  0.12895537881E+03  0.13488997268E+03  0.00000000000E+00 0. -1.
         11    1    3    3    0    0  0.28813086784E+02  0.27122334604E+02  0.27720212603E+02  0.48313819878E+02  0.00000000000E+00 0.  1.
<mgrwt>
<rscale>  0 0.94954666E+02</rscale>
<asrwt>0</asrwt>
<pdfrwt beam="1">  1        1 0.26144566E-01 0.94954666E+02</pdfrwt>
<pdfrwt beam="2">  1       -1 0.20406310E-02 0.94954666E+02</pdfrwt>
<totfact> 0.10285850E+05</totfact>
</mgrwt>
</event>
<event>
 5    1  0.6222456E+000  0.9148512E+02  0.7546771E-02  0.1299295E+00
          2   -1    0    0  501    0  0.00000000000E+00  0.00000000000E+00  0.13671890038E+03  0.13671890038E+03  0.00000000000E+00 0. -1.
         -2   -1    0    0    0  501 -0.00000000000E+00 -0.00000000000E+00 -0.15304262001E+02  0.15304262001E+02  0.00000000000E+00 0.  1.
         23    2    1    2    0    0  0.00000000000E+00  0.00000000000E+00  0.12141463837E+03  0.15202316238E+03  0.91485121673E+02 0.  0.
        -11    1    3    3    0    0 -0.45212366509E+02  0.38239756417E+01  0.51074900015E+02  0.68318564729E+02  0.00000000000E+00 0.  1.
         11    1    3    3    0    0  0.45212366509E+02 -0.38239756417E+01  0.70339738360E+02  0.83704597649E+02  0.00000000000E+00 0. -1.
<mgrwt>
<rscale>  0 0.91485122E+02</rscale>
<asrwt>0</asrwt>
<pdfrwt beam="1">  1        2 0.21033676E-01 0.91485122E+02</pdfrwt>
<pdfrwt beam="2">  1       -2 0.23545019E-02 0.91485122E+02</pdfrwt>
<totfact> 0.13427667E+05</totfact>
</mgrwt>
</event>
<event>
 5    1  0.6222456E+000  0.9185512E+02  0.7546771E-02  0.1298420E+00
          1   -1    0    0  501    0  0.00000000000E+00  0.00000000000E+00  0.13103911306E+03  0.13103911306E+03  0.00000000000E+00 0. -1.
         -1   -1    0    0    0  501 -0.00000000000E+00 -0.00000000000E+00 -0.16097033520E+02  0.16097033520E+02  0.00000000000E+00 0.  1.
         23    2    1    2    0    0  0.00000000000E+00  0.00000000000E+00  0.11494207954E+03  0.14713614658E+03  0.91855124960E+02 0.  0.
        -11    1    3    3    0    0  0.39196908989E+02 -0.17199874630E+02  0.84135956422E+02  0.94398583277E+02  0.00000000000E+00 0.  1.
         11    1    3    3    0    0 -0.39196908989E+02  0.17199874630E+02  0.30806123118E+02  0.52737563303E+02  0.00000000000E+00 0. -1.
<mgrwt>
<rscale>  0 0.91855125E+02</rscale>
<asrwt>0</asrwt>
<pdfrwt beam="1">  1        1 0.20159863E-01 0.91855125E+02</pdfrwt>
<pdfrwt beam="2">  1       -1 0.24764668E-02 0.91855125E+02</pdfrwt>
<totfact> 0.10724636E+05</totfact>
</mgrwt>
</event>
<event>
 5    1  0.6222456E+000  0.9134491E+02  0.7546771E-02  0.1299627E+00
          2   -1    0    0  501    0  0.00000000000E+00  0.00000000000E+00  0.47108845080E+03  0.47108845080E+03  0.00000000000E+00 0. -1.
         -2   -1    0    0    0  501 -0.00000000000E+00 -0.00000000000E+00 -0.44279859101E+01  0.44279859101E+01  0.00000000000E+00 0.  1.
         23    2    1    2    0    0  0.00000000000E+00  0.00000000000E+00  0.46666046489E+03  0.47551643671E+03  0.91344907304E+02 0.  0.
        -11    1    3    3    0    0  0.41629519187E+02 -0.17993950302E+02  0.26144784833E+03  0.26535217450E+03  0.00000000000E+00 0. -1.
         11    1    3    3    0    0 -0.41629519187E+02  0.17993950302E+02  0.20521261656E+03  0.21016426221E+03  0.00000000000E+00 0.  1.
<mgrwt>
<rscale>  0 0.91344907E+02</rscale>
<asrwt>0</asrwt>
<pdfrwt beam="1">  1        2 0.72475107E-01 0.91344907E+02</pdfrwt>
<pdfrwt beam="2">  1       -2 0.68122898E-03 0.91344907E+02</pdfrwt>
<totfact> 0.21026880E+05</totfact>
</mgrwt>
</event>
<event>
 5    1  0.6222456E+000  0.9229919E+02  0.7546771E-02  0.1297377E+00
          2   -1    0    0  501    0  0.00000000000E+00  0.00000000000E+00  0.25847727012E+02  0.25847727012E+02  0.00000000000E+00 0.  1.
         -2   -1    0    0    0  501 -0.00000000000E+00 -0.00000000000E+00 -0.82397384651E+02  0.82397384651E+02  0.00000000000E+00 0. -1.
         23    2    1    2    0    0  0.00000000000E+00  0.00000000000E+00 -0.56549657639E+02  0.10824511166E+03  0.92299189703E+02 0.  0.
        -11    1    3    3    0    0  0.15146622588E+02  0.28339809485E+02  0.10572153443E+02  0.33828026929E+02  0.00000000000E+00 0.  1.
         11    1    3    3    0    0 -0.15146622588E+02 -0.28339809485E+02 -0.67121811082E+02  0.74417084735E+02  0.00000000000E+00 0. -1.
<mgrwt>
<rscale>  0 0.92299190E+02</rscale>
<asrwt>0</asrwt>
<pdfrwt beam="1">  1        2 0.39765735E-02 0.92299190E+02</pdfrwt>
<pdfrwt beam="2">  1       -2 0.12676520E-01 0.92299190E+02</pdfrwt>
<totfact> 0.81879585E+04</totfact>
</mgrwt>
</event>
<event>
 5    1  0.6222456E+000  0.9176996E+02  0.7546771E-02  0.1298621E+00
          2   -1    0    0  501    0  0.00000000000E+00  0.00000000000E+00  0.10189862907E+03  0.10189862907E+03  0.00000000000E+00 0. -1.
         -2   -1    0    0    0  501 -0.00000000000E+00 -0.00000000000E+00 -0.20662020104E+02  0.20662020104E+02  0.00000000000E+00 0.  1.
         23    2    1    2    0    0  0.00000000000E+00  0.00000000000E+00  0.81236608963E+02  0.12256064917E+03  0.91769962894E+02 0.  0.
        -11    1    3    3    0    0 -0.23062378722E+02 -0.37587452179E+02  0.57550555799E+02  0.72503491960E+02  0.00000000000E+00 0. -1.
         11    1    3    3    0    0  0.23062378722E+02  0.37587452179E+02  0.23686053164E+02  0.50057157212E+02  0.00000000000E+00 0.  1.
<mgrwt>
<rscale>  0 0.91769963E+02</rscale>
<asrwt>0</asrwt>
<pdfrwt beam="1">  1        2 0.15676712E-01 0.91769963E+02</pdfrwt>
<pdfrwt beam="2">  1       -2 0.31787724E-02 0.91769963E+02</pdfrwt>
<totfact> 0.12119830E+05</totfact>
</mgrwt>
</event>
<event>
 5    1  0.6222456E+000  0.9057335E+02  0.7546771E-02  0.1301469E+00
         -1   -1    0    0    0  501 -0.00000000000E+00  0.00000000000E+00  0.13281700463E+02  0.13281700463E+02  0.00000000000E+00 0.  1.
          1   -1    0    0  501    0  0.00000000000E+00 -0.00000000000E+00 -0.15441418963E+03  0.15441418963E+03  0.00000000000E+00 0. -1.
         23    2    1    2    0    0  0.00000000000E+00  0.00000000000E+00 -0.14113248917E+03  0.16769589010E+03  0.90573351798E+02 0.  0.
        -11    1    3    3    0    0  0.23119959076E+02  0.12377878617E+02 -0.22078284490E+01  0.26317653642E+02  0.00000000000E+00 0.  1.
         11    1    3    3    0    0 -0.23119959076E+02 -0.12377878617E+02 -0.13892466072E+03  0.14137823645E+03  0.00000000000E+00 0. -1.
<mgrwt>
<rscale>  0 0.90573352E+02</rscale>
<asrwt>0</asrwt>
<pdfrwt beam="2">  1        1 0.23756028E-01 0.90573352E+02</pdfrwt>
<pdfrwt beam="1">  1       -1 0.20433386E-02 0.90573352E+02</pdfrwt>
<totfact> 0.11476892E+05</totfact>
</mgrwt>
</event>
<event>
 5    1  0.6222456E+000  0.9116391E+02  0.7546771E-02  0.1300057E+00
         -2   -1    0    0    0  501 -0.00000000000E+00  0.00000000000E+00  0.11335896561E+02  0.11335896561E+02  0.00000000000E+00 0.  1.
          2   -1    0    0  501    0  0.00000000000E+00 -0.00000000000E+00 -0.18328631051E+03  0.18328631051E+03  0.00000000000E+00 0. -1.
         23    2    1    2    0    0  0.00000000000E+00  0.00000000000E+00 -0.17195041395E+03  0.19462220707E+03  0.91163910775E+02 0.  0.
        -11    1    3    3    0    0 -0.59412778915E+01 -0.37850444999E+02 -0.33258436073E+02  0.50735377594E+02  0.00000000000E+00 0. -1.
         11    1    3    3    0    0  0.59412778915E+01  0.37850444999E+02 -0.13869197788E+03  0.14388682948E+03  0.00000000000E+00 0.  1.
<mgrwt>
<rscale>  0 0.91163911E+02</rscale>
<asrwt>0</asrwt>
<pdfrwt beam="2">  1        2 0.28197895E-01 0.91163911E+02</pdfrwt>
<pdfrwt beam="1">  1       -2 0.17439840E-02 0.91163911E+02</pdfrwt>
<totfact> 0.14996559E+05</totfact>
</mgrwt>
</event>
<event>
 5    1  0.6222456E+000  0.9180809E+02  0.7546771E-02  0.1298531E+00
          2   -1    0    0  501    0  0.00000000000E+00  0.00000000000E+00  0.22036416158E+02  0.22036416158E+02  0.00000000000E+00 0.  1.
         -2   -1    0    0    0  501 -0.00000000000E+00 -0.00000000000E+00 -0.95622679594E+02  0.95622679594E+02  0.00000000000E+00 0. -1.
         23    2    1    2    0    0  0.00000000000E+00  0.00000000000E+00 -0.73586263437E+02  0.11765909575E+03  0.91808085955E+02 0.  0.
        -11    1    3    3    0    0 -0.18794190899E+02  0.37581823978E+02 -0.60478597305E+02  0.73642894002E+02  0.00000000000E+00 0. -1.
         11    1    3    3    0    0  0.18794190899E+02 -0.37581823978E+02 -0.13107666132E+02  0.44016201750E+02  0.00000000000E+00 0.  1.
<mgrwt>
<rscale>  0 0.91808086E+02</rscale>
<asrwt>0</asrwt>
<pdfrwt beam="1">  1        2 0.33902179E-02 0.91808086E+02</pdfrwt>
<pdfrwt beam="2">  1       -2 0.14711181E-01 0.91808086E+02</pdfrwt>
<totfact> 0.79495327E+04</totfact>
</mgrwt>
</event>
<event>
 5    1  0.6222456E+000  0.9121051E+02  0.7546771E-02  0.1299946E+00
         -2   -1    0    0    0  501 -0.00000000000E+00  0.00000000000E+00  0.12853095477E+03  0.12853095477E+03  0.00000000000E+00 0.  1.
          2   -1    0    0  501    0  0.00000000000E+00 -0.00000000000E+00 -0.16181620236E+02  0.16181620236E+02  0.00000000000E+00 0. -1.
         23    2    1    2    0    0  0.00000000000E+00  0.00000000000E+00  0.11234933453E+03  0.14471257500E+03  0.91210505943E+02 0.  0.
        -11    1    3    3    0    0 -0.44753128538E+02 -0.52069355723E+01  0.67380491651E+02  0.81056062988E+02  0.00000000000E+00 0. -1.
         11    1    3    3    0    0  0.44753128538E+02  0.52069355723E+01  0.44968842879E+02  0.63656512015E+02  0.00000000000E+00 0.  1.
<mgrwt>
<rscale>  0 0.91210506E+02</rscale>
<asrwt>0</asrwt>
<pdfrwt beam="2">  1        2 0.24894801E-02 0.91210506E+02</pdfrwt>
<pdfrwt beam="1">  1       -2 0.19773992E-01 0.91210506E+02</pdfrwt>
<totfact> 0.73660636E+04</totfact>
</mgrwt>
</event>
<event>
 5    1  0.6222456E+000  0.1121887E+03  0.7546771E-02  0.1256570E+00
          3   -1    0    0  501    0  0.00000000000E+00  0.00000000000E+00  0.26391763509E+02  0.26391763509E+02  0.00000000000E+00 0. -1.
         -3   -1    0    0    0  501 -0.00000000000E+00 -0.00000000000E+00 -0.11922569426E+03  0.11922569426E+03  0.00000000000E+00 0.  1.
         23    2    1    2    0    0  0.00000000000E+00  0.00000000000E+00 -0.92833930753E+02  0.14561745777E+03  0.11218870401E+03 0.  0.
        -11    1    3    3    0    0  0.20061244181E+02  0.52383964270E+02 -0.46686419478E+02  0.72980511059E+02  0.00000000000E+00 0.  1.
         11    1    3    3    0    0 -0.20061244181E+02 -0.52383964270E+02 -0.46147511275E+02  0.72636946712E+02  0.00000000000E+00 0. -1.
<mgrwt>
<rscale>  0 0.11218870E+03</rscale>
<asrwt>0</asrwt>
<pdfrwt beam="1">  1        3 0.40602714E-02 0.11218870E+03</pdfrwt>
<pdfrwt beam="2">  1       -3 0.18342414E-01 0.11218870E+03</pdfrwt>
<totfact> 0.17872430E+04</totfact>
</mgrwt>
</event>
<event>
 5    1  0.6222456E+000  0.9229475E+02  0.7546771E-02  0.1297388E+00
         -2   -1    0    0    0  501 -0.00000000000E+00  0.00000000000E+00  0.18957930722E+02  0.18957930722E+02  0.00000000000E+00 0.  1.
          2   -1    0    0  501    0  0.00000000000E+00 -0.00000000000E+00 -0.11233190299E+03  0.11233190299E+03  0.00000000000E+00 0. -1.
         23    2    1    2    0    0  0.00000000000E+00  0.00000000000E+00 -0.93373972271E+02  0.13128983371E+03  0.92294754667E+02 0.  0.
        -11    1    3    3    0    0  0.70952460250E+01  0.24168984111E+02  0.83163367467E+01  0.26526284437E+02  0.00000000000E+00 0.  1.
         11    1    3    3    0    0 -0.70952460250E+01 -0.24168984111E+02 -0.10169030902E+03  0.10476354928E+03  0.00000000000E+00 0. -1.
<mgrwt>
<rscale>  0 0.92294755E+02</rscale>
<asrwt>0</asrwt>
<pdfrwt beam="2">  1        2 0.17281831E-01 0.92294755E+02</pdfrwt>
<pdfrwt beam="1">  1       -2 0.29166047E-02 0.92294755E+02</pdfrwt>
<totfact> 0.12298741E+05</totfact>
</mgrwt>
</event>
<event>
 5    1  0.6222456E+000  0.9331574E+02  0.7546771E-02  0.1295015E+00
         -1   -1    0    0    0  501 -0.00000000000E+00  0.00000000000E+00  0.22726639541E+02  0.22726639541E+02  0.00000000000E+00 0.  1.
          1   -1    0    0  501    0  0.00000000000E+00 -0.00000000000E+00 -0.95788765296E+02  0.95788765296E+02  0.00000000000E+00 0. -1.
         23    2    1    2    0    0  0.00000000000E+00  0.00000000000E+00 -0.73062125755E+02  0.11851540484E+03  0.93315738029E+02 0.  0.
        -11    1    3    3    0    0 -0.36427236791E+02 -0.28910809525E+02 -0.31748823890E+02  0.56309557856E+02  0.00000000000E+00 0. -1.
         11    1    3    3    0    0  0.36427236791E+02  0.28910809525E+02 -0.41313301865E+02  0.62205846981E+02  0.00000000000E+00 0.  1.
<mgrwt>
<rscale>  0 0.93315738E+02</rscale>
<asrwt>0</asrwt>
<pdfrwt beam="2">  1        1 0.14736733E-01 0.93315738E+02</pdfrwt>
<pdfrwt beam="1">  1       -1 0.34964061E-02 0.93315738E+02</pdfrwt>
<totfact> 0.97335614E+04</totfact>
</mgrwt>
</event>
<event>
 5    1  0.6222456E+000  0.9419566E+02  0.7546771E-02  0.1292998E+00
         -1   -1    0    0    0  501 -0.00000000000E+00  0.00000000000E+00  0.13148844624E+03  0.13148844624E+03  0.00000000000E+00 0.  1.
          1   -1    0    0  501    0  0.00000000000E+00 -0.00000000000E+00 -0.16869965658E+02  0.16869965658E+02  0.00000000000E+00 0. -1.
         23    2    1    2    0    0  0.00000000000E+00  0.00000000000E+00  0.11461848059E+03  0.14835841190E+03  0.94195659614E+02 0.  0.
        -11    1    3    3    0    0 -0.45885644109E+02 -0.10498333330E+02  0.59798658642E+02  0.76102476395E+02  0.00000000000E+00 0. -1.
         11    1    3    3    0    0  0.45885644109E+02  0.10498333330E+02  0.54819821945E+02  0.72255935507E+02  0.00000000000E+00 0.  1.
<mgrwt>
<rscale>  0 0.94195660E+02</rscale>
<asrwt>0</asrwt>
<pdfrwt beam="2">  1        1 0.25953794E-02 0.94195660E+02</pdfrwt>
<pdfrwt beam="1">  1       -1 0.20228991E-01 0.94195660E+02</pdfrwt>
<totfact> 0.70794668E+04</totfact>
</mgrwt>
</event>
<event>
 5    1  0.6222456E+000  0.9106158E+02  0.7546771E-02  0.1300301E+00
         -1   -1    0    0    0  501 -0.00000000000E+00  0.00000000000E+00  0.60577632268E+01  0.60577632268E+01  0.00000000000E+00 0.  1.
          1   -1    0    0  501    0  0.00000000000E+00 -0.00000000000E+00 -0.34221423388E+03  0.34221423388E+03  0.00000000000E+00 0. -1.
         23    2    1    2    0    0  0.00000000000E+00  0.00000000000E+00 -0.33615647066E+03  0.34827199711E+03  0.91061579203E+02 0.  0.
        -11    1    3    3    0    0  0.15279739651E+02 -0.41725879086E+02 -0.13011396542E+03  0.13749241226E+03  0.00000000000E+00 0.  1.
         11    1    3    3    0    0 -0.15279739651E+02  0.41725879086E+02 -0.20604250523E+03  0.21077958486E+03  0.00000000000E+00 0. -1.
<mgrwt>
<rscale>  0 0.91061579E+02</rscale>
<asrwt>0</asrwt>
<pdfrwt beam="2">  1        1 0.52648337E-01 0.91061579E+02</pdfrwt>
<pdfrwt beam="1">  1       -1 0.93196368E-03 0.91061579E+02</pdfrwt>
<totfact> 0.13174346E+05</totfact>
</mgrwt>
</event>
<event>
 5    1  0.6222456E+000  0.9109664E+02  0.7546771E-02  0.1300218E+00
         -2   -1    0    0    0  501 -0.00000000000E+00  0.00000000000E+00  0.11816323946E+02  0.11816323946E+02  0.00000000000E+00 0.  1.
          2   -1    0    0  501    0  0.00000000000E+00 -0.00000000000E+00 -0.17557487698E+03  0.17557487698E+03  0.00000000000E+00 0. -1.
         23    2    1    2    0    0  0.00000000000E+00  0.00000000000E+00 -0.16375855303E+03  0.18739120092E+03  0.91096643696E+02 0.  0.
        -11    1    3    3    0    0 -0.39874897331E+02 -0.21809089402E+02 -0.75706108487E+02  0.88300955147E+02  0.00000000000E+00 0.  1.
         11    1    3    3    0    0  0.39874897331E+02  0.21809089402E+02 -0.88052444545E+02  0.99090245777E+02  0.00000000000E+00 0. -1.
<mgrwt>
<rscale>  0 0.91096644E+02</rscale>
<asrwt>0</asrwt>
<pdfrwt beam="2">  1        2 0.27011518E-01 0.91096644E+02</pdfrwt>
<pdfrwt beam="1">  1       -2 0.18178961E-02 0.91096644E+02</pdfrwt>
<totfact> 0.14799201E+05</totfact>
</mgrwt>
</event>
<event>
 5    1  0.6222456E+000  0.9258811E+02  0.7546771E-02  0.1296703E+00
         -1   -1    0    0    0  501 -0.00000000000E+00  0.00000000000E+00  0.20087642304E+03  0.20087642304E+03  0.00000000000E+00 0.  1.
          1   -1    0    0  501    0  0.00000000000E+00 -0.00000000000E+00 -0.10668944847E+02  0.10668944847E+02  0.00000000000E+00 0. -1.
         23    2    1    2    0    0  0.00000000000E+00  0.00000000000E+00  0.19020747819E+03  0.21154536788E+03  0.92588108923E+02 0.  0.
        -11    1    3    3    0    0 -0.26521391421E+02  0.35346094086E+02  0.63576064602E+02  0.77425102908E+02  0.00000000000E+00 0.  1.
         11    1    3    3    0    0  0.26521391421E+02 -0.35346094086E+02  0.12663141359E+03  0.13412026498E+03  0.00000000000E+00 0. -1.
<mgrwt>
<rscale>  0 0.92588109E+02</rscale>
<asrwt>0</asrwt>
<pdfrwt beam="2">  1        1 0.16413763E-02 0.92588109E+02</pdfrwt>
<pdfrwt beam="1">  1       -1 0.30904062E-01 0.92588109E+02</pdfrwt>
<totfact> 0.66614110E+04</totfact>
</mgrwt>
</event>
<event>
 5    1  0.6222456E+000  0.9129588E+02  0.7546771E-02  0.1299744E+00
          1   -1    0    0  501    0  0.00000000000E+00  0.00000000000E+00  0.34762382206E+03  0.34762382206E+03  0.00000000000E+00 0. -1.
         -1   -1    0    0    0  501 -0.00000000000E+00 -0.00000000000E+00 -0.59942218840E+01  0.59942218840E+01  0.00000000000E+00 0.  1.
         23    2    1    2    0    0  0.00000000000E+00  0.00000000000E+00  0.34162960018E+03  0.35361804395E+03  0.91295877708E+02 0.  0.
        -11    1    3    3    0    0  0.13549457250E+02  0.41485865545E+02  0.11898326787E+03  0.12673469480E+03  0.00000000000E+00 0.  1.
         11    1    3    3    0    0 -0.13549457250E+02 -0.41485865545E+02  0.22264633231E+03  0.22688334915E+03  0.00000000000E+00 0. -1.
<mgrwt>
<rscale>  0 0.91295878E+02</rscale>
<asrwt>0</asrwt>
<pdfrwt beam="1">  1        1 0.53480572E-01 0.91295878E+02</pdfrwt>
<pdfrwt beam="2">  1       -1 0.92218826E-03 0.91295878E+02</pdfrwt>
<totfact> 0.13121555E+05</totfact>
</mgrwt>
</event>
<event>
 5    1  0.6222456E+000  0.9100164E+02  0.7546771E-02  0.1300444E+00
          2   -1    0    0  501    0  0.00000000000E+00  0.00000000000E+00  0.12921544834E+02  0.12921544834E+02  0.00000000000E+00 0. -1.
         -2   -1    0    0    0  501 -0.00000000000E+00 -0.00000000000E+00 -0.16022269566E+03  0.16022269566E+03  0.00000000000E+00 0.  1.
         23    2    1    2    0    0  0.00000000000E+00  0.00000000000E+00 -0.14730115082E+03  0.17314424049E+03  0.91001642740E+02 0.  0.
        -11    1    3    3    0    0 -0.17727842371E+02 -0.40559590067E+02 -0.53607807188E+02  0.69520887027E+02  0.00000000000E+00 0. -1.
         11    1    3    3    0    0  0.17727842371E+02  0.40559590067E+02 -0.93693343636E+02  0.10362335346E+03  0.00000000000E+00 0.  1.
<mgrwt>
<rscale>  0 0.91001643E+02</rscale>
<asrwt>0</asrwt>
<pdfrwt beam="1">  1        2 0.19879301E-02 0.91001643E+02</pdfrwt>
<pdfrwt beam="2">  1       -2 0.24649644E-01 0.91001643E+02</pdfrwt>
<totfact> 0.68502758E+04</totfact>
</mgrwt>
</event>
<event>
 5    1  0.6222456E+000  0.8938366E+02  0.7546771E-02  0.1304351E+00
          2   -1    0    0  501    0  0.00000000000E+00  0.00000000000E+00  0.24144906112E+02  0.24144906112E+02  0.00000000000E+00 0. -1.
         -2   -1    0    0    0  501 -0.00000000000E+00 -0.00000000000E+00 -0.82723860775E+02  0.82723860775E+02  0.00000000000E+00 0.  1.
         23    2    1    2    0    0  0.00000000000E+00  0.00000000000E+00 -0.58578954663E+02  0.10686876689E+03  0.89383664092E+02 0.  0.
        -11    1    3    3    0    0 -0.25531326663E+02 -0.13704836076E+01 -0.73115592238E+02  0.77457192661E+02  0.00000000000E+00 0.  1.
         11    1    3    3    0    0  0.25531326663E+02  0.13704836076E+01  0.14536637575E+02  0.29411574227E+02  0.00000000000E+00 0. -1.
<mgrwt>
<rscale>  0 0.89383664E+02</rscale>
<asrwt>0</asrwt>
<pdfrwt beam="1">  1        2 0.37146009E-02 0.89383664E+02</pdfrwt>
<pdfrwt beam="2">  1       -2 0.12726748E-01 0.89383664E+02</pdfrwt>
<totfact> 0.88514031E+04</totfact>
</mgrwt>
</event>
<event>
 5    1  0.6222456E+000  0.9145334E+02  0.7546771E-02  0.1299370E+00
          2   -1    0    0  501    0  0.00000000000E+00  0.00000000000E+00  0.40583994216E+03  0.40583994216E+03  0.00000000000E+00 0. -1.
         -2   -1    0    0    0  501 -0.00000000000E+00 -0.00000000000E+00 -0.51521005230E+01  0.51521005230E+01  0.00000000000E+00 0.  1.
         23    2    1    2    0    0  0.00000000000E+00  0.00000000000E+00  0.40068784164E+03  0.41099204268E+03  0.91453336260E+02 0.  0.
        -11    1    3    3    0    0 -0.90628218984E+01 -0.44517086225E+02  0.17698265378E+03  0.18272045711E+03  0.00000000000E+00 0. -1.
         11    1    3    3    0    0  0.90628218984E+01  0.44517086225E+02  0.22370518786E+03  0.22827158557E+03  0.00000000000E+00 0.  1.
<mgrwt>
<rscale>  0 0.91453336E+02</rscale>
<asrwt>0</asrwt>
<pdfrwt beam="1">  1        2 0.62436889E-01 0.91453336E+02</pdfrwt>
<pdfrwt beam="2">  1       -2 0.79263117E-03 0.91453336E+02</pdfrwt>
<totfact> 0.19905240E+05</totfact>
</mgrwt>
</event>
<event>
 5    1  0.6222456E+000  0.9221605E+02  0.7546771E-02  0.1297572E+00
         -1   -1    0    0    0  501 -0.00000000000E+00  0.00000000000E+00  0.16642256608E+02  0.16642256608E+02  0.00000000000E+00 0.  1.
          1   -1    0    0  501    0  0.00000000000E+00 -0.00000000000E+00 -0.12774409956E+03  0.12774409956E+03  0.00000000000E+00 0. -1.
         23    2    1    2    0    0  0.00000000000E+00  0.00000000000E+00 -0.11110184296E+03  0.14438635617E+03  0.92216052510E+02 0.  0.
        -11    1    3    3    0    0 -0.18380095968E+02 -0.16613772069E+02 -0.11643595726E+03  0.11904275490E+03  0.00000000000E+00 0. -1.
         11    1    3    3    0    0  0.18380095968E+02  0.16613772069E+02  0.53341143059E+01  0.25343601274E+02  0.00000000000E+00 0.  1.
<mgrwt>
<rscale>  0 0.92216053E+02</rscale>
<asrwt>0</asrwt>
<pdfrwt beam="2">  1        1 0.19652939E-01 0.92216053E+02</pdfrwt>
<pdfrwt beam="1">  1       -1 0.25603470E-02 0.92216053E+02</pdfrwt>
<totfact> 0.10563094E+05</totfact>
</mgrwt>
</event>
<event>
 5    1  0.6222456E+000  0.9240748E+02  0.7546771E-02  0.1297124E+00
         -1   -1    0    0    0  501 -0.00000000000E+00  0.00000000000E+00  0.15683474817E+02  0.15683474817E+02  0.00000000000E+00 0.  1.
          1   -1    0    0  501    0  0.00000000000E+00 -0.00000000000E+00 -0.13611687729E+03  0.13611687729E+03  0.00000000000E+00 0. -1.
         23    2    1    2    0    0  0.00000000000E+00  0.00000000000E+00 -0.12043340247E+03  0.15180035210E+03  0.92407480587E+02 0.  0.
        -11    1    3    3    0    0 -0.26755774713E+02 -0.36830956597E+02 -0.47240733623E+02  0.65605470486E+02  0.00000000000E+00 0.  1.
         11    1    3    3    0    0  0.26755774713E+02  0.36830956597E+02 -0.73192668845E+02  0.86194881618E+02  0.00000000000E+00 0. -1.
<mgrwt>
<rscale>  0 0.92407481E+02</rscale>
<asrwt>0</asrwt>
<pdfrwt beam="2">  1        1 0.20941058E-01 0.92407481E+02</pdfrwt>
<pdfrwt beam="1">  1       -1 0.24128423E-02 0.92407481E+02</pdfrwt>
<totfact> 0.10624093E+05</totfact>
</mgrwt>
</event>
<event>
 5    1  0.6222456E+000  0.9076418E+02  0.7546771E-02  0.1301012E+00
          3   -1    0    0  501    0  0.00000000000E+00  0.00000000000E+00  0.18015342113E+02  0.18015342113E+02  0.00000000000E+00 0. -1.
         -3   -1    0    0    0  501 -0.00000000000E+00 -0.00000000000E+00 -0.11432112678E+03  0.11432112678E+03  0.00000000000E+00 0.  1.
         23    2    1    2    0    0  0.00000000000E+00  0.00000000000E+00 -0.96305784671E+02  0.13233646890E+03  0.90764182577E+02 0.  0.
        -11    1    3    3    0    0  0.16241550962E+02  0.14371757924E+02  0.99709286616E+01  0.23869537529E+02  0.00000000000E+00 0. -1.
         11    1    3    3    0    0 -0.16241550962E+02 -0.14371757924E+02 -0.10627671333E+03  0.10846693137E+03  0.00000000000E+00 0.  1.
<mgrwt>
<rscale>  0 0.90764183E+02</rscale>
<asrwt>0</asrwt>
<pdfrwt beam="1">  1        3 0.27715911E-02 0.90764183E+02</pdfrwt>
<pdfrwt beam="2">  1       -3 0.17587866E-01 0.90764183E+02</pdfrwt>
<totfact> 0.32825438E+04</totfact>
</mgrwt>
</event>
<event>
 5    1  0.6222456E+000  0.9575178E+02  0.7546771E-02  0.1289492E+00
         -2   -1    0    0    0  501 -0.00000000000E+00  0.00000000000E+00  0.21434227653E+02  0.21434227653E+02  0.00000000000E+00 0.  1.
          2   -1    0    0  501    0  0.00000000000E+00 -0.00000000000E+00 -0.10693646867E+03  0.10693646867E+03  0.00000000000E+00 0. -1.
         23    2    1    2    0    0  0.00000000000E+00  0.00000000000E+00 -0.85502241016E+02  0.12837069632E+03  0.95751775207E+02 0.  0.
        -11    1    3    3    0    0 -0.31735484486E+02 -0.18985320604E+02 -0.19871414723E+01  0.37034201831E+02  0.00000000000E+00 0.  1.
         11    1    3    3    0    0  0.31735484486E+02  0.18985320604E+02 -0.83515099544E+02  0.91336494491E+02  0.00000000000E+00 0. -1.
<mgrwt>
<rscale>  0 0.95751775E+02</rscale>
<asrwt>0</asrwt>
<pdfrwt beam="2">  1        2 0.16451764E-01 0.95751775E+02</pdfrwt>
<pdfrwt beam="1">  1       -2 0.32975736E-02 0.95751775E+02</pdfrwt>
<totfact> 0.10941479E+05</totfact>
</mgrwt>
</event>
<event>
 5    1  0.6222456E+000  0.9219641E+02  0.7546771E-02  0.1297618E+00
         -1   -1    0    0    0  501 -0.00000000000E+00  0.00000000000E+00  0.62870864273E+02  0.62870864273E+02  0.00000000000E+00 0.  1.
          1   -1    0    0  501    0  0.00000000000E+00 -0.00000000000E+00 -0.33800150903E+02  0.33800150903E+02  0.00000000000E+00 0. -1.
         23    2    1    2    0    0  0.00000000000E+00  0.00000000000E+00  0.29070713370E+02  0.96671015176E+02  0.92196414243E+02 0.  0.
        -11    1    3    3    0    0  0.10834516158E+02  0.32613424508E+02  0.46751490594E+02  0.58023478621E+02  0.00000000000E+00 0.  1.
         11    1    3    3    0    0 -0.10834516158E+02 -0.32613424508E+02 -0.17680777224E+02  0.38647536555E+02  0.00000000000E+00 0. -1.
<mgrwt>
<rscale>  0 0.92196414E+02</rscale>
<asrwt>0</asrwt>
<pdfrwt beam="2">  1        1 0.52000232E-02 0.92196414E+02</pdfrwt>
<pdfrwt beam="1">  1       -1 0.96724406E-02 0.92196414E+02</pdfrwt>
<totfact> 0.85579892E+04</totfact>
</mgrwt>
</event>
<event>
 5    1  0.6222456E+000  0.9011086E+02  0.7546771E-02  0.1302583E+00
          1   -1    0    0  501    0  0.00000000000E+00  0.00000000000E+00  0.20374804776E+03  0.20374804776E+03  0.00000000000E+00 0. -1.
         -1   -1    0    0    0  501 -0.00000000000E+00 -0.00000000000E+00 -0.99632461993E+01  0.99632461993E+01  0.00000000000E+00 0.  1.
         23    2    1    2    0    0  0.00000000000E+00  0.00000000000E+00  0.19378480156E+03  0.21371129396E+03  0.90110864217E+02 0.  0.
        -11    1    3    3    0    0  0.51198846573E+01  0.44550764813E+02  0.10723237967E+03  0.11623152375E+03  0.00000000000E+00 0.  1.
         11    1    3    3    0    0 -0.51198846573E+01 -0.44550764813E+02  0.86552421894E+02  0.97479770210E+02  0.00000000000E+00 0. -1.
<mgrwt>
<rscale>  0 0.90110864E+02</rscale>
<asrwt>0</asrwt>
<pdfrwt beam="1">  1        1 0.31345850E-01 0.90110864E+02</pdfrwt>
<pdfrwt beam="2">  1       -1 0.15328073E-02 0.90110864E+02</pdfrwt>
<totfact> 0.12263515E+05</totfact>
</mgrwt>
</event>
<event>
 5    1  0.6222456E+000  0.9769667E+02  0.7546771E-02  0.1285215E+00
          1   -1    0    0  501    0  0.00000000000E+00  0.00000000000E+00  0.99936104869E+02  0.99936104869E+02  0.00000000000E+00 0. -1.
         -1   -1    0    0    0  501 -0.00000000000E+00 -0.00000000000E+00 -0.23876853955E+02  0.23876853955E+02  0.00000000000E+00 0.  1.
         23    2    1    2    0    0  0.00000000000E+00  0.00000000000E+00  0.76059250914E+02  0.12381295882E+03  0.97696668947E+02 0.  0.
        -11    1    3    3    0    0 -0.24285761047E+02  0.30622001070E+02  0.89358408537E+00  0.39093524165E+02  0.00000000000E+00 0.  1.
         11    1    3    3    0    0  0.24285761047E+02 -0.30622001070E+02  0.75165666829E+02  0.84719434659E+02  0.00000000000E+00 0. -1.
<mgrwt>
<rscale>  0 0.97696669E+02</rscale>
<asrwt>0</asrwt>
<pdfrwt beam="1">  1        1 0.15374785E-01 0.97696669E+02</pdfrwt>
<pdfrwt beam="2">  1       -1 0.36733622E-02 0.97696669E+02</pdfrwt>
<totfact> 0.86430949E+04</totfact>
</mgrwt>
</event>
<event>
 5    1  0.6222456E+000  0.6974998E+02  0.7546771E-02  0.1360945E+00
          2   -1    0    0  501    0  0.00000000000E+00  0.00000000000E+00  0.10145698949E+03  0.10145698949E+03  0.00000000000E+00 0. -1.
         -2   -1    0    0    0  501 -0.00000000000E+00 -0.00000000000E+00 -0.11987984637E+02  0.11987984637E+02  0.00000000000E+00 0.  1.
         23    2    1    2    0    0  0.00000000000E+00  0.00000000000E+00  0.89469004852E+02  0.11344497413E+03  0.69749977241E+02 0.  0.
        -11    1    3    3    0    0  0.16902856924E+02  0.22532273882E+02  0.78179939071E+02  0.83099415230E+02  0.00000000000E+00 0. -1.
         11    1    3    3    0    0 -0.16902856924E+02 -0.22532273882E+02  0.11289065782E+02  0.30345558896E+02  0.00000000000E+00 0.  1.
<mgrwt>
<rscale>  0 0.69749977E+02</rscale>
<asrwt>0</asrwt>
<pdfrwt beam="1">  1        2 0.15608767E-01 0.69749977E+02</pdfrwt>
<pdfrwt beam="2">  1       -2 0.18443054E-02 0.69749977E+02</pdfrwt>
<totfact> 0.25383092E+05</totfact>
</mgrwt>
</event>
<event>
 5    1  0.6222456E+000  0.9304814E+02  0.7546771E-02  0.1295634E+00
          2   -1    0    0  501    0  0.00000000000E+00  0.00000000000E+00  0.13869542632E+02  0.13869542632E+02  0.00000000000E+00 0. -1.
         -2   -1    0    0    0  501 -0.00000000000E+00 -0.00000000000E+00 -0.15606060614E+03  0.15606060614E+03  0.00000000000E+00 0.  1.
         23    2    1    2    0    0  0.00000000000E+00  0.00000000000E+00 -0.14219106350E+03  0.16993014877E+03  0.93048143023E+02 0.  0.
        -11    1    3    3    0    0  0.27698669077E+02  0.29412712700E+02 -0.28966061240E+02  0.49712741232E+02  0.00000000000E+00 0. -1.
         11    1    3    3    0    0 -0.27698669077E+02 -0.29412712700E+02 -0.11322500226E+03  0.12021740754E+03  0.00000000000E+00 0.  1.
<mgrwt>
<rscale>  0 0.93048143E+02</rscale>
<asrwt>0</asrwt>
<pdfrwt beam="1">  1        2 0.21337757E-02 0.93048143E+02</pdfrwt>
<pdfrwt beam="2">  1       -2 0.24009325E-01 0.93048143E+02</pdfrwt>
<totfact> 0.65385906E+04</totfact>
</mgrwt>
</event>
<event>
 5    1  0.6222456E+000  0.9008662E+02  0.7546771E-02  0.1302642E+00
          2   -1    0    0  501    0  0.00000000000E+00  0.00000000000E+00  0.15371696316E+03  0.15371696316E+03  0.00000000000E+00 0. -1.
         -2   -1    0    0    0  501 -0.00000000000E+00 -0.00000000000E+00 -0.13198931580E+02  0.13198931580E+02  0.00000000000E+00 0.  1.
         23    2    1    2    0    0  0.00000000000E+00  0.00000000000E+00  0.14051803158E+03  0.16691589474E+03  0.90086617860E+02 0.  0.
        -11    1    3    3    0    0 -0.27170564068E+02 -0.22488424139E+02  0.12216926662E+03  0.12715855645E+03  0.00000000000E+00 0. -1.
         11    1    3    3    0    0  0.27170564068E+02  0.22488424139E+02  0.18348764955E+02  0.39757338284E+02  0.00000000000E+00 0.  1.
<mgrwt>
<rscale>  0 0.90086618E+02</rscale>
<asrwt>0</asrwt>
<pdfrwt beam="1">  1        2 0.23648762E-01 0.90086618E+02</pdfrwt>
<pdfrwt beam="2">  1       -2 0.20306050E-02 0.90086618E+02</pdfrwt>
<totfact> 0.14565079E+05</totfact>
</mgrwt>
</event>
<event>
 5    1  0.6222456E+000  0.9135126E+02  0.7546771E-02  0.1299612E+00
         -1   -1    0    0    0  501 -0.00000000000E+00  0.00000000000E+00  0.42896425503E+02  0.42896425503E+02  0.00000000000E+00 0.  1.
          1   -1    0    0  501    0  0.00000000000E+00 -0.00000000000E+00 -0.48634898762E+02  0.48634898762E+02  0.00000000000E+00 0. -1.
         23    2    1    2    0    0  0.00000000000E+00  0.00000000000E+00 -0.57384732596E+01  0.91531324265E+02  0.91351262970E+02 0.  0.
        -11    1    3    3    0    0  0.68017019761E+01  0.24403356148E+02 -0.40950417809E+02  0.48153127207E+02  0.00000000000E+00 0. -1.
         11    1    3    3    0    0 -0.68017019761E+01 -0.24403356148E+02  0.35211944549E+02  0.43378197058E+02  0.00000000000E+00 0.  1.
<mgrwt>
<rscale>  0 0.91351263E+02</rscale>
<asrwt>0</asrwt>
<pdfrwt beam="2">  1        1 0.74822921E-02 0.91351263E+02</pdfrwt>
<pdfrwt beam="1">  1       -1 0.65994501E-02 0.91351263E+02</pdfrwt>
<totfact> 0.92876456E+04</totfact>
</mgrwt>
</event>
<event>
 5    1  0.6222456E+000  0.6968313E+02  0.7546771E-02  0.1361174E+00
         -1   -1    0    0    0  501 -0.00000000000E+00  0.00000000000E+00  0.30855578971E+01  0.30855578971E+01  0.00000000000E+00 0.  1.
          1   -1    0    0  501    0  0.00000000000E+00 -0.00000000000E+00 -0.39342470216E+03  0.39342470216E+03  0.00000000000E+00 0. -1.
         23    2    1    2    0    0  0.00000000000E+00  0.00000000000E+00 -0.39033914427E+03  0.39651026006E+03  0.69683131292E+02 0.  0.
        -11    1    3    3    0    0  0.26349353320E+02 -0.22755117298E+02 -0.20291097707E+03  0.20587605106E+03  0.00000000000E+00 0.  1.
         11    1    3    3    0    0 -0.26349353320E+02  0.22755117298E+02 -0.18742816720E+03  0.19063420900E+03  0.00000000000E+00 0. -1.
<mgrwt>
<rscale>  0 0.69683131E+02</rscale>
<asrwt>0</asrwt>
<pdfrwt beam="2">  1        1 0.60526881E-01 0.69683131E+02</pdfrwt>
<pdfrwt beam="1">  1       -1 0.47470118E-03 0.69683131E+02</pdfrwt>
<totfact> 0.27201751E+05</totfact>
</mgrwt>
</event>
<event>
 5    1  0.6222456E+000  0.9542252E+02  0.7546771E-02  0.1290227E+00
         -3   -1    0    0    0  501 -0.00000000000E+00  0.00000000000E+00  0.41389311180E+02  0.41389311180E+02  0.00000000000E+00 0.  1.
          3   -1    0    0  501    0  0.00000000000E+00 -0.00000000000E+00 -0.54998843894E+02  0.54998843894E+02  0.00000000000E+00 0. -1.
         23    2    1    2    0    0  0.00000000000E+00  0.00000000000E+00 -0.13609532714E+02  0.96388155074E+02  0.95422518610E+02 0.  0.
        -11    1    3    3    0    0 -0.24337560420E+02 -0.13053664974E+02  0.32494588153E+02  0.42645202258E+02  0.00000000000E+00 0.  1.
         11    1    3    3    0    0  0.24337560420E+02  0.13053664974E+02 -0.46104120867E+02  0.53742952816E+02  0.00000000000E+00 0. -1.
<mgrwt>
<rscale>  0 0.95422519E+02</rscale>
<asrwt>0</asrwt>
<pdfrwt beam="2">  1        3 0.84613605E-02 0.95422519E+02</pdfrwt>
<pdfrwt beam="1">  1       -3 0.63675864E-02 0.95422519E+02</pdfrwt>
<totfact> 0.30853468E+04</totfact>
</mgrwt>
</event>
<event>
 5    1  0.6222456E+000  0.9030874E+02  0.7546771E-02  0.1302106E+00
         -1   -1    0    0    0  501 -0.00000000000E+00  0.00000000000E+00  0.61346392954E+02  0.61346392954E+02  0.00000000000E+00 0.  1.
          1   -1    0    0  501    0  0.00000000000E+00 -0.00000000000E+00 -0.33236136016E+02  0.33236136016E+02  0.00000000000E+00 0. -1.
         23    2    1    2    0    0  0.00000000000E+00  0.00000000000E+00  0.28110256937E+02  0.94582528970E+02  0.90308738454E+02 0.  0.
        -11    1    3    3    0    0 -0.20648223551E+02 -0.11400875838E+01  0.56095355663E+02  0.59785766387E+02  0.00000000000E+00 0.  1.
         11    1    3    3    0    0  0.20648223551E+02  0.11400875838E+01 -0.27985098726E+02  0.34796762582E+02  0.00000000000E+00 0. -1.
<mgrwt>
<rscale>  0 0.90308738E+02</rscale>
<asrwt>0</asrwt>
<pdfrwt beam="2">  1        1 0.51132517E-02 0.90308738E+02</pdfrwt>
<pdfrwt beam="1">  1       -1 0.94379066E-02 0.90308738E+02</pdfrwt>
<totfact> 0.90543698E+04</totfact>
</mgrwt>
</event>
<event>
 5    1  0.6222456E+000  0.9293611E+02  0.7546771E-02  0.1295893E+00
          2   -1    0    0  501    0  0.00000000000E+00  0.00000000000E+00  0.37795875459E+02  0.37795875459E+02  0.00000000000E+00 0. -1.
         -2   -1    0    0    0  501 -0.00000000000E+00 -0.00000000000E+00 -0.57130048546E+02  0.57130048546E+02  0.00000000000E+00 0.  1.
         23    2    1    2    0    0  0.00000000000E+00  0.00000000000E+00 -0.19334173087E+02  0.94925924005E+02  0.92936111384E+02 0.  0.
        -11    1    3    3    0    0  0.42137088405E+00  0.39570536386E+02 -0.34545831554E+02  0.52530175909E+02  0.00000000000E+00 0.  1.
         11    1    3    3    0    0 -0.42137088405E+00 -0.39570536386E+02  0.15211658466E+02  0.42395748096E+02  0.00000000000E+00 0. -1.
<mgrwt>
<rscale>  0 0.92936111E+02</rscale>
<asrwt>0</asrwt>
<pdfrwt beam="1">  1        2 0.58147500E-02 0.92936111E+02</pdfrwt>
<pdfrwt beam="2">  1       -2 0.87892383E-02 0.92936111E+02</pdfrwt>
<totfact> 0.88899344E+04</totfact>
</mgrwt>
</event>
<event>
 5    1  0.6222456E+000  0.9657812E+02  0.7546771E-02  0.1287661E+00
         -3   -1    0    0    0  501 -0.00000000000E+00  0.00000000000E+00  0.97832610810E+02  0.97832610810E+02  0.00000000000E+00 0.  1.
          3   -1    0    0  501    0  0.00000000000E+00 -0.00000000000E+00 -0.23834927808E+02  0.23834927808E+02  0.00000000000E+00 0. -1.
         23    2    1    2    0    0  0.00000000000E+00  0.00000000000E+00  0.73997683002E+02  0.12166753862E+03  0.96578117934E+02 0.  0.
        -11    1    3    3    0    0 -0.18268241090E+02 -0.18885651174E+02  0.88038535550E+02  0.91875895612E+02  0.00000000000E+00 0.  1.
         11    1    3    3    0    0  0.18268241090E+02  0.18885651174E+02 -0.14040852547E+02  0.29791643007E+02  0.00000000000E+00 0. -1.
<mgrwt>
<rscale>  0 0.96578118E+02</rscale>
<asrwt>0</asrwt>
<pdfrwt beam="2">  1        3 0.36669120E-02 0.96578118E+02</pdfrwt>
<pdfrwt beam="1">  1       -3 0.15051171E-01 0.96578118E+02</pdfrwt>
<totfact> 0.28319422E+04</totfact>
</mgrwt>
</event>
<event>
 5    1  0.6222456E+000  0.9029940E+02  0.7546771E-02  0.1302128E+00
         -1   -1    0    0    0  501 -0.00000000000E+00  0.00000000000E+00  0.24293402739E+03  0.24293402739E+03  0.00000000000E+00 0.  1.
          1   -1    0    0  501    0  0.00000000000E+00 -0.00000000000E+00 -0.83911484149E+01  0.83911484149E+01  0.00000000000E+00 0. -1.
         23    2    1    2    0    0  0.00000000000E+00  0.00000000000E+00  0.23454287897E+03  0.25132517580E+03  0.90299401523E+02 0.  0.
        -11    1    3    3    0    0 -0.37831897151E+02 -0.24642277904E+02  0.11717597414E+03  0.12557349728E+03  0.00000000000E+00 0.  1.
         11    1    3    3    0    0  0.37831897151E+02  0.24642277904E+02  0.11736690483E+03  0.12575167852E+03  0.00000000000E+00 0. -1.
<mgrwt>
<rscale>  0 0.90299402E+02</rscale>
<asrwt>0</asrwt>
<pdfrwt beam="2">  1        1 0.12909461E-02 0.90299402E+02</pdfrwt>
<pdfrwt beam="1">  1       -1 0.37374460E-01 0.90299402E+02</pdfrwt>
<totfact> 0.67060447E+04</totfact>
</mgrwt>
</event>
<event>
 5    1  0.6222456E+000  0.9294938E+02  0.7546771E-02  0.1295863E+00
         -2   -1    0    0    0  501 -0.00000000000E+00  0.00000000000E+00  0.40435599301E+01  0.40435599301E+01  0.00000000000E+00 0.  1.
          2   -1    0    0  501    0  0.00000000000E+00 -0.00000000000E+00 -0.53415728357E+03  0.53415728357E+03  0.00000000000E+00 0. -1.
         23    2    1    2    0    0  0.00000000000E+00  0.00000000000E+00 -0.53011372364E+03  0.53820084350E+03  0.92949383822E+02 0.  0.
        -11    1    3    3    0    0  0.18736970244E+02  0.42495708510E+02 -0.25513253572E+03  0.25932522067E+03  0.00000000000E+00 0.  1.
         11    1    3    3    0    0 -0.18736970244E+02 -0.42495708510E+02 -0.27498118793E+03  0.27887562283E+03  0.00000000000E+00 0. -1.
<mgrwt>
<rscale>  0 0.92949384E+02</rscale>
<asrwt>0</asrwt>
<pdfrwt beam="2">  1        2 0.82177973E-01 0.92949384E+02</pdfrwt>
<pdfrwt beam="1">  1       -2 0.62208668E-03 0.92949384E+02</pdfrwt>
<totfact> 0.20913888E+05</totfact>
</mgrwt>
</event>
<event>
 5    1  0.6222456E+000  0.9052412E+02  0.7546771E-02  0.1301587E+00
          4   -1    0    0  501    0  0.00000000000E+00  0.00000000000E+00  0.11908496486E+03  0.11908496486E+03  0.00000000000E+00 0. -1.
         -4   -1    0    0    0  501 -0.00000000000E+00 -0.00000000000E+00 -0.17203298462E+02  0.17203298462E+02  0.00000000000E+00 0.  1.
         23    2    1    2    0    0  0.00000000000E+00  0.00000000000E+00  0.10188166640E+03  0.13628826332E+03  0.90524122594E+02 0.  0.
        -11    1    3    3    0    0  0.10223721183E+02 -0.40299285822E+02  0.24004707787E+02  0.48008154605E+02  0.00000000000E+00 0.  1.
         11    1    3    3    0    0 -0.10223721183E+02  0.40299285822E+02  0.77876958611E+02  0.88280108718E+02  0.00000000000E+00 0. -1.
<mgrwt>
<rscale>  0 0.90524123E+02</rscale>
<asrwt>0</asrwt>
<pdfrwt beam="1">  1        4 0.18320763E-01 0.90524123E+02</pdfrwt>
<pdfrwt beam="2">  1       -4 0.26466614E-02 0.90524123E+02</pdfrwt>
<totfact> 0.24856350E+04</totfact>
</mgrwt>
</event>
<event>
 5    1  0.6222456E+000  0.8959488E+02  0.7546771E-02  0.1303836E+00
         -2   -1    0    0    0  501 -0.00000000000E+00  0.00000000000E+00  0.10961792603E+02  0.10961792603E+02  0.00000000000E+00 0. -1.
          2   -1    0    0  501    0  0.00000000000E+00 -0.00000000000E+00 -0.18307322115E+03  0.18307322115E+03  0.00000000000E+00 0.  1.
         23    2    1    2    0    0  0.00000000000E+00  0.00000000000E+00 -0.17211142855E+03  0.19403501376E+03  0.89594881134E+02 0.  0.
        -11    1    3    3    0    0 -0.36731731323E+02  0.23279471371E+02 -0.10934641255E+03  0.11767664089E+03  0.00000000000E+00 0.  1.
         11    1    3    3    0    0  0.36731731323E+02 -0.23279471371E+02 -0.62765015997E+02  0.76358372864E+02  0.00000000000E+00 0. -1.
<mgrwt>
<rscale>  0 0.89594881E+02</rscale>
<asrwt>0</asrwt>
<pdfrwt beam="2">  1        2 0.28165109E-01 0.89594881E+02</pdfrwt>
<pdfrwt beam="1">  1       -2 0.16864297E-02 0.89594881E+02</pdfrwt>
<totfact> 0.15708047E+05</totfact>
</mgrwt>
</event>
<event>
 5    1  0.6222456E+000  0.9196131E+02  0.7546771E-02  0.1298170E+00
          1   -1    0    0  501    0  0.00000000000E+00  0.00000000000E+00  0.17538609722E+02  0.17538609722E+02  0.00000000000E+00 0. -1.
         -1   -1    0    0    0  501 -0.00000000000E+00 -0.00000000000E+00 -0.12054665471E+03  0.12054665471E+03  0.00000000000E+00 0.  1.
         23    2    1    2    0    0  0.00000000000E+00  0.00000000000E+00 -0.10300804498E+03  0.13808526443E+03  0.91961312086E+02 0.  0.
        -11    1    3    3    0    0 -0.42469421548E+02 -0.13792926301E+02 -0.35033075340E+02  0.56755730551E+02  0.00000000000E+00 0.  1.
         11    1    3    3    0    0  0.42469421548E+02  0.13792926301E+02 -0.67974969644E+02  0.81329533877E+02  0.00000000000E+00 0. -1.
<mgrwt>
<rscale>  0 0.91961312E+02</rscale>
<asrwt>0</asrwt>
<pdfrwt beam="1">  1        1 0.26982475E-02 0.91961312E+02</pdfrwt>
<pdfrwt beam="2">  1       -1 0.18545640E-01 0.91961312E+02</pdfrwt>
<totfact> 0.76737010E+04</totfact>
</mgrwt>
</event>
<event>
 5    1  0.6222456E+000  0.8889457E+02  0.7546771E-02  0.1305551E+00
          1   -1    0    0  501    0  0.00000000000E+00  0.00000000000E+00  0.97727962164E+02  0.97727962164E+02  0.00000000000E+00 0. -1.
         -1   -1    0    0    0  501 -0.00000000000E+00 -0.00000000000E+00 -0.20214900098E+02  0.20214900098E+02  0.00000000000E+00 0.  1.
         23    2    1    2    0    0  0.00000000000E+00  0.00000000000E+00  0.77513062067E+02  0.11794286226E+03  0.88894566580E+02 0.  0.
        -11    1    3    3    0    0  0.34529957741E+02 -0.27908292495E+02  0.35982903683E+02  0.57148579414E+02  0.00000000000E+00 0.  1.
         11    1    3    3    0    0 -0.34529957741E+02  0.27908292495E+02  0.41530158384E+02  0.60794282848E+02  0.00000000000E+00 0. -1.
<mgrwt>
<rscale>  0 0.88894567E+02</rscale>
<asrwt>0</asrwt>
<pdfrwt beam="1">  1        1 0.15035071E-01 0.88894567E+02</pdfrwt>
<pdfrwt beam="2">  1       -1 0.31099847E-02 0.88894567E+02</pdfrwt>
<totfact> 0.11148572E+05</totfact>
</mgrwt>
</event>
<event>
 5    1  0.6222456E+000  0.8943270E+02  0.7546771E-02  0.1304231E+00
          1   -1    0    0  501    0  0.00000000000E+00  0.00000000000E+00  0.60455282295E+02  0.60455282295E+02  0.00000000000E+00 0. -1.
         -1   -1    0    0    0  501 -0.00000000000E+00 -0.00000000000E+00 -0.33074891868E+02  0.33074891868E+02  0.00000000000E+00 0.  1.
         23    2    1    2    0    0  0.00000000000E+00  0.00000000000E+00  0.27380390427E+02  0.93530174163E+02  0.89432699272E+02 0.  0.
        -11    1    3    3    0    0  0.79455967016E+01  0.34702836785E+02  0.41987837876E+02  0.55049050104E+02  0.00000000000E+00 0. -1.
         11    1    3    3    0    0 -0.79455967016E+01 -0.34702836785E+02 -0.14607447449E+02  0.38481124059E+02  0.00000000000E+00 0.  1.
<mgrwt>
<rscale>  0 0.89432699E+02</rscale>
<asrwt>0</asrwt>
<pdfrwt beam="1">  1        1 0.93008126E-02 0.89432699E+02</pdfrwt>
<pdfrwt beam="2">  1       -1 0.50884449E-02 0.89432699E+02</pdfrwt>
<totfact> 0.10177761E+05</totfact>
</mgrwt>
</event>
<event>
 5    1  0.6222456E+000  0.9069409E+02  0.7546771E-02  0.1301180E+00
         -1   -1    0    0    0  501 -0.00000000000E+00  0.00000000000E+00  0.23181456516E+02  0.23181456516E+02  0.00000000000E+00 0.  1.
          1   -1    0    0  501    0  0.00000000000E+00 -0.00000000000E+00 -0.88706868581E+02  0.88706868581E+02  0.00000000000E+00 0. -1.
         23    2    1    2    0    0  0.00000000000E+00  0.00000000000E+00 -0.65525412065E+02  0.11188832510E+03  0.90694088378E+02 0.  0.
        -11    1    3    3    0    0 -0.12531118065E+02  0.37288994426E+02 -0.60592078272E+02  0.72241940551E+02  0.00000000000E+00 0. -1.
         11    1    3    3    0    0  0.12531118065E+02 -0.37288994426E+02 -0.49333337935E+01  0.39646384546E+02  0.00000000000E+00 0.  1.
<mgrwt>
<rscale>  0 0.90694088E+02</rscale>
<asrwt>0</asrwt>
<pdfrwt beam="2">  1        1 0.13647210E-01 0.90694088E+02</pdfrwt>
<pdfrwt beam="1">  1       -1 0.35663780E-02 0.90694088E+02</pdfrwt>
<totfact> 0.10391734E+05</totfact>
</mgrwt>
</event>
<event>
 5    1  0.6222456E+000  0.8570617E+02  0.7546771E-02  0.1313596E+00
          1   -1    0    0  501    0  0.00000000000E+00  0.00000000000E+00  0.36970939979E+03  0.36970939979E+03  0.00000000000E+00 0. -1.
         -1   -1    0    0    0  501 -0.00000000000E+00 -0.00000000000E+00 -0.49671093301E+01  0.49671093301E+01  0.00000000000E+00 0.  1.
         23    2    1    2    0    0  0.00000000000E+00  0.00000000000E+00  0.36474229046E+03  0.37467650912E+03  0.85706172686E+02 0.  0.
        -11    1    3    3    0    0  0.26823934565E+02 -0.32510508487E+02  0.14852822075E+03  0.15439264551E+03  0.00000000000E+00 0.  1.
         11    1    3    3    0    0 -0.26823934565E+02  0.32510508487E+02  0.21621406971E+03  0.22028386361E+03  0.00000000000E+00 0. -1.
<mgrwt>
<rscale>  0 0.85706173E+02</rscale>
<asrwt>0</asrwt>
<pdfrwt beam="1">  1        1 0.56878347E-01 0.85706173E+02</pdfrwt>
<pdfrwt beam="2">  1       -1 0.76417096E-03 0.85706173E+02</pdfrwt>
<totfact> 0.15680640E+05</totfact>
</mgrwt>
</event>
<event>
 5    1  0.6222456E+000  0.9103331E+02  0.7546771E-02  0.1300369E+00
          2   -1    0    0  501    0  0.00000000000E+00  0.00000000000E+00  0.10975900424E+02  0.10975900424E+02  0.00000000000E+00 0. -1.
         -2   -1    0    0    0  501 -0.00000000000E+00 -0.00000000000E+00 -0.18875589981E+03  0.18875589981E+03  0.00000000000E+00 0.  1.
         23    2    1    2    0    0  0.00000000000E+00  0.00000000000E+00 -0.17777999939E+03  0.19973180024E+03  0.91033311721E+02 0.  0.
        -11    1    3    3    0    0 -0.36545248291E+02 -0.21104889093E+02 -0.12630449805E+03  0.13316830608E+03  0.00000000000E+00 0. -1.
         11    1    3    3    0    0  0.36545248291E+02  0.21104889093E+02 -0.51475501338E+02  0.66563494156E+02  0.00000000000E+00 0.  1.
<mgrwt>
<rscale>  0 0.91033312E+02</rscale>
<asrwt>0</asrwt>
<pdfrwt beam="1">  1        2 0.16886002E-02 0.91033312E+02</pdfrwt>
<pdfrwt beam="2">  1       -2 0.29039366E-01 0.91033312E+02</pdfrwt>
<totfact> 0.64129287E+04</totfact>
</mgrwt>
</event>
<event>
 5    1  0.6222456E+000  0.8788106E+02  0.7546771E-02  0.1308066E+00
          2   -1    0    0  501    0  0.00000000000E+00  0.00000000000E+00  0.95262754999E+02  0.95262754999E+02  0.00000000000E+00 0. -1.
         -2   -1    0    0    0  501 -0.00000000000E+00 -0.00000000000E+00 -0.20267839688E+02  0.20267839688E+02  0.00000000000E+00 0.  1.
         23    2    1    2    0    0  0.00000000000E+00  0.00000000000E+00  0.74994915311E+02  0.11553059469E+03  0.87881061589E+02 0.  0.
        -11    1    3    3    0    0  0.39321463287E+02  0.19214048690E+02  0.32336304173E+02  0.54415013642E+02  0.00000000000E+00 0.  1.
         11    1    3    3    0    0 -0.39321463287E+02 -0.19214048690E+02  0.42658611139E+02  0.61115581044E+02  0.00000000000E+00 0. -1.
<mgrwt>
<rscale>  0 0.87881062E+02</rscale>
<asrwt>0</asrwt>
<pdfrwt beam="1">  1        2 0.14655808E-01 0.87881062E+02</pdfrwt>
<pdfrwt beam="2">  1       -2 0.31181292E-02 0.87881062E+02</pdfrwt>
<totfact> 0.13376238E+05</totfact>
</mgrwt>
</event>
<event>
 5    1  0.6222456E+000  0.9152478E+02  0.7546771E-02  0.1299201E+00
         -1   -1    0    0    0  501 -0.00000000000E+00  0.00000000000E+00  0.20113775359E+02  0.20113775359E+02  0.00000000000E+00 0.  1.
          1   -1    0    0  501    0  0.00000000000E+00 -0.00000000000E+00 -0.10411752592E+03  0.10411752592E+03  0.00000000000E+00 0. -1.
         23    2    1    2    0    0  0.00000000000E+00  0.00000000000E+00 -0.84003750563E+02  0.12423130128E+03  0.91524784127E+02 0.  0.
        -11    1    3    3    0    0  0.37954354486E+02 -0.40937173960E+01 -0.77464279092E+01  0.38952518428E+02  0.00000000000E+00 0.  1.
         11    1    3    3    0    0 -0.37954354486E+02  0.40937173960E+01 -0.76257322654E+02  0.85278782853E+02  0.00000000000E+00 0. -1.
<mgrwt>
<rscale>  0 0.91524784E+02</rscale>
<asrwt>0</asrwt>
<pdfrwt beam="2">  1        1 0.16018081E-01 0.91524784E+02</pdfrwt>
<pdfrwt beam="1">  1       -1 0.30944269E-02 0.91524784E+02</pdfrwt>
<totfact> 0.10407200E+05</totfact>
</mgrwt>
</event>
<event>
 5    1  0.6222456E+000  0.8919093E+02  0.7546771E-02  0.1304823E+00
          1   -1    0    0  501    0  0.00000000000E+00  0.00000000000E+00  0.39397767356E+03  0.39397767356E+03  0.00000000000E+00 0. -1.
         -1   -1    0    0    0  501 -0.00000000000E+00 -0.00000000000E+00 -0.50478891138E+01  0.50478891138E+01  0.00000000000E+00 0.  1.
         23    2    1    2    0    0  0.00000000000E+00  0.00000000000E+00  0.38892978445E+03  0.39902556268E+03  0.89190932487E+02 0.  0.
        -11    1    3    3    0    0  0.38756074119E+02  0.18387276841E+02  0.24900723726E+03  0.25267514607E+03  0.00000000000E+00 0. -1.
         11    1    3    3    0    0 -0.38756074119E+02 -0.18387276841E+02  0.13992254719E+03  0.14635041661E+03  0.00000000000E+00 0.  1.
<mgrwt>
<rscale>  0 0.89190932E+02</rscale>
<asrwt>0</asrwt>
<pdfrwt beam="1">  1        1 0.60611926E-01 0.89190932E+02</pdfrwt>
<pdfrwt beam="2">  1       -1 0.77659863E-03 0.89190932E+02</pdfrwt>
<totfact> 0.14264568E+05</totfact>
</mgrwt>
</event>
<event>
 5    1  0.6222456E+000  0.9103486E+02  0.7546771E-02  0.1300365E+00
          2   -1    0    0  501    0  0.00000000000E+00  0.00000000000E+00  0.92281241800E+02  0.92281241800E+02  0.00000000000E+00 0. -1.
         -2   -1    0    0    0  501 -0.00000000000E+00 -0.00000000000E+00 -0.22451327856E+02  0.22451327856E+02  0.00000000000E+00 0.  1.
         23    2    1    2    0    0  0.00000000000E+00  0.00000000000E+00  0.69829913944E+02  0.11473256966E+03  0.91034859579E+02 0.  0.
        -11    1    3    3    0    0 -0.19213878706E+02 -0.26671414257E+02 -0.47659248701E+01  0.33215230140E+02  0.00000000000E+00 0.  1.
         11    1    3    3    0    0  0.19213878706E+02  0.26671414257E+02  0.74595838814E+02  0.81517339516E+02  0.00000000000E+00 0. -1.
<mgrwt>
<rscale>  0 0.91034860E+02</rscale>
<asrwt>0</asrwt>
<pdfrwt beam="1">  1        2 0.14197114E-01 0.91034860E+02</pdfrwt>
<pdfrwt beam="2">  1       -2 0.34540505E-02 0.91034860E+02</pdfrwt>
<totfact> 0.12026142E+05</totfact>
</mgrwt>
</event>
<event>
 5    1  0.6222456E+000  0.8767599E+02  0.7546771E-02  0.1308579E+00
          2   -1    0    0  501    0  0.00000000000E+00  0.00000000000E+00  0.11096001565E+03  0.11096001565E+03  0.00000000000E+00 0. -1.
         -2   -1    0    0    0  501 -0.00000000000E+00 -0.00000000000E+00 -0.17319479101E+02  0.17319479101E+02  0.00000000000E+00 0.  1.
         23    2    1    2    0    0  0.00000000000E+00  0.00000000000E+00  0.93640536549E+02  0.12827949475E+03  0.87675986954E+02 0.  0.
        -11    1    3    3    0    0  0.18194790438E+02 -0.18290569587E+02 -0.50360328697E+01  0.26286060221E+02  0.00000000000E+00 0.  1.
         11    1    3    3    0    0 -0.18194790438E+02  0.18290569587E+02  0.98676569419E+02  0.10199343453E+03  0.00000000000E+00 0. -1.
<mgrwt>
<rscale>  0 0.87675987E+02</rscale>
<asrwt>0</asrwt>
<pdfrwt beam="1">  1        2 0.17070771E-01 0.87675987E+02</pdfrwt>
<pdfrwt beam="2">  1       -2 0.26645353E-02 0.87675987E+02</pdfrwt>
<totfact> 0.14098378E+05</totfact>
</mgrwt>
</event>
<event>
 5    1  0.6222456E+000  0.9154161E+02  0.7546771E-02  0.1299161E+00
          1   -1    0    0  501    0  0.00000000000E+00  0.00000000000E+00  0.84182746236E+02  0.84182746236E+02  0.00000000000E+00 0. -1.
         -1   -1    0    0    0  501 -0.00000000000E+00 -0.00000000000E+00 -0.24885936962E+02  0.24885936962E+02  0.00000000000E+00 0.  1.
         23    2    1    2    0    0  0.00000000000E+00  0.00000000000E+00  0.59296809274E+02  0.10906868320E+03  0.91541608379E+02 0.  0.
        -11    1    3    3    0    0  0.14505892131E+02 -0.21827924340E+02 -0.15060736417E+02  0.30227553141E+02  0.00000000000E+00 0.  1.
         11    1    3    3    0    0 -0.14505892131E+02  0.21827924340E+02  0.74357545691E+02  0.78841130057E+02  0.00000000000E+00 0. -1.
<mgrwt>
<rscale>  0 0.91541608E+02</rscale>
<asrwt>0</asrwt>
<pdfrwt beam="1">  1        1 0.12951192E-01 0.91541608E+02</pdfrwt>
<pdfrwt beam="2">  1       -1 0.38286057E-02 0.91541608E+02</pdfrwt>
<totfact> 0.10045570E+05</totfact>
</mgrwt>
</event>
<event>
 5    1  0.6222456E+000  0.8684268E+02  0.7546771E-02  0.1310683E+00
         -4   -1    0    0    0  501 -0.00000000000E+00  0.00000000000E+00  0.69422728709E+02  0.69422728709E+02  0.00000000000E+00 0.  1.
          4   -1    0    0  501    0  0.00000000000E+00 -0.00000000000E+00 -0.27158435964E+02  0.27158435964E+02  0.00000000000E+00 0. -1.
         23    2    1    2    0    0  0.00000000000E+00  0.00000000000E+00  0.42264292744E+02  0.96581164673E+02  0.86842679187E+02 0.  0.
        -11    1    3    3    0    0  0.17031127339E+02  0.14043958500E+02  0.62716652882E+02  0.66488123883E+02  0.00000000000E+00 0.  1.
         11    1    3    3    0    0 -0.17031127339E+02 -0.14043958500E+02 -0.20452360138E+02  0.30093040790E+02  0.00000000000E+00 0. -1.
<mgrwt>
<rscale>  0 0.86842679E+02</rscale>
<asrwt>0</asrwt>
<pdfrwt beam="2">  1        4 0.41782209E-02 0.86842679E+02</pdfrwt>
<pdfrwt beam="1">  1       -4 0.10680420E-01 0.86842679E+02</pdfrwt>
<totfact> 0.30417046E+04</totfact>
</mgrwt>
</event>
<event>
 5    1  0.6222456E+000  0.8961773E+02  0.7546771E-02  0.1303780E+00
          2   -1    0    0  501    0  0.00000000000E+00  0.00000000000E+00  0.16609040628E+02  0.16609040628E+02  0.00000000000E+00 0. -1.
         -2   -1    0    0    0  501 -0.00000000000E+00 -0.00000000000E+00 -0.12088805403E+03  0.12088805403E+03  0.00000000000E+00 0.  1.
         23    2    1    2    0    0  0.00000000000E+00  0.00000000000E+00 -0.10427901340E+03  0.13749709466E+03  0.89617734869E+02 0.  0.
        -11    1    3    3    0    0  0.42032418705E+02 -0.13970669095E+02 -0.62537546760E+02  0.76634512929E+02  0.00000000000E+00 0.  1.
         11    1    3    3    0    0 -0.42032418705E+02  0.13970669095E+02 -0.41741466642E+02  0.60862581728E+02  0.00000000000E+00 0. -1.
<mgrwt>
<rscale>  0 0.89617735E+02</rscale>
<asrwt>0</asrwt>
<pdfrwt beam="1">  1        2 0.25552370E-02 0.89617735E+02</pdfrwt>
<pdfrwt beam="2">  1       -2 0.18598162E-01 0.89617735E+02</pdfrwt>
<totfact> 0.78563241E+04</totfact>
</mgrwt>
</event>
<event>
 5    1  0.6222456E+000  0.9192966E+02  0.7546771E-02  0.1298245E+00
          1   -1    0    0  501    0  0.00000000000E+00  0.00000000000E+00  0.29629324278E+02  0.29629324278E+02  0.00000000000E+00 0. -1.
         -1   -1    0    0    0  501 -0.00000000000E+00 -0.00000000000E+00 -0.71306570889E+02  0.71306570889E+02  0.00000000000E+00 0.  1.
         23    2    1    2    0    0  0.00000000000E+00  0.00000000000E+00 -0.41677246611E+02  0.10093589517E+03  0.91929658153E+02 0.  0.
        -11    1    3    3    0    0  0.12911818751E+01  0.40419607027E+02  0.31502667310E+01  0.40562741073E+02  0.00000000000E+00 0. -1.
         11    1    3    3    0    0 -0.12911818751E+01 -0.40419607027E+02 -0.44827513342E+02  0.60373154094E+02  0.00000000000E+00 0.  1.
<mgrwt>
<rscale>  0 0.91929658E+02</rscale>
<asrwt>0</asrwt>
<pdfrwt beam="1">  1        1 0.45583576E-02 0.91929658E+02</pdfrwt>
<pdfrwt beam="2">  1       -1 0.10970242E-01 0.91929658E+02</pdfrwt>
<totfact> 0.84487173E+04</totfact>
</mgrwt>
</event>
<event>
 5    1  0.6222456E+000  0.9278964E+02  0.7546771E-02  0.1296233E+00
          2   -1    0    0  501    0  0.00000000000E+00  0.00000000000E+00  0.11194964868E+03  0.11194964868E+03  0.00000000000E+00 0. -1.
         -2   -1    0    0    0  501 -0.00000000000E+00 -0.00000000000E+00 -0.19227207536E+02  0.19227207536E+02  0.00000000000E+00 0.  1.
         23    2    1    2    0    0  0.00000000000E+00  0.00000000000E+00  0.92722441142E+02  0.13117685621E+03  0.92789635815E+02 0.  0.
        -11    1    3    3    0    0 -0.40119371994E+02  0.66964712046E+01  0.14810884956E+02  0.43287054057E+02  0.00000000000E+00 0. -1.
         11    1    3    3    0    0  0.40119371994E+02 -0.66964712046E+01  0.77911556186E+02  0.87889802157E+02  0.00000000000E+00 0.  1.
<mgrwt>
<rscale>  0 0.92789636E+02</rscale>
<asrwt>0</asrwt>
<pdfrwt beam="1">  1        2 0.17223023E-01 0.92789636E+02</pdfrwt>
<pdfrwt beam="2">  1       -2 0.29580320E-02 0.92789636E+02</pdfrwt>
<totfact> 0.12106213E+05</totfact>
</mgrwt>
</event>
<event>
 5    1  0.6222456E+000  0.9081494E+02  0.7546771E-02  0.1300890E+00
         -2   -1    0    0    0  501 -0.00000000000E+00  0.00000000000E+00  0.44104474349E+02  0.44104474349E+02  0.00000000000E+00 0.  1.
          2   -1    0    0  501    0  0.00000000000E+00 -0.00000000000E+00 -0.46748956775E+02  0.46748956775E+02  0.00000000000E+00 0. -1.
         23    2    1    2    0    0  0.00000000000E+00  0.00000000000E+00 -0.26444824259E+01  0.90853431124E+02  0.90814936325E+02 0.  0.
        -11    1    3    3    0    0 -0.35133438005E+02  0.23877262736E+02  0.14726878589E+02  0.44959571782E+02  0.00000000000E+00 0.  1.
         11    1    3    3    0    0  0.35133438005E+02 -0.23877262736E+02 -0.17371361015E+02  0.45893859342E+02  0.00000000000E+00 0. -1.
<mgrwt>
<rscale>  0 0.90814936E+02</rscale>
<asrwt>0</asrwt>
<pdfrwt beam="2">  1        2 0.71921472E-02 0.90814936E+02</pdfrwt>
<pdfrwt beam="1">  1       -2 0.67853038E-02 0.90814936E+02</pdfrwt>
<totfact> 0.10045852E+05</totfact>
</mgrwt>
</event>
<event>
 5    1  0.6222456E+000  0.9349080E+02  0.7546771E-02  0.1294612E+00
         -2   -1    0    0    0  501 -0.00000000000E+00  0.00000000000E+00  0.87622548427E+01  0.87622548427E+01  0.00000000000E+00 0.  1.
          2   -1    0    0  501    0  0.00000000000E+00 -0.00000000000E+00 -0.24938016348E+03  0.24938016348E+03  0.00000000000E+00 0. -1.
         23    2    1    2    0    0  0.00000000000E+00  0.00000000000E+00 -0.24061790863E+03  0.25814241832E+03  0.93490802651E+02 0.  0.
        -11    1    3    3    0    0 -0.42204989038E+02  0.22752278415E+01 -0.17544184488E+03  0.18046129418E+03  0.00000000000E+00 0. -1.
         11    1    3    3    0    0  0.42204989038E+02 -0.22752278415E+01 -0.65176063752E+02  0.77681124140E+02  0.00000000000E+00 0.  1.
<mgrwt>
<rscale>  0 0.93490803E+02</rscale>
<asrwt>0</asrwt>
<pdfrwt beam="2">  1        2 0.38366172E-01 0.93490803E+02</pdfrwt>
<pdfrwt beam="1">  1       -2 0.13480394E-02 0.93490803E+02</pdfrwt>
<totfact> 0.15679691E+05</totfact>
</mgrwt>
</event>
<event>
 5    1  0.6222456E+000  0.9570768E+02  0.7546771E-02  0.1289590E+00
          2   -1    0    0  501    0  0.00000000000E+00  0.00000000000E+00  0.14040030728E+02  0.14040030728E+02  0.00000000000E+00 0. -1.
         -2   -1    0    0    0  501 -0.00000000000E+00 -0.00000000000E+00 -0.16310434676E+03  0.16310434676E+03  0.00000000000E+00 0.  1.
         23    2    1    2    0    0  0.00000000000E+00  0.00000000000E+00 -0.14906431603E+03  0.17714437749E+03  0.95707680786E+02 0.  0.
        -11    1    3    3    0    0  0.15738444815E+02 -0.21020124560E+02 -0.14857806549E+03  0.15088070065E+03  0.00000000000E+00 0.  1.
         11    1    3    3    0    0 -0.15738444815E+02  0.21020124560E+02 -0.48625054059E+00  0.26263676843E+02  0.00000000000E+00 0. -1.
<mgrwt>
<rscale>  0 0.95707681E+02</rscale>
<asrwt>0</asrwt>
<pdfrwt beam="1">  1        2 0.21600049E-02 0.95707681E+02</pdfrwt>
<pdfrwt beam="2">  1       -2 0.25092974E-01 0.95707681E+02</pdfrwt>
<totfact> 0.59856984E+04</totfact>
</mgrwt>
</event>
<event>
 5    1  0.6222456E+000  0.9254901E+02  0.7546771E-02  0.1296794E+00
         -2   -1    0    0    0  501 -0.00000000000E+00  0.00000000000E+00  0.54532643395E+02  0.54532643395E+02  0.00000000000E+00 0.  1.
          2   -1    0    0  501    0  0.00000000000E+00 -0.00000000000E+00 -0.39266939616E+02  0.39266939616E+02  0.00000000000E+00 0. -1.
         23    2    1    2    0    0  0.00000000000E+00  0.00000000000E+00  0.15265703779E+02  0.93799583010E+02  0.92549014371E+02 0.  0.
        -11    1    3    3    0    0 -0.31175617003E+02  0.17197137921E+02  0.37590151577E+02  0.51775285067E+02  0.00000000000E+00 0.  1.
         11    1    3    3    0    0  0.31175617003E+02 -0.17197137921E+02 -0.22324447797E+02  0.42024297944E+02  0.00000000000E+00 0. -1.
<mgrwt>
<rscale>  0 0.92549014E+02</rscale>
<asrwt>0</asrwt>
<pdfrwt beam="2">  1        2 0.60410676E-02 0.92549014E+02</pdfrwt>
<pdfrwt beam="1">  1       -2 0.83896374E-02 0.92549014E+02</pdfrwt>
<totfact> 0.90897062E+04</totfact>
</mgrwt>
</event>
<event>
 5    1  0.6222456E+000  0.8438150E+02  0.7546771E-02  0.1317058E+00
         -2   -1    0    0    0  501 -0.00000000000E+00  0.00000000000E+00  0.51884330182E+01  0.51884330182E+01  0.00000000000E+00 0.  1.
          2   -1    0    0  501    0  0.00000000000E+00 -0.00000000000E+00 -0.34308230801E+03  0.34308230801E+03  0.00000000000E+00 0. -1.
         23    2    1    2    0    0  0.00000000000E+00  0.00000000000E+00 -0.33789387499E+03  0.34827074103E+03  0.84381504486E+02 0.  0.
        -11    1    3    3    0    0  0.40471847379E+02  0.47249293105E+01 -0.21411518202E+03  0.21795780913E+03  0.00000000000E+00 0.  1.
         11    1    3    3    0    0 -0.40471847379E+02 -0.47249293105E+01 -0.12377869297E+03  0.13031293190E+03  0.00000000000E+00 0. -1.
<mgrwt>
<rscale>  0 0.84381504E+02</rscale>
<asrwt>0</asrwt>
<pdfrwt beam="2">  1        2 0.52781901E-01 0.84381504E+02</pdfrwt>
<pdfrwt beam="1">  1       -2 0.79822036E-03 0.84381504E+02</pdfrwt>
<totfact> 0.23181250E+05</totfact>
</mgrwt>
</event>
<event>
 5    1  0.6222456E+000  0.8974218E+02  0.7546771E-02  0.1303477E+00
          1   -1    0    0  501    0  0.00000000000E+00  0.00000000000E+00  0.56038773077E+02  0.56038773077E+02  0.00000000000E+00 0. -1.
         -1   -1    0    0    0  501 -0.00000000000E+00 -0.00000000000E+00 -0.35928956440E+02  0.35928956440E+02  0.00000000000E+00 0.  1.
         23    2    1    2    0    0  0.00000000000E+00  0.00000000000E+00  0.20109816637E+02  0.91967729518E+02  0.89742178196E+02 0.  0.
        -11    1    3    3    0    0  0.35792353459E+02 -0.11404629662E+01 -0.17653010609E+02  0.39925205140E+02  0.00000000000E+00 0.  1.
         11    1    3    3    0    0 -0.35792353459E+02  0.11404629662E+01  0.37762827246E+02  0.52042524377E+02  0.00000000000E+00 0. -1.
<mgrwt>
<rscale>  0 0.89742178E+02</rscale>
<asrwt>0</asrwt>
<pdfrwt beam="1">  1        1 0.86213497E-02 0.89742178E+02</pdfrwt>
<pdfrwt beam="2">  1       -1 0.55275317E-02 0.89742178E+02</pdfrwt>
<totfact> 0.99676136E+04</totfact>
</mgrwt>
</event>
<event>
 5    1  0.6222456E+000  0.9090118E+02  0.7546771E-02  0.1300684E+00
         -2   -1    0    0    0  501 -0.00000000000E+00  0.00000000000E+00  0.68136794001E+01  0.68136794001E+01  0.00000000000E+00 0.  1.
          2   -1    0    0  501    0  0.00000000000E+00 -0.00000000000E+00 -0.30317779828E+03  0.30317779828E+03  0.00000000000E+00 0. -1.
         23    2    1    2    0    0  0.00000000000E+00  0.00000000000E+00 -0.29636411888E+03  0.30999147768E+03  0.90901184123E+02 0.  0.
        -11    1    3    3    0    0 -0.36892754012E+02  0.15677032861E+02 -0.22123618729E+03  0.22483837578E+03  0.00000000000E+00 0. -1.
         11    1    3    3    0    0  0.36892754012E+02 -0.15677032861E+02 -0.75127931595E+02  0.85153101903E+02  0.00000000000E+00 0.  1.
<mgrwt>
<rscale>  0 0.90901184E+02</rscale>
<asrwt>0</asrwt>
<pdfrwt beam="2">  1        2 0.46642733E-01 0.90901184E+02</pdfrwt>
<pdfrwt beam="1">  1       -2 0.10482585E-02 0.90901184E+02</pdfrwt>
<totfact> 0.18182884E+05</totfact>
</mgrwt>
</event>
<event>
 5    1  0.6222456E+000  0.9166682E+02  0.7546771E-02  0.1298865E+00
         -1   -1    0    0    0  501 -0.00000000000E+00  0.00000000000E+00  0.22863037645E+03  0.22863037645E+03  0.00000000000E+00 0.  1.
          1   -1    0    0  501    0  0.00000000000E+00 -0.00000000000E+00 -0.91881990798E+01  0.91881990798E+01  0.00000000000E+00 0. -1.
         23    2    1    2    0    0  0.00000000000E+00  0.00000000000E+00  0.21944217738E+03  0.23781857553E+03  0.91666818742E+02 0.  0.
        -11    1    3    3    0    0 -0.17619011357E+02  0.34847743411E+02  0.17198116576E+03  0.17635848763E+03  0.00000000000E+00 0.  1.
         11    1    3    3    0    0  0.17619011357E+02 -0.34847743411E+02  0.47461011615E+02  0.61460087907E+02  0.00000000000E+00 0. -1.
<mgrwt>
<rscale>  0 0.91666819E+02</rscale>
<asrwt>0</asrwt>
<pdfrwt beam="2">  1        1 0.14135693E-02 0.91666819E+02</pdfrwt>
<pdfrwt beam="1">  1       -1 0.35173900E-01 0.91666819E+02</pdfrwt>
<totfact> 0.65760161E+04</totfact>
</mgrwt>
</event>
<event>
 5    1  0.6222456E+000  0.8834700E+02  0.7546771E-02  0.1306905E+00
          1   -1    0    0  501    0  0.00000000000E+00  0.00000000000E+00  0.74730405150E+01  0.74730405150E+01  0.00000000000E+00 0. -1.
         -1   -1    0    0    0  501 -0.00000000000E+00 -0.00000000000E+00 -0.26111169436E+03  0.26111169436E+03  0.00000000000E+00 0.  1.
         23    2    1    2    0    0  0.00000000000E+00  0.00000000000E+00 -0.25363865385E+03  0.26858473488E+03  0.88347003818E+02 0.  0.
        -11    1    3    3    0    0  0.37549348943E+02 -0.17394977329E+02 -0.17379464892E+03  0.17865362810E+03  0.00000000000E+00 0.  1.
         11    1    3    3    0    0 -0.37549348943E+02  0.17394977329E+02 -0.79844004932E+02  0.89931106775E+02  0.00000000000E+00 0. -1.
<mgrwt>
<rscale>  0 0.88347004E+02</rscale>
<asrwt>0</asrwt>
<pdfrwt beam="1">  1        1 0.11496988E-02 0.88347004E+02</pdfrwt>
<pdfrwt beam="2">  1       -1 0.40171020E-01 0.88347004E+02</pdfrwt>
<totfact> 0.69267596E+04</totfact>
</mgrwt>
</event>
<event>
 5    1  0.6222456E+000  0.9131621E+02  0.7546771E-02  0.1299695E+00
         -1   -1    0    0    0  501 -0.00000000000E+00  0.00000000000E+00  0.91674056653E+02  0.91674056653E+02  0.00000000000E+00 0.  1.
          1   -1    0    0  501    0  0.00000000000E+00 -0.00000000000E+00 -0.22739938923E+02  0.22739938923E+02  0.00000000000E+00 0. -1.
         23    2    1    2    0    0  0.00000000000E+00  0.00000000000E+00  0.68934117730E+02  0.11441399558E+03  0.91316207742E+02 0.  0.
        -11    1    3    3    0    0  0.22989708980E+02 -0.39160403691E+00  0.83890573019E+02  0.86984529166E+02  0.00000000000E+00 0.  1.
         11    1    3    3    0    0 -0.22989708980E+02  0.39160403691E+00 -0.14956455289E+02  0.27429466410E+02  0.00000000000E+00 0. -1.
<mgrwt>
<rscale>  0 0.91316208E+02</rscale>
<asrwt>0</asrwt>
<pdfrwt beam="2">  1        1 0.34984522E-02 0.91316208E+02</pdfrwt>
<pdfrwt beam="1">  1       -1 0.14103701E-01 0.91316208E+02</pdfrwt>
<totfact> 0.82346170E+04</totfact>
</mgrwt>
</event>
<event>
 5    1  0.6222456E+000  0.9099987E+02  0.7546771E-02  0.1300448E+00
         -3   -1    0    0    0  501 -0.00000000000E+00  0.00000000000E+00  0.70740954392E+02  0.70740954392E+02  0.00000000000E+00 0.  1.
          3   -1    0    0  501    0  0.00000000000E+00 -0.00000000000E+00 -0.29265139005E+02  0.29265139005E+02  0.00000000000E+00 0. -1.
         23    2    1    2    0    0  0.00000000000E+00  0.00000000000E+00  0.41475815386E+02  0.10000609340E+03  0.90999865135E+02 0.  0.
        -11    1    3    3    0    0  0.13992072229E+02  0.42365811872E+02  0.30543018642E+02  0.54069548626E+02  0.00000000000E+00 0. -1.
         11    1    3    3    0    0 -0.13992072229E+02 -0.42365811872E+02  0.10932796744E+02  0.45936544771E+02  0.00000000000E+00 0.  1.
<mgrwt>
<rscale>  0 0.90999865E+02</rscale>
<asrwt>0</asrwt>
<pdfrwt beam="2">  1        3 0.45023291E-02 0.90999865E+02</pdfrwt>
<pdfrwt beam="1">  1       -3 0.10883224E-01 0.90999865E+02</pdfrwt>
<totfact> 0.34855957E+04</totfact>
</mgrwt>
</event>
<event>
 5    1  0.6222456E+000  0.9758623E+02  0.7546771E-02  0.1285455E+00
          2   -1    0    0  501    0  0.00000000000E+00  0.00000000000E+00  0.54408421796E+02  0.54408421796E+02  0.00000000000E+00 0. -1.
         -2   -1    0    0    0  501 -0.00000000000E+00 -0.00000000000E+00 -0.43757340516E+02  0.43757340516E+02  0.00000000000E+00 0.  1.
         23    2    1    2    0    0  0.00000000000E+00  0.00000000000E+00  0.10651081280E+02  0.98165762312E+02  0.97586225246E+02 0.  0.
        -11    1    3    3    0    0 -0.45122040486E+02 -0.61863148831E+01 -0.12285536547E+02  0.47172062046E+02  0.00000000000E+00 0.  1.
         11    1    3    3    0    0  0.45122040486E+02  0.61863148831E+01  0.22936617828E+02  0.50993700266E+02  0.00000000000E+00 0. -1.
<mgrwt>
<rscale>  0 0.97586225E+02</rscale>
<asrwt>0</asrwt>
<pdfrwt beam="1">  1        2 0.83705264E-02 0.97586225E+02</pdfrwt>
<pdfrwt beam="2">  1       -2 0.67318985E-02 0.97586225E+02</pdfrwt>
<totfact> 0.85108030E+04</totfact>
</mgrwt>
</event>
<event>
 5    1  0.6222456E+000  0.8966002E+02  0.7546771E-02  0.1303677E+00
         -2   -1    0    0    0  501 -0.00000000000E+00  0.00000000000E+00  0.17360944990E+03  0.17360944990E+03  0.00000000000E+00 0.  1.
          2   -1    0    0  501    0  0.00000000000E+00 -0.00000000000E+00 -0.11576153603E+02  0.11576153603E+02  0.00000000000E+00 0. -1.
         23    2    1    2    0    0  0.00000000000E+00  0.00000000000E+00  0.16203329629E+03  0.18518560350E+03  0.89660016930E+02 0.  0.
        -11    1    3    3    0    0  0.27626142896E+01 -0.34288183995E+02  0.14039228820E+03  0.14454517006E+03  0.00000000000E+00 0.  1.
         11    1    3    3    0    0 -0.27626142896E+01  0.34288183995E+02  0.21641008090E+02  0.40640433444E+02  0.00000000000E+00 0. -1.
<mgrwt>
<rscale>  0 0.89660017E+02</rscale>
<asrwt>0</asrwt>
<pdfrwt beam="2">  1        2 0.17809468E-02 0.89660017E+02</pdfrwt>
<pdfrwt beam="1">  1       -2 0.26709144E-01 0.89660017E+02</pdfrwt>
<totfact> 0.68962671E+04</totfact>
</mgrwt>
</event>
<event>
 5    1  0.6222456E+000  0.8824339E+02  0.7546771E-02  0.1307162E+00
         -1   -1    0    0    0  501 -0.00000000000E+00  0.00000000000E+00  0.72569253066E+02  0.72569253066E+02  0.00000000000E+00 0.  1.
          1   -1    0    0  501    0  0.00000000000E+00 -0.00000000000E+00 -0.26825741839E+02  0.26825741839E+02  0.00000000000E+00 0. -1.
         23    2    1    2    0    0  0.00000000000E+00  0.00000000000E+00  0.45743511227E+02  0.99394994905E+02  0.88243391779E+02 0.  0.
        -11    1    3    3    0    0  0.25386556608E+02 -0.27987813404E+02 -0.27870438654E+01  0.37888818523E+02  0.00000000000E+00 0. -1.
         11    1    3    3    0    0 -0.25386556608E+02  0.27987813404E+02  0.48530555092E+02  0.61506176382E+02  0.00000000000E+00 0.  1.
<mgrwt>
<rscale>  0 0.88243392E+02</rscale>
<asrwt>0</asrwt>
<pdfrwt beam="2">  1        1 0.41270372E-02 0.88243392E+02</pdfrwt>
<pdfrwt beam="1">  1       -1 0.11164500E-01 0.88243392E+02</pdfrwt>
<totfact> 0.93513069E+04</totfact>
</mgrwt>
</event>
<event>
 5    1  0.6222456E+000  0.9056834E+02  0.7546771E-02  0.1301481E+00
          2   -1    0    0  501    0  0.00000000000E+00  0.00000000000E+00  0.21013359440E+03  0.21013359440E+03  0.00000000000E+00 0.  1.
         -2   -1    0    0    0  501 -0.00000000000E+00 -0.00000000000E+00 -0.97588197561E+01  0.97588197561E+01  0.00000000000E+00 0. -1.
         23    2    1    2    0    0  0.00000000000E+00  0.00000000000E+00  0.20037477465E+03  0.21989241416E+03  0.90568336022E+02 0.  0.
        -11    1    3    3    0    0 -0.41574967884E+01 -0.43881935319E+02  0.12538945311E+03  0.13291133879E+03  0.00000000000E+00 0.  1.
         11    1    3    3    0    0  0.41574967884E+01  0.43881935319E+02  0.74985321538E+02  0.86981075373E+02  0.00000000000E+00 0. -1.
<mgrwt>
<rscale>  0 0.90568336E+02</rscale>
<asrwt>0</asrwt>
<pdfrwt beam="1">  1        2 0.32328242E-01 0.90568336E+02</pdfrwt>
<pdfrwt beam="2">  1       -2 0.15013570E-02 0.90568336E+02</pdfrwt>
<totfact> 0.16033821E+05</totfact>
</mgrwt>
</event>
<event>
 5    1  0.6222456E+000  0.9139742E+02  0.7546771E-02  0.1299502E+00
         -4   -1    0    0    0  501 -0.00000000000E+00  0.00000000000E+00  0.25336196792E+02  0.25336196792E+02  0.00000000000E+00 0.  1.
          4   -1    0    0  501    0  0.00000000000E+00 -0.00000000000E+00 -0.82426432137E+02  0.82426432137E+02  0.00000000000E+00 0. -1.
         23    2    1    2    0    0  0.00000000000E+00  0.00000000000E+00 -0.57090235345E+02  0.10776262893E+03  0.91397424591E+02 0.  0.
        -11    1    3    3    0    0  0.34016465680E+02  0.77809652950E+01 -0.63336422979E+02  0.72312971409E+02  0.00000000000E+00 0. -1.
         11    1    3    3    0    0 -0.34016465680E+02 -0.77809652950E+01  0.62461876343E+01  0.35449657519E+02  0.00000000000E+00 0.  1.
<mgrwt>
<rscale>  0 0.91397425E+02</rscale>
<asrwt>0</asrwt>
<pdfrwt beam="2">  1        4 0.12680990E-01 0.91397425E+02</pdfrwt>
<pdfrwt beam="1">  1       -4 0.38978764E-02 0.91397425E+02</pdfrwt>
<totfact> 0.25816269E+04</totfact>
</mgrwt>
</event>
<event>
 5    1  0.6222456E+000  0.8717008E+02  0.7546771E-02  0.1309853E+00
          2   -1    0    0  501    0  0.00000000000E+00  0.00000000000E+00  0.21321677814E+03  0.21321677814E+03  0.00000000000E+00 0. -1.
         -2   -1    0    0    0  501 -0.00000000000E+00 -0.00000000000E+00 -0.89095030087E+01  0.89095030087E+01  0.00000000000E+00 0.  1.
         23    2    1    2    0    0  0.00000000000E+00  0.00000000000E+00  0.20430727513E+03  0.22212628115E+03  0.87170075745E+02 0.  0.
        -11    1    3    3    0    0  0.11598510568E+02 -0.41043572589E+02  0.79282941202E+02  0.90027135154E+02  0.00000000000E+00 0.  1.
         11    1    3    3    0    0 -0.11598510568E+02  0.41043572589E+02  0.12502433393E+03  0.13209914599E+03  0.00000000000E+00 0. -1.
<mgrwt>
<rscale>  0 0.87170076E+02</rscale>
<asrwt>0</asrwt>
<pdfrwt beam="1">  1        2 0.32802577E-01 0.87170076E+02</pdfrwt>
<pdfrwt beam="2">  1       -2 0.13706929E-02 0.87170076E+02</pdfrwt>
<totfact> 0.17857504E+05</totfact>
</mgrwt>
</event>
<event>
 5    1  0.6222456E+000  0.9250265E+02  0.7546771E-02  0.1296902E+00
          4   -1    0    0  501    0  0.00000000000E+00  0.00000000000E+00  0.51875411212E+02  0.51875411212E+02  0.00000000000E+00 0. -1.
         -4   -1    0    0    0  501 -0.00000000000E+00 -0.00000000000E+00 -0.41236973944E+02  0.41236973944E+02  0.00000000000E+00 0.  1.
         23    2    1    2    0    0  0.00000000000E+00  0.00000000000E+00  0.10638437268E+02  0.93112385156E+02  0.92502648189E+02 0.  0.
        -11    1    3    3    0    0  0.30363940449E+02 -0.11864057119E+02 -0.27706500585E+02  0.42782880988E+02  0.00000000000E+00 0.  1.
         11    1    3    3    0    0 -0.30363940449E+02  0.11864057119E+02  0.38344937853E+02  0.50329504169E+02  0.00000000000E+00 0. -1.
<mgrwt>
<rscale>  0 0.92502648E+02</rscale>
<asrwt>0</asrwt>
<pdfrwt beam="1">  1        4 0.79808325E-02 0.92502648E+02</pdfrwt>
<pdfrwt beam="2">  1       -4 0.63441498E-02 0.92502648E+02</pdfrwt>
<totfact> 0.25856097E+04</totfact>
</mgrwt>
</event>
<event>
 5    1  0.6222456E+000  0.9407426E+02  0.7546771E-02  0.1293275E+00
          1   -1    0    0  501    0  0.00000000000E+00  0.00000000000E+00  0.23496385519E+02  0.23496385519E+02  0.00000000000E+00 0. -1.
         -1   -1    0    0    0  501 -0.00000000000E+00 -0.00000000000E+00 -0.94163060935E+02  0.94163060935E+02  0.00000000000E+00 0.  1.
         23    2    1    2    0    0  0.00000000000E+00  0.00000000000E+00 -0.70666675416E+02  0.11765944645E+03  0.94074259632E+02 0.  0.
        -11    1    3    3    0    0 -0.15162827563E+02  0.22112224827E+02  0.13003414912E+02  0.29798500396E+02  0.00000000000E+00 0. -1.
         11    1    3    3    0    0  0.15162827563E+02 -0.22112224827E+02 -0.83670090328E+02  0.87860946057E+02  0.00000000000E+00 0.  1.
<mgrwt>
<rscale>  0 0.94074260E+02</rscale>
<asrwt>0</asrwt>
<pdfrwt beam="1">  1        1 0.36148286E-02 0.94074260E+02</pdfrwt>
<pdfrwt beam="2">  1       -1 0.14486625E-01 0.94074260E+02</pdfrwt>
<totfact> 0.75905735E+04</totfact>
</mgrwt>
</event>
<event>
 5    1  0.6222456E+000  0.8757524E+02  0.7546771E-02  0.1308832E+00
          1   -1    0    0  501    0  0.00000000000E+00  0.00000000000E+00  0.57557591164E+02  0.57557591164E+02  0.00000000000E+00 0. -1.
         -1   -1    0    0    0  501 -0.00000000000E+00 -0.00000000000E+00 -0.33311952962E+02  0.33311952962E+02  0.00000000000E+00 0.  1.
         23    2    1    2    0    0  0.00000000000E+00  0.00000000000E+00  0.24245638202E+02  0.90869544125E+02  0.87575242379E+02 0.  0.
        -11    1    3    3    0    0 -0.39293382853E+02 -0.77288717252E+00 -0.79112073221E+01  0.40089331398E+02  0.00000000000E+00 0.  1.
         11    1    3    3    0    0  0.39293382853E+02  0.77288717252E+00  0.32156845525E+02  0.50780212728E+02  0.00000000000E+00 0. -1.
<mgrwt>
<rscale>  0 0.87575242E+02</rscale>
<asrwt>0</asrwt>
<pdfrwt beam="1">  1        1 0.88550141E-02 0.87575242E+02</pdfrwt>
<pdfrwt beam="2">  1       -1 0.51249158E-02 0.87575242E+02</pdfrwt>
<totfact> 0.10706871E+05</totfact>
</mgrwt>
</event>
<event>
 5    1  0.6222456E+000  0.9168323E+02  0.7546771E-02  0.1298826E+00
         -1   -1    0    0    0  501 -0.00000000000E+00  0.00000000000E+00  0.13438359903E+02  0.13438359903E+02  0.00000000000E+00 0.  1.
          1   -1    0    0  501    0  0.00000000000E+00 -0.00000000000E+00 -0.15637725762E+03  0.15637725762E+03  0.00000000000E+00 0. -1.
         23    2    1    2    0    0  0.00000000000E+00  0.00000000000E+00 -0.14293889771E+03  0.16981561752E+03  0.91683234423E+02 0.  0.
        -11    1    3    3    0    0 -0.27057380034E+02 -0.10660466759E+02 -0.13710388737E+03  0.14015428391E+03  0.00000000000E+00 0. -1.
         11    1    3    3    0    0  0.27057380034E+02  0.10660466759E+02 -0.58350103419E+01  0.29661333610E+02  0.00000000000E+00 0.  1.
<mgrwt>
<rscale>  0 0.91683234E+02</rscale>
<asrwt>0</asrwt>
<pdfrwt beam="2">  1        1 0.24058038E-01 0.91683234E+02</pdfrwt>
<pdfrwt beam="1">  1       -1 0.20674401E-02 0.91683234E+02</pdfrwt>
<totfact> 0.11132184E+05</totfact>
</mgrwt>
</event>
<event>
 5    1  0.6222456E+000  0.9121437E+02  0.7546771E-02  0.1299937E+00
          2   -1    0    0  501    0  0.00000000000E+00  0.00000000000E+00  0.11599013244E+03  0.11599013244E+03  0.00000000000E+00 0. -1.
         -2   -1    0    0    0  501 -0.00000000000E+00 -0.00000000000E+00 -0.17932692409E+02  0.17932692409E+02  0.00000000000E+00 0.  1.
         23    2    1    2    0    0  0.00000000000E+00  0.00000000000E+00  0.98057440030E+02  0.13392282485E+03  0.91214370963E+02 0.  0.
        -11    1    3    3    0    0  0.34942237774E+02 -0.64736009339E+01  0.70584597380E+01  0.36231054961E+02  0.00000000000E+00 0.  1.
         11    1    3    3    0    0 -0.34942237774E+02  0.64736009339E+01  0.90998980292E+02  0.97691769888E+02  0.00000000000E+00 0. -1.
<mgrwt>
<rscale>  0 0.91214371E+02</rscale>
<asrwt>0</asrwt>
<pdfrwt beam="1">  1        2 0.17844635E-01 0.91214371E+02</pdfrwt>
<pdfrwt beam="2">  1       -2 0.27588758E-02 0.91214371E+02</pdfrwt>
<totfact> 0.12832027E+05</totfact>
</mgrwt>
</event>
<event>
 5    1  0.6222456E+000  0.7271409E+02  0.7546771E-02  0.1351100E+00
          3   -1    0    0  501    0  0.00000000000E+00  0.00000000000E+00  0.26085072307E+02  0.26085072307E+02  0.00000000000E+00 0.  1.
         -3   -1    0    0    0  501 -0.00000000000E+00 -0.00000000000E+00 -0.50673984801E+02  0.50673984801E+02  0.00000000000E+00 0. -1.
         23    2    1    2    0    0  0.00000000000E+00  0.00000000000E+00 -0.24588912493E+02  0.76759057108E+02  0.72714085503E+02 0.  0.
        -11    1    3    3    0    0  0.16498550178E+02  0.14752891944E+02 -0.42743153990E+02  0.48133431123E+02  0.00000000000E+00 0. -1.
         11    1    3    3    0    0 -0.16498550178E+02 -0.14752891944E+02  0.18154241497E+02  0.28625625985E+02  0.00000000000E+00 0.  1.
<mgrwt>
<rscale>  0 0.72714086E+02</rscale>
<asrwt>0</asrwt>
<pdfrwt beam="1">  1        3 0.40130881E-02 0.72714086E+02</pdfrwt>
<pdfrwt beam="2">  1       -3 0.77959976E-02 0.72714086E+02</pdfrwt>
<totfact> 0.67054384E+04</totfact>
</mgrwt>
</event>
<event>
 5    1  0.6222456E+000  0.8881562E+02  0.7546771E-02  0.1305745E+00
         -3   -1    0    0    0  501 -0.00000000000E+00  0.00000000000E+00  0.42273409870E+02  0.42273409870E+02  0.00000000000E+00 0.  1.
          3   -1    0    0  501    0  0.00000000000E+00 -0.00000000000E+00 -0.46649979105E+02  0.46649979105E+02  0.00000000000E+00 0. -1.
         23    2    1    2    0    0  0.00000000000E+00  0.00000000000E+00 -0.43765692351E+01  0.88923388974E+02  0.88815622209E+02 0.  0.
        -11    1    3    3    0    0 -0.14891866695E+02 -0.40548409255E+02 -0.12501875910E+02  0.44969301618E+02  0.00000000000E+00 0.  1.
         11    1    3    3    0    0  0.14891866695E+02  0.40548409255E+02  0.81253066749E+01  0.43954087356E+02  0.00000000000E+00 0. -1.
<mgrwt>
<rscale>  0 0.88815622E+02</rscale>
<asrwt>0</asrwt>
<pdfrwt beam="2">  1        3 0.71769198E-02 0.88815622E+02</pdfrwt>
<pdfrwt beam="1">  1       -3 0.65036016E-02 0.88815622E+02</pdfrwt>
<totfact> 0.38137299E+04</totfact>
</mgrwt>
</event>
<event>
 5    1  0.6222456E+000  0.9171457E+02  0.7546771E-02  0.1298752E+00
         -1   -1    0    0    0  501 -0.00000000000E+00  0.00000000000E+00  0.75615625181E+01  0.75615625181E+01  0.00000000000E+00 0.  1.
          1   -1    0    0  501    0  0.00000000000E+00 -0.00000000000E+00 -0.27810265739E+03  0.27810265739E+03  0.00000000000E+00 0. -1.
         23    2    1    2    0    0  0.00000000000E+00  0.00000000000E+00 -0.27054109487E+03  0.28566421990E+03  0.91714570931E+02 0.  0.
        -11    1    3    3    0    0 -0.29642541363E+02  0.34983077005E+02 -0.13722735606E+03  0.14468532471E+03  0.00000000000E+00 0.  1.
         11    1    3    3    0    0  0.29642541363E+02 -0.34983077005E+02 -0.13331373880E+03  0.14097889519E+03  0.00000000000E+00 0. -1.
<mgrwt>
<rscale>  0 0.91714571E+02</rscale>
<asrwt>0</asrwt>
<pdfrwt beam="2">  1        1 0.42785024E-01 0.91714571E+02</pdfrwt>
<pdfrwt beam="1">  1       -1 0.11633173E-02 0.91714571E+02</pdfrwt>
<totfact> 0.12429960E+05</totfact>
</mgrwt>
</event>
<event>
 5    1  0.6222456E+000  0.9162828E+02  0.7546771E-02  0.1298956E+00
          3   -1    0    0  501    0  0.00000000000E+00  0.00000000000E+00  0.13085527061E+02  0.13085527061E+02  0.00000000000E+00 0. -1.
         -3   -1    0    0    0  501 -0.00000000000E+00 -0.00000000000E+00 -0.16040128645E+03  0.16040128645E+03  0.00000000000E+00 0.  1.
         23    2    1    2    0    0  0.00000000000E+00  0.00000000000E+00 -0.14731575939E+03  0.17348681351E+03  0.91628278920E+02 0.  0.
        -11    1    3    3    0    0 -0.39004561833E+02  0.67010404176E+01 -0.11735656166E+03  0.12384999940E+03  0.00000000000E+00 0.  1.
         11    1    3    3    0    0  0.39004561833E+02 -0.67010404176E+01 -0.29959197723E+02  0.49636814107E+02  0.00000000000E+00 0. -1.
<mgrwt>
<rscale>  0 0.91628279E+02</rscale>
<asrwt>0</asrwt>
<pdfrwt beam="1">  1        3 0.20131579E-02 0.91628279E+02</pdfrwt>
<pdfrwt beam="2">  1       -3 0.24677123E-01 0.91628279E+02</pdfrwt>
<totfact> 0.29531542E+04</totfact>
</mgrwt>
</event>
<event>
 5    1  0.6222456E+000  0.9179289E+02  0.7546771E-02  0.1298567E+00
          2   -1    0    0  501    0  0.00000000000E+00  0.00000000000E+00  0.93020189617E+02  0.93020189617E+02  0.00000000000E+00 0. -1.
         -2   -1    0    0    0  501 -0.00000000000E+00 -0.00000000000E+00 -0.22645445169E+02  0.22645445169E+02  0.00000000000E+00 0.  1.
         23    2    1    2    0    0  0.00000000000E+00  0.00000000000E+00  0.70374744448E+02  0.11566563479E+03  0.91792888691E+02 0.  0.
        -11    1    3    3    0    0 -0.37580430520E+02 -0.16793532306E+02  0.96053652186E+01  0.42267890016E+02  0.00000000000E+00 0.  1.
         11    1    3    3    0    0  0.37580430520E+02  0.16793532306E+02  0.60769379230E+02  0.73397744770E+02  0.00000000000E+00 0. -1.
<mgrwt>
<rscale>  0 0.91792889E+02</rscale>
<asrwt>0</asrwt>
<pdfrwt beam="1">  1        2 0.14310798E-01 0.91792889E+02</pdfrwt>
<pdfrwt beam="2">  1       -2 0.34839147E-02 0.91792889E+02</pdfrwt>
<totfact> 0.11781526E+05</totfact>
</mgrwt>
</event>
<event>
 5    1  0.6222456E+000  0.9209345E+02  0.7546771E-02  0.1297860E+00
          3   -1    0    0  501    0  0.00000000000E+00  0.00000000000E+00  0.62315210207E+01  0.62315210207E+01  0.00000000000E+00 0. -1.
         -3   -1    0    0    0  501 -0.00000000000E+00 -0.00000000000E+00 -0.34025418296E+03  0.34025418296E+03  0.00000000000E+00 0.  1.
         23    2    1    2    0    0  0.00000000000E+00  0.00000000000E+00 -0.33402266194E+03  0.34648570398E+03  0.92093454567E+02 0.  0.
        -11    1    3    3    0    0 -0.73493975514E+01  0.45443722035E+02 -0.17105574817E+03  0.17714179207E+03  0.00000000000E+00 0.  1.
         11    1    3    3    0    0  0.73493975514E+01 -0.45443722035E+02 -0.16296691377E+03  0.16934391191E+03  0.00000000000E+00 0. -1.
<mgrwt>
<rscale>  0 0.92093455E+02</rscale>
<asrwt>0</asrwt>
<pdfrwt beam="1">  1        3 0.95869543E-03 0.92093455E+02</pdfrwt>
<pdfrwt beam="2">  1       -3 0.52346804E-01 0.92093455E+02</pdfrwt>
<totfact> 0.21734998E+04</totfact>
</mgrwt>
</event>
<event>
 5    1  0.6222456E+000  0.8734386E+02  0.7546771E-02  0.1309414E+00
         -1   -1    0    0    0  501 -0.00000000000E+00  0.00000000000E+00  0.18386608705E+02  0.18386608705E+02  0.00000000000E+00 0.  1.
          1   -1    0    0  501    0  0.00000000000E+00 -0.00000000000E+00 -0.10372969834E+03  0.10372969834E+03  0.00000000000E+00 0. -1.
         23    2    1    2    0    0  0.00000000000E+00  0.00000000000E+00 -0.85343089633E+02  0.12211630704E+03  0.87343857812E+02 0.  0.
        -11    1    3    3    0    0  0.11228763041E+02  0.35754305229E+02 -0.74021080656E+02  0.82967317922E+02  0.00000000000E+00 0. -1.
         11    1    3    3    0    0 -0.11228763041E+02 -0.35754305229E+02 -0.11322008977E+02  0.39148989119E+02  0.00000000000E+00 0.  1.
<mgrwt>
<rscale>  0 0.87343858E+02</rscale>
<asrwt>0</asrwt>
<pdfrwt beam="2">  1        1 0.15958415E-01 0.87343858E+02</pdfrwt>
<pdfrwt beam="1">  1       -1 0.28287090E-02 0.87343858E+02</pdfrwt>
<totfact> 0.11808183E+05</totfact>
</mgrwt>
</event>
<event>
 5    1  0.6222456E+000  0.9164608E+02  0.7546771E-02  0.1298914E+00
          1   -1    0    0  501    0  0.00000000000E+00  0.00000000000E+00  0.10118342785E+02  0.10118342785E+02  0.00000000000E+00 0. -1.
         -1   -1    0    0    0  501 -0.00000000000E+00 -0.00000000000E+00 -0.20751927990E+03  0.20751927990E+03  0.00000000000E+00 0.  1.
         23    2    1    2    0    0  0.00000000000E+00  0.00000000000E+00 -0.19740093711E+03  0.21763762268E+03  0.91646084663E+02 0.  0.
        -11    1    3    3    0    0 -0.25857822835E+02  0.33466097169E+02 -0.14058958064E+03  0.14681293147E+03  0.00000000000E+00 0.  1.
         11    1    3    3    0    0  0.25857822835E+02 -0.33466097169E+02 -0.56811356473E+02  0.70824691216E+02  0.00000000000E+00 0. -1.
<mgrwt>
<rscale>  0 0.91646085E+02</rscale>
<asrwt>0</asrwt>
<pdfrwt beam="1">  1        1 0.15566681E-02 0.91646085E+02</pdfrwt>
<pdfrwt beam="2">  1       -1 0.31926044E-01 0.91646085E+02</pdfrwt>
<totfact> 0.67771787E+04</totfact>
</mgrwt>
</event>
<event>
 5    1  0.6222456E+000  0.9008374E+02  0.7546771E-02  0.1302649E+00
          1   -1    0    0  501    0  0.00000000000E+00  0.00000000000E+00  0.45697822243E+02  0.45697822243E+02  0.00000000000E+00 0. -1.
         -1   -1    0    0    0  501 -0.00000000000E+00 -0.00000000000E+00 -0.44395330399E+02  0.44395330399E+02  0.00000000000E+00 0.  1.
         23    2    1    2    0    0  0.00000000000E+00  0.00000000000E+00  0.13024918441E+01  0.90093152642E+02  0.90083736978E+02 0.  0.
        -11    1    3    3    0    0 -0.10919495278E+02  0.28411236845E+02  0.33856164352E+02  0.45526625405E+02  0.00000000000E+00 0. -1.
         11    1    3    3    0    0  0.10919495278E+02 -0.28411236845E+02 -0.32553672508E+02  0.44566527236E+02  0.00000000000E+00 0.  1.
<mgrwt>
<rscale>  0 0.90083737E+02</rscale>
<asrwt>0</asrwt>
<pdfrwt beam="1">  1        1 0.70304342E-02 0.90083737E+02</pdfrwt>
<pdfrwt beam="2">  1       -1 0.68300508E-02 0.90083737E+02</pdfrwt>
<totfact> 0.95685034E+04</totfact>
</mgrwt>
</event>
<event>
 5    1  0.6222456E+000  0.9393218E+02  0.7546771E-02  0.1293599E+00
         -3   -1    0    0    0  501 -0.00000000000E+00  0.00000000000E+00  0.52616038177E+02  0.52616038177E+02  0.00000000000E+00 0.  1.
          3   -1    0    0  501    0  0.00000000000E+00 -0.00000000000E+00 -0.41922834302E+02  0.41922834302E+02  0.00000000000E+00 0. -1.
         23    2    1    2    0    0  0.00000000000E+00  0.00000000000E+00  0.10693203875E+02  0.94538872480E+02  0.93932176599E+02 0.  0.
        -11    1    3    3    0    0 -0.10571789421E+02 -0.45699213215E+02  0.29579567191E+01  0.46999258802E+02  0.00000000000E+00 0.  1.
         11    1    3    3    0    0  0.10571789421E+02  0.45699213215E+02  0.77352471560E+01  0.47539613677E+02  0.00000000000E+00 0. -1.
<mgrwt>
<rscale>  0 0.93932177E+02</rscale>
<asrwt>0</asrwt>
<pdfrwt beam="2">  1        3 0.64496669E-02 0.93932177E+02</pdfrwt>
<pdfrwt beam="1">  1       -3 0.80947750E-02 0.93932177E+02</pdfrwt>
<totfact> 0.32341073E+04</totfact>
</mgrwt>
</event>
<event>
 5    1  0.6222456E+000  0.9181553E+02  0.7546771E-02  0.1298514E+00
         -2   -1    0    0    0  501 -0.00000000000E+00  0.00000000000E+00  0.11617659056E+02  0.11617659056E+02  0.00000000000E+00 0.  1.
          2   -1    0    0  501    0  0.00000000000E+00 -0.00000000000E+00 -0.18140684857E+03  0.18140684857E+03  0.00000000000E+00 0. -1.
         23    2    1    2    0    0  0.00000000000E+00  0.00000000000E+00 -0.16978918951E+03  0.19302450763E+03  0.91815530649E+02 0.  0.
        -11    1    3    3    0    0 -0.29236577910E+02 -0.77357827933E+01 -0.12284185063E+02  0.32642319555E+02  0.00000000000E+00 0.  1.
         11    1    3    3    0    0  0.29236577910E+02  0.77357827933E+01 -0.15750500445E+03  0.16038218807E+03  0.00000000000E+00 0. -1.
<mgrwt>
<rscale>  0 0.91815531E+02</rscale>
<asrwt>0</asrwt>
<pdfrwt beam="2">  1        2 0.27908745E-01 0.91815531E+02</pdfrwt>
<pdfrwt beam="1">  1       -2 0.17873322E-02 0.91815531E+02</pdfrwt>
<totfact> 0.14656792E+05</totfact>
</mgrwt>
</event>
<event>
 5    1  0.6222456E+000  0.9632520E+02  0.7546771E-02  0.1288219E+00
          4   -1    0    0  501    0  0.00000000000E+00  0.00000000000E+00  0.20089209348E+03  0.20089209348E+03  0.00000000000E+00 0. -1.
         -4   -1    0    0    0  501 -0.00000000000E+00 -0.00000000000E+00 -0.11546677509E+02  0.11546677509E+02  0.00000000000E+00 0.  1.
         23    2    1    2    0    0  0.00000000000E+00  0.00000000000E+00  0.18934541597E+03  0.21243877099E+03  0.96325203714E+02 0.  0.
        -11    1    3    3    0    0  0.45242896668E+02 -0.16352743226E+02  0.89593357267E+02  0.10169219034E+03  0.00000000000E+00 0.  1.
         11    1    3    3    0    0 -0.45242896668E+02  0.16352743226E+02  0.99752058707E+02  0.11074658065E+03  0.00000000000E+00 0. -1.
<mgrwt>
<rscale>  0 0.96325204E+02</rscale>
<asrwt>0</asrwt>
<pdfrwt beam="1">  1        4 0.30906473E-01 0.96325204E+02</pdfrwt>
<pdfrwt beam="2">  1       -4 0.17764121E-02 0.96325204E+02</pdfrwt>
<totfact> 0.18011654E+04</totfact>
</mgrwt>
</event>
<event>
 5    1  0.6222456E+000  0.9068119E+02  0.7546771E-02  0.1301210E+00
         -1   -1    0    0    0  501 -0.00000000000E+00  0.00000000000E+00  0.97578016071E+01  0.97578016071E+01  0.00000000000E+00 0.  1.
          1   -1    0    0  501    0  0.00000000000E+00 -0.00000000000E+00 -0.21067955842E+03  0.21067955842E+03  0.00000000000E+00 0. -1.
         23    2    1    2    0    0  0.00000000000E+00  0.00000000000E+00 -0.20092175681E+03  0.22043736003E+03  0.90681185121E+02 0.  0.
        -11    1    3    3    0    0  0.39668460353E+02  0.19499007858E+02 -0.75913396510E+02  0.87844418285E+02  0.00000000000E+00 0.  1.
         11    1    3    3    0    0 -0.39668460353E+02 -0.19499007858E+02 -0.12500836030E+03  0.13259294174E+03  0.00000000000E+00 0. -1.
<mgrwt>
<rscale>  0 0.90681185E+02</rscale>
<asrwt>0</asrwt>
<pdfrwt beam="2">  1        1 0.32412239E-01 0.90681185E+02</pdfrwt>
<pdfrwt beam="1">  1       -1 0.15012003E-02 0.90681185E+02</pdfrwt>
<totfact> 0.12136803E+05</totfact>
</mgrwt>
</event>
<event>
 5    1  0.6222456E+000  0.9007828E+02  0.7546771E-02  0.1302662E+00
         -2   -1    0    0    0  501 -0.00000000000E+00  0.00000000000E+00  0.53703107948E+02  0.53703107948E+02  0.00000000000E+00 0.  1.
          2   -1    0    0  501    0  0.00000000000E+00 -0.00000000000E+00 -0.37772940283E+02  0.37772940283E+02  0.00000000000E+00 0. -1.
         23    2    1    2    0    0  0.00000000000E+00  0.00000000000E+00  0.15930167665E+02  0.91476048231E+02  0.90078283499E+02 0.  0.
        -11    1    3    3    0    0 -0.28178656961E+02  0.13844021266E+02  0.40759068397E+02  0.51448958099E+02  0.00000000000E+00 0.  1.
         11    1    3    3    0    0  0.28178656961E+02 -0.13844021266E+02 -0.24828900731E+02  0.40027090132E+02  0.00000000000E+00 0. -1.
<mgrwt>
<rscale>  0 0.90078283E+02</rscale>
<asrwt>0</asrwt>
<pdfrwt beam="2">  1        2 0.58112216E-02 0.90078283E+02</pdfrwt>
<pdfrwt beam="1">  1       -2 0.82620166E-02 0.90078283E+02</pdfrwt>
<totfact> 0.97349876E+04</totfact>
</mgrwt>
</event>
<event>
 5    1  0.6222456E+000  0.8978429E+02  0.7546771E-02  0.1303375E+00
          3   -1    0    0  501    0  0.00000000000E+00  0.00000000000E+00  0.19509678474E+03  0.19509678474E+03  0.00000000000E+00 0. -1.
         -3   -1    0    0    0  501 -0.00000000000E+00 -0.00000000000E+00 -0.10329767991E+02  0.10329767991E+02  0.00000000000E+00 0.  1.
         23    2    1    2    0    0  0.00000000000E+00  0.00000000000E+00  0.18476701675E+03  0.20542655273E+03  0.89784286423E+02 0.  0.
        -11    1    3    3    0    0 -0.30591082381E+02  0.29759376952E+02  0.60526044854E+02  0.74059685008E+02  0.00000000000E+00 0.  1.
         11    1    3    3    0    0  0.30591082381E+02 -0.29759376952E+02  0.12424097189E+03  0.13136686772E+03  0.00000000000E+00 0. -1.
<mgrwt>
<rscale>  0 0.89784286E+02</rscale>
<asrwt>0</asrwt>
<pdfrwt beam="1">  1        3 0.30014887E-01 0.89784286E+02</pdfrwt>
<pdfrwt beam="2">  1       -3 0.15891952E-02 0.89784286E+02</pdfrwt>
<totfact> 0.29413825E+04</totfact>
</mgrwt>
</event>
<event>
 5    1  0.6222456E+000  0.8912121E+02  0.7546771E-02  0.1304994E+00
          2   -1    0    0  501    0  0.00000000000E+00  0.00000000000E+00  0.94756197517E+02  0.94756197517E+02  0.00000000000E+00 0. -1.
         -2   -1    0    0    0  501 -0.00000000000E+00 -0.00000000000E+00 -0.20955332875E+02  0.20955332875E+02  0.00000000000E+00 0.  1.
         23    2    1    2    0    0  0.00000000000E+00  0.00000000000E+00  0.73800864641E+02  0.11571153039E+03  0.89121213209E+02 0.  0.
        -11    1    3    3    0    0 -0.19928433085E+02  0.33960447510E+02  0.63985916808E+02  0.75130899036E+02  0.00000000000E+00 0. -1.
         11    1    3    3    0    0  0.19928433085E+02 -0.33960447510E+02  0.98149478338E+01  0.40580631356E+02  0.00000000000E+00 0.  1.
<mgrwt>
<rscale>  0 0.89121213E+02</rscale>
<asrwt>0</asrwt>
<pdfrwt beam="1">  1        2 0.14577876E-01 0.89121213E+02</pdfrwt>
<pdfrwt beam="2">  1       -2 0.32238974E-02 0.89121213E+02</pdfrwt>
<totfact> 0.12851260E+05</totfact>
</mgrwt>
</event>
<event>
 5    1  0.6222456E+000  0.9780725E+02  0.7546771E-02  0.1284976E+00
         -3   -1    0    0    0  501 -0.00000000000E+00  0.00000000000E+00  0.13673337809E+03  0.13673337809E+03  0.00000000000E+00 0.  1.
          3   -1    0    0  501    0  0.00000000000E+00 -0.00000000000E+00 -0.17490714462E+02  0.17490714462E+02  0.00000000000E+00 0. -1.
         23    2    1    2    0    0  0.00000000000E+00  0.00000000000E+00  0.11924266363E+03  0.15422409255E+03  0.97807248680E+02 0.  0.
        -11    1    3    3    0    0 -0.40708576359E+02  0.19507236362E+02  0.89282421884E+02  0.10004534630E+03  0.00000000000E+00 0.  1.
         11    1    3    3    0    0  0.40708576359E+02 -0.19507236362E+02  0.29960241745E+02  0.54178746249E+02  0.00000000000E+00 0. -1.
<mgrwt>
<rscale>  0 0.97807249E+02</rscale>
<asrwt>0</asrwt>
<pdfrwt beam="2">  1        3 0.26908792E-02 0.97807249E+02</pdfrwt>
<pdfrwt beam="1">  1       -3 0.21035904E-01 0.97807249E+02</pdfrwt>
<totfact> 0.25651206E+04</totfact>
</mgrwt>
</event>
<event>
 5    1  0.6222456E+000  0.9141500E+02  0.7546771E-02  0.1299461E+00
         -2   -1    0    0    0  501 -0.00000000000E+00  0.00000000000E+00  0.16208770732E+02  0.16208770732E+02  0.00000000000E+00 0.  1.
          2   -1    0    0  501    0  0.00000000000E+00 -0.00000000000E+00 -0.12889166576E+03  0.12889166576E+03  0.00000000000E+00 0. -1.
         23    2    1    2    0    0  0.00000000000E+00  0.00000000000E+00 -0.11268289503E+03  0.14510043650E+03  0.91414997887E+02 0.  0.
        -11    1    3    3    0    0  0.71352745579E+01 -0.25235512734E+02 -0.11576208591E+03  0.11869542443E+03  0.00000000000E+00 0. -1.
         11    1    3    3    0    0 -0.71352745579E+01  0.25235512734E+02  0.30791908762E+01  0.26405012070E+02  0.00000000000E+00 0.  1.
<mgrwt>
<rscale>  0 0.91414998E+02</rscale>
<asrwt>0</asrwt>
<pdfrwt beam="2">  1        2 0.19829487E-01 0.91414998E+02</pdfrwt>
<pdfrwt beam="1">  1       -2 0.24936570E-02 0.91414998E+02</pdfrwt>
<totfact> 0.13196392E+05</totfact>
</mgrwt>
</event>
<event>
 5    1  0.6222456E+000  0.9118303E+02  0.7546771E-02  0.1300012E+00
          2   -1    0    0  501    0  0.00000000000E+00  0.00000000000E+00  0.12353817332E+03  0.12353817332E+03  0.00000000000E+00 0. -1.
         -2   -1    0    0    0  501 -0.00000000000E+00 -0.00000000000E+00 -0.16825458508E+02  0.16825458508E+02  0.00000000000E+00 0.  1.
         23    2    1    2    0    0  0.00000000000E+00  0.00000000000E+00  0.10671271482E+03  0.14036363183E+03  0.91183033716E+02 0.  0.
        -11    1    3    3    0    0 -0.16095431479E+01 -0.44254559011E+02  0.36667963814E+02  0.57494314438E+02  0.00000000000E+00 0.  1.
         11    1    3    3    0    0  0.16095431479E+01  0.44254559011E+02  0.70044751002E+02  0.82869317394E+02  0.00000000000E+00 0. -1.
<mgrwt>
<rscale>  0 0.91183034E+02</rscale>
<asrwt>0</asrwt>
<pdfrwt beam="1">  1        2 0.19005872E-01 0.91183034E+02</pdfrwt>
<pdfrwt beam="2">  1       -2 0.25885322E-02 0.91183034E+02</pdfrwt>
<totfact> 0.13106025E+05</totfact>
</mgrwt>
</event>
<event>
 5    1  0.6222456E+000  0.8606839E+02  0.7546771E-02  0.1312662E+00
          1   -1    0    0  501    0  0.00000000000E+00  0.00000000000E+00  0.25449160006E+03  0.25449160006E+03  0.00000000000E+00 0. -1.
         -1   -1    0    0    0  501 -0.00000000000E+00 -0.00000000000E+00 -0.72770252562E+01  0.72770252562E+01  0.00000000000E+00 0.  1.
         23    2    1    2    0    0  0.00000000000E+00  0.00000000000E+00  0.24721457480E+03  0.26176862532E+03  0.86068386790E+02 0.  0.
        -11    1    3    3    0    0  0.83464949234E+01  0.36761251314E+02  0.18674026062E+03  0.19050716132E+03  0.00000000000E+00 0.  1.
         11    1    3    3    0    0 -0.83464949234E+01 -0.36761251314E+02  0.60474314184E+02  0.71261464002E+02  0.00000000000E+00 0. -1.
<mgrwt>
<rscale>  0 0.86068387E+02</rscale>
<asrwt>0</asrwt>
<pdfrwt beam="1">  1        1 0.39152547E-01 0.86068387E+02</pdfrwt>
<pdfrwt beam="2">  1       -1 0.11195425E-02 0.86068387E+02</pdfrwt>
<totfact> 0.14467982E+05</totfact>
</mgrwt>
</event>
<event>
 5    1  0.6222456E+000  0.9091146E+02  0.7546771E-02  0.1300659E+00
          3   -1    0    0  501    0  0.00000000000E+00  0.00000000000E+00  0.12169153469E+03  0.12169153469E+03  0.00000000000E+00 0. -1.
         -3   -1    0    0    0  501 -0.00000000000E+00 -0.00000000000E+00 -0.16979187027E+02  0.16979187027E+02  0.00000000000E+00 0.  1.
         23    2    1    2    0    0  0.00000000000E+00  0.00000000000E+00  0.10471234766E+03  0.13867072172E+03  0.90911458620E+02 0.  0.
        -11    1    3    3    0    0 -0.37557995841E+02 -0.17669915959E+02  0.24090280232E+02  0.47991359464E+02  0.00000000000E+00 0.  1.
         11    1    3    3    0    0  0.37557995841E+02  0.17669915959E+02  0.80622067432E+02  0.90679362253E+02  0.00000000000E+00 0. -1.
<mgrwt>
<rscale>  0 0.90911459E+02</rscale>
<asrwt>0</asrwt>
<pdfrwt beam="1">  1        3 0.18721774E-01 0.90911459E+02</pdfrwt>
<pdfrwt beam="2">  1       -3 0.26121827E-02 0.90911459E+02</pdfrwt>
<totfact> 0.32268709E+04</totfact>
</mgrwt>
</event>
<event>
 5    1  0.6222456E+000  0.9007145E+02  0.7546771E-02  0.1302679E+00
         -2   -1    0    0    0  501 -0.00000000000E+00  0.00000000000E+00  0.14926944081E+02  0.14926944081E+02  0.00000000000E+00 0.  1.
          2   -1    0    0  501    0  0.00000000000E+00 -0.00000000000E+00 -0.13587619534E+03  0.13587619534E+03  0.00000000000E+00 0. -1.
         23    2    1    2    0    0  0.00000000000E+00  0.00000000000E+00 -0.12094925126E+03  0.15080313942E+03  0.90071446523E+02 0.  0.
        -11    1    3    3    0    0 -0.32172392419E+02 -0.37960933413E+01 -0.80955745095E+01  0.33391787692E+02  0.00000000000E+00 0.  1.
         11    1    3    3    0    0  0.32172392419E+02  0.37960933413E+01 -0.11285367675E+03  0.11741135173E+03  0.00000000000E+00 0. -1.
<mgrwt>
<rscale>  0 0.90071447E+02</rscale>
<asrwt>0</asrwt>
<pdfrwt beam="2">  1        2 0.20904030E-01 0.90071447E+02</pdfrwt>
<pdfrwt beam="1">  1       -2 0.22964530E-02 0.90071447E+02</pdfrwt>
<totfact> 0.13979926E+05</totfact>
</mgrwt>
</event>
<event>
 5    1  0.6222456E+000  0.9047269E+02  0.7546771E-02  0.1301711E+00
          3   -1    0    0  501    0  0.00000000000E+00  0.00000000000E+00  0.90138376568E+02  0.90138376568E+02  0.00000000000E+00 0. -1.
         -3   -1    0    0    0  501 -0.00000000000E+00 -0.00000000000E+00 -0.22702059129E+02  0.22702059129E+02  0.00000000000E+00 0.  1.
         23    2    1    2    0    0  0.00000000000E+00  0.00000000000E+00  0.67436317439E+02  0.11284043570E+03  0.90472686589E+02 0.  0.
        -11    1    3    3    0    0 -0.43650303081E+02 -0.14267721752E+01  0.19016571561E+02  0.47634175041E+02  0.00000000000E+00 0.  1.
         11    1    3    3    0    0  0.43650303081E+02  0.14267721752E+01  0.48419745878E+02  0.65206260656E+02  0.00000000000E+00 0. -1.
<mgrwt>
<rscale>  0 0.90472687E+02</rscale>
<asrwt>0</asrwt>
<pdfrwt beam="1">  1        3 0.13867442E-01 0.90472687E+02</pdfrwt>
<pdfrwt beam="2">  1       -3 0.34926245E-02 0.90472687E+02</pdfrwt>
<totfact> 0.34460695E+04</totfact>
</mgrwt>
</event>
<event>
 5    1  0.6222456E+000  0.6444750E+02  0.7546771E-02  0.1380062E+00
          1   -1    0    0  501    0  0.00000000000E+00  0.00000000000E+00  0.10897500981E+03  0.10897500981E+03  0.00000000000E+00 0. -1.
         -1   -1    0    0    0  501 -0.00000000000E+00 -0.00000000000E+00 -0.95285149546E+01  0.95285149546E+01  0.00000000000E+00 0.  1.
         23    2    1    2    0    0  0.00000000000E+00  0.00000000000E+00  0.99446494857E+02  0.11850352477E+03  0.64447498343E+02 0.  0.
        -11    1    3    3    0    0 -0.12703150106E+01  0.22252496610E+02  0.69317388213E+01  0.23341728913E+02  0.00000000000E+00 0.  1.
         11    1    3    3    0    0  0.12703150106E+01 -0.22252496610E+02  0.92514756036E+02  0.95161795853E+02  0.00000000000E+00 0. -1.
<mgrwt>
<rscale>  0 0.64447498E+02</rscale>
<asrwt>0</asrwt>
<pdfrwt beam="1">  1        1 0.16765385E-01 0.64447498E+02</pdfrwt>
<pdfrwt beam="2">  1       -1 0.14659255E-02 0.64447498E+02</pdfrwt>
<totfact> 0.26663945E+05</totfact>
</mgrwt>
</event>
<event>
 5    1  0.6222456E+000  0.9204624E+02  0.7546771E-02  0.1297971E+00
          2   -1    0    0  501    0  0.00000000000E+00  0.00000000000E+00  0.32228272258E+03  0.32228272258E+03  0.00000000000E+00 0. -1.
         -2   -1    0    0    0  501 -0.00000000000E+00 -0.00000000000E+00 -0.65722657347E+01  0.65722657347E+01  0.00000000000E+00 0.  1.
         23    2    1    2    0    0  0.00000000000E+00  0.00000000000E+00  0.31571045685E+03  0.32885498832E+03  0.92046242607E+02 0.  0.
        -11    1    3    3    0    0  0.53559819961E+01 -0.45275825368E+02  0.18032098416E+03  0.18599528014E+03  0.00000000000E+00 0. -1.
         11    1    3    3    0    0 -0.53559819961E+01  0.45275825368E+02  0.13538947268E+03  0.14285970817E+03  0.00000000000E+00 0.  1.
<mgrwt>
<rscale>  0 0.92046243E+02</rscale>
<asrwt>0</asrwt>
<pdfrwt beam="1">  1        2 0.49581945E-01 0.92046243E+02</pdfrwt>
<pdfrwt beam="2">  1       -2 0.10111181E-02 0.92046243E+02</pdfrwt>
<totfact> 0.17989270E+05</totfact>
</mgrwt>
</event>
<event>
 5    1  0.6222456E+000  0.9132589E+02  0.7546771E-02  0.1299672E+00
          2   -1    0    0  501    0  0.00000000000E+00  0.00000000000E+00  0.15955916652E+02  0.15955916652E+02  0.00000000000E+00 0. -1.
         -2   -1    0    0    0  501 -0.00000000000E+00 -0.00000000000E+00 -0.13067909301E+03  0.13067909301E+03  0.00000000000E+00 0.  1.
         23    2    1    2    0    0  0.00000000000E+00  0.00000000000E+00 -0.11472317636E+03  0.14663500966E+03  0.91325893727E+02 0.  0.
        -11    1    3    3    0    0 -0.22730240506E+02 -0.49133512844E+01 -0.12045871118E+03  0.12268294892E+03  0.00000000000E+00 0.  1.
         11    1    3    3    0    0  0.22730240506E+02  0.49133512844E+01  0.57355348258E+01  0.23952060747E+02  0.00000000000E+00 0. -1.
<mgrwt>
<rscale>  0 0.91325894E+02</rscale>
<asrwt>0</asrwt>
<pdfrwt beam="1">  1        2 0.24547564E-02 0.91325894E+02</pdfrwt>
<pdfrwt beam="2">  1       -2 0.20104476E-01 0.91325894E+02</pdfrwt>
<totfact> 0.73017433E+04</totfact>
</mgrwt>
</event>
<event>
 5    1  0.6222456E+000  0.9101159E+02  0.7546771E-02  0.1300420E+00
         -2   -1    0    0    0  501 -0.00000000000E+00  0.00000000000E+00  0.10636673591E+03  0.10636673591E+03  0.00000000000E+00 0. -1.
          2   -1    0    0  501    0  0.00000000000E+00 -0.00000000000E+00 -0.19468277889E+02  0.19468277889E+02  0.00000000000E+00 0.  1.
         23    2    1    2    0    0  0.00000000000E+00  0.00000000000E+00  0.86898458021E+02  0.12583501380E+03  0.91011585479E+02 0.  0.
        -11    1    3    3    0    0  0.42762502568E+01  0.44797499907E+02  0.34105001006E+02  0.56464620851E+02  0.00000000000E+00 0.  1.
         11    1    3    3    0    0 -0.42762502568E+01 -0.44797499907E+02  0.52793457015E+02  0.69370392948E+02  0.00000000000E+00 0. -1.
<mgrwt>
<rscale>  0 0.91011585E+02</rscale>
<asrwt>0</asrwt>
<pdfrwt beam="2">  1        2 0.29951197E-02 0.91011585E+02</pdfrwt>
<pdfrwt beam="1">  1       -2 0.16364113E-01 0.91011585E+02</pdfrwt>
<totfact> 0.78687603E+04</totfact>
</mgrwt>
</event>
<event>
 5    1  0.6222456E+000  0.9069215E+02  0.7546771E-02  0.1301184E+00
         -4   -1    0    0    0  501 -0.00000000000E+00  0.00000000000E+00  0.94472239760E+02  0.94472239760E+02  0.00000000000E+00 0.  1.
          4   -1    0    0  501    0  0.00000000000E+00 -0.00000000000E+00 -0.21765827851E+02  0.21765827851E+02  0.00000000000E+00 0. -1.
         23    2    1    2    0    0  0.00000000000E+00  0.00000000000E+00  0.72706411909E+02  0.11623806761E+03  0.90692149767E+02 0.  0.
        -11    1    3    3    0    0 -0.37275156499E+01  0.44623958874E+02  0.45512888966E+02  0.63848376178E+02  0.00000000000E+00 0. -1.
         11    1    3    3    0    0  0.37275156499E+01 -0.44623958874E+02  0.27193522943E+02  0.52389691434E+02  0.00000000000E+00 0.  1.
<mgrwt>
<rscale>  0 0.90692150E+02</rscale>
<asrwt>0</asrwt>
<pdfrwt beam="2">  1        4 0.33485889E-02 0.90692150E+02</pdfrwt>
<pdfrwt beam="1">  1       -4 0.14534191E-01 0.90692150E+02</pdfrwt>
<totfact> 0.25857225E+04</totfact>
</mgrwt>
</event>
<event>
 5    1  0.6222456E+000  0.7956052E+02  0.7546771E-02  0.1330303E+00
          2   -1    0    0  501    0  0.00000000000E+00  0.00000000000E+00  0.19955623013E+03  0.19955623013E+03  0.00000000000E+00 0. -1.
         -2   -1    0    0    0  501 -0.00000000000E+00 -0.00000000000E+00 -0.79299399184E+01  0.79299399184E+01  0.00000000000E+00 0.  1.
         23    2    1    2    0    0  0.00000000000E+00  0.00000000000E+00  0.19162629021E+03  0.20748617004E+03  0.79560515716E+02 0.  0.
        -11    1    3    3    0    0  0.37031929041E+02  0.10711778341E+02  0.70212753338E+02  0.80099542414E+02  0.00000000000E+00 0.  1.
         11    1    3    3    0    0 -0.37031929041E+02 -0.10711778341E+02  0.12141353687E+03  0.12738662763E+03  0.00000000000E+00 0. -1.
<mgrwt>
<rscale>  0 0.79560516E+02</rscale>
<asrwt>0</asrwt>
<pdfrwt beam="1">  1        2 0.30700955E-01 0.79560516E+02</pdfrwt>
<pdfrwt beam="2">  1       -2 0.12199909E-02 0.79560516E+02</pdfrwt>
<totfact> 0.22237506E+05</totfact>
</mgrwt>
</event>
<event>
 5    1  0.6222456E+000  0.9078431E+02  0.7546771E-02  0.1300963E+00
         -2   -1    0    0    0  501 -0.00000000000E+00  0.00000000000E+00  0.25898486499E+02  0.25898486499E+02  0.00000000000E+00 0.  1.
          2   -1    0    0  501    0  0.00000000000E+00 -0.00000000000E+00 -0.79558611484E+02  0.79558611484E+02  0.00000000000E+00 0. -1.
         23    2    1    2    0    0  0.00000000000E+00  0.00000000000E+00 -0.53660124984E+02  0.10545709798E+03  0.90784307574E+02 0.  0.
        -11    1    3    3    0    0 -0.33067489107E+02  0.14197188381E+02  0.53078291609E+01  0.36375706786E+02  0.00000000000E+00 0.  1.
         11    1    3    3    0    0  0.33067489107E+02 -0.14197188381E+02 -0.58967954145E+02  0.69081391198E+02  0.00000000000E+00 0. -1.
<mgrwt>
<rscale>  0 0.90784308E+02</rscale>
<asrwt>0</asrwt>
<pdfrwt beam="2">  1        2 0.12239786E-01 0.90784308E+02</pdfrwt>
<pdfrwt beam="1">  1       -2 0.39843825E-02 0.90784308E+02</pdfrwt>
<totfact> 0.11605706E+05</totfact>
</mgrwt>
</event>
<event>
 5    1  0.6222456E+000  0.8930760E+02  0.7546771E-02  0.1304537E+00
          3   -1    0    0  501    0  0.00000000000E+00  0.00000000000E+00  0.90501592644E+02  0.90501592644E+02  0.00000000000E+00 0. -1.
         -3   -1    0    0    0  501 -0.00000000000E+00 -0.00000000000E+00 -0.22032341744E+02  0.22032341744E+02  0.00000000000E+00 0.  1.
         23    2    1    2    0    0  0.00000000000E+00  0.00000000000E+00  0.68469250900E+02  0.11253393439E+03  0.89307603652E+02 0.  0.
        -11    1    3    3    0    0  0.35106044986E+02 -0.27210399837E+02  0.28443537570E+02  0.52743483800E+02  0.00000000000E+00 0.  1.
         11    1    3    3    0    0 -0.35106044986E+02  0.27210399837E+02  0.40025713330E+02  0.59790450588E+02  0.00000000000E+00 0. -1.
<mgrwt>
<rscale>  0 0.89307604E+02</rscale>
<asrwt>0</asrwt>
<pdfrwt beam="1">  1        3 0.13923322E-01 0.89307604E+02</pdfrwt>
<pdfrwt beam="2">  1       -3 0.33895911E-02 0.89307604E+02</pdfrwt>
<totfact> 0.35714872E+04</totfact>
</mgrwt>
</event>
<event>
 5    1  0.6222456E+000  0.9126934E+02  0.7546771E-02  0.1299807E+00
          4   -1    0    0  501    0  0.00000000000E+00  0.00000000000E+00  0.72033799110E+02  0.72033799110E+02  0.00000000000E+00 0. -1.
         -4   -1    0    0    0  501 -0.00000000000E+00 -0.00000000000E+00 -0.28910363147E+02  0.28910363147E+02  0.00000000000E+00 0.  1.
         23    2    1    2    0    0  0.00000000000E+00  0.00000000000E+00  0.43123435962E+02  0.10094416226E+03  0.91269344056E+02 0.  0.
        -11    1    3    3    0    0 -0.94594393485E+01  0.74233148607E+01  0.70250181764E+02  0.71271836192E+02  0.00000000000E+00 0. -1.
         11    1    3    3    0    0  0.94594393485E+01 -0.74233148607E+01 -0.27126745801E+02  0.29672326065E+02  0.00000000000E+00 0.  1.
<mgrwt>
<rscale>  0 0.91269344E+02</rscale>
<asrwt>0</asrwt>
<pdfrwt beam="1">  1        4 0.11082123E-01 0.91269344E+02</pdfrwt>
<pdfrwt beam="2">  1       -4 0.44477482E-02 0.91269344E+02</pdfrwt>
<totfact> 0.26327323E+04</totfact>
</mgrwt>
</event>
<event>
 5    1  0.6222456E+000  0.6621028E+02  0.7546771E-02  0.1373476E+00
         -2   -1    0    0    0  501 -0.00000000000E+00  0.00000000000E+00  0.66989783918E+01  0.66989783918E+01  0.00000000000E+00 0.  1.
          2   -1    0    0  501    0  0.00000000000E+00 -0.00000000000E+00 -0.16359963093E+03  0.16359963093E+03  0.00000000000E+00 0. -1.
         23    2    1    2    0    0  0.00000000000E+00  0.00000000000E+00 -0.15690065254E+03  0.17029860932E+03  0.66210282963E+02 0.  0.
        -11    1    3    3    0    0  0.14733046537E+02  0.18961532655E+02 -0.13706615292E+03  0.13915362970E+03  0.00000000000E+00 0. -1.
         11    1    3    3    0    0 -0.14733046537E+02 -0.18961532655E+02 -0.19834499620E+02  0.31144979629E+02  0.00000000000E+00 0.  1.
<mgrwt>
<rscale>  0 0.66210283E+02</rscale>
<asrwt>0</asrwt>
<pdfrwt beam="2">  1        2 0.25169175E-01 0.66210283E+02</pdfrwt>
<pdfrwt beam="1">  1       -2 0.10306120E-02 0.66210283E+02</pdfrwt>
<totfact> 0.33656838E+05</totfact>
</mgrwt>
</event>
<event>
 5    1  0.6222456E+000  0.9050370E+02  0.7546771E-02  0.1301636E+00
         -4   -1    0    0    0  501 -0.00000000000E+00  0.00000000000E+00  0.20977998210E+02  0.20977998210E+02  0.00000000000E+00 0. -1.
          4   -1    0    0  501    0  0.00000000000E+00 -0.00000000000E+00 -0.97613224605E+02  0.97613224605E+02  0.00000000000E+00 0.  1.
         23    2    1    2    0    0  0.00000000000E+00  0.00000000000E+00 -0.76635226395E+02  0.11859122282E+03  0.90503702711E+02 0.  0.
        -11    1    3    3    0    0 -0.10443013448E+02 -0.25607099111E+02 -0.85251990963E+02  0.89625230922E+02  0.00000000000E+00 0.  1.
         11    1    3    3    0    0  0.10443013448E+02  0.25607099111E+02  0.86167645679E+01  0.28965991893E+02  0.00000000000E+00 0. -1.
<mgrwt>
<rscale>  0 0.90503703E+02</rscale>
<asrwt>0</asrwt>
<pdfrwt beam="2">  1        4 0.15017419E-01 0.90503703E+02</pdfrwt>
<pdfrwt beam="1">  1       -4 0.32273844E-02 0.90503703E+02</pdfrwt>
<totfact> 0.25864715E+04</totfact>
</mgrwt>
</event>
<event>
 5    1  0.6222456E+000  0.9432059E+02  0.7546771E-02  0.1292714E+00
         -2   -1    0    0    0  501 -0.00000000000E+00  0.00000000000E+00  0.77181781176E+02  0.77181781176E+02  0.00000000000E+00 0.  1.
          2   -1    0    0  501    0  0.00000000000E+00 -0.00000000000E+00 -0.28816301359E+02  0.28816301359E+02  0.00000000000E+00 0. -1.
         23    2    1    2    0    0  0.00000000000E+00  0.00000000000E+00  0.48365479817E+02  0.10599808254E+03  0.94320590876E+02 0.  0.
        -11    1    3    3    0    0 -0.35180843360E+02  0.56598287750E+01 -0.10534840140E+02  0.37157882852E+02  0.00000000000E+00 0. -1.
         11    1    3    3    0    0  0.35180843360E+02 -0.56598287750E+01  0.58900319957E+02  0.68840199683E+02  0.00000000000E+00 0.  1.
<mgrwt>
<rscale>  0 0.94320591E+02</rscale>
<asrwt>0</asrwt>
<pdfrwt beam="2">  1        2 0.44332772E-02 0.94320591E+02</pdfrwt>
<pdfrwt beam="1">  1       -2 0.11874120E-01 0.94320591E+02</pdfrwt>
<totfact> 0.79069019E+04</totfact>
</mgrwt>
</event>
