<event>
 4    1  0.3976152E+000  0.2011603E+03  0.7546771E-02  0.1148764E+00
         21   -1    0    0  503  502  0.00000000000E+00  0.00000000000E+00  0.19362828085E+03  0.19362828085E+03  0.00000000000E+00 0. -1.
         21   -1    0    0  501  503 -0.00000000000E+00 -0.00000000000E+00 -0.84773092543E+03  0.84773092543E+03  0.00000000000E+00 0. -1.
          6    1    1    2  501    0  0.57228667861E+02  0.85213493267E+02 -0.77901707642E+03  0.80457011205E+03  0.17300000000E+03 0. -1.
         -6    1    1    2    0  502 -0.57228667861E+02 -0.85213493267E+02  0.12491443184E+03  0.23678909422E+03  0.17300000000E+03 0. -1.
<mgrwt>
<rscale>  2 0.20116028E+03</rscale>
<asrwt>0</asrwt>
<pdfrwt beam="1">  1       21 0.29788967E-01 0.20116028E+03</pdfrwt>
<pdfrwt beam="2">  1       21 0.13042014E+00 0.20116028E+03</pdfrwt>
<totfact> 0.45995910E+03</totfact>
</mgrwt>
</event>
<event>
 4    1  0.3976152E+000  0.1976450E+03  0.7546771E-02  0.1151741E+00
         21   -1    0    0  503  502  0.00000000000E+00  0.00000000000E+00  0.27192584689E+03  0.27192584689E+03  0.00000000000E+00 0.  1.
         21   -1    0    0  501  503 -0.00000000000E+00 -0.00000000000E+00 -0.15029483962E+03  0.15029483962E+03  0.00000000000E+00 0. -1.
          6    1    1    2  501    0  0.66663479827E+02 -0.68487495933E+02  0.10518764275E+03  0.22389282442E+03  0.17300000000E+03 0. -1.
         -6    1    1    2    0  502 -0.66663479827E+02  0.68487495933E+02  0.16443364523E+02  0.19832786208E+03  0.17300000000E+03 0. -1.
<mgrwt>
<rscale>  2 0.19764503E+03</rscale>
<asrwt>0</asrwt>
<pdfrwt beam="1">  1       21 0.41834745E-01 0.19764503E+03</pdfrwt>
<pdfrwt beam="2">  1       21 0.23122283E-01 0.19764503E+03</pdfrwt>
<totfact> 0.96449115E+04</totfact>
</mgrwt>
</event>
<event>
 4    1  0.3976152E+000  0.1900120E+03  0.7546771E-02  0.1158451E+00
         21   -1    0    0  501  502  0.00000000000E+00  0.00000000000E+00  0.14078155431E+03  0.14078155431E+03  0.00000000000E+00 0. -1.
         21   -1    0    0  502  503 -0.00000000000E+00 -0.00000000000E+00 -0.31998053337E+03  0.31998053337E+03  0.00000000000E+00 0. -1.
          6    1    1    2  501    0 -0.26083540529E+02  0.74129670273E+02  0.13048107943E+02  0.19045947659E+03  0.17300000000E+03 0. -1.
         -6    1    1    2    0  503  0.26083540529E+02 -0.74129670273E+02 -0.19224708700E+03  0.27030261109E+03  0.17300000000E+03 0. -1.
<mgrwt>
<rscale>  2 0.19001200E+03</rscale>
<asrwt>0</asrwt>
<pdfrwt beam="1">  1       21 0.21658701E-01 0.19001200E+03</pdfrwt>
<pdfrwt beam="2">  1       21 0.49227774E-01 0.19001200E+03</pdfrwt>
<totfact> 0.78333959E+04</totfact>
</mgrwt>
</event>
<event>
 4    1  0.3976152E+000  0.1746803E+03  0.7546771E-02  0.1173053E+00
         21   -1    0    0  501  502  0.00000000000E+00  0.00000000000E+00  0.12498218287E+04  0.12498218287E+04  0.00000000000E+00 0.  1.
         21   -1    0    0  502  503 -0.00000000000E+00 -0.00000000000E+00 -0.32474247703E+02  0.32474247703E+02  0.00000000000E+00 0.  1.
          6    1    1    2  501    0  0.13689538899E+01  0.24131319175E+02  0.92809371587E+03  0.94438929475E+03  0.17300000000E+03 0.  1.
         -6    1    1    2    0  503 -0.13689538899E+01 -0.24131319175E+02  0.28925386516E+03  0.33790678169E+03  0.17300000000E+03 0.  1.
<mgrwt>
<rscale>  2 0.17468026E+03</rscale>
<asrwt>0</asrwt>
<pdfrwt beam="1">  1       21 0.19228024E+00 0.17468026E+03</pdfrwt>
<pdfrwt beam="2">  1       21 0.49960391E-02 0.17468026E+03</pdfrwt>
<totfact> 0.41081165E+04</totfact>
</mgrwt>
</event>
<event>
 4    1  0.3976152E+000  0.1784530E+03  0.7546771E-02  0.1169309E+00
         21   -1    0    0  501  502  0.00000000000E+00  0.00000000000E+00  0.71069208157E+02  0.71069208157E+02  0.00000000000E+00 0. -1.
         21   -1    0    0  502  503 -0.00000000000E+00 -0.00000000000E+00 -0.65967142569E+03  0.65967142569E+03  0.00000000000E+00 0. -1.
          6    1    1    2  501    0  0.42134560024E+01  0.43574301297E+02 -0.87378872541E+02  0.19869710695E+03  0.17300000000E+03 0. -1.
         -6    1    1    2    0  503 -0.42134560024E+01 -0.43574301297E+02 -0.50122334500E+03  0.53204352690E+03  0.17300000000E+03 0. -1.
<mgrwt>
<rscale>  2 0.17845300E+03</rscale>
<asrwt>0</asrwt>
<pdfrwt beam="1">  1       21 0.10933724E-01 0.17845300E+03</pdfrwt>
<pdfrwt beam="2">  1       21 0.10148791E+00 0.17845300E+03</pdfrwt>
<totfact> 0.55288595E+04</totfact>
</mgrwt>
</event>
<event>
 4    1  0.3976152E+000  0.1759886E+03  0.7546771E-02  0.1171743E+00
         21   -1    0    0  501  502  0.00000000000E+00  0.00000000000E+00  0.12089987378E+03  0.12089987378E+03  0.00000000000E+00 0.  1.
         21   -1    0    0  502  503 -0.00000000000E+00 -0.00000000000E+00 -0.30172897235E+03  0.30172897235E+03  0.00000000000E+00 0.  1.
          6    1    1    2  501    0  0.32222994677E+02 -0.21608120712E+01 -0.83103418920E+01  0.17618471068E+03  0.17300000000E+03 0.  1.
         -6    1    1    2    0  503 -0.32222994677E+02  0.21608120712E+01 -0.17251875668E+03  0.24644413546E+03  0.17300000000E+03 0.  1.
<mgrwt>
<rscale>  2 0.17598861E+03</rscale>
<asrwt>0</asrwt>
<pdfrwt beam="1">  1       21 0.18599981E-01 0.17598861E+03</pdfrwt>
<pdfrwt beam="2">  1       21 0.46419842E-01 0.17598861E+03</pdfrwt>
<totfact> 0.11815330E+05</totfact>
</mgrwt>
</event>
<event>
 4    1  0.3976152E+000  0.1993806E+03  0.7546771E-02  0.1150263E+00
         21   -1    0    0  501  502  0.00000000000E+00  0.00000000000E+00  0.21907409474E+03  0.21907409474E+03  0.00000000000E+00 0. -1.
         21   -1    0    0  502  503 -0.00000000000E+00 -0.00000000000E+00 -0.73098153295E+03  0.73098153295E+03  0.00000000000E+00 0.  1.
          6    1    1    2  501    0 -0.16597880998E+02  0.97714592779E+02  0.15591536419E+03  0.25310517989E+03  0.17300000000E+03 0. -1.
         -6    1    1    2    0  503  0.16597880998E+02 -0.97714592779E+02 -0.66782280239E+03  0.69695044780E+03  0.17300000000E+03 0.  1.
<mgrwt>
<rscale>  2 0.19938062E+03</rscale>
<asrwt>0</asrwt>
<pdfrwt beam="1">  1       21 0.33703707E-01 0.19938062E+03</pdfrwt>
<pdfrwt beam="2">  1       21 0.11245870E+00 0.19938062E+03</pdfrwt>
<totfact> 0.52212982E+03</totfact>
</mgrwt>
</event>
<event>
 4    1  0.3976152E+000  0.2067579E+03  0.7546771E-02  0.1144159E+00
         21   -1    0    0  503  502  0.00000000000E+00  0.00000000000E+00  0.80733876534E+02  0.80733876534E+02  0.00000000000E+00 0.  1.
         21   -1    0    0  501  503 -0.00000000000E+00 -0.00000000000E+00 -0.53360283837E+03  0.53360283837E+03  0.00000000000E+00 0. -1.
          6    1    1    2  501    0 -0.37681715038E+02 -0.10677044073E+03 -0.25335881564E+03  0.32701609765E+03  0.17300000000E+03 0.  1.
         -6    1    1    2    0  502  0.37681715038E+02  0.10677044073E+03 -0.19951014620E+03  0.28732061725E+03  0.17300000000E+03 0.  1.
<mgrwt>
<rscale>  2 0.20675792E+03</rscale>
<asrwt>0</asrwt>
<pdfrwt beam="1">  1       21 0.12420596E-01 0.20675792E+03</pdfrwt>
<pdfrwt beam="2">  1       21 0.82092744E-01 0.20675792E+03</pdfrwt>
<totfact> 0.71105924E+04</totfact>
</mgrwt>
</event>
<event>
 4    1  0.3976152E+000  0.1961035E+03  0.7546771E-02  0.1153069E+00
         21   -1    0    0  501  502  0.00000000000E+00  0.00000000000E+00  0.13912902028E+04  0.13912902028E+04  0.00000000000E+00 0. -1.
         21   -1    0    0  502  503 -0.00000000000E+00 -0.00000000000E+00 -0.78442325804E+02  0.78442325804E+02  0.00000000000E+00 0. -1.
          6    1    1    2  501    0  0.54063391863E+02 -0.74864855651E+02  0.12478095767E+04  0.12631252261E+04  0.17300000000E+03 0. -1.
         -6    1    1    2    0  503 -0.54063391863E+02  0.74864855651E+02  0.65038300236E+02  0.20660730251E+03  0.17300000000E+03 0. -1.
<mgrwt>
<rscale>  2 0.19610354E+03</rscale>
<asrwt>0</asrwt>
<pdfrwt beam="1">  1       21 0.21404463E+00 0.19610354E+03</pdfrwt>
<pdfrwt beam="2">  1       21 0.12068051E-01 0.19610354E+03</pdfrwt>
<totfact> 0.63400058E+03</totfact>
</mgrwt>
</event>
<event>
 4    1  0.3976152E+000  0.1849819E+03  0.7546771E-02  0.1163067E+00
         21   -1    0    0  501  502  0.00000000000E+00  0.00000000000E+00  0.25775666927E+03  0.25775666927E+03  0.00000000000E+00 0.  1.
         21   -1    0    0  502  503 -0.00000000000E+00 -0.00000000000E+00 -0.16359265278E+03  0.16359265278E+03  0.00000000000E+00 0.  1.
          6    1    1    2  501    0 -0.60351430861E+02 -0.25436258074E+02  0.13855148710E+03  0.23111644902E+03  0.17300000000E+03 0.  1.
         -6    1    1    2    0  503  0.60351430861E+02  0.25436258074E+02 -0.44387470606E+02  0.19023287302E+03  0.17300000000E+03 0.  1.
<mgrwt>
<rscale>  2 0.18498189E+03</rscale>
<asrwt>0</asrwt>
<pdfrwt beam="1">  1       21 0.39654872E-01 0.18498189E+03</pdfrwt>
<pdfrwt beam="2">  1       21 0.25168100E-01 0.18498189E+03</pdfrwt>
<totfact> 0.91938253E+04</totfact>
</mgrwt>
</event>
<event>
 4    1  0.3976152E+000  0.2192400E+03  0.7546771E-02  0.1134451E+00
         21   -1    0    0  503  502  0.00000000000E+00  0.00000000000E+00  0.10074774886E+04  0.10074774886E+04  0.00000000000E+00 0. -1.
         21   -1    0    0  501  503 -0.00000000000E+00 -0.00000000000E+00 -0.57663528209E+02  0.57663528209E+02  0.00000000000E+00 0.  1.
          6    1    1    2  501    0 -0.65248895496E+02 -0.11781246137E+03  0.25363466251E+03  0.33525622506E+03  0.17300000000E+03 0.  1.
         -6    1    1    2    0  502  0.65248895496E+02  0.11781246137E+03  0.69617929787E+03  0.72988479174E+03  0.17300000000E+03 0. -1.
<mgrwt>
<rscale>  2 0.21924004E+03</rscale>
<asrwt>0</asrwt>
<pdfrwt beam="1">  1       21 0.15499652E+00 0.21924004E+03</pdfrwt>
<pdfrwt beam="2">  1       21 0.88713128E-02 0.21924004E+03</pdfrwt>
<totfact> 0.27004551E+04</totfact>
</mgrwt>
</event>
<event>
 4    1  0.3976152E+000  0.1876884E+03  0.7546771E-02  0.1160563E+00
         21   -1    0    0  503  502  0.00000000000E+00  0.00000000000E+00  0.68711242370E+03  0.68711242370E+03  0.00000000000E+00 0.  1.
         21   -1    0    0  501  503 -0.00000000000E+00 -0.00000000000E+00 -0.94404283236E+02  0.94404283236E+02  0.00000000000E+00 0.  1.
          6    1    1    2  501    0  0.51050257287E+02 -0.51882798665E+02  0.32214637061E+02  0.19043302342E+03  0.17300000000E+03 0.  1.
         -6    1    1    2    0  502 -0.51050257287E+02  0.51882798665E+02  0.56049350340E+03  0.59108368352E+03  0.17300000000E+03 0.  1.
<mgrwt>
<rscale>  2 0.18768845E+03</rscale>
<asrwt>0</asrwt>
<pdfrwt beam="1">  1       21 0.10570960E+00 0.18768845E+03</pdfrwt>
<pdfrwt beam="2">  1       21 0.14523736E-01 0.18768845E+03</pdfrwt>
<totfact> 0.29989198E+04</totfact>
</mgrwt>
</event>
<event>
 4    1  0.3976152E+000  0.2144980E+03  0.7546771E-02  0.1138053E+00
         21   -1    0    0  501  502  0.00000000000E+00  0.00000000000E+00  0.66787969150E+03  0.66787969150E+03  0.00000000000E+00 0. -1.
         21   -1    0    0  502  503 -0.00000000000E+00 -0.00000000000E+00 -0.21648447899E+03  0.21648447899E+03  0.00000000000E+00 0. -1.
          6    1    1    2  501    0  0.17248130709E+01  0.12679673911E+03  0.59080840340E+03  0.62854113434E+03  0.17300000000E+03 0. -1.
         -6    1    1    2    0  503 -0.17248130709E+01 -0.12679673911E+03 -0.13941319089E+03  0.25582303615E+03  0.17300000000E+03 0. -1.
<mgrwt>
<rscale>  2 0.21449799E+03</rscale>
<asrwt>0</asrwt>
<pdfrwt beam="1">  1       21 0.10275072E+00 0.21449799E+03</pdfrwt>
<pdfrwt beam="2">  1       21 0.33305305E-01 0.21449799E+03</pdfrwt>
<totfact> 0.65732285E+03</totfact>
</mgrwt>
</event>
<event>
 4    1  0.3976152E+000  0.2194027E+03  0.7546771E-02  0.1134329E+00
         21   -1    0    0  501  502  0.00000000000E+00  0.00000000000E+00  0.18741114961E+03  0.18741114961E+03  0.00000000000E+00 0.  1.
         21   -1    0    0  502  503 -0.00000000000E+00 -0.00000000000E+00 -0.32100223955E+03  0.32100223955E+03  0.00000000000E+00 0. -1.
          6    1    1    2  501    0 -0.11972631004E+03  0.62242637694E+02  0.46841815092E+02  0.22434725517E+03  0.17300000000E+03 0.  1.
         -6    1    1    2    0  503  0.11972631004E+03 -0.62242637694E+02 -0.18043290503E+03  0.28406613399E+03  0.17300000000E+03 0. -1.
<mgrwt>
<rscale>  2 0.21940268E+03</rscale>
<asrwt>0</asrwt>
<pdfrwt beam="1">  1       21 0.28832485E-01 0.21940268E+03</pdfrwt>
<pdfrwt beam="2">  1       21 0.49384959E-01 0.21940268E+03</pdfrwt>
<totfact> 0.44424138E+04</totfact>
</mgrwt>
</event>
<event>
 4    1  0.3976152E+000  0.1848347E+03  0.7546771E-02  0.1163204E+00
         21   -1    0    0  503  502  0.00000000000E+00  0.00000000000E+00  0.16453781604E+03  0.16453781604E+03  0.00000000000E+00 0. -1.
         21   -1    0    0  501  503 -0.00000000000E+00 -0.00000000000E+00 -0.72493046755E+03  0.72493046755E+03  0.00000000000E+00 0. -1.
          6    1    1    2  501    0 -0.42812176637E+02 -0.49010025951E+02 -0.65587927902E+03  0.68142607358E+03  0.17300000000E+03 0. -1.
         -6    1    1    2    0  502  0.42812176637E+02  0.49010025951E+02  0.95486627513E+02  0.20804221001E+03  0.17300000000E+03 0. -1.
<mgrwt>
<rscale>  2 0.18483470E+03</rscale>
<asrwt>0</asrwt>
<pdfrwt beam="1">  1       21 0.25313510E-01 0.18483470E+03</pdfrwt>
<pdfrwt beam="2">  1       21 0.11152776E+00 0.18483470E+03</pdfrwt>
<totfact> 0.93952227E+03</totfact>
</mgrwt>
</event>
<event>
 4    1  0.3976152E+000  0.2220405E+03  0.7546771E-02  0.1132371E+00
         21   -1    0    0  503  502  0.00000000000E+00  0.00000000000E+00  0.27511444555E+04  0.27511444555E+04  0.00000000000E+00 0.  1.
         21   -1    0    0  501  503 -0.00000000000E+00 -0.00000000000E+00 -0.55035170062E+02  0.55035170062E+02  0.00000000000E+00 0.  1.
          6    1    1    2  501    0 -0.20975083602E+02  0.13759736774E+03  0.19582805422E+03  0.29605846815E+03  0.17300000000E+03 0.  1.
         -6    1    1    2    0  502  0.20975083602E+02 -0.13759736774E+03  0.25002812312E+04  0.25101211574E+04  0.17300000000E+03 0.  1.
<mgrwt>
<rscale>  2 0.22204051E+03</rscale>
<asrwt>0</asrwt>
<pdfrwt beam="1">  1       21 0.42325289E+00 0.22204051E+03</pdfrwt>
<pdfrwt beam="2">  1       21 0.84669514E-02 0.22204051E+03</pdfrwt>
<totfact> 0.64604135E+02</totfact>
</mgrwt>
</event>
<event>
 4    1  0.3976152E+000  0.2660676E+03  0.7546771E-02  0.1103552E+00
         21   -1    0    0  501  502  0.00000000000E+00  0.00000000000E+00  0.76528621454E+03  0.76528621454E+03  0.00000000000E+00 0. -1.
         21   -1    0    0  502  503 -0.00000000000E+00 -0.00000000000E+00 -0.13005589779E+03  0.13005589779E+03  0.00000000000E+00 0.  1.
          6    1    1    2  501    0  0.11371389926E+03  0.16712905872E+03  0.55816795511E+03  0.61833925904E+03  0.17300000000E+03 0. -1.
         -6    1    1    2    0  503 -0.11371389926E+03 -0.16712905872E+03  0.77062361635E+02  0.27700285329E+03  0.17300000000E+03 0.  1.
<mgrwt>
<rscale>  2 0.26606761E+03</rscale>
<asrwt>0</asrwt>
<pdfrwt beam="1">  1       21 0.11773634E+00 0.26606761E+03</pdfrwt>
<pdfrwt beam="2">  1       21 0.20008600E-01 0.26606761E+03</pdfrwt>
<totfact> 0.12209288E+04</totfact>
</mgrwt>
</event>
<event>
 4    1  0.3976152E+000  0.1934324E+03  0.7546771E-02  0.1155401E+00
         21   -1    0    0  503  502  0.00000000000E+00  0.00000000000E+00  0.18332207563E+03  0.18332207563E+03  0.00000000000E+00 0. -1.
         21   -1    0    0  501  503 -0.00000000000E+00 -0.00000000000E+00 -0.25298248467E+03  0.25298248467E+03  0.00000000000E+00 0. -1.
          6    1    1    2  501    0  0.38615912357E+02 -0.77433242728E+02 -0.13072382352E+03  0.23346266040E+03  0.17300000000E+03 0. -1.
         -6    1    1    2    0  502 -0.38615912357E+02  0.77433242728E+02  0.61063414480E+02  0.20284189990E+03  0.17300000000E+03 0. -1.
<mgrwt>
<rscale>  2 0.19343241E+03</rscale>
<asrwt>0</asrwt>
<pdfrwt beam="1">  1       21 0.28203396E-01 0.19343241E+03</pdfrwt>
<pdfrwt beam="2">  1       21 0.38920382E-01 0.19343241E+03</pdfrwt>
<totfact> 0.76451466E+04</totfact>
</mgrwt>
</event>
<event>
 4    1  0.3976152E+000  0.2306518E+03  0.7546771E-02  0.1126182E+00
         21   -1    0    0  503  502  0.00000000000E+00  0.00000000000E+00  0.28136854795E+03  0.28136854795E+03  0.00000000000E+00 0.  1.
         21   -1    0    0  501  503 -0.00000000000E+00 -0.00000000000E+00 -0.31418966708E+03  0.31418966708E+03  0.00000000000E+00 0. -1.
          6    1    1    2  501    0  0.23400133942E+02 -0.15074372254E+03 -0.20432036333E+03  0.30813478711E+03  0.17300000000E+03 0. -1.
         -6    1    1    2    0  502 -0.23400133942E+02  0.15074372254E+03  0.17149924421E+03  0.28742342792E+03  0.17300000000E+03 0.  1.
<mgrwt>
<rscale>  2 0.23065176E+03</rscale>
<asrwt>0</asrwt>
<pdfrwt beam="1">  1       21 0.43287469E-01 0.23065176E+03</pdfrwt>
<pdfrwt beam="2">  1       21 0.48336871E-01 0.23065176E+03</pdfrwt>
<totfact> 0.20528220E+04</totfact>
</mgrwt>
</event>
<event>
 4    1  0.3976152E+000  0.3356977E+03  0.7546771E-02  0.1068643E+00
         21   -1    0    0  503  502  0.00000000000E+00  0.00000000000E+00  0.58985660819E+03  0.58985660819E+03  0.00000000000E+00 0. -1.
         21   -1    0    0  501  503 -0.00000000000E+00 -0.00000000000E+00 -0.26526245316E+03  0.26526245316E+03  0.00000000000E+00 0.  1.
          6    1    1    2  501    0  0.11531722995E+03  0.26356379377E+03 -0.63851035306E+02  0.34171609798E+03  0.17300000000E+03 0.  1.
         -6    1    1    2    0  502 -0.11531722995E+03 -0.26356379377E+03  0.38844519033E+03  0.51340296338E+03  0.17300000000E+03 0. -1.
<mgrwt>
<rscale>  2 0.33569769E+03</rscale>
<asrwt>0</asrwt>
<pdfrwt beam="1">  1       21 0.90747170E-01 0.33569769E+03</pdfrwt>
<pdfrwt beam="2">  1       21 0.40809608E-01 0.33569769E+03</pdfrwt>
<totfact> 0.54788860E+03</totfact>
</mgrwt>
</event>
<event>
 4    1  0.3976152E+000  0.1895235E+03  0.7546771E-02  0.1158892E+00
         21   -1    0    0  501  502  0.00000000000E+00  0.00000000000E+00  0.22506759044E+03  0.22506759044E+03  0.00000000000E+00 0. -1.
         21   -1    0    0  502  503 -0.00000000000E+00 -0.00000000000E+00 -0.24442797941E+03  0.24442797941E+03  0.00000000000E+00 0. -1.
          6    1    1    2  501    0  0.42899591555E+02 -0.64418675011E+02  0.12861730714E+03  0.22904486972E+03  0.17300000000E+03 0. -1.
         -6    1    1    2    0  503 -0.42899591555E+02  0.64418675011E+02 -0.14797769612E+03  0.24045070013E+03  0.17300000000E+03 0. -1.
<mgrwt>
<rscale>  2 0.18952346E+03</rscale>
<asrwt>0</asrwt>
<pdfrwt beam="1">  1       21 0.34625783E-01 0.18952346E+03</pdfrwt>
<pdfrwt beam="2">  1       21 0.37604304E-01 0.18952346E+03</pdfrwt>
<totfact> 0.54906541E+04</totfact>
</mgrwt>
</event>
<event>
 4    1  0.3976152E+000  0.2082810E+03  0.7546771E-02  0.1142934E+00
         21   -1    0    0  503  502  0.00000000000E+00  0.00000000000E+00  0.66533648362E+02  0.66533648362E+02  0.00000000000E+00 0.  1.
         21   -1    0    0  501  503 -0.00000000000E+00 -0.00000000000E+00 -0.84783268654E+03  0.84783268654E+03  0.00000000000E+00 0. -1.
          6    1    1    2  501    0 -0.53898923169E+02 -0.10269809052E+03 -0.61036476609E+03  0.64492335932E+03  0.17300000000E+03 0. -1.
         -6    1    1    2    0  502  0.53898923169E+02  0.10269809052E+03 -0.17093427209E+03  0.26944297558E+03  0.17300000000E+03 0.  1.
<mgrwt>
<rscale>  2 0.20828104E+03</rscale>
<asrwt>0</asrwt>
<pdfrwt beam="1">  1       21 0.10235946E-01 0.20828104E+03</pdfrwt>
<pdfrwt beam="2">  1       21 0.13043580E+00 0.20828104E+03</pdfrwt>
<totfact> 0.33071035E+04</totfact>
</mgrwt>
</event>
<event>
 4    1  0.3976152E+000  0.2536054E+03  0.7546771E-02  0.1111047E+00
         21   -1    0    0  501  502  0.00000000000E+00  0.00000000000E+00  0.70412775964E+02  0.70412775964E+02  0.00000000000E+00 0. -1.
         21   -1    0    0  502  503 -0.00000000000E+00 -0.00000000000E+00 -0.92605894306E+03  0.92605894306E+03  0.00000000000E+00 0.  1.
          6    1    1    2  501    0 -0.85586462229E+02  0.16450422447E+03 -0.36959194331E+03  0.44823418761E+03  0.17300000000E+03 0. -1.
         -6    1    1    2    0  503  0.85586462229E+02 -0.16450422447E+03 -0.48605422379E+03  0.54823753142E+03  0.17300000000E+03 0. -1.
<mgrwt>
<rscale>  2 0.25360537E+03</rscale>
<asrwt>0</asrwt>
<pdfrwt beam="1">  1       21 0.10832735E-01 0.25360537E+03</pdfrwt>
<pdfrwt beam="2">  1       21 0.14247060E+00 0.25360537E+03</pdfrwt>
<totfact> 0.23244255E+04</totfact>
</mgrwt>
</event>
<event>
 4    1  0.3976152E+000  0.2971626E+03  0.7546771E-02  0.1086668E+00
         21   -1    0    0  501  502  0.00000000000E+00  0.00000000000E+00  0.56098670945E+03  0.56098670945E+03  0.00000000000E+00 0. -1.
         21   -1    0    0  502  503 -0.00000000000E+00 -0.00000000000E+00 -0.16274299466E+03  0.16274299466E+03  0.00000000000E+00 0. -1.
          6    1    1    2  501    0 -0.65512088940E+01  0.24152370250E+03  0.13362355199E+03  0.32582337371E+03  0.17300000000E+03 0. -1.
         -6    1    1    2    0  503  0.65512088940E+01 -0.24152370250E+03  0.26462016280E+03  0.39790633040E+03  0.17300000000E+03 0. -1.
<mgrwt>
<rscale>  2 0.29716261E+03</rscale>
<asrwt>0</asrwt>
<pdfrwt beam="1">  1       21 0.86305647E-01 0.29716261E+03</pdfrwt>
<pdfrwt beam="2">  1       21 0.25037384E-01 0.29716261E+03</pdfrwt>
<totfact> 0.16546435E+04</totfact>
</mgrwt>
</event>
<event>
 4    1  0.3976152E+000  0.1741861E+03  0.7546771E-02  0.1173551E+00
         21   -1    0    0  501  502  0.00000000000E+00  0.00000000000E+00  0.12508762963E+04  0.12508762963E+04  0.00000000000E+00 0.  1.
         21   -1    0    0  502  503 -0.00000000000E+00 -0.00000000000E+00 -0.81032749396E+02  0.81032749396E+02  0.00000000000E+00 0.  1.
          6    1    1    2  501    0 -0.13528857669E+02  0.15125050466E+02  0.11423653932E+04  0.11555689026E+04  0.17300000000E+03 0.  1.
         -6    1    1    2    0  503  0.13528857669E+02 -0.15125050466E+02  0.27478153755E+02  0.17634014312E+03  0.17300000000E+03 0.  1.
<mgrwt>
<rscale>  2 0.17418610E+03</rscale>
<asrwt>0</asrwt>
<pdfrwt beam="1">  1       21 0.19244249E+00 0.17418610E+03</pdfrwt>
<pdfrwt beam="2">  1       21 0.12466578E-01 0.17418610E+03</pdfrwt>
<totfact> 0.83728004E+03</totfact>
</mgrwt>
</event>
<event>
 4    1  0.3976152E+000  0.1782775E+03  0.7546771E-02  0.1169481E+00
         21   -1    0    0  501  502  0.00000000000E+00  0.00000000000E+00  0.44009302702E+03  0.44009302702E+03  0.00000000000E+00 0. -1.
         21   -1    0    0  502  503 -0.00000000000E+00 -0.00000000000E+00 -0.78776419795E+02  0.78776419795E+02  0.00000000000E+00 0.  1.
          6    1    1    2  501    0 -0.22009912189E+02  0.37005622696E+02  0.25551203931E+03  0.31155939173E+03  0.17300000000E+03 0. -1.
         -6    1    1    2    0  503  0.22009912189E+02 -0.37005622696E+02  0.10580456792E+03  0.20731005508E+03  0.17300000000E+03 0.  1.
<mgrwt>
<rscale>  2 0.17827746E+03</rscale>
<asrwt>0</asrwt>
<pdfrwt beam="1">  1       21 0.67706618E-01 0.17827746E+03</pdfrwt>
<pdfrwt beam="2">  1       21 0.12119449E-01 0.17827746E+03</pdfrwt>
<totfact> 0.11554949E+05</totfact>
</mgrwt>
</event>
<event>
 4    1  0.3976152E+000  0.1844910E+03  0.7546771E-02  0.1163526E+00
         21   -1    0    0  501  502  0.00000000000E+00  0.00000000000E+00  0.27598901542E+03  0.27598901542E+03  0.00000000000E+00 0.  1.
         21   -1    0    0  502  503 -0.00000000000E+00 -0.00000000000E+00 -0.47945433449E+03  0.47945433449E+03  0.00000000000E+00 0.  1.
          6    1    1    2  501    0  0.56428326702E+02  0.30393817180E+02  0.22380470415E+03  0.29004393766E+03  0.17300000000E+03 0.  1.
         -6    1    1    2    0  503 -0.56428326702E+02 -0.30393817180E+02 -0.42727002321E+03  0.46539941224E+03  0.17300000000E+03 0.  1.
<mgrwt>
<rscale>  2 0.18449103E+03</rscale>
<asrwt>0</asrwt>
<pdfrwt beam="1">  1       21 0.42459849E-01 0.18449103E+03</pdfrwt>
<pdfrwt beam="2">  1       21 0.73762205E-01 0.18449103E+03</pdfrwt>
<totfact> 0.88565359E+03</totfact>
</mgrwt>
</event>
<event>
 4    1  0.3976152E+000  0.1934149E+03  0.7546771E-02  0.1155417E+00
         21   -1    0    0  503  502  0.00000000000E+00  0.00000000000E+00  0.52684203891E+03  0.52684203891E+03  0.00000000000E+00 0. -1.
         21   -1    0    0  501  503 -0.00000000000E+00 -0.00000000000E+00 -0.12881178003E+03  0.12881178003E+03  0.00000000000E+00 0.  1.
          6    1    1    2  501    0 -0.59764886082E+02  0.62517807274E+02 -0.20593695916E+02  0.19450814416E+03  0.17300000000E+03 0.  1.
         -6    1    1    2    0  502  0.59764886082E+02 -0.62517807274E+02  0.41862395479E+03  0.46114567477E+03  0.17300000000E+03 0. -1.
<mgrwt>
<rscale>  2 0.19341489E+03</rscale>
<asrwt>0</asrwt>
<pdfrwt beam="1">  1       21 0.81052621E-01 0.19341489E+03</pdfrwt>
<pdfrwt beam="2">  1       21 0.19817197E-01 0.19341489E+03</pdfrwt>
<totfact> 0.31343842E+04</totfact>
</mgrwt>
</event>
<event>
 4    1  0.3976152E+000  0.1954595E+03  0.7546771E-02  0.1153627E+00
         21   -1    0    0  501  502  0.00000000000E+00  0.00000000000E+00  0.32897812644E+03  0.32897812644E+03  0.00000000000E+00 0. -1.
         21   -1    0    0  502  503 -0.00000000000E+00 -0.00000000000E+00 -0.28825970847E+03  0.28825970847E+03  0.00000000000E+00 0. -1.
          6    1    1    2  501    0  0.90745841552E+02  0.63714360159E+01  0.25884242778E+03  0.32435136098E+03  0.17300000000E+03 0. -1.
         -6    1    1    2    0  503 -0.90745841552E+02 -0.63714360159E+01 -0.21812400980E+03  0.29288647392E+03  0.17300000000E+03 0. -1.
<mgrwt>
<rscale>  2 0.19545947E+03</rscale>
<asrwt>0</asrwt>
<pdfrwt beam="1">  1       21 0.50612020E-01 0.19545947E+03</pdfrwt>
<pdfrwt beam="2">  1       21 0.44347647E-01 0.19545947E+03</pdfrwt>
<totfact> 0.18108270E+04</totfact>
</mgrwt>
</event>
<event>
 4    1  0.3976152E+000  0.3783178E+03  0.7546771E-02  0.1051557E+00
         21   -1    0    0  501  502  0.00000000000E+00  0.00000000000E+00  0.90944908171E+03  0.90944908171E+03  0.00000000000E+00 0. -1.
         21   -1    0    0  502  503 -0.00000000000E+00 -0.00000000000E+00 -0.15757745613E+03  0.15757745613E+03  0.00000000000E+00 0. -1.
          6    1    1    2  501    0 -0.29413978165E+03  0.16333136063E+03  0.39506977703E+03  0.54699586217E+03  0.17300000000E+03 0. -1.
         -6    1    1    2    0  503  0.29413978165E+03 -0.16333136063E+03  0.35680184855E+03  0.52003067567E+03  0.17300000000E+03 0. -1.
<mgrwt>
<rscale>  2 0.37831778E+03</rscale>
<asrwt>0</asrwt>
<pdfrwt beam="1">  1       21 0.13991524E+00 0.37831778E+03</pdfrwt>
<pdfrwt beam="2">  1       21 0.24242686E-01 0.37831778E+03</pdfrwt>
<totfact> 0.51649242E+03</totfact>
</mgrwt>
</event>
<event>
 4    1  0.3976152E+000  0.2194569E+03  0.7546771E-02  0.1134289E+00
         21   -1    0    0  503  502  0.00000000000E+00  0.00000000000E+00  0.67498321074E+03  0.67498321074E+03  0.00000000000E+00 0.  1.
         21   -1    0    0  501  503 -0.00000000000E+00 -0.00000000000E+00 -0.71485201984E+02  0.71485201984E+02  0.00000000000E+00 0.  1.
          6    1    1    2  501    0 -0.64363301900E+02  0.11870000469E+03  0.28563093833E+03  0.36020321858E+03  0.17300000000E+03 0.  1.
         -6    1    1    2    0  502  0.64363301900E+02 -0.11870000469E+03  0.31786707043E+03  0.38626519415E+03  0.17300000000E+03 0.  1.
<mgrwt>
<rscale>  2 0.21945689E+03</rscale>
<asrwt>0</asrwt>
<pdfrwt beam="1">  1       21 0.10384357E+00 0.21945689E+03</pdfrwt>
<pdfrwt beam="2">  1       21 0.10997724E-01 0.21945689E+03</pdfrwt>
<totfact> 0.50752471E+04</totfact>
</mgrwt>
</event>
<event>
 4    1  0.3976152E+000  0.2242958E+03  0.7546771E-02  0.1130720E+00
         21   -1    0    0  503  502  0.00000000000E+00  0.00000000000E+00  0.75313093563E+02  0.75313093563E+02  0.00000000000E+00 0.  1.
         21   -1    0    0  501  503 -0.00000000000E+00 -0.00000000000E+00 -0.86949528493E+03  0.86949528493E+03  0.00000000000E+00 0.  1.
          6    1    1    2  501    0  0.14032823189E+03  0.26221969601E+02 -0.62450673420E+03  0.66356406278E+03  0.17300000000E+03 0.  1.
         -6    1    1    2    0  502 -0.14032823189E+03 -0.26221969601E+02 -0.16967545716E+03  0.28124431571E+03  0.17300000000E+03 0.  1.
<mgrwt>
<rscale>  2 0.22429580E+03</rscale>
<asrwt>0</asrwt>
<pdfrwt beam="1">  1       21 0.11586630E-01 0.22429580E+03</pdfrwt>
<pdfrwt beam="2">  1       21 0.13376851E+00 0.22429580E+03</pdfrwt>
<totfact> 0.24645046E+04</totfact>
</mgrwt>
</event>
<event>
 4    1  0.3976152E+000  0.1896220E+03  0.7546771E-02  0.1158803E+00
         21   -1    0    0  501  502  0.00000000000E+00  0.00000000000E+00  0.23725856512E+02  0.23725856512E+02  0.00000000000E+00 0.  1.
         21   -1    0    0  502  503 -0.00000000000E+00 -0.00000000000E+00 -0.23627345752E+04  0.23627345752E+04  0.00000000000E+00 0.  1.
          6    1    1    2  501    0 -0.12448599458E+02 -0.76632361888E+02 -0.45497654522E+03  0.49290987332E+03  0.17300000000E+03 0.  1.
         -6    1    1    2    0  503  0.12448599458E+02  0.76632361888E+02 -0.18840321735E+04  0.18935505584E+04  0.17300000000E+03 0.  1.
<mgrwt>
<rscale>  2 0.18962196E+03</rscale>
<asrwt>0</asrwt>
<pdfrwt beam="1">  1       21 0.36501327E-02 0.18962196E+03</pdfrwt>
<pdfrwt beam="2">  1       21 0.36349754E+00 0.18962196E+03</pdfrwt>
<totfact> 0.66660364E+03</totfact>
</mgrwt>
</event>
<event>
 4    1  0.3976152E+000  0.1755811E+03  0.7546771E-02  0.1172149E+00
         21   -1    0    0  503  502  0.00000000000E+00  0.00000000000E+00  0.16580762781E+03  0.16580762781E+03  0.00000000000E+00 0. -1.
         21   -1    0    0  501  503 -0.00000000000E+00 -0.00000000000E+00 -0.20520273516E+03  0.20520273516E+03  0.00000000000E+00 0. -1.
          6    1    1    2  501    0  0.90404060206E+01  0.28600696848E+02 -0.76547260332E+02  0.19154167136E+03  0.17300000000E+03 0. -1.
         -6    1    1    2    0  502 -0.90404060206E+01 -0.28600696848E+02  0.37152152984E+02  0.17946869162E+03  0.17300000000E+03 0. -1.
<mgrwt>
<rscale>  2 0.17558112E+03</rscale>
<asrwt>0</asrwt>
<pdfrwt beam="1">  1       21 0.25508866E-01 0.17558112E+03</pdfrwt>
<pdfrwt beam="2">  1       21 0.31569652E-01 0.17558112E+03</pdfrwt>
<totfact> 0.14137090E+05</totfact>
</mgrwt>
</event>
<event>
 4    1  0.3976152E+000  0.1818929E+03  0.7546771E-02  0.1165984E+00
         21   -1    0    0  501  502  0.00000000000E+00  0.00000000000E+00  0.23361884120E+03  0.23361884120E+03  0.00000000000E+00 0. -1.
         21   -1    0    0  502  503 -0.00000000000E+00 -0.00000000000E+00 -0.23892553136E+03  0.23892553136E+03  0.00000000000E+00 0. -1.
          6    1    1    2  501    0 -0.12109896280E+02 -0.54857825596E+02  0.14812908887E+03  0.23457889416E+03  0.17300000000E+03 0. -1.
         -6    1    1    2    0  503  0.12109896280E+02  0.54857825596E+02 -0.15343577904E+03  0.23796547839E+03  0.17300000000E+03 0. -1.
<mgrwt>
<rscale>  2 0.18189291E+03</rscale>
<asrwt>0</asrwt>
<pdfrwt beam="1">  1       21 0.35941360E-01 0.18189291E+03</pdfrwt>
<pdfrwt beam="2">  1       21 0.36757774E-01 0.18189291E+03</pdfrwt>
<totfact> 0.53547697E+04</totfact>
</mgrwt>
</event>
<event>
 4    1  0.3976152E+000  0.2064783E+03  0.7546771E-02  0.1144385E+00
         21   -1    0    0  503  502  0.00000000000E+00  0.00000000000E+00  0.76901393230E+03  0.76901393230E+03  0.00000000000E+00 0.  1.
         21   -1    0    0  501  503 -0.00000000000E+00 -0.00000000000E+00 -0.18204865986E+03  0.18204865986E+03  0.00000000000E+00 0.  1.
          6    1    1    2  501    0  0.10920277774E+03  0.27911682141E+02 -0.10308649359E+03  0.23078157168E+03  0.17300000000E+03 0.  1.
         -6    1    1    2    0  502 -0.10920277774E+03 -0.27911682141E+02  0.69005176603E+03  0.72028102048E+03  0.17300000000E+03 0.  1.
<mgrwt>
<rscale>  2 0.20647835E+03</rscale>
<asrwt>0</asrwt>
<pdfrwt beam="1">  1       21 0.11830983E+00 0.20647835E+03</pdfrwt>
<pdfrwt beam="2">  1       21 0.28007486E-01 0.20647835E+03</pdfrwt>
<totfact> 0.65905388E+03</totfact>
</mgrwt>
</event>
<event>
 4    1  0.3976152E+000  0.1923942E+03  0.7546771E-02  0.1156320E+00
         21   -1    0    0  503  502  0.00000000000E+00  0.00000000000E+00  0.28958648645E+03  0.28958648645E+03  0.00000000000E+00 0.  1.
         21   -1    0    0  501  503 -0.00000000000E+00 -0.00000000000E+00 -0.15306971934E+03  0.15306971934E+03  0.00000000000E+00 0.  1.
          6    1    1    2  501    0 -0.64334952433E+02 -0.54291187009E+02 -0.21629910336E+02  0.19360622953E+03  0.17300000000E+03 0.  1.
         -6    1    1    2    0  502  0.64334952433E+02  0.54291187009E+02  0.15814667744E+03  0.24904997626E+03  0.17300000000E+03 0.  1.
<mgrwt>
<rscale>  2 0.19239418E+03</rscale>
<asrwt>0</asrwt>
<pdfrwt beam="1">  1       21 0.44551767E-01 0.19239418E+03</pdfrwt>
<pdfrwt beam="2">  1       21 0.23549188E-01 0.19239418E+03</pdfrwt>
<totfact> 0.82107956E+04</totfact>
</mgrwt>
</event>
<event>
 4    1  0.3976152E+000  0.2100746E+03  0.7546771E-02  0.1141507E+00
         21   -1    0    0  501  502  0.00000000000E+00  0.00000000000E+00  0.35689911123E+04  0.35689911123E+04  0.00000000000E+00 0.  1.
         21   -1    0    0  502  503 -0.00000000000E+00 -0.00000000000E+00 -0.62747509250E+02  0.62747509250E+02  0.00000000000E+00 0.  1.
          6    1    1    2  501    0 -0.11292037285E+03 -0.38096170711E+02  0.33802633309E+04  0.33867848345E+04  0.17300000000E+03 0.  1.
         -6    1    1    2    0  503  0.11292037285E+03  0.38096170711E+02  0.12598027215E+03  0.24495378707E+03  0.17300000000E+03 0.  1.
<mgrwt>
<rscale>  2 0.21007458E+03</rscale>
<asrwt>0</asrwt>
<pdfrwt beam="1">  1       21 0.54907540E+00 0.21007458E+03</pdfrwt>
<pdfrwt beam="2">  1       21 0.96534657E-02 0.21007458E+03</pdfrwt>
<totfact> 0.69867332E+01</totfact>
</mgrwt>
</event>
<event>
 4    1  0.3976152E+000  0.2217827E+03  0.7546771E-02  0.1132561E+00
         21   -1    0    0  501  502  0.00000000000E+00  0.00000000000E+00  0.93589689448E+03  0.93589689448E+03  0.00000000000E+00 0. -1.
         21   -1    0    0  502  503 -0.00000000000E+00 -0.00000000000E+00 -0.53464012546E+02  0.53464012546E+02  0.00000000000E+00 0.  1.
          6    1    1    2  501    0 -0.68886192062E+02  0.12047105010E+03  0.50566164076E+03  0.55216055301E+03  0.17300000000E+03 0.  1.
         -6    1    1    2    0  503  0.68886192062E+02 -0.12047105010E+03  0.37677124117E+03  0.43720035401E+03  0.17300000000E+03 0. -1.
<mgrwt>
<rscale>  2 0.22178273E+03</rscale>
<asrwt>0</asrwt>
<pdfrwt beam="1">  1       21 0.14398413E+00 0.22178273E+03</pdfrwt>
<pdfrwt beam="2">  1       21 0.82252334E-02 0.22178273E+03</pdfrwt>
<totfact> 0.37409785E+04</totfact>
</mgrwt>
</event>
<event>
 4    1  0.3976152E+000  0.1938178E+03  0.7546771E-02  0.1155062E+00
         21   -1    0    0  501  502  0.00000000000E+00  0.00000000000E+00  0.36786163818E+02  0.36786163818E+02  0.00000000000E+00 0. -1.
         21   -1    0    0  502  503 -0.00000000000E+00 -0.00000000000E+00 -0.10383157822E+04  0.10383157822E+04  0.00000000000E+00 0. -1.
          6    1    1    2  501    0 -0.78619610825E+02 -0.38148527697E+02 -0.43171114905E+03  0.47322285404E+03  0.17300000000E+03 0. -1.
         -6    1    1    2    0  503  0.78619610825E+02  0.38148527697E+02 -0.56981846938E+03  0.60187909203E+03  0.17300000000E+03 0. -1.
<mgrwt>
<rscale>  2 0.19381784E+03</rscale>
<asrwt>0</asrwt>
<pdfrwt beam="1">  1       21 0.56594104E-02 0.19381784E+03</pdfrwt>
<pdfrwt beam="2">  1       21 0.15974087E+00 0.19381784E+03</pdfrwt>
<totfact> 0.55046712E+04</totfact>
</mgrwt>
</event>
<event>
 4    1  0.3976152E+000  0.1804877E+03  0.7546771E-02  0.1167332E+00
         21   -1    0    0  503  502  0.00000000000E+00  0.00000000000E+00  0.67946500298E+03  0.67946500298E+03  0.00000000000E+00 0.  1.
         21   -1    0    0  501  503 -0.00000000000E+00 -0.00000000000E+00 -0.96631139966E+02  0.96631139966E+02  0.00000000000E+00 0.  1.
          6    1    1    2  501    0 -0.13899523233E+02  0.49534017660E+02  0.15970536553E+02  0.18119291843E+03  0.17300000000E+03 0.  1.
         -6    1    1    2    0  502  0.13899523233E+02 -0.49534017660E+02  0.56686332646E+03  0.59490322451E+03  0.17300000000E+03 0.  1.
<mgrwt>
<rscale>  2 0.18048772E+03</rscale>
<asrwt>0</asrwt>
<pdfrwt beam="1">  1       21 0.10453307E+00 0.18048772E+03</pdfrwt>
<pdfrwt beam="2">  1       21 0.14866330E-01 0.18048772E+03</pdfrwt>
<totfact> 0.29650027E+04</totfact>
</mgrwt>
</event>
<event>
 4    1  0.3976152E+000  0.1985240E+03  0.7546771E-02  0.1150990E+00
         21   -1    0    0  503  502  0.00000000000E+00  0.00000000000E+00  0.45170447327E+03  0.45170447327E+03  0.00000000000E+00 0. -1.
         21   -1    0    0  501  503 -0.00000000000E+00 -0.00000000000E+00 -0.87256715643E+02  0.87256715643E+02  0.00000000000E+00 0.  1.
          6    1    1    2  501    0  0.25741904995E+02 -0.93915553420E+02  0.18008975753E+03  0.26803749293E+03  0.17300000000E+03 0.  1.
         -6    1    1    2    0  502 -0.25741904995E+02  0.93915553420E+02  0.18435800009E+03  0.27092369598E+03  0.17300000000E+03 0. -1.
<mgrwt>
<rscale>  2 0.19852400E+03</rscale>
<asrwt>0</asrwt>
<pdfrwt beam="1">  1       21 0.69492995E-01 0.19852400E+03</pdfrwt>
<pdfrwt beam="2">  1       21 0.13424110E-01 0.19852400E+03</pdfrwt>
<totfact> 0.90099644E+04</totfact>
</mgrwt>
</event>
<event>
 4    1  0.3976152E+000  0.1788581E+03  0.7546771E-02  0.1168913E+00
         21   -1    0    0  501  502  0.00000000000E+00  0.00000000000E+00  0.78956372475E+02  0.78956372475E+02  0.00000000000E+00 0. -1.
         21   -1    0    0  502  503 -0.00000000000E+00 -0.00000000000E+00 -0.41493861399E+03  0.41493861399E+03  0.00000000000E+00 0. -1.
          6    1    1    2  501    0  0.26644961343E+02 -0.36759615085E+02 -0.13008770223E+03  0.22116291176E+03  0.17300000000E+03 0. -1.
         -6    1    1    2    0  503 -0.26644961343E+02  0.36759615085E+02 -0.20589453929E+03  0.27273207471E+03  0.17300000000E+03 0. -1.
<mgrwt>
<rscale>  2 0.17885811E+03</rscale>
<asrwt>0</asrwt>
<pdfrwt beam="1">  1       21 0.12147134E-01 0.17885811E+03</pdfrwt>
<pdfrwt beam="2">  1       21 0.63836710E-01 0.17885811E+03</pdfrwt>
<totfact> 0.13077667E+05</totfact>
</mgrwt>
</event>
<event>
 4    1  0.3976152E+000  0.1777561E+03  0.7546771E-02  0.1169993E+00
         21   -1    0    0  503  502  0.00000000000E+00  0.00000000000E+00  0.76281327195E+03  0.76281327195E+03  0.00000000000E+00 0. -1.
         21   -1    0    0  501  503 -0.00000000000E+00 -0.00000000000E+00 -0.68942564250E+02  0.68942564250E+02  0.00000000000E+00 0. -1.
          6    1    1    2  501    0 -0.45975212351E+01 -0.40584227453E+02  0.84180244280E+02  0.19668129104E+03  0.17300000000E+03 0. -1.
         -6    1    1    2    0  502  0.45975212351E+01  0.40584227453E+02  0.60969046342E+03  0.63507454516E+03  0.17300000000E+03 0. -1.
<mgrwt>
<rscale>  2 0.17775606E+03</rscale>
<asrwt>0</asrwt>
<pdfrwt beam="1">  1       21 0.11735588E+00 0.17775606E+03</pdfrwt>
<pdfrwt beam="2">  1       21 0.10606549E-01 0.17775606E+03</pdfrwt>
<totfact> 0.41123762E+04</totfact>
</mgrwt>
</event>
<event>
 4    1  0.3976152E+000  0.3245459E+03  0.7546771E-02  0.1073576E+00
         21   -1    0    0  501  502  0.00000000000E+00  0.00000000000E+00  0.73950436249E+02  0.73950436249E+02  0.00000000000E+00 0. -1.
         21   -1    0    0  502  503 -0.00000000000E+00 -0.00000000000E+00 -0.14362559013E+04  0.14362559013E+04  0.00000000000E+00 0.  1.
          6    1    1    2  501    0 -0.27037084630E+03  0.47965063884E+02 -0.74995179898E+03  0.81716445265E+03  0.17300000000E+03 0.  1.
         -6    1    1    2    0  503  0.27037084630E+03 -0.47965063884E+02 -0.61235366612E+03  0.69304188495E+03  0.17300000000E+03 0. -1.
<mgrwt>
<rscale>  2 0.32454590E+03</rscale>
<asrwt>0</asrwt>
<pdfrwt beam="1">  1       21 0.11376991E-01 0.32454590E+03</pdfrwt>
<pdfrwt beam="2">  1       21 0.22096242E+00 0.32454590E+03</pdfrwt>
<totfact> 0.58158848E+03</totfact>
</mgrwt>
</event>
<event>
 4    1  0.3976152E+000  0.2008078E+03  0.7546771E-02  0.1149059E+00
         21   -1    0    0  503  502  0.00000000000E+00  0.00000000000E+00  0.11259690080E+03  0.11259690080E+03  0.00000000000E+00 0.  1.
         21   -1    0    0  501  503 -0.00000000000E+00 -0.00000000000E+00 -0.36824152536E+03  0.36824152536E+03  0.00000000000E+00 0. -1.
          6    1    1    2  501    0  0.38766425354E+02 -0.94297149863E+02 -0.16767100449E+03  0.26160534007E+03  0.17300000000E+03 0. -1.
         -6    1    1    2    0  502 -0.38766425354E+02  0.94297149863E+02 -0.87973620063E+02  0.21923308608E+03  0.17300000000E+03 0.  1.
<mgrwt>
<rscale>  2 0.20080784E+03</rscale>
<asrwt>0</asrwt>
<pdfrwt beam="1">  1       21 0.17322600E-01 0.20080784E+03</pdfrwt>
<pdfrwt beam="2">  1       21 0.56652542E-01 0.20080784E+03</pdfrwt>
<totfact> 0.87975203E+04</totfact>
</mgrwt>
</event>
<event>
 4    1  0.3976152E+000  0.2446475E+03  0.7546771E-02  0.1116735E+00
         21   -1    0    0  503  502  0.00000000000E+00  0.00000000000E+00  0.39383351500E+03  0.39383351500E+03  0.00000000000E+00 0. -1.
         21   -1    0    0  501  503 -0.00000000000E+00 -0.00000000000E+00 -0.15291892077E+03  0.15291892077E+03  0.00000000000E+00 0. -1.
          6    1    1    2  501    0  0.15887487246E+03  0.68426373124E+02  0.98965962301E+02  0.26390652764E+03  0.17300000000E+03 0. -1.
         -6    1    1    2    0  502 -0.15887487246E+03 -0.68426373124E+02  0.14194863192E+03  0.28284590812E+03  0.17300000000E+03 0. -1.
<mgrwt>
<rscale>  2 0.24464749E+03</rscale>
<asrwt>0</asrwt>
<pdfrwt beam="1">  1       21 0.60589771E-01 0.24464749E+03</pdfrwt>
<pdfrwt beam="2">  1       21 0.23525988E-01 0.24464749E+03</pdfrwt>
<totfact> 0.42099652E+04</totfact>
</mgrwt>
</event>
<event>
 4    1  0.3976152E+000  0.1739300E+03  0.7546771E-02  0.1173810E+00
         21   -1    0    0  501  502  0.00000000000E+00  0.00000000000E+00  0.27690850404E+03  0.27690850404E+03  0.00000000000E+00 0.  1.
         21   -1    0    0  502  503 -0.00000000000E+00 -0.00000000000E+00 -0.12150535211E+03  0.12150535211E+03  0.00000000000E+00 0.  1.
          6    1    1    2  501    0 -0.17961386930E+02  0.19399677938E+00  0.14097310653E+03  0.22388627877E+03  0.17300000000E+03 0.  1.
         -6    1    1    2    0  503  0.17961386930E+02 -0.19399677938E+00  0.14430045392E+02  0.17452757738E+03  0.17300000000E+03 0.  1.
<mgrwt>
<rscale>  2 0.17393001E+03</rscale>
<asrwt>0</asrwt>
<pdfrwt beam="1">  1       21 0.42601308E-01 0.17393001E+03</pdfrwt>
<pdfrwt beam="2">  1       21 0.18693131E-01 0.17393001E+03</pdfrwt>
<totfact> 0.13963634E+05</totfact>
</mgrwt>
</event>
<event>
 4    1  0.3976152E+000  0.2769345E+03  0.7546771E-02  0.1097375E+00
         21   -1    0    0  503  502  0.00000000000E+00  0.00000000000E+00  0.75763902485E+03  0.75763902485E+03  0.00000000000E+00 0. -1.
         21   -1    0    0  501  503 -0.00000000000E+00 -0.00000000000E+00 -0.12204055115E+03  0.12204055115E+03  0.00000000000E+00 0.  1.
          6    1    1    2  501    0  0.13764145223E+03  0.16678891509E+03  0.13615286235E+03  0.30859409180E+03  0.17300000000E+03 0.  1.
         -6    1    1    2    0  502 -0.13764145223E+03 -0.16678891509E+03  0.49944561134E+03  0.57108548420E+03  0.17300000000E+03 0. -1.
<mgrwt>
<rscale>  2 0.27693449E+03</rscale>
<asrwt>0</asrwt>
<pdfrwt beam="1">  1       21 0.11655985E+00 0.27693449E+03</pdfrwt>
<pdfrwt beam="2">  1       21 0.18775470E-01 0.27693449E+03</pdfrwt>
<totfact> 0.14026664E+04</totfact>
</mgrwt>
</event>
<event>
 4    1  0.3976152E+000  0.2893891E+03  0.7546771E-02  0.1090669E+00
         21   -1    0    0  501  502  0.00000000000E+00  0.00000000000E+00  0.87960517439E+02  0.87960517439E+02  0.00000000000E+00 0.  1.
         21   -1    0    0  502  503 -0.00000000000E+00 -0.00000000000E+00 -0.10706112597E+04  0.10706112597E+04  0.00000000000E+00 0.  1.
          6    1    1    2  501    0  0.12943656031E+03  0.19251819652E+03 -0.29858158727E+03  0.41580890250E+03  0.17300000000E+03 0.  1.
         -6    1    1    2    0  503 -0.12943656031E+03 -0.19251819652E+03 -0.68406915495E+03  0.74276287461E+03  0.17300000000E+03 0.  1.
<mgrwt>
<rscale>  2 0.28938915E+03</rscale>
<asrwt>0</asrwt>
<pdfrwt beam="1">  1       21 0.13532388E-01 0.28938915E+03</pdfrwt>
<pdfrwt beam="2">  1       21 0.16470942E+00 0.28938915E+03</pdfrwt>
<totfact> 0.10335670E+04</totfact>
</mgrwt>
</event>
<event>
 4    1  0.3976152E+000  0.1872384E+03  0.7546771E-02  0.1160976E+00
         21   -1    0    0  503  502  0.00000000000E+00  0.00000000000E+00  0.17551328822E+03  0.17551328822E+03  0.00000000000E+00 0.  1.
         21   -1    0    0  501  503 -0.00000000000E+00 -0.00000000000E+00 -0.19983386719E+03  0.19983386719E+03  0.00000000000E+00 0. -1.
          6    1    1    2  501    0  0.70724724117E+02  0.11280079692E+02 -0.82440772001E+01  0.18741982715E+03  0.17300000000E+03 0. -1.
         -6    1    1    2    0  502 -0.70724724117E+02 -0.11280079692E+02 -0.16076501770E+02  0.18792732826E+03  0.17300000000E+03 0. -1.
<mgrwt>
<rscale>  2 0.18723842E+03</rscale>
<asrwt>0</asrwt>
<pdfrwt beam="1">  1       21 0.27002044E-01 0.18723842E+03</pdfrwt>
<pdfrwt beam="2">  1       21 0.30743672E-01 0.18723842E+03</pdfrwt>
<totfact> 0.13299255E+05</totfact>
</mgrwt>
</event>
<event>
 4    1  0.3976152E+000  0.2635765E+03  0.7546771E-02  0.1105013E+00
         21   -1    0    0  503  502  0.00000000000E+00  0.00000000000E+00  0.23166992026E+04  0.23166992026E+04  0.00000000000E+00 0.  1.
         21   -1    0    0  501  503 -0.00000000000E+00 -0.00000000000E+00 -0.33965876221E+02  0.33965876221E+02  0.00000000000E+00 0. -1.
          6    1    1    2  501    0 -0.18485298154E+02  0.19799457457E+03  0.73913195740E+03  0.78472199425E+03  0.17300000000E+03 0. -1.
         -6    1    1    2    0  502  0.18485298154E+02 -0.19799457457E+03  0.15436013690E+04  0.15659430846E+04  0.17300000000E+03 0.  1.
<mgrwt>
<rscale>  2 0.26357647E+03</rscale>
<asrwt>0</asrwt>
<pdfrwt beam="1">  1       21 0.35641514E+00 0.26357647E+03</pdfrwt>
<pdfrwt beam="2">  1       21 0.52255212E-02 0.26357647E+03</pdfrwt>
<totfact> 0.36929828E+03</totfact>
</mgrwt>
</event>
<event>
 4    1  0.3976152E+000  0.1766850E+03  0.7546771E-02  0.1171050E+00
         21   -1    0    0  503  502  0.00000000000E+00  0.00000000000E+00  0.48849371567E+03  0.48849371567E+03  0.00000000000E+00 0. -1.
         21   -1    0    0  501  503 -0.00000000000E+00 -0.00000000000E+00 -0.11541255883E+03  0.11541255883E+03  0.00000000000E+00 0. -1.
          6    1    1    2  501    0 -0.33104911001E+02 -0.13879783571E+02 -0.15177631903E+02  0.17733568179E+03  0.17300000000E+03 0. -1.
         -6    1    1    2    0  502  0.33104911001E+02  0.13879783571E+02  0.38825878874E+03  0.42657059270E+03  0.17300000000E+03 0. -1.
<mgrwt>
<rscale>  2 0.17668498E+03</rscale>
<asrwt>0</asrwt>
<pdfrwt beam="1">  1       21 0.75152879E-01 0.17668498E+03</pdfrwt>
<pdfrwt beam="2">  1       21 0.17755778E-01 0.17668498E+03</pdfrwt>
<totfact> 0.45933773E+04</totfact>
</mgrwt>
</event>
<event>
 4    1  0.3976152E+000  0.2247606E+03  0.7546771E-02  0.1130383E+00
         21   -1    0    0  503  502  0.00000000000E+00  0.00000000000E+00  0.16819345717E+03  0.16819345717E+03  0.00000000000E+00 0.  1.
         21   -1    0    0  501  503 -0.00000000000E+00 -0.00000000000E+00 -0.54832380396E+03  0.54832380396E+03  0.00000000000E+00 0.  1.
          6    1    1    2  501    0 -0.46137527256E+02  0.13586633631E+03 -0.43098846371E+03  0.48607446818E+03  0.17300000000E+03 0.  1.
         -6    1    1    2    0  502  0.46137527256E+02 -0.13586633631E+03  0.50858116923E+02  0.23044279294E+03  0.17300000000E+03 0.  1.
<mgrwt>
<rscale>  2 0.22476061E+03</rscale>
<asrwt>0</asrwt>
<pdfrwt beam="1">  1       21 0.25875916E-01 0.22476061E+03</pdfrwt>
<pdfrwt beam="2">  1       21 0.84357510E-01 0.22476061E+03</pdfrwt>
<totfact> 0.16957147E+04</totfact>
</mgrwt>
</event>
<event>
 4    1  0.3976152E+000  0.1752345E+03  0.7546771E-02  0.1172496E+00
         21   -1    0    0  501  502  0.00000000000E+00  0.00000000000E+00  0.17524916336E+03  0.17524916336E+03  0.00000000000E+00 0. -1.
         21   -1    0    0  502  503 -0.00000000000E+00 -0.00000000000E+00 -0.28371836769E+03  0.28371836769E+03  0.00000000000E+00 0. -1.
          6    1    1    2  501    0 -0.13350695663E+02  0.24492486282E+02  0.87677766258E+02  0.19594518023E+03  0.17300000000E+03 0. -1.
         -6    1    1    2    0  503  0.13350695663E+02 -0.24492486282E+02 -0.19614697059E+03  0.26302235082E+03  0.17300000000E+03 0. -1.
<mgrwt>
<rscale>  2 0.17523448E+03</rscale>
<asrwt>0</asrwt>
<pdfrwt beam="1">  1       21 0.26961410E-01 0.17523448E+03</pdfrwt>
<pdfrwt beam="2">  1       21 0.43648979E-01 0.17523448E+03</pdfrwt>
<totfact> 0.66607904E+04</totfact>
</mgrwt>
</event>
<event>
 4    1  0.3976152E+000  0.1816908E+03  0.7546771E-02  0.1166177E+00
         21   -1    0    0  503  502  0.00000000000E+00  0.00000000000E+00  0.87161453003E+02  0.87161453003E+02  0.00000000000E+00 0.  1.
         21   -1    0    0  501  503 -0.00000000000E+00 -0.00000000000E+00 -0.19563589503E+04  0.19563589503E+04  0.00000000000E+00 0.  1.
          6    1    1    2  501    0 -0.55192795317E+02 -0.60266237706E+01 -0.18521402393E+04  0.18610306367E+04  0.17300000000E+03 0.  1.
         -6    1    1    2    0  502  0.55192795317E+02  0.60266237706E+01 -0.17057257993E+02  0.18248976656E+03  0.17300000000E+03 0.  1.
<mgrwt>
<rscale>  2 0.18169085E+03</rscale>
<asrwt>0</asrwt>
<pdfrwt beam="1">  1       21 0.13409455E-01 0.18169085E+03</pdfrwt>
<pdfrwt beam="2">  1       21 0.30097828E+00 0.18169085E+03</pdfrwt>
<totfact> 0.16436074E+03</totfact>
</mgrwt>
</event>
<event>
 4    1  0.3976152E+000  0.2162656E+03  0.7546771E-02  0.1136698E+00
         21   -1    0    0  503  502  0.00000000000E+00  0.00000000000E+00  0.11845593659E+04  0.11845593659E+04  0.00000000000E+00 0. -1.
         21   -1    0    0  501  503 -0.00000000000E+00 -0.00000000000E+00 -0.39483958647E+02  0.39483958647E+02  0.00000000000E+00 0.  1.
          6    1    1    2  501    0  0.52432239218E+01 -0.12967008890E+03  0.57400727458E+03  0.61339642535E+03  0.17300000000E+03 0.  1.
         -6    1    1    2    0  502 -0.52432239218E+01  0.12967008890E+03  0.57106813264E+03  0.61064689917E+03  0.17300000000E+03 0.  1.
<mgrwt>
<rscale>  2 0.21626563E+03</rscale>
<asrwt>0</asrwt>
<pdfrwt beam="1">  1       21 0.18223988E+00 0.21626563E+03</pdfrwt>
<pdfrwt beam="2">  1       21 0.60744561E-02 0.21626563E+03</pdfrwt>
<totfact> 0.33404929E+04</totfact>
</mgrwt>
</event>
<event>
 4    1  0.3976152E+000  0.2480895E+03  0.7546771E-02  0.1114518E+00
         21   -1    0    0  503  502  0.00000000000E+00  0.00000000000E+00  0.13022808342E+03  0.13022808342E+03  0.00000000000E+00 0.  1.
         21   -1    0    0  501  503 -0.00000000000E+00 -0.00000000000E+00 -0.65495093526E+03  0.65495093526E+03  0.00000000000E+00 0.  1.
          6    1    1    2  501    0  0.11187961683E+03  0.13821121971E+03 -0.46950170149E+03  0.53101811421E+03  0.17300000000E+03 0.  1.
         -6    1    1    2    0  502 -0.11187961683E+03 -0.13821121971E+03 -0.55221150345E+02  0.25416090447E+03  0.17300000000E+03 0.  1.
<mgrwt>
<rscale>  2 0.24808948E+03</rscale>
<asrwt>0</asrwt>
<pdfrwt beam="1">  1       21 0.20035090E-01 0.24808948E+03</pdfrwt>
<pdfrwt beam="2">  1       21 0.10076168E+00 0.24808948E+03</pdfrwt>
<totfact> 0.17965435E+04</totfact>
</mgrwt>
</event>
<event>
 4    1  0.3976152E+000  0.1843126E+03  0.7546771E-02  0.1163693E+00
         21   -1    0    0  501  502  0.00000000000E+00  0.00000000000E+00  0.16589264448E+02  0.16589264448E+02  0.00000000000E+00 0.  1.
         21   -1    0    0  502  503 -0.00000000000E+00 -0.00000000000E+00 -0.28575889095E+04  0.28575889095E+04  0.00000000000E+00 0.  1.
          6    1    1    2  501    0  0.58794922392E+02 -0.24192562015E+02 -0.65547460065E+03  0.68089505436E+03  0.17300000000E+03 0.  1.
         -6    1    1    2    0  503 -0.58794922392E+02  0.24192562015E+02 -0.21855250444E+04  0.21932831196E+04  0.17300000000E+03 0.  1.
<mgrwt>
<rscale>  2 0.18431257E+03</rscale>
<asrwt>0</asrwt>
<pdfrwt beam="1">  1       21 0.25521960E-02 0.18431257E+03</pdfrwt>
<pdfrwt beam="2">  1       21 0.43962880E+00 0.18431257E+03</pdfrwt>
<totfact> 0.40721990E+03</totfact>
</mgrwt>
</event>
<event>
 4    1  0.3976152E+000  0.2164232E+03  0.7546771E-02  0.1136578E+00
         21   -1    0    0  503  502  0.00000000000E+00  0.00000000000E+00  0.51300985578E+03  0.51300985578E+03  0.00000000000E+00 0.  1.
         21   -1    0    0  501  503 -0.00000000000E+00 -0.00000000000E+00 -0.11474549589E+03  0.11474549589E+03  0.00000000000E+00 0.  1.
          6    1    1    2  501    0 -0.76415993056E+02 -0.10521700017E+03  0.57259012130E+02  0.22386963972E+03  0.17300000000E+03 0.  1.
         -6    1    1    2    0  502  0.76415993056E+02  0.10521700017E+03  0.34100534776E+03  0.40388571195E+03  0.17300000000E+03 0.  1.
<mgrwt>
<rscale>  2 0.21642325E+03</rscale>
<asrwt>0</asrwt>
<pdfrwt beam="1">  1       21 0.78924592E-01 0.21642325E+03</pdfrwt>
<pdfrwt beam="2">  1       21 0.17653153E-01 0.21642325E+03</pdfrwt>
<totfact> 0.40769995E+04</totfact>
</mgrwt>
</event>
<event>
 4    1  0.3976152E+000  0.2720186E+03  0.7546771E-02  0.1100130E+00
         21   -1    0    0  503  502  0.00000000000E+00  0.00000000000E+00  0.25019797601E+04  0.25019797601E+04  0.00000000000E+00 0.  1.
         21   -1    0    0  501  503 -0.00000000000E+00 -0.00000000000E+00 -0.10968240600E+03  0.10968240600E+03  0.00000000000E+00 0.  1.
          6    1    1    2  501    0 -0.77486301479E+02  0.19509228532E+03  0.80167325628E+02  0.28358583675E+03  0.17300000000E+03 0.  1.
         -6    1    1    2    0  502  0.77486301479E+02 -0.19509228532E+03  0.23121300285E+04  0.23280763294E+04  0.17300000000E+03 0.  1.
<mgrwt>
<rscale>  2 0.27201861E+03</rscale>
<asrwt>0</asrwt>
<pdfrwt beam="1">  1       21 0.38491992E+00 0.27201861E+03</pdfrwt>
<pdfrwt beam="2">  1       21 0.16874218E-01 0.27201861E+03</pdfrwt>
<totfact> 0.30576771E+02</totfact>
</mgrwt>
</event>
<event>
 4    1  0.3976152E+000  0.2212799E+03  0.7546771E-02  0.1132932E+00
         21   -1    0    0  501  502  0.00000000000E+00  0.00000000000E+00  0.27739412445E+03  0.27739412445E+03  0.00000000000E+00 0.  1.
         21   -1    0    0  502  503 -0.00000000000E+00 -0.00000000000E+00 -0.21408560695E+03  0.21408560695E+03  0.00000000000E+00 0.  1.
          6    1    1    2  501    0  0.13518137282E+03 -0.27600517184E+02  0.13459662508E+03  0.25900008415E+03  0.17300000000E+03 0.  1.
         -6    1    1    2    0  503 -0.13518137282E+03  0.27600517184E+02 -0.71288107567E+02  0.23247964725E+03  0.17300000000E+03 0.  1.
<mgrwt>
<rscale>  2 0.22127990E+03</rscale>
<asrwt>0</asrwt>
<pdfrwt beam="1">  1       21 0.42676019E-01 0.22127990E+03</pdfrwt>
<pdfrwt beam="2">  1       21 0.32936247E-01 0.22127990E+03</pdfrwt>
<totfact> 0.46230172E+04</totfact>
</mgrwt>
</event>
<event>
 4    1  0.3976152E+000  0.3397169E+03  0.7546771E-02  0.1066917E+00
         21   -1    0    0  501  502  0.00000000000E+00  0.00000000000E+00  0.92179187078E+02  0.92179187078E+02  0.00000000000E+00 0. -1.
         21   -1    0    0  502  503 -0.00000000000E+00 -0.00000000000E+00 -0.12802365256E+04  0.12802365256E+04  0.00000000000E+00 0. -1.
          6    1    1    2  501    0 -0.49975081505E+02  0.28806431431E+03 -0.49210345619E+03  0.59797438871E+03  0.17300000000E+03 0. -1.
         -6    1    1    2    0  503  0.49975081505E+02 -0.28806431431E+03 -0.69595388236E+03  0.77444132400E+03  0.17300000000E+03 0. -1.
<mgrwt>
<rscale>  2 0.33971688E+03</rscale>
<asrwt>0</asrwt>
<pdfrwt beam="1">  1       21 0.14181414E-01 0.33971688E+03</pdfrwt>
<pdfrwt beam="2">  1       21 0.19695946E+00 0.33971688E+03</pdfrwt>
<totfact> 0.55188799E+03</totfact>
</mgrwt>
</event>
<event>
 4    1  0.3976152E+000  0.1756160E+03  0.7546771E-02  0.1172115E+00
         21   -1    0    0  501  502  0.00000000000E+00  0.00000000000E+00  0.30892127380E+03  0.30892127380E+03  0.00000000000E+00 0. -1.
         21   -1    0    0  502  503 -0.00000000000E+00 -0.00000000000E+00 -0.10089141490E+03  0.10089141490E+03  0.00000000000E+00 0. -1.
          6    1    1    2  501    0  0.32325364224E+01  0.30025711812E+02  0.12498760290E+03  0.21555253081E+03  0.17300000000E+03 0.  1.
         -6    1    1    2    0  503 -0.32325364224E+01 -0.30025711812E+02  0.83042256008E+02  0.19426015789E+03  0.17300000000E+03 0.  1.
<mgrwt>
<rscale>  2 0.17561604E+03</rscale>
<asrwt>0</asrwt>
<pdfrwt beam="1">  1       21 0.47526349E-01 0.17561604E+03</pdfrwt>
<pdfrwt beam="2">  1       21 0.15521756E-01 0.17561604E+03</pdfrwt>
<totfact> 0.15690968E+05</totfact>
</mgrwt>
</event>
<event>
 4    1  0.3976152E+000  0.1952931E+03  0.7546771E-02  0.1153772E+00
         21   -1    0    0  503  502  0.00000000000E+00  0.00000000000E+00  0.22109511658E+03  0.22109511658E+03  0.00000000000E+00 0.  1.
         21   -1    0    0  501  503 -0.00000000000E+00 -0.00000000000E+00 -0.19264379724E+03  0.19264379724E+03  0.00000000000E+00 0.  1.
          6    1    1    2  501    0 -0.50027479127E+02 -0.75548883959E+02 -0.52665137696E+02  0.20226962022E+03  0.17300000000E+03 0.  1.
         -6    1    1    2    0  502  0.50027479127E+02  0.75548883959E+02  0.81116457039E+02  0.21146929361E+03  0.17300000000E+03 0.  1.
<mgrwt>
<rscale>  2 0.19529307E+03</rscale>
<asrwt>0</asrwt>
<pdfrwt beam="1">  1       21 0.34014634E-01 0.19529307E+03</pdfrwt>
<pdfrwt beam="2">  1       21 0.29637507E-01 0.19529307E+03</pdfrwt>
<totfact> 0.90770558E+04</totfact>
</mgrwt>
</event>
<event>
 4    1  0.3976152E+000  0.1784219E+03  0.7546771E-02  0.1169339E+00
         21   -1    0    0  503  502  0.00000000000E+00  0.00000000000E+00  0.27231954301E+03  0.27231954301E+03  0.00000000000E+00 0.  1.
         21   -1    0    0  501  503 -0.00000000000E+00 -0.00000000000E+00 -0.14069916734E+03  0.14069916734E+03  0.00000000000E+00 0.  1.
          6    1    1    2  501    0 -0.11436294607E+02  0.42125824860E+02 -0.19121058628E+02  0.17944355335E+03  0.17300000000E+03 0.  1.
         -6    1    1    2    0  502  0.11436294607E+02 -0.42125824860E+02  0.15074143430E+03  0.23357515700E+03  0.17300000000E+03 0.  1.
<mgrwt>
<rscale>  2 0.17842190E+03</rscale>
<asrwt>0</asrwt>
<pdfrwt beam="1">  1       21 0.41895314E-01 0.17842190E+03</pdfrwt>
<pdfrwt beam="2">  1       21 0.21646026E-01 0.17842190E+03</pdfrwt>
<totfact> 0.10971088E+05</totfact>
</mgrwt>
</event>
<event>
 4    1  0.3976152E+000  0.1984521E+03  0.7546771E-02  0.1151052E+00
         21   -1    0    0  503  502  0.00000000000E+00  0.00000000000E+00  0.15204950057E+04  0.15204950057E+04  0.00000000000E+00 0. -1.
         21   -1    0    0  501  503 -0.00000000000E+00 -0.00000000000E+00 -0.34089317655E+02  0.34089317655E+02  0.00000000000E+00 0.  1.
          6    1    1    2  501    0  0.58545042335E+02 -0.77631797349E+02  0.36226231350E+03  0.41305835147E+03  0.17300000000E+03 0.  1.
         -6    1    1    2    0  502 -0.58545042335E+02  0.77631797349E+02  0.11241433746E+04  0.11415259719E+04  0.17300000000E+03 0. -1.
<mgrwt>
<rscale>  2 0.19845205E+03</rscale>
<asrwt>0</asrwt>
<pdfrwt beam="1">  1       21 0.23392226E+00 0.19845205E+03</pdfrwt>
<pdfrwt beam="2">  1       21 0.52445116E-02 0.19845205E+03</pdfrwt>
<totfact> 0.20446825E+04</totfact>
</mgrwt>
</event>
<event>
 4    1  0.3976152E+000  0.1855893E+03  0.7546771E-02  0.1162501E+00
         21   -1    0    0  501  502  0.00000000000E+00  0.00000000000E+00  0.27640393731E+02  0.27640393731E+02  0.00000000000E+00 0. -1.
         21   -1    0    0  502  503 -0.00000000000E+00 -0.00000000000E+00 -0.16470814978E+04  0.16470814978E+04  0.00000000000E+00 0. -1.
          6    1    1    2  501    0 -0.63043349523E+02  0.23236153434E+02 -0.39657427650E+03  0.43785218913E+03  0.17300000000E+03 0. -1.
         -6    1    1    2    0  503  0.63043349523E+02 -0.23236153434E+02 -0.12228668276E+04  0.12368697024E+04  0.17300000000E+03 0. -1.
<mgrwt>
<rscale>  2 0.18558929E+03</rscale>
<asrwt>0</asrwt>
<pdfrwt beam="1">  1       21 0.42523684E-02 0.18558929E+03</pdfrwt>
<pdfrwt beam="2">  1       21 0.25339714E+00 0.18558929E+03</pdfrwt>
<totfact> 0.22596385E+04</totfact>
</mgrwt>
</event>
<event>
 4    1  0.3976152E+000  0.2370335E+03  0.7546771E-02  0.1121785E+00
         21   -1    0    0  503  502  0.00000000000E+00  0.00000000000E+00  0.92722843584E+03  0.92722843584E+03  0.00000000000E+00 0. -1.
         21   -1    0    0  501  503 -0.00000000000E+00 -0.00000000000E+00 -0.64156395566E+02  0.64156395566E+02  0.00000000000E+00 0.  1.
          6    1    1    2  501    0  0.47059106547E+02 -0.15505260374E+03  0.31473738884E+03  0.39401077824E+03  0.17300000000E+03 0.  1.
         -6    1    1    2    0  502 -0.47059106547E+02  0.15505260374E+03  0.54833465143E+03  0.59737405317E+03  0.17300000000E+03 0. -1.
<mgrwt>
<rscale>  2 0.23703348E+03</rscale>
<asrwt>0</asrwt>
<pdfrwt beam="1">  1       21 0.14265052E+00 0.23703348E+03</pdfrwt>
<pdfrwt beam="2">  1       21 0.98702154E-02 0.23703348E+03</pdfrwt>
<totfact> 0.27577117E+04</totfact>
</mgrwt>
</event>
<event>
 4    1  0.3976152E+000  0.1830095E+03  0.7546771E-02  0.1164922E+00
         21   -1    0    0  503  502  0.00000000000E+00  0.00000000000E+00  0.22290491071E+03  0.22290491071E+03  0.00000000000E+00 0.  1.
         21   -1    0    0  501  503 -0.00000000000E+00 -0.00000000000E+00 -0.15230744848E+03  0.15230744848E+03  0.00000000000E+00 0.  1.
          6    1    1    2  501    0 -0.48902669665E+01 -0.59494115324E+02  0.13517808313E+02  0.18350802601E+03  0.17300000000E+03 0.  1.
         -6    1    1    2    0  502  0.48902669665E+01  0.59494115324E+02  0.57079653913E+02  0.19170433318E+03  0.17300000000E+03 0.  1.
<mgrwt>
<rscale>  2 0.18300947E+03</rscale>
<asrwt>0</asrwt>
<pdfrwt beam="1">  1       21 0.34293063E-01 0.18300947E+03</pdfrwt>
<pdfrwt beam="2">  1       21 0.23431915E-01 0.18300947E+03</pdfrwt>
<totfact> 0.14084258E+05</totfact>
</mgrwt>
</event>
<event>
 4    1  0.3976152E+000  0.2393780E+03  0.7546771E-02  0.1120208E+00
         21   -1    0    0  503  502  0.00000000000E+00  0.00000000000E+00  0.30673085571E+03  0.30673085571E+03  0.00000000000E+00 0. -1.
         21   -1    0    0  501  503 -0.00000000000E+00 -0.00000000000E+00 -0.32361331995E+03  0.32361331995E+03  0.00000000000E+00 0.  1.
          6    1    1    2  501    0 -0.14851689653E+03 -0.72907807227E+02 -0.21335705505E+03  0.32066033407E+03  0.17300000000E+03 0.  1.
         -6    1    1    2    0  502  0.14851689653E+03  0.72907807227E+02  0.19647459080E+03  0.30968384159E+03  0.17300000000E+03 0. -1.
<mgrwt>
<rscale>  2 0.23937798E+03</rscale>
<asrwt>0</asrwt>
<pdfrwt beam="1">  1       21 0.47189363E-01 0.23937798E+03</pdfrwt>
<pdfrwt beam="2">  1       21 0.49786664E-01 0.23937798E+03</pdfrwt>
<totfact> 0.16075127E+04</totfact>
</mgrwt>
</event>
<event>
 4    1  0.3976152E+000  0.2893176E+03  0.7546771E-02  0.1090706E+00
         21   -1    0    0  501  502  0.00000000000E+00  0.00000000000E+00  0.27323749747E+03  0.27323749747E+03  0.00000000000E+00 0.  1.
         21   -1    0    0  502  503 -0.00000000000E+00 -0.00000000000E+00 -0.48213815606E+03  0.48213815606E+03  0.00000000000E+00 0.  1.
          6    1    1    2  501    0 -0.22767147806E+03 -0.44060873334E+02  0.12360985844E+03  0.31461732245E+03  0.17300000000E+03 0.  1.
         -6    1    1    2    0  503  0.22767147806E+03  0.44060873334E+02 -0.33251051703E+03  0.44075833108E+03  0.17300000000E+03 0.  1.
<mgrwt>
<rscale>  2 0.28931758E+03</rscale>
<asrwt>0</asrwt>
<pdfrwt beam="1">  1       21 0.42036538E-01 0.28931758E+03</pdfrwt>
<pdfrwt beam="2">  1       21 0.74175100E-01 0.28931758E+03</pdfrwt>
<totfact> 0.83800515E+03</totfact>
</mgrwt>
</event>
<event>
 4    1  0.3976152E+000  0.2836625E+03  0.7546771E-02  0.1093705E+00
         21   -1    0    0  501  502  0.00000000000E+00  0.00000000000E+00  0.14308757020E+04  0.14308757020E+04  0.00000000000E+00 0.  1.
         21   -1    0    0  502  503 -0.00000000000E+00 -0.00000000000E+00 -0.65828223165E+02  0.65828223165E+02  0.00000000000E+00 0.  1.
          6    1    1    2  501    0 -0.21353430644E+03 -0.70274520530E+02  0.96821446245E+03  0.10089121139E+04  0.17300000000E+03 0.  1.
         -6    1    1    2    0  503  0.21353430644E+03  0.70274520530E+02  0.39683301644E+03  0.48779181132E+03  0.17300000000E+03 0.  1.
<mgrwt>
<rscale>  2 0.28366249E+03</rscale>
<asrwt>0</asrwt>
<pdfrwt beam="1">  1       21 0.22013470E+00 0.28366249E+03</pdfrwt>
<pdfrwt beam="2">  1       21 0.10127420E-01 0.28366249E+03</pdfrwt>
<totfact> 0.74292927E+03</totfact>
</mgrwt>
</event>
<event>
 4    1  0.3976152E+000  0.2717269E+03  0.7546771E-02  0.1100295E+00
         21   -1    0    0  503  502  0.00000000000E+00  0.00000000000E+00  0.15642358559E+04  0.15642358559E+04  0.00000000000E+00 0.  1.
         21   -1    0    0  501  503 -0.00000000000E+00 -0.00000000000E+00 -0.28106509982E+03  0.28106509982E+03  0.00000000000E+00 0.  1.
          6    1    1    2  501    0 -0.20795968369E+03 -0.25676398270E+02 -0.20003130512E+03  0.33741373786E+03  0.17300000000E+03 0.  1.
         -6    1    1    2    0  502  0.20795968369E+03  0.25676398270E+02  0.14832020612E+04  0.15078872178E+04  0.17300000000E+03 0.  1.
<mgrwt>
<rscale>  2 0.27172690E+03</rscale>
<asrwt>0</asrwt>
<pdfrwt beam="1">  1       21 0.24065166E+00 0.27172690E+03</pdfrwt>
<pdfrwt beam="2">  1       21 0.43240786E-01 0.27172690E+03</pdfrwt>
<totfact> 0.35505969E+02</totfact>
</mgrwt>
</event>
<event>
 4    1  0.3976152E+000  0.1982474E+03  0.7546771E-02  0.1151226E+00
         21   -1    0    0  501  502  0.00000000000E+00  0.00000000000E+00  0.24342777366E+03  0.24342777366E+03  0.00000000000E+00 0.  1.
         21   -1    0    0  502  503 -0.00000000000E+00 -0.00000000000E+00 -0.46221926678E+03  0.46221926678E+03  0.00000000000E+00 0. -1.
          6    1    1    2  501    0 -0.11154004367E+02  0.96169844162E+02  0.17521306827E+03  0.26457828715E+03  0.17300000000E+03 0.  1.
         -6    1    1    2    0  503  0.11154004367E+02 -0.96169844162E+02 -0.39400456139E+03  0.44106875330E+03  0.17300000000E+03 0. -1.
<mgrwt>
<rscale>  2 0.19824745E+03</rscale>
<asrwt>0</asrwt>
<pdfrwt beam="1">  1       21 0.37450427E-01 0.19824745E+03</pdfrwt>
<pdfrwt beam="2">  1       21 0.71110656E-01 0.19824745E+03</pdfrwt>
<totfact> 0.12260319E+04</totfact>
</mgrwt>
</event>
<event>
 4    1  0.3976152E+000  0.1798745E+03  0.7546771E-02  0.1167925E+00
         21   -1    0    0  503  502  0.00000000000E+00  0.00000000000E+00  0.93458309798E+03  0.93458309798E+03  0.00000000000E+00 0.  1.
         21   -1    0    0  501  503 -0.00000000000E+00 -0.00000000000E+00 -0.46093531669E+02  0.46093531669E+02  0.00000000000E+00 0.  1.
          6    1    1    2  501    0 -0.25962653037E+02 -0.41854350234E+02  0.19960171219E+03  0.26869255572E+03  0.17300000000E+03 0.  1.
         -6    1    1    2    0  502  0.25962653037E+02  0.41854350234E+02  0.68888785412E+03  0.71198407394E+03  0.17300000000E+03 0.  1.
<mgrwt>
<rscale>  2 0.17987453E+03</rscale>
<asrwt>0</asrwt>
<pdfrwt beam="1">  1       21 0.14378200E+00 0.17987453E+03</pdfrwt>
<pdfrwt beam="2">  1       21 0.70913133E-02 0.17987453E+03</pdfrwt>
<totfact> 0.49743532E+04</totfact>
</mgrwt>
</event>
<event>
 4    1  0.3976152E+000  0.2258330E+03  0.7546771E-02  0.1129608E+00
         21   -1    0    0  501  502  0.00000000000E+00  0.00000000000E+00  0.18387248393E+03  0.18387248393E+03  0.00000000000E+00 0.  1.
         21   -1    0    0  502  503 -0.00000000000E+00 -0.00000000000E+00 -0.30121339932E+03  0.30121339932E+03  0.00000000000E+00 0.  1.
          6    1    1    2  501    0 -0.13512620677E+03  0.53032660373E+02  0.95702169565E+01  0.22603571372E+03  0.17300000000E+03 0.  1.
         -6    1    1    2    0  503  0.13512620677E+03 -0.53032660373E+02 -0.12691113234E+03  0.25905016953E+03  0.17300000000E+03 0.  1.
<mgrwt>
<rscale>  2 0.22583302E+03</rscale>
<asrwt>0</asrwt>
<pdfrwt beam="1">  1       21 0.28288075E-01 0.22583302E+03</pdfrwt>
<pdfrwt beam="2">  1       21 0.46340522E-01 0.22583302E+03</pdfrwt>
<totfact> 0.52471851E+04</totfact>
</mgrwt>
</event>
<event>
 4    1  0.3976152E+000  0.1821020E+03  0.7546771E-02  0.1165784E+00
         21   -1    0    0  501  502  0.00000000000E+00  0.00000000000E+00  0.18029616629E+03  0.18029616629E+03  0.00000000000E+00 0. -1.
         21   -1    0    0  502  503 -0.00000000000E+00 -0.00000000000E+00 -0.22009029816E+03  0.22009029816E+03  0.00000000000E+00 0. -1.
          6    1    1    2  501    0 -0.51031495696E+02  0.25058541873E+02  0.61253069576E+02  0.19212777677E+03  0.17300000000E+03 0. -1.
         -6    1    1    2    0  503  0.51031495696E+02 -0.25058541873E+02 -0.10104720145E+03  0.20825868768E+03  0.17300000000E+03 0. -1.
<mgrwt>
<rscale>  2 0.18210202E+03</rscale>
<asrwt>0</asrwt>
<pdfrwt beam="1">  1       21 0.27737872E-01 0.18210202E+03</pdfrwt>
<pdfrwt beam="2">  1       21 0.33860046E-01 0.18210202E+03</pdfrwt>
<totfact> 0.10466024E+05</totfact>
</mgrwt>
</event>
<event>
 4    1  0.3976152E+000  0.2267910E+03  0.7546771E-02  0.1128919E+00
         21   -1    0    0  503  502  0.00000000000E+00  0.00000000000E+00  0.22669867899E+03  0.22669867899E+03  0.00000000000E+00 0. -1.
         21   -1    0    0  501  503 -0.00000000000E+00 -0.00000000000E+00 -0.29831439840E+03  0.29831439840E+03  0.00000000000E+00 0.  1.
          6    1    1    2  501    0 -0.67710508315E+02 -0.13007867994E+03 -0.16426145356E+03  0.28002857182E+03  0.17300000000E+03 0.  1.
         -6    1    1    2    0  502  0.67710508315E+02  0.13007867994E+03  0.92645734156E+02  0.24498450557E+03  0.17300000000E+03 0. -1.
<mgrwt>
<rscale>  2 0.22679104E+03</rscale>
<asrwt>0</asrwt>
<pdfrwt beam="1">  1       21 0.34876720E-01 0.22679104E+03</pdfrwt>
<pdfrwt beam="2">  1       21 0.45894522E-01 0.22679104E+03</pdfrwt>
<totfact> 0.35444009E+04</totfact>
</mgrwt>
</event>
<event>
 4    1  0.3976152E+000  0.1902708E+03  0.7546771E-02  0.1158217E+00
         21   -1    0    0  501  502  0.00000000000E+00  0.00000000000E+00  0.93339383802E+03  0.93339383802E+03  0.00000000000E+00 0. -1.
         21   -1    0    0  502  503 -0.00000000000E+00 -0.00000000000E+00 -0.20447383787E+03  0.20447383787E+03  0.00000000000E+00 0.  1.
          6    1    1    2  501    0  0.79208356509E+02  0.97682929898E-01  0.87659882470E+03  0.89701085431E+03  0.17300000000E+03 0. -1.
         -6    1    1    2    0  503 -0.79208356509E+02 -0.97682929898E-01 -0.14767882455E+03  0.24085682158E+03  0.17300000000E+03 0.  1.
<mgrwt>
<rscale>  2 0.19027079E+03</rscale>
<asrwt>0</asrwt>
<pdfrwt beam="1">  1       21 0.14359905E+00 0.19027079E+03</pdfrwt>
<pdfrwt beam="2">  1       21 0.31457514E-01 0.19027079E+03</pdfrwt>
<totfact> 0.32610840E+03</totfact>
</mgrwt>
</event>
<event>
 4    1  0.3976152E+000  0.1824720E+03  0.7546771E-02  0.1165432E+00
         21   -1    0    0  501  502  0.00000000000E+00  0.00000000000E+00  0.11929627902E+03  0.11929627902E+03  0.00000000000E+00 0.  1.
         21   -1    0    0  502  503 -0.00000000000E+00 -0.00000000000E+00 -0.38995814157E+03  0.38995814157E+03  0.00000000000E+00 0.  1.
          6    1    1    2  501    0  0.45877207787E+02 -0.35529243713E+02  0.42917216714E+00  0.18247254462E+03  0.17300000000E+03 0.  1.
         -6    1    1    2    0  503 -0.45877207787E+02  0.35529243713E+02 -0.27109103472E+03  0.32678187596E+03  0.17300000000E+03 0.  1.
<mgrwt>
<rscale>  2 0.18247204E+03</rscale>
<asrwt>0</asrwt>
<pdfrwt beam="1">  1       21 0.18353274E-01 0.18247204E+03</pdfrwt>
<pdfrwt beam="2">  1       21 0.59993561E-01 0.18247204E+03</pdfrwt>
<totfact> 0.70501786E+04</totfact>
</mgrwt>
</event>
<event>
 4    1  0.3976152E+000  0.1957881E+03  0.7546771E-02  0.1153342E+00
         21   -1    0    0  503  502  0.00000000000E+00  0.00000000000E+00  0.38145605662E+02  0.38145605662E+02  0.00000000000E+00 0.  1.
         21   -1    0    0  501  503 -0.00000000000E+00 -0.00000000000E+00 -0.10125733422E+04  0.10125733422E+04  0.00000000000E+00 0.  1.
          6    1    1    2  501    0 -0.76707707541E+02 -0.50198820590E+02 -0.53291037922E+03  0.56773802609E+03  0.17300000000E+03 0.  1.
         -6    1    1    2    0  502  0.76707707541E+02  0.50198820590E+02 -0.44151735732E+03  0.48298092178E+03  0.17300000000E+03 0.  1.
<mgrwt>
<rscale>  2 0.19578814E+03</rscale>
<asrwt>0</asrwt>
<pdfrwt beam="1">  1       21 0.58685552E-02 0.19578814E+03</pdfrwt>
<pdfrwt beam="2">  1       21 0.15578050E+00 0.19578814E+03</pdfrwt>
<totfact> 0.55283794E+04</totfact>
</mgrwt>
</event>
<event>
 4    1  0.3976152E+000  0.3437938E+03  0.7546771E-02  0.1065192E+00
         21   -1    0    0  501  502  0.00000000000E+00  0.00000000000E+00  0.19136112920E+03  0.19136112920E+03  0.00000000000E+00 0. -1.
         21   -1    0    0  502  503 -0.00000000000E+00 -0.00000000000E+00 -0.10173770218E+04  0.10173770218E+04  0.00000000000E+00 0.  1.
          6    1    1    2  501    0 -0.71880220197E+02  0.28826798533E+03 -0.34179103613E+02  0.34548865183E+03  0.17300000000E+03 0.  1.
         -6    1    1    2    0  503  0.71880220197E+02 -0.28826798533E+03 -0.79183678896E+03  0.86324949915E+03  0.17300000000E+03 0.  1.
<mgrwt>
<rscale>  2 0.34379383E+03</rscale>
<asrwt>0</asrwt>
<pdfrwt beam="1">  1       21 0.29440175E-01 0.34379383E+03</pdfrwt>
<pdfrwt beam="2">  1       21 0.15651954E+00 0.34379383E+03</pdfrwt>
<totfact> 0.26582226E+03</totfact>
</mgrwt>
</event>
<event>
 4    1  0.3976152E+000  0.1746059E+03  0.7546771E-02  0.1173128E+00
         21   -1    0    0  501  502  0.00000000000E+00  0.00000000000E+00  0.72049568530E+03  0.72049568530E+03  0.00000000000E+00 0.  1.
         21   -1    0    0  502  503 -0.00000000000E+00 -0.00000000000E+00 -0.44464616289E+02  0.44464616289E+02  0.00000000000E+00 0.  1.
          6    1    1    2  501    0 -0.47982070812E+01 -0.23134538538E+02  0.42212764572E+03  0.45681394346E+03  0.17300000000E+03 0.  1.
         -6    1    1    2    0  503  0.47982070812E+01  0.23134538538E+02  0.25390342329E+03  0.30814635812E+03  0.17300000000E+03 0.  1.
<mgrwt>
<rscale>  2 0.17460593E+03</rscale>
<asrwt>0</asrwt>
<pdfrwt beam="1">  1       21 0.11084548E+00 0.17460593E+03</pdfrwt>
<pdfrwt beam="2">  1       21 0.68407107E-02 0.17460593E+03</pdfrwt>
<totfact> 0.10168488E+05</totfact>
</mgrwt>
</event>
<event>
 4    1  0.3976152E+000  0.1795241E+03  0.7546771E-02  0.1168264E+00
         21   -1    0    0  501  502  0.00000000000E+00  0.00000000000E+00  0.12916580035E+03  0.12916580035E+03  0.00000000000E+00 0.  1.
         21   -1    0    0  502  503 -0.00000000000E+00 -0.00000000000E+00 -0.26861672860E+03  0.26861672860E+03  0.00000000000E+00 0.  1.
          6    1    1    2  501    0  0.25952367251E+02 -0.40328559435E+02 -0.16688881140E+02  0.18029818864E+03  0.17300000000E+03 0.  1.
         -6    1    1    2    0  503 -0.25952367251E+02  0.40328559435E+02 -0.12276204711E+03  0.21748434032E+03  0.17300000000E+03 0.  1.
<mgrwt>
<rscale>  2 0.17952414E+03</rscale>
<asrwt>0</asrwt>
<pdfrwt beam="1">  1       21 0.19871662E-01 0.17952414E+03</pdfrwt>
<pdfrwt beam="2">  1       21 0.41325651E-01 0.17952414E+03</pdfrwt>
<totfact> 0.13231992E+05</totfact>
</mgrwt>
</event>
<event>
 4    1  0.3976152E+000  0.3017987E+03  0.7546771E-02  0.1084345E+00
         21   -1    0    0  503  502  0.00000000000E+00  0.00000000000E+00  0.48305639894E+03  0.48305639894E+03  0.00000000000E+00 0.  1.
         21   -1    0    0  501  503 -0.00000000000E+00 -0.00000000000E+00 -0.28620786804E+03  0.28620786804E+03  0.00000000000E+00 0.  1.
          6    1    1    2  501    0 -0.18612399819E+02  0.24659083329E+03 -0.12624743916E+03  0.32714045360E+03  0.17300000000E+03 0.  1.
         -6    1    1    2    0  502  0.18612399819E+02 -0.24659083329E+03  0.32309597007E+03  0.44212381338E+03  0.17300000000E+03 0.  1.
<mgrwt>
<rscale>  2 0.30179871E+03</rscale>
<asrwt>0</asrwt>
<pdfrwt beam="1">  1       21 0.74316369E-01 0.30179871E+03</pdfrwt>
<pdfrwt beam="2">  1       21 0.44031980E-01 0.30179871E+03</pdfrwt>
<totfact> 0.75382143E+03</totfact>
</mgrwt>
</event>
<event>
 4    1  0.3976152E+000  0.1758950E+03  0.7546771E-02  0.1171836E+00
         21   -1    0    0  503  502  0.00000000000E+00  0.00000000000E+00  0.34696104666E+03  0.34696104666E+03  0.00000000000E+00 0. -1.
         21   -1    0    0  501  503 -0.00000000000E+00 -0.00000000000E+00 -0.12726880707E+03  0.12726880707E+03  0.00000000000E+00 0. -1.
          6    1    1    2  501    0  0.69595692395E+01  0.31009786728E+02 -0.19885235943E+02  0.17701543742E+03  0.17300000000E+03 0. -1.
         -6    1    1    2    0  502 -0.69595692395E+01 -0.31009786728E+02  0.23957747554E+03  0.29721441631E+03  0.17300000000E+03 0. -1.
<mgrwt>
<rscale>  2 0.17589498E+03</rscale>
<asrwt>0</asrwt>
<pdfrwt beam="1">  1       21 0.53378622E-01 0.17589498E+03</pdfrwt>
<pdfrwt beam="2">  1       21 0.19579817E-01 0.17589498E+03</pdfrwt>
<totfact> 0.80347354E+04</totfact>
</mgrwt>
</event>
<event>
 4    1  0.3976152E+000  0.2135088E+03  0.7546771E-02  0.1138817E+00
         21   -1    0    0  501  502  0.00000000000E+00  0.00000000000E+00  0.28402439455E+03  0.28402439455E+03  0.00000000000E+00 0. -1.
         21   -1    0    0  502  503 -0.00000000000E+00 -0.00000000000E+00 -0.17667064897E+03  0.17667064897E+03  0.00000000000E+00 0. -1.
          6    1    1    2  501    0  0.12304400236E+03 -0.22741964606E+02  0.12336518617E+03  0.24658668380E+03  0.17300000000E+03 0. -1.
         -6    1    1    2    0  503 -0.12304400236E+03  0.22741964606E+02 -0.16011440596E+02  0.21410835972E+03  0.17300000000E+03 0. -1.
<mgrwt>
<rscale>  2 0.21350884E+03</rscale>
<asrwt>0</asrwt>
<pdfrwt beam="1">  1       21 0.43696061E-01 0.21350884E+03</pdfrwt>
<pdfrwt beam="2">  1       21 0.27180100E-01 0.21350884E+03</pdfrwt>
<totfact> 0.64334542E+04</totfact>
</mgrwt>
</event>
<event>
 4    1  0.3976152E+000  0.1831975E+03  0.7546771E-02  0.1164744E+00
         21   -1    0    0  503  502  0.00000000000E+00  0.00000000000E+00  0.53183416220E+02  0.53183416220E+02  0.00000000000E+00 0. -1.
         21   -1    0    0  501  503 -0.00000000000E+00 -0.00000000000E+00 -0.64487257997E+03  0.64487257997E+03  0.00000000000E+00 0. -1.
          6    1    1    2  501    0  0.59109224540E+02 -0.11765513161E+02 -0.34694655627E+03  0.39234326888E+03  0.17300000000E+03 0. -1.
         -6    1    1    2    0  502 -0.59109224540E+02  0.11765513161E+02 -0.24474260748E+03  0.30571272732E+03  0.17300000000E+03 0. -1.
<mgrwt>
<rscale>  2 0.18319751E+03</rscale>
<asrwt>0</asrwt>
<pdfrwt beam="1">  1       21 0.81820640E-02 0.18319751E+03</pdfrwt>
<pdfrwt beam="2">  1       21 0.99211166E-01 0.18319751E+03</pdfrwt>
<totfact> 0.96900209E+04</totfact>
</mgrwt>
</event>
<event>
 4    1  0.3976152E+000  0.2415882E+03  0.7546771E-02  0.1118739E+00
         21   -1    0    0  503  502  0.00000000000E+00  0.00000000000E+00  0.16336934374E+03  0.16336934374E+03  0.00000000000E+00 0.  1.
         21   -1    0    0  501  503 -0.00000000000E+00 -0.00000000000E+00 -0.37714677424E+03  0.37714677424E+03  0.00000000000E+00 0.  1.
          6    1    1    2  501    0  0.10525537767E+03 -0.13174663664E+03 -0.16895223946E+03  0.29480456240E+03  0.17300000000E+03 0.  1.
         -6    1    1    2    0  502 -0.10525537767E+03  0.13174663664E+03 -0.44825191040E+02  0.24571155558E+03  0.17300000000E+03 0.  1.
<mgrwt>
<rscale>  2 0.24158823E+03</rscale>
<asrwt>0</asrwt>
<pdfrwt beam="1">  1       21 0.25133745E-01 0.24158823E+03</pdfrwt>
<pdfrwt beam="2">  1       21 0.58022580E-01 0.24158823E+03</pdfrwt>
<totfact> 0.40777351E+04</totfact>
</mgrwt>
</event>
<event>
 4    1  0.3976152E+000  0.1885589E+03  0.7546771E-02  0.1159768E+00
         21   -1    0    0  501  502  0.00000000000E+00  0.00000000000E+00  0.13919491055E+03  0.13919491055E+03  0.00000000000E+00 0.  1.
         21   -1    0    0  502  503 -0.00000000000E+00 -0.00000000000E+00 -0.34627219132E+03  0.34627219132E+03  0.00000000000E+00 0.  1.
          6    1    1    2  501    0 -0.68204313382E+02  0.31203205994E+02  0.20788603532E+02  0.18970143506E+03  0.17300000000E+03 0.  1.
         -6    1    1    2    0  503  0.68204313382E+02 -0.31203205994E+02 -0.22786588431E+03  0.29576566680E+03  0.17300000000E+03 0.  1.
<mgrwt>
<rscale>  2 0.18855893E+03</rscale>
<asrwt>0</asrwt>
<pdfrwt beam="1">  1       21 0.21414602E-01 0.18855893E+03</pdfrwt>
<pdfrwt beam="2">  1       21 0.53272645E-01 0.18855893E+03</pdfrwt>
<totfact> 0.67878353E+04</totfact>
</mgrwt>
</event>
<event>
 4    1  0.3976152E+000  0.2242620E+03  0.7546771E-02  0.1130745E+00
         21   -1    0    0  501  502  0.00000000000E+00  0.00000000000E+00  0.31621225706E+02  0.31621225706E+02  0.00000000000E+00 0. -1.
         21   -1    0    0  502  503 -0.00000000000E+00 -0.00000000000E+00 -0.20620518136E+04  0.20620518136E+04  0.00000000000E+00 0.  1.
          6    1    1    2  501    0  0.49637628127E+02 -0.13379293743E+03 -0.51460996746E+03  0.56135270806E+03  0.17300000000E+03 0. -1.
         -6    1    1    2    0  503 -0.49637628127E+02  0.13379293743E+03 -0.15158206204E+04  0.15323203313E+04  0.17300000000E+03 0.  1.
<mgrwt>
<rscale>  2 0.22426200E+03</rscale>
<asrwt>0</asrwt>
<pdfrwt beam="1">  1       21 0.48648026E-02 0.22426200E+03</pdfrwt>
<pdfrwt beam="2">  1       21 0.31723883E+00 0.22426200E+03</pdfrwt>
<totfact> 0.73937057E+03</totfact>
</mgrwt>
</event>
<event>
 4    1  0.3976152E+000  0.1933175E+03  0.7546771E-02  0.1155503E+00
         21   -1    0    0  501  502  0.00000000000E+00  0.00000000000E+00  0.41066290726E+03  0.41066290726E+03  0.00000000000E+00 0.  1.
         21   -1    0    0  502  503 -0.00000000000E+00 -0.00000000000E+00 -0.15453321497E+03  0.15453321497E+03  0.00000000000E+00 0.  1.
          6    1    1    2  501    0  0.86211268604E+02 -0.32070481534E+01  0.30926038162E+03  0.36471036677E+03  0.17300000000E+03 0.  1.
         -6    1    1    2    0  503 -0.86211268604E+02  0.32070481534E+01 -0.53130689332E+02  0.20048575546E+03  0.17300000000E+03 0.  1.
<mgrwt>
<rscale>  2 0.19331753E+03</rscale>
<asrwt>0</asrwt>
<pdfrwt beam="1">  1       21 0.63178908E-01 0.19331753E+03</pdfrwt>
<pdfrwt beam="2">  1       21 0.23774341E-01 0.19331753E+03</pdfrwt>
<totfact> 0.38629811E+04</totfact>
</mgrwt>
</event>
<event>
 4    1  0.3976152E+000  0.3189937E+03  0.7546771E-02  0.1076113E+00
         21   -1    0    0  503  502  0.00000000000E+00  0.00000000000E+00  0.18590355879E+03  0.18590355879E+03  0.00000000000E+00 0. -1.
         21   -1    0    0  501  503 -0.00000000000E+00 -0.00000000000E+00 -0.10028287804E+04  0.10028287804E+04  0.00000000000E+00 0.  1.
          6    1    1    2  501    0 -0.25849460052E+03  0.70770736141E+02 -0.80902298553E+03  0.86964081477E+03  0.17300000000E+03 0.  1.
         -6    1    1    2    0  502  0.25849460052E+03 -0.70770736141E+02 -0.79022360329E+01  0.31909152438E+03  0.17300000000E+03 0. -1.
<mgrwt>
<rscale>  2 0.31899366E+03</rscale>
<asrwt>0</asrwt>
<pdfrwt beam="1">  1       21 0.28600548E-01 0.31899366E+03</pdfrwt>
<pdfrwt beam="2">  1       21 0.15428135E+00 0.31899366E+03</pdfrwt>
<totfact> 0.29657241E+03</totfact>
</mgrwt>
</event>
<event>
 4    1  0.3976152E+000  0.2049498E+03  0.7546771E-02  0.1145629E+00
         21   -1    0    0  503  502  0.00000000000E+00  0.00000000000E+00  0.94306315952E+02  0.94306315952E+02  0.00000000000E+00 0.  1.
         21   -1    0    0  501  503 -0.00000000000E+00 -0.00000000000E+00 -0.56560021154E+03  0.56560021154E+03  0.00000000000E+00 0.  1.
          6    1    1    2  501    0 -0.84446928472E+02 -0.70314700626E+02 -0.38775158421E+03  0.43858377981E+03  0.17300000000E+03 0.  1.
         -6    1    1    2    0  502  0.84446928472E+02  0.70314700626E+02 -0.83542311378E+02  0.22132274769E+03  0.17300000000E+03 0.  1.
<mgrwt>
<rscale>  2 0.20494985E+03</rscale>
<asrwt>0</asrwt>
<pdfrwt beam="1">  1       21 0.14508664E-01 0.20494985E+03</pdfrwt>
<pdfrwt beam="2">  1       21 0.87015417E-01 0.20494985E+03</pdfrwt>
<totfact> 0.47031525E+04</totfact>
</mgrwt>
</event>
<event>
 4    1  0.3976152E+000  0.3088729E+03  0.7546771E-02  0.1080887E+00
         21   -1    0    0  503  502  0.00000000000E+00  0.00000000000E+00  0.46119172296E+03  0.46119172296E+03  0.00000000000E+00 0.  1.
         21   -1    0    0  501  503 -0.00000000000E+00 -0.00000000000E+00 -0.21209325425E+03  0.21209325425E+03  0.00000000000E+00 0.  1.
          6    1    1    2  501    0 -0.12387107063E+03 -0.22389603272E+03  0.71673135589E+02  0.31707966502E+03  0.17300000000E+03 0.  1.
         -6    1    1    2    0  502  0.12387107063E+03  0.22389603272E+03  0.17742533311E+03  0.35620531219E+03  0.17300000000E+03 0.  1.
<mgrwt>
<rscale>  2 0.30887291E+03</rscale>
<asrwt>0</asrwt>
<pdfrwt beam="1">  1       21 0.70952572E-01 0.30887291E+03</pdfrwt>
<pdfrwt beam="2">  1       21 0.32629732E-01 0.30887291E+03</pdfrwt>
<totfact> 0.15314231E+04</totfact>
</mgrwt>
</event>
<event>
 4    1  0.3976152E+000  0.2425606E+03  0.7546771E-02  0.1118099E+00
         21   -1    0    0  503  502  0.00000000000E+00  0.00000000000E+00  0.44918576912E+02  0.44918576912E+02  0.00000000000E+00 0.  1.
         21   -1    0    0  501  503 -0.00000000000E+00 -0.00000000000E+00 -0.19433897199E+04  0.19433897199E+04  0.00000000000E+00 0. -1.
          6    1    1    2  501    0 -0.93556323459E+02  0.14196422637E+03 -0.15168691911E+04  0.15361405438E+04  0.17300000000E+03 0. -1.
         -6    1    1    2    0  502  0.93556323459E+02 -0.14196422637E+03 -0.38160195186E+03  0.45216775305E+03  0.17300000000E+03 0.  1.
<mgrwt>
<rscale>  2 0.24256056E+03</rscale>
<asrwt>0</asrwt>
<pdfrwt beam="1">  1       21 0.69105497E-02 0.24256056E+03</pdfrwt>
<pdfrwt beam="2">  1       21 0.29898306E+00 0.24256056E+03</pdfrwt>
<totfact> 0.50810753E+03</totfact>
</mgrwt>
</event>
<event>
 4    1  0.3976152E+000  0.1905254E+03  0.7546771E-02  0.1157988E+00
         21   -1    0    0  503  502  0.00000000000E+00  0.00000000000E+00  0.40206154868E+03  0.40206154868E+03  0.00000000000E+00 0. -1.
         21   -1    0    0  501  503 -0.00000000000E+00 -0.00000000000E+00 -0.97515766348E+02  0.97515766348E+02  0.00000000000E+00 0. -1.
          6    1    1    2  501    0  0.72529980896E+02 -0.33321452585E+02  0.84251875357E+02  0.20832257639E+03  0.17300000000E+03 0. -1.
         -6    1    1    2    0  502 -0.72529980896E+02  0.33321452585E+02  0.22029390698E+03  0.29125473864E+03  0.17300000000E+03 0. -1.
<mgrwt>
<rscale>  2 0.19052537E+03</rscale>
<asrwt>0</asrwt>
<pdfrwt beam="1">  1       21 0.61855622E-01 0.19052537E+03</pdfrwt>
<pdfrwt beam="2">  1       21 0.15002426E-01 0.19052537E+03</pdfrwt>
<totfact> 0.95251106E+04</totfact>
</mgrwt>
</event>
<event>
 4    1  0.3976152E+000  0.2021784E+03  0.7546771E-02  0.1147914E+00
         21   -1    0    0  503  502  0.00000000000E+00  0.00000000000E+00  0.41643793706E+03  0.41643793706E+03  0.00000000000E+00 0. -1.
         21   -1    0    0  501  503 -0.00000000000E+00 -0.00000000000E+00 -0.99032771251E+02  0.99032771251E+02  0.00000000000E+00 0. -1.
          6    1    1    2  501    0 -0.36488057036E+02 -0.98059770195E+02  0.18294634215E+03  0.27266364067E+03  0.17300000000E+03 0. -1.
         -6    1    1    2    0  502  0.36488057036E+02  0.98059770195E+02  0.13445882366E+03  0.24280706764E+03  0.17300000000E+03 0. -1.
<mgrwt>
<rscale>  2 0.20217838E+03</rscale>
<asrwt>0</asrwt>
<pdfrwt beam="1">  1       21 0.64067374E-01 0.20217838E+03</pdfrwt>
<pdfrwt beam="2">  1       21 0.15235811E-01 0.20217838E+03</pdfrwt>
<totfact> 0.85404225E+04</totfact>
</mgrwt>
</event>
<event>
 4    1  0.3976152E+000  0.1970310E+03  0.7546771E-02  0.1152268E+00
         21   -1    0    0  503  502  0.00000000000E+00  0.00000000000E+00  0.33633931502E+02  0.33633931502E+02  0.00000000000E+00 0.  1.
         21   -1    0    0  501  503 -0.00000000000E+00 -0.00000000000E+00 -0.11656734398E+04  0.11656734398E+04  0.00000000000E+00 0.  1.
          6    1    1    2  501    0 -0.91723544889E+02  0.21886643717E+02 -0.62543851327E+03  0.65573971036E+03  0.17300000000E+03 0.  1.
         -6    1    1    2    0  502  0.91723544889E+02 -0.21886643717E+02 -0.50660099504E+03  0.54356766095E+03  0.17300000000E+03 0.  1.
<mgrwt>
<rscale>  2 0.19703105E+03</rscale>
<asrwt>0</asrwt>
<pdfrwt beam="1">  1       21 0.51744519E-02 0.19703105E+03</pdfrwt>
<pdfrwt beam="2">  1       21 0.17933434E+00 0.19703105E+03</pdfrwt>
<totfact> 0.46535552E+04</totfact>
</mgrwt>
</event>
<event>
 4    1  0.3976152E+000  0.1824015E+03  0.7546771E-02  0.1165499E+00
         21   -1    0    0  501  502  0.00000000000E+00  0.00000000000E+00  0.73115542616E+03  0.73115542616E+03  0.00000000000E+00 0. -1.
         21   -1    0    0  502  503 -0.00000000000E+00 -0.00000000000E+00 -0.12352078641E+03  0.12352078641E+03  0.00000000000E+00 0. -1.
          6    1    1    2  501    0 -0.46159392175E+02  0.34793808419E+02  0.64343976099E+03  0.66879370857E+03  0.17300000000E+03 0. -1.
         -6    1    1    2    0  503  0.46159392175E+02 -0.34793808419E+02 -0.35805121241E+02  0.18588250401E+03  0.17300000000E+03 0. -1.
<mgrwt>
<rscale>  2 0.18240148E+03</rscale>
<asrwt>0</asrwt>
<pdfrwt beam="1">  1       21 0.11248545E+00 0.18240148E+03</pdfrwt>
<pdfrwt beam="2">  1       21 0.19003198E-01 0.18240148E+03</pdfrwt>
<totfact> 0.15814543E+04</totfact>
</mgrwt>
</event>
<event>
 4    1  0.3976152E+000  0.2095386E+03  0.7546771E-02  0.1141932E+00
         21   -1    0    0  503  502  0.00000000000E+00  0.00000000000E+00  0.10873777095E+03  0.10873777095E+03  0.00000000000E+00 0. -1.
         21   -1    0    0  501  503 -0.00000000000E+00 -0.00000000000E+00 -0.15157924459E+04  0.15157924459E+04  0.00000000000E+00 0.  1.
          6    1    1    2  501    0 -0.46349455629E+02 -0.10876196360E+03 -0.13992436956E+04  0.14148460540E+04  0.17300000000E+03 0.  1.
         -6    1    1    2    0  502  0.46349455629E+02  0.10876196360E+03 -0.78109793515E+01  0.20968416288E+03  0.17300000000E+03 0. -1.
<mgrwt>
<rscale>  2 0.20953863E+03</rscale>
<asrwt>0</asrwt>
<pdfrwt beam="1">  1       21 0.16728888E-01 0.20953863E+03</pdfrwt>
<pdfrwt beam="2">  1       21 0.23319883E+00 0.20953863E+03</pdfrwt>
<totfact> 0.26412172E+03</totfact>
</mgrwt>
</event>
<event>
 4    1  0.3976152E+000  0.2404911E+03  0.7546771E-02  0.1119466E+00
         21   -1    0    0  501  502  0.00000000000E+00  0.00000000000E+00  0.90072199447E+03  0.90072199447E+03  0.00000000000E+00 0.  1.
         21   -1    0    0  502  503 -0.00000000000E+00 -0.00000000000E+00 -0.28501873408E+03  0.28501873408E+03  0.00000000000E+00 0. -1.
          6    1    1    2  501    0  0.10893260083E+03  0.12665176253E+03  0.82968336177E+03  0.86383474187E+03  0.17300000000E+03 0.  1.
         -6    1    1    2    0  503 -0.10893260083E+03 -0.12665176253E+03 -0.21398010138E+03  0.32190598668E+03  0.17300000000E+03 0. -1.
<mgrwt>
<rscale>  2 0.24049112E+03</rscale>
<asrwt>0</asrwt>
<pdfrwt beam="1">  1       21 0.13857261E+00 0.24049112E+03</pdfrwt>
<pdfrwt beam="2">  1       21 0.43849037E-01 0.24049112E+03</pdfrwt>
<totfact> 0.17605440E+03</totfact>
</mgrwt>
</event>
<event>
 4    1  0.3976152E+000  0.2672856E+03  0.7546771E-02  0.1102843E+00
         21   -1    0    0  503  502  0.00000000000E+00  0.00000000000E+00  0.17390461610E+03  0.17390461610E+03  0.00000000000E+00 0.  1.
         21   -1    0    0  501  503 -0.00000000000E+00 -0.00000000000E+00 -0.43909597946E+03  0.43909597946E+03  0.00000000000E+00 0. -1.
          6    1    1    2  501    0  0.79914366182E+02  0.18742003001E+03 -0.21038944929E+03  0.34015480879E+03  0.17300000000E+03 0. -1.
         -6    1    1    2    0  502 -0.79914366182E+02 -0.18742003001E+03 -0.54801914069E+02  0.27284578677E+03  0.17300000000E+03 0. -1.
<mgrwt>
<rscale>  2 0.26728557E+03</rscale>
<asrwt>0</asrwt>
<pdfrwt beam="1">  1       21 0.26754556E-01 0.26728557E+03</pdfrwt>
<pdfrwt beam="2">  1       21 0.67553229E-01 0.26728557E+03</pdfrwt>
<totfact> 0.25668614E+04</totfact>
</mgrwt>
</event>
<event>
 4    1  0.3976152E+000  0.1914487E+03  0.7546771E-02  0.1157161E+00
         21   -1    0    0  503  502  0.00000000000E+00  0.00000000000E+00  0.34494723664E+02  0.34494723664E+02  0.00000000000E+00 0. -1.
         21   -1    0    0  501  503 -0.00000000000E+00 -0.00000000000E+00 -0.10680728576E+04  0.10680728576E+04  0.00000000000E+00 0. -1.
          6    1    1    2  501    0 -0.13922256999E+02  0.80807076742E+02 -0.55640575028E+03  0.58842159362E+03  0.17300000000E+03 0. -1.
         -6    1    1    2    0  502  0.13922256999E+02 -0.80807076742E+02 -0.47717238369E+03  0.51414598768E+03  0.17300000000E+03 0. -1.
<mgrwt>
<rscale>  2 0.19144872E+03</rscale>
<asrwt>0</asrwt>
<pdfrwt beam="1">  1       21 0.53068815E-02 0.19144872E+03</pdfrwt>
<pdfrwt beam="2">  1       21 0.16431887E+00 0.19144872E+03</pdfrwt>
<totfact> 0.56971288E+04</totfact>
</mgrwt>
</event>
<event>
 4    1  0.3976152E+000  0.4982495E+03  0.7546771E-02  0.1014237E+00
         21   -1    0    0  501  502  0.00000000000E+00  0.00000000000E+00  0.48552443327E+03  0.48552443327E+03  0.00000000000E+00 0.  1.
         21   -1    0    0  502  503 -0.00000000000E+00 -0.00000000000E+00 -0.10013558669E+04  0.10013558669E+04  0.00000000000E+00 0. -1.
          6    1    1    2  501    0  0.55151432537E+02 -0.46398478489E+03  0.26216530803E+03  0.56301261962E+03  0.17300000000E+03 0.  1.
         -6    1    1    2    0  503 -0.55151432537E+02  0.46398478489E+03 -0.77799674162E+03  0.92386768051E+03  0.17300000000E+03 0. -1.
<mgrwt>
<rscale>  2 0.49824950E+03</rscale>
<asrwt>0</asrwt>
<pdfrwt beam="1">  1       21 0.74696067E-01 0.49824950E+03</pdfrwt>
<pdfrwt beam="2">  1       21 0.15405475E+00 0.49824950E+03</pdfrwt>
<totfact> 0.36154574E+02</totfact>
</mgrwt>
</event>
<event>
 4    1  0.3976152E+000  0.2118608E+03  0.7546771E-02  0.1140101E+00
         21   -1    0    0  503  502  0.00000000000E+00  0.00000000000E+00  0.77908362783E+03  0.77908362783E+03  0.00000000000E+00 0. -1.
         21   -1    0    0  501  503 -0.00000000000E+00 -0.00000000000E+00 -0.67205239973E+02  0.67205239973E+02  0.00000000000E+00 0.  1.
          6    1    1    2  501    0  0.35801547051E+02  0.11693692986E+03  0.19607278694E+03  0.28866855408E+03  0.17300000000E+03 0.  1.
         -6    1    1    2    0  502 -0.35801547051E+02 -0.11693692986E+03  0.51580560092E+03  0.55762031372E+03  0.17300000000E+03 0. -1.
<mgrwt>
<rscale>  2 0.21186079E+03</rscale>
<asrwt>0</asrwt>
<pdfrwt beam="1">  1       21 0.11985901E+00 0.21186079E+03</pdfrwt>
<pdfrwt beam="2">  1       21 0.10339268E-01 0.21186079E+03</pdfrwt>
<totfact> 0.40090165E+04</totfact>
</mgrwt>
</event>
<event>
 4    1  0.3976152E+000  0.1740589E+03  0.7546771E-02  0.1173680E+00
         21   -1    0    0  501  502  0.00000000000E+00  0.00000000000E+00  0.64940468116E+03  0.64940468116E+03  0.00000000000E+00 0. -1.
         21   -1    0    0  502  503 -0.00000000000E+00 -0.00000000000E+00 -0.53766586814E+02  0.53766586814E+02  0.00000000000E+00 0. -1.
          6    1    1    2  501    0 -0.18195066279E+02  0.60373056934E+01  0.42570624149E+03  0.45991555044E+03  0.17300000000E+03 0. -1.
         -6    1    1    2    0  503  0.18195066279E+02 -0.60373056934E+01  0.16993185286E+03  0.24325571754E+03  0.17300000000E+03 0. -1.
<mgrwt>
<rscale>  2 0.17405893E+03</rscale>
<asrwt>0</asrwt>
<pdfrwt beam="1">  1       21 0.99908407E-01 0.17405893E+03</pdfrwt>
<pdfrwt beam="2">  1       21 0.82717830E-02 0.17405893E+03</pdfrwt>
<totfact> 0.93885971E+04</totfact>
</mgrwt>
</event>
<event>
 4    1  0.3976152E+000  0.2260879E+03  0.7546771E-02  0.1129424E+00
         21   -1    0    0  501  502  0.00000000000E+00  0.00000000000E+00  0.68992202007E+03  0.68992202007E+03  0.00000000000E+00 0. -1.
         21   -1    0    0  502  503 -0.00000000000E+00 -0.00000000000E+00 -0.14445070213E+03  0.14445070213E+03  0.00000000000E+00 0.  1.
          6    1    1    2  501    0  0.31319282993E+02  0.14214726544E+03  0.56389984167E+03  0.60753499817E+03  0.17300000000E+03 0. -1.
         -6    1    1    2    0  503 -0.31319282993E+02 -0.14214726544E+03 -0.18428523737E+02  0.22683772404E+03  0.17300000000E+03 0.  1.
<mgrwt>
<rscale>  2 0.22608791E+03</rscale>
<asrwt>0</asrwt>
<pdfrwt beam="1">  1       21 0.10614185E+00 0.22608791E+03</pdfrwt>
<pdfrwt beam="2">  1       21 0.22223185E-01 0.22608791E+03</pdfrwt>
<totfact> 0.13193778E+04</totfact>
</mgrwt>
</event>
<event>
 4    1  0.3976152E+000  0.2717575E+03  0.7546771E-02  0.1100278E+00
         21   -1    0    0  503  502  0.00000000000E+00  0.00000000000E+00  0.23541234273E+03  0.23541234273E+03  0.00000000000E+00 0.  1.
         21   -1    0    0  501  503 -0.00000000000E+00 -0.00000000000E+00 -0.72521325958E+03  0.72521325958E+03  0.00000000000E+00 0. -1.
          6    1    1    2  501    0  0.18785012088E+03 -0.92927316784E+02 -0.60670649460E+03  0.66478938372E+03  0.17300000000E+03 0. -1.
         -6    1    1    2    0  502 -0.18785012088E+03  0.92927316784E+02  0.11690557775E+03  0.29583621859E+03  0.17300000000E+03 0.  1.
<mgrwt>
<rscale>  2 0.27175753E+03</rscale>
<asrwt>0</asrwt>
<pdfrwt beam="1">  1       21 0.36217284E-01 0.27175753E+03</pdfrwt>
<pdfrwt beam="2">  1       21 0.11157127E+00 0.27175753E+03</pdfrwt>
<totfact> 0.43888729E+03</totfact>
</mgrwt>
</event>
<event>
 4    1  0.3976152E+000  0.3089254E+03  0.7546771E-02  0.1080862E+00
         21   -1    0    0  503  502  0.00000000000E+00  0.00000000000E+00  0.72421833845E+03  0.72421833845E+03  0.00000000000E+00 0.  1.
         21   -1    0    0  501  503 -0.00000000000E+00 -0.00000000000E+00 -0.13572027597E+03  0.13572027597E+03  0.00000000000E+00 0. -1.
          6    1    1    2  501    0 -0.14910813266E+03  0.20802084588E+03  0.36754414661E+03  0.48012874029E+03  0.17300000000E+03 0.  1.
         -6    1    1    2    0  502  0.14910813266E+03 -0.20802084588E+03  0.22095391587E+03  0.37980987413E+03  0.17300000000E+03 0. -1.
<mgrwt>
<rscale>  2 0.30892541E+03</rscale>
<asrwt>0</asrwt>
<pdfrwt beam="1">  1       21 0.11141820E+00 0.30892541E+03</pdfrwt>
<pdfrwt beam="2">  1       21 0.20880043E-01 0.30892541E+03</pdfrwt>
<totfact> 0.12645786E+04</totfact>
</mgrwt>
</event>
<event>
 4    1  0.3976152E+000  0.1933385E+03  0.7546771E-02  0.1155484E+00
         21   -1    0    0  501  502  0.00000000000E+00  0.00000000000E+00  0.17908864381E+03  0.17908864381E+03  0.00000000000E+00 0.  1.
         21   -1    0    0  502  503 -0.00000000000E+00 -0.00000000000E+00 -0.21072803367E+03  0.21072803367E+03  0.00000000000E+00 0.  1.
          6    1    1    2  501    0  0.55246277171E+02  0.66322183355E+02  0.31960016230E+01  0.19336493367E+03  0.17300000000E+03 0.  1.
         -6    1    1    2    0  503 -0.55246277171E+02 -0.66322183355E+02 -0.34835391486E+02  0.19645174381E+03  0.17300000000E+03 0.  1.
<mgrwt>
<rscale>  2 0.19333852E+03</rscale>
<asrwt>0</asrwt>
<pdfrwt beam="1">  1       21 0.27552099E-01 0.19333852E+03</pdfrwt>
<pdfrwt beam="2">  1       21 0.32419697E-01 0.19333852E+03</pdfrwt>
<totfact> 0.11504675E+05</totfact>
</mgrwt>
</event>
<event>
 4    1  0.3976152E+000  0.2812955E+03  0.7546771E-02  0.1094983E+00
         21   -1    0    0  501  502  0.00000000000E+00  0.00000000000E+00  0.49071732724E+03  0.49071732724E+03  0.00000000000E+00 0.  1.
         21   -1    0    0  502  503 -0.00000000000E+00 -0.00000000000E+00 -0.16726517286E+03  0.16726517286E+03  0.00000000000E+00 0. -1.
          6    1    1    2  501    0 -0.26319249008E+02 -0.22023957431E+03  0.99326893988E+02  0.29831695364E+03  0.17300000000E+03 0.  1.
         -6    1    1    2    0  503  0.26319249008E+02  0.22023957431E+03  0.22412526040E+03  0.35966554646E+03  0.17300000000E+03 0.  1.
<mgrwt>
<rscale>  2 0.28129553E+03</rscale>
<asrwt>0</asrwt>
<pdfrwt beam="1">  1       21 0.75494972E-01 0.28129553E+03</pdfrwt>
<pdfrwt beam="2">  1       21 0.25733104E-01 0.28129553E+03</pdfrwt>
<totfact> 0.21462977E+04</totfact>
</mgrwt>
</event>
<event>
 4    1  0.3976152E+000  0.2054943E+03  0.7546771E-02  0.1145184E+00
         21   -1    0    0  503  502  0.00000000000E+00  0.00000000000E+00  0.60254615028E+02  0.60254615028E+02  0.00000000000E+00 0. -1.
         21   -1    0    0  501  503 -0.00000000000E+00 -0.00000000000E+00 -0.71148330809E+03  0.71148330809E+03  0.00000000000E+00 0.  1.
          6    1    1    2  501    0  0.11078583497E+03 -0.50423528643E+01 -0.37284308721E+03  0.42572279036E+03  0.17300000000E+03 0.  1.
         -6    1    1    2    0  502 -0.11078583497E+03  0.50423528643E+01 -0.27838560585E+03  0.34601513276E+03  0.17300000000E+03 0. -1.
<mgrwt>
<rscale>  2 0.20549435E+03</rscale>
<asrwt>0</asrwt>
<pdfrwt beam="1">  1       21 0.92699404E-02 0.20549435E+03</pdfrwt>
<pdfrwt beam="2">  1       21 0.10945897E+00 0.20549435E+03</pdfrwt>
<totfact> 0.60907036E+04</totfact>
</mgrwt>
</event>
<event>
 4    1  0.3976152E+000  0.1843315E+03  0.7546771E-02  0.1163676E+00
         21   -1    0    0  503  502  0.00000000000E+00  0.00000000000E+00  0.60762586944E+02  0.60762586944E+02  0.00000000000E+00 0. -1.
         21   -1    0    0  501  503 -0.00000000000E+00 -0.00000000000E+00 -0.58338076877E+03  0.58338076877E+03  0.00000000000E+00 0. -1.
          6    1    1    2  501    0 -0.63632383674E+02 -0.13305647077E+00 -0.32688765070E+03  0.37527807575E+03  0.17300000000E+03 0. -1.
         -6    1    1    2    0  502  0.63632383674E+02  0.13305647077E+00 -0.19573053112E+03  0.26886527996E+03  0.17300000000E+03 0. -1.
<mgrwt>
<rscale>  2 0.18433149E+03</rscale>
<asrwt>0</asrwt>
<pdfrwt beam="1">  1       21 0.93480903E-02 0.18433149E+03</pdfrwt>
<pdfrwt beam="2">  1       21 0.89750887E-01 0.18433149E+03</pdfrwt>
<totfact> 0.96948890E+04</totfact>
</mgrwt>
</event>
<event>
 4    1  0.3976152E+000  0.1985078E+03  0.7546771E-02  0.1151004E+00
         21   -1    0    0  501  502  0.00000000000E+00  0.00000000000E+00  0.20338933293E+03  0.20338933293E+03  0.00000000000E+00 0. -1.
         21   -1    0    0  502  503 -0.00000000000E+00 -0.00000000000E+00 -0.68372032471E+03  0.68372032471E+03  0.00000000000E+00 0. -1.
          6    1    1    2  501    0 -0.26979207520E+02  0.93533290601E+02  0.13532232195E+03  0.24024463554E+03  0.17300000000E+03 0. -1.
         -6    1    1    2    0  503  0.26979207520E+02 -0.93533290601E+02 -0.61565331374E+03  0.64686502209E+03  0.17300000000E+03 0. -1.
<mgrwt>
<rscale>  2 0.19850782E+03</rscale>
<asrwt>0</asrwt>
<pdfrwt beam="1">  1       21 0.31290666E-01 0.19850782E+03</pdfrwt>
<pdfrwt beam="2">  1       21 0.10518774E+00 0.19850782E+03</pdfrwt>
<totfact> 0.71083999E+03</totfact>
</mgrwt>
</event>
<event>
 4    1  0.3976152E+000  0.2044777E+03  0.7546771E-02  0.1146015E+00
         21   -1    0    0  503  502  0.00000000000E+00  0.00000000000E+00  0.52019391343E+02  0.52019391343E+02  0.00000000000E+00 0. -1.
         21   -1    0    0  501  503 -0.00000000000E+00 -0.00000000000E+00 -0.17301791507E+04  0.17301791507E+04  0.00000000000E+00 0.  1.
          6    1    1    2  501    0  0.10568914694E+03  0.26681832812E+02 -0.14911349380E+04  0.15050895386E+04  0.17300000000E+03 0.  1.
         -6    1    1    2    0  502 -0.10568914694E+03 -0.26681832812E+02 -0.18702482145E+03  0.27710900350E+03  0.17300000000E+03 0. -1.
<mgrwt>
<rscale>  2 0.20447767E+03</rscale>
<asrwt>0</asrwt>
<pdfrwt beam="1">  1       21 0.80029831E-02 0.20447767E+03</pdfrwt>
<pdfrwt beam="2">  1       21 0.26618141E+00 0.20447767E+03</pdfrwt>
<totfact> 0.63378003E+03</totfact>
</mgrwt>
</event>
<event>
 4    1  0.3976152E+000  0.1927885E+03  0.7546771E-02  0.1155970E+00
         21   -1    0    0  501  502  0.00000000000E+00  0.00000000000E+00  0.54909453928E+02  0.54909453928E+02  0.00000000000E+00 0. -1.
         21   -1    0    0  502  503 -0.00000000000E+00 -0.00000000000E+00 -0.72548341007E+03  0.72548341007E+03  0.00000000000E+00 0.  1.
          6    1    1    2  501    0 -0.84335725386E+02  0.11220278264E+02 -0.23429690895E+03  0.30341794733E+03  0.17300000000E+03 0. -1.
         -6    1    1    2    0  503  0.84335725386E+02 -0.11220278264E+02 -0.43627704719E+03  0.47697491667E+03  0.17300000000E+03 0. -1.
<mgrwt>
<rscale>  2 0.19278851E+03</rscale>
<asrwt>0</asrwt>
<pdfrwt beam="1">  1       21 0.84476093E-02 0.19278851E+03</pdfrwt>
<pdfrwt beam="2">  1       21 0.11161282E+00 0.19278851E+03</pdfrwt>
<totfact> 0.68805746E+04</totfact>
</mgrwt>
</event>
<event>
 4    1  0.3976152E+000  0.3482854E+03  0.7546771E-02  0.1063321E+00
         21   -1    0    0  501  502  0.00000000000E+00  0.00000000000E+00  0.50577619581E+03  0.50577619581E+03  0.00000000000E+00 0.  1.
         21   -1    0    0  502  503 -0.00000000000E+00 -0.00000000000E+00 -0.24025506428E+03  0.24025506428E+03  0.00000000000E+00 0. -1.
          6    1    1    2  501    0 -0.28747480954E+03  0.93444872563E+02  0.11715875822E+03  0.36746276676E+03  0.17300000000E+03 0. -1.
         -6    1    1    2    0  503  0.28747480954E+03 -0.93444872563E+02  0.14836237332E+03  0.37856849333E+03  0.17300000000E+03 0. -1.
<mgrwt>
<rscale>  2 0.34828539E+03</rscale>
<asrwt>0</asrwt>
<pdfrwt beam="1">  1       21 0.77811723E-01 0.34828539E+03</pdfrwt>
<pdfrwt beam="2">  1       21 0.36962318E-01 0.34828539E+03</pdfrwt>
<totfact> 0.95267039E+03</totfact>
</mgrwt>
</event>
<event>
 4    1  0.3976152E+000  0.2097591E+03  0.7546771E-02  0.1141757E+00
         21   -1    0    0  503  502  0.00000000000E+00  0.00000000000E+00  0.22444785697E+03  0.22444785697E+03  0.00000000000E+00 0.  1.
         21   -1    0    0  501  503 -0.00000000000E+00 -0.00000000000E+00 -0.31557909412E+03  0.31557909412E+03  0.00000000000E+00 0.  1.
          6    1    1    2  501    0  0.31830724289E+02 -0.11426586593E+03 -0.21175431418E+03  0.29805833775E+03  0.17300000000E+03 0.  1.
         -6    1    1    2    0  502 -0.31830724289E+02  0.11426586593E+03  0.12062307704E+03  0.24196861334E+03  0.17300000000E+03 0.  1.
<mgrwt>
<rscale>  2 0.20975911E+03</rscale>
<asrwt>0</asrwt>
<pdfrwt beam="1">  1       21 0.34530440E-01 0.20975911E+03</pdfrwt>
<pdfrwt beam="2">  1       21 0.48550629E-01 0.20975911E+03</pdfrwt>
<totfact> 0.32444963E+04</totfact>
</mgrwt>
</event>
<event>
 4    1  0.3976152E+000  0.2370327E+03  0.7546771E-02  0.1121786E+00
         21   -1    0    0  503  502  0.00000000000E+00  0.00000000000E+00  0.20343797493E+03  0.20343797493E+03  0.00000000000E+00 0. -1.
         21   -1    0    0  501  503 -0.00000000000E+00 -0.00000000000E+00 -0.27684612149E+03  0.27684612149E+03  0.00000000000E+00 0.  1.
          6    1    1    2  501    0 -0.13005060181E+03  0.96655675156E+02 -0.24880297946E+02  0.23833486484E+03  0.17300000000E+03 0.  1.
         -6    1    1    2    0  502  0.13005060181E+03 -0.96655675156E+02 -0.48527848610E+02  0.24194923158E+03  0.17300000000E+03 0. -1.
<mgrwt>
<rscale>  2 0.23703265E+03</rscale>
<asrwt>0</asrwt>
<pdfrwt beam="1">  1       21 0.31298150E-01 0.23703265E+03</pdfrwt>
<pdfrwt beam="2">  1       21 0.42591711E-01 0.23703265E+03</pdfrwt>
<totfact> 0.50983085E+04</totfact>
</mgrwt>
</event>
<event>
 4    1  0.3976152E+000  0.2053382E+03  0.7546771E-02  0.1145312E+00
         21   -1    0    0  503  502  0.00000000000E+00  0.00000000000E+00  0.11577665516E+04  0.11577665516E+04  0.00000000000E+00 0.  1.
         21   -1    0    0  501  503 -0.00000000000E+00 -0.00000000000E+00 -0.64778677030E+02  0.64778677030E+02  0.00000000000E+00 0.  1.
          6    1    1    2  501    0  0.64600064859E+01  0.11042214093E+03  0.14203389651E+03  0.24967460553E+03  0.17300000000E+03 0.  1.
         -6    1    1    2    0  502 -0.64600064859E+01 -0.11042214093E+03  0.95095397802E+03  0.97287062305E+03  0.17300000000E+03 0.  1.
<mgrwt>
<rscale>  2 0.20533821E+03</rscale>
<asrwt>0</asrwt>
<pdfrwt beam="1">  1       21 0.17811792E+00 0.20533821E+03</pdfrwt>
<pdfrwt beam="2">  1       21 0.99659512E-02 0.20533821E+03</pdfrwt>
<totfact> 0.15156312E+04</totfact>
</mgrwt>
</event>
<event>
 4    1  0.3976152E+000  0.2349695E+03  0.7546771E-02  0.1123190E+00
         21   -1    0    0  501  502  0.00000000000E+00  0.00000000000E+00  0.14503207689E+03  0.14503207689E+03  0.00000000000E+00 0. -1.
         21   -1    0    0  502  503 -0.00000000000E+00 -0.00000000000E+00 -0.38501850997E+03  0.38501850997E+03  0.00000000000E+00 0.  1.
          6    1    1    2  501    0  0.11867994078E+03  0.10581466749E+03 -0.14812937009E+03  0.27776425703E+03  0.17300000000E+03 0. -1.
         -6    1    1    2    0  503 -0.11867994078E+03 -0.10581466749E+03 -0.91857062989E+02  0.25228632983E+03  0.17300000000E+03 0.  1.
<mgrwt>
<rscale>  2 0.23496951E+03</rscale>
<asrwt>0</asrwt>
<pdfrwt beam="1">  1       21 0.22312627E-01 0.23496951E+03</pdfrwt>
<pdfrwt beam="2">  1       21 0.59233617E-01 0.23496951E+03</pdfrwt>
<totfact> 0.49092819E+04</totfact>
</mgrwt>
</event>
<event>
 4    1  0.3976152E+000  0.2914911E+03  0.7546771E-02  0.1089573E+00
         21   -1    0    0  501  502  0.00000000000E+00  0.00000000000E+00  0.26518302554E+03  0.26518302554E+03  0.00000000000E+00 0.  1.
         21   -1    0    0  502  503 -0.00000000000E+00 -0.00000000000E+00 -0.34261770188E+03  0.34261770188E+03  0.00000000000E+00 0.  1.
          6    1    1    2  501    0  0.22626199165E+03  0.61996381814E+02  0.38655309514E+02  0.29404297845E+03  0.17300000000E+03 0.  1.
         -6    1    1    2    0  503 -0.22626199165E+03 -0.61996381814E+02 -0.11608998585E+03  0.31375774897E+03  0.17300000000E+03 0.  1.
<mgrwt>
<rscale>  2 0.29149106E+03</rscale>
<asrwt>0</asrwt>
<pdfrwt beam="1">  1       21 0.40797389E-01 0.29149106E+03</pdfrwt>
<pdfrwt beam="2">  1       21 0.52710416E-01 0.29149106E+03</pdfrwt>
<totfact> 0.18780664E+04</totfact>
</mgrwt>
</event>
<event>
 4    1  0.3976152E+000  0.1821038E+03  0.7546771E-02  0.1165782E+00
         21   -1    0    0  501  502  0.00000000000E+00  0.00000000000E+00  0.16382352814E+03  0.16382352814E+03  0.00000000000E+00 0.  1.
         21   -1    0    0  502  503 -0.00000000000E+00 -0.00000000000E+00 -0.23102413695E+03  0.23102413695E+03  0.00000000000E+00 0.  1.
          6    1    1    2  501    0  0.54776904621E+02 -0.15241109382E+02  0.35863020423E+02  0.18560160810E+03  0.17300000000E+03 0.  1.
         -6    1    1    2    0  503 -0.54776904621E+02  0.15241109382E+02 -0.10306362923E+03  0.20924605699E+03  0.17300000000E+03 0.  1.
<mgrwt>
<rscale>  2 0.18210382E+03</rscale>
<asrwt>0</asrwt>
<pdfrwt beam="1">  1       21 0.25203620E-01 0.18210382E+03</pdfrwt>
<pdfrwt beam="2">  1       21 0.35542175E-01 0.18210382E+03</pdfrwt>
<totfact> 0.11426211E+05</totfact>
</mgrwt>
</event>
<event>
 4    1  0.3976152E+000  0.1777381E+03  0.7546771E-02  0.1170010E+00
         21   -1    0    0  501  502  0.00000000000E+00  0.00000000000E+00  0.14446942101E+04  0.14446942101E+04  0.00000000000E+00 0.  1.
         21   -1    0    0  502  503 -0.00000000000E+00 -0.00000000000E+00 -0.22030221672E+02  0.22030221672E+02  0.00000000000E+00 0.  1.
          6    1    1    2  501    0  0.19679287020E+02 -0.35701179558E+02  0.77449393306E+03  0.79462676830E+03  0.17300000000E+03 0. -1.
         -6    1    1    2    0  503 -0.19679287020E+02  0.35701179558E+02  0.64817005533E+03  0.67209766343E+03  0.17300000000E+03 0. -1.
<mgrwt>
<rscale>  2 0.17773815E+03</rscale>
<asrwt>0</asrwt>
<pdfrwt beam="1">  1       21 0.22226057E+00 0.17773815E+03</pdfrwt>
<pdfrwt beam="2">  1       21 0.33892660E-02 0.17773815E+03</pdfrwt>
<totfact> 0.50893991E+04</totfact>
</mgrwt>
</event>
<event>
 4    1  0.3976152E+000  0.1793461E+03  0.7546771E-02  0.1168437E+00
         21   -1    0    0  503  502  0.00000000000E+00  0.00000000000E+00  0.25263259472E+03  0.25263259472E+03  0.00000000000E+00 0.  1.
         21   -1    0    0  501  503 -0.00000000000E+00 -0.00000000000E+00 -0.17937831765E+03  0.17937831765E+03  0.00000000000E+00 0.  1.
          6    1    1    2  501    0  0.47027870629E+02 -0.49405276142E+01 -0.79739189702E+02  0.19627370635E+03  0.17300000000E+03 0.  1.
         -6    1    1    2    0  502 -0.47027870629E+02  0.49405276142E+01  0.15299346677E+03  0.23573720602E+03  0.17300000000E+03 0.  1.
<mgrwt>
<rscale>  2 0.17934612E+03</rscale>
<asrwt>0</asrwt>
<pdfrwt beam="1">  1       21 0.38866553E-01 0.17934612E+03</pdfrwt>
<pdfrwt beam="2">  1       21 0.27596664E-01 0.17934612E+03</pdfrwt>
<totfact> 0.80410215E+04</totfact>
</mgrwt>
</event>
<event>
 4    1  0.3976152E+000  0.2189109E+03  0.7546771E-02  0.1134698E+00
         21   -1    0    0  503  502  0.00000000000E+00  0.00000000000E+00  0.43450652229E+03  0.43450652229E+03  0.00000000000E+00 0.  1.
         21   -1    0    0  501  503 -0.00000000000E+00 -0.00000000000E+00 -0.27251532021E+03  0.27251532021E+03  0.00000000000E+00 0.  1.
          6    1    1    2  501    0 -0.11896249117E+03 -0.61975115723E+02 -0.19175510156E+03  0.29101891390E+03  0.17300000000E+03 0.  1.
         -6    1    1    2    0  502  0.11896249117E+03  0.61975115723E+02  0.35374630363E+03  0.41600292861E+03  0.17300000000E+03 0.  1.
<mgrwt>
<rscale>  2 0.21891092E+03</rscale>
<asrwt>0</asrwt>
<pdfrwt beam="1">  1       21 0.66847157E-01 0.21891092E+03</pdfrwt>
<pdfrwt beam="2">  1       21 0.41925434E-01 0.21891092E+03</pdfrwt>
<totfact> 0.11034994E+04</totfact>
</mgrwt>
</event>
<event>
 4    1  0.3976152E+000  0.1925427E+03  0.7546771E-02  0.1156188E+00
         21   -1    0    0  501  502  0.00000000000E+00  0.00000000000E+00  0.74834974197E+02  0.74834974197E+02  0.00000000000E+00 0.  1.
         21   -1    0    0  502  503 -0.00000000000E+00 -0.00000000000E+00 -0.76269948642E+03  0.76269948642E+03  0.00000000000E+00 0.  1.
          6    1    1    2  501    0  0.50736978841E+02 -0.67597675733E+02 -0.96018230403E+02  0.21515619293E+03  0.17300000000E+03 0.  1.
         -6    1    1    2    0  503 -0.50736978841E+02  0.67597675733E+02 -0.59184628182E+03  0.62237826769E+03  0.17300000000E+03 0.  1.
<mgrwt>
<rscale>  2 0.19254269E+03</rscale>
<asrwt>0</asrwt>
<pdfrwt beam="1">  1       21 0.11513073E-01 0.19254269E+03</pdfrwt>
<pdfrwt beam="2">  1       21 0.11733838E+00 0.19254269E+03</pdfrwt>
<totfact> 0.35271825E+04</totfact>
</mgrwt>
</event>
<event>
 4    1  0.3976152E+000  0.2420725E+03  0.7546771E-02  0.1118420E+00
         21   -1    0    0  503  502  0.00000000000E+00  0.00000000000E+00  0.30293929616E+03  0.30293929616E+03  0.00000000000E+00 0. -1.
         21   -1    0    0  501  503 -0.00000000000E+00 -0.00000000000E+00 -0.22691780641E+03  0.22691780641E+03  0.00000000000E+00 0.  1.
          6    1    1    2  501    0  0.14149028655E+03 -0.93008584910E+02 -0.63755710169E+02  0.25032756268E+03  0.17300000000E+03 0.  1.
         -6    1    1    2    0  502 -0.14149028655E+03  0.93008584910E+02  0.13977719992E+03  0.27952953990E+03  0.17300000000E+03 0. -1.
<mgrwt>
<rscale>  2 0.24207251E+03</rscale>
<asrwt>0</asrwt>
<pdfrwt beam="1">  1       21 0.46606046E-01 0.24207251E+03</pdfrwt>
<pdfrwt beam="2">  1       21 0.34910432E-01 0.24207251E+03</pdfrwt>
<totfact> 0.34027724E+04</totfact>
</mgrwt>
</event>
<event>
 4    1  0.3976152E+000  0.2240644E+03  0.7546771E-02  0.1130889E+00
         21   -1    0    0  503  502  0.00000000000E+00  0.00000000000E+00  0.38779681223E+03  0.38779681223E+03  0.00000000000E+00 0. -1.
         21   -1    0    0  501  503 -0.00000000000E+00 -0.00000000000E+00 -0.15202061871E+03  0.15202061871E+03  0.00000000000E+00 0.  1.
          6    1    1    2  501    0 -0.13473038616E+03 -0.46082107944E+02  0.13914103459E+02  0.22449596857E+03  0.17300000000E+03 0.  1.
         -6    1    1    2    0  502  0.13473038616E+03  0.46082107944E+02  0.22186209006E+03  0.31532146237E+03  0.17300000000E+03 0. -1.
<mgrwt>
<rscale>  2 0.22406436E+03</rscale>
<asrwt>0</asrwt>
<pdfrwt beam="1">  1       21 0.59661048E-01 0.22406436E+03</pdfrwt>
<pdfrwt beam="2">  1       21 0.23387788E-01 0.22406436E+03</pdfrwt>
<totfact> 0.44416947E+04</totfact>
</mgrwt>
</event>
<event>
 4    1  0.3976152E+000  0.2051121E+03  0.7546771E-02  0.1145496E+00
         21   -1    0    0  501  502  0.00000000000E+00  0.00000000000E+00  0.76426275083E+02  0.76426275083E+02  0.00000000000E+00 0.  1.
         21   -1    0    0  502  503 -0.00000000000E+00 -0.00000000000E+00 -0.76527491017E+03  0.76527491017E+03  0.00000000000E+00 0. -1.
          6    1    1    2  501    0 -0.10649250293E+03  0.28307309552E+02 -0.12146092405E+03  0.23837724939E+03  0.17300000000E+03 0.  1.
         -6    1    1    2    0  503  0.10649250293E+03 -0.28307309552E+02 -0.56738771103E+03  0.60332393586E+03  0.17300000000E+03 0. -1.
<mgrwt>
<rscale>  2 0.20511206E+03</rscale>
<asrwt>0</asrwt>
<pdfrwt beam="1">  1       21 0.11757888E-01 0.20511206E+03</pdfrwt>
<pdfrwt beam="2">  1       21 0.11773460E+00 0.20511206E+03</pdfrwt>
<totfact> 0.33448436E+04</totfact>
</mgrwt>
</event>
<event>
 4    1  0.3976152E+000  0.1958492E+03  0.7546771E-02  0.1153289E+00
         21   -1    0    0  501  502  0.00000000000E+00  0.00000000000E+00  0.18230711060E+04  0.18230711060E+04  0.00000000000E+00 0.  1.
         21   -1    0    0  502  503 -0.00000000000E+00 -0.00000000000E+00 -0.58990782445E+02  0.58990782445E+02  0.00000000000E+00 0.  1.
          6    1    1    2  501    0  0.90812641329E+02  0.13451941168E+02  0.16368261736E+04  0.16485013840E+04  0.17300000000E+03 0.  1.
         -6    1    1    2    0  503 -0.90812641329E+02 -0.13451941168E+02  0.12725414996E+03  0.23356050443E+03  0.17300000000E+03 0.  1.
<mgrwt>
<rscale>  2 0.19584915E+03</rscale>
<asrwt>0</asrwt>
<pdfrwt beam="1">  1       21 0.28047243E+00 0.19584915E+03</pdfrwt>
<pdfrwt beam="2">  1       21 0.90755064E-02 0.19584915E+03</pdfrwt>
<totfact> 0.42416378E+03</totfact>
</mgrwt>
</event>
<event>
 4    1  0.3976152E+000  0.1860822E+03  0.7546771E-02  0.1162043E+00
         21   -1    0    0  501  502  0.00000000000E+00  0.00000000000E+00  0.86225996368E+03  0.86225996368E+03  0.00000000000E+00 0.  1.
         21   -1    0    0  502  503 -0.00000000000E+00 -0.00000000000E+00 -0.27918741044E+03  0.27918741044E+03  0.00000000000E+00 0.  1.
          6    1    1    2  501    0  0.65403632377E+02 -0.20492682352E+02  0.81962112343E+03  0.84047925086E+03  0.17300000000E+03 0.  1.
         -6    1    1    2    0  503 -0.65403632377E+02  0.20492682352E+02 -0.23654857019E+03  0.30096812326E+03  0.17300000000E+03 0.  1.
<mgrwt>
<rscale>  2 0.18608220E+03</rscale>
<asrwt>0</asrwt>
<pdfrwt beam="1">  1       21 0.13265538E+00 0.18608220E+03</pdfrwt>
<pdfrwt beam="2">  1       21 0.42951910E-01 0.18608220E+03</pdfrwt>
<totfact> 0.21541805E+03</totfact>
</mgrwt>
</event>
<event>
 4    1  0.3976152E+000  0.1797555E+03  0.7546771E-02  0.1168040E+00
         21   -1    0    0  503  502  0.00000000000E+00  0.00000000000E+00  0.19575704748E+03  0.19575704748E+03  0.00000000000E+00 0.  1.
         21   -1    0    0  501  503 -0.00000000000E+00 -0.00000000000E+00 -0.26959994781E+03  0.26959994781E+03  0.00000000000E+00 0. -1.
          6    1    1    2  501    0 -0.14849210747E+01  0.48793714878E+02 -0.18180982029E+03  0.25566940051E+03  0.17300000000E+03 0. -1.
         -6    1    1    2    0  502  0.14849210747E+01 -0.48793714878E+02  0.10796691996E+03  0.20968759479E+03  0.17300000000E+03 0.  1.
<mgrwt>
<rscale>  2 0.17975548E+03</rscale>
<asrwt>0</asrwt>
<pdfrwt beam="1">  1       21 0.30116469E-01 0.17975548E+03</pdfrwt>
<pdfrwt beam="2">  1       21 0.41476915E-01 0.17975548E+03</pdfrwt>
<totfact> 0.59535556E+04</totfact>
</mgrwt>
</event>
<event>
 4    1  0.3976152E+000  0.1869350E+03  0.7546771E-02  0.1161255E+00
         21   -1    0    0  503  502  0.00000000000E+00  0.00000000000E+00  0.19570434105E+04  0.19570434105E+04  0.00000000000E+00 0. -1.
         21   -1    0    0  501  503 -0.00000000000E+00 -0.00000000000E+00 -0.13264646917E+03  0.13264646917E+03  0.00000000000E+00 0.  1.
          6    1    1    2  501    0  0.64059561089E+02 -0.30200688292E+02 -0.59781155456E+02  0.19626129391E+03  0.17300000000E+03 0.  1.
         -6    1    1    2    0  502 -0.64059561089E+02  0.30200688292E+02  0.18841780968E+04  0.18934285857E+04  0.17300000000E+03 0. -1.
<mgrwt>
<rscale>  2 0.18693504E+03</rscale>
<asrwt>0</asrwt>
<pdfrwt beam="1">  1       21 0.30108358E+00 0.18693504E+03</pdfrwt>
<pdfrwt beam="2">  1       21 0.20407150E-01 0.18693504E+03</pdfrwt>
<totfact> 0.75411103E+02</totfact>
</mgrwt>
</event>
<event>
 4    1  0.3976152E+000  0.2073624E+03  0.7546771E-02  0.1143672E+00
         21   -1    0    0  503  502  0.00000000000E+00  0.00000000000E+00  0.52565523160E+03  0.52565523160E+03  0.00000000000E+00 0.  1.
         21   -1    0    0  501  503 -0.00000000000E+00 -0.00000000000E+00 -0.20146083815E+03  0.20146083815E+03  0.00000000000E+00 0.  1.
          6    1    1    2  501    0 -0.27030522351E+02  0.11108331423E+03 -0.11809274255E+03  0.23863161501E+03  0.17300000000E+03 0.  1.
         -6    1    1    2    0  502  0.27030522351E+02 -0.11108331423E+03  0.44228713601E+03  0.48848445474E+03  0.17300000000E+03 0.  1.
<mgrwt>
<rscale>  2 0.20736237E+03</rscale>
<asrwt>0</asrwt>
<pdfrwt beam="1">  1       21 0.80870035E-01 0.20736237E+03</pdfrwt>
<pdfrwt beam="2">  1       21 0.30993975E-01 0.20736237E+03</pdfrwt>
<totfact> 0.13291179E+04</totfact>
</mgrwt>
</event>
<event>
 4    1  0.3976152E+000  0.2342255E+03  0.7546771E-02  0.1123700E+00
         21   -1    0    0  503  502  0.00000000000E+00  0.00000000000E+00  0.56811557838E+02  0.56811557838E+02  0.00000000000E+00 0. -1.
         21   -1    0    0  501  503 -0.00000000000E+00 -0.00000000000E+00 -0.11775018851E+04  0.11775018851E+04  0.00000000000E+00 0.  1.
          6    1    1    2  501    0  0.52149919667E+02  0.14904022227E+03 -0.82210522132E+03  0.85482079812E+03  0.17300000000E+03 0.  1.
         -6    1    1    2    0  502 -0.52149919667E+02 -0.14904022227E+03 -0.29858510590E+03  0.37949264478E+03  0.17300000000E+03 0. -1.
<mgrwt>
<rscale>  2 0.23422554E+03</rscale>
<asrwt>0</asrwt>
<pdfrwt beam="1">  1       21 0.87402399E-02 0.23422554E+03</pdfrwt>
<pdfrwt beam="2">  1       21 0.18115413E+00 0.23422554E+03</pdfrwt>
<totfact> 0.17854036E+04</totfact>
</mgrwt>
</event>
<event>
 4    1  0.3976152E+000  0.1736798E+03  0.7546771E-02  0.1174064E+00
         21   -1    0    0  503  502  0.00000000000E+00  0.00000000000E+00  0.22932230666E+03  0.22932230666E+03  0.00000000000E+00 0. -1.
         21   -1    0    0  501  503 -0.00000000000E+00 -0.00000000000E+00 -0.17037574749E+03  0.17037574749E+03  0.00000000000E+00 0. -1.
          6    1    1    2  501    0  0.14893921792E+02  0.37209723757E+01 -0.65943178559E+02  0.18577722503E+03  0.17300000000E+03 0. -1.
         -6    1    1    2    0  502 -0.14893921792E+02 -0.37209723757E+01  0.12488973773E+03  0.21392082912E+03  0.17300000000E+03 0. -1.
<mgrwt>
<rscale>  2 0.17367980E+03</rscale>
<asrwt>0</asrwt>
<pdfrwt beam="1">  1       21 0.35280355E-01 0.17367980E+03</pdfrwt>
<pdfrwt beam="2">  1       21 0.26211654E-01 0.17367980E+03</pdfrwt>
<totfact> 0.10791721E+05</totfact>
</mgrwt>
</event>
<event>
 4    1  0.3976152E+000  0.2559859E+03  0.7546771E-02  0.1109579E+00
         21   -1    0    0  503  502  0.00000000000E+00  0.00000000000E+00  0.16818449898E+03  0.16818449898E+03  0.00000000000E+00 0.  1.
         21   -1    0    0  501  503 -0.00000000000E+00 -0.00000000000E+00 -0.60708751560E+03  0.60708751560E+03  0.00000000000E+00 0. -1.
          6    1    1    2  501    0  0.18816473844E+03  0.13921042575E+02 -0.45145332414E+03  0.51897867788E+03  0.17300000000E+03 0. -1.
         -6    1    1    2    0  502 -0.18816473844E+03 -0.13921042575E+02  0.12550307514E+02  0.25629333670E+03  0.17300000000E+03 0.  1.
<mgrwt>
<rscale>  2 0.25598587E+03</rscale>
<asrwt>0</asrwt>
<pdfrwt beam="1">  1       21 0.25874538E-01 0.25598587E+03</pdfrwt>
<pdfrwt beam="2">  1       21 0.93398079E-01 0.25598587E+03</pdfrwt>
<totfact> 0.13163938E+04</totfact>
</mgrwt>
</event>
<event>
 4    1  0.3976152E+000  0.3640034E+03  0.7546771E-02  0.1057010E+00
         21   -1    0    0  501  502  0.00000000000E+00  0.00000000000E+00  0.50831786379E+03  0.50831786379E+03  0.00000000000E+00 0. -1.
         21   -1    0    0  502  503 -0.00000000000E+00 -0.00000000000E+00 -0.37274374184E+03  0.37274374184E+03  0.00000000000E+00 0.  1.
          6    1    1    2  501    0  0.30477751955E+03 -0.98387543217E+02  0.30935607495E+03  0.47770244524E+03  0.17300000000E+03 0.  1.
         -6    1    1    2    0  503 -0.30477751955E+03  0.98387543217E+02 -0.17378195299E+03  0.40335916039E+03  0.17300000000E+03 0.  1.
<mgrwt>
<rscale>  2 0.36400336E+03</rscale>
<asrwt>0</asrwt>
<pdfrwt beam="1">  1       21 0.78202748E-01 0.36400336E+03</pdfrwt>
<pdfrwt beam="2">  1       21 0.57345191E-01 0.36400336E+03</pdfrwt>
<totfact> 0.37337552E+03</totfact>
</mgrwt>
</event>
<event>
 4    1  0.3976152E+000  0.1750966E+03  0.7546771E-02  0.1172635E+00
         21   -1    0    0  503  502  0.00000000000E+00  0.00000000000E+00  0.92345543925E+02  0.92345543925E+02  0.00000000000E+00 0. -1.
         21   -1    0    0  501  503 -0.00000000000E+00 -0.00000000000E+00 -0.33901211968E+03  0.33901211968E+03  0.00000000000E+00 0. -1.
          6    1    1    2  501    0  0.72593795858E+00 -0.27005443283E+02 -0.15434965364E+03  0.23341515917E+03  0.17300000000E+03 0. -1.
         -6    1    1    2    0  502 -0.72593795858E+00  0.27005443283E+02 -0.92316922121E+02  0.19794250444E+03  0.17300000000E+03 0. -1.
<mgrwt>
<rscale>  2 0.17509660E+03</rscale>
<asrwt>0</asrwt>
<pdfrwt beam="1">  1       21 0.14207007E-01 0.17509660E+03</pdfrwt>
<pdfrwt beam="2">  1       21 0.52155710E-01 0.17509660E+03</pdfrwt>
<totfact> 0.15191004E+05</totfact>
</mgrwt>
</event>
<event>
 4    1  0.3976152E+000  0.2136766E+03  0.7546771E-02  0.1138687E+00
         21   -1    0    0  501  502  0.00000000000E+00  0.00000000000E+00  0.64427642374E+02  0.64427642374E+02  0.00000000000E+00 0. -1.
         21   -1    0    0  502  503 -0.00000000000E+00 -0.00000000000E+00 -0.81124647529E+03  0.81124647529E+03  0.00000000000E+00 0.  1.
          6    1    1    2  501    0  0.12170645044E+03  0.30268948411E+02 -0.21771652005E+03  0.30505434339E+03  0.17300000000E+03 0.  1.
         -6    1    1    2    0  503 -0.12170645044E+03 -0.30268948411E+02 -0.52910231286E+03  0.57061977427E+03  0.17300000000E+03 0.  1.
<mgrwt>
<rscale>  2 0.21367655E+03</rscale>
<asrwt>0</asrwt>
<pdfrwt beam="1">  1       21 0.99119447E-02 0.21367655E+03</pdfrwt>
<pdfrwt beam="2">  1       21 0.12480715E+00 0.21367655E+03</pdfrwt>
<totfact> 0.39011591E+04</totfact>
</mgrwt>
</event>
<event>
 4    1  0.3976152E+000  0.2151130E+03  0.7546771E-02  0.1137580E+00
         21   -1    0    0  501  502  0.00000000000E+00  0.00000000000E+00  0.13723356736E+04  0.13723356736E+04  0.00000000000E+00 0. -1.
         21   -1    0    0  502  503 -0.00000000000E+00 -0.00000000000E+00 -0.34300977837E+02  0.34300977837E+02  0.00000000000E+00 0. -1.
          6    1    1    2  501    0 -0.56992518047E+02  0.11443968658E+03  0.76064058347E+03  0.79047307746E+03  0.17300000000E+03 0. -1.
         -6    1    1    2    0  503  0.56992518047E+02 -0.11443968658E+03  0.57739411232E+03  0.61616357399E+03  0.17300000000E+03 0. -1.
<mgrwt>
<rscale>  2 0.21511297E+03</rscale>
<asrwt>0</asrwt>
<pdfrwt beam="1">  1       21 0.21112852E+00 0.21511297E+03</pdfrwt>
<pdfrwt beam="2">  1       21 0.52770746E-02 0.21511297E+03</pdfrwt>
<totfact> 0.27569545E+04</totfact>
</mgrwt>
</event>
<event>
 4    1  0.3976152E+000  0.2021492E+03  0.7546771E-02  0.1147938E+00
         21   -1    0    0  501  502  0.00000000000E+00  0.00000000000E+00  0.12480137151E+04  0.12480137151E+04  0.00000000000E+00 0.  1.
         21   -1    0    0  502  503 -0.00000000000E+00 -0.00000000000E+00 -0.40397917255E+02  0.40397917255E+02  0.00000000000E+00 0.  1.
          6    1    1    2  501    0 -0.35085862702E+02 -0.98510304381E+02  0.88422346132E+03  0.90703661855E+03  0.17300000000E+03 0.  1.
         -6    1    1    2    0  503  0.35085862702E+02  0.98510304381E+02  0.32339233648E+03  0.38137501376E+03  0.17300000000E+03 0.  1.
<mgrwt>
<rscale>  2 0.20214920E+03</rscale>
<asrwt>0</asrwt>
<pdfrwt beam="1">  1       21 0.19200208E+00 0.20214920E+03</pdfrwt>
<pdfrwt beam="2">  1       21 0.62150652E-02 0.20214920E+03</pdfrwt>
<totfact> 0.27902091E+04</totfact>
</mgrwt>
</event>
<event>
 4    1  0.3976152E+000  0.1801762E+03  0.7546771E-02  0.1167633E+00
         21   -1    0    0  503  502  0.00000000000E+00  0.00000000000E+00  0.12301052583E+03  0.12301052583E+03  0.00000000000E+00 0.  1.
         21   -1    0    0  501  503 -0.00000000000E+00 -0.00000000000E+00 -0.36145907386E+03  0.36145907386E+03  0.00000000000E+00 0.  1.
          6    1    1    2  501    0 -0.37577255624E+01  0.50203188883E+02 -0.24506541740E+03  0.30417189134E+03  0.17300000000E+03 0.  1.
         -6    1    1    2    0  502  0.37577255624E+01 -0.50203188883E+02  0.66168693697E+01  0.18029770835E+03  0.17300000000E+03 0.  1.
<mgrwt>
<rscale>  2 0.18017625E+03</rscale>
<asrwt>0</asrwt>
<pdfrwt beam="1">  1       21 0.18924696E-01 0.18017625E+03</pdfrwt>
<pdfrwt beam="2">  1       21 0.55609088E-01 0.18017625E+03</pdfrwt>
<totfact> 0.78371878E+04</totfact>
</mgrwt>
</event>
<event>
 4    1  0.3976152E+000  0.2024935E+03  0.7546771E-02  0.1147652E+00
         21   -1    0    0  503  502  0.00000000000E+00  0.00000000000E+00  0.15356928846E+03  0.15356928846E+03  0.00000000000E+00 0.  1.
         21   -1    0    0  501  503 -0.00000000000E+00 -0.00000000000E+00 -0.34395150842E+03  0.34395150842E+03  0.00000000000E+00 0. -1.
          6    1    1    2  501    0 -0.88849303377E+02  0.56395149326E+02 -0.21285141378E+03  0.29378450593E+03  0.17300000000E+03 0. -1.
         -6    1    1    2    0  502  0.88849303377E+02 -0.56395149326E+02  0.22469193817E+02  0.20373629095E+03  0.17300000000E+03 0.  1.
<mgrwt>
<rscale>  2 0.20249349E+03</rscale>
<asrwt>0</asrwt>
<pdfrwt beam="1">  1       21 0.23626045E-01 0.20249349E+03</pdfrwt>
<pdfrwt beam="2">  1       21 0.52915616E-01 0.20249349E+03</pdfrwt>
<totfact> 0.56814119E+04</totfact>
</mgrwt>
</event>
<event>
 4    1  0.3976152E+000  0.1750234E+03  0.7546771E-02  0.1172708E+00
         21   -1    0    0  503  502  0.00000000000E+00  0.00000000000E+00  0.16675715089E+04  0.16675715089E+04  0.00000000000E+00 0.  1.
         21   -1    0    0  501  503 -0.00000000000E+00 -0.00000000000E+00 -0.40477144237E+02  0.40477144237E+02  0.00000000000E+00 0.  1.
          6    1    1    2  501    0  0.17012369564E+02  0.20366194822E+02  0.18239783360E+03  0.25278878993E+03  0.17300000000E+03 0.  1.
         -6    1    1    2    0  502 -0.17012369564E+02 -0.20366194822E+02  0.14446965311E+04  0.14552598632E+04  0.17300000000E+03 0.  1.
<mgrwt>
<rscale>  2 0.17502343E+03</rscale>
<asrwt>0</asrwt>
<pdfrwt beam="1">  1       21 0.25654941E+00 0.17502343E+03</pdfrwt>
<pdfrwt beam="2">  1       21 0.62272542E-02 0.17502343E+03</pdfrwt>
<totfact> 0.11459369E+04</totfact>
</mgrwt>
</event>
<event>
 4    1  0.3976152E+000  0.2092594E+03  0.7546771E-02  0.1142154E+00
         21   -1    0    0  501  502  0.00000000000E+00  0.00000000000E+00  0.40972057101E+03  0.40972057101E+03  0.00000000000E+00 0.  1.
         21   -1    0    0  502  503 -0.00000000000E+00 -0.00000000000E+00 -0.14080205348E+03  0.14080205348E+03  0.00000000000E+00 0.  1.
          6    1    1    2  501    0 -0.32316888273E+02  0.11320823704E+03  0.26957451137E+03  0.34126222085E+03  0.17300000000E+03 0.  1.
         -6    1    1    2    0  503  0.32316888273E+02 -0.11320823704E+03 -0.65599384264E+00  0.20926040363E+03  0.17300000000E+03 0.  1.
<mgrwt>
<rscale>  2 0.20925938E+03</rscale>
<asrwt>0</asrwt>
<pdfrwt beam="1">  1       21 0.63033933E-01 0.20925938E+03</pdfrwt>
<pdfrwt beam="2">  1       21 0.21661855E-01 0.20925938E+03</pdfrwt>
<totfact> 0.45921448E+04</totfact>
</mgrwt>
</event>
<event>
 4    1  0.3976152E+000  0.1790369E+03  0.7546771E-02  0.1168738E+00
         21   -1    0    0  501  502  0.00000000000E+00  0.00000000000E+00  0.41974037035E+02  0.41974037035E+02  0.00000000000E+00 0. -1.
         21   -1    0    0  502  503 -0.00000000000E+00 -0.00000000000E+00 -0.77331439224E+03  0.77331439224E+03  0.00000000000E+00 0. -1.
          6    1    1    2  501    0 -0.32392909781E+01  0.45986131387E+02 -0.32014077715E+03  0.36680285506E+03  0.17300000000E+03 0. -1.
         -6    1    1    2    0  503  0.32392909781E+01 -0.45986131387E+02 -0.41119957806E+03  0.44848557421E+03  0.17300000000E+03 0. -1.
<mgrwt>
<rscale>  2 0.17903692E+03</rscale>
<asrwt>0</asrwt>
<pdfrwt beam="1">  1       21 0.64575439E-02 0.17903692E+03</pdfrwt>
<pdfrwt beam="2">  1       21 0.11897145E+00 0.17903692E+03</pdfrwt>
<totfact> 0.94337925E+04</totfact>
</mgrwt>
</event>
<event>
 4    1  0.3976152E+000  0.2233895E+03  0.7546771E-02  0.1131381E+00
         21   -1    0    0  503  502  0.00000000000E+00  0.00000000000E+00  0.15598671601E+03  0.15598671601E+03  0.00000000000E+00 0. -1.
         21   -1    0    0  501  503 -0.00000000000E+00 -0.00000000000E+00 -0.32975083578E+03  0.32975083578E+03  0.00000000000E+00 0. -1.
          6    1    1    2  501    0 -0.12158824792E+03 -0.72042900070E+02 -0.12882211407E+03  0.25787209728E+03  0.17300000000E+03 0. -1.
         -6    1    1    2    0  502  0.12158824792E+03  0.72042900070E+02 -0.44942005701E+02  0.22786545451E+03  0.17300000000E+03 0. -1.
<mgrwt>
<rscale>  2 0.22338953E+03</rscale>
<asrwt>0</asrwt>
<pdfrwt beam="1">  1       21 0.23997956E-01 0.22338953E+03</pdfrwt>
<pdfrwt beam="2">  1       21 0.50730897E-01 0.22338953E+03</pdfrwt>
<totfact> 0.59698580E+04</totfact>
</mgrwt>
</event>
<event>
 4    1  0.3976152E+000  0.1869416E+03  0.7546771E-02  0.1161249E+00
         21   -1    0    0  501  502  0.00000000000E+00  0.00000000000E+00  0.78690836920E+03  0.78690836920E+03  0.00000000000E+00 0.  1.
         21   -1    0    0  502  503 -0.00000000000E+00 -0.00000000000E+00 -0.88143110399E+02  0.88143110399E+02  0.00000000000E+00 0.  1.
          6    1    1    2  501    0 -0.12885830549E+02 -0.69657070688E+02  0.65756736587E+03  0.68362416047E+03  0.17300000000E+03 0.  1.
         -6    1    1    2    0  503  0.12885830549E+02  0.69657070688E+02  0.41197892932E+02  0.19142731913E+03  0.17300000000E+03 0.  1.
<mgrwt>
<rscale>  2 0.18694157E+03</rscale>
<asrwt>0</asrwt>
<pdfrwt beam="1">  1       21 0.12106282E+00 0.18694157E+03</pdfrwt>
<pdfrwt beam="2">  1       21 0.13560479E-01 0.18694157E+03</pdfrwt>
<totfact> 0.24421989E+04</totfact>
</mgrwt>
</event>
<event>
 4    1  0.3976152E+000  0.2406457E+03  0.7546771E-02  0.1119363E+00
         21   -1    0    0  503  502  0.00000000000E+00  0.00000000000E+00  0.11608424253E+03  0.11608424253E+03  0.00000000000E+00 0.  1.
         21   -1    0    0  501  503 -0.00000000000E+00 -0.00000000000E+00 -0.11406456925E+04  0.11406456925E+04  0.00000000000E+00 0. -1.
          6    1    1    2  501    0  0.83891214339E+02 -0.14471915533E+03 -0.98361594566E+03  0.10126256457E+04  0.17300000000E+03 0. -1.
         -6    1    1    2    0  502 -0.83891214339E+02  0.14471915533E+03 -0.40945504333E+02  0.24410428937E+03  0.17300000000E+03 0.  1.
<mgrwt>
<rscale>  2 0.24064573E+03</rscale>
<asrwt>0</asrwt>
<pdfrwt beam="1">  1       21 0.17859114E-01 0.24064573E+03</pdfrwt>
<pdfrwt beam="2">  1       21 0.17548395E+00 0.24064573E+03</pdfrwt>
<totfact> 0.53567110E+03</totfact>
</mgrwt>
</event>
<event>
 4    1  0.3976152E+000  0.1810003E+03  0.7546771E-02  0.1166838E+00
         21   -1    0    0  501  502  0.00000000000E+00  0.00000000000E+00  0.86263604314E+03  0.86263604314E+03  0.00000000000E+00 0.  1.
         21   -1    0    0  502  503 -0.00000000000E+00 -0.00000000000E+00 -0.58478115427E+02  0.58478115427E+02  0.00000000000E+00 0.  1.
          6    1    1    2  501    0 -0.27294236619E+02  0.45685351320E+02  0.67476677706E+03  0.69862102037E+03  0.17300000000E+03 0.  1.
         -6    1    1    2    0  503  0.27294236619E+02 -0.45685351320E+02  0.12939115065E+03  0.22249313820E+03  0.17300000000E+03 0.  1.
<mgrwt>
<rscale>  2 0.18100035E+03</rscale>
<asrwt>0</asrwt>
<pdfrwt beam="1">  1       21 0.13271323E+00 0.18100035E+03</pdfrwt>
<pdfrwt beam="2">  1       21 0.89966338E-02 0.18100035E+03</pdfrwt>
<totfact> 0.40364443E+04</totfact>
</mgrwt>
</event>
<event>
 4    1  0.3976152E+000  0.4484438E+03  0.7546771E-02  0.1028187E+00
         21   -1    0    0  503  502  0.00000000000E+00  0.00000000000E+00  0.19345507666E+03  0.19345507666E+03  0.00000000000E+00 0.  1.
         21   -1    0    0  501  503 -0.00000000000E+00 -0.00000000000E+00 -0.14134063355E+04  0.14134063355E+04  0.00000000000E+00 0. -1.
          6    1    1    2  501    0 -0.29699543235E+03 -0.28803914187E+03 -0.10231948024E+04  0.11171523789E+04  0.17300000000E+03 0.  1.
         -6    1    1    2    0  502  0.29699543235E+03  0.28803914187E+03 -0.19675645644E+03  0.48970903324E+03  0.17300000000E+03 0. -1.
<mgrwt>
<rscale>  2 0.44844379E+03</rscale>
<asrwt>0</asrwt>
<pdfrwt beam="1">  1       21 0.29762319E-01 0.44844379E+03</pdfrwt>
<pdfrwt beam="2">  1       21 0.21744713E+00 0.44844379E+03</pdfrwt>
<totfact> 0.93662362E+02</totfact>
</mgrwt>
</event>
<event>
 4    1  0.3976152E+000  0.1824680E+03  0.7546771E-02  0.1165436E+00
         21   -1    0    0  501  502  0.00000000000E+00  0.00000000000E+00  0.66489415600E+03  0.66489415600E+03  0.00000000000E+00 0. -1.
         21   -1    0    0  502  503 -0.00000000000E+00 -0.00000000000E+00 -0.95353107325E+02  0.95353107325E+02  0.00000000000E+00 0. -1.
          6    1    1    2  501    0  0.56611932082E+02  0.12675205496E+02  0.54671038966E+03  0.57635650586E+03  0.17300000000E+03 0. -1.
         -6    1    1    2    0  503 -0.56611932082E+02 -0.12675205496E+02  0.22830659014E+02  0.18389075746E+03  0.17300000000E+03 0. -1.
<mgrwt>
<rscale>  2 0.18246800E+03</rscale>
<asrwt>0</asrwt>
<pdfrwt beam="1">  1       21 0.10229141E+00 0.18246800E+03</pdfrwt>
<pdfrwt beam="2">  1       21 0.14669709E-01 0.18246800E+03</pdfrwt>
<totfact> 0.31954336E+04</totfact>
</mgrwt>
</event>
<event>
 4    1  0.3976152E+000  0.1959897E+03  0.7546771E-02  0.1153167E+00
         21   -1    0    0  503  502  0.00000000000E+00  0.00000000000E+00  0.59604806064E+02  0.59604806064E+02  0.00000000000E+00 0. -1.
         21   -1    0    0  501  503 -0.00000000000E+00 -0.00000000000E+00 -0.99680361282E+03  0.99680361282E+03  0.00000000000E+00 0. -1.
          6    1    1    2  501    0  0.76539594863E+02  0.51231388053E+02 -0.78264308923E+03  0.80680987217E+03  0.17300000000E+03 0. -1.
         -6    1    1    2    0  502 -0.76539594863E+02 -0.51231388053E+02 -0.15455571752E+03  0.24959854672E+03  0.17300000000E+03 0. -1.
<mgrwt>
<rscale>  2 0.19598971E+03</rscale>
<asrwt>0</asrwt>
<pdfrwt beam="1">  1       21 0.91699699E-02 0.19598971E+03</pdfrwt>
<pdfrwt beam="2">  1       21 0.15335441E+00 0.19598971E+03</pdfrwt>
<totfact> 0.26594342E+04</totfact>
</mgrwt>
</event>
<event>
 4    1  0.3976152E+000  0.1822569E+03  0.7546771E-02  0.1165636E+00
         21   -1    0    0  501  502  0.00000000000E+00  0.00000000000E+00  0.49326472260E+03  0.49326472260E+03  0.00000000000E+00 0. -1.
         21   -1    0    0  502  503 -0.00000000000E+00 -0.00000000000E+00 -0.67451177194E+02  0.67451177194E+02  0.00000000000E+00 0. -1.
          6    1    1    2  501    0  0.20480777369E+01 -0.57309689955E+02  0.22416912010E+03  0.28891069484E+03  0.17300000000E+03 0. -1.
         -6    1    1    2    0  503 -0.20480777369E+01  0.57309689955E+02  0.20164442531E+03  0.27180520496E+03  0.17300000000E+03 0. -1.
<mgrwt>
<rscale>  2 0.18225695E+03</rscale>
<asrwt>0</asrwt>
<pdfrwt beam="1">  1       21 0.75886878E-01 0.18225695E+03</pdfrwt>
<pdfrwt beam="2">  1       21 0.10377105E-01 0.18225695E+03</pdfrwt>
<totfact> 0.11815631E+05</totfact>
</mgrwt>
</event>
<event>
 4    1  0.3976152E+000  0.1761165E+03  0.7546771E-02  0.1171615E+00
         21   -1    0    0  501  502  0.00000000000E+00  0.00000000000E+00  0.39098751413E+02  0.39098751413E+02  0.00000000000E+00 0. -1.
         21   -1    0    0  502  503 -0.00000000000E+00 -0.00000000000E+00 -0.90136776181E+03  0.90136776181E+03  0.00000000000E+00 0. -1.
          6    1    1    2  501    0  0.28176620852E+02  0.17149831001E+02 -0.26831349260E+03  0.32095041514E+03  0.17300000000E+03 0. -1.
         -6    1    1    2    0  503 -0.28176620852E+02 -0.17149831001E+02 -0.59395551779E+03  0.61951609808E+03  0.17300000000E+03 0. -1.
<mgrwt>
<rscale>  2 0.17611655E+03</rscale>
<asrwt>0</asrwt>
<pdfrwt beam="1">  1       21 0.60151928E-02 0.17611655E+03</pdfrwt>
<pdfrwt beam="2">  1       21 0.13867196E+00 0.17611655E+03</pdfrwt>
<totfact> 0.72601356E+04</totfact>
</mgrwt>
</event>
<event>
 4    1  0.3976152E+000  0.1758113E+03  0.7546771E-02  0.1171920E+00
         21   -1    0    0  501  502  0.00000000000E+00  0.00000000000E+00  0.65239125517E+03  0.65239125517E+03  0.00000000000E+00 0.  1.
         21   -1    0    0  502  503 -0.00000000000E+00 -0.00000000000E+00 -0.87545338901E+02  0.87545338901E+02  0.00000000000E+00 0.  1.
          6    1    1    2  501    0  0.26993114737E+02  0.15873954645E+02  0.53302200060E+03  0.56126826367E+03  0.17300000000E+03 0.  1.
         -6    1    1    2    0  503 -0.26993114737E+02 -0.15873954645E+02  0.31823915666E+02  0.17866833040E+03  0.17300000000E+03 0.  1.
<mgrwt>
<rscale>  2 0.17581129E+03</rscale>
<asrwt>0</asrwt>
<pdfrwt beam="1">  1       21 0.10036788E+00 0.17581129E+03</pdfrwt>
<pdfrwt beam="2">  1       21 0.13468514E-01 0.17581129E+03</pdfrwt>
<totfact> 0.39161458E+04</totfact>
</mgrwt>
</event>
<event>
 4    1  0.3976152E+000  0.2695153E+03  0.7546771E-02  0.1101557E+00
         21   -1    0    0  503  502  0.00000000000E+00  0.00000000000E+00  0.98211943065E+03  0.98211943065E+03  0.00000000000E+00 0.  1.
         21   -1    0    0  501  503 -0.00000000000E+00 -0.00000000000E+00 -0.78642682144E+02  0.78642682144E+02  0.00000000000E+00 0.  1.
          6    1    1    2  501    0 -0.20589507182E+03  0.17796504499E+02  0.32233021746E+03  0.42016099922E+03  0.17300000000E+03 0.  1.
         -6    1    1    2    0  502  0.20589507182E+03 -0.17796504499E+02  0.58114653105E+03  0.64060111358E+03  0.17300000000E+03 0.  1.
<mgrwt>
<rscale>  2 0.26951530E+03</rscale>
<asrwt>0</asrwt>
<pdfrwt beam="1">  1       21 0.15109529E+00 0.26951530E+03</pdfrwt>
<pdfrwt beam="2">  1       21 0.12098875E-01 0.26951530E+03</pdfrwt>
<totfact> 0.16180495E+04</totfact>
</mgrwt>
</event>
<event>
 4    1  0.3976152E+000  0.1785437E+03  0.7546771E-02  0.1169220E+00
         21   -1    0    0  501  502  0.00000000000E+00  0.00000000000E+00  0.57311593895E+03  0.57311593895E+03  0.00000000000E+00 0. -1.
         21   -1    0    0  502  503 -0.00000000000E+00 -0.00000000000E+00 -0.55780677184E+02  0.55780677184E+02  0.00000000000E+00 0. -1.
          6    1    1    2  501    0 -0.41585767029E+02  0.14814976728E+02  0.24189685499E+03  0.30065253701E+03  0.17300000000E+03 0. -1.
         -6    1    1    2    0  503  0.41585767029E+02 -0.14814976728E+02  0.27543840678E+03  0.32824407913E+03  0.17300000000E+03 0. -1.
<mgrwt>
<rscale>  2 0.17854372E+03</rscale>
<asrwt>0</asrwt>
<pdfrwt beam="1">  1       21 0.88171679E-01 0.17854372E+03</pdfrwt>
<pdfrwt beam="2">  1       21 0.85816430E-02 0.17854372E+03</pdfrwt>
<totfact> 0.11758904E+05</totfact>
</mgrwt>
</event>
<event>
 4    1  0.3976152E+000  0.2025855E+03  0.7546771E-02  0.1147576E+00
         21   -1    0    0  503  502  0.00000000000E+00  0.00000000000E+00  0.24273390656E+03  0.24273390656E+03  0.00000000000E+00 0. -1.
         21   -1    0    0  501  503 -0.00000000000E+00 -0.00000000000E+00 -0.20237718850E+03  0.20237718850E+03  0.00000000000E+00 0. -1.
          6    1    1    2  501    0  0.82720273397E+02 -0.65339448844E+02 -0.70098516204E+02  0.21437044848E+03  0.17300000000E+03 0. -1.
         -6    1    1    2    0  502 -0.82720273397E+02  0.65339448844E+02  0.11045523427E+03  0.23074064658E+03  0.17300000000E+03 0. -1.
<mgrwt>
<rscale>  2 0.20258551E+03</rscale>
<asrwt>0</asrwt>
<pdfrwt beam="1">  1       21 0.37343678E-01 0.20258551E+03</pdfrwt>
<pdfrwt beam="2">  1       21 0.31134952E-01 0.20258551E+03</pdfrwt>
<totfact> 0.68235211E+04</totfact>
</mgrwt>
</event>
<event>
 4    1  0.3976152E+000  0.2378980E+03  0.7546771E-02  0.1121201E+00
         21   -1    0    0  503  502  0.00000000000E+00  0.00000000000E+00  0.37823673899E+03  0.37823673899E+03  0.00000000000E+00 0. -1.
         21   -1    0    0  501  503 -0.00000000000E+00 -0.00000000000E+00 -0.18132283029E+03  0.18132283029E+03  0.00000000000E+00 0. -1.
          6    1    1    2  501    0  0.29448939944E+02 -0.16062133959E+03 -0.18512526962E+02  0.23861720066E+03  0.17300000000E+03 0. -1.
         -6    1    1    2    0  502 -0.29448939944E+02  0.16062133959E+03  0.21542643566E+03  0.32094236862E+03  0.17300000000E+03 0. -1.
<mgrwt>
<rscale>  2 0.23789799E+03</rscale>
<asrwt>0</asrwt>
<pdfrwt beam="1">  1       21 0.58190267E-01 0.23789799E+03</pdfrwt>
<pdfrwt beam="2">  1       21 0.27895820E-01 0.23789799E+03</pdfrwt>
<totfact> 0.33188487E+04</totfact>
</mgrwt>
</event>
<event>
 4    1  0.3976152E+000  0.1848421E+03  0.7546771E-02  0.1163197E+00
         21   -1    0    0  503  502  0.00000000000E+00  0.00000000000E+00  0.46416396869E+02  0.46416396869E+02  0.00000000000E+00 0. -1.
         21   -1    0    0  501  503 -0.00000000000E+00 -0.00000000000E+00 -0.96950848814E+03  0.96950848814E+03  0.00000000000E+00 0.  1.
          6    1    1    2  501    0  0.23441695910E+02  0.60729495061E+02 -0.71079000480E+03  0.73443108295E+03  0.17300000000E+03 0.  1.
         -6    1    1    2    0  502 -0.23441695910E+02 -0.60729495061E+02 -0.21230208647E+03  0.28149380206E+03  0.17300000000E+03 0. -1.
<mgrwt>
<rscale>  2 0.18484205E+03</rscale>
<asrwt>0</asrwt>
<pdfrwt beam="1">  1       21 0.71409847E-02 0.18484205E+03</pdfrwt>
<pdfrwt beam="2">  1       21 0.14915514E+00 0.18484205E+03</pdfrwt>
<totfact> 0.44534049E+04</totfact>
</mgrwt>
</event>
<event>
 4    1  0.3976152E+000  0.3630297E+03  0.7546771E-02  0.1057391E+00
         21   -1    0    0  501  502  0.00000000000E+00  0.00000000000E+00  0.18082024094E+04  0.18082024094E+04  0.00000000000E+00 0. -1.
         21   -1    0    0  502  503 -0.00000000000E+00 -0.00000000000E+00 -0.16664238557E+03  0.16664238557E+03  0.00000000000E+00 0.  1.
          6    1    1    2  501    0  0.75776371319E+02  0.31003146374E+03  0.15614305137E+04  0.16030769839E+04  0.17300000000E+03 0.  1.
         -6    1    1    2    0  503 -0.75776371319E+02 -0.31003146374E+03  0.80129510048E+02  0.37176781106E+03  0.17300000000E+03 0.  1.
<mgrwt>
<rscale>  2 0.36302971E+03</rscale>
<asrwt>0</asrwt>
<pdfrwt beam="1">  1       21 0.27818497E+00 0.36302971E+03</pdfrwt>
<pdfrwt beam="2">  1       21 0.25637291E-01 0.36302971E+03</pdfrwt>
<totfact> 0.55817919E+02</totfact>
</mgrwt>
</event>
<event>
 4    1  0.3976152E+000  0.1766765E+03  0.7546771E-02  0.1171059E+00
         21   -1    0    0  501  502  0.00000000000E+00  0.00000000000E+00  0.48538625060E+03  0.48538625060E+03  0.00000000000E+00 0.  1.
         21   -1    0    0  502  503 -0.00000000000E+00 -0.00000000000E+00 -0.84778709529E+02  0.84778709529E+02  0.00000000000E+00 0. -1.
          6    1    1    2  501    0 -0.35827735723E+02 -0.14002635695E+01  0.34038679977E+03  0.38350718486E+03  0.17300000000E+03 0.  1.
         -6    1    1    2    0  503  0.35827735723E+02  0.14002635695E+01  0.60220741307E+02  0.18665777527E+03  0.17300000000E+03 0. -1.
<mgrwt>
<rscale>  2 0.17667650E+03</rscale>
<asrwt>0</asrwt>
<pdfrwt beam="1">  1       21 0.74674806E-01 0.17667650E+03</pdfrwt>
<pdfrwt beam="2">  1       21 0.13042879E-01 0.17667650E+03</pdfrwt>
<totfact> 0.81667946E+04</totfact>
</mgrwt>
</event>
<event>
 4    1  0.3976152E+000  0.2113257E+03  0.7546771E-02  0.1140520E+00
         21   -1    0    0  503  502  0.00000000000E+00  0.00000000000E+00  0.46188276446E+03  0.46188276446E+03  0.00000000000E+00 0.  1.
         21   -1    0    0  501  503 -0.00000000000E+00 -0.00000000000E+00 -0.11262716645E+03  0.11262716645E+03  0.00000000000E+00 0.  1.
          6    1    1    2  501    0  0.75037438004E+02 -0.95388234558E+02  0.66564449543E+02  0.22156118418E+03  0.17300000000E+03 0.  1.
         -6    1    1    2    0  502 -0.75037438004E+02  0.95388234558E+02  0.28269114847E+03  0.35294874673E+03  0.17300000000E+03 0.  1.
<mgrwt>
<rscale>  2 0.21132565E+03</rscale>
<asrwt>0</asrwt>
<pdfrwt beam="1">  1       21 0.71058886E-01 0.21132565E+03</pdfrwt>
<pdfrwt beam="2">  1       21 0.17327257E-01 0.21132565E+03</pdfrwt>
<totfact> 0.53508097E+04</totfact>
</mgrwt>
</event>
<event>
 4    1  0.3976152E+000  0.2113441E+03  0.7546771E-02  0.1140506E+00
         21   -1    0    0  501  502  0.00000000000E+00  0.00000000000E+00  0.13436399299E+03  0.13436399299E+03  0.00000000000E+00 0.  1.
         21   -1    0    0  502  503 -0.00000000000E+00 -0.00000000000E+00 -0.33278214993E+03  0.33278214993E+03  0.00000000000E+00 0. -1.
          6    1    1    2  501    0  0.11744211159E+03 -0.30735928456E+02 -0.10682927913E+03  0.23680971634E+03  0.17300000000E+03 0.  1.
         -6    1    1    2    0  503 -0.11744211159E+03  0.30735928456E+02 -0.91588877811E+02  0.23033642658E+03  0.17300000000E+03 0. -1.
<mgrwt>
<rscale>  2 0.21134414E+03</rscale>
<asrwt>0</asrwt>
<pdfrwt beam="1">  1       21 0.20671384E-01 0.21134414E+03</pdfrwt>
<pdfrwt beam="2">  1       21 0.51197253E-01 0.21134414E+03</pdfrwt>
<totfact> 0.78069327E+04</totfact>
</mgrwt>
</event>
<event>
 4    1  0.3976152E+000  0.3082260E+03  0.7546771E-02  0.1081199E+00
         21   -1    0    0  501  502  0.00000000000E+00  0.00000000000E+00  0.18389375586E+04  0.18389375586E+04  0.00000000000E+00 0. -1.
         21   -1    0    0  502  503 -0.00000000000E+00 -0.00000000000E+00 -0.54538355470E+02  0.54538355470E+02  0.00000000000E+00 0.  1.
          6    1    1    2  501    0 -0.13510902807E+03 -0.21637884515E+03  0.11096186075E+04  0.11516321931E+04  0.17300000000E+03 0. -1.
         -6    1    1    2    0  503  0.13510902807E+03  0.21637884515E+03  0.67478059571E+03  0.74184372104E+03  0.17300000000E+03 0.  1.
<mgrwt>
<rscale>  2 0.30822598E+03</rscale>
<asrwt>0</asrwt>
<pdfrwt beam="1">  1       21 0.28291342E+00 0.30822598E+03</pdfrwt>
<pdfrwt beam="2">  1       21 0.83905177E-02 0.30822598E+03</pdfrwt>
<totfact> 0.42665369E+03</totfact>
</mgrwt>
</event>
<event>
 4    1  0.3976152E+000  0.2933460E+03  0.7546771E-02  0.1088615E+00
         21   -1    0    0  503  502  0.00000000000E+00  0.00000000000E+00  0.58140456610E+03  0.58140456610E+03  0.00000000000E+00 0.  1.
         21   -1    0    0  501  503 -0.00000000000E+00 -0.00000000000E+00 -0.46356946362E+03  0.46356946362E+03  0.00000000000E+00 0. -1.
          6    1    1    2  501    0 -0.22897214778E+03  0.60783567011E+02 -0.37216538314E+03  0.47387652283E+03  0.17300000000E+03 0. -1.
         -6    1    1    2    0  502  0.22897214778E+03 -0.60783567011E+02  0.49000048562E+03  0.57109750690E+03  0.17300000000E+03 0.  1.
<mgrwt>
<rscale>  2 0.29334602E+03</rscale>
<asrwt>0</asrwt>
<pdfrwt beam="1">  1       21 0.89446856E-01 0.29334602E+03</pdfrwt>
<pdfrwt beam="2">  1       21 0.71318379E-01 0.29334602E+03</pdfrwt>
<totfact> 0.17561558E+03</totfact>
</mgrwt>
</event>
<event>
 4    1  0.3976152E+000  0.2442893E+03  0.7546771E-02  0.1116968E+00
         21   -1    0    0  503  502  0.00000000000E+00  0.00000000000E+00  0.22545133420E+04  0.22545133420E+04  0.00000000000E+00 0. -1.
         21   -1    0    0  501  503 -0.00000000000E+00 -0.00000000000E+00 -0.35109658580E+02  0.35109658580E+02  0.00000000000E+00 0.  1.
          6    1    1    2  501    0 -0.16113986657E+03 -0.61499497200E+02  0.54180966340E+03  0.59433572676E+03  0.17300000000E+03 0.  1.
         -6    1    1    2    0  502  0.16113986657E+03  0.61499497200E+02  0.16775940201E+04  0.16952872739E+04  0.17300000000E+03 0. -1.
<mgrwt>
<rscale>  2 0.24428926E+03</rscale>
<asrwt>0</asrwt>
<pdfrwt beam="1">  1       21 0.34684809E+00 0.24428926E+03</pdfrwt>
<pdfrwt beam="2">  1       21 0.54014877E-02 0.24428926E+03</pdfrwt>
<totfact> 0.40577654E+03</totfact>
</mgrwt>
</event>
<event>
 4    1  0.3976152E+000  0.1872190E+03  0.7546771E-02  0.1160994E+00
         21   -1    0    0  501  502  0.00000000000E+00  0.00000000000E+00  0.39467834092E+02  0.39467834092E+02  0.00000000000E+00 0.  1.
         21   -1    0    0  502  503 -0.00000000000E+00 -0.00000000000E+00 -0.17284932842E+04  0.17284932842E+04  0.00000000000E+00 0.  1.
          6    1    1    2  501    0 -0.40572364821E+02  0.58956104392E+02 -0.22812630522E+03  0.29511446959E+03  0.17300000000E+03 0.  1.
         -6    1    1    2    0  503  0.40572364821E+02 -0.58956104392E+02 -0.14608991449E+04  0.14728466487E+04  0.17300000000E+03 0.  1.
<mgrwt>
<rscale>  2 0.18721896E+03</rscale>
<asrwt>0</asrwt>
<pdfrwt beam="1">  1       21 0.60719752E-02 0.18721896E+03</pdfrwt>
<pdfrwt beam="2">  1       21 0.26592201E+00 0.18721896E+03</pdfrwt>
<totfact> 0.10427171E+04</totfact>
</mgrwt>
</event>
<event>
 4    1  0.3976152E+000  0.2149148E+03  0.7546771E-02  0.1137732E+00
         21   -1    0    0  503  502  0.00000000000E+00  0.00000000000E+00  0.10840008088E+04  0.10840008088E+04  0.00000000000E+00 0. -1.
         21   -1    0    0  501  503 -0.00000000000E+00 -0.00000000000E+00 -0.44470521492E+02  0.44470521492E+02  0.00000000000E+00 0. -1.
          6    1    1    2  501    0  0.10954989716E+03 -0.65254866904E+02  0.40432993053E+03  0.45789853717E+03  0.17300000000E+03 0. -1.
         -6    1    1    2    0  502 -0.10954989716E+03  0.65254866904E+02  0.63520035679E+03  0.67057279313E+03  0.17300000000E+03 0. -1.
<mgrwt>
<rscale>  2 0.21491481E+03</rscale>
<asrwt>0</asrwt>
<pdfrwt beam="1">  1       21 0.16676934E+00 0.21491481E+03</pdfrwt>
<pdfrwt beam="2">  1       21 0.68416195E-02 0.21491481E+03</pdfrwt>
<totfact> 0.34905310E+04</totfact>
</mgrwt>
</event>
<event>
 4    1  0.3976152E+000  0.2088661E+03  0.7546771E-02  0.1142467E+00
         21   -1    0    0  503  502  0.00000000000E+00  0.00000000000E+00  0.16360797362E+03  0.16360797362E+03  0.00000000000E+00 0.  1.
         21   -1    0    0  501  503 -0.00000000000E+00 -0.00000000000E+00 -0.44626511129E+03  0.44626511129E+03  0.00000000000E+00 0. -1.
          6    1    1    2  501    0  0.91104996302E+02 -0.73457089405E+02 -0.33478886250E+03  0.39459934971E+03  0.17300000000E+03 0. -1.
         -6    1    1    2    0  502 -0.91104996302E+02  0.73457089405E+02  0.52131724824E+02  0.21527373520E+03  0.17300000000E+03 0. -1.
<mgrwt>
<rscale>  2 0.20886614E+03</rscale>
<asrwt>0</asrwt>
<pdfrwt beam="1">  1       21 0.25170458E-01 0.20886614E+03</pdfrwt>
<pdfrwt beam="2">  1       21 0.68656170E-01 0.20886614E+03</pdfrwt>
<totfact> 0.28651645E+04</totfact>
</mgrwt>
</event>
<event>
 4    1  0.3976152E+000  0.1899726E+03  0.7546771E-02  0.1158486E+00
         21   -1    0    0  501  502  0.00000000000E+00  0.00000000000E+00  0.17685385169E+03  0.17685385169E+03  0.00000000000E+00 0. -1.
         21   -1    0    0  502  503 -0.00000000000E+00 -0.00000000000E+00 -0.20889092555E+03  0.20889092555E+03  0.00000000000E+00 0. -1.
          6    1    1    2  501    0  0.77481065176E+02  0.12540365186E+02  0.13298987804E+02  0.19043749446E+03  0.17300000000E+03 0. -1.
         -6    1    1    2    0  503 -0.77481065176E+02 -0.12540365186E+02 -0.45336061667E+02  0.19530728278E+03  0.17300000000E+03 0. -1.
<mgrwt>
<rscale>  2 0.18997257E+03</rscale>
<asrwt>0</asrwt>
<pdfrwt beam="1">  1       21 0.27208285E-01 0.18997257E+03</pdfrwt>
<pdfrwt beam="2">  1       21 0.32137065E-01 0.18997257E+03</pdfrwt>
<totfact> 0.12005195E+05</totfact>
</mgrwt>
</event>
<event>
 4    1  0.3976152E+000  0.1917434E+03  0.7546771E-02  0.1156898E+00
         21   -1    0    0  501  502  0.00000000000E+00  0.00000000000E+00  0.10802009612E+03  0.10802009612E+03  0.00000000000E+00 0. -1.
         21   -1    0    0  502  503 -0.00000000000E+00 -0.00000000000E+00 -0.57460311502E+03  0.57460311502E+03  0.00000000000E+00 0.  1.
          6    1    1    2  501    0  0.81461060154E+02  0.14163644951E+02 -0.15368915614E+02  0.19235830298E+03  0.17300000000E+03 0. -1.
         -6    1    1    2    0  503 -0.81461060154E+02 -0.14163644951E+02 -0.45121410329E+03  0.49026490816E+03  0.17300000000E+03 0.  1.
<mgrwt>
<rscale>  2 0.19174335E+03</rscale>
<asrwt>0</asrwt>
<pdfrwt beam="1">  1       21 0.16618477E-01 0.19174335E+03</pdfrwt>
<pdfrwt beam="2">  1       21 0.88400476E-01 0.19174335E+03</pdfrwt>
<totfact> 0.35635496E+04</totfact>
</mgrwt>
</event>
<event>
 4    1  0.3976152E+000  0.1886010E+03  0.7546771E-02  0.1159729E+00
         21   -1    0    0  503  502  0.00000000000E+00  0.00000000000E+00  0.53134533334E+03  0.53134533334E+03  0.00000000000E+00 0.  1.
         21   -1    0    0  501  503 -0.00000000000E+00 -0.00000000000E+00 -0.67613741754E+02  0.67613741754E+02  0.00000000000E+00 0. -1.
          6    1    1    2  501    0 -0.54420515089E+02 -0.51766069485E+02  0.20205715659E+03  0.27640081935E+03  0.17300000000E+03 0. -1.
         -6    1    1    2    0  502  0.54420515089E+02  0.51766069485E+02  0.26167443500E+03  0.32255825574E+03  0.17300000000E+03 0.  1.
<mgrwt>
<rscale>  2 0.18860095E+03</rscale>
<asrwt>0</asrwt>
<pdfrwt beam="1">  1       21 0.81745433E-01 0.18860095E+03</pdfrwt>
<pdfrwt beam="2">  1       21 0.10402114E-01 0.18860095E+03</pdfrwt>
<totfact> 0.99279403E+04</totfact>
</mgrwt>
</event>
<event>
 4    1  0.3976152E+000  0.2863711E+03  0.7546771E-02  0.1092259E+00
         21   -1    0    0  503  502  0.00000000000E+00  0.00000000000E+00  0.57078834163E+02  0.57078834163E+02  0.00000000000E+00 0.  1.
         21   -1    0    0  501  503 -0.00000000000E+00 -0.00000000000E+00 -0.16464244776E+04  0.16464244776E+04  0.00000000000E+00 0. -1.
          6    1    1    2  501    0  0.12155630878E+03  0.19314104688E+03 -0.10986268301E+04  0.11353366514E+04  0.17300000000E+03 0.  1.
         -6    1    1    2    0  502 -0.12155630878E+03 -0.19314104688E+03 -0.49071881340E+03  0.56816666043E+03  0.17300000000E+03 0. -1.
<mgrwt>
<rscale>  2 0.28637109E+03</rscale>
<asrwt>0</asrwt>
<pdfrwt beam="1">  1       21 0.87813582E-02 0.28637109E+03</pdfrwt>
<pdfrwt beam="2">  1       21 0.25329610E+00 0.28637109E+03</pdfrwt>
<totfact> 0.59928503E+03</totfact>
</mgrwt>
</event>
<event>
 4    1  0.3976152E+000  0.2683833E+03  0.7546771E-02  0.1102208E+00
         21   -1    0    0  501  502  0.00000000000E+00  0.00000000000E+00  0.14434606419E+03  0.14434606419E+03  0.00000000000E+00 0. -1.
         21   -1    0    0  502  503 -0.00000000000E+00 -0.00000000000E+00 -0.55429797194E+03  0.55429797194E+03  0.00000000000E+00 0.  1.
          6    1    1    2  501    0  0.10972021891E+03 -0.17338423818E+03 -0.94648525635E+02  0.28458384334E+03  0.17300000000E+03 0. -1.
         -6    1    1    2    0  503 -0.10972021891E+03  0.17338423818E+03 -0.31530338212E+03  0.41406019280E+03  0.17300000000E+03 0.  1.
<mgrwt>
<rscale>  2 0.26838335E+03</rscale>
<asrwt>0</asrwt>
<pdfrwt beam="1">  1       21 0.22207087E-01 0.26838335E+03</pdfrwt>
<pdfrwt beam="2">  1       21 0.85276609E-01 0.26838335E+03</pdfrwt>
<totfact> 0.21675849E+04</totfact>
</mgrwt>
</event>
<event>
 4    1  0.3976152E+000  0.1825342E+03  0.7546771E-02  0.1165373E+00
         21   -1    0    0  501  502  0.00000000000E+00  0.00000000000E+00  0.24355220769E+03  0.24355220769E+03  0.00000000000E+00 0. -1.
         21   -1    0    0  502  503 -0.00000000000E+00 -0.00000000000E+00 -0.66269576000E+03  0.66269576000E+03  0.00000000000E+00 0. -1.
          6    1    1    2  501    0 -0.47015401483E+02 -0.34340915474E+02  0.19408144720E+03  0.26643264552E+03  0.17300000000E+03 0. -1.
         -6    1    1    2    0  503  0.47015401483E+02  0.34340915474E+02 -0.61322499952E+03  0.63981532217E+03  0.17300000000E+03 0. -1.
<mgrwt>
<rscale>  2 0.18253423E+03</rscale>
<asrwt>0</asrwt>
<pdfrwt beam="1">  1       21 0.37469571E-01 0.18253423E+03</pdfrwt>
<pdfrwt beam="2">  1       21 0.10195319E+00 0.18253423E+03</pdfrwt>
<totfact> 0.54288557E+03</totfact>
</mgrwt>
</event>
<event>
 4    1  0.3976152E+000  0.1842844E+03  0.7546771E-02  0.1163720E+00
         21   -1    0    0  501  502  0.00000000000E+00  0.00000000000E+00  0.47153721812E+02  0.47153721812E+02  0.00000000000E+00 0.  1.
         21   -1    0    0  502  503 -0.00000000000E+00 -0.00000000000E+00 -0.88472713517E+03  0.88472713517E+03  0.00000000000E+00 0. -1.
          6    1    1    2  501    0  0.50581791852E+02  0.38382485562E+02 -0.21786490367E+03  0.28535214931E+03  0.17300000000E+03 0.  1.
         -6    1    1    2    0  503 -0.50581791852E+02 -0.38382485562E+02 -0.61970850969E+03  0.64652870767E+03  0.17300000000E+03 0. -1.
<mgrwt>
<rscale>  2 0.18428438E+03</rscale>
<asrwt>0</asrwt>
<pdfrwt beam="1">  1       21 0.72544190E-02 0.18428438E+03</pdfrwt>
<pdfrwt beam="2">  1       21 0.13611186E+00 0.18428438E+03</pdfrwt>
<totfact> 0.54952152E+04</totfact>
</mgrwt>
</event>
<event>
 4    1  0.3976152E+000  0.2472106E+03  0.7546771E-02  0.1115080E+00
         21   -1    0    0  503  502  0.00000000000E+00  0.00000000000E+00  0.15129001540E+03  0.15129001540E+03  0.00000000000E+00 0.  1.
         21   -1    0    0  501  503 -0.00000000000E+00 -0.00000000000E+00 -0.43378524224E+03  0.43378524224E+03  0.00000000000E+00 0.  1.
          6    1    1    2  501    0  0.15642731476E+03 -0.81942610421E+02 -0.21797200488E+03  0.32958290477E+03  0.17300000000E+03 0.  1.
         -6    1    1    2    0  502 -0.15642731476E+03  0.81942610421E+02 -0.64523221956E+02  0.25549235287E+03  0.17300000000E+03 0.  1.
<mgrwt>
<rscale>  2 0.24721063E+03</rscale>
<asrwt>0</asrwt>
<pdfrwt beam="1">  1       21 0.23275388E-01 0.24721063E+03</pdfrwt>
<pdfrwt beam="2">  1       21 0.66736189E-01 0.24721063E+03</pdfrwt>
<totfact> 0.34762500E+04</totfact>
</mgrwt>
</event>
<event>
 4    1  0.3976152E+000  0.2200708E+03  0.7546771E-02  0.1133830E+00
         21   -1    0    0  501  502  0.00000000000E+00  0.00000000000E+00  0.25397559367E+03  0.25397559367E+03  0.00000000000E+00 0.  1.
         21   -1    0    0  502  503 -0.00000000000E+00 -0.00000000000E+00 -0.19830261711E+03  0.19830261711E+03  0.00000000000E+00 0.  1.
          6    1    1    2  501    0  0.12729828645E+03 -0.47930360313E+02  0.72137610263E+02  0.23159233145E+03  0.17300000000E+03 0.  1.
         -6    1    1    2    0  503 -0.12729828645E+03  0.47930360313E+02 -0.16464633704E+02  0.22068587933E+03  0.17300000000E+03 0.  1.
<mgrwt>
<rscale>  2 0.22007084E+03</rscale>
<asrwt>0</asrwt>
<pdfrwt beam="1">  1       21 0.39073168E-01 0.22007084E+03</pdfrwt>
<pdfrwt beam="2">  1       21 0.30508095E-01 0.22007084E+03</pdfrwt>
<totfact> 0.64339774E+04</totfact>
</mgrwt>
</event>
<event>
 4    1  0.3976152E+000  0.2018331E+03  0.7546771E-02  0.1148202E+00
         21   -1    0    0  503  502  0.00000000000E+00  0.00000000000E+00  0.83277468934E+02  0.83277468934E+02  0.00000000000E+00 0. -1.
         21   -1    0    0  501  503 -0.00000000000E+00 -0.00000000000E+00 -0.55536214384E+03  0.55536214384E+03  0.00000000000E+00 0. -1.
          6    1    1    2  501    0 -0.10394016943E+03 -0.20073793866E+01 -0.34628528980E+03  0.40081178915E+03  0.17300000000E+03 0. -1.
         -6    1    1    2    0  502  0.10394016943E+03  0.20073793866E+01 -0.12579938510E+03  0.23782782362E+03  0.17300000000E+03 0. -1.
<mgrwt>
<rscale>  2 0.20183307E+03</rscale>
<asrwt>0</asrwt>
<pdfrwt beam="1">  1       21 0.12811919E-01 0.20183307E+03</pdfrwt>
<pdfrwt beam="2">  1       21 0.85440327E-01 0.20183307E+03</pdfrwt>
<totfact> 0.61520319E+04</totfact>
</mgrwt>
</event>
<event>
 4    1  0.3976152E+000  0.1736229E+03  0.7546771E-02  0.1174122E+00
         21   -1    0    0  503  502  0.00000000000E+00  0.00000000000E+00  0.43262675084E+03  0.43262675084E+03  0.00000000000E+00 0.  1.
         21   -1    0    0  501  503 -0.00000000000E+00 -0.00000000000E+00 -0.13256270480E+03  0.13256270480E+03  0.00000000000E+00 0.  1.
          6    1    1    2  501    0 -0.17547504466E+01 -0.14588913809E+02 -0.44603947960E+02  0.17926078135E+03  0.17300000000E+03 0.  1.
         -6    1    1    2    0  502  0.17547504466E+01  0.14588913809E+02  0.34466799400E+03  0.38592867429E+03  0.17300000000E+03 0.  1.
<mgrwt>
<rscale>  2 0.17362291E+03</rscale>
<asrwt>0</asrwt>
<pdfrwt beam="1">  1       21 0.66557961E-01 0.17362291E+03</pdfrwt>
<pdfrwt beam="2">  1       21 0.20394263E-01 0.17362291E+03</pdfrwt>
<totfact> 0.46498903E+04</totfact>
</mgrwt>
</event>
<event>
 4    1  0.3976152E+000  0.1849858E+03  0.7546771E-02  0.1163063E+00
         21   -1    0    0  501  502  0.00000000000E+00  0.00000000000E+00  0.19808583764E+04  0.19808583764E+04  0.00000000000E+00 0.  1.
         21   -1    0    0  502  503 -0.00000000000E+00 -0.00000000000E+00 -0.17459853717E+02  0.17459853717E+02  0.00000000000E+00 0.  1.
          6    1    1    2  501    0 -0.14035486491E+02 -0.63982453034E+02  0.10844485453E+04  0.11001129018E+04  0.17300000000E+03 0.  1.
         -6    1    1    2    0  503  0.14035486491E+02  0.63982453034E+02  0.87894997731E+03  0.89820532830E+03  0.17300000000E+03 0.  1.
<mgrwt>
<rscale>  2 0.18498581E+03</rscale>
<asrwt>0</asrwt>
<pdfrwt beam="1">  1       21 0.30474727E+00 0.18498581E+03</pdfrwt>
<pdfrwt beam="2">  1       21 0.26861329E-02 0.18498581E+03</pdfrwt>
<totfact> 0.24529760E+04</totfact>
</mgrwt>
</event>
<event>
 4    1  0.3976152E+000  0.1871527E+03  0.7546771E-02  0.1161055E+00
         21   -1    0    0  501  502  0.00000000000E+00  0.00000000000E+00  0.53169276911E+02  0.53169276911E+02  0.00000000000E+00 0. -1.
         21   -1    0    0  502  503 -0.00000000000E+00 -0.00000000000E+00 -0.65876732926E+03  0.65876732926E+03  0.00000000000E+00 0. -1.
          6    1    1    2  501    0 -0.60926573966E+02  0.37216758947E+02 -0.30238237029E+03  0.35561388109E+03  0.17300000000E+03 0. -1.
         -6    1    1    2    0  503  0.60926573966E+02 -0.37216758947E+02 -0.30321568206E+03  0.35632272508E+03  0.17300000000E+03 0. -1.
<mgrwt>
<rscale>  2 0.18715270E+03</rscale>
<asrwt>0</asrwt>
<pdfrwt beam="1">  1       21 0.81798891E-02 0.18715270E+03</pdfrwt>
<pdfrwt beam="2">  1       21 0.10134882E+00 0.18715270E+03</pdfrwt>
<totfact> 0.92011860E+04</totfact>
</mgrwt>
</event>
<event>
 4    1  0.3976152E+000  0.2577003E+03  0.7546771E-02  0.1108533E+00
         21   -1    0    0  501  502  0.00000000000E+00  0.00000000000E+00  0.62015647601E+02  0.62015647601E+02  0.00000000000E+00 0.  1.
         21   -1    0    0  502  503 -0.00000000000E+00 -0.00000000000E+00 -0.10988288168E+04  0.10988288168E+04  0.00000000000E+00 0. -1.
          6    1    1    2  501    0  0.13533266673E+03  0.13477942819E+03 -0.61102505537E+03  0.66314481318E+03  0.17300000000E+03 0.  1.
         -6    1    1    2    0  503 -0.13533266673E+03 -0.13477942819E+03 -0.42578811378E+03  0.49769965118E+03  0.17300000000E+03 0. -1.
<mgrwt>
<rscale>  2 0.25770026E+03</rscale>
<asrwt>0</asrwt>
<pdfrwt beam="1">  1       21 0.95408692E-02 0.25770026E+03</pdfrwt>
<pdfrwt beam="2">  1       21 0.16905058E+00 0.25770026E+03</pdfrwt>
<totfact> 0.18329984E+04</totfact>
</mgrwt>
</event>
<event>
 4    1  0.3976152E+000  0.1809623E+03  0.7546771E-02  0.1166875E+00
         21   -1    0    0  503  502  0.00000000000E+00  0.00000000000E+00  0.35499333981E+03  0.35499333981E+03  0.00000000000E+00 0.  1.
         21   -1    0    0  501  503 -0.00000000000E+00 -0.00000000000E+00 -0.14139685553E+03  0.14139685553E+03  0.00000000000E+00 0.  1.
          6    1    1    2  501    0 -0.45236740027E+02  0.27784508685E+02 -0.39530983373E+02  0.18522969583E+03  0.17300000000E+03 0.  1.
         -6    1    1    2    0  502  0.45236740027E+02 -0.27784508685E+02  0.25312746766E+03  0.31116049951E+03  0.17300000000E+03 0.  1.
<mgrwt>
<rscale>  2 0.18096227E+03</rscale>
<asrwt>0</asrwt>
<pdfrwt beam="1">  1       21 0.54614360E-01 0.18096227E+03</pdfrwt>
<pdfrwt beam="2">  1       21 0.21753362E-01 0.18096227E+03</pdfrwt>
<totfact> 0.62747273E+04</totfact>
</mgrwt>
</event>
<event>
 4    1  0.3976152E+000  0.2022446E+03  0.7546771E-02  0.1147859E+00
         21   -1    0    0  503  502  0.00000000000E+00  0.00000000000E+00  0.26804935499E+03  0.26804935499E+03  0.00000000000E+00 0. -1.
         21   -1    0    0  501  503 -0.00000000000E+00 -0.00000000000E+00 -0.34983774623E+03  0.34983774623E+03  0.00000000000E+00 0. -1.
          6    1    1    2  501    0 -0.14356077809E+02 -0.10376790774E+03 -0.27287219339E+03  0.33964998097E+03  0.17300000000E+03 0. -1.
         -6    1    1    2    0  502  0.14356077809E+02  0.10376790774E+03  0.19108380215E+03  0.27823712026E+03  0.17300000000E+03 0. -1.
<mgrwt>
<rscale>  2 0.20224459E+03</rscale>
<asrwt>0</asrwt>
<pdfrwt beam="1">  1       21 0.41238363E-01 0.20224459E+03</pdfrwt>
<pdfrwt beam="2">  1       21 0.53821191E-01 0.20224459E+03</pdfrwt>
<totfact> 0.18382371E+04</totfact>
</mgrwt>
</event>
<event>
 4    1  0.3976152E+000  0.1980274E+03  0.7546771E-02  0.1151414E+00
         21   -1    0    0  501  502  0.00000000000E+00  0.00000000000E+00  0.28352362862E+03  0.28352362862E+03  0.00000000000E+00 0.  1.
         21   -1    0    0  502  503 -0.00000000000E+00 -0.00000000000E+00 -0.13868995899E+03  0.13868995899E+03  0.00000000000E+00 0.  1.
          6    1    1    2  501    0  0.85673035551E+02  0.44113290232E+02  0.83430601277E+02  0.21488489157E+03  0.17300000000E+03 0.  1.
         -6    1    1    2    0  503 -0.85673035551E+02 -0.44113290232E+02  0.61403068354E+02  0.20732869603E+03  0.17300000000E+03 0.  1.
<mgrwt>
<rscale>  2 0.19802740E+03</rscale>
<asrwt>0</asrwt>
<pdfrwt beam="1">  1       21 0.43619019E-01 0.19802740E+03</pdfrwt>
<pdfrwt beam="2">  1       21 0.21336917E-01 0.19802740E+03</pdfrwt>
<totfact> 0.10306435E+05</totfact>
</mgrwt>
</event>
<event>
 4    1  0.3976152E+000  0.2158364E+03  0.7546771E-02  0.1137026E+00
         21   -1    0    0  503  502  0.00000000000E+00  0.00000000000E+00  0.97910208631E+02  0.97910208631E+02  0.00000000000E+00 0.  1.
         21   -1    0    0  501  503 -0.00000000000E+00 -0.00000000000E+00 -0.73077062571E+03  0.73077062571E+03  0.00000000000E+00 0. -1.
          6    1    1    2  501    0  0.11934454844E+03  0.49124597636E+02 -0.56117570136E+03  0.60125162381E+03  0.17300000000E+03 0. -1.
         -6    1    1    2    0  502 -0.11934454844E+03 -0.49124597636E+02 -0.71684715714E+02  0.22742921053E+03  0.17300000000E+03 0.  1.
<mgrwt>
<rscale>  2 0.21583639E+03</rscale>
<asrwt>0</asrwt>
<pdfrwt beam="1">  1       21 0.15063109E-01 0.21583639E+03</pdfrwt>
<pdfrwt beam="2">  1       21 0.11242625E+00 0.21583639E+03</pdfrwt>
<totfact> 0.23783442E+04</totfact>
</mgrwt>
</event>
<event>
 4    1  0.3976152E+000  0.2019557E+03  0.7546771E-02  0.1148099E+00
         21   -1    0    0  503  502  0.00000000000E+00  0.00000000000E+00  0.10677107313E+03  0.10677107313E+03  0.00000000000E+00 0. -1.
         21   -1    0    0  501  503 -0.00000000000E+00 -0.00000000000E+00 -0.42041023951E+03  0.42041023951E+03  0.00000000000E+00 0. -1.
          6    1    1    2  501    0  0.47524420940E+02  0.92728347823E+02 -0.23649783460E+03  0.31099412027E+03  0.17300000000E+03 0. -1.
         -6    1    1    2    0  502 -0.47524420940E+02 -0.92728347823E+02 -0.77141331781E+02  0.21618719237E+03  0.17300000000E+03 0. -1.
<mgrwt>
<rscale>  2 0.20195573E+03</rscale>
<asrwt>0</asrwt>
<pdfrwt beam="1">  1       21 0.16426319E-01 0.20195573E+03</pdfrwt>
<pdfrwt beam="2">  1       21 0.64678499E-01 0.20195573E+03</pdfrwt>
<totfact> 0.72900528E+04</totfact>
</mgrwt>
</event>
<event>
 4    1  0.3976152E+000  0.1934425E+03  0.7546771E-02  0.1155393E+00
         21   -1    0    0  503  502  0.00000000000E+00  0.00000000000E+00  0.35450684100E+03  0.35450684100E+03  0.00000000000E+00 0.  1.
         21   -1    0    0  501  503 -0.00000000000E+00 -0.00000000000E+00 -0.12858295095E+03  0.12858295095E+03  0.00000000000E+00 0.  1.
          6    1    1    2  501    0  0.63512940089E+02 -0.58797324574E+02  0.10742738295E+02  0.19374061361E+03  0.17300000000E+03 0. -1.
         -6    1    1    2    0  502 -0.63512940089E+02  0.58797324574E+02  0.21518115175E+03  0.28934917834E+03  0.17300000000E+03 0. -1.
<mgrwt>
<rscale>  2 0.19344255E+03</rscale>
<asrwt>0</asrwt>
<pdfrwt beam="1">  1       21 0.54539514E-01 0.19344255E+03</pdfrwt>
<pdfrwt beam="2">  1       21 0.19781993E-01 0.19344255E+03</pdfrwt>
<totfact> 0.74786164E+04</totfact>
</mgrwt>
</event>
<event>
 4    1  0.3976152E+000  0.2665139E+03  0.7546771E-02  0.1103292E+00
         21   -1    0    0  501  502  0.00000000000E+00  0.00000000000E+00  0.17534285411E+03  0.17534285411E+03  0.00000000000E+00 0.  1.
         21   -1    0    0  502  503 -0.00000000000E+00 -0.00000000000E+00 -0.91690339809E+03  0.91690339809E+03  0.00000000000E+00 0. -1.
          6    1    1    2  501    0  0.18051492151E+03  0.92276901945E+02  0.37242626792E+02  0.26910346852E+03  0.17300000000E+03 0.  1.
         -6    1    1    2    0  503 -0.18051492151E+03 -0.92276901945E+02 -0.77880317077E+03  0.82314278368E+03  0.17300000000E+03 0. -1.
<mgrwt>
<rscale>  2 0.26651391E+03</rscale>
<asrwt>0</asrwt>
<pdfrwt beam="1">  1       21 0.26975824E-01 0.26651391E+03</pdfrwt>
<pdfrwt beam="2">  1       21 0.14106206E+00 0.26651391E+03</pdfrwt>
<totfact> 0.43511435E+03</totfact>
</mgrwt>
</event>
<event>
 4    1  0.3976152E+000  0.1742659E+03  0.7546771E-02  0.1173471E+00
         21   -1    0    0  501  502  0.00000000000E+00  0.00000000000E+00  0.93528135597E+02  0.93528135597E+02  0.00000000000E+00 0.  1.
         21   -1    0    0  502  503 -0.00000000000E+00 -0.00000000000E+00 -0.87053024285E+03  0.87053024285E+03  0.00000000000E+00 0.  1.
          6    1    1    2  501    0  0.12203358359E+02  0.17049166842E+02 -0.68116009343E+01  0.17439895055E+03  0.17300000000E+03 0.  1.
         -6    1    1    2    0  503 -0.12203358359E+02 -0.17049166842E+02 -0.77019050632E+03  0.78965942790E+03  0.17300000000E+03 0.  1.
<mgrwt>
<rscale>  2 0.17426588E+03</rscale>
<asrwt>0</asrwt>
<pdfrwt beam="1">  1       21 0.14388944E-01 0.17426588E+03</pdfrwt>
<pdfrwt beam="2">  1       21 0.13392773E+00 0.17426588E+03</pdfrwt>
<totfact> 0.17175371E+04</totfact>
</mgrwt>
</event>
<event>
 4    1  0.3976152E+000  0.2203865E+03  0.7546771E-02  0.1133595E+00
         21   -1    0    0  501  502  0.00000000000E+00  0.00000000000E+00  0.77432777897E+02  0.77432777897E+02  0.00000000000E+00 0.  1.
         21   -1    0    0  502  503 -0.00000000000E+00 -0.00000000000E+00 -0.63299027979E+03  0.63299027979E+03  0.00000000000E+00 0. -1.
          6    1    1    2  501    0  0.13652388915E+03  0.15574251118E+01 -0.24397097881E+03  0.32877353358E+03  0.17300000000E+03 0.  1.
         -6    1    1    2    0  503 -0.13652388915E+03 -0.15574251118E+01 -0.31158652309E+03  0.38164952411E+03  0.17300000000E+03 0.  1.
<mgrwt>
<rscale>  2 0.22038647E+03</rscale>
<asrwt>0</asrwt>
<pdfrwt beam="1">  1       21 0.11912735E-01 0.22038647E+03</pdfrwt>
<pdfrwt beam="2">  1       21 0.97383118E-01 0.22038647E+03</pdfrwt>
<totfact> 0.51256199E+04</totfact>
</mgrwt>
</event>
<event>
 4    1  0.3976152E+000  0.1765018E+03  0.7546771E-02  0.1171232E+00
         21   -1    0    0  501  502  0.00000000000E+00  0.00000000000E+00  0.21037752599E+03  0.21037752599E+03  0.00000000000E+00 0. -1.
         21   -1    0    0  502  503 -0.00000000000E+00 -0.00000000000E+00 -0.17286135489E+03  0.17286135489E+03  0.00000000000E+00 0. -1.
          6    1    1    2  501    0 -0.34008827387E+02  0.82020201158E+01  0.91309532446E+02  0.19872167519E+03  0.17300000000E+03 0.  1.
         -6    1    1    2    0  503  0.34008827387E+02 -0.82020201158E+01 -0.53793361344E+02  0.18451720570E+03  0.17300000000E+03 0.  1.
<mgrwt>
<rscale>  2 0.17650177E+03</rscale>
<asrwt>0</asrwt>
<pdfrwt beam="1">  1       21 0.32365773E-01 0.17650177E+03</pdfrwt>
<pdfrwt beam="2">  1       21 0.26594054E-01 0.17650177E+03</pdfrwt>
<totfact> 0.12428497E+05</totfact>
</mgrwt>
</event>
<event>
 4    1  0.3976152E+000  0.3122246E+03  0.7546771E-02  0.1079284E+00
         21   -1    0    0  501  502  0.00000000000E+00  0.00000000000E+00  0.59857721868E+03  0.59857721868E+03  0.00000000000E+00 0. -1.
         21   -1    0    0  502  503 -0.00000000000E+00 -0.00000000000E+00 -0.34270683593E+03  0.34270683593E+03  0.00000000000E+00 0. -1.
          6    1    1    2  501    0 -0.82481154244E+02  0.24647931537E+03  0.46887750904E+03  0.56332078978E+03  0.17300000000E+03 0. -1.
         -6    1    1    2    0  503  0.82481154244E+02 -0.24647931537E+03 -0.21300712629E+03  0.37796326483E+03  0.17300000000E+03 0. -1.
<mgrwt>
<rscale>  2 0.31222459E+03</rscale>
<asrwt>0</asrwt>
<pdfrwt beam="1">  1       21 0.92088803E-01 0.31222459E+03</pdfrwt>
<pdfrwt beam="2">  1       21 0.52724129E-01 0.31222459E+03</pdfrwt>
<totfact> 0.31351576E+03</totfact>
</mgrwt>
</event>
<event>
 4    1  0.3976152E+000  0.2689165E+03  0.7546771E-02  0.1101901E+00
         21   -1    0    0  501  502  0.00000000000E+00  0.00000000000E+00  0.67158709974E+03  0.67158709974E+03  0.00000000000E+00 0.  1.
         21   -1    0    0  502  503 -0.00000000000E+00 -0.00000000000E+00 -0.18252538381E+03  0.18252538381E+03  0.00000000000E+00 0.  1.
          6    1    1    2  501    0 -0.20214380187E+03 -0.39050640649E+02  0.51799967060E+03  0.58364349385E+03  0.17300000000E+03 0.  1.
         -6    1    1    2    0  503  0.20214380187E+03  0.39050640649E+02 -0.28937954665E+02  0.27046898970E+03  0.17300000000E+03 0.  1.
<mgrwt>
<rscale>  2 0.26891647E+03</rscale>
<asrwt>0</asrwt>
<pdfrwt beam="1">  1       21 0.10332109E+00 0.26891647E+03</pdfrwt>
<pdfrwt beam="2">  1       21 0.28080829E-01 0.26891647E+03</pdfrwt>
<totfact> 0.87700662E+03</totfact>
</mgrwt>
</event>
<event>
 4    1  0.3976152E+000  0.1907039E+03  0.7546771E-02  0.1157828E+00
         21   -1    0    0  501  502  0.00000000000E+00  0.00000000000E+00  0.47352183532E+03  0.47352183532E+03  0.00000000000E+00 0. -1.
         21   -1    0    0  502  503 -0.00000000000E+00 -0.00000000000E+00 -0.26791870945E+03  0.26791870945E+03  0.00000000000E+00 0. -1.
          6    1    1    2  501    0 -0.77033273243E+02 -0.22468710964E+02  0.41590860703E+03  0.45754555791E+03  0.17300000000E+03 0. -1.
         -6    1    1    2    0  503  0.77033273243E+02  0.22468710964E+02 -0.21030548116E+03  0.28389498686E+03  0.17300000000E+03 0. -1.
<mgrwt>
<rscale>  2 0.19070388E+03</rscale>
<asrwt>0</asrwt>
<pdfrwt beam="1">  1       21 0.72849513E-01 0.19070388E+03</pdfrwt>
<pdfrwt beam="2">  1       21 0.41218263E-01 0.19070388E+03</pdfrwt>
<totfact> 0.96289718E+03</totfact>
</mgrwt>
</event>
<event>
 4    1  0.3976152E+000  0.2434955E+03  0.7546771E-02  0.1117486E+00
         21   -1    0    0  501  502  0.00000000000E+00  0.00000000000E+00  0.64559991039E+02  0.64559991039E+02  0.00000000000E+00 0.  1.
         21   -1    0    0  502  503 -0.00000000000E+00 -0.00000000000E+00 -0.14605983618E+04  0.14605983618E+04  0.00000000000E+00 0. -1.
          6    1    1    2  501    0  0.77024805298E+02 -0.15306287489E+03 -0.23338624192E+03  0.33728208108E+03  0.17300000000E+03 0.  1.
         -6    1    1    2    0  503 -0.77024805298E+02  0.15306287489E+03 -0.11626521288E+04  0.11878762717E+04  0.17300000000E+03 0. -1.
<mgrwt>
<rscale>  2 0.24349551E+03</rscale>
<asrwt>0</asrwt>
<pdfrwt beam="1">  1       21 0.99323067E-02 0.24349551E+03</pdfrwt>
<pdfrwt beam="2">  1       21 0.22470743E+00 0.24349551E+03</pdfrwt>
<totfact> 0.74071037E+03</totfact>
</mgrwt>
</event>
<event>
 4    1  0.3976152E+000  0.2009114E+03  0.7546771E-02  0.1148972E+00
         21   -1    0    0  503  502  0.00000000000E+00  0.00000000000E+00  0.18538747765E+03  0.18538747765E+03  0.00000000000E+00 0. -1.
         21   -1    0    0  501  503 -0.00000000000E+00 -0.00000000000E+00 -0.24060464529E+03  0.24060464529E+03  0.00000000000E+00 0. -1.
          6    1    1    2  501    0  0.10057650249E+03  0.17909777442E+02 -0.93275511098E+02  0.22150781917E+03  0.17300000000E+03 0. -1.
         -6    1    1    2    0  502 -0.10057650249E+03 -0.17909777442E+02  0.38058343459E+02  0.20448430377E+03  0.17300000000E+03 0. -1.
<mgrwt>
<rscale>  2 0.20091141E+03</rscale>
<asrwt>0</asrwt>
<pdfrwt beam="1">  1       21 0.28521150E-01 0.20091141E+03</pdfrwt>
<pdfrwt beam="2">  1       21 0.37016099E-01 0.20091141E+03</pdfrwt>
<totfact> 0.82458437E+04</totfact>
</mgrwt>
</event>
<event>
 4    1  0.3976152E+000  0.2139139E+03  0.7546771E-02  0.1138504E+00
         21   -1    0    0  501  502  0.00000000000E+00  0.00000000000E+00  0.19834755801E+02  0.19834755801E+02  0.00000000000E+00 0.  1.
         21   -1    0    0  502  503 -0.00000000000E+00 -0.00000000000E+00 -0.30104444193E+04  0.30104444193E+04  0.00000000000E+00 0.  1.
          6    1    1    2  501    0  0.70144997271E+02  0.10445016909E+03 -0.76290814930E+03  0.79233074075E+03  0.17300000000E+03 0. -1.
         -6    1    1    2    0  503 -0.70144997271E+02 -0.10445016909E+03 -0.22277015142E+04  0.22379484344E+04  0.17300000000E+03 0. -1.
<mgrwt>
<rscale>  2 0.21391390E+03</rscale>
<asrwt>0</asrwt>
<pdfrwt beam="1">  1       21 0.30515022E-02 0.21391390E+03</pdfrwt>
<pdfrwt beam="2">  1       21 0.46314510E+00 0.21391390E+03</pdfrwt>
<totfact> 0.20277806E+03</totfact>
</mgrwt>
</event>
<event>
 4    1  0.3976152E+000  0.2398343E+03  0.7546771E-02  0.1119903E+00
         21   -1    0    0  501  502  0.00000000000E+00  0.00000000000E+00  0.71664776999E+03  0.71664776999E+03  0.00000000000E+00 0.  1.
         21   -1    0    0  502  503 -0.00000000000E+00 -0.00000000000E+00 -0.11955925416E+03  0.11955925416E+03  0.00000000000E+00 0.  1.
          6    1    1    2  501    0  0.25270403650E+02  0.16417344127E+03  0.53824322260E+03  0.58925909309E+03  0.17300000000E+03 0.  1.
         -6    1    1    2    0  503 -0.25270403650E+02 -0.16417344127E+03  0.58845293227E+02  0.24694793106E+03  0.17300000000E+03 0.  1.
<mgrwt>
<rscale>  2 0.23983434E+03</rscale>
<asrwt>0</asrwt>
<pdfrwt beam="1">  1       21 0.11025350E+00 0.23983434E+03</pdfrwt>
<pdfrwt beam="2">  1       21 0.18393732E-01 0.23983434E+03</pdfrwt>
<totfact> 0.17028100E+04</totfact>
</mgrwt>
</event>
<event>
 4    1  0.3976152E+000  0.1919354E+03  0.7546771E-02  0.1156727E+00
         21   -1    0    0  501  502  0.00000000000E+00  0.00000000000E+00  0.29873276401E+03  0.29873276401E+03  0.00000000000E+00 0.  1.
         21   -1    0    0  502  503 -0.00000000000E+00 -0.00000000000E+00 -0.33101380755E+03  0.33101380755E+03  0.00000000000E+00 0.  1.
          6    1    1    2  501    0 -0.35807721968E+02 -0.75020125033E+02  0.23327663742E+03  0.30208806941E+03  0.17300000000E+03 0.  1.
         -6    1    1    2    0  503  0.35807721968E+02  0.75020125033E+02 -0.26555768096E+03  0.32765850215E+03  0.17300000000E+03 0.  1.
<mgrwt>
<rscale>  2 0.19193544E+03</rscale>
<asrwt>0</asrwt>
<pdfrwt beam="1">  1       21 0.45958887E-01 0.19193544E+03</pdfrwt>
<pdfrwt beam="2">  1       21 0.50925201E-01 0.19193544E+03</pdfrwt>
<totfact> 0.16648817E+04</totfact>
</mgrwt>
</event>
<event>
 4    1  0.3976152E+000  0.2177765E+03  0.7546771E-02  0.1135552E+00
         21   -1    0    0  501  502  0.00000000000E+00  0.00000000000E+00  0.10964746993E+03  0.10964746993E+03  0.00000000000E+00 0. -1.
         21   -1    0    0  502  503 -0.00000000000E+00 -0.00000000000E+00 -0.44795466556E+03  0.44795466556E+03  0.00000000000E+00 0. -1.
          6    1    1    2  501    0 -0.13156760388E+03 -0.13695031841E+02 -0.22087694664E+03  0.31018254923E+03  0.17300000000E+03 0. -1.
         -6    1    1    2    0  503  0.13156760388E+03  0.13695031841E+02 -0.11743024899E+03  0.24741958626E+03  0.17300000000E+03 0. -1.
<mgrwt>
<rscale>  2 0.21777646E+03</rscale>
<asrwt>0</asrwt>
<pdfrwt beam="1">  1       21 0.16868842E-01 0.21777646E+03</pdfrwt>
<pdfrwt beam="2">  1       21 0.68916101E-01 0.21777646E+03</pdfrwt>
<totfact> 0.59984714E+04</totfact>
</mgrwt>
</event>
<event>
 4    1  0.3976152E+000  0.3284010E+03  0.7546771E-02  0.1071847E+00
         21   -1    0    0  501  502  0.00000000000E+00  0.00000000000E+00  0.17444670342E+03  0.17444670342E+03  0.00000000000E+00 0.  1.
         21   -1    0    0  502  503 -0.00000000000E+00 -0.00000000000E+00 -0.62039827096E+03  0.62039827096E+03  0.00000000000E+00 0.  1.
          6    1    1    2  501    0  0.27265552718E+03 -0.59809276536E+02 -0.24650171951E+03  0.41062182575E+03  0.17300000000E+03 0.  1.
         -6    1    1    2    0  503 -0.27265552718E+03  0.59809276536E+02 -0.19944984803E+03  0.38422314862E+03  0.17300000000E+03 0.  1.
<mgrwt>
<rscale>  2 0.32840095E+03</rscale>
<asrwt>0</asrwt>
<pdfrwt beam="1">  1       21 0.26837955E-01 0.32840095E+03</pdfrwt>
<pdfrwt beam="2">  1       21 0.95445886E-01 0.32840095E+03</pdfrwt>
<totfact> 0.11267557E+04</totfact>
</mgrwt>
</event>
<event>
 4    1  0.3976152E+000  0.1987784E+03  0.7546771E-02  0.1150774E+00
         21   -1    0    0  501  502  0.00000000000E+00  0.00000000000E+00  0.49016594860E+03  0.49016594860E+03  0.00000000000E+00 0.  1.
         21   -1    0    0  502  503 -0.00000000000E+00 -0.00000000000E+00 -0.19665743271E+03  0.19665743271E+03  0.00000000000E+00 0. -1.
          6    1    1    2  501    0  0.96082266808E+02 -0.18762753603E+02  0.41055468945E+03  0.45614470943E+03  0.17300000000E+03 0.  1.
         -6    1    1    2    0  503 -0.96082266808E+02  0.18762753603E+02 -0.11704617355E+03  0.23067867188E+03  0.17300000000E+03 0.  1.
<mgrwt>
<rscale>  2 0.19877838E+03</rscale>
<asrwt>0</asrwt>
<pdfrwt beam="1">  1       21 0.75410145E-01 0.19877838E+03</pdfrwt>
<pdfrwt beam="2">  1       21 0.30254990E-01 0.19877838E+03</pdfrwt>
<totfact> 0.16399758E+04</totfact>
</mgrwt>
</event>
<event>
 4    1  0.3976152E+000  0.2378856E+03  0.7546771E-02  0.1121209E+00
         21   -1    0    0  501  502  0.00000000000E+00  0.00000000000E+00  0.57574229356E+03  0.57574229356E+03  0.00000000000E+00 0.  1.
         21   -1    0    0  502  503 -0.00000000000E+00 -0.00000000000E+00 -0.12257588444E+03  0.12257588444E+03  0.00000000000E+00 0.  1.
          6    1    1    2  501    0  0.29839139496E+02 -0.16053095236E+03  0.38200077368E+03  0.45001572417E+03  0.17300000000E+03 0. -1.
         -6    1    1    2    0  503 -0.29839139496E+02  0.16053095236E+03  0.71165635430E+02  0.24830245383E+03  0.17300000000E+03 0. -1.
<mgrwt>
<rscale>  2 0.23788560E+03</rscale>
<asrwt>0</asrwt>
<pdfrwt beam="1">  1       21 0.88575736E-01 0.23788560E+03</pdfrwt>
<pdfrwt beam="2">  1       21 0.18857829E-01 0.23788560E+03</pdfrwt>
<totfact> 0.27399539E+04</totfact>
</mgrwt>
</event>
<event>
 4    1  0.3976152E+000  0.1995088E+03  0.7546771E-02  0.1150154E+00
         21   -1    0    0  501  502  0.00000000000E+00  0.00000000000E+00  0.54845681872E+03  0.54845681872E+03  0.00000000000E+00 0.  1.
         21   -1    0    0  502  503 -0.00000000000E+00 -0.00000000000E+00 -0.10131037280E+03  0.10131037280E+03  0.00000000000E+00 0.  1.
          6    1    1    2  501    0  0.98572163553E+02  0.12581295948E+02  0.39660108418E+03  0.44395515585E+03  0.17300000000E+03 0.  1.
         -6    1    1    2    0  503 -0.98572163553E+02 -0.12581295948E+02  0.50545361745E+02  0.20581203568E+03  0.17300000000E+03 0.  1.
<mgrwt>
<rscale>  2 0.19950880E+03</rscale>
<asrwt>0</asrwt>
<pdfrwt beam="1">  1       21 0.84377970E-01 0.19950880E+03</pdfrwt>
<pdfrwt beam="2">  1       21 0.15586212E-01 0.19950880E+03</pdfrwt>
<totfact> 0.44415937E+04</totfact>
</mgrwt>
</event>
<event>
 4    1  0.3976152E+000  0.1837309E+03  0.7546771E-02  0.1164240E+00
         21   -1    0    0  501  502  0.00000000000E+00  0.00000000000E+00  0.53039298411E+03  0.53039298411E+03  0.00000000000E+00 0.  1.
         21   -1    0    0  502  503 -0.00000000000E+00 -0.00000000000E+00 -0.74743083737E+02  0.74743083737E+02  0.00000000000E+00 0.  1.
          6    1    1    2  501    0 -0.60143332530E+02 -0.14519680489E+02  0.34441322933E+03  0.39035562518E+03  0.17300000000E+03 0.  1.
         -6    1    1    2    0  503  0.60143332530E+02  0.14519680489E+02  0.11123667104E+03  0.21478044267E+03  0.17300000000E+03 0.  1.
<mgrwt>
<rscale>  2 0.18373089E+03</rscale>
<asrwt>0</asrwt>
<pdfrwt beam="1">  1       21 0.81598918E-01 0.18373089E+03</pdfrwt>
<pdfrwt beam="2">  1       21 0.11498936E-01 0.18373089E+03</pdfrwt>
<totfact> 0.83591013E+04</totfact>
</mgrwt>
</event>
<event>
 4    1  0.3976152E+000  0.1765788E+03  0.7546771E-02  0.1171156E+00
         21   -1    0    0  503  502  0.00000000000E+00  0.00000000000E+00  0.76055128863E+03  0.76055128863E+03  0.00000000000E+00 0.  1.
         21   -1    0    0  501  503 -0.00000000000E+00 -0.00000000000E+00 -0.45639749119E+02  0.45639749119E+02  0.00000000000E+00 0. -1.
          6    1    1    2  501    0  0.33217684132E+02  0.12150931493E+02  0.22888565392E+03  0.28908251805E+03  0.17300000000E+03 0. -1.
         -6    1    1    2    0  502 -0.33217684132E+02 -0.12150931493E+02  0.48602588560E+03  0.51710851970E+03  0.17300000000E+03 0.  1.
<mgrwt>
<rscale>  2 0.17657876E+03</rscale>
<asrwt>0</asrwt>
<pdfrwt beam="1">  1       21 0.11700788E+00 0.17657876E+03</pdfrwt>
<pdfrwt beam="2">  1       21 0.70215004E-02 0.17657876E+03</pdfrwt>
<totfact> 0.85178903E+04</totfact>
</mgrwt>
</event>
<event>
 4    1  0.3976152E+000  0.3604898E+03  0.7546771E-02  0.1058390E+00
         21   -1    0    0  503  502  0.00000000000E+00  0.00000000000E+00  0.27642417130E+03  0.27642417130E+03  0.00000000000E+00 0.  1.
         21   -1    0    0  501  503 -0.00000000000E+00 -0.00000000000E+00 -0.57025555897E+03  0.57025555897E+03  0.00000000000E+00 0.  1.
          6    1    1    2  501    0 -0.87526077012E+02 -0.30391292187E+03 -0.32431252007E+03  0.48490358723E+03  0.17300000000E+03 0.  1.
         -6    1    1    2    0  502  0.87526077012E+02  0.30391292187E+03  0.30481132403E+02  0.36177614304E+03  0.17300000000E+03 0.  1.
<mgrwt>
<rscale>  2 0.36048978E+03</rscale>
<asrwt>0</asrwt>
<pdfrwt beam="1">  1       21 0.42526795E-01 0.36048978E+03</pdfrwt>
<pdfrwt beam="2">  1       21 0.87731625E-01 0.36048978E+03</pdfrwt>
<totfact> 0.53909149E+03</totfact>
</mgrwt>
</event>
<event>
 4    1  0.3976152E+000  0.1901322E+03  0.7546771E-02  0.1158342E+00
         21   -1    0    0  503  502  0.00000000000E+00  0.00000000000E+00  0.22129536412E+03  0.22129536412E+03  0.00000000000E+00 0. -1.
         21   -1    0    0  501  503 -0.00000000000E+00 -0.00000000000E+00 -0.49053223538E+03  0.49053223538E+03  0.00000000000E+00 0. -1.
          6    1    1    2  501    0  0.47405782609E+02 -0.63039383776E+02 -0.42528888819E+03  0.46585503169E+03  0.17300000000E+03 0. -1.
         -6    1    1    2    0  502 -0.47405782609E+02  0.63039383776E+02  0.15605201693E+03  0.24597256782E+03  0.17300000000E+03 0. -1.
<mgrwt>
<rscale>  2 0.19013225E+03</rscale>
<asrwt>0</asrwt>
<pdfrwt beam="1">  1       21 0.34045441E-01 0.19013225E+03</pdfrwt>
<pdfrwt beam="2">  1       21 0.75466497E-01 0.19013225E+03</pdfrwt>
<totfact> 0.13056426E+04</totfact>
</mgrwt>
</event>
<event>
 4    1  0.3976152E+000  0.1748541E+03  0.7546771E-02  0.1172878E+00
         21   -1    0    0  501  502  0.00000000000E+00  0.00000000000E+00  0.35338071380E+03  0.35338071380E+03  0.00000000000E+00 0. -1.
         21   -1    0    0  502  503 -0.00000000000E+00 -0.00000000000E+00 -0.11830953465E+03  0.11830953465E+03  0.00000000000E+00 0. -1.
          6    1    1    2  501    0  0.20152584682E+02 -0.15454665644E+02  0.23979133603E+03  0.29677240133E+03  0.17300000000E+03 0.  1.
         -6    1    1    2    0  503 -0.20152584682E+02  0.15454665644E+02 -0.47201568750E+01  0.17491784712E+03  0.17300000000E+03 0.  1.
<mgrwt>
<rscale>  2 0.17485415E+03</rscale>
<asrwt>0</asrwt>
<pdfrwt beam="1">  1       21 0.54366263E-01 0.17485415E+03</pdfrwt>
<pdfrwt beam="2">  1       21 0.18201467E-01 0.17485415E+03</pdfrwt>
<totfact> 0.88545085E+04</totfact>
</mgrwt>
</event>
<event>
 4    1  0.3976152E+000  0.2190240E+03  0.7546771E-02  0.1134613E+00
         21   -1    0    0  501  502  0.00000000000E+00  0.00000000000E+00  0.18655388159E+03  0.18655388159E+03  0.00000000000E+00 0.  1.
         21   -1    0    0  502  503 -0.00000000000E+00 -0.00000000000E+00 -0.34870795070E+03  0.34870795070E+03  0.00000000000E+00 0.  1.
          6    1    1    2  501    0 -0.95479883313E+02 -0.94478106129E+02  0.56062820172E+02  0.22608529466E+03  0.17300000000E+03 0.  1.
         -6    1    1    2    0  503  0.95479883313E+02  0.94478106129E+02 -0.21821688928E+03  0.30917653764E+03  0.17300000000E+03 0.  1.
<mgrwt>
<rscale>  2 0.21902402E+03</rscale>
<asrwt>0</asrwt>
<pdfrwt beam="1">  1       21 0.28700598E-01 0.21902402E+03</pdfrwt>
<pdfrwt beam="2">  1       21 0.53647376E-01 0.21902402E+03</pdfrwt>
<totfact> 0.37673071E+04</totfact>
</mgrwt>
</event>
<event>
 4    1  0.3976152E+000  0.2053369E+03  0.7546771E-02  0.1145313E+00
         21   -1    0    0  503  502  0.00000000000E+00  0.00000000000E+00  0.11464412230E+04  0.11464412230E+04  0.00000000000E+00 0.  1.
         21   -1    0    0  501  503 -0.00000000000E+00 -0.00000000000E+00 -0.70882873470E+02  0.70882873470E+02  0.00000000000E+00 0. -1.
          6    1    1    2  501    0  0.48580091822E+02  0.99369072163E+02  0.11558037517E+03  0.23563119689E+03  0.17300000000E+03 0. -1.
         -6    1    1    2    0  502 -0.48580091822E+02 -0.99369072163E+02  0.95997797440E+03  0.98169289962E+03  0.17300000000E+03 0.  1.
<mgrwt>
<rscale>  2 0.20533689E+03</rscale>
<asrwt>0</asrwt>
<pdfrwt beam="1">  1       21 0.17637556E+00 0.20533689E+03</pdfrwt>
<pdfrwt beam="2">  1       21 0.10905058E-01 0.20533689E+03</pdfrwt>
<totfact> 0.13280411E+04</totfact>
</mgrwt>
</event>
<event>
 4    1  0.3976152E+000  0.2301225E+03  0.7546771E-02  0.1126554E+00
         21   -1    0    0  503  502  0.00000000000E+00  0.00000000000E+00  0.71823718911E+03  0.71823718911E+03  0.00000000000E+00 0. -1.
         21   -1    0    0  501  503 -0.00000000000E+00 -0.00000000000E+00 -0.14183571425E+03  0.14183571425E+03  0.00000000000E+00 0. -1.
          6    1    1    2  501    0 -0.11279660794E+03 -0.10151003833E+03 -0.97887781675E+01  0.23033059463E+03  0.17300000000E+03 0. -1.
         -6    1    1    2    0  502  0.11279660794E+03  0.10151003833E+03  0.58619025303E+03  0.62974230872E+03  0.17300000000E+03 0. -1.
<mgrwt>
<rscale>  2 0.23012249E+03</rscale>
<asrwt>0</asrwt>
<pdfrwt beam="1">  1       21 0.11049803E+00 0.23012249E+03</pdfrwt>
<pdfrwt beam="2">  1       21 0.21820880E-01 0.23012249E+03</pdfrwt>
<totfact> 0.12357788E+04</totfact>
</mgrwt>
</event>
<event>
 4    1  0.3976152E+000  0.1745138E+03  0.7546771E-02  0.1173221E+00
         21   -1    0    0  501  502  0.00000000000E+00  0.00000000000E+00  0.88975670966E+02  0.88975670966E+02  0.00000000000E+00 0.  1.
         21   -1    0    0  502  503 -0.00000000000E+00 -0.00000000000E+00 -0.69740052944E+03  0.69740052944E+03  0.00000000000E+00 0.  1.
          6    1    1    2  501    0 -0.12546196700E+02 -0.19200926262E+02 -0.23640801565E+02  0.17610783662E+03  0.17300000000E+03 0.  1.
         -6    1    1    2    0  503  0.12546196700E+02  0.19200926262E+02 -0.58478405690E+03  0.61026836378E+03  0.17300000000E+03 0.  1.
<mgrwt>
<rscale>  2 0.17451385E+03</rscale>
<asrwt>0</asrwt>
<pdfrwt beam="1">  1       21 0.13688564E-01 0.17451385E+03</pdfrwt>
<pdfrwt beam="2">  1       21 0.10729239E+00 0.17451385E+03</pdfrwt>
<totfact> 0.32455917E+04</totfact>
</mgrwt>
</event>
<event>
 4    1  0.3976152E+000  0.2504066E+03  0.7546771E-02  0.1113048E+00
         21   -1    0    0  501  502  0.00000000000E+00  0.00000000000E+00  0.23038994163E+03  0.23038994163E+03  0.00000000000E+00 0. -1.
         21   -1    0    0  502  503 -0.00000000000E+00 -0.00000000000E+00 -0.41804586683E+03  0.41804586683E+03  0.00000000000E+00 0.  1.
          6    1    1    2  501    0  0.18102997214E+03  0.16221098907E+01  0.97698173905E+02  0.26879065318E+03  0.17300000000E+03 0. -1.
         -6    1    1    2    0  503 -0.18102997214E+03 -0.16221098907E+01 -0.28535409910E+03  0.37964515528E+03  0.17300000000E+03 0.  1.
<mgrwt>
<rscale>  2 0.25040663E+03</rscale>
<asrwt>0</asrwt>
<pdfrwt beam="1">  1       21 0.35444607E-01 0.25040663E+03</pdfrwt>
<pdfrwt beam="2">  1       21 0.64314747E-01 0.25040663E+03</pdfrwt>
<totfact> 0.16564816E+04</totfact>
</mgrwt>
</event>
<event>
 4    1  0.3976152E+000  0.1909815E+03  0.7546771E-02  0.1157579E+00
         21   -1    0    0  503  502  0.00000000000E+00  0.00000000000E+00  0.76292615827E+02  0.76292615827E+02  0.00000000000E+00 0.  1.
         21   -1    0    0  501  503 -0.00000000000E+00 -0.00000000000E+00 -0.51325309757E+03  0.51325309757E+03  0.00000000000E+00 0. -1.
          6    1    1    2  501    0 -0.49882809923E+00  0.80899107344E+02 -0.29564727592E+03  0.35196764930E+03  0.17300000000E+03 0.  1.
         -6    1    1    2    0  502  0.49882809923E+00 -0.80899107344E+02 -0.14131320583E+03  0.23757806410E+03  0.17300000000E+03 0.  1.
<mgrwt>
<rscale>  2 0.19098145E+03</rscale>
<asrwt>0</asrwt>
<pdfrwt beam="1">  1       21 0.11737325E-01 0.19098145E+03</pdfrwt>
<pdfrwt beam="2">  1       21 0.78962019E-01 0.19098145E+03</pdfrwt>
<totfact> 0.86540304E+04</totfact>
</mgrwt>
</event>
<event>
 4    1  0.3976152E+000  0.2319759E+03  0.7546771E-02  0.1125257E+00
         21   -1    0    0  503  502  0.00000000000E+00  0.00000000000E+00  0.30567305410E+03  0.30567305410E+03  0.00000000000E+00 0. -1.
         21   -1    0    0  501  503 -0.00000000000E+00 -0.00000000000E+00 -0.17606440511E+03  0.17606440511E+03  0.00000000000E+00 0. -1.
          6    1    1    2  501    0 -0.11432599269E+03 -0.10398743770E+03  0.67200179960E+02  0.24151332052E+03  0.17300000000E+03 0. -1.
         -6    1    1    2    0  502  0.11432599269E+03  0.10398743770E+03  0.62408469029E+02  0.24022413869E+03  0.17300000000E+03 0. -1.
<mgrwt>
<rscale>  2 0.23197590E+03</rscale>
<asrwt>0</asrwt>
<pdfrwt beam="1">  1       21 0.47026624E-01 0.23197590E+03</pdfrwt>
<pdfrwt beam="2">  1       21 0.27086832E-01 0.23197590E+03</pdfrwt>
<totfact> 0.55221798E+04</totfact>
</mgrwt>
</event>
<event>
 4    1  0.3976152E+000  0.1821386E+03  0.7546771E-02  0.1165749E+00
         21   -1    0    0  503  502  0.00000000000E+00  0.00000000000E+00  0.45573607581E+02  0.45573607581E+02  0.00000000000E+00 0.  1.
         21   -1    0    0  501  503 -0.00000000000E+00 -0.00000000000E+00 -0.12276913141E+04  0.12276913141E+04  0.00000000000E+00 0.  1.
          6    1    1    2  501    0 -0.40004398871E+02 -0.40560019602E+02 -0.99724473880E+03  0.10137413557E+04  0.17300000000E+03 0.  1.
         -6    1    1    2    0  502  0.40004398871E+02  0.40560019602E+02 -0.18487296768E+03  0.25952356598E+03  0.17300000000E+03 0.  1.
<mgrwt>
<rscale>  2 0.18213859E+03</rscale>
<asrwt>0</asrwt>
<pdfrwt beam="1">  1       21 0.70113243E-02 0.18213859E+03</pdfrwt>
<pdfrwt beam="2">  1       21 0.18887558E+00 0.18213859E+03</pdfrwt>
<totfact> 0.24114992E+04</totfact>
</mgrwt>
</event>
<event>
 4    1  0.3976152E+000  0.2046364E+03  0.7546771E-02  0.1145885E+00
         21   -1    0    0  503  502  0.00000000000E+00  0.00000000000E+00  0.16648517352E+02  0.16648517352E+02  0.00000000000E+00 0.  1.
         21   -1    0    0  501  503 -0.00000000000E+00 -0.00000000000E+00 -0.25575677203E+04  0.25575677203E+04  0.00000000000E+00 0.  1.
          6    1    1    2  501    0  0.70275927201E+02 -0.83715894870E+02 -0.14359196419E+04  0.14504279627E+04  0.17300000000E+03 0.  1.
         -6    1    1    2    0  502 -0.70275927201E+02  0.83715894870E+02 -0.11049995610E+04  0.11237882749E+04  0.17300000000E+03 0.  1.
<mgrwt>
<rscale>  2 0.20463640E+03</rscale>
<asrwt>0</asrwt>
<pdfrwt beam="1">  1       21 0.25613107E-02 0.20463640E+03</pdfrwt>
<pdfrwt beam="2">  1       21 0.39347190E+00 0.20463640E+03</pdfrwt>
<totfact> 0.77356342E+03</totfact>
</mgrwt>
</event>
<event>
 4    1  0.3976152E+000  0.1837024E+03  0.7546771E-02  0.1164267E+00
         21   -1    0    0  501  502  0.00000000000E+00  0.00000000000E+00  0.51368424926E+02  0.51368424926E+02  0.00000000000E+00 0.  1.
         21   -1    0    0  502  503 -0.00000000000E+00 -0.00000000000E+00 -0.81644991931E+03  0.81644991931E+03  0.00000000000E+00 0.  1.
          6    1    1    2  501    0  0.51432595384E+02 -0.34238449323E+02 -0.19075703047E+03  0.26482980942E+03  0.17300000000E+03 0.  1.
         -6    1    1    2    0  503 -0.51432595384E+02  0.34238449323E+02 -0.57432446391E+03  0.60298853482E+03  0.17300000000E+03 0.  1.
<mgrwt>
<rscale>  2 0.18370243E+03</rscale>
<asrwt>0</asrwt>
<pdfrwt beam="1">  1       21 0.79028350E-02 0.18370243E+03</pdfrwt>
<pdfrwt beam="2">  1       21 0.12560767E+00 0.18370243E+03</pdfrwt>
<totfact> 0.58030378E+04</totfact>
</mgrwt>
</event>
<event>
 4    1  0.3976152E+000  0.2343278E+03  0.7546771E-02  0.1123630E+00
         21   -1    0    0  501  502  0.00000000000E+00  0.00000000000E+00  0.25865342684E+03  0.25865342684E+03  0.00000000000E+00 0. -1.
         21   -1    0    0  502  503 -0.00000000000E+00 -0.00000000000E+00 -0.53762702309E+03  0.53762702309E+03  0.00000000000E+00 0. -1.
          6    1    1    2  501    0  0.70586708933E+02 -0.14141445330E+03  0.17022822329E+03  0.28963283495E+03  0.17300000000E+03 0. -1.
         -6    1    1    2    0  503 -0.70586708933E+02  0.14141445330E+03 -0.44920181954E+03  0.50664761497E+03  0.17300000000E+03 0. -1.
<mgrwt>
<rscale>  2 0.23432783E+03</rscale>
<asrwt>0</asrwt>
<pdfrwt beam="1">  1       21 0.39792835E-01 0.23432783E+03</pdfrwt>
<pdfrwt beam="2">  1       21 0.82711849E-01 0.23432783E+03</pdfrwt>
<totfact> 0.75440140E+03</totfact>
</mgrwt>
</event>
<event>
 4    1  0.3976152E+000  0.1731552E+03  0.7546771E-02  0.1174597E+00
         21   -1    0    0  503  502  0.00000000000E+00  0.00000000000E+00  0.23496231319E+03  0.23496231319E+03  0.00000000000E+00 0. -1.
         21   -1    0    0  501  503 -0.00000000000E+00 -0.00000000000E+00 -0.12820159293E+03  0.12820159293E+03  0.00000000000E+00 0. -1.
          6    1    1    2  501    0 -0.43305552582E+00  0.73174633353E+01  0.41009610419E+02  0.17794527516E+03  0.17300000000E+03 0. -1.
         -6    1    1    2    0  502  0.43305552582E+00 -0.73174633353E+01  0.65751109847E+02  0.18521863096E+03  0.17300000000E+03 0. -1.
<mgrwt>
<rscale>  2 0.17315523E+03</rscale>
<asrwt>0</asrwt>
<pdfrwt beam="1">  1       21 0.36148048E-01 0.17315523E+03</pdfrwt>
<pdfrwt beam="2">  1       21 0.19723322E-01 0.17315523E+03</pdfrwt>
<totfact> 0.17588413E+05</totfact>
</mgrwt>
</event>
<event>
 4    1  0.3976152E+000  0.1825836E+03  0.7546771E-02  0.1165326E+00
         21   -1    0    0  501  502  0.00000000000E+00  0.00000000000E+00  0.45653576673E+02  0.45653576673E+02  0.00000000000E+00 0. -1.
         21   -1    0    0  502  503 -0.00000000000E+00 -0.00000000000E+00 -0.10033700247E+04  0.10033700247E+04  0.00000000000E+00 0.  1.
          6    1    1    2  501    0  0.58124709927E+02 -0.54117249401E+01 -0.20518516455E+03  0.27465928061E+03  0.17300000000E+03 0. -1.
         -6    1    1    2    0  503 -0.58124709927E+02  0.54117249401E+01 -0.75253128350E+03  0.77436432080E+03  0.17300000000E+03 0.  1.
<mgrwt>
<rscale>  2 0.18258359E+03</rscale>
<asrwt>0</asrwt>
<pdfrwt beam="1">  1       21 0.70236276E-02 0.18258359E+03</pdfrwt>
<pdfrwt beam="2">  1       21 0.15436461E+00 0.18258359E+03</pdfrwt>
<totfact> 0.41917609E+04</totfact>
</mgrwt>
</event>
<event>
 4    1  0.3976152E+000  0.2439131E+03  0.7546771E-02  0.1117213E+00
         21   -1    0    0  501  502  0.00000000000E+00  0.00000000000E+00  0.23865352892E+03  0.23865352892E+03  0.00000000000E+00 0.  1.
         21   -1    0    0  502  503 -0.00000000000E+00 -0.00000000000E+00 -0.25592735557E+03  0.25592735557E+03  0.00000000000E+00 0.  1.
          6    1    1    2  501    0 -0.26164255944E+02  0.16994127111E+03 -0.48465265862E+02  0.24868149491E+03  0.17300000000E+03 0.  1.
         -6    1    1    2    0  503  0.26164255944E+02 -0.16994127111E+03  0.31191439216E+02  0.24589938958E+03  0.17300000000E+03 0.  1.
<mgrwt>
<rscale>  2 0.24391311E+03</rscale>
<asrwt>0</asrwt>
<pdfrwt beam="1">  1       21 0.36715928E-01 0.24391311E+03</pdfrwt>
<pdfrwt beam="2">  1       21 0.39373439E-01 0.24391311E+03</pdfrwt>
<totfact> 0.43440977E+04</totfact>
</mgrwt>
</event>
<event>
 4    1  0.3976152E+000  0.1874083E+03  0.7546771E-02  0.1160820E+00
         21   -1    0    0  503  502  0.00000000000E+00  0.00000000000E+00  0.38265378400E+02  0.38265378400E+02  0.00000000000E+00 0. -1.
         21   -1    0    0  501  503 -0.00000000000E+00 -0.00000000000E+00 -0.13164332024E+04  0.13164332024E+04  0.00000000000E+00 0.  1.
          6    1    1    2  501    0 -0.72014914706E+02 -0.25903532212E+01 -0.10117956264E+04  0.10290054652E+04  0.17300000000E+03 0.  1.
         -6    1    1    2    0  502  0.72014914706E+02  0.25903532212E+01 -0.26637219755E+03  0.32569311552E+03  0.17300000000E+03 0. -1.
<mgrwt>
<rscale>  2 0.18740827E+03</rscale>
<asrwt>0</asrwt>
<pdfrwt beam="1">  1       21 0.58869808E-02 0.18740827E+03</pdfrwt>
<pdfrwt beam="2">  1       21 0.20252820E+00 0.18740827E+03</pdfrwt>
<totfact> 0.26452214E+04</totfact>
</mgrwt>
</event>
<event>
 4    1  0.3976152E+000  0.1762357E+03  0.7546771E-02  0.1171497E+00
         21   -1    0    0  503  502  0.00000000000E+00  0.00000000000E+00  0.14271864625E+03  0.14271864625E+03  0.00000000000E+00 0. -1.
         21   -1    0    0  501  503 -0.00000000000E+00 -0.00000000000E+00 -0.48496237373E+03  0.48496237373E+03  0.00000000000E+00 0. -1.
          6    1    1    2  501    0 -0.29599350533E+02  0.15934077495E+02 -0.40413776103E+03  0.44089266978E+03  0.17300000000E+03 0. -1.
         -6    1    1    2    0  502  0.29599350533E+02 -0.15934077495E+02  0.61894033551E+02  0.18678835019E+03  0.17300000000E+03 0. -1.
<mgrwt>
<rscale>  2 0.17623568E+03</rscale>
<asrwt>0</asrwt>
<pdfrwt beam="1">  1       21 0.21956715E-01 0.17623568E+03</pdfrwt>
<pdfrwt beam="2">  1       21 0.74609596E-01 0.17623568E+03</pdfrwt>
<totfact> 0.31446475E+04</totfact>
</mgrwt>
</event>
<event>
 4    1  0.3976152E+000  0.1778532E+03  0.7546771E-02  0.1169897E+00
         21   -1    0    0  501  502  0.00000000000E+00  0.00000000000E+00  0.21175018795E+03  0.21175018795E+03  0.00000000000E+00 0.  1.
         21   -1    0    0  502  503 -0.00000000000E+00 -0.00000000000E+00 -0.16236744588E+03  0.16236744588E+03  0.00000000000E+00 0. -1.
          6    1    1    2  501    0  0.20550875713E+02  0.35783145858E+02  0.77590535157E+02  0.19404139550E+03  0.17300000000E+03 0.  1.
         -6    1    1    2    0  503 -0.20550875713E+02 -0.35783145858E+02 -0.28207793091E+02  0.18007623833E+03  0.17300000000E+03 0. -1.
<mgrwt>
<rscale>  2 0.17785323E+03</rscale>
<asrwt>0</asrwt>
<pdfrwt beam="1">  1       21 0.32576952E-01 0.17785323E+03</pdfrwt>
<pdfrwt beam="2">  1       21 0.24979607E-01 0.17785323E+03</pdfrwt>
<totfact> 0.13824598E+05</totfact>
</mgrwt>
</event>
<event>
 4    1  0.3976152E+000  0.2024697E+03  0.7546771E-02  0.1147672E+00
         21   -1    0    0  501  502  0.00000000000E+00  0.00000000000E+00  0.23255550265E+04  0.23255550265E+04  0.00000000000E+00 0. -1.
         21   -1    0    0  502  503 -0.00000000000E+00 -0.00000000000E+00 -0.18055567646E+02  0.18055567646E+02  0.00000000000E+00 0. -1.
          6    1    1    2  501    0  0.41242309368E+02  0.96767953994E+02  0.13341565303E+04  0.13494323296E+04  0.17300000000E+03 0. -1.
         -6    1    1    2    0  503 -0.41242309368E+02 -0.96767953994E+02  0.97334292858E+03  0.99417826451E+03  0.17300000000E+03 0. -1.
<mgrwt>
<rscale>  2 0.20246966E+03</rscale>
<asrwt>0</asrwt>
<pdfrwt beam="1">  1       21 0.35777746E+00 0.20246966E+03</pdfrwt>
<pdfrwt beam="2">  1       21 0.27777815E-02 0.20246966E+03</pdfrwt>
<totfact> 0.11171998E+04</totfact>
</mgrwt>
</event>
<event>
 4    1  0.3976152E+000  0.2346757E+03  0.7546771E-02  0.1123391E+00
         21   -1    0    0  503  502  0.00000000000E+00  0.00000000000E+00  0.24717294915E+04  0.24717294915E+04  0.00000000000E+00 0. -1.
         21   -1    0    0  501  503 -0.00000000000E+00 -0.00000000000E+00 -0.22693957962E+02  0.22693957962E+02  0.00000000000E+00 0. -1.
          6    1    1    2  501    0  0.15025887464E+03  0.50655469263E+02  0.10562827254E+04  0.10820378468E+04  0.17300000000E+03 0. -1.
         -6    1    1    2    0  502 -0.15025887464E+03 -0.50655469263E+02  0.13927528081E+04  0.14123856026E+04  0.17300000000E+03 0. -1.
<mgrwt>
<rscale>  2 0.23467575E+03</rscale>
<asrwt>0</asrwt>
<pdfrwt beam="1">  1       21 0.38026586E+00 0.23467575E+03</pdfrwt>
<pdfrwt beam="2">  1       21 0.34913801E-02 0.23467575E+03</pdfrwt>
<totfact> 0.53857747E+03</totfact>
</mgrwt>
</event>
<event>
 4    1  0.3976152E+000  0.1963992E+03  0.7546771E-02  0.1152813E+00
         21   -1    0    0  503  502  0.00000000000E+00  0.00000000000E+00  0.79403033480E+03  0.79403033480E+03  0.00000000000E+00 0. -1.
         21   -1    0    0  501  503 -0.00000000000E+00 -0.00000000000E+00 -0.48736706718E+02  0.48736706718E+02  0.00000000000E+00 0. -1.
          6    1    1    2  501    0 -0.54267328004E+02 -0.75489636320E+02  0.34862181300E+03  0.40013722218E+03  0.17300000000E+03 0. -1.
         -6    1    1    2    0  502  0.54267328004E+02  0.75489636320E+02  0.39667181508E+03  0.44262981933E+03  0.17300000000E+03 0. -1.
<mgrwt>
<rscale>  2 0.19639915E+03</rscale>
<asrwt>0</asrwt>
<pdfrwt beam="1">  1       21 0.12215850E+00 0.19639915E+03</pdfrwt>
<pdfrwt beam="2">  1       21 0.74979554E-02 0.19639915E+03</pdfrwt>
<totfact> 0.67726689E+04</totfact>
</mgrwt>
</event>
<event>
 4    1  0.3976152E+000  0.2541593E+03  0.7546771E-02  0.1110704E+00
         21   -1    0    0  503  502  0.00000000000E+00  0.00000000000E+00  0.11648160931E+03  0.11648160931E+03  0.00000000000E+00 0. -1.
         21   -1    0    0  501  503 -0.00000000000E+00 -0.00000000000E+00 -0.12407694236E+04  0.12407694236E+04  0.00000000000E+00 0. -1.
          6    1    1    2  501    0 -0.16670101148E+03 -0.82938068467E+02 -0.10668174211E+04  0.10966751389E+04  0.17300000000E+03 0. -1.
         -6    1    1    2    0  502  0.16670101148E+03  0.82938068467E+02 -0.57470393220E+02  0.26057589399E+03  0.17300000000E+03 0. -1.
<mgrwt>
<rscale>  2 0.25415930E+03</rscale>
<asrwt>0</asrwt>
<pdfrwt beam="1">  1       21 0.17920247E-01 0.25415930E+03</pdfrwt>
<pdfrwt beam="2">  1       21 0.19088761E+00 0.25415930E+03</pdfrwt>
<totfact> 0.41403749E+03</totfact>
</mgrwt>
</event>
<event>
 4    1  0.3976152E+000  0.2177305E+03  0.7546771E-02  0.1135586E+00
         21   -1    0    0  503  502  0.00000000000E+00  0.00000000000E+00  0.72862622775E+03  0.72862622775E+03  0.00000000000E+00 0.  1.
         21   -1    0    0  501  503 -0.00000000000E+00 -0.00000000000E+00 -0.25924167149E+03  0.25924167149E+03  0.00000000000E+00 0.  1.
          6    1    1    2  501    0 -0.68121412452E+01 -0.13202706154E+03 -0.19278922016E+03  0.29081649481E+03  0.17300000000E+03 0.  1.
         -6    1    1    2    0  502  0.68121412452E+01  0.13202706154E+03  0.66217377642E+03  0.69705140443E+03  0.17300000000E+03 0.  1.
<mgrwt>
<rscale>  2 0.21773045E+03</rscale>
<asrwt>0</asrwt>
<pdfrwt beam="1">  1       21 0.11209634E+00 0.21773045E+03</pdfrwt>
<pdfrwt beam="2">  1       21 0.39883334E-01 0.21773045E+03</pdfrwt>
<totfact> 0.37041177E+03</totfact>
</mgrwt>
</event>
<event>
 4    1  0.3976152E+000  0.2040604E+03  0.7546771E-02  0.1146358E+00
         21   -1    0    0  503  502  0.00000000000E+00  0.00000000000E+00  0.98122228400E+02  0.98122228400E+02  0.00000000000E+00 0.  1.
         21   -1    0    0  501  503 -0.00000000000E+00 -0.00000000000E+00 -0.70593110077E+03  0.70593110077E+03  0.00000000000E+00 0.  1.
          6    1    1    2  501    0  0.18183349634E+02  0.10668186469E+03 -0.55780046402E+03  0.59395455392E+03  0.17300000000E+03 0.  1.
         -6    1    1    2    0  502 -0.18183349634E+02 -0.10668186469E+03 -0.50008408352E+02  0.21009877526E+03  0.17300000000E+03 0.  1.
<mgrwt>
<rscale>  2 0.20406042E+03</rscale>
<asrwt>0</asrwt>
<pdfrwt beam="1">  1       21 0.15095727E-01 0.20406042E+03</pdfrwt>
<pdfrwt beam="2">  1       21 0.10860479E+00 0.20406042E+03</pdfrwt>
<totfact> 0.25941523E+04</totfact>
</mgrwt>
</event>
<event>
 4    1  0.3976152E+000  0.2921221E+03  0.7546771E-02  0.1089246E+00
         21   -1    0    0  501  502  0.00000000000E+00  0.00000000000E+00  0.50101431149E+02  0.50101431149E+02  0.00000000000E+00 0.  1.
         21   -1    0    0  502  503 -0.00000000000E+00 -0.00000000000E+00 -0.21171966357E+04  0.21171966357E+04  0.00000000000E+00 0.  1.
          6    1    1    2  501    0  0.19557083936E+03  0.13098998554E+03 -0.55438873636E+03  0.62664359928E+03  0.17300000000E+03 0.  1.
         -6    1    1    2    0  503 -0.19557083936E+03 -0.13098998554E+03 -0.15127064682E+04  0.15406544676E+04  0.17300000000E+03 0.  1.
<mgrwt>
<rscale>  2 0.29212211E+03</rscale>
<asrwt>0</asrwt>
<pdfrwt beam="1">  1       21 0.77079117E-02 0.29212211E+03</pdfrwt>
<pdfrwt beam="2">  1       21 0.32572259E+00 0.29212211E+03</pdfrwt>
<totfact> 0.28010361E+03</totfact>
</mgrwt>
</event>
<event>
 4    1  0.3976152E+000  0.2131728E+03  0.7546771E-02  0.1139078E+00
         21   -1    0    0  503  502  0.00000000000E+00  0.00000000000E+00  0.22016442067E+03  0.22016442067E+03  0.00000000000E+00 0.  1.
         21   -1    0    0  501  503 -0.00000000000E+00 -0.00000000000E+00 -0.28493264542E+03  0.28493264542E+03  0.00000000000E+00 0.  1.
          6    1    1    2  501    0 -0.12235795991E+02 -0.12395134231E+03 -0.16496773985E+03  0.26954963394E+03  0.17300000000E+03 0.  1.
         -6    1    1    2    0  502  0.12235795991E+02  0.12395134231E+03  0.10019951510E+03  0.23554743215E+03  0.17300000000E+03 0.  1.
<mgrwt>
<rscale>  2 0.21317282E+03</rscale>
<asrwt>0</asrwt>
<pdfrwt beam="1">  1       21 0.33871449E-01 0.21317282E+03</pdfrwt>
<pdfrwt beam="2">  1       21 0.43835791E-01 0.21317282E+03</pdfrwt>
<totfact> 0.41557793E+04</totfact>
</mgrwt>
</event>
<event>
 4    1  0.3976152E+000  0.3373079E+03  0.7546771E-02  0.1067948E+00
         21   -1    0    0  501  502  0.00000000000E+00  0.00000000000E+00  0.51020685643E+02  0.51020685643E+02  0.00000000000E+00 0.  1.
         21   -1    0    0  502  503 -0.00000000000E+00 -0.00000000000E+00 -0.25240035651E+04  0.25240035651E+04  0.00000000000E+00 0.  1.
          6    1    1    2  501    0  0.26633115544E+03  0.11364556927E+03 -0.79707547778E+03  0.86550905082E+03  0.17300000000E+03 0.  1.
         -6    1    1    2    0  503 -0.26633115544E+03 -0.11364556927E+03 -0.16759074017E+04  0.17095151999E+04  0.17300000000E+03 0.  1.
<mgrwt>
<rscale>  2 0.33730787E+03</rscale>
<asrwt>0</asrwt>
<pdfrwt beam="1">  1       21 0.78493375E-02 0.33730787E+03</pdfrwt>
<pdfrwt beam="2">  1       21 0.38830818E+00 0.33730787E+03</pdfrwt>
<totfact> 0.10867898E+03</totfact>
</mgrwt>
</event>
<event>
 4    1  0.3976152E+000  0.2461131E+03  0.7546771E-02  0.1115786E+00
         21   -1    0    0  501  502  0.00000000000E+00  0.00000000000E+00  0.69726152652E+02  0.69726152652E+02  0.00000000000E+00 0.  1.
         21   -1    0    0  502  503 -0.00000000000E+00 -0.00000000000E+00 -0.10231139486E+04  0.10231139486E+04  0.00000000000E+00 0.  1.
          6    1    1    2  501    0 -0.17417755218E+03  0.17459521835E+02 -0.26441986018E+03  0.36123332770E+03  0.17300000000E+03 0.  1.
         -6    1    1    2    0  503  0.17417755218E+03 -0.17459521835E+02 -0.68896793579E+03  0.73160677357E+03  0.17300000000E+03 0.  1.
<mgrwt>
<rscale>  2 0.24611309E+03</rscale>
<asrwt>0</asrwt>
<pdfrwt beam="1">  1       21 0.10727101E-01 0.24611309E+03</pdfrwt>
<pdfrwt beam="2">  1       21 0.15740213E+00 0.24611309E+03</pdfrwt>
<totfact> 0.18218838E+04</totfact>
</mgrwt>
</event>
<event>
 4    1  0.3976152E+000  0.2040270E+03  0.7546771E-02  0.1146385E+00
         21   -1    0    0  501  502  0.00000000000E+00  0.00000000000E+00  0.19391153943E+03  0.19391153943E+03  0.00000000000E+00 0. -1.
         21   -1    0    0  502  503 -0.00000000000E+00 -0.00000000000E+00 -0.24282544932E+03  0.24282544932E+03  0.00000000000E+00 0. -1.
          6    1    1    2  501    0  0.99863865547E+02 -0.41535739005E+02  0.49900300463E+02  0.21004058951E+03  0.17300000000E+03 0. -1.
         -6    1    1    2    0  503 -0.99863865547E+02  0.41535739005E+02 -0.98814210359E+02  0.22669639923E+03  0.17300000000E+03 0. -1.
<mgrwt>
<rscale>  2 0.20402698E+03</rscale>
<asrwt>0</asrwt>
<pdfrwt beam="1">  1       21 0.29832545E-01 0.20402698E+03</pdfrwt>
<pdfrwt beam="2">  1       21 0.37357761E-01 0.20402698E+03</pdfrwt>
<totfact> 0.74077439E+04</totfact>
</mgrwt>
</event>
<event>
 4    1  0.3976152E+000  0.1923684E+03  0.7546771E-02  0.1156342E+00
         21   -1    0    0  503  502  0.00000000000E+00  0.00000000000E+00  0.19973642298E+02  0.19973642298E+02  0.00000000000E+00 0.  1.
         21   -1    0    0  501  503 -0.00000000000E+00 -0.00000000000E+00 -0.18844415044E+04  0.18844415044E+04  0.00000000000E+00 0.  1.
          6    1    1    2  501    0 -0.75724780808E+02  0.36638415533E+02 -0.10557718468E+04  0.10731541401E+04  0.17300000000E+03 0.  1.
         -6    1    1    2    0  502  0.75724780808E+02 -0.36638415533E+02 -0.80869601526E+03  0.83126100655E+03  0.17300000000E+03 0.  1.
<mgrwt>
<rscale>  2 0.19236844E+03</rscale>
<asrwt>0</asrwt>
<pdfrwt beam="1">  1       21 0.30728672E-02 0.19236844E+03</pdfrwt>
<pdfrwt beam="2">  1       21 0.28991416E+00 0.19236844E+03</pdfrwt>
<totfact> 0.23731776E+04</totfact>
</mgrwt>
</event>
<event>
 4    1  0.3976152E+000  0.2440570E+03  0.7546771E-02  0.1117119E+00
         21   -1    0    0  501  502  0.00000000000E+00  0.00000000000E+00  0.12484015802E+03  0.12484015802E+03  0.00000000000E+00 0. -1.
         21   -1    0    0  502  503 -0.00000000000E+00 -0.00000000000E+00 -0.64840463738E+03  0.64840463738E+03  0.00000000000E+00 0.  1.
          6    1    1    2  501    0  0.17204328413E+03  0.59950842460E+01 -0.63071115416E+02  0.25207498537E+03  0.17300000000E+03 0. -1.
         -6    1    1    2    0  503 -0.17204328413E+03 -0.59950842460E+01 -0.46049336394E+03  0.52116981003E+03  0.17300000000E+03 0. -1.
<mgrwt>
<rscale>  2 0.24405703E+03</rscale>
<asrwt>0</asrwt>
<pdfrwt beam="1">  1       21 0.19206179E-01 0.24405703E+03</pdfrwt>
<pdfrwt beam="2">  1       21 0.99754558E-01 0.24405703E+03</pdfrwt>
<totfact> 0.19961240E+04</totfact>
</mgrwt>
</event>
<event>
 4    1  0.3976152E+000  0.1870797E+03  0.7546771E-02  0.1161122E+00
         21   -1    0    0  503  502  0.00000000000E+00  0.00000000000E+00  0.54119337545E+02  0.54119337545E+02  0.00000000000E+00 0.  1.
         21   -1    0    0  501  503 -0.00000000000E+00 -0.00000000000E+00 -0.95115836696E+03  0.95115836696E+03  0.00000000000E+00 0.  1.
          6    1    1    2  501    0  0.69035617586E+02 -0.17432603170E+02 -0.73289735359E+03  0.75639760909E+03  0.17300000000E+03 0.  1.
         -6    1    1    2    0  502 -0.69035617586E+02  0.17432603170E+02 -0.16414167583E+03  0.24888009542E+03  0.17300000000E+03 0.  1.
<mgrwt>
<rscale>  2 0.18707969E+03</rscale>
<asrwt>0</asrwt>
<pdfrwt beam="1">  1       21 0.83260519E-02 0.18707969E+03</pdfrwt>
<pdfrwt beam="2">  1       21 0.14633206E+00 0.18707969E+03</pdfrwt>
<totfact> 0.35819553E+04</totfact>
</mgrwt>
</event>
<event>
 4    1  0.3976152E+000  0.1825352E+03  0.7546771E-02  0.1165372E+00
         21   -1    0    0  503  502  0.00000000000E+00  0.00000000000E+00  0.45470850471E+03  0.45470850471E+03  0.00000000000E+00 0.  1.
         21   -1    0    0  501  503 -0.00000000000E+00 -0.00000000000E+00 -0.13004625178E+03  0.13004625178E+03  0.00000000000E+00 0. -1.
          6    1    1    2  501    0 -0.50746403293E+02  0.28546247263E+02 -0.30846306714E+02  0.18512314906E+03  0.17300000000E+03 0. -1.
         -6    1    1    2    0  502  0.50746403293E+02 -0.28546247263E+02  0.35550855965E+03  0.39963160744E+03  0.17300000000E+03 0.  1.
<mgrwt>
<rscale>  2 0.18253516E+03</rscale>
<asrwt>0</asrwt>
<pdfrwt beam="1">  1       21 0.69955153E-01 0.18253516E+03</pdfrwt>
<pdfrwt beam="2">  1       21 0.20007116E-01 0.18253516E+03</pdfrwt>
<totfact> 0.43018386E+04</totfact>
</mgrwt>
</event>
<event>
 4    1  0.3976152E+000  0.1870030E+03  0.7546771E-02  0.1161193E+00
         21   -1    0    0  503  502  0.00000000000E+00  0.00000000000E+00  0.43978603938E+02  0.43978603938E+02  0.00000000000E+00 0. -1.
         21   -1    0    0  501  503 -0.00000000000E+00 -0.00000000000E+00 -0.10424806072E+04  0.10424806072E+04  0.00000000000E+00 0.  1.
          6    1    1    2  501    0 -0.59580236825E+02  0.38617747350E+02 -0.76384343939E+03  0.78640125568E+03  0.17300000000E+03 0.  1.
         -6    1    1    2    0  502  0.59580236825E+02 -0.38617747350E+02 -0.23465856382E+03  0.30005795541E+03  0.17300000000E+03 0. -1.
<mgrwt>
<rscale>  2 0.18700303E+03</rscale>
<asrwt>0</asrwt>
<pdfrwt beam="1">  1       21 0.67659392E-02 0.18700303E+03</pdfrwt>
<pdfrwt beam="2">  1       21 0.16038163E+00 0.18700303E+03</pdfrwt>
<totfact> 0.40251727E+04</totfact>
</mgrwt>
</event>
<event>
 4    1  0.3976152E+000  0.1768683E+03  0.7546771E-02  0.1170869E+00
         21   -1    0    0  503  502  0.00000000000E+00  0.00000000000E+00  0.24889050077E+03  0.24889050077E+03  0.00000000000E+00 0. -1.
         21   -1    0    0  501  503 -0.00000000000E+00 -0.00000000000E+00 -0.13966808481E+03  0.13966808481E+03  0.00000000000E+00 0. -1.
          6    1    1    2  501    0 -0.36592197835E+02  0.37966588267E+01 -0.68557783473E+01  0.17700114479E+03  0.17300000000E+03 0.  1.
         -6    1    1    2    0  502  0.36592197835E+02 -0.37966588267E+01  0.11607819430E+03  0.21155744079E+03  0.17300000000E+03 0.  1.
<mgrwt>
<rscale>  2 0.17686832E+03</rscale>
<asrwt>0</asrwt>
<pdfrwt beam="1">  1       21 0.38290846E-01 0.17686832E+03</pdfrwt>
<pdfrwt beam="2">  1       21 0.21487398E-01 0.17686832E+03</pdfrwt>
<totfact> 0.13343552E+05</totfact>
</mgrwt>
</event>
<event>
 4    1  0.3976152E+000  0.1952144E+03  0.7546771E-02  0.1153841E+00
         21   -1    0    0  503  502  0.00000000000E+00  0.00000000000E+00  0.64328388210E+02  0.64328388210E+02  0.00000000000E+00 0. -1.
         21   -1    0    0  501  503 -0.00000000000E+00 -0.00000000000E+00 -0.12111629482E+04  0.12111629482E+04  0.00000000000E+00 0. -1.
          6    1    1    2  501    0 -0.68953671581E+02 -0.58523952175E+02 -0.10292500223E+04  0.10475992889E+04  0.17300000000E+03 0. -1.
         -6    1    1    2    0  502  0.68953671581E+02  0.58523952175E+02 -0.11758453774E+03  0.22789204751E+03  0.17300000000E+03 0. -1.
<mgrwt>
<rscale>  2 0.19521440E+03</rscale>
<asrwt>0</asrwt>
<pdfrwt beam="1">  1       21 0.98966751E-02 0.19521440E+03</pdfrwt>
<pdfrwt beam="2">  1       21 0.18633276E+00 0.19521440E+03</pdfrwt>
<totfact> 0.13605081E+04</totfact>
</mgrwt>
</event>
<event>
 4    1  0.3976152E+000  0.2154056E+03  0.7546771E-02  0.1137355E+00
         21   -1    0    0  501  502  0.00000000000E+00  0.00000000000E+00  0.10853207444E+03  0.10853207444E+03  0.00000000000E+00 0.  1.
         21   -1    0    0  502  503 -0.00000000000E+00 -0.00000000000E+00 -0.73893119139E+03  0.73893119139E+03  0.00000000000E+00 0.  1.
          6    1    1    2  501    0  0.11687394048E+02  0.12780452467E+03 -0.40121305815E+02  0.21911027106E+03  0.17300000000E+03 0.  1.
         -6    1    1    2    0  503 -0.11687394048E+02 -0.12780452467E+03 -0.59027781113E+03  0.62835299476E+03  0.17300000000E+03 0.  1.
<mgrwt>
<rscale>  2 0.21540564E+03</rscale>
<asrwt>0</asrwt>
<pdfrwt beam="1">  1       21 0.16697241E-01 0.21540564E+03</pdfrwt>
<pdfrwt beam="2">  1       21 0.11368173E+00 0.21540564E+03</pdfrwt>
<totfact> 0.19168268E+04</totfact>
</mgrwt>
</event>
<event>
 4    1  0.3976152E+000  0.1817401E+03  0.7546771E-02  0.1166129E+00
         21   -1    0    0  503  502  0.00000000000E+00  0.00000000000E+00  0.48448605938E+03  0.48448605938E+03  0.00000000000E+00 0. -1.
         21   -1    0    0  501  503 -0.00000000000E+00 -0.00000000000E+00 -0.15341850300E+03  0.15341850300E+03  0.00000000000E+00 0. -1.
          6    1    1    2  501    0  0.44660524809E+02  0.33255248417E+02 -0.72215603103E+02  0.19556218283E+03  0.17300000000E+03 0. -1.
         -6    1    1    2    0  502 -0.44660524809E+02 -0.33255248417E+02  0.40328315948E+03  0.44234237955E+03  0.17300000000E+03 0. -1.
<mgrwt>
<rscale>  2 0.18174013E+03</rscale>
<asrwt>0</asrwt>
<pdfrwt beam="1">  1       21 0.74536316E-01 0.18174013E+03</pdfrwt>
<pdfrwt beam="2">  1       21 0.23602847E-01 0.18174013E+03</pdfrwt>
<totfact> 0.27409174E+04</totfact>
</mgrwt>
</event>
<event>
 4    1  0.3976152E+000  0.1738294E+03  0.7546771E-02  0.1173912E+00
         21   -1    0    0  501  502  0.00000000000E+00  0.00000000000E+00  0.34065438189E+03  0.34065438189E+03  0.00000000000E+00 0.  1.
         21   -1    0    0  502  503 -0.00000000000E+00 -0.00000000000E+00 -0.99093685678E+02  0.99093685678E+02  0.00000000000E+00 0.  1.
          6    1    1    2  501    0  0.12994711801E+02  0.10899197539E+02  0.19198334026E+03  0.25898698419E+03  0.17300000000E+03 0.  1.
         -6    1    1    2    0  503 -0.12994711801E+02 -0.10899197539E+02  0.49577355953E+02  0.18076108338E+03  0.17300000000E+03 0.  1.
<mgrwt>
<rscale>  2 0.17382938E+03</rscale>
<asrwt>0</asrwt>
<pdfrwt beam="1">  1       21 0.52408366E-01 0.17382938E+03</pdfrwt>
<pdfrwt beam="2">  1       21 0.15245183E-01 0.17382938E+03</pdfrwt>
<totfact> 0.13238224E+05</totfact>
</mgrwt>
</event>
<event>
 4    1  0.3976152E+000  0.1996684E+03  0.7546771E-02  0.1150019E+00
         21   -1    0    0  503  502  0.00000000000E+00  0.00000000000E+00  0.23186097414E+03  0.23186097414E+03  0.00000000000E+00 0.  1.
         21   -1    0    0  501  503 -0.00000000000E+00 -0.00000000000E+00 -0.17274443795E+03  0.17274443795E+03  0.00000000000E+00 0.  1.
          6    1    1    2  501    0  0.41454740684E+02  0.90664048545E+02  0.15800763806E+02  0.20029260935E+03  0.17300000000E+03 0.  1.
         -6    1    1    2    0  502 -0.41454740684E+02 -0.90664048545E+02  0.43315772386E+02  0.20431280273E+03  0.17300000000E+03 0.  1.
<mgrwt>
<rscale>  2 0.19966839E+03</rscale>
<asrwt>0</asrwt>
<pdfrwt beam="1">  1       21 0.35670919E-01 0.19966839E+03</pdfrwt>
<pdfrwt beam="2">  1       21 0.26576067E-01 0.19966839E+03</pdfrwt>
<totfact> 0.10181339E+05</totfact>
</mgrwt>
</event>
<event>
 4    1  0.3976152E+000  0.2005002E+03  0.7546771E-02  0.1149318E+00
         21   -1    0    0  503  502  0.00000000000E+00  0.00000000000E+00  0.10660813371E+04  0.10660813371E+04  0.00000000000E+00 0. -1.
         21   -1    0    0  501  503 -0.00000000000E+00 -0.00000000000E+00 -0.38713967921E+02  0.38713967921E+02  0.00000000000E+00 0. -1.
          6    1    1    2  501    0 -0.66961871567E+02  0.76075248058E+02  0.42466102408E+03  0.46961401276E+03  0.17300000000E+03 0. -1.
         -6    1    1    2    0  502  0.66961871567E+02 -0.76075248058E+02  0.60270634509E+03  0.63518129225E+03  0.17300000000E+03 0. -1.
<mgrwt>
<rscale>  2 0.20050021E+03</rscale>
<asrwt>0</asrwt>
<pdfrwt beam="1">  1       21 0.16401249E+00 0.20050021E+03</pdfrwt>
<pdfrwt beam="2">  1       21 0.59559959E-02 0.20050021E+03</pdfrwt>
<totfact> 0.46777172E+04</totfact>
</mgrwt>
</event>
<event>
 4    1  0.3976152E+000  0.2584808E+03  0.7546771E-02  0.1108059E+00
         21   -1    0    0  501  502  0.00000000000E+00  0.00000000000E+00  0.43147544814E+03  0.43147544814E+03  0.00000000000E+00 0. -1.
         21   -1    0    0  502  503 -0.00000000000E+00 -0.00000000000E+00 -0.21140672990E+03  0.21140672990E+03  0.00000000000E+00 0.  1.
          6    1    1    2  501    0  0.11011695372E+03 -0.15734538582E+03  0.27629861606E+03  0.37835596886E+03  0.17300000000E+03 0. -1.
         -6    1    1    2    0  503 -0.11011695372E+03  0.15734538582E+03 -0.56229897814E+02  0.26452620918E+03  0.17300000000E+03 0.  1.
<mgrwt>
<rscale>  2 0.25848078E+03</rscale>
<asrwt>0</asrwt>
<pdfrwt beam="1">  1       21 0.66380838E-01 0.25848078E+03</pdfrwt>
<pdfrwt beam="2">  1       21 0.32524112E-01 0.25848078E+03</pdfrwt>
<totfact> 0.18268282E+04</totfact>
</mgrwt>
</event>
<event>
 4    1  0.3976152E+000  0.1939046E+03  0.7546771E-02  0.1154986E+00
         21   -1    0    0  503  502  0.00000000000E+00  0.00000000000E+00  0.41460908327E+03  0.41460908327E+03  0.00000000000E+00 0.  1.
         21   -1    0    0  501  503 -0.00000000000E+00 -0.00000000000E+00 -0.17406268387E+03  0.17406268387E+03  0.00000000000E+00 0.  1.
          6    1    1    2  501    0  0.34306766011E+02  0.80579294851E+02 -0.83437730113E+02  0.21109436695E+03  0.17300000000E+03 0.  1.
         -6    1    1    2    0  502 -0.34306766011E+02 -0.80579294851E+02  0.32398412951E+03  0.37757740018E+03  0.17300000000E+03 0.  1.
<mgrwt>
<rscale>  2 0.19390456E+03</rscale>
<asrwt>0</asrwt>
<pdfrwt beam="1">  1       21 0.63786013E-01 0.19390456E+03</pdfrwt>
<pdfrwt beam="2">  1       21 0.26778874E-01 0.19390456E+03</pdfrwt>
<totfact> 0.30129710E+04</totfact>
</mgrwt>
</event>
<event>
 4    1  0.3976152E+000  0.2328386E+03  0.7546771E-02  0.1124658E+00
         21   -1    0    0  501  502  0.00000000000E+00  0.00000000000E+00  0.32453735986E+03  0.32453735986E+03  0.00000000000E+00 0. -1.
         21   -1    0    0  502  503 -0.00000000000E+00 -0.00000000000E+00 -0.17885271339E+03  0.17885271339E+03  0.00000000000E+00 0. -1.
          6    1    1    2  501    0  0.15566696504E+03 -0.72530163520E+01  0.13750097470E+03  0.27040770754E+03  0.17300000000E+03 0. -1.
         -6    1    1    2    0  503 -0.15566696504E+03  0.72530163520E+01  0.81836717653E+01  0.23298236572E+03  0.17300000000E+03 0. -1.
<mgrwt>
<rscale>  2 0.23283859E+03</rscale>
<asrwt>0</asrwt>
<pdfrwt beam="1">  1       21 0.49928825E-01 0.23283859E+03</pdfrwt>
<pdfrwt beam="2">  1       21 0.27515802E-01 0.23283859E+03</pdfrwt>
<totfact> 0.47260800E+04</totfact>
</mgrwt>
</event>
<event>
 4    1  0.3976152E+000  0.2347823E+03  0.7546771E-02  0.1123318E+00
         21   -1    0    0  501  502  0.00000000000E+00  0.00000000000E+00  0.12371586415E+03  0.12371586415E+03  0.00000000000E+00 0. -1.
         21   -1    0    0  502  503 -0.00000000000E+00 -0.00000000000E+00 -0.71972236482E+03  0.71972236482E+03  0.00000000000E+00 0.  1.
          6    1    1    2  501    0 -0.10472546919E+03 -0.11927400731E+03 -0.37720418493E+02  0.23779306695E+03  0.17300000000E+03 0. -1.
         -6    1    1    2    0  503  0.10472546919E+03  0.11927400731E+03 -0.55828608218E+03  0.60564516202E+03  0.17300000000E+03 0.  1.
<mgrwt>
<rscale>  2 0.23478227E+03</rscale>
<asrwt>0</asrwt>
<pdfrwt beam="1">  1       21 0.19033210E-01 0.23478227E+03</pdfrwt>
<pdfrwt beam="2">  1       21 0.11072652E+00 0.23478227E+03</pdfrwt>
<totfact> 0.15854519E+04</totfact>
</mgrwt>
</event>
<event>
 4    1  0.3976152E+000  0.1906410E+03  0.7546771E-02  0.1157884E+00
         21   -1    0    0  503  502  0.00000000000E+00  0.00000000000E+00  0.24138989937E+02  0.24138989937E+02  0.00000000000E+00 0. -1.
         21   -1    0    0  501  503 -0.00000000000E+00 -0.00000000000E+00 -0.15105859561E+04  0.15105859561E+04  0.00000000000E+00 0. -1.
          6    1    1    2  501    0 -0.36509988602E+02 -0.71288283529E+02 -0.78724815317E+03  0.81000225512E+03  0.17300000000E+03 0.  1.
         -6    1    1    2    0  502  0.36509988602E+02  0.71288283529E+02 -0.69919881302E+03  0.72472269094E+03  0.17300000000E+03 0.  1.
<mgrwt>
<rscale>  2 0.19064102E+03</rscale>
<asrwt>0</asrwt>
<pdfrwt beam="1">  1       21 0.37136893E-02 0.19064102E+03</pdfrwt>
<pdfrwt beam="2">  1       21 0.23239793E+00 0.19064102E+03</pdfrwt>
<totfact> 0.37592657E+04</totfact>
</mgrwt>
</event>
<event>
 4    1  0.3976152E+000  0.2173648E+03  0.7546771E-02  0.1135863E+00
         21   -1    0    0  501  502  0.00000000000E+00  0.00000000000E+00  0.96529185244E+03  0.96529185244E+03  0.00000000000E+00 0. -1.
         21   -1    0    0  502  503 -0.00000000000E+00 -0.00000000000E+00 -0.20744075815E+03  0.20744075815E+03  0.00000000000E+00 0.  1.
          6    1    1    2  501    0 -0.23399801742E+02  0.12950259979E+03  0.89146699102E+03  0.91758425780E+03  0.17300000000E+03 0. -1.
         -6    1    1    2    0  503  0.23399801742E+02 -0.12950259979E+03 -0.13361589673E+03  0.25514835279E+03  0.17300000000E+03 0.  1.
<mgrwt>
<rscale>  2 0.21736484E+03</rscale>
<asrwt>0</asrwt>
<pdfrwt beam="1">  1       21 0.14850644E+00 0.21736484E+03</pdfrwt>
<pdfrwt beam="2">  1       21 0.31913963E-01 0.21736484E+03</pdfrwt>
<totfact> 0.28351673E+03</totfact>
</mgrwt>
</event>
<event>
 4    1  0.3976152E+000  0.1825149E+03  0.7546771E-02  0.1165391E+00
         21   -1    0    0  501  502  0.00000000000E+00  0.00000000000E+00  0.11557389102E+04  0.11557389102E+04  0.00000000000E+00 0. -1.
         21   -1    0    0  502  503 -0.00000000000E+00 -0.00000000000E+00 -0.31267055261E+02  0.31267055261E+02  0.00000000000E+00 0. -1.
          6    1    1    2  501    0 -0.31135027416E+02  0.49125312734E+02  0.72817493197E+03  0.75069995193E+03  0.17300000000E+03 0. -1.
         -6    1    1    2    0  503  0.31135027416E+02 -0.49125312734E+02  0.39629692295E+03  0.43630601351E+03  0.17300000000E+03 0. -1.
<mgrwt>
<rscale>  2 0.18251489E+03</rscale>
<asrwt>0</asrwt>
<pdfrwt beam="1">  1       21 0.17780595E+00 0.18251489E+03</pdfrwt>
<pdfrwt beam="2">  1       21 0.48103171E-02 0.18251489E+03</pdfrwt>
<totfact> 0.54423832E+04</totfact>
</mgrwt>
</event>
<event>
 4    1  0.3976152E+000  0.3036346E+03  0.7546771E-02  0.1083438E+00
         21   -1    0    0  503  502  0.00000000000E+00  0.00000000000E+00  0.18913945402E+04  0.18913945402E+04  0.00000000000E+00 0.  1.
         21   -1    0    0  501  503 -0.00000000000E+00 -0.00000000000E+00 -0.50038048259E+02  0.50038048259E+02  0.00000000000E+00 0. -1.
          6    1    1    2  501    0 -0.24875267823E+03  0.19674458837E+02  0.10767884293E+04  0.11187793798E+04  0.17300000000E+03 0. -1.
         -6    1    1    2    0  502  0.24875267823E+03 -0.19674458837E+02  0.76456806265E+03  0.82265320863E+03  0.17300000000E+03 0.  1.
<mgrwt>
<rscale>  2 0.30363461E+03</rscale>
<asrwt>0</asrwt>
<pdfrwt beam="1">  1       21 0.29098372E+00 0.30363461E+03</pdfrwt>
<pdfrwt beam="2">  1       21 0.76981628E-02 0.30363461E+03</pdfrwt>
<totfact> 0.44627398E+03</totfact>
</mgrwt>
</event>
<event>
 4    1  0.3976152E+000  0.1749398E+03  0.7546771E-02  0.1172792E+00
         21   -1    0    0  501  502  0.00000000000E+00  0.00000000000E+00  0.15856234001E+03  0.15856234001E+03  0.00000000000E+00 0. -1.
         21   -1    0    0  502  503 -0.00000000000E+00 -0.00000000000E+00 -0.19446306134E+03  0.19446306134E+03  0.00000000000E+00 0. -1.
          6    1    1    2  501    0  0.49979784612E+01 -0.25494423738E+02 -0.26866105668E+01  0.17496046212E+03  0.17300000000E+03 0. -1.
         -6    1    1    2    0  503 -0.49979784612E+01  0.25494423738E+02 -0.33214110763E+02  0.17806493923E+03  0.17300000000E+03 0. -1.
<mgrwt>
<rscale>  2 0.17493983E+03</rscale>
<asrwt>0</asrwt>
<pdfrwt beam="1">  1       21 0.24394206E-01 0.17493983E+03</pdfrwt>
<pdfrwt beam="2">  1       21 0.29917394E-01 0.17493983E+03</pdfrwt>
<totfact> 0.17097045E+05</totfact>
</mgrwt>
</event>
<event>
 4    1  0.3976152E+000  0.1884466E+03  0.7546771E-02  0.1159870E+00
         21   -1    0    0  503  502  0.00000000000E+00  0.00000000000E+00  0.38819282933E+03  0.38819282933E+03  0.00000000000E+00 0.  1.
         21   -1    0    0  501  503 -0.00000000000E+00 -0.00000000000E+00 -0.10703199629E+03  0.10703199629E+03  0.00000000000E+00 0.  1.
          6    1    1    2  501    0  0.58551161982E+02  0.46420833935E+02  0.46196152470E+02  0.19402633042E+03  0.17300000000E+03 0.  1.
         -6    1    1    2    0  502 -0.58551161982E+02 -0.46420833935E+02  0.23496468057E+03  0.30119849520E+03  0.17300000000E+03 0.  1.
<mgrwt>
<rscale>  2 0.18844663E+03</rscale>
<asrwt>0</asrwt>
<pdfrwt beam="1">  1       21 0.59721973E-01 0.18844663E+03</pdfrwt>
<pdfrwt beam="2">  1       21 0.16466461E-01 0.18844663E+03</pdfrwt>
<totfact> 0.86720711E+04</totfact>
</mgrwt>
</event>
<event>
 4    1  0.3976152E+000  0.2135035E+03  0.7546771E-02  0.1138821E+00
         21   -1    0    0  501  502  0.00000000000E+00  0.00000000000E+00  0.15576203693E+03  0.15576203693E+03  0.00000000000E+00 0.  1.
         21   -1    0    0  502  503 -0.00000000000E+00 -0.00000000000E+00 -0.29530631569E+03  0.29530631569E+03  0.00000000000E+00 0.  1.
          6    1    1    2  501    0  0.93742383223E+02 -0.82868067334E+02 -0.91162623797E+02  0.23215162066E+03  0.17300000000E+03 0.  1.
         -6    1    1    2    0  503 -0.93742383223E+02  0.82868067334E+02 -0.48381654961E+02  0.21891673196E+03  0.17300000000E+03 0.  1.
<mgrwt>
<rscale>  2 0.21350352E+03</rscale>
<asrwt>0</asrwt>
<pdfrwt beam="1">  1       21 0.23963390E-01 0.21350352E+03</pdfrwt>
<pdfrwt beam="2">  1       21 0.45431740E-01 0.21350352E+03</pdfrwt>
<totfact> 0.75610870E+04</totfact>
</mgrwt>
</event>
<event>
 4    1  0.3976152E+000  0.1922873E+03  0.7546771E-02  0.1156414E+00
         21   -1    0    0  503  502  0.00000000000E+00  0.00000000000E+00  0.23464114236E+03  0.23464114236E+03  0.00000000000E+00 0. -1.
         21   -1    0    0  501  503 -0.00000000000E+00 -0.00000000000E+00 -0.15903126103E+03  0.15903126103E+03  0.00000000000E+00 0. -1.
          6    1    1    2  501    0  0.76822908778E+02 -0.33818093019E+02  0.18992468953E+02  0.19322302297E+03  0.17300000000E+03 0. -1.
         -6    1    1    2    0  502 -0.76822908778E+02  0.33818093019E+02  0.56617412374E+02  0.20044938042E+03  0.17300000000E+03 0. -1.
<mgrwt>
<rscale>  2 0.19228734E+03</rscale>
<asrwt>0</asrwt>
<pdfrwt beam="1">  1       21 0.36098638E-01 0.19228734E+03</pdfrwt>
<pdfrwt beam="2">  1       21 0.24466348E-01 0.19228734E+03</pdfrwt>
<totfact> 0.11682056E+05</totfact>
</mgrwt>
</event>
<event>
 4    1  0.3976152E+000  0.2283414E+03  0.7546771E-02  0.1127813E+00
         21   -1    0    0  501  502  0.00000000000E+00  0.00000000000E+00  0.95523613432E+02  0.95523613432E+02  0.00000000000E+00 0.  1.
         21   -1    0    0  502  503 -0.00000000000E+00 -0.00000000000E+00 -0.11520403149E+04  0.11520403149E+04  0.00000000000E+00 0. -1.
          6    1    1    2  501    0 -0.58332930786E+02 -0.13714245697E+03 -0.75767140996E+02  0.24058354884E+03  0.17300000000E+03 0. -1.
         -6    1    1    2    0  503  0.58332930786E+02  0.13714245697E+03 -0.98074956045E+03  0.10069803795E+04  0.17300000000E+03 0. -1.
<mgrwt>
<rscale>  2 0.22834138E+03</rscale>
<asrwt>0</asrwt>
<pdfrwt beam="1">  1       21 0.14695940E-01 0.22834138E+03</pdfrwt>
<pdfrwt beam="2">  1       21 0.17723698E+00 0.22834138E+03</pdfrwt>
<totfact> 0.75234022E+03</totfact>
</mgrwt>
</event>
<event>
 4    1  0.3976152E+000  0.1973970E+03  0.7546771E-02  0.1151954E+00
         21   -1    0    0  501  502  0.00000000000E+00  0.00000000000E+00  0.20481639437E+03  0.20481639437E+03  0.00000000000E+00 0. -1.
         21   -1    0    0  502  503 -0.00000000000E+00 -0.00000000000E+00 -0.19665495895E+03  0.19665495895E+03  0.00000000000E+00 0. -1.
          6    1    1    2  501    0 -0.95047117631E+02  0.16211786628E+01 -0.32156273021E+02  0.19999902171E+03  0.17300000000E+03 0. -1.
         -6    1    1    2    0  503  0.95047117631E+02 -0.16211786628E+01  0.40317708438E+02  0.20147233161E+03  0.17300000000E+03 0. -1.
<mgrwt>
<rscale>  2 0.19739702E+03</rscale>
<asrwt>0</asrwt>
<pdfrwt beam="1">  1       21 0.31510214E-01 0.19739702E+03</pdfrwt>
<pdfrwt beam="2">  1       21 0.30254609E-01 0.19739702E+03</pdfrwt>
<totfact> 0.10128419E+05</totfact>
</mgrwt>
</event>
<event>
 4    1  0.3976152E+000  0.1795619E+03  0.7546771E-02  0.1168228E+00
         21   -1    0    0  501  502  0.00000000000E+00  0.00000000000E+00  0.57234080473E+03  0.57234080473E+03  0.00000000000E+00 0.  1.
         21   -1    0    0  502  503 -0.00000000000E+00 -0.00000000000E+00 -0.58332913490E+02  0.58332913490E+02  0.00000000000E+00 0.  1.
          6    1    1    2  501    0  0.46401331291E+02 -0.12664042505E+02  0.31537185828E+03  0.36290752336E+03  0.17300000000E+03 0. -1.
         -6    1    1    2    0  503 -0.46401331291E+02  0.12664042505E+02  0.19863603296E+03  0.26776619486E+03  0.17300000000E+03 0. -1.
<mgrwt>
<rscale>  2 0.17956186E+03</rscale>
<asrwt>0</asrwt>
<pdfrwt beam="1">  1       21 0.88052428E-01 0.17956186E+03</pdfrwt>
<pdfrwt beam="2">  1       21 0.89742948E-02 0.17956186E+03</pdfrwt>
<totfact> 0.10903927E+05</totfact>
</mgrwt>
</event>
<event>
 4    1  0.3976152E+000  0.2726750E+03  0.7546771E-02  0.1099758E+00
         21   -1    0    0  501  502  0.00000000000E+00  0.00000000000E+00  0.26139694249E+03  0.26139694249E+03  0.00000000000E+00 0. -1.
         21   -1    0    0  502  503 -0.00000000000E+00 -0.00000000000E+00 -0.29852439654E+03  0.29852439654E+03  0.00000000000E+00 0.  1.
          6    1    1    2  501    0  0.15655467822E+03 -0.14111449962E+03  0.42247081155E+02  0.27592840582E+03  0.17300000000E+03 0. -1.
         -6    1    1    2    0  503 -0.15655467822E+03  0.14111449962E+03 -0.79374535204E+02  0.28399293321E+03  0.17300000000E+03 0. -1.
<mgrwt>
<rscale>  2 0.27267503E+03</rscale>
<asrwt>0</asrwt>
<pdfrwt beam="1">  1       21 0.40214914E-01 0.27267503E+03</pdfrwt>
<pdfrwt beam="2">  1       21 0.45926830E-01 0.27267503E+03</pdfrwt>
<totfact> 0.26031332E+04</totfact>
</mgrwt>
</event>
<event>
 4    1  0.3976152E+000  0.1813293E+03  0.7546771E-02  0.1166523E+00
         21   -1    0    0  501  502  0.00000000000E+00  0.00000000000E+00  0.51895363145E+02  0.51895363145E+02  0.00000000000E+00 0.  1.
         21   -1    0    0  502  503 -0.00000000000E+00 -0.00000000000E+00 -0.10385945422E+04  0.10385945422E+04  0.00000000000E+00 0.  1.
          6    1    1    2  501    0  0.48573165196E+02  0.24330477018E+02 -0.15286364486E+03  0.23716580363E+03  0.17300000000E+03 0.  1.
         -6    1    1    2    0  503 -0.48573165196E+02 -0.24330477018E+02 -0.83383553415E+03  0.85332410167E+03  0.17300000000E+03 0.  1.
<mgrwt>
<rscale>  2 0.18132933E+03</rscale>
<asrwt>0</asrwt>
<pdfrwt beam="1">  1       21 0.79839023E-02 0.18132933E+03</pdfrwt>
<pdfrwt beam="2">  1       21 0.15978377E+00 0.18132933E+03</pdfrwt>
<totfact> 0.30641439E+04</totfact>
</mgrwt>
</event>
<event>
 4    1  0.3976152E+000  0.2536735E+03  0.7546771E-02  0.1111005E+00
         21   -1    0    0  503  502  0.00000000000E+00  0.00000000000E+00  0.26829437039E+03  0.26829437039E+03  0.00000000000E+00 0. -1.
         21   -1    0    0  501  503 -0.00000000000E+00 -0.00000000000E+00 -0.25668783124E+03  0.25668783124E+03  0.00000000000E+00 0.  1.
          6    1    1    2  501    0 -0.69378413264E+02  0.17206936881E+03 -0.61426763913E+02  0.26100474945E+03  0.17300000000E+03 0. -1.
         -6    1    1    2    0  502  0.69378413264E+02 -0.17206936881E+03  0.73033303063E+02  0.26397745219E+03  0.17300000000E+03 0.  1.
<mgrwt>
<rscale>  2 0.25367347E+03</rscale>
<asrwt>0</asrwt>
<pdfrwt beam="1">  1       21 0.41276057E-01 0.25367347E+03</pdfrwt>
<pdfrwt beam="2">  1       21 0.39490435E-01 0.25367347E+03</pdfrwt>
<totfact> 0.33927005E+04</totfact>
</mgrwt>
</event>
<event>
 4    1  0.3976152E+000  0.2290120E+03  0.7546771E-02  0.1127337E+00
         21   -1    0    0  501  502  0.00000000000E+00  0.00000000000E+00  0.25646797282E+03  0.25646797282E+03  0.00000000000E+00 0.  1.
         21   -1    0    0  502  503 -0.00000000000E+00 -0.00000000000E+00 -0.31968959908E+03  0.31968959908E+03  0.00000000000E+00 0.  1.
          6    1    1    2  501    0 -0.42570168363E+02 -0.14389324248E+03  0.14131610262E+03  0.26910355873E+03  0.17300000000E+03 0.  1.
         -6    1    1    2    0  503  0.42570168363E+02  0.14389324248E+03 -0.20453772888E+03  0.30705401316E+03  0.17300000000E+03 0.  1.
<mgrwt>
<rscale>  2 0.22901197E+03</rscale>
<asrwt>0</asrwt>
<pdfrwt beam="1">  1       21 0.39456611E-01 0.22901197E+03</pdfrwt>
<pdfrwt beam="2">  1       21 0.49183015E-01 0.22901197E+03</pdfrwt>
<totfact> 0.23934707E+04</totfact>
</mgrwt>
</event>
<event>
 4    1  0.3976152E+000  0.1942525E+03  0.7546771E-02  0.1154681E+00
         21   -1    0    0  501  502  0.00000000000E+00  0.00000000000E+00  0.15793930615E+04  0.15793930615E+04  0.00000000000E+00 0.  1.
         21   -1    0    0  502  503 -0.00000000000E+00 -0.00000000000E+00 -0.28736523746E+02  0.28736523746E+02  0.00000000000E+00 0.  1.
          6    1    1    2  501    0  0.46330480847E+02  0.75223124449E+02  0.11054871224E+04  0.11224240775E+04  0.17300000000E+03 0.  1.
         -6    1    1    2    0  503 -0.46330480847E+02 -0.75223124449E+02  0.44516941531E+03  0.48570550772E+03  0.17300000000E+03 0.  1.
<mgrwt>
<rscale>  2 0.19425250E+03</rscale>
<asrwt>0</asrwt>
<pdfrwt beam="1">  1       21 0.24298348E+00 0.19425250E+03</pdfrwt>
<pdfrwt beam="2">  1       21 0.44210049E-02 0.19425250E+03</pdfrwt>
<totfact> 0.24192456E+04</totfact>
</mgrwt>
</event>
<event>
 4    1  0.3976152E+000  0.2134242E+03  0.7546771E-02  0.1138883E+00
         21   -1    0    0  503  502  0.00000000000E+00  0.00000000000E+00  0.80959650925E+02  0.80959650925E+02  0.00000000000E+00 0. -1.
         21   -1    0    0  501  503 -0.00000000000E+00 -0.00000000000E+00 -0.13452804436E+04  0.13452804436E+04  0.00000000000E+00 0. -1.
          6    1    1    2  501    0  0.10347131909E+03 -0.70104103858E+02 -0.11760886517E+04  0.11952967899E+04  0.17300000000E+03 0. -1.
         -6    1    1    2    0  502 -0.10347131909E+03  0.70104103858E+02 -0.88232140960E+02  0.23094330462E+03  0.17300000000E+03 0. -1.
<mgrwt>
<rscale>  2 0.21342422E+03</rscale>
<asrwt>0</asrwt>
<pdfrwt beam="1">  1       21 0.12455331E-01 0.21342422E+03</pdfrwt>
<pdfrwt beam="2">  1       21 0.20696622E+00 0.21342422E+03</pdfrwt>
<totfact> 0.65350276E+03</totfact>
</mgrwt>
</event>
<event>
 4    1  0.3976152E+000  0.3236418E+03  0.7546771E-02  0.1073985E+00
         21   -1    0    0  503  502  0.00000000000E+00  0.00000000000E+00  0.34952097236E+03  0.34952097236E+03  0.00000000000E+00 0. -1.
         21   -1    0    0  501  503 -0.00000000000E+00 -0.00000000000E+00 -0.62165934397E+03  0.62165934397E+03  0.00000000000E+00 0.  1.
          6    1    1    2  501    0 -0.78936629012E+02 -0.26188550228E+03 -0.48553805317E+03  0.58351624552E+03  0.17300000000E+03 0.  1.
         -6    1    1    2    0  502  0.78936629012E+02  0.26188550228E+03  0.21339968156E+03  0.38766407081E+03  0.17300000000E+03 0. -1.
<mgrwt>
<rscale>  2 0.32364179E+03</rscale>
<asrwt>0</asrwt>
<pdfrwt beam="1">  1       21 0.53772458E-01 0.32364179E+03</pdfrwt>
<pdfrwt beam="2">  1       21 0.95639897E-01 0.32364179E+03</pdfrwt>
<totfact> 0.27322897E+03</totfact>
</mgrwt>
</event>
<event>
 4    1  0.3976152E+000  0.2316713E+03  0.7546771E-02  0.1125469E+00
         21   -1    0    0  501  502  0.00000000000E+00  0.00000000000E+00  0.13046061079E+03  0.13046061079E+03  0.00000000000E+00 0. -1.
         21   -1    0    0  502  503 -0.00000000000E+00 -0.00000000000E+00 -0.45881035632E+03  0.45881035632E+03  0.00000000000E+00 0.  1.
          6    1    1    2  501    0 -0.94420280362E+02 -0.12176788823E+03 -0.69463725681E+02  0.24186115259E+03  0.17300000000E+03 0. -1.
         -6    1    1    2    0  503  0.94420280362E+02  0.12176788823E+03 -0.25888601984E+03  0.34740981451E+03  0.17300000000E+03 0.  1.
<mgrwt>
<rscale>  2 0.23167134E+03</rscale>
<asrwt>0</asrwt>
<pdfrwt beam="1">  1       21 0.20070864E-01 0.23167134E+03</pdfrwt>
<pdfrwt beam="2">  1       21 0.70586208E-01 0.23167134E+03</pdfrwt>
<totfact> 0.40921648E+04</totfact>
</mgrwt>
</event>
<event>
 4    1  0.3976152E+000  0.2290647E+03  0.7546771E-02  0.1127300E+00
         21   -1    0    0  503  502  0.00000000000E+00  0.00000000000E+00  0.20952961819E+03  0.20952961819E+03  0.00000000000E+00 0. -1.
         21   -1    0    0  501  503 -0.00000000000E+00 -0.00000000000E+00 -0.25051241966E+03  0.25051241966E+03  0.00000000000E+00 0. -1.
          6    1    1    2  501    0 -0.92872383164E+02 -0.11796761762E+03 -0.16099779098E+02  0.22962979173E+03  0.17300000000E+03 0. -1.
         -6    1    1    2    0  502  0.92872383164E+02  0.11796761762E+03 -0.24883022370E+02  0.23041224612E+03  0.17300000000E+03 0. -1.
<mgrwt>
<rscale>  2 0.22906470E+03</rscale>
<asrwt>0</asrwt>
<pdfrwt beam="1">  1       21 0.32235326E-01 0.22906470E+03</pdfrwt>
<pdfrwt beam="2">  1       21 0.38540372E-01 0.22906470E+03</pdfrwt>
<totfact> 0.59137560E+04</totfact>
</mgrwt>
</event>
<event>
 4    1  0.3976152E+000  0.2870140E+03  0.7546771E-02  0.1091919E+00
         21   -1    0    0  503  502  0.00000000000E+00  0.00000000000E+00  0.11286449469E+04  0.11286449469E+04  0.00000000000E+00 0.  1.
         21   -1    0    0  501  503 -0.00000000000E+00 -0.00000000000E+00 -0.16162034050E+03  0.16162034050E+03  0.00000000000E+00 0.  1.
          6    1    1    2  501    0  0.10632891734E+03  0.20283540833E+03  0.57650549099E+01  0.28707190282E+03  0.17300000000E+03 0.  1.
         -6    1    1    2    0  502 -0.10632891734E+03 -0.20283540833E+03  0.96125955144E+03  0.10031933845E+04  0.17300000000E+03 0.  1.
<mgrwt>
<rscale>  2 0.28701401E+03</rscale>
<asrwt>0</asrwt>
<pdfrwt beam="1">  1       21 0.17363768E+00 0.28701401E+03</pdfrwt>
<pdfrwt beam="2">  1       21 0.24864668E-01 0.28701401E+03</pdfrwt>
<totfact> 0.28604628E+03</totfact>
</mgrwt>
</event>
<event>
 4    1  0.3976152E+000  0.2504355E+03  0.7546771E-02  0.1113030E+00
         21   -1    0    0  501  502  0.00000000000E+00  0.00000000000E+00  0.14179248474E+03  0.14179248474E+03  0.00000000000E+00 0. -1.
         21   -1    0    0  502  503 -0.00000000000E+00 -0.00000000000E+00 -0.60661540819E+03  0.60661540819E+03  0.00000000000E+00 0. -1.
          6    1    1    2  501    0 -0.18105526700E+03  0.28142452124E+01 -0.37668501275E+02  0.25325253340E+03  0.17300000000E+03 0. -1.
         -6    1    1    2    0  503  0.18105526700E+03 -0.28142452124E+01 -0.42715442218E+03  0.49515535953E+03  0.17300000000E+03 0. -1.
<mgrwt>
<rscale>  2 0.25043548E+03</rscale>
<asrwt>0</asrwt>
<pdfrwt beam="1">  1       21 0.21814229E-01 0.25043548E+03</pdfrwt>
<pdfrwt beam="2">  1       21 0.93325447E-01 0.25043548E+03</pdfrwt>
<totfact> 0.18328435E+04</totfact>
</mgrwt>
</event>
<event>
 4    1  0.3976152E+000  0.1981991E+03  0.7546771E-02  0.1151267E+00
         21   -1    0    0  501  502  0.00000000000E+00  0.00000000000E+00  0.41977911879E+02  0.41977911879E+02  0.00000000000E+00 0. -1.
         21   -1    0    0  502  503 -0.00000000000E+00 -0.00000000000E+00 -0.14557157505E+04  0.14557157505E+04  0.00000000000E+00 0. -1.
          6    1    1    2  501    0 -0.31457285787E+02 -0.91456670637E+02 -0.25933943216E+03  0.32640438800E+03  0.17300000000E+03 0. -1.
         -6    1    1    2    0  503  0.31457285787E+02  0.91456670637E+02 -0.11543984065E+04  0.11712892744E+04  0.17300000000E+03 0. -1.
<mgrwt>
<rscale>  2 0.19819910E+03</rscale>
<asrwt>0</asrwt>
<pdfrwt beam="1">  1       21 0.64581406E-02 0.19819910E+03</pdfrwt>
<pdfrwt beam="2">  1       21 0.22395626E+00 0.19819910E+03</pdfrwt>
<totfact> 0.16460074E+04</totfact>
</mgrwt>
</event>
<event>
 4    1  0.3976152E+000  0.2124503E+03  0.7546771E-02  0.1139640E+00
         21   -1    0    0  503  502  0.00000000000E+00  0.00000000000E+00  0.43164897538E+03  0.43164897538E+03  0.00000000000E+00 0. -1.
         21   -1    0    0  501  503 -0.00000000000E+00 -0.00000000000E+00 -0.44003338057E+03  0.44003338057E+03  0.00000000000E+00 0.  1.
          6    1    1    2  501    0  0.20083052975E+02  0.12166679925E+03 -0.38474209045E+03  0.43950155315E+03  0.17300000000E+03 0.  1.
         -6    1    1    2    0  502 -0.20083052975E+02 -0.12166679925E+03  0.37635768526E+03  0.43218080280E+03  0.17300000000E+03 0. -1.
<mgrwt>
<rscale>  2 0.21245032E+03</rscale>
<asrwt>0</asrwt>
<pdfrwt beam="1">  1       21 0.66407534E-01 0.21245032E+03</pdfrwt>
<pdfrwt beam="2">  1       21 0.67697444E-01 0.21245032E+03</pdfrwt>
<totfact> 0.40838032E+03</totfact>
</mgrwt>
</event>
<event>
 4    1  0.3976152E+000  0.3492914E+03  0.7546771E-02  0.1062906E+00
         21   -1    0    0  501  502  0.00000000000E+00  0.00000000000E+00  0.71014371591E+03  0.71014371591E+03  0.00000000000E+00 0. -1.
         21   -1    0    0  502  503 -0.00000000000E+00 -0.00000000000E+00 -0.32013160401E+03  0.32013160401E+03  0.00000000000E+00 0.  1.
          6    1    1    2  501    0  0.12511754817E+03 -0.27644365826E+03  0.54565468693E+03  0.64787617214E+03  0.17300000000E+03 0. -1.
         -6    1    1    2    0  503 -0.12511754817E+03  0.27644365826E+03 -0.15564257504E+03  0.38239914777E+03  0.17300000000E+03 0.  1.
<mgrwt>
<rscale>  2 0.34929142E+03</rscale>
<asrwt>0</asrwt>
<pdfrwt beam="1">  1       21 0.10925288E+00 0.34929142E+03</pdfrwt>
<pdfrwt beam="2">  1       21 0.49251016E-01 0.34929142E+03</pdfrwt>
<totfact> 0.23539833E+03</totfact>
</mgrwt>
</event>
<event>
 4    1  0.3976152E+000  0.2318821E+03  0.7546771E-02  0.1125322E+00
         21   -1    0    0  501  502  0.00000000000E+00  0.00000000000E+00  0.19411149848E+04  0.19411149848E+04  0.00000000000E+00 0. -1.
         21   -1    0    0  502  503 -0.00000000000E+00 -0.00000000000E+00 -0.30570462232E+02  0.30570462232E+02  0.00000000000E+00 0. -1.
          6    1    1    2  501    0  0.12393797871E+02 -0.15390479563E+03  0.12573485789E+04  0.12785518141E+04  0.17300000000E+03 0. -1.
         -6    1    1    2    0  503 -0.12393797871E+02  0.15390479563E+03  0.65319594363E+03  0.69313363295E+03  0.17300000000E+03 0. -1.
<mgrwt>
<rscale>  2 0.23188207E+03</rscale>
<asrwt>0</asrwt>
<pdfrwt beam="1">  1       21 0.29863298E+00 0.23188207E+03</pdfrwt>
<pdfrwt beam="2">  1       21 0.47031496E-02 0.23188207E+03</pdfrwt>
<totfact> 0.99726242E+03</totfact>
</mgrwt>
</event>
<event>
 4    1  0.3976152E+000  0.1749064E+03  0.7546771E-02  0.1172826E+00
         21   -1    0    0  503  502  0.00000000000E+00  0.00000000000E+00  0.46058176998E+03  0.46058176998E+03  0.00000000000E+00 0. -1.
         21   -1    0    0  501  503 -0.00000000000E+00 -0.00000000000E+00 -0.77794121622E+02  0.77794121622E+02  0.00000000000E+00 0. -1.
          6    1    1    2  501    0 -0.25634133592E+02  0.24812682992E+01  0.88468187569E+02  0.19600736136E+03  0.17300000000E+03 0. -1.
         -6    1    1    2    0  502  0.25634133592E+02 -0.24812682992E+01  0.29431946078E+03  0.34236853023E+03  0.17300000000E+03 0. -1.
<mgrwt>
<rscale>  2 0.17490645E+03</rscale>
<asrwt>0</asrwt>
<pdfrwt beam="1">  1       21 0.70858732E-01 0.17490645E+03</pdfrwt>
<pdfrwt beam="2">  1       21 0.11968327E-01 0.17490645E+03</pdfrwt>
<totfact> 0.10707277E+05</totfact>
</mgrwt>
</event>
<event>
 4    1  0.3976152E+000  0.2016257E+03  0.7546771E-02  0.1148375E+00
         21   -1    0    0  501  502  0.00000000000E+00  0.00000000000E+00  0.84510147351E+02  0.84510147351E+02  0.00000000000E+00 0.  1.
         21   -1    0    0  502  503 -0.00000000000E+00 -0.00000000000E+00 -0.90157821228E+03  0.90157821228E+03  0.00000000000E+00 0. -1.
          6    1    1    2  501    0  0.56800252574E+02  0.86589054884E+02 -0.71800927667E+02  0.21402875118E+03  0.17300000000E+03 0.  1.
         -6    1    1    2    0  503 -0.56800252574E+02 -0.86589054884E+02 -0.74526713726E+03  0.77205960845E+03  0.17300000000E+03 0. -1.
<mgrwt>
<rscale>  2 0.20162573E+03</rscale>
<asrwt>0</asrwt>
<pdfrwt beam="1">  1       21 0.13001560E-01 0.20162573E+03</pdfrwt>
<pdfrwt beam="2">  1       21 0.13870435E+00 0.20162573E+03</pdfrwt>
<totfact> 0.18515142E+04</totfact>
</mgrwt>
</event>
<event>
 4    1  0.3976152E+000  0.1960127E+03  0.7546771E-02  0.1153147E+00
         21   -1    0    0  501  502  0.00000000000E+00  0.00000000000E+00  0.10608501172E+03  0.10608501172E+03  0.00000000000E+00 0.  1.
         21   -1    0    0  502  503 -0.00000000000E+00 -0.00000000000E+00 -0.37486332351E+03  0.37486332351E+03  0.00000000000E+00 0.  1.
          6    1    1    2  501    0  0.46907463334E+02 -0.79320029891E+02 -0.90141278242E+02  0.21574621040E+03  0.17300000000E+03 0.  1.
         -6    1    1    2    0  503 -0.46907463334E+02  0.79320029891E+02 -0.17863703354E+03  0.26520212483E+03  0.17300000000E+03 0.  1.
<mgrwt>
<rscale>  2 0.19601270E+03</rscale>
<asrwt>0</asrwt>
<pdfrwt beam="1">  1       21 0.16320771E-01 0.19601270E+03</pdfrwt>
<pdfrwt beam="2">  1       21 0.57671281E-01 0.19601270E+03</pdfrwt>
<totfact> 0.94698366E+04</totfact>
</mgrwt>
</event>
<event>
 4    1  0.3976152E+000  0.1821995E+03  0.7546771E-02  0.1165691E+00
         21   -1    0    0  501  502  0.00000000000E+00  0.00000000000E+00  0.24001646806E+03  0.24001646806E+03  0.00000000000E+00 0.  1.
         21   -1    0    0  502  503 -0.00000000000E+00 -0.00000000000E+00 -0.14834235493E+03  0.14834235493E+03  0.00000000000E+00 0.  1.
          6    1    1    2  501    0 -0.18704024626E+02  0.54016899365E+02  0.96334931122E+02  0.20609969653E+03  0.17300000000E+03 0.  1.
         -6    1    1    2    0  503  0.18704024626E+02 -0.54016899365E+02 -0.46608179897E+01  0.18225912646E+03  0.17300000000E+03 0.  1.
<mgrwt>
<rscale>  2 0.18219952E+03</rscale>
<asrwt>0</asrwt>
<pdfrwt beam="1">  1       21 0.36925610E-01 0.18219952E+03</pdfrwt>
<pdfrwt beam="2">  1       21 0.22821901E-01 0.18219952E+03</pdfrwt>
<totfact> 0.12785595E+05</totfact>
</mgrwt>
</event>
<event>
 4    1  0.3976152E+000  0.2056692E+03  0.7546771E-02  0.1145042E+00
         21   -1    0    0  503  502  0.00000000000E+00  0.00000000000E+00  0.60355253962E+02  0.60355253962E+02  0.00000000000E+00 0. -1.
         21   -1    0    0  501  503 -0.00000000000E+00 -0.00000000000E+00 -0.85197615952E+03  0.85197615952E+03  0.00000000000E+00 0.  1.
          6    1    1    2  501    0 -0.25089033998E+02  0.10835757318E+03 -0.58793482413E+03  0.62287011544E+03  0.17300000000E+03 0.  1.
         -6    1    1    2    0  502  0.25089033998E+02 -0.10835757318E+03 -0.20368608143E+03  0.28946129803E+03  0.17300000000E+03 0. -1.
<mgrwt>
<rscale>  2 0.20566921E+03</rscale>
<asrwt>0</asrwt>
<pdfrwt beam="1">  1       21 0.92854242E-02 0.20566921E+03</pdfrwt>
<pdfrwt beam="2">  1       21 0.13107325E+00 0.20566921E+03</pdfrwt>
<totfact> 0.38859603E+04</totfact>
</mgrwt>
</event>
<event>
 4    1  0.3976152E+000  0.1761010E+03  0.7546771E-02  0.1171631E+00
         21   -1    0    0  501  502  0.00000000000E+00  0.00000000000E+00  0.91901460268E+02  0.91901460268E+02  0.00000000000E+00 0. -1.
         21   -1    0    0  502  503 -0.00000000000E+00 -0.00000000000E+00 -0.35000612797E+03  0.35000612797E+03  0.00000000000E+00 0. -1.
          6    1    1    2  501    0  0.24598778935E+02 -0.21850841257E+02 -0.87192043413E+02  0.19650448245E+03  0.17300000000E+03 0. -1.
         -6    1    1    2    0  503 -0.24598778935E+02  0.21850841257E+02 -0.17091262429E+03  0.24540310579E+03  0.17300000000E+03 0. -1.
<mgrwt>
<rscale>  2 0.17610099E+03</rscale>
<asrwt>0</asrwt>
<pdfrwt beam="1">  1       21 0.14138686E-01 0.17610099E+03</pdfrwt>
<pdfrwt beam="2">  1       21 0.53847098E-01 0.17610099E+03</pdfrwt>
<totfact> 0.14326455E+05</totfact>
</mgrwt>
</event>
<event>
 4    1  0.3976152E+000  0.1776524E+03  0.7546771E-02  0.1170095E+00
         21   -1    0    0  503  502  0.00000000000E+00  0.00000000000E+00  0.13160871149E+03  0.13160871149E+03  0.00000000000E+00 0.  1.
         21   -1    0    0  501  503 -0.00000000000E+00 -0.00000000000E+00 -0.23994505997E+03  0.23994505997E+03  0.00000000000E+00 0.  1.
          6    1    1    2  501    0 -0.21723986963E+02  0.34050419207E+02 -0.58664420899E+02  0.18708788560E+03  0.17300000000E+03 0. -1.
         -6    1    1    2    0  502  0.21723986963E+02 -0.34050419207E+02 -0.49671927573E+02  0.18446588586E+03  0.17300000000E+03 0. -1.
<mgrwt>
<rscale>  2 0.17765236E+03</rscale>
<asrwt>0</asrwt>
<pdfrwt beam="1">  1       21 0.20247494E-01 0.17765236E+03</pdfrwt>
<pdfrwt beam="2">  1       21 0.36914624E-01 0.17765236E+03</pdfrwt>
<totfact> 0.16041071E+05</totfact>
</mgrwt>
</event>
<event>
 4    1  0.3976152E+000  0.1852350E+03  0.7546771E-02  0.1162831E+00
         21   -1    0    0  501  502  0.00000000000E+00  0.00000000000E+00  0.28120510493E+03  0.28120510493E+03  0.00000000000E+00 0. -1.
         21   -1    0    0  502  503 -0.00000000000E+00 -0.00000000000E+00 -0.14336556928E+03  0.14336556928E+03  0.00000000000E+00 0. -1.
          6    1    1    2  501    0 -0.66052738591E+02 -0.44765689095E+01  0.15083689166E+03  0.23888024579E+03  0.17300000000E+03 0. -1.
         -6    1    1    2    0  503  0.66052738591E+02  0.44765689095E+01 -0.12997356012E+02  0.18569042842E+03  0.17300000000E+03 0. -1.
<mgrwt>
<rscale>  2 0.18523500E+03</rscale>
<asrwt>0</asrwt>
<pdfrwt beam="1">  1       21 0.43262324E-01 0.18523500E+03</pdfrwt>
<pdfrwt beam="2">  1       21 0.22056241E-01 0.18523500E+03</pdfrwt>
<totfact> 0.98953498E+04</totfact>
</mgrwt>
</event>
<event>
 4    1  0.3976152E+000  0.1816220E+03  0.7546771E-02  0.1166242E+00
         21   -1    0    0  503  502  0.00000000000E+00  0.00000000000E+00  0.38794993995E+02  0.38794993995E+02  0.00000000000E+00 0. -1.
         21   -1    0    0  501  503 -0.00000000000E+00 -0.00000000000E+00 -0.94436363324E+03  0.94436363324E+03  0.00000000000E+00 0. -1.
          6    1    1    2  501    0 -0.13786244581E+00 -0.55294880029E+02 -0.60794613879E+03  0.63449590261E+03  0.17300000000E+03 0. -1.
         -6    1    1    2    0  502  0.13786244581E+00  0.55294880029E+02 -0.29762250046E+03  0.34866272462E+03  0.17300000000E+03 0. -1.
<mgrwt>
<rscale>  2 0.18162198E+03</rscale>
<asrwt>0</asrwt>
<pdfrwt beam="1">  1       21 0.59684604E-02 0.18162198E+03</pdfrwt>
<pdfrwt beam="2">  1       21 0.14528672E+00 0.18162198E+03</pdfrwt>
<totfact> 0.65033656E+04</totfact>
</mgrwt>
</event>
<event>
 4    1  0.3976152E+000  0.2010793E+03  0.7546771E-02  0.1148832E+00
         21   -1    0    0  503  502  0.00000000000E+00  0.00000000000E+00  0.18675653810E+03  0.18675653810E+03  0.00000000000E+00 0.  1.
         21   -1    0    0  501  503 -0.00000000000E+00 -0.00000000000E+00 -0.27184560072E+03  0.27184560072E+03  0.00000000000E+00 0.  1.
          6    1    1    2  501    0 -0.68777989185E+02 -0.75983415223E+02 -0.14600736362E+03  0.24849756823E+03  0.17300000000E+03 0.  1.
         -6    1    1    2    0  502  0.68777989185E+02  0.75983415223E+02  0.60918301005E+02  0.21010457059E+03  0.17300000000E+03 0.  1.
<mgrwt>
<rscale>  2 0.20107932E+03</rscale>
<asrwt>0</asrwt>
<pdfrwt beam="1">  1       21 0.28731775E-01 0.20107932E+03</pdfrwt>
<pdfrwt beam="2">  1       21 0.41822400E-01 0.20107932E+03</pdfrwt>
<totfact> 0.63537521E+04</totfact>
</mgrwt>
</event>
<event>
 4    1  0.3976152E+000  0.1897105E+03  0.7546771E-02  0.1158723E+00
         21   -1    0    0  503  502  0.00000000000E+00  0.00000000000E+00  0.24878251303E+03  0.24878251303E+03  0.00000000000E+00 0.  1.
         21   -1    0    0  501  503 -0.00000000000E+00 -0.00000000000E+00 -0.14805446558E+03  0.14805446558E+03  0.00000000000E+00 0. -1.
          6    1    1    2  501    0 -0.38371515672E+02  0.67739880915E+02  0.20341180333E+02  0.19079787289E+03  0.17300000000E+03 0. -1.
         -6    1    1    2    0  502  0.38371515672E+02 -0.67739880915E+02  0.80386867123E+02  0.20603910572E+03  0.17300000000E+03 0. -1.
<mgrwt>
<rscale>  2 0.18971048E+03</rscale>
<asrwt>0</asrwt>
<pdfrwt beam="1">  1       21 0.38274233E-01 0.18971048E+03</pdfrwt>
<pdfrwt beam="2">  1       21 0.22777610E-01 0.18971048E+03</pdfrwt>
<totfact> 0.11913102E+05</totfact>
</mgrwt>
</event>
<event>
 4    1  0.3976152E+000  0.2100360E+03  0.7546771E-02  0.1141537E+00
         21   -1    0    0  501  502  0.00000000000E+00  0.00000000000E+00  0.72483416941E+03  0.72483416941E+03  0.00000000000E+00 0.  1.
         21   -1    0    0  502  503 -0.00000000000E+00 -0.00000000000E+00 -0.85311379398E+02  0.85311379398E+02  0.00000000000E+00 0. -1.
          6    1    1    2  501    0  0.11715094238E+03  0.21489216670E+02  0.53661175786E+03  0.57625281640E+03  0.17300000000E+03 0.  1.
         -6    1    1    2    0  503 -0.11715094238E+03 -0.21489216670E+02  0.10291103215E+03  0.23389273240E+03  0.17300000000E+03 0. -1.
<mgrwt>
<rscale>  2 0.21003602E+03</rscale>
<asrwt>0</asrwt>
<pdfrwt beam="1">  1       21 0.11151294E+00 0.21003602E+03</pdfrwt>
<pdfrwt beam="2">  1       21 0.13124828E-01 0.21003602E+03</pdfrwt>
<totfact> 0.31256834E+04</totfact>
</mgrwt>
</event>
<event>
 4    1  0.3976152E+000  0.2620243E+03  0.7546771E-02  0.1105933E+00
         21   -1    0    0  503  502  0.00000000000E+00  0.00000000000E+00  0.75689386164E+03  0.75689386164E+03  0.00000000000E+00 0. -1.
         21   -1    0    0  501  503 -0.00000000000E+00 -0.00000000000E+00 -0.16868481020E+03  0.16868481020E+03  0.00000000000E+00 0.  1.
          6    1    1    2  501    0 -0.72432677775E+02 -0.18297879100E+03 -0.20544656178E+02  0.26282848716E+03  0.17300000000E+03 0.  1.
         -6    1    1    2    0  502  0.72432677775E+02  0.18297879100E+03  0.60875370762E+03  0.66275018469E+03  0.17300000000E+03 0. -1.
<mgrwt>
<rscale>  2 0.26202429E+03</rscale>
<asrwt>0</asrwt>
<pdfrwt beam="1">  1       21 0.11644521E+00 0.26202429E+03</pdfrwt>
<pdfrwt beam="2">  1       21 0.25951510E-01 0.26202429E+03</pdfrwt>
<totfact> 0.76601006E+03</totfact>
</mgrwt>
</event>
<event>
 4    1  0.3976152E+000  0.1782997E+03  0.7546771E-02  0.1169459E+00
         21   -1    0    0  503  502  0.00000000000E+00  0.00000000000E+00  0.20267780131E+03  0.20267780131E+03  0.00000000000E+00 0.  1.
         21   -1    0    0  501  503 -0.00000000000E+00 -0.00000000000E+00 -0.42810696595E+03  0.42810696595E+03  0.00000000000E+00 0.  1.
          6    1    1    2  501    0  0.43145916975E+02 -0.45527916632E+00 -0.36376588848E+03  0.40511282262E+03  0.17300000000E+03 0.  1.
         -6    1    1    2    0  502 -0.43145916975E+02  0.45527916632E+00  0.13833672384E+03  0.22567194463E+03  0.17300000000E+03 0.  1.
<mgrwt>
<rscale>  2 0.17829968E+03</rscale>
<asrwt>0</asrwt>
<pdfrwt beam="1">  1       21 0.31181201E-01 0.17829968E+03</pdfrwt>
<pdfrwt beam="2">  1       21 0.65862609E-01 0.17829968E+03</pdfrwt>
<totfact> 0.21107041E+04</totfact>
</mgrwt>
</event>
<event>
 4    1  0.3976152E+000  0.1999369E+03  0.7546771E-02  0.1149792E+00
         21   -1    0    0  503  502  0.00000000000E+00  0.00000000000E+00  0.46697521028E+03  0.46697521028E+03  0.00000000000E+00 0.  1.
         21   -1    0    0  501  503 -0.00000000000E+00 -0.00000000000E+00 -0.15986902375E+03  0.15986902375E+03  0.00000000000E+00 0.  1.
          6    1    1    2  501    0  0.81438556086E+01  0.99897093348E+02 -0.60066388306E+02  0.20876475432E+03  0.17300000000E+03 0.  1.
         -6    1    1    2    0  502 -0.81438556086E+01 -0.99897093348E+02  0.36717257483E+03  0.41807947970E+03  0.17300000000E+03 0.  1.
<mgrwt>
<rscale>  2 0.19993687E+03</rscale>
<asrwt>0</asrwt>
<pdfrwt beam="1">  1       21 0.71842340E-01 0.19993687E+03</pdfrwt>
<pdfrwt beam="2">  1       21 0.24595235E-01 0.19993687E+03</pdfrwt>
<totfact> 0.27224542E+04</totfact>
</mgrwt>
</event>
<event>
 4    1  0.3976152E+000  0.1974713E+03  0.7546771E-02  0.1151890E+00
         21   -1    0    0  503  502  0.00000000000E+00  0.00000000000E+00  0.30627351987E+03  0.30627351987E+03  0.00000000000E+00 0.  1.
         21   -1    0    0  501  503 -0.00000000000E+00 -0.00000000000E+00 -0.18871131093E+03  0.18871131093E+03  0.00000000000E+00 0.  1.
          6    1    1    2  501    0  0.52586251057E+02 -0.79376235019E+02 -0.82379848343E+02  0.21396574469E+03  0.17300000000E+03 0.  1.
         -6    1    1    2    0  502 -0.52586251057E+02  0.79376235019E+02  0.19994205729E+03  0.28101908611E+03  0.17300000000E+03 0.  1.
<mgrwt>
<rscale>  2 0.19747126E+03</rscale>
<asrwt>0</asrwt>
<pdfrwt beam="1">  1       21 0.47119003E-01 0.19747126E+03</pdfrwt>
<pdfrwt beam="2">  1       21 0.29032509E-01 0.19747126E+03</pdfrwt>
<totfact> 0.48838006E+04</totfact>
</mgrwt>
</event>
<event>
 4    1  0.3976152E+000  0.1983370E+03  0.7546771E-02  0.1151150E+00
         21   -1    0    0  501  502  0.00000000000E+00  0.00000000000E+00  0.98878835273E+02  0.98878835273E+02  0.00000000000E+00 0.  1.
         21   -1    0    0  502  503 -0.00000000000E+00 -0.00000000000E+00 -0.40897310595E+03  0.40897310595E+03  0.00000000000E+00 0.  1.
          6    1    1    2  501    0  0.22121377256E+02 -0.94441515979E+02 -0.11314396183E+03  0.22833990315E+03  0.17300000000E+03 0.  1.
         -6    1    1    2    0  503 -0.22121377256E+02  0.94441515979E+02 -0.19695030885E+03  0.27951203807E+03  0.17300000000E+03 0.  1.
<mgrwt>
<rscale>  2 0.19833697E+03</rscale>
<asrwt>0</asrwt>
<pdfrwt beam="1">  1       21 0.15212128E-01 0.19833697E+03</pdfrwt>
<pdfrwt beam="2">  1       21 0.62918940E-01 0.19833697E+03</pdfrwt>
<totfact> 0.89222585E+04</totfact>
</mgrwt>
</event>
<event>
 4    1  0.3976152E+000  0.2162215E+03  0.7546771E-02  0.1136732E+00
         21   -1    0    0  501  502  0.00000000000E+00  0.00000000000E+00  0.12111750801E+03  0.12111750801E+03  0.00000000000E+00 0.  1.
         21   -1    0    0  502  503 -0.00000000000E+00 -0.00000000000E+00 -0.40156255931E+03  0.40156255931E+03  0.00000000000E+00 0.  1.
          6    1    1    2  501    0 -0.12932889522E+03  0.98364580039E+01 -0.88779292184E+02  0.23373806230E+03  0.17300000000E+03 0.  1.
         -6    1    1    2    0  503  0.12932889522E+03 -0.98364580039E+01 -0.19166575912E+03  0.28894200502E+03  0.17300000000E+03 0.  1.
<mgrwt>
<rscale>  2 0.21622146E+03</rscale>
<asrwt>0</asrwt>
<pdfrwt beam="1">  1       21 0.18633463E-01 0.21622146E+03</pdfrwt>
<pdfrwt beam="2">  1       21 0.61778856E-01 0.21622146E+03</pdfrwt>
<totfact> 0.63395887E+04</totfact>
</mgrwt>
</event>
<event>
 4    1  0.3976152E+000  0.1904919E+03  0.7546771E-02  0.1158018E+00
         21   -1    0    0  501  502  0.00000000000E+00  0.00000000000E+00  0.10256573425E+03  0.10256573425E+03  0.00000000000E+00 0.  1.
         21   -1    0    0  502  503 -0.00000000000E+00 -0.00000000000E+00 -0.84629098752E+03  0.84629098752E+03  0.00000000000E+00 0.  1.
          6    1    1    2  501    0  0.49919854614E+02 -0.62178645118E+02 -0.99427575557E+01  0.19075123649E+03  0.17300000000E+03 0.  1.
         -6    1    1    2    0  503 -0.49919854614E+02  0.62178645118E+02 -0.73378249572E+03  0.75810548528E+03  0.17300000000E+03 0.  1.
<mgrwt>
<rscale>  2 0.19049193E+03</rscale>
<asrwt>0</asrwt>
<pdfrwt beam="1">  1       21 0.15779344E-01 0.19049193E+03</pdfrwt>
<pdfrwt beam="2">  1       21 0.13019862E+00 0.19049193E+03</pdfrwt>
<totfact> 0.15423083E+04</totfact>
</mgrwt>
</event>
<event>
 4    1  0.3976152E+000  0.2152970E+03  0.7546771E-02  0.1137439E+00
         21   -1    0    0  501  502  0.00000000000E+00  0.00000000000E+00  0.19224211907E+03  0.19224211907E+03  0.00000000000E+00 0.  1.
         21   -1    0    0  502  503 -0.00000000000E+00 -0.00000000000E+00 -0.40424999359E+03  0.40424999359E+03  0.00000000000E+00 0.  1.
          6    1    1    2  501    0  0.65786432006E+01 -0.12798641925E+03  0.83457525265E+02  0.23090682229E+03  0.17300000000E+03 0.  1.
         -6    1    1    2    0  503 -0.65786432006E+01  0.12798641925E+03 -0.29546539979E+03  0.36558529037E+03  0.17300000000E+03 0.  1.
<mgrwt>
<rscale>  2 0.21529701E+03</rscale>
<asrwt>0</asrwt>
<pdfrwt beam="1">  1       21 0.29575711E-01 0.21529701E+03</pdfrwt>
<pdfrwt beam="2">  1       21 0.62192306E-01 0.21529701E+03</pdfrwt>
<totfact> 0.25946903E+04</totfact>
</mgrwt>
</event>
<event>
 4    1  0.3976152E+000  0.2012542E+03  0.7546771E-02  0.1148685E+00
         21   -1    0    0  503  502  0.00000000000E+00  0.00000000000E+00  0.62592547514E+03  0.62592547514E+03  0.00000000000E+00 0.  1.
         21   -1    0    0  501  503 -0.00000000000E+00 -0.00000000000E+00 -0.20163737268E+03  0.20163737268E+03  0.00000000000E+00 0.  1.
          6    1    1    2  501    0  0.78556848253E+02  0.66355628199E+02 -0.12883806335E+03  0.23896128215E+03  0.17300000000E+03 0.  1.
         -6    1    1    2    0  502 -0.78556848253E+02 -0.66355628199E+02  0.55312616581E+03  0.58860156566E+03  0.17300000000E+03 0.  1.
<mgrwt>
<rscale>  2 0.20125419E+03</rscale>
<asrwt>0</asrwt>
<pdfrwt beam="1">  1       21 0.96296226E-01 0.20125419E+03</pdfrwt>
<pdfrwt beam="2">  1       21 0.31021135E-01 0.20125419E+03</pdfrwt>
<totfact> 0.89024238E+03</totfact>
</mgrwt>
</event>
<event>
 4    1  0.3976152E+000  0.2782391E+03  0.7546771E-02  0.1096655E+00
         21   -1    0    0  501  502  0.00000000000E+00  0.00000000000E+00  0.13401602906E+04  0.13401602906E+04  0.00000000000E+00 0. -1.
         21   -1    0    0  502  503 -0.00000000000E+00 -0.00000000000E+00 -0.15942832273E+03  0.15942832273E+03  0.00000000000E+00 0.  1.
          6    1    1    2  501    0  0.20858559755E+03  0.63087739083E+02  0.11891046673E+04  0.12212235357E+04  0.17300000000E+03 0. -1.
         -6    1    1    2    0  503 -0.20858559755E+03 -0.63087739083E+02 -0.83726994840E+01  0.27836507759E+03  0.17300000000E+03 0.  1.
<mgrwt>
<rscale>  2 0.27823913E+03</rscale>
<asrwt>0</asrwt>
<pdfrwt beam="1">  1       21 0.20617850E+00 0.27823913E+03</pdfrwt>
<pdfrwt beam="2">  1       21 0.24527435E-01 0.27823913E+03</pdfrwt>
<totfact> 0.17846349E+03</totfact>
</mgrwt>
</event>
<event>
 4    1  0.3976152E+000  0.2096659E+03  0.7546771E-02  0.1141831E+00
         21   -1    0    0  501  502  0.00000000000E+00  0.00000000000E+00  0.14222357108E+03  0.14222357108E+03  0.00000000000E+00 0.  1.
         21   -1    0    0  502  503 -0.00000000000E+00 -0.00000000000E+00 -0.66283872982E+03  0.66283872982E+03  0.00000000000E+00 0. -1.
          6    1    1    2  501    0 -0.11694427398E+03  0.18837371829E+02  0.33757408490E+02  0.21236612823E+03  0.17300000000E+03 0.  1.
         -6    1    1    2    0  503  0.11694427398E+03 -0.18837371829E+02 -0.55437256723E+03  0.59269617266E+03  0.17300000000E+03 0. -1.
<mgrwt>
<rscale>  2 0.20966595E+03</rscale>
<asrwt>0</asrwt>
<pdfrwt beam="1">  1       21 0.21880549E-01 0.20966595E+03</pdfrwt>
<pdfrwt beam="2">  1       21 0.10197519E+00 0.20966595E+03</pdfrwt>
<totfact> 0.15113681E+04</totfact>
</mgrwt>
</event>
<event>
 4    1  0.3976152E+000  0.1751960E+03  0.7546771E-02  0.1172535E+00
         21   -1    0    0  503  502  0.00000000000E+00  0.00000000000E+00  0.28884943324E+02  0.28884943324E+02  0.00000000000E+00 0. -1.
         21   -1    0    0  501  503 -0.00000000000E+00 -0.00000000000E+00 -0.12425581788E+04  0.12425581788E+04  0.00000000000E+00 0. -1.
          6    1    1    2  501    0  0.26026484998E+02  0.93418555246E+01 -0.84875739654E+03  0.86665031377E+03  0.17300000000E+03 0. -1.
         -6    1    1    2    0  502 -0.26026484998E+02 -0.93418555246E+01 -0.36491583896E+03  0.40479280837E+03  0.17300000000E+03 0. -1.
<mgrwt>
<rscale>  2 0.17519603E+03</rscale>
<asrwt>0</asrwt>
<pdfrwt beam="1">  1       21 0.44438377E-02 0.17519603E+03</pdfrwt>
<pdfrwt beam="2">  1       21 0.19116279E+00 0.17519603E+03</pdfrwt>
<totfact> 0.50884508E+04</totfact>
</mgrwt>
</event>
<event>
 4    1  0.3976152E+000  0.1766984E+03  0.7546771E-02  0.1171037E+00
         21   -1    0    0  501  502  0.00000000000E+00  0.00000000000E+00  0.19096304762E+03  0.19096304762E+03  0.00000000000E+00 0.  1.
         21   -1    0    0  502  503 -0.00000000000E+00 -0.00000000000E+00 -0.23195431042E+03  0.23195431042E+03  0.00000000000E+00 0.  1.
          6    1    1    2  501    0 -0.34335481961E+02  0.10695685912E+02  0.94379742524E+02  0.20032438398E+03  0.17300000000E+03 0.  1.
         -6    1    1    2    0  503  0.34335481961E+02 -0.10695685912E+02 -0.13537100533E+03  0.22259297406E+03  0.17300000000E+03 0.  1.
<mgrwt>
<rscale>  2 0.17669840E+03</rscale>
<asrwt>0</asrwt>
<pdfrwt beam="1">  1       21 0.29378930E-01 0.17669840E+03</pdfrwt>
<pdfrwt beam="2">  1       21 0.35685279E-01 0.17669840E+03</pdfrwt>
<totfact> 0.84580622E+04</totfact>
</mgrwt>
</event>
<event>
 4    1  0.3976152E+000  0.1970663E+03  0.7546771E-02  0.1152238E+00
         21   -1    0    0  501  502  0.00000000000E+00  0.00000000000E+00  0.72227501643E+03  0.72227501643E+03  0.00000000000E+00 0.  1.
         21   -1    0    0  502  503 -0.00000000000E+00 -0.00000000000E+00 -0.63162663995E+02  0.63162663995E+02  0.00000000000E+00 0. -1.
          6    1    1    2  501    0  0.79433744338E+02 -0.50954980534E+02  0.48101586111E+03  0.51981861108E+03  0.17300000000E+03 0.  1.
         -6    1    1    2    0  503 -0.79433744338E+02  0.50954980534E+02  0.17809649133E+03  0.26561906935E+03  0.17300000000E+03 0. -1.
<mgrwt>
<rscale>  2 0.19706631E+03</rscale>
<asrwt>0</asrwt>
<pdfrwt beam="1">  1       21 0.11111923E+00 0.19706631E+03</pdfrwt>
<pdfrwt beam="2">  1       21 0.97173334E-02 0.19706631E+03</pdfrwt>
<totfact> 0.54274353E+04</totfact>
</mgrwt>
</event>
<event>
 4    1  0.3976152E+000  0.2031901E+03  0.7546771E-02  0.1147075E+00
         21   -1    0    0  501  502  0.00000000000E+00  0.00000000000E+00  0.20744522733E+03  0.20744522733E+03  0.00000000000E+00 0. -1.
         21   -1    0    0  502  503 -0.00000000000E+00 -0.00000000000E+00 -0.23797989418E+03  0.23797989418E+03  0.00000000000E+00 0. -1.
          6    1    1    2  501    0 -0.10606334256E+03  0.10381275601E+02  0.74842306409E+02  0.21653538821E+03  0.17300000000E+03 0. -1.
         -6    1    1    2    0  503  0.10606334256E+03 -0.10381275601E+02 -0.10537697327E+03  0.22888973330E+03  0.17300000000E+03 0. -1.
<mgrwt>
<rscale>  2 0.20319007E+03</rscale>
<asrwt>0</asrwt>
<pdfrwt beam="1">  1       21 0.31914650E-01 0.20319007E+03</pdfrwt>
<pdfrwt beam="2">  1       21 0.36612291E-01 0.20319007E+03</pdfrwt>
<totfact> 0.67607987E+04</totfact>
</mgrwt>
</event>
<event>
 4    1  0.3976152E+000  0.2197644E+03  0.7546771E-02  0.1134059E+00
         21   -1    0    0  503  502  0.00000000000E+00  0.00000000000E+00  0.11713661745E+03  0.11713661745E+03  0.00000000000E+00 0. -1.
         21   -1    0    0  501  503 -0.00000000000E+00 -0.00000000000E+00 -0.57852667129E+03  0.57852667129E+03  0.00000000000E+00 0.  1.
          6    1    1    2  501    0  0.12011383844E+03  0.62769773007E+02 -0.41713848212E+03  0.47148795516E+03  0.17300000000E+03 0.  1.
         -6    1    1    2    0  502 -0.12011383844E+03 -0.62769773007E+02 -0.44251571713E+02  0.22417533358E+03  0.17300000000E+03 0. -1.
<mgrwt>
<rscale>  2 0.21976437E+03</rscale>
<asrwt>0</asrwt>
<pdfrwt beam="1">  1       21 0.18021018E-01 0.21976437E+03</pdfrwt>
<pdfrwt beam="2">  1       21 0.89004101E-01 0.21976437E+03</pdfrwt>
<totfact> 0.29752410E+04</totfact>
</mgrwt>
</event>
<event>
 4    1  0.3976152E+000  0.3056330E+03  0.7546771E-02  0.1082458E+00
         21   -1    0    0  503  502  0.00000000000E+00  0.00000000000E+00  0.74482567008E+03  0.74482567008E+03  0.00000000000E+00 0.  1.
         21   -1    0    0  501  503 -0.00000000000E+00 -0.00000000000E+00 -0.30265029386E+03  0.30265029386E+03  0.00000000000E+00 0. -1.
          6    1    1    2  501    0  0.30260491336E+02  0.25013368402E+03 -0.17970507023E+03  0.35454967139E+03  0.17300000000E+03 0. -1.
         -6    1    1    2    0  502 -0.30260491336E+02 -0.25013368402E+03  0.62188044646E+03  0.69292629255E+03  0.17300000000E+03 0.  1.
<mgrwt>
<rscale>  2 0.30563304E+03</rscale>
<asrwt>0</asrwt>
<pdfrwt beam="1">  1       21 0.11458856E+00 0.30563304E+03</pdfrwt>
<pdfrwt beam="2">  1       21 0.46561584E-01 0.30563304E+03</pdfrwt>
<totfact> 0.24094691E+03</totfact>
</mgrwt>
</event>
<event>
 4    1  0.3976152E+000  0.2403863E+03  0.7546771E-02  0.1119536E+00
         21   -1    0    0  503  502  0.00000000000E+00  0.00000000000E+00  0.10128741192E+04  0.10128741192E+04  0.00000000000E+00 0.  1.
         21   -1    0    0  501  503 -0.00000000000E+00 -0.00000000000E+00 -0.11714078386E+03  0.11714078386E+03  0.00000000000E+00 0. -1.
          6    1    1    2  501    0 -0.10841620243E+03 -0.12689566676E+03  0.43197542733E+02  0.24423679266E+03  0.17300000000E+03 0. -1.
         -6    1    1    2    0  502  0.10841620243E+03  0.12689566676E+03  0.85253579265E+03  0.88577811045E+03  0.17300000000E+03 0. -1.
<mgrwt>
<rscale>  2 0.24038632E+03</rscale>
<asrwt>0</asrwt>
<pdfrwt beam="1">  1       21 0.15582678E+00 0.24038632E+03</pdfrwt>
<pdfrwt beam="2">  1       21 0.18021660E-01 0.24038632E+03</pdfrwt>
<totfact> 0.73067048E+03</totfact>
</mgrwt>
</event>
<event>
 4    1  0.3976152E+000  0.2712963E+03  0.7546771E-02  0.1100540E+00
         21   -1    0    0  503  502  0.00000000000E+00  0.00000000000E+00  0.13335627779E+04  0.13335627779E+04  0.00000000000E+00 0. -1.
         21   -1    0    0  501  503 -0.00000000000E+00 -0.00000000000E+00 -0.58394868634E+02  0.58394868634E+02  0.00000000000E+00 0. -1.
          6    1    1    2  501    0 -0.50626951999E+01  0.20891880540E+03  0.47458176761E+03  0.54665304561E+03  0.17300000000E+03 0. -1.
         -6    1    1    2    0  502  0.50626951999E+01 -0.20891880540E+03  0.80058614170E+03  0.84530460097E+03  0.17300000000E+03 0. -1.
<mgrwt>
<rscale>  2 0.27129633E+03</rscale>
<asrwt>0</asrwt>
<pdfrwt beam="1">  1       21 0.20516348E+00 0.27129633E+03</pdfrwt>
<pdfrwt beam="2">  1       21 0.89838269E-02 0.27129633E+03</pdfrwt>
<totfact> 0.11526918E+04</totfact>
</mgrwt>
</event>
<event>
 4    1  0.3976152E+000  0.1860759E+03  0.7546771E-02  0.1162049E+00
         21   -1    0    0  501  502  0.00000000000E+00  0.00000000000E+00  0.80993835346E+02  0.80993835346E+02  0.00000000000E+00 0.  1.
         21   -1    0    0  502  503 -0.00000000000E+00 -0.00000000000E+00 -0.56667063816E+03  0.56667063816E+03  0.00000000000E+00 0. -1.
          6    1    1    2  501    0 -0.14275794846E+02 -0.67018324724E+02 -0.82351240884E+02  0.20348459657E+03  0.17300000000E+03 0. -1.
         -6    1    1    2    0  503  0.14275794846E+02  0.67018324724E+02 -0.40332556193E+03  0.44417987694E+03  0.17300000000E+03 0. -1.
<mgrwt>
<rscale>  2 0.18607594E+03</rscale>
<asrwt>0</asrwt>
<pdfrwt beam="1">  1       21 0.12460590E-01 0.18607594E+03</pdfrwt>
<pdfrwt beam="2">  1       21 0.87180098E-01 0.18607594E+03</pdfrwt>
<totfact> 0.62206007E+04</totfact>
</mgrwt>
</event>
<event>
 4    1  0.3976152E+000  0.2233408E+03  0.7546771E-02  0.1131417E+00
         21   -1    0    0  503  502  0.00000000000E+00  0.00000000000E+00  0.10777429520E+04  0.10777429520E+04  0.00000000000E+00 0.  1.
         21   -1    0    0  501  503 -0.00000000000E+00 -0.00000000000E+00 -0.71521493443E+02  0.71521493443E+02  0.00000000000E+00 0.  1.
          6    1    1    2  501    0  0.13072642069E+03  0.53504209639E+02  0.16175748343E+03  0.27576544555E+03  0.17300000000E+03 0.  1.
         -6    1    1    2    0  502 -0.13072642069E+03 -0.53504209639E+02  0.84446397508E+03  0.87349899984E+03  0.17300000000E+03 0.  1.
<mgrwt>
<rscale>  2 0.22334077E+03</rscale>
<asrwt>0</asrwt>
<pdfrwt beam="1">  1       21 0.16580660E+00 0.22334077E+03</pdfrwt>
<pdfrwt beam="2">  1       21 0.11003307E-01 0.22334077E+03</pdfrwt>
<totfact> 0.15318178E+04</totfact>
</mgrwt>
</event>
<event>
 4    1  0.3976152E+000  0.1835002E+03  0.7546771E-02  0.1164458E+00
         21   -1    0    0  501  502  0.00000000000E+00  0.00000000000E+00  0.80192310270E+02  0.80192310270E+02  0.00000000000E+00 0.  1.
         21   -1    0    0  502  503 -0.00000000000E+00 -0.00000000000E+00 -0.50765419238E+03  0.50765419238E+03  0.00000000000E+00 0. -1.
          6    1    1    2  501    0  0.28127891269E+02 -0.54333790014E+02 -0.91523793736E+02  0.20505839126E+03  0.17300000000E+03 0.  1.
         -6    1    1    2    0  503 -0.28127891269E+02  0.54333790014E+02 -0.33593808838E+03  0.38278811140E+03  0.17300000000E+03 0. -1.
<mgrwt>
<rscale>  2 0.18350024E+03</rscale>
<asrwt>0</asrwt>
<pdfrwt beam="1">  1       21 0.12337279E-01 0.18350024E+03</pdfrwt>
<pdfrwt beam="2">  1       21 0.78100645E-01 0.18350024E+03</pdfrwt>
<totfact> 0.81386381E+04</totfact>
</mgrwt>
</event>
<event>
 4    1  0.3976152E+000  0.2069059E+03  0.7546771E-02  0.1144040E+00
         21   -1    0    0  503  502  0.00000000000E+00  0.00000000000E+00  0.48795363184E+02  0.48795363184E+02  0.00000000000E+00 0.  1.
         21   -1    0    0  501  503 -0.00000000000E+00 -0.00000000000E+00 -0.14228611956E+04  0.14228611956E+04  0.00000000000E+00 0.  1.
          6    1    1    2  501    0  0.10451537857E+03 -0.44244847530E+02 -0.11426515257E+04  0.11612332152E+04  0.17300000000E+03 0.  1.
         -6    1    1    2    0  502 -0.10451537857E+03  0.44244847530E+02 -0.23141430670E+03  0.31042334358E+03  0.17300000000E+03 0.  1.
<mgrwt>
<rscale>  2 0.20690595E+03</rscale>
<asrwt>0</asrwt>
<pdfrwt beam="1">  1       21 0.75069798E-02 0.20690595E+03</pdfrwt>
<pdfrwt beam="2">  1       21 0.21890170E+00 0.20690595E+03</pdfrwt>
<totfact> 0.13532084E+04</totfact>
</mgrwt>
</event>
<event>
 4    1  0.3976152E+000  0.2125428E+03  0.7546771E-02  0.1139568E+00
         21   -1    0    0  501  502  0.00000000000E+00  0.00000000000E+00  0.89932834433E+03  0.89932834433E+03  0.00000000000E+00 0.  1.
         21   -1    0    0  502  503 -0.00000000000E+00 -0.00000000000E+00 -0.51093709455E+02  0.51093709455E+02  0.00000000000E+00 0.  1.
          6    1    1    2  501    0 -0.20660690843E+02 -0.12173160867E+03  0.48585564129E+03  0.53031137350E+03  0.17300000000E+03 0.  1.
         -6    1    1    2    0  503  0.20660690843E+02  0.12173160867E+03  0.36237899359E+03  0.42011068028E+03  0.17300000000E+03 0.  1.
<mgrwt>
<rscale>  2 0.21254282E+03</rscale>
<asrwt>0</asrwt>
<pdfrwt beam="1">  1       21 0.13835819E+00 0.21254282E+03</pdfrwt>
<pdfrwt beam="2">  1       21 0.78605714E-02 0.21254282E+03</pdfrwt>
<totfact> 0.45140970E+04</totfact>
</mgrwt>
</event>
<event>
 4    1  0.3976152E+000  0.1859562E+03  0.7546771E-02  0.1162160E+00
         21   -1    0    0  503  502  0.00000000000E+00  0.00000000000E+00  0.34980949805E+02  0.34980949805E+02  0.00000000000E+00 0.  1.
         21   -1    0    0  501  503 -0.00000000000E+00 -0.00000000000E+00 -0.98881093546E+03  0.98881093546E+03  0.00000000000E+00 0. -1.
          6    1    1    2  501    0  0.52382656981E+02  0.43666738922E+02 -0.48553960911E+03  0.51993118665E+03  0.17300000000E+03 0.  1.
         -6    1    1    2    0  502 -0.52382656981E+02 -0.43666738922E+02 -0.46829037655E+03  0.50386069861E+03  0.17300000000E+03 0. -1.
<mgrwt>
<rscale>  2 0.18595625E+03</rscale>
<asrwt>0</asrwt>
<pdfrwt beam="1">  1       21 0.53816833E-02 0.18595625E+03</pdfrwt>
<pdfrwt beam="2">  1       21 0.15212480E+00 0.18595625E+03</pdfrwt>
<totfact> 0.68613127E+04</totfact>
</mgrwt>
</event>
<event>
 4    1  0.3976152E+000  0.1865079E+03  0.7546771E-02  0.1161649E+00
         21   -1    0    0  503  502  0.00000000000E+00  0.00000000000E+00  0.38914851653E+03  0.38914851653E+03  0.00000000000E+00 0. -1.
         21   -1    0    0  501  503 -0.00000000000E+00 -0.00000000000E+00 -0.42075004263E+03  0.42075004263E+03  0.00000000000E+00 0. -1.
          6    1    1    2  501    0 -0.11635175751E+02 -0.68708214836E+02 -0.37516921188E+03  0.41897151890E+03  0.17300000000E+03 0. -1.
         -6    1    1    2    0  502  0.11635175751E+02  0.68708214836E+02  0.34356768578E+03  0.39092704027E+03  0.17300000000E+03 0. -1.
<mgrwt>
<rscale>  2 0.18650790E+03</rscale>
<asrwt>0</asrwt>
<pdfrwt beam="1">  1       21 0.59869002E-01 0.18650790E+03</pdfrwt>
<pdfrwt beam="2">  1       21 0.64730776E-01 0.18650790E+03</pdfrwt>
<totfact> 0.57525012E+03</totfact>
</mgrwt>
</event>
<event>
 4    1  0.3976152E+000  0.2119340E+03  0.7546771E-02  0.1140044E+00
         21   -1    0    0  501  502  0.00000000000E+00  0.00000000000E+00  0.21921166548E+03  0.21921166548E+03  0.00000000000E+00 0. -1.
         21   -1    0    0  502  503 -0.00000000000E+00 -0.00000000000E+00 -0.24698943552E+03  0.24698943552E+03  0.00000000000E+00 0.  1.
          6    1    1    2  501    0 -0.14937205413E+02  0.12150687683E+03  0.82338959584E+02  0.22736698416E+03  0.17300000000E+03 0. -1.
         -6    1    1    2    0  503  0.14937205413E+02 -0.12150687683E+03 -0.11011672962E+03  0.23883411684E+03  0.17300000000E+03 0.  1.
<mgrwt>
<rscale>  2 0.21193405E+03</rscale>
<asrwt>0</asrwt>
<pdfrwt beam="1">  1       21 0.33724872E-01 0.21193405E+03</pdfrwt>
<pdfrwt beam="2">  1       21 0.37998375E-01 0.21193405E+03</pdfrwt>
<totfact> 0.56062485E+04</totfact>
</mgrwt>
</event>
<event>
 4    1  0.3976152E+000  0.2066188E+03  0.7546771E-02  0.1144272E+00
         21   -1    0    0  501  502  0.00000000000E+00  0.00000000000E+00  0.23156109921E+03  0.23156109921E+03  0.00000000000E+00 0.  1.
         21   -1    0    0  502  503 -0.00000000000E+00 -0.00000000000E+00 -0.20804301164E+03  0.20804301164E+03  0.00000000000E+00 0.  1.
          6    1    1    2  501    0 -0.27399299274E+02 -0.10959749612E+03  0.85914788314E+02  0.22376926422E+03  0.17300000000E+03 0.  1.
         -6    1    1    2    0  503  0.27399299274E+02  0.10959749612E+03 -0.62396700746E+02  0.21583484663E+03  0.17300000000E+03 0.  1.
<mgrwt>
<rscale>  2 0.20661881E+03</rscale>
<asrwt>0</asrwt>
<pdfrwt beam="1">  1       21 0.35624784E-01 0.20661881E+03</pdfrwt>
<pdfrwt beam="2">  1       21 0.32006617E-01 0.20661881E+03</pdfrwt>
<totfact> 0.70889338E+04</totfact>
</mgrwt>
</event>
<event>
 4    1  0.3976152E+000  0.2502613E+03  0.7546771E-02  0.1113140E+00
         21   -1    0    0  503  502  0.00000000000E+00  0.00000000000E+00  0.67906538257E+03  0.67906538257E+03  0.00000000000E+00 0.  1.
         21   -1    0    0  501  503 -0.00000000000E+00 -0.00000000000E+00 -0.98663163120E+02  0.98663163120E+02  0.00000000000E+00 0.  1.
          6    1    1    2  501    0  0.22126182451E+02  0.17947747739E+03  0.38949129758E+03  0.46296242151E+03  0.17300000000E+03 0.  1.
         -6    1    1    2    0  502 -0.22126182451E+02 -0.17947747739E+03  0.19091092187E+03  0.31476612418E+03  0.17300000000E+03 0.  1.
<mgrwt>
<rscale>  2 0.25026133E+03</rscale>
<asrwt>0</asrwt>
<pdfrwt beam="1">  1       21 0.10447159E+00 0.25026133E+03</pdfrwt>
<pdfrwt beam="2">  1       21 0.15178949E-01 0.25026133E+03</pdfrwt>
<totfact> 0.27531247E+04</totfact>
</mgrwt>
</event>
<event>
 4    1  0.3976152E+000  0.2105528E+03  0.7546771E-02  0.1141129E+00
         21   -1    0    0  503  502  0.00000000000E+00  0.00000000000E+00  0.25854928480E+03  0.25854928480E+03  0.00000000000E+00 0. -1.
         21   -1    0    0  501  503 -0.00000000000E+00 -0.00000000000E+00 -0.23830956832E+03  0.23830956832E+03  0.00000000000E+00 0.  1.
          6    1    1    2  501    0  0.75201789780E+02 -0.93531763410E+02 -0.12145139170E+03  0.24306982639E+03  0.17300000000E+03 0.  1.
         -6    1    1    2    0  502 -0.75201789780E+02  0.93531763410E+02  0.14169110818E+03  0.25378902673E+03  0.17300000000E+03 0. -1.
<mgrwt>
<rscale>  2 0.21055284E+03</rscale>
<asrwt>0</asrwt>
<pdfrwt beam="1">  1       21 0.39776813E-01 0.21055284E+03</pdfrwt>
<pdfrwt beam="2">  1       21 0.36663011E-01 0.21055284E+03</pdfrwt>
<totfact> 0.43319981E+04</totfact>
</mgrwt>
</event>
<event>
 4    1  0.3976152E+000  0.1953690E+03  0.7546771E-02  0.1153706E+00
         21   -1    0    0  503  502  0.00000000000E+00  0.00000000000E+00  0.15106635571E+03  0.15106635571E+03  0.00000000000E+00 0.  1.
         21   -1    0    0  501  503 -0.00000000000E+00 -0.00000000000E+00 -0.30528276357E+03  0.30528276357E+03  0.00000000000E+00 0.  1.
          6    1    1    2  501    0  0.37865023984E+02 -0.82500209195E+02 -0.17183786694E+03  0.26018704248E+03  0.17300000000E+03 0.  1.
         -6    1    1    2    0  502 -0.37865023984E+02  0.82500209195E+02  0.17621459075E+02  0.19616207681E+03  0.17300000000E+03 0.  1.
<mgrwt>
<rscale>  2 0.19536900E+03</rscale>
<asrwt>0</asrwt>
<pdfrwt beam="1">  1       21 0.23240978E-01 0.19536900E+03</pdfrwt>
<pdfrwt beam="2">  1       21 0.46966578E-01 0.19536900E+03</pdfrwt>
<totfact> 0.75418530E+04</totfact>
</mgrwt>
</event>
<event>
 4    1  0.3976152E+000  0.2027930E+03  0.7546771E-02  0.1147404E+00
         21   -1    0    0  503  502  0.00000000000E+00  0.00000000000E+00  0.57031977597E+02  0.57031977597E+02  0.00000000000E+00 0.  1.
         21   -1    0    0  501  503 -0.00000000000E+00 -0.00000000000E+00 -0.11540736506E+04  0.11540736506E+04  0.00000000000E+00 0.  1.
          6    1    1    2  501    0 -0.67194145576E+02 -0.81736941947E+02 -0.91943450739E+03  0.94153321463E+03  0.17300000000E+03 0.  1.
         -6    1    1    2    0  502  0.67194145576E+02  0.81736941947E+02 -0.17760716562E+03  0.26957241357E+03  0.17300000000E+03 0.  1.
<mgrwt>
<rscale>  2 0.20279295E+03</rscale>
<asrwt>0</asrwt>
<pdfrwt beam="1">  1       21 0.87741503E-02 0.20279295E+03</pdfrwt>
<pdfrwt beam="2">  1       21 0.17754980E+00 0.20279295E+03</pdfrwt>
<totfact> 0.19173676E+04</totfact>
</mgrwt>
</event>
<event>
 4    1  0.3976152E+000  0.1956964E+03  0.7546771E-02  0.1153422E+00
         21   -1    0    0  503  502  0.00000000000E+00  0.00000000000E+00  0.91443932400E+02  0.91443932400E+02  0.00000000000E+00 0.  1.
         21   -1    0    0  501  503 -0.00000000000E+00 -0.00000000000E+00 -0.42593748034E+03  0.42593748034E+03  0.00000000000E+00 0.  1.
          6    1    1    2  501    0  0.62666578290E+02 -0.66640617673E+02 -0.13376851518E+03  0.23704659376E+03  0.17300000000E+03 0.  1.
         -6    1    1    2    0  502 -0.62666578290E+02  0.66640617673E+02 -0.20072503276E+03  0.28033481898E+03  0.17300000000E+03 0.  1.
<mgrwt>
<rscale>  2 0.19569638E+03</rscale>
<asrwt>0</asrwt>
<pdfrwt beam="1">  1       21 0.14068297E-01 0.19569638E+03</pdfrwt>
<pdfrwt beam="2">  1       21 0.65528844E-01 0.19569638E+03</pdfrwt>
<totfact> 0.94261921E+04</totfact>
</mgrwt>
</event>
<event>
 4    1  0.3976152E+000  0.2632967E+03  0.7546771E-02  0.1105179E+00
         21   -1    0    0  501  502  0.00000000000E+00  0.00000000000E+00  0.18996746503E+03  0.18996746503E+03  0.00000000000E+00 0.  1.
         21   -1    0    0  502  503 -0.00000000000E+00 -0.00000000000E+00 -0.43091595342E+03  0.43091595342E+03  0.00000000000E+00 0.  1.
          6    1    1    2  501    0 -0.14970042916E+03 -0.13033008665E+03  0.10055178829E+01  0.26329861573E+03  0.17300000000E+03 0.  1.
         -6    1    1    2    0  503  0.14970042916E+03  0.13033008665E+03 -0.24195400627E+03  0.35758480271E+03  0.17300000000E+03 0.  1.
<mgrwt>
<rscale>  2 0.26329670E+03</rscale>
<asrwt>0</asrwt>
<pdfrwt beam="1">  1       21 0.29225764E-01 0.26329670E+03</pdfrwt>
<pdfrwt beam="2">  1       21 0.66294762E-01 0.26329670E+03</pdfrwt>
<totfact> 0.22564728E+04</totfact>
</mgrwt>
</event>
<event>
 4    1  0.3976152E+000  0.2345552E+03  0.7546771E-02  0.1123474E+00
         21   -1    0    0  503  502  0.00000000000E+00  0.00000000000E+00  0.36335852209E+03  0.36335852209E+03  0.00000000000E+00 0.  1.
         21   -1    0    0  501  503 -0.00000000000E+00 -0.00000000000E+00 -0.16519528997E+03  0.16519528997E+03  0.00000000000E+00 0. -1.
          6    1    1    2  501    0 -0.38672035088E+02 -0.15359561165E+03  0.22738957580E+02  0.23565482895E+03  0.17300000000E+03 0. -1.
         -6    1    1    2    0  502  0.38672035088E+02  0.15359561165E+03  0.17542427454E+03  0.29289898312E+03  0.17300000000E+03 0.  1.
<mgrwt>
<rscale>  2 0.23455519E+03</rscale>
<asrwt>0</asrwt>
<pdfrwt beam="1">  1       21 0.55901311E-01 0.23455519E+03</pdfrwt>
<pdfrwt beam="2">  1       21 0.25414660E-01 0.23455519E+03</pdfrwt>
<totfact> 0.43357847E+04</totfact>
</mgrwt>
</event>
<event>
 4    1  0.3976152E+000  0.2173896E+03  0.7546771E-02  0.1135844E+00
         21   -1    0    0  503  502  0.00000000000E+00  0.00000000000E+00  0.90503560707E+03  0.90503560707E+03  0.00000000000E+00 0.  1.
         21   -1    0    0  501  503 -0.00000000000E+00 -0.00000000000E+00 -0.64812594714E+02  0.64812594714E+02  0.00000000000E+00 0. -1.
          6    1    1    2  501    0  0.12004432712E+03 -0.54023978137E+02  0.20633810685E+03  0.29972261347E+03  0.17300000000E+03 0. -1.
         -6    1    1    2    0  502 -0.12004432712E+03  0.54023978137E+02  0.63388490551E+03  0.67012558831E+03  0.17300000000E+03 0.  1.
<mgrwt>
<rscale>  2 0.21738958E+03</rscale>
<asrwt>0</asrwt>
<pdfrwt beam="1">  1       21 0.13923624E+00 0.21738958E+03</pdfrwt>
<pdfrwt beam="2">  1       21 0.99711691E-02 0.21738958E+03</pdfrwt>
<totfact> 0.29163581E+04</totfact>
</mgrwt>
</event>
<event>
 4    1  0.3976152E+000  0.1767647E+03  0.7546771E-02  0.1170971E+00
         21   -1    0    0  503  502  0.00000000000E+00  0.00000000000E+00  0.43833111917E+03  0.43833111917E+03  0.00000000000E+00 0. -1.
         21   -1    0    0  501  503 -0.00000000000E+00 -0.00000000000E+00 -0.71380388316E+02  0.71380388316E+02  0.00000000000E+00 0. -1.
          6    1    1    2  501    0 -0.35691153602E+02 -0.65497969802E+01  0.17408390897E+03  0.24809467074E+03  0.17300000000E+03 0. -1.
         -6    1    1    2    0  502  0.35691153602E+02  0.65497969802E+01  0.19286682188E+03  0.26161683674E+03  0.17300000000E+03 0. -1.
<mgrwt>
<rscale>  2 0.17676470E+03</rscale>
<asrwt>0</asrwt>
<pdfrwt beam="1">  1       21 0.67435555E-01 0.17676470E+03</pdfrwt>
<pdfrwt beam="2">  1       21 0.10981598E-01 0.17676470E+03</pdfrwt>
<totfact> 0.13901344E+05</totfact>
</mgrwt>
</event>
<event>
 4    1  0.3976152E+000  0.1981013E+03  0.7546771E-02  0.1151351E+00
         21   -1    0    0  501  502  0.00000000000E+00  0.00000000000E+00  0.35342346449E+03  0.35342346449E+03  0.00000000000E+00 0. -1.
         21   -1    0    0  502  503 -0.00000000000E+00 -0.00000000000E+00 -0.11121438034E+03  0.11121438034E+03  0.00000000000E+00 0.  1.
          6    1    1    2  501    0 -0.77519736682E+02 -0.57496260820E+02  0.13030469066E+03  0.23711482871E+03  0.17300000000E+03 0. -1.
         -6    1    1    2    0  503  0.77519736682E+02  0.57496260820E+02  0.11190439348E+03  0.22752301612E+03  0.17300000000E+03 0. -1.
<mgrwt>
<rscale>  2 0.19810131E+03</rscale>
<asrwt>0</asrwt>
<pdfrwt beam="1">  1       21 0.54372840E-01 0.19810131E+03</pdfrwt>
<pdfrwt beam="2">  1       21 0.17109905E-01 0.19810131E+03</pdfrwt>
<totfact> 0.98303582E+04</totfact>
</mgrwt>
</event>
<event>
 4    1  0.3976152E+000  0.1865748E+03  0.7546771E-02  0.1161587E+00
         21   -1    0    0  503  502  0.00000000000E+00  0.00000000000E+00  0.34952941964E+02  0.34952941964E+02  0.00000000000E+00 0. -1.
         21   -1    0    0  501  503 -0.00000000000E+00 -0.00000000000E+00 -0.10648234878E+04  0.10648234878E+04  0.00000000000E+00 0. -1.
          6    1    1    2  501    0  0.57181750567E+02  0.40142491579E+02 -0.65482015655E+03  0.68088149457E+03  0.17300000000E+03 0.  1.
         -6    1    1    2    0  502 -0.57181750567E+02 -0.40142491579E+02 -0.37505038933E+03  0.41889493523E+03  0.17300000000E+03 0.  1.
<mgrwt>
<rscale>  2 0.18657484E+03</rscale>
<asrwt>0</asrwt>
<pdfrwt beam="1">  1       21 0.53773766E-02 0.18657484E+03</pdfrwt>
<pdfrwt beam="2">  1       21 0.16381897E+00 0.18657484E+03</pdfrwt>
<totfact> 0.56324080E+04</totfact>
</mgrwt>
</event>
<event>
 4    1  0.3976152E+000  0.2448111E+03  0.7546771E-02  0.1116629E+00
         21   -1    0    0  503  502  0.00000000000E+00  0.00000000000E+00  0.52759693023E+03  0.52759693023E+03  0.00000000000E+00 0.  1.
         21   -1    0    0  501  503 -0.00000000000E+00 -0.00000000000E+00 -0.13208149309E+03  0.13208149309E+03  0.00000000000E+00 0. -1.
          6    1    1    2  501    0  0.17178630471E+03  0.22202778355E+02  0.74360380224E+02  0.25585535757E+03  0.17300000000E+03 0. -1.
         -6    1    1    2    0  502 -0.17178630471E+03 -0.22202778355E+02  0.32115505692E+03  0.40382306575E+03  0.17300000000E+03 0. -1.
<mgrwt>
<rscale>  2 0.24481115E+03</rscale>
<asrwt>0</asrwt>
<pdfrwt beam="1">  1       21 0.81168757E-01 0.24481115E+03</pdfrwt>
<pdfrwt beam="2">  1       21 0.20320230E-01 0.24481115E+03</pdfrwt>
<totfact> 0.29026673E+04</totfact>
</mgrwt>
</event>
<event>
 4    1  0.3976152E+000  0.2238462E+03  0.7546771E-02  0.1131048E+00
         21   -1    0    0  501  502  0.00000000000E+00  0.00000000000E+00  0.16120039954E+03  0.16120039954E+03  0.00000000000E+00 0.  1.
         21   -1    0    0  502  503 -0.00000000000E+00 -0.00000000000E+00 -0.61344157958E+03  0.61344157958E+03  0.00000000000E+00 0.  1.
          6    1    1    2  501    0 -0.61807398528E+02 -0.12789823004E+03  0.45912600383E+02  0.22850618949E+03  0.17300000000E+03 0.  1.
         -6    1    1    2    0  503  0.61807398528E+02  0.12789823004E+03 -0.49815378043E+03  0.54613578963E+03  0.17300000000E+03 0.  1.
<mgrwt>
<rscale>  2 0.22384618E+03</rscale>
<asrwt>0</asrwt>
<pdfrwt beam="1">  1       21 0.24800062E-01 0.22384618E+03</pdfrwt>
<pdfrwt beam="2">  1       21 0.94375627E-01 0.22384618E+03</pdfrwt>
<totfact> 0.14186376E+04</totfact>
</mgrwt>
</event>
<event>
 4    1  0.3976152E+000  0.3587480E+03  0.7546771E-02  0.1059081E+00
         21   -1    0    0  501  502  0.00000000000E+00  0.00000000000E+00  0.66041320983E+03  0.66041320983E+03  0.00000000000E+00 0. -1.
         21   -1    0    0  502  503 -0.00000000000E+00 -0.00000000000E+00 -0.22775267685E+03  0.22775267685E+03  0.00000000000E+00 0. -1.
          6    1    1    2  501    0 -0.19893582228E+03  0.24330165519E+03  0.38504832950E+03  0.52627214714E+03  0.17300000000E+03 0. -1.
         -6    1    1    2    0  503  0.19893582228E+03 -0.24330165519E+03  0.47612203474E+02  0.36189373955E+03  0.17300000000E+03 0. -1.
<mgrwt>
<rscale>  2 0.35874804E+03</rscale>
<asrwt>0</asrwt>
<pdfrwt beam="1">  1       21 0.10160203E+00 0.35874804E+03</pdfrwt>
<pdfrwt beam="2">  1       21 0.35038874E-01 0.35874804E+03</pdfrwt>
<totfact> 0.56467704E+03</totfact>
</mgrwt>
</event>
<event>
 4    1  0.3976152E+000  0.1897498E+03  0.7546771E-02  0.1158687E+00
         21   -1    0    0  503  502  0.00000000000E+00  0.00000000000E+00  0.42909770405E+02  0.42909770405E+02  0.00000000000E+00 0.  1.
         21   -1    0    0  501  503 -0.00000000000E+00 -0.00000000000E+00 -0.88973644239E+03  0.88973644239E+03  0.00000000000E+00 0.  1.
          6    1    1    2  501    0  0.36747606277E+02 -0.68742884654E+02 -0.53467602480E+03  0.56734770842E+03  0.17300000000E+03 0.  1.
         -6    1    1    2    0  502 -0.36747606277E+02  0.68742884654E+02 -0.31215064718E+03  0.36529850437E+03  0.17300000000E+03 0.  1.
<mgrwt>
<rscale>  2 0.18974976E+03</rscale>
<asrwt>0</asrwt>
<pdfrwt beam="1">  1       21 0.66015036E-02 0.18974976E+03</pdfrwt>
<pdfrwt beam="2">  1       21 0.13688252E+00 0.18974976E+03</pdfrwt>
<totfact> 0.63556028E+04</totfact>
</mgrwt>
</event>
<event>
 4    1  0.3976152E+000  0.2026926E+03  0.7546771E-02  0.1147487E+00
         21   -1    0    0  501  502  0.00000000000E+00  0.00000000000E+00  0.22631117717E+02  0.22631117717E+02  0.00000000000E+00 0. -1.
         21   -1    0    0  502  503 -0.00000000000E+00 -0.00000000000E+00 -0.20905580419E+04  0.20905580419E+04  0.00000000000E+00 0. -1.
          6    1    1    2  501    0 -0.10386017447E+03  0.19192679517E+02 -0.65063010795E+03  0.68147181318E+03  0.17300000000E+03 0. -1.
         -6    1    1    2    0  503  0.10386017447E+03 -0.19192679517E+02 -0.14172968163E+04  0.14317173465E+04  0.17300000000E+03 0. -1.
<mgrwt>
<rscale>  2 0.20269261E+03</rscale>
<asrwt>0</asrwt>
<pdfrwt beam="1">  1       21 0.34817087E-02 0.20269261E+03</pdfrwt>
<pdfrwt beam="2">  1       21 0.32162447E+00 0.20269261E+03</pdfrwt>
<totfact> 0.12519341E+04</totfact>
</mgrwt>
</event>
<event>
 4    1  0.3976152E+000  0.1747095E+03  0.7546771E-02  0.1173024E+00
         21   -1    0    0  503  502  0.00000000000E+00  0.00000000000E+00  0.35641388400E+02  0.35641388400E+02  0.00000000000E+00 0.  1.
         21   -1    0    0  501  503 -0.00000000000E+00 -0.00000000000E+00 -0.90338343505E+03  0.90338343505E+03  0.00000000000E+00 0.  1.
          6    1    1    2  501    0 -0.24380773457E+02 -0.10468788654E-02 -0.54094048550E+03  0.56845407111E+03  0.17300000000E+03 0.  1.
         -6    1    1    2    0  502  0.24380773457E+02  0.10468788654E-02 -0.32680156115E+03  0.37057075234E+03  0.17300000000E+03 0.  1.
<mgrwt>
<rscale>  2 0.17470954E+03</rscale>
<asrwt>0</asrwt>
<pdfrwt beam="1">  1       21 0.54832911E-02 0.17470954E+03</pdfrwt>
<pdfrwt beam="2">  1       21 0.13898205E+00 0.17470954E+03</pdfrwt>
<totfact> 0.84581396E+04</totfact>
</mgrwt>
</event>
<event>
 4    1  0.3976152E+000  0.2008598E+03  0.7546771E-02  0.1149016E+00
         21   -1    0    0  501  502  0.00000000000E+00  0.00000000000E+00  0.50123740709E+03  0.50123740709E+03  0.00000000000E+00 0. -1.
         21   -1    0    0  502  503 -0.00000000000E+00 -0.00000000000E+00 -0.82712429020E+02  0.82712429020E+02  0.00000000000E+00 0. -1.
          6    1    1    2  501    0 -0.64142580160E+02  0.79381408861E+02  0.25712093122E+03  0.32627572992E+03  0.17300000000E+03 0. -1.
         -6    1    1    2    0  503  0.64142580160E+02 -0.79381408861E+02  0.16140404685E+03  0.25767410619E+03  0.17300000000E+03 0. -1.
<mgrwt>
<rscale>  2 0.20085985E+03</rscale>
<asrwt>0</asrwt>
<pdfrwt beam="1">  1       21 0.77113445E-01 0.20085985E+03</pdfrwt>
<pdfrwt beam="2">  1       21 0.12724989E-01 0.20085985E+03</pdfrwt>
<totfact> 0.78632505E+04</totfact>
</mgrwt>
</event>
<event>
 4    1  0.3976152E+000  0.2155229E+03  0.7546771E-02  0.1137266E+00
         21   -1    0    0  503  502  0.00000000000E+00  0.00000000000E+00  0.12652615337E+04  0.12652615337E+04  0.00000000000E+00 0. -1.
         21   -1    0    0  501  503 -0.00000000000E+00 -0.00000000000E+00 -0.38471219377E+02  0.38471219377E+02  0.00000000000E+00 0. -1.
          6    1    1    2  501    0 -0.38850240270E+02  0.12252251673E+03  0.47399364154E+03  0.52069192474E+03  0.17300000000E+03 0. -1.
         -6    1    1    2    0  502  0.38850240270E+02 -0.12252251673E+03  0.75279667276E+03  0.78304082830E+03  0.17300000000E+03 0. -1.
<mgrwt>
<rscale>  2 0.21552287E+03</rscale>
<asrwt>0</asrwt>
<pdfrwt beam="1">  1       21 0.19465559E+00 0.21552287E+03</pdfrwt>
<pdfrwt beam="2">  1       21 0.59186501E-02 0.21552287E+03</pdfrwt>
<totfact> 0.28886403E+04</totfact>
</mgrwt>
</event>
<event>
 4    1  0.3976152E+000  0.2459817E+03  0.7546771E-02  0.1115871E+00
         21   -1    0    0  501  502  0.00000000000E+00  0.00000000000E+00  0.10418468245E+03  0.10418468245E+03  0.00000000000E+00 0. -1.
         21   -1    0    0  502  503 -0.00000000000E+00 -0.00000000000E+00 -0.58122950515E+03  0.58122950515E+03  0.00000000000E+00 0.  1.
          6    1    1    2  501    0 -0.31112178270E+02  0.17207566764E+03 -0.24819201496E+03  0.34943708922E+03  0.17300000000E+03 0.  1.
         -6    1    1    2    0  503  0.31112178270E+02 -0.17207566764E+03 -0.22885280774E+03  0.33597709839E+03  0.17300000000E+03 0. -1.
<mgrwt>
<rscale>  2 0.24598171E+03</rscale>
<asrwt>0</asrwt>
<pdfrwt beam="1">  1       21 0.16028413E-01 0.24598171E+03</pdfrwt>
<pdfrwt beam="2">  1       21 0.89419922E-01 0.24598171E+03</pdfrwt>
<totfact> 0.36089900E+04</totfact>
</mgrwt>
</event>
<event>
 4    1  0.3976152E+000  0.2328588E+03  0.7546771E-02  0.1124644E+00
         21   -1    0    0  503  502  0.00000000000E+00  0.00000000000E+00  0.81647791043E+02  0.81647791043E+02  0.00000000000E+00 0. -1.
         21   -1    0    0  501  503 -0.00000000000E+00 -0.00000000000E+00 -0.70228119358E+03  0.70228119358E+03  0.00000000000E+00 0. -1.
          6    1    1    2  501    0 -0.12255790053E+03 -0.96300416488E+02 -0.40169698030E+03  0.46430988917E+03  0.17300000000E+03 0. -1.
         -6    1    1    2    0  502  0.12255790053E+03  0.96300416488E+02 -0.21893642224E+03  0.31961909546E+03  0.17300000000E+03 0. -1.
<mgrwt>
<rscale>  2 0.23285878E+03</rscale>
<asrwt>0</asrwt>
<pdfrwt beam="1">  1       21 0.12561198E-01 0.23285878E+03</pdfrwt>
<pdfrwt beam="2">  1       21 0.10804326E+00 0.23285878E+03</pdfrwt>
<totfact> 0.36102301E+04</totfact>
</mgrwt>
</event>
<event>
 4    1  0.3976152E+000  0.1864429E+03  0.7546771E-02  0.1161709E+00
         21   -1    0    0  503  502  0.00000000000E+00  0.00000000000E+00  0.12221957020E+03  0.12221957020E+03  0.00000000000E+00 0. -1.
         21   -1    0    0  501  503 -0.00000000000E+00 -0.00000000000E+00 -0.53587696187E+03  0.53587696187E+03  0.00000000000E+00 0. -1.
          6    1    1    2  501    0  0.19209032249E+02 -0.66805487686E+02 -0.43223395954E+03  0.47073044928E+03  0.17300000000E+03 0. -1.
         -6    1    1    2    0  502 -0.19209032249E+02  0.66805487686E+02  0.18576567872E+02  0.18736608279E+03  0.17300000000E+03 0. -1.
<mgrwt>
<rscale>  2 0.18644291E+03</rscale>
<asrwt>0</asrwt>
<pdfrwt beam="1">  1       21 0.18803011E-01 0.18644291E+03</pdfrwt>
<pdfrwt beam="2">  1       21 0.82442610E-01 0.18644291E+03</pdfrwt>
<totfact> 0.33378308E+04</totfact>
</mgrwt>
</event>
<event>
 4    1  0.3976152E+000  0.2078792E+03  0.7546771E-02  0.1143257E+00
         21   -1    0    0  503  502  0.00000000000E+00  0.00000000000E+00  0.12613751374E+03  0.12613751374E+03  0.00000000000E+00 0.  1.
         21   -1    0    0  501  503 -0.00000000000E+00 -0.00000000000E+00 -0.42397360195E+03  0.42397360195E+03  0.00000000000E+00 0.  1.
          6    1    1    2  501    0  0.72966520008E+00  0.11525725795E+03 -0.26942517944E+03  0.34029941998E+03  0.17300000000E+03 0.  1.
         -6    1    1    2    0  502 -0.72966520008E+00 -0.11525725795E+03 -0.28410908767E+02  0.20981169571E+03  0.17300000000E+03 0.  1.
<mgrwt>
<rscale>  2 0.20787921E+03</rscale>
<asrwt>0</asrwt>
<pdfrwt beam="1">  1       21 0.19405772E-01 0.20787921E+03</pdfrwt>
<pdfrwt beam="2">  1       21 0.65226707E-01 0.20787921E+03</pdfrwt>
<totfact> 0.52430916E+04</totfact>
</mgrwt>
</event>
<event>
 4    1  0.3976152E+000  0.2639171E+03  0.7546771E-02  0.1104812E+00
         21   -1    0    0  501  502  0.00000000000E+00  0.00000000000E+00  0.20251675626E+03  0.20251675626E+03  0.00000000000E+00 0.  1.
         21   -1    0    0  502  503 -0.00000000000E+00 -0.00000000000E+00 -0.41040410416E+03  0.41040410416E+03  0.00000000000E+00 0. -1.
          6    1    1    2  501    0 -0.74024231772E+02  0.18505039279E+03  0.19390767948E+02  0.26462848797E+03  0.17300000000E+03 0. -1.
         -6    1    1    2    0  503  0.74024231772E+02 -0.18505039279E+03 -0.22727811585E+03  0.34829237245E+03  0.17300000000E+03 0. -1.
<mgrwt>
<rscale>  2 0.26391710E+03</rscale>
<asrwt>0</asrwt>
<pdfrwt beam="1">  1       21 0.31156424E-01 0.26391710E+03</pdfrwt>
<pdfrwt beam="2">  1       21 0.63139092E-01 0.26391710E+03</pdfrwt>
<totfact> 0.22138759E+04</totfact>
</mgrwt>
</event>
<event>
 4    1  0.3976152E+000  0.1925951E+03  0.7546771E-02  0.1156141E+00
         21   -1    0    0  503  502  0.00000000000E+00  0.00000000000E+00  0.32551862666E+02  0.32551862666E+02  0.00000000000E+00 0.  1.
         21   -1    0    0  501  503 -0.00000000000E+00 -0.00000000000E+00 -0.12290513913E+04  0.12290513913E+04  0.00000000000E+00 0. -1.
          6    1    1    2  501    0 -0.43978779172E+02  0.72317026808E+02 -0.76852093850E+03  0.79228613411E+03  0.17300000000E+03 0.  1.
         -6    1    1    2    0  502  0.43978779172E+02 -0.72317026808E+02 -0.42797859018E+03  0.46931711990E+03  0.17300000000E+03 0.  1.
<mgrwt>
<rscale>  2 0.19259513E+03</rscale>
<asrwt>0</asrwt>
<pdfrwt beam="1">  1       21 0.50079785E-02 0.19259513E+03</pdfrwt>
<pdfrwt beam="2">  1       21 0.18908484E+00 0.19259513E+03</pdfrwt>
<totfact> 0.42429516E+04</totfact>
</mgrwt>
</event>
<event>
 4    1  0.3976152E+000  0.1988803E+03  0.7546771E-02  0.1150687E+00
         21   -1    0    0  503  502  0.00000000000E+00  0.00000000000E+00  0.50384893199E+03  0.50384893199E+03  0.00000000000E+00 0.  1.
         21   -1    0    0  501  503 -0.00000000000E+00 -0.00000000000E+00 -0.19698280524E+03  0.19698280524E+03  0.00000000000E+00 0.  1.
          6    1    1    2  501    0  0.95385554978E+02  0.22934039570E+02 -0.11833147386E+03  0.23142107072E+03  0.17300000000E+03 0.  1.
         -6    1    1    2    0  502 -0.95385554978E+02 -0.22934039570E+02  0.42519760061E+03  0.46941066651E+03  0.17300000000E+03 0.  1.
<mgrwt>
<rscale>  2 0.19888030E+03</rscale>
<asrwt>0</asrwt>
<pdfrwt beam="1">  1       21 0.77515220E-01 0.19888030E+03</pdfrwt>
<pdfrwt beam="2">  1       21 0.30305047E-01 0.19888030E+03</pdfrwt>
<totfact> 0.15367084E+04</totfact>
</mgrwt>
</event>
<event>
 4    1  0.3976152E+000  0.1812890E+03  0.7546771E-02  0.1166561E+00
         21   -1    0    0  503  502  0.00000000000E+00  0.00000000000E+00  0.46437385950E+03  0.46437385950E+03  0.00000000000E+00 0. -1.
         21   -1    0    0  501  503 -0.00000000000E+00 -0.00000000000E+00 -0.10348480816E+03  0.10348480816E+03  0.00000000000E+00 0. -1.
          6    1    1    2  501    0  0.45503791650E+02  0.29429839450E+02  0.20813994985E+02  0.18247995203E+03  0.17300000000E+03 0. -1.
         -6    1    1    2    0  502 -0.45503791650E+02 -0.29429839450E+02  0.34007505635E+03  0.38537871563E+03  0.17300000000E+03 0. -1.
<mgrwt>
<rscale>  2 0.18128902E+03</rscale>
<asrwt>0</asrwt>
<pdfrwt beam="1">  1       21 0.71442131E-01 0.18128902E+03</pdfrwt>
<pdfrwt beam="2">  1       21 0.15920740E-01 0.18128902E+03</pdfrwt>
<totfact> 0.62644379E+04</totfact>
</mgrwt>
</event>
<event>
 4    1  0.3976152E+000  0.2114893E+03  0.7546771E-02  0.1140392E+00
         21   -1    0    0  503  502  0.00000000000E+00  0.00000000000E+00  0.25545200657E+03  0.25545200657E+03  0.00000000000E+00 0. -1.
         21   -1    0    0  501  503 -0.00000000000E+00 -0.00000000000E+00 -0.10241968766E+04  0.10241968766E+04  0.00000000000E+00 0. -1.
          6    1    1    2  501    0  0.11808412994E+03 -0.29238042178E+02 -0.96694448957E+03  0.98980269285E+03  0.17300000000E+03 0. -1.
         -6    1    1    2    0  502 -0.11808412994E+03  0.29238042178E+02  0.19819961954E+03  0.28984619032E+03  0.17300000000E+03 0. -1.
<mgrwt>
<rscale>  2 0.21148930E+03</rscale>
<asrwt>0</asrwt>
<pdfrwt beam="1">  1       21 0.39300309E-01 0.21148930E+03</pdfrwt>
<pdfrwt beam="2">  1       21 0.15756875E+00 0.21148930E+03</pdfrwt>
<totfact> 0.16074908E+03</totfact>
</mgrwt>
</event>
<event>
 4    1  0.3976152E+000  0.2708314E+03  0.7546771E-02  0.1100805E+00
         21   -1    0    0  503  502  0.00000000000E+00  0.00000000000E+00  0.15426994461E+03  0.15426994461E+03  0.00000000000E+00 0.  1.
         21   -1    0    0  501  503 -0.00000000000E+00 -0.00000000000E+00 -0.64204217400E+03  0.64204217400E+03  0.00000000000E+00 0. -1.
          6    1    1    2  501    0  0.20298245938E+03  0.47103967147E+02 -0.44669258333E+03  0.52238293094E+03  0.17300000000E+03 0. -1.
         -6    1    1    2    0  502 -0.20298245938E+03 -0.47103967147E+02 -0.41079646057E+02  0.27392918767E+03  0.17300000000E+03 0.  1.
<mgrwt>
<rscale>  2 0.27083143E+03</rscale>
<asrwt>0</asrwt>
<pdfrwt beam="1">  1       21 0.23733838E-01 0.27083143E+03</pdfrwt>
<pdfrwt beam="2">  1       21 0.98775718E-01 0.27083143E+03</pdfrwt>
<totfact> 0.13508735E+04</totfact>
</mgrwt>
</event>
<event>
 4    1  0.3976152E+000  0.2075743E+03  0.7546771E-02  0.1143501E+00
         21   -1    0    0  503  502  0.00000000000E+00  0.00000000000E+00  0.75521577570E+03  0.75521577570E+03  0.00000000000E+00 0. -1.
         21   -1    0    0  501  503 -0.00000000000E+00 -0.00000000000E+00 -0.10515369989E+03  0.10515369989E+03  0.00000000000E+00 0. -1.
          6    1    1    2  501    0  0.64646333617E+02  0.94757217004E+02  0.34080011450E+02  0.21035333562E+03  0.17300000000E+03 0. -1.
         -6    1    1    2    0  502 -0.64646333617E+02 -0.94757217004E+02  0.61598206436E+03  0.65001613998E+03  0.17300000000E+03 0. -1.
<mgrwt>
<rscale>  2 0.20757427E+03</rscale>
<asrwt>0</asrwt>
<pdfrwt beam="1">  1       21 0.11618704E+00 0.20757427E+03</pdfrwt>
<pdfrwt beam="2">  1       21 0.16177493E-01 0.20757427E+03</pdfrwt>
<totfact> 0.19353160E+04</totfact>
</mgrwt>
</event>
<event>
 4    1  0.3976152E+000  0.2137207E+03  0.7546771E-02  0.1138653E+00
         21   -1    0    0  501  502  0.00000000000E+00  0.00000000000E+00  0.83658291899E+03  0.83658291899E+03  0.00000000000E+00 0.  1.
         21   -1    0    0  502  503 -0.00000000000E+00 -0.00000000000E+00 -0.54745492945E+02  0.54745492945E+02  0.00000000000E+00 0.  1.
          6    1    1    2  501    0 -0.11442927594E+03  0.51511878087E+02  0.41397793772E+03  0.46589083023E+03  0.17300000000E+03 0.  1.
         -6    1    1    2    0  503  0.11442927594E+03 -0.51511878087E+02  0.36785948832E+03  0.42543758170E+03  0.17300000000E+03 0.  1.
<mgrwt>
<rscale>  2 0.21372069E+03</rscale>
<asrwt>0</asrwt>
<pdfrwt beam="1">  1       21 0.12870506E+00 0.21372069E+03</pdfrwt>
<pdfrwt beam="2">  1       21 0.84223841E-02 0.21372069E+03</pdfrwt>
<totfact> 0.48086339E+04</totfact>
</mgrwt>
</event>
<event>
 4    1  0.3976152E+000  0.1910665E+03  0.7546771E-02  0.1157503E+00
         21   -1    0    0  503  502  0.00000000000E+00  0.00000000000E+00  0.22529015482E+03  0.22529015482E+03  0.00000000000E+00 0.  1.
         21   -1    0    0  501  503 -0.00000000000E+00 -0.00000000000E+00 -0.16370717292E+03  0.16370717292E+03  0.00000000000E+00 0.  1.
          6    1    1    2  501    0  0.77342908315E+02  0.24402360328E+02  0.11173659872E+02  0.19139292393E+03  0.17300000000E+03 0. -1.
         -6    1    1    2    0  502 -0.77342908315E+02 -0.24402360328E+02  0.50409322025E+02  0.19760440381E+03  0.17300000000E+03 0. -1.
<mgrwt>
<rscale>  2 0.19106648E+03</rscale>
<asrwt>0</asrwt>
<pdfrwt beam="1">  1       21 0.34660024E-01 0.19106648E+03</pdfrwt>
<pdfrwt beam="2">  1       21 0.25185719E-01 0.19106648E+03</pdfrwt>
<totfact> 0.11989202E+05</totfact>
</mgrwt>
</event>
<event>
 4    1  0.3976152E+000  0.1835319E+03  0.7546771E-02  0.1164428E+00
         21   -1    0    0  503  502  0.00000000000E+00  0.00000000000E+00  0.51201027558E+03  0.51201027558E+03  0.00000000000E+00 0. -1.
         21   -1    0    0  501  503 -0.00000000000E+00 -0.00000000000E+00 -0.76023529769E+02  0.76023529769E+02  0.00000000000E+00 0. -1.
          6    1    1    2  501    0  0.75953689677E+01 -0.60805223420E+02  0.11010854498E+03  0.21402770032E+03  0.17300000000E+03 0. -1.
         -6    1    1    2    0  502 -0.75953689677E+01  0.60805223420E+02  0.32587820083E+03  0.37400610503E+03  0.17300000000E+03 0. -1.
<mgrwt>
<rscale>  2 0.18353192E+03</rscale>
<asrwt>0</asrwt>
<pdfrwt beam="1">  1       21 0.78770810E-01 0.18353192E+03</pdfrwt>
<pdfrwt beam="2">  1       21 0.11695928E-01 0.18353192E+03</pdfrwt>
<totfact> 0.87828594E+04</totfact>
</mgrwt>
</event>
<event>
 4    1  0.3976152E+000  0.1930492E+03  0.7546771E-02  0.1155740E+00
         21   -1    0    0  503  502  0.00000000000E+00  0.00000000000E+00  0.37682852585E+03  0.37682852585E+03  0.00000000000E+00 0.  1.
         21   -1    0    0  501  503 -0.00000000000E+00 -0.00000000000E+00 -0.10500705339E+03  0.10500705339E+03  0.00000000000E+00 0.  1.
          6    1    1    2  501    0 -0.82160694830E+02 -0.24261411784E+02  0.77806462846E+02  0.20813899572E+03  0.17300000000E+03 0.  1.
         -6    1    1    2    0  502  0.82160694830E+02  0.24261411784E+02  0.19401500962E+03  0.27369658353E+03  0.17300000000E+03 0.  1.
<mgrwt>
<rscale>  2 0.19304921E+03</rscale>
<asrwt>0</asrwt>
<pdfrwt beam="1">  1       21 0.57973619E-01 0.19304921E+03</pdfrwt>
<pdfrwt beam="2">  1       21 0.16154931E-01 0.19304921E+03</pdfrwt>
<totfact> 0.95538389E+04</totfact>
</mgrwt>
</event>
<event>
 4    1  0.3976152E+000  0.1996608E+03  0.7546771E-02  0.1150025E+00
         21   -1    0    0  503  502  0.00000000000E+00  0.00000000000E+00  0.27815387278E+03  0.27815387278E+03  0.00000000000E+00 0. -1.
         21   -1    0    0  501  503 -0.00000000000E+00 -0.00000000000E+00 -0.15318867176E+03  0.15318867176E+03  0.00000000000E+00 0.  1.
          6    1    1    2  501    0 -0.95707659324E+02  0.27847761430E+02  0.77365798630E+01  0.19981068174E+03  0.17300000000E+03 0.  1.
         -6    1    1    2    0  502  0.95707659324E+02 -0.27847761430E+02  0.11722862116E+03  0.23153186279E+03  0.17300000000E+03 0. -1.
<mgrwt>
<rscale>  2 0.19966085E+03</rscale>
<asrwt>0</asrwt>
<pdfrwt beam="1">  1       21 0.42792904E-01 0.19966085E+03</pdfrwt>
<pdfrwt beam="2">  1       21 0.23567488E-01 0.19966085E+03</pdfrwt>
<totfact> 0.88751619E+04</totfact>
</mgrwt>
</event>
<event>
 4    1  0.3976152E+000  0.1752800E+03  0.7546771E-02  0.1172451E+00
         21   -1    0    0  503  502  0.00000000000E+00  0.00000000000E+00  0.35552683159E+03  0.35552683159E+03  0.00000000000E+00 0. -1.
         21   -1    0    0  501  503 -0.00000000000E+00 -0.00000000000E+00 -0.10931367038E+03  0.10931367038E+03  0.00000000000E+00 0. -1.
          6    1    1    2  501    0  0.20856425201E+01  0.28101927247E+02  0.16732438555E+02  0.17607680915E+03  0.17300000000E+03 0. -1.
         -6    1    1    2    0  502 -0.20856425201E+01 -0.28101927247E+02  0.22948072266E+03  0.28876369282E+03  0.17300000000E+03 0. -1.
<mgrwt>
<rscale>  2 0.17527997E+03</rscale>
<asrwt>0</asrwt>
<pdfrwt beam="1">  1       21 0.54696435E-01 0.17527997E+03</pdfrwt>
<pdfrwt beam="2">  1       21 0.16817488E-01 0.17527997E+03</pdfrwt>
<totfact> 0.10109836E+05</totfact>
</mgrwt>
</event>
<event>
 4    1  0.3976152E+000  0.2003751E+03  0.7546771E-02  0.1149423E+00
         21   -1    0    0  503  502  0.00000000000E+00  0.00000000000E+00  0.11797083516E+03  0.11797083516E+03  0.00000000000E+00 0.  1.
         21   -1    0    0  501  503 -0.00000000000E+00 -0.00000000000E+00 -0.62066381580E+03  0.62066381580E+03  0.00000000000E+00 0.  1.
          6    1    1    2  501    0  0.63479780118E+02 -0.78685963223E+02 -0.49954642809E+03  0.53823489027E+03  0.17300000000E+03 0.  1.
         -6    1    1    2    0  502 -0.63479780118E+02  0.78685963223E+02 -0.31465525531E+01  0.20039976069E+03  0.17300000000E+03 0.  1.
<mgrwt>
<rscale>  2 0.20037506E+03</rscale>
<asrwt>0</asrwt>
<pdfrwt beam="1">  1       21 0.18149359E-01 0.20037506E+03</pdfrwt>
<pdfrwt beam="2">  1       21 0.95486740E-01 0.20037506E+03</pdfrwt>
<totfact> 0.25193164E+04</totfact>
</mgrwt>
</event>
<event>
 4    1  0.3976152E+000  0.2020506E+03  0.7546771E-02  0.1148020E+00
         21   -1    0    0  503  502  0.00000000000E+00  0.00000000000E+00  0.20721136188E+03  0.20721136188E+03  0.00000000000E+00 0. -1.
         21   -1    0    0  501  503 -0.00000000000E+00 -0.00000000000E+00 -0.19773939401E+03  0.19773939401E+03  0.00000000000E+00 0. -1.
          6    1    1    2  501    0  0.40213933424E+01 -0.10430379620E+03  0.16962079067E+02  0.20276135143E+03  0.17300000000E+03 0.  1.
         -6    1    1    2    0  502 -0.40213933424E+01  0.10430379620E+03 -0.74901111980E+01  0.20218940445E+03  0.17300000000E+03 0.  1.
<mgrwt>
<rscale>  2 0.20205062E+03</rscale>
<asrwt>0</asrwt>
<pdfrwt beam="1">  1       21 0.31878671E-01 0.20205062E+03</pdfrwt>
<pdfrwt beam="2">  1       21 0.30421445E-01 0.20205062E+03</pdfrwt>
<totfact> 0.97755256E+04</totfact>
</mgrwt>
</event>
<event>
 4    1  0.3976152E+000  0.2556139E+03  0.7546771E-02  0.1109807E+00
         21   -1    0    0  501  502  0.00000000000E+00  0.00000000000E+00  0.42069154780E+03  0.42069154780E+03  0.00000000000E+00 0.  1.
         21   -1    0    0  502  503 -0.00000000000E+00 -0.00000000000E+00 -0.15544616280E+03  0.15544616280E+03  0.00000000000E+00 0. -1.
          6    1    1    2  501    0  0.17886934513E+03 -0.58440115567E+02  0.12416303497E+03  0.28417415257E+03  0.17300000000E+03 0.  1.
         -6    1    1    2    0  503 -0.17886934513E+03  0.58440115567E+02  0.14108235002E+03  0.29196355804E+03  0.17300000000E+03 0. -1.
<mgrwt>
<rscale>  2 0.25561395E+03</rscale>
<asrwt>0</asrwt>
<pdfrwt beam="1">  1       21 0.64721776E-01 0.25561395E+03</pdfrwt>
<pdfrwt beam="2">  1       21 0.23914794E-01 0.25561395E+03</pdfrwt>
<totfact> 0.35179966E+04</totfact>
</mgrwt>
</event>
<event>
 4    1  0.3976152E+000  0.2162885E+03  0.7546771E-02  0.1136681E+00
         21   -1    0    0  501  502  0.00000000000E+00  0.00000000000E+00  0.37934861103E+03  0.37934861103E+03  0.00000000000E+00 0. -1.
         21   -1    0    0  502  503 -0.00000000000E+00 -0.00000000000E+00 -0.14182964433E+03  0.14182964433E+03  0.00000000000E+00 0. -1.
          6    1    1    2  501    0  0.46139286172E+02  0.12133793032E+03  0.21290261349E+03  0.30349340997E+03  0.17300000000E+03 0. -1.
         -6    1    1    2    0  503 -0.46139286172E+02 -0.12133793032E+03  0.24616353208E+02  0.21768484538E+03  0.17300000000E+03 0. -1.
<mgrwt>
<rscale>  2 0.21628853E+03</rscale>
<asrwt>0</asrwt>
<pdfrwt beam="1">  1       21 0.58361324E-01 0.21628853E+03</pdfrwt>
<pdfrwt beam="2">  1       21 0.21819945E-01 0.21628853E+03</pdfrwt>
<totfact> 0.53304735E+04</totfact>
</mgrwt>
</event>
<event>
 4    1  0.3976152E+000  0.2349148E+03  0.7546771E-02  0.1123228E+00
         21   -1    0    0  503  502  0.00000000000E+00  0.00000000000E+00  0.54161881646E+03  0.54161881646E+03  0.00000000000E+00 0. -1.
         21   -1    0    0  501  503 -0.00000000000E+00 -0.00000000000E+00 -0.12268454238E+03  0.12268454238E+03  0.00000000000E+00 0.  1.
          6    1    1    2  501    0 -0.10387546833E+03 -0.12027400690E+03  0.72717048043E+02  0.24591201421E+03  0.17300000000E+03 0. -1.
         -6    1    1    2    0  502  0.10387546833E+03  0.12027400690E+03  0.34621722604E+03  0.41839134463E+03  0.17300000000E+03 0.  1.
<mgrwt>
<rscale>  2 0.23491477E+03</rscale>
<asrwt>0</asrwt>
<pdfrwt beam="1">  1       21 0.83325970E-01 0.23491477E+03</pdfrwt>
<pdfrwt beam="2">  1       21 0.18874545E-01 0.23491477E+03</pdfrwt>
<totfact> 0.31537492E+04</totfact>
</mgrwt>
</event>
<event>
 4    1  0.3976152E+000  0.2230537E+03  0.7546771E-02  0.1131627E+00
         21   -1    0    0  501  502  0.00000000000E+00  0.00000000000E+00  0.56669753624E+03  0.56669753624E+03  0.00000000000E+00 0.  1.
         21   -1    0    0  502  503 -0.00000000000E+00 -0.00000000000E+00 -0.95346213247E+02  0.95346213247E+02  0.00000000000E+00 0.  1.
          6    1    1    2  501    0 -0.11863254526E+03  0.75830469104E+02  0.32883513051E+03  0.39734806391E+03  0.17300000000E+03 0.  1.
         -6    1    1    2    0  503  0.11863254526E+03 -0.75830469104E+02  0.14251619249E+03  0.26469568557E+03  0.17300000000E+03 0.  1.
<mgrwt>
<rscale>  2 0.22305367E+03</rscale>
<asrwt>0</asrwt>
<pdfrwt beam="1">  1       21 0.87184234E-01 0.22305367E+03</pdfrwt>
<pdfrwt beam="2">  1       21 0.14668649E-01 0.22305367E+03</pdfrwt>
<totfact> 0.45494826E+04</totfact>
</mgrwt>
</event>
<event>
 4    1  0.3976152E+000  0.1834012E+03  0.7546771E-02  0.1164551E+00
         21   -1    0    0  501  502  0.00000000000E+00  0.00000000000E+00  0.61768243479E+03  0.61768243479E+03  0.00000000000E+00 0. -1.
         21   -1    0    0  502  503 -0.00000000000E+00 -0.00000000000E+00 -0.50045165479E+03  0.50045165479E+03  0.00000000000E+00 0. -1.
          6    1    1    2  501    0 -0.10686161392E+02  0.59939989108E+02  0.58639006899E+03  0.61440158638E+03  0.17300000000E+03 0. -1.
         -6    1    1    2    0  503  0.10686161392E+02 -0.59939989108E+02 -0.46915928899E+03  0.50373250320E+03  0.17300000000E+03 0. -1.
<mgrwt>
<rscale>  2 0.18340119E+03</rscale>
<asrwt>0</asrwt>
<pdfrwt beam="1">  1       21 0.95028067E-01 0.18340119E+03</pdfrwt>
<pdfrwt beam="2">  1       21 0.76992562E-01 0.18340119E+03</pdfrwt>
<totfact> 0.14005317E+03</totfact>
</mgrwt>
</event>
<event>
 4    1  0.3976152E+000  0.2097875E+03  0.7546771E-02  0.1141734E+00
         21   -1    0    0  503  502  0.00000000000E+00  0.00000000000E+00  0.59356551601E+02  0.59356551601E+02  0.00000000000E+00 0.  1.
         21   -1    0    0  501  503 -0.00000000000E+00 -0.00000000000E+00 -0.80407839940E+03  0.80407839940E+03  0.00000000000E+00 0.  1.
          6    1    1    2  501    0  0.41502580080E+02 -0.11117257999E+03 -0.49283233707E+03  0.53562535336E+03  0.17300000000E+03 0.  1.
         -6    1    1    2    0  502 -0.41502580080E+02  0.11117257999E+03 -0.25188951073E+03  0.32780959765E+03  0.17300000000E+03 0.  1.
<mgrwt>
<rscale>  2 0.20978753E+03</rscale>
<asrwt>0</asrwt>
<pdfrwt beam="1">  1       21 0.91317773E-02 0.20978753E+03</pdfrwt>
<pdfrwt beam="2">  1       21 0.12370437E+00 0.20978753E+03</pdfrwt>
<totfact> 0.46193249E+04</totfact>
</mgrwt>
</event>
<event>
 4    1  0.3976152E+000  0.2176888E+03  0.7546771E-02  0.1135618E+00
         21   -1    0    0  501  502  0.00000000000E+00  0.00000000000E+00  0.45518895151E+03  0.45518895151E+03  0.00000000000E+00 0. -1.
         21   -1    0    0  502  503 -0.00000000000E+00 -0.00000000000E+00 -0.12079050184E+03  0.12079050184E+03  0.00000000000E+00 0.  1.
          6    1    1    2  501    0 -0.10089339131E+03  0.85322642376E+02  0.27422838236E+03  0.35012802716E+03  0.17300000000E+03 0. -1.
         -6    1    1    2    0  503  0.10089339131E+03 -0.85322642376E+02  0.60170067309E+02  0.22585142619E+03  0.17300000000E+03 0.  1.
<mgrwt>
<rscale>  2 0.21768884E+03</rscale>
<asrwt>0</asrwt>
<pdfrwt beam="1">  1       21 0.70029068E-01 0.21768884E+03</pdfrwt>
<pdfrwt beam="2">  1       21 0.18583154E-01 0.21768884E+03</pdfrwt>
<totfact> 0.48401532E+04</totfact>
</mgrwt>
</event>
<event>
 4    1  0.3976152E+000  0.2257694E+03  0.7546771E-02  0.1129653E+00
         21   -1    0    0  501  502  0.00000000000E+00  0.00000000000E+00  0.18291592707E+04  0.18291592707E+04  0.00000000000E+00 0.  1.
         21   -1    0    0  502  503 -0.00000000000E+00 -0.00000000000E+00 -0.28045138100E+02  0.28045138100E+02  0.00000000000E+00 0.  1.
          6    1    1    2  501    0  0.14468202458E+03  0.10485718805E+02  0.82639661006E+03  0.85668150187E+03  0.17300000000E+03 0.  1.
         -6    1    1    2    0  503 -0.14468202458E+03 -0.10485718805E+02  0.97471752252E+03  0.10005229069E+04  0.17300000000E+03 0.  1.
<mgrwt>
<rscale>  2 0.22576944E+03</rscale>
<asrwt>0</asrwt>
<pdfrwt beam="1">  1       21 0.28140902E+00 0.22576944E+03</pdfrwt>
<pdfrwt beam="2">  1       21 0.43146381E-02 0.22576944E+03</pdfrwt>
<totfact> 0.14613695E+04</totfact>
</mgrwt>
</event>
<event>
 4    1  0.3976152E+000  0.1784175E+03  0.7546771E-02  0.1169343E+00
         21   -1    0    0  501  502  0.00000000000E+00  0.00000000000E+00  0.31216716121E+03  0.31216716121E+03  0.00000000000E+00 0.  1.
         21   -1    0    0  502  503 -0.00000000000E+00 -0.00000000000E+00 -0.10270902366E+03  0.10270902366E+03  0.00000000000E+00 0. -1.
          6    1    1    2  501    0  0.42127611822E+02  0.11361228571E+02  0.87176153262E+02  0.19857616899E+03  0.17300000000E+03 0. -1.
         -6    1    1    2    0  503 -0.42127611822E+02 -0.11361228571E+02  0.12228198429E+03  0.21630001589E+03  0.17300000000E+03 0.  1.
<mgrwt>
<rscale>  2 0.17841752E+03</rscale>
<asrwt>0</asrwt>
<pdfrwt beam="1">  1       21 0.48025717E-01 0.17841752E+03</pdfrwt>
<pdfrwt beam="2">  1       21 0.15801388E-01 0.17841752E+03</pdfrwt>
<totfact> 0.14849865E+05</totfact>
</mgrwt>
</event>
<event>
 4    1  0.3976152E+000  0.2264195E+03  0.7546771E-02  0.1129186E+00
         21   -1    0    0  501  502  0.00000000000E+00  0.00000000000E+00  0.72781428941E+02  0.72781428941E+02  0.00000000000E+00 0.  1.
         21   -1    0    0  502  503 -0.00000000000E+00 -0.00000000000E+00 -0.10102948792E+04  0.10102948792E+04  0.00000000000E+00 0. -1.
          6    1    1    2  501    0  0.12857785323E+03 -0.69314552630E+02 -0.17076418258E+03  0.28359509445E+03  0.17300000000E+03 0.  1.
         -6    1    1    2    0  503 -0.12857785323E+03  0.69314552630E+02 -0.76674926765E+03  0.79948121365E+03  0.17300000000E+03 0. -1.
<mgrwt>
<rscale>  2 0.22641946E+03</rscale>
<asrwt>0</asrwt>
<pdfrwt beam="1">  1       21 0.11197143E-01 0.22641946E+03</pdfrwt>
<pdfrwt beam="2">  1       21 0.15542998E+00 0.22641946E+03</pdfrwt>
<totfact> 0.17663429E+04</totfact>
</mgrwt>
</event>
<event>
 4    1  0.3976152E+000  0.1841380E+03  0.7546771E-02  0.1163857E+00
         21   -1    0    0  501  502  0.00000000000E+00  0.00000000000E+00  0.89022534277E+02  0.89022534277E+02  0.00000000000E+00 0.  1.
         21   -1    0    0  502  503 -0.00000000000E+00 -0.00000000000E+00 -0.76512227688E+03  0.76512227688E+03  0.00000000000E+00 0.  1.
          6    1    1    2  501    0  0.48881538535E+01 -0.62880173636E+02 -0.35400867262E+02  0.18751008423E+03  0.17300000000E+03 0.  1.
         -6    1    1    2    0  503 -0.48881538535E+01  0.62880173636E+02 -0.64069887534E+03  0.66663472693E+03  0.17300000000E+03 0.  1.
<mgrwt>
<rscale>  2 0.18413802E+03</rscale>
<asrwt>0</asrwt>
<pdfrwt beam="1">  1       21 0.13695775E-01 0.18413802E+03</pdfrwt>
<pdfrwt beam="2">  1       21 0.11771112E+00 0.18413802E+03</pdfrwt>
<totfact> 0.25754463E+04</totfact>
</mgrwt>
</event>
<event>
 4    1  0.3976152E+000  0.1753411E+03  0.7546771E-02  0.1172390E+00
         21   -1    0    0  501  502  0.00000000000E+00  0.00000000000E+00  0.55917051089E+02  0.55917051089E+02  0.00000000000E+00 0. -1.
         21   -1    0    0  502  503 -0.00000000000E+00 -0.00000000000E+00 -0.59096774761E+03  0.59096774761E+03  0.00000000000E+00 0. -1.
          6    1    1    2  501    0  0.11885967500E+02 -0.25965607435E+02 -0.18218164453E+03  0.25285300195E+03  0.17300000000E+03 0. -1.
         -6    1    1    2    0  503 -0.11885967500E+02  0.25965607435E+02 -0.35286905199E+03  0.39403179675E+03  0.17300000000E+03 0. -1.
<mgrwt>
<rscale>  2 0.17534106E+03</rscale>
<asrwt>0</asrwt>
<pdfrwt beam="1">  1       21 0.86026230E-02 0.17534106E+03</pdfrwt>
<pdfrwt beam="2">  1       21 0.90918117E-01 0.17534106E+03</pdfrwt>
<totfact> 0.10923205E+05</totfact>
</mgrwt>
</event>
<event>
 4    1  0.3976152E+000  0.1850031E+03  0.7546771E-02  0.1163047E+00
         21   -1    0    0  501  502  0.00000000000E+00  0.00000000000E+00  0.16515283051E+03  0.16515283051E+03  0.00000000000E+00 0. -1.
         21   -1    0    0  502  503 -0.00000000000E+00 -0.00000000000E+00 -0.22572230857E+03  0.22572230857E+03  0.00000000000E+00 0. -1.
          6    1    1    2  501    0  0.59523291464E+02  0.27461635692E+02  0.25640348073E+02  0.18677149437E+03  0.17300000000E+03 0. -1.
         -6    1    1    2    0  503 -0.59523291464E+02 -0.27461635692E+02 -0.86209826132E+02  0.20410364471E+03  0.17300000000E+03 0. -1.
<mgrwt>
<rscale>  2 0.18500315E+03</rscale>
<asrwt>0</asrwt>
<pdfrwt beam="1">  1       21 0.25408128E-01 0.18500315E+03</pdfrwt>
<pdfrwt beam="2">  1       21 0.34726509E-01 0.18500315E+03</pdfrwt>
<totfact> 0.11769335E+05</totfact>
</mgrwt>
</event>
<event>
 4    1  0.3976152E+000  0.2153255E+03  0.7546771E-02  0.1137417E+00
         21   -1    0    0  501  502  0.00000000000E+00  0.00000000000E+00  0.31014821148E+03  0.31014821148E+03  0.00000000000E+00 0. -1.
         21   -1    0    0  502  503 -0.00000000000E+00 -0.00000000000E+00 -0.23826678092E+03  0.23826678092E+03  0.00000000000E+00 0. -1.
          6    1    1    2  501    0  0.10480482271E+02 -0.12777415816E+03  0.20331519030E+03  0.29614547542E+03  0.17300000000E+03 0. -1.
         -6    1    1    2    0  503 -0.10480482271E+02  0.12777415816E+03 -0.13143375974E+03  0.25226951699E+03  0.17300000000E+03 0. -1.
<mgrwt>
<rscale>  2 0.21532551E+03</rscale>
<asrwt>0</asrwt>
<pdfrwt beam="1">  1       21 0.47715110E-01 0.21532551E+03</pdfrwt>
<pdfrwt beam="2">  1       21 0.36656428E-01 0.21532551E+03</pdfrwt>
<totfact> 0.29773740E+04</totfact>
</mgrwt>
</event>
<event>
 4    1  0.3976152E+000  0.3313231E+03  0.7546771E-02  0.1070553E+00
         21   -1    0    0  501  502  0.00000000000E+00  0.00000000000E+00  0.10061947428E+03  0.10061947428E+03  0.00000000000E+00 0. -1.
         21   -1    0    0  502  503 -0.00000000000E+00 -0.00000000000E+00 -0.11859862193E+04  0.11859862193E+04  0.00000000000E+00 0. -1.
          6    1    1    2  501    0 -0.14426091786E+03  0.24297073822E+03 -0.36061883436E+03  0.48971515777E+03  0.17300000000E+03 0. -1.
         -6    1    1    2    0  503  0.14426091786E+03 -0.24297073822E+03 -0.72474791062E+03  0.79689053577E+03  0.17300000000E+03 0. -1.
<mgrwt>
<rscale>  2 0.33132309E+03</rscale>
<asrwt>0</asrwt>
<pdfrwt beam="1">  1       21 0.15479919E-01 0.33132309E+03</pdfrwt>
<pdfrwt beam="2">  1       21 0.18245943E+00 0.33132309E+03</pdfrwt>
<totfact> 0.59129019E+03</totfact>
</mgrwt>
</event>
<event>
 4    1  0.3976152E+000  0.3952880E+03  0.7546771E-02  0.1045424E+00
         21   -1    0    0  501  502  0.00000000000E+00  0.00000000000E+00  0.60398566572E+03  0.60398566572E+03  0.00000000000E+00 0. -1.
         21   -1    0    0  502  503 -0.00000000000E+00 -0.00000000000E+00 -0.33317330821E+03  0.33317330821E+03  0.00000000000E+00 0. -1.
          6    1    1    2  501    0 -0.11917864205E+03 -0.33484328815E+03  0.35694065760E+03  0.53259666671E+03  0.17300000000E+03 0. -1.
         -6    1    1    2    0  503  0.11917864205E+03  0.33484328815E+03 -0.86128300096E+02  0.40456230721E+03  0.17300000000E+03 0. -1.
<mgrwt>
<rscale>  2 0.39528797E+03</rscale>
<asrwt>0</asrwt>
<pdfrwt beam="1">  1       21 0.92920871E-01 0.39528797E+03</pdfrwt>
<pdfrwt beam="2">  1       21 0.51257432E-01 0.39528797E+03</pdfrwt>
<totfact> 0.31362734E+03</totfact>
</mgrwt>
</event>
<event>
 4    1  0.3976152E+000  0.2089003E+03  0.7546771E-02  0.1142440E+00
         21   -1    0    0  501  502  0.00000000000E+00  0.00000000000E+00  0.20400079956E+04  0.20400079956E+04  0.00000000000E+00 0. -1.
         21   -1    0    0  502  503 -0.00000000000E+00 -0.00000000000E+00 -0.24750581316E+02  0.24750581316E+02  0.00000000000E+00 0. -1.
          6    1    1    2  501    0 -0.11390283515E+03  0.27137824684E+02  0.13879419322E+04  0.14035747663E+04  0.17300000000E+03 0. -1.
         -6    1    1    2    0  503  0.11390283515E+03 -0.27137824684E+02  0.62731548208E+03  0.66118381063E+03  0.17300000000E+03 0. -1.
<mgrwt>
<rscale>  2 0.20890026E+03</rscale>
<asrwt>0</asrwt>
<pdfrwt beam="1">  1       21 0.31384725E+00 0.20890026E+03</pdfrwt>
<pdfrwt beam="2">  1       21 0.38077833E-02 0.20890026E+03</pdfrwt>
<totfact> 0.11882350E+04</totfact>
</mgrwt>
</event>
<event>
 4    1  0.3976152E+000  0.1850932E+03  0.7546771E-02  0.1162963E+00
         21   -1    0    0  501  502  0.00000000000E+00  0.00000000000E+00  0.27533798005E+03  0.27533798005E+03  0.00000000000E+00 0. -1.
         21   -1    0    0  502  503 -0.00000000000E+00 -0.00000000000E+00 -0.17408036226E+03  0.17408036226E+03  0.00000000000E+00 0.  1.
          6    1    1    2  501    0  0.63182644880E+02 -0.18397140343E+02  0.17063948428E+03  0.25174855508E+03  0.17300000000E+03 0.  1.
         -6    1    1    2    0  503 -0.63182644880E+02  0.18397140343E+02 -0.69381866491E+02  0.19766978723E+03  0.17300000000E+03 0.  1.
<mgrwt>
<rscale>  2 0.18509322E+03</rscale>
<asrwt>0</asrwt>
<pdfrwt beam="1">  1       21 0.42359689E-01 0.18509322E+03</pdfrwt>
<pdfrwt beam="2">  1       21 0.26781594E-01 0.18509322E+03</pdfrwt>
<totfact> 0.71411782E+04</totfact>
</mgrwt>
</event>
<event>
 4    1  0.3976152E+000  0.1805146E+03  0.7546771E-02  0.1167306E+00
         21   -1    0    0  501  502  0.00000000000E+00  0.00000000000E+00  0.55287247524E+03  0.55287247524E+03  0.00000000000E+00 0. -1.
         21   -1    0    0  502  503 -0.00000000000E+00 -0.00000000000E+00 -0.67880142914E+02  0.67880142914E+02  0.00000000000E+00 0. -1.
          6    1    1    2  501    0 -0.18249156516E+00  0.51541057955E+02  0.35514432893E+03  0.39838801228E+03  0.17300000000E+03 0. -1.
         -6    1    1    2    0  503  0.18249156516E+00 -0.51541057955E+02  0.12984800339E+03  0.22236460587E+03  0.17300000000E+03 0. -1.
<mgrwt>
<rscale>  2 0.18051458E+03</rscale>
<asrwt>0</asrwt>
<pdfrwt beam="1">  1       21 0.85057301E-01 0.18051458E+03</pdfrwt>
<pdfrwt beam="2">  1       21 0.10443099E-01 0.18051458E+03</pdfrwt>
<totfact> 0.90363535E+04</totfact>
</mgrwt>
</event>
<event>
 4    1  0.3976152E+000  0.2288858E+03  0.7546771E-02  0.1127426E+00
         21   -1    0    0  501  502  0.00000000000E+00  0.00000000000E+00  0.20331594779E+03  0.20331594779E+03  0.00000000000E+00 0. -1.
         21   -1    0    0  502  503 -0.00000000000E+00 -0.00000000000E+00 -0.33766101113E+03  0.33766101113E+03  0.00000000000E+00 0.  1.
          6    1    1    2  501    0 -0.14768631777E+03  0.25464538067E+02  0.64478810360E+02  0.23779446617E+03  0.17300000000E+03 0. -1.
         -6    1    1    2    0  503  0.14768631777E+03 -0.25464538067E+02 -0.19882387370E+03  0.30318249275E+03  0.17300000000E+03 0.  1.
<mgrwt>
<rscale>  2 0.22888576E+03</rscale>
<asrwt>0</asrwt>
<pdfrwt beam="1">  1       21 0.31279377E-01 0.22888576E+03</pdfrwt>
<pdfrwt beam="2">  1       21 0.51947847E-01 0.22888576E+03</pdfrwt>
<totfact> 0.33915757E+04</totfact>
</mgrwt>
</event>
<event>
 4    1  0.3976152E+000  0.1967727E+03  0.7546771E-02  0.1152491E+00
         21   -1    0    0  501  502  0.00000000000E+00  0.00000000000E+00  0.54081255798E+02  0.54081255798E+02  0.00000000000E+00 0.  1.
         21   -1    0    0  502  503 -0.00000000000E+00 -0.00000000000E+00 -0.95965308839E+03  0.95965308839E+03  0.00000000000E+00 0.  1.
          6    1    1    2  501    0  0.84971563139E+02  0.39627310142E+02 -0.19735862465E+03  0.27869323095E+03  0.17300000000E+03 0.  1.
         -6    1    1    2    0  503 -0.84971563139E+02 -0.39627310142E+02 -0.70821320794E+03  0.73504111324E+03  0.17300000000E+03 0.  1.
<mgrwt>
<rscale>  2 0.19677269E+03</rscale>
<asrwt>0</asrwt>
<pdfrwt beam="1">  1       21 0.83201925E-02 0.19677269E+03</pdfrwt>
<pdfrwt beam="2">  1       21 0.14763895E+00 0.19677269E+03</pdfrwt>
<totfact> 0.34835865E+04</totfact>
</mgrwt>
</event>
<event>
 4    1  0.3976152E+000  0.1825043E+03  0.7546771E-02  0.1165401E+00
         21   -1    0    0  501  502  0.00000000000E+00  0.00000000000E+00  0.34217088575E+03  0.34217088575E+03  0.00000000000E+00 0.  1.
         21   -1    0    0  502  503 -0.00000000000E+00 -0.00000000000E+00 -0.10596349113E+03  0.10596349113E+03  0.00000000000E+00 0.  1.
          6    1    1    2  501    0 -0.39593808154E+01  0.57992669491E+02  0.18201453960E+03  0.25775398937E+03  0.17300000000E+03 0.  1.
         -6    1    1    2    0  503  0.39593808154E+01 -0.57992669491E+02  0.54192855026E+02  0.19038038751E+03  0.17300000000E+03 0.  1.
<mgrwt>
<rscale>  2 0.18250432E+03</rscale>
<asrwt>0</asrwt>
<pdfrwt beam="1">  1       21 0.52641674E-01 0.18250432E+03</pdfrwt>
<pdfrwt beam="2">  1       21 0.16302076E-01 0.18250432E+03</pdfrwt>
<totfact> 0.11569201E+05</totfact>
</mgrwt>
</event>
<event>
 4    1  0.3976152E+000  0.1764563E+03  0.7546771E-02  0.1171277E+00
         21   -1    0    0  503  502  0.00000000000E+00  0.00000000000E+00  0.22947327595E+03  0.22947327595E+03  0.00000000000E+00 0. -1.
         21   -1    0    0  501  503 -0.00000000000E+00 -0.00000000000E+00 -0.19708133982E+03  0.19708133982E+03  0.00000000000E+00 0. -1.
          6    1    1    2  501    0  0.19638946560E+02  0.28673020831E+02 -0.10284092825E+03  0.20423781939E+03  0.17300000000E+03 0. -1.
         -6    1    1    2    0  502 -0.19638946560E+02 -0.28673020831E+02  0.13523286438E+03  0.22231679638E+03  0.17300000000E+03 0. -1.
<mgrwt>
<rscale>  2 0.17645631E+03</rscale>
<asrwt>0</asrwt>
<pdfrwt beam="1">  1       21 0.35303581E-01 0.17645631E+03</pdfrwt>
<pdfrwt beam="2">  1       21 0.30320206E-01 0.17645631E+03</pdfrwt>
<totfact> 0.81275710E+04</totfact>
</mgrwt>
</event>
<event>
 4    1  0.3976152E+000  0.2753484E+03  0.7546771E-02  0.1098257E+00
         21   -1    0    0  503  502  0.00000000000E+00  0.00000000000E+00  0.88347230810E+03  0.88347230810E+03  0.00000000000E+00 0.  1.
         21   -1    0    0  501  503 -0.00000000000E+00 -0.00000000000E+00 -0.44718088740E+03  0.44718088740E+03  0.00000000000E+00 0.  1.
          6    1    1    2  501    0 -0.17354390606E+03 -0.12557974056E+03 -0.37994322648E+03  0.46922661255E+03  0.17300000000E+03 0.  1.
         -6    1    1    2    0  502  0.17354390606E+03  0.12557974056E+03  0.81623464718E+03  0.86142658296E+03  0.17300000000E+03 0.  1.
<mgrwt>
<rscale>  2 0.27534843E+03</rscale>
<asrwt>0</asrwt>
<pdfrwt beam="1">  1       21 0.13591882E+00 0.27534843E+03</pdfrwt>
<pdfrwt beam="2">  1       21 0.68797060E-01 0.27534843E+03</pdfrwt>
<totfact> 0.68930050E+02</totfact>
</mgrwt>
</event>
<event>
 4    1  0.3976152E+000  0.1888810E+03  0.7546771E-02  0.1159474E+00
         21   -1    0    0  501  502  0.00000000000E+00  0.00000000000E+00  0.61356406066E+02  0.61356406066E+02  0.00000000000E+00 0.  1.
         21   -1    0    0  502  503 -0.00000000000E+00 -0.00000000000E+00 -0.86837868941E+03  0.86837868941E+03  0.00000000000E+00 0.  1.
          6    1    1    2  501    0 -0.44857503142E+01  0.75676409740E+02 -0.13629836840E+03  0.23292334828E+03  0.17300000000E+03 0.  1.
         -6    1    1    2    0  503  0.44857503142E+01 -0.75676409740E+02 -0.67072391494E+03  0.69681174719E+03  0.17300000000E+03 0.  1.
<mgrwt>
<rscale>  2 0.18888102E+03</rscale>
<asrwt>0</asrwt>
<pdfrwt beam="1">  1       21 0.94394473E-02 0.18888102E+03</pdfrwt>
<pdfrwt beam="2">  1       21 0.13359672E+00 0.18888102E+03</pdfrwt>
<totfact> 0.36318016E+04</totfact>
</mgrwt>
</event>
<event>
 4    1  0.3976152E+000  0.1752819E+03  0.7546771E-02  0.1172449E+00
         21   -1    0    0  501  502  0.00000000000E+00  0.00000000000E+00  0.18065089271E+03  0.18065089271E+03  0.00000000000E+00 0. -1.
         21   -1    0    0  502  503 -0.00000000000E+00 -0.00000000000E+00 -0.28018803320E+03  0.28018803320E+03  0.00000000000E+00 0. -1.
          6    1    1    2  501    0 -0.77341982435E+01  0.27109599902E+02  0.94681803431E+02  0.19921945721E+03  0.17300000000E+03 0. -1.
         -6    1    1    2    0  503  0.77341982435E+01 -0.27109599902E+02 -0.19421894392E+03  0.26161946870E+03  0.17300000000E+03 0. -1.
<mgrwt>
<rscale>  2 0.17528191E+03</rscale>
<asrwt>0</asrwt>
<pdfrwt beam="1">  1       21 0.27792445E-01 0.17528191E+03</pdfrwt>
<pdfrwt beam="2">  1       21 0.43105851E-01 0.17528191E+03</pdfrwt>
<totfact> 0.64451332E+04</totfact>
</mgrwt>
</event>
<event>
 4    1  0.3976152E+000  0.2106032E+03  0.7546771E-02  0.1141089E+00
         21   -1    0    0  503  502  0.00000000000E+00  0.00000000000E+00  0.18449593568E+02  0.18449593568E+02  0.00000000000E+00 0. -1.
         21   -1    0    0  501  503 -0.00000000000E+00 -0.00000000000E+00 -0.24335767187E+04  0.24335767187E+04  0.00000000000E+00 0.  1.
          6    1    1    2  501    0 -0.54734619256E+02  0.10690577156E+03 -0.10725152001E+04  0.10929970617E+04  0.17300000000E+03 0. -1.
         -6    1    1    2    0  502  0.54734619256E+02 -0.10690577156E+03 -0.13426119250E+04  0.13590292505E+04  0.17300000000E+03 0.  1.
<mgrwt>
<rscale>  2 0.21060323E+03</rscale>
<asrwt>0</asrwt>
<pdfrwt beam="1">  1       21 0.28383994E-02 0.21060323E+03</pdfrwt>
<pdfrwt beam="2">  1       21 0.37439637E+00 0.21060323E+03</pdfrwt>
<totfact> 0.84851214E+03</totfact>
</mgrwt>
</event>
<event>
 4    1  0.3976152E+000  0.1777488E+03  0.7546771E-02  0.1170000E+00
         21   -1    0    0  501  502  0.00000000000E+00  0.00000000000E+00  0.21898061122E+02  0.21898061122E+02  0.00000000000E+00 0.  1.
         21   -1    0    0  502  503 -0.00000000000E+00 -0.00000000000E+00 -0.21230130045E+04  0.21230130045E+04  0.00000000000E+00 0.  1.
          6    1    1    2  501    0 -0.39255163011E+02 -0.11164716268E+02 -0.44350807637E+03  0.47780124792E+03  0.17300000000E+03 0.  1.
         -6    1    1    2    0  503  0.39255163011E+02  0.11164716268E+02 -0.16576068670E+04  0.16671098177E+04  0.17300000000E+03 0.  1.
<mgrwt>
<rscale>  2 0.17774875E+03</rscale>
<asrwt>0</asrwt>
<pdfrwt beam="1">  1       21 0.33689328E-02 0.17774875E+03</pdfrwt>
<pdfrwt beam="2">  1       21 0.32661735E+00 0.17774875E+03</pdfrwt>
<totfact> 0.12724466E+04</totfact>
</mgrwt>
</event>
<event>
 4    1  0.3976152E+000  0.1877907E+03  0.7546771E-02  0.1160469E+00
         21   -1    0    0  503  502  0.00000000000E+00  0.00000000000E+00  0.11712920940E+03  0.11712920940E+03  0.00000000000E+00 0. -1.
         21   -1    0    0  501  503 -0.00000000000E+00 -0.00000000000E+00 -0.31791873995E+03  0.31791873995E+03  0.00000000000E+00 0. -1.
          6    1    1    2  501    0 -0.72320842388E+02 -0.10298413255E+02 -0.15045500669E+03  0.24062849083E+03  0.17300000000E+03 0. -1.
         -6    1    1    2    0  502  0.72320842388E+02  0.10298413255E+02 -0.50334523867E+02  0.19441945852E+03  0.17300000000E+03 0. -1.
<mgrwt>
<rscale>  2 0.18779074E+03</rscale>
<asrwt>0</asrwt>
<pdfrwt beam="1">  1       21 0.18019879E-01 0.18779074E+03</pdfrwt>
<pdfrwt beam="2">  1       21 0.48910575E-01 0.18779074E+03</pdfrwt>
<totfact> 0.11197032E+05</totfact>
</mgrwt>
</event>
<event>
 4    1  0.3976152E+000  0.2040649E+03  0.7546771E-02  0.1146354E+00
         21   -1    0    0  503  502  0.00000000000E+00  0.00000000000E+00  0.12043512401E+03  0.12043512401E+03  0.00000000000E+00 0. -1.
         21   -1    0    0  501  503 -0.00000000000E+00 -0.00000000000E+00 -0.78391478568E+03  0.78391478568E+03  0.00000000000E+00 0. -1.
          6    1    1    2  501    0 -0.10816593761E+03 -0.36880313301E+01 -0.66979102030E+03  0.70018746240E+03  0.17300000000E+03 0. -1.
         -6    1    1    2    0  502  0.10816593761E+03  0.36880313301E+01  0.63113586226E+01  0.20416244728E+03  0.17300000000E+03 0. -1.
<mgrwt>
<rscale>  2 0.20406487E+03</rscale>
<asrwt>0</asrwt>
<pdfrwt beam="1">  1       21 0.18528480E-01 0.20406487E+03</pdfrwt>
<pdfrwt beam="2">  1       21 0.12060228E+00 0.20406487E+03</pdfrwt>
<totfact> 0.13772226E+04</totfact>
</mgrwt>
</event>
<event>
 4    1  0.3976152E+000  0.2220035E+03  0.7546771E-02  0.1132398E+00
         21   -1    0    0  501  502  0.00000000000E+00  0.00000000000E+00  0.67705318695E+03  0.67705318695E+03  0.00000000000E+00 0.  1.
         21   -1    0    0  502  503 -0.00000000000E+00 -0.00000000000E+00 -0.89203690154E+02  0.89203690154E+02  0.00000000000E+00 0. -1.
          6    1    1    2  501    0  0.39948379003E+02 -0.13326918945E+03  0.45824853368E+03  0.50919276160E+03  0.17300000000E+03 0.  1.
         -6    1    1    2    0  503 -0.39948379003E+02  0.13326918945E+03  0.12960096311E+03  0.25706411550E+03  0.17300000000E+03 0. -1.
<mgrwt>
<rscale>  2 0.22200349E+03</rscale>
<asrwt>0</asrwt>
<pdfrwt beam="1">  1       21 0.10416203E+00 0.22200349E+03</pdfrwt>
<pdfrwt beam="2">  1       21 0.13723645E-01 0.22200349E+03</pdfrwt>
<totfact> 0.33789611E+04</totfact>
</mgrwt>
</event>
<event>
 4    1  0.3976152E+000  0.2259830E+03  0.7546771E-02  0.1129500E+00
         21   -1    0    0  503  502  0.00000000000E+00  0.00000000000E+00  0.23236523999E+04  0.23236523999E+04  0.00000000000E+00 0. -1.
         21   -1    0    0  501  503 -0.00000000000E+00 -0.00000000000E+00 -0.30681291642E+02  0.30681291642E+02  0.00000000000E+00 0.  1.
          6    1    1    2  501    0  0.17784607548E+02  0.14430179529E+03  0.51950657775E+03  0.56652924436E+03  0.17300000000E+03 0.  1.
         -6    1    1    2    0  502 -0.17784607548E+02 -0.14430179529E+03  0.17734645305E+04  0.17878044472E+04  0.17300000000E+03 0. -1.
<mgrwt>
<rscale>  2 0.22598296E+03</rscale>
<asrwt>0</asrwt>
<pdfrwt beam="1">  1       21 0.35748485E+00 0.22598296E+03</pdfrwt>
<pdfrwt beam="2">  1       21 0.47202006E-02 0.22598296E+03</pdfrwt>
<totfact> 0.44972556E+03</totfact>
</mgrwt>
</event>
<event>
 4    1  0.3976152E+000  0.1785001E+03  0.7546771E-02  0.1169263E+00
         21   -1    0    0  501  502  0.00000000000E+00  0.00000000000E+00  0.10530387796E+04  0.10530387796E+04  0.00000000000E+00 0. -1.
         21   -1    0    0  502  503 -0.00000000000E+00 -0.00000000000E+00 -0.30403004868E+02  0.30403004868E+02  0.00000000000E+00 0. -1.
          6    1    1    2  501    0  0.25250005551E+02  0.35995908445E+02  0.54880057475E+03  0.57709993853E+03  0.17300000000E+03 0. -1.
         -6    1    1    2    0  503 -0.25250005551E+02 -0.35995908445E+02  0.47383519997E+03  0.50634184592E+03  0.17300000000E+03 0. -1.
<mgrwt>
<rscale>  2 0.17850005E+03</rscale>
<asrwt>0</asrwt>
<pdfrwt beam="1">  1       21 0.16200594E+00 0.17850005E+03</pdfrwt>
<pdfrwt beam="2">  1       21 0.46773862E-02 0.17850005E+03</pdfrwt>
<totfact> 0.73843526E+04</totfact>
</mgrwt>
</event>
<event>
 4    1  0.3976152E+000  0.2109531E+03  0.7546771E-02  0.1140813E+00
         21   -1    0    0  503  502  0.00000000000E+00  0.00000000000E+00  0.73634984512E+03  0.73634984512E+03  0.00000000000E+00 0.  1.
         21   -1    0    0  501  503 -0.00000000000E+00 -0.00000000000E+00 -0.73871419525E+02  0.73871419525E+02  0.00000000000E+00 0. -1.
          6    1    1    2  501    0  0.73677760822E+00 -0.12071308933E+03  0.15846472518E+03  0.26384135745E+03  0.17300000000E+03 0. -1.
         -6    1    1    2    0  502 -0.73677760822E+00  0.12071308933E+03  0.50401370042E+03  0.54637990719E+03  0.17300000000E+03 0.  1.
<mgrwt>
<rscale>  2 0.21095306E+03</rscale>
<asrwt>0</asrwt>
<pdfrwt beam="1">  1       21 0.11328459E+00 0.21095306E+03</pdfrwt>
<pdfrwt beam="2">  1       21 0.11364834E-01 0.21095306E+03</pdfrwt>
<totfact> 0.38932395E+04</totfact>
</mgrwt>
</event>
<event>
 4    1  0.3976152E+000  0.1821766E+03  0.7546771E-02  0.1165713E+00
         21   -1    0    0  501  502  0.00000000000E+00  0.00000000000E+00  0.23955881511E+04  0.23955881511E+04  0.00000000000E+00 0.  1.
         21   -1    0    0  502  503 -0.00000000000E+00 -0.00000000000E+00 -0.22417809304E+02  0.22417809304E+02  0.00000000000E+00 0.  1.
          6    1    1    2  501    0  0.56672756831E+02 -0.68924755440E+01  0.19338354509E+04  0.19423974513E+04  0.17300000000E+03 0.  1.
         -6    1    1    2    0  503 -0.56672756831E+02  0.68924755440E+01  0.43933489082E+03  0.47560850905E+03  0.17300000000E+03 0.  1.
<mgrwt>
<rscale>  2 0.18217658E+03</rscale>
<asrwt>0</asrwt>
<pdfrwt beam="1">  1       21 0.36855182E+00 0.18217658E+03</pdfrwt>
<pdfrwt beam="2">  1       21 0.34488956E-02 0.18217658E+03</pdfrwt>
<totfact> 0.69019491E+03</totfact>
</mgrwt>
</event>
<event>
 4    1  0.3976152E+000  0.1989258E+03  0.7546771E-02  0.1150649E+00
         21   -1    0    0  501  502  0.00000000000E+00  0.00000000000E+00  0.13559562742E+03  0.13559562742E+03  0.00000000000E+00 0. -1.
         21   -1    0    0  502  503 -0.00000000000E+00 -0.00000000000E+00 -0.29981104822E+03  0.29981104822E+03  0.00000000000E+00 0. -1.
          6    1    1    2  501    0 -0.71379014661E+02 -0.67435113501E+02 -0.46597474321E+02  0.20431050604E+03  0.17300000000E+03 0. -1.
         -6    1    1    2    0  503  0.71379014661E+02  0.67435113501E+02 -0.11761794649E+03  0.23109616960E+03  0.17300000000E+03 0. -1.
<mgrwt>
<rscale>  2 0.19892576E+03</rscale>
<asrwt>0</asrwt>
<pdfrwt beam="1">  1       21 0.20860866E-01 0.19892576E+03</pdfrwt>
<pdfrwt beam="2">  1       21 0.46124777E-01 0.19892576E+03</pdfrwt>
<totfact> 0.95835144E+04</totfact>
</mgrwt>
</event>
<event>
 4    1  0.3976152E+000  0.1971926E+03  0.7546771E-02  0.1152129E+00
         21   -1    0    0  501  502  0.00000000000E+00  0.00000000000E+00  0.40839683845E+03  0.40839683845E+03  0.00000000000E+00 0.  1.
         21   -1    0    0  502  503 -0.00000000000E+00 -0.00000000000E+00 -0.11877323902E+03  0.11877323902E+03  0.00000000000E+00 0.  1.
          6    1    1    2  501    0 -0.92482127648E+02  0.20074371999E+02  0.26220581897E+03  0.32808050208E+03  0.17300000000E+03 0.  1.
         -6    1    1    2    0  503  0.92482127648E+02 -0.20074371999E+02  0.27417780461E+02  0.19908957540E+03  0.17300000000E+03 0.  1.
<mgrwt>
<rscale>  2 0.19719261E+03</rscale>
<asrwt>0</asrwt>
<pdfrwt beam="1">  1       21 0.62830282E-01 0.19719261E+03</pdfrwt>
<pdfrwt beam="2">  1       21 0.18272806E-01 0.19719261E+03</pdfrwt>
<totfact> 0.63928137E+04</totfact>
</mgrwt>
</event>
<event>
 4    1  0.3976152E+000  0.1842487E+03  0.7546771E-02  0.1163753E+00
         21   -1    0    0  503  502  0.00000000000E+00  0.00000000000E+00  0.57110837379E+03  0.57110837379E+03  0.00000000000E+00 0. -1.
         21   -1    0    0  501  503 -0.00000000000E+00 -0.00000000000E+00 -0.64384704152E+02  0.64384704152E+02  0.00000000000E+00 0.  1.
          6    1    1    2  501    0  0.43327781745E+02 -0.46273961255E+02  0.16531964306E+03  0.24754425976E+03  0.17300000000E+03 0.  1.
         -6    1    1    2    0  502 -0.43327781745E+02  0.46273961255E+02  0.34140402659E+03  0.38794881818E+03  0.17300000000E+03 0. -1.
<mgrwt>
<rscale>  2 0.18424868E+03</rscale>
<asrwt>0</asrwt>
<pdfrwt beam="1">  1       21 0.87862824E-01 0.18424868E+03</pdfrwt>
<pdfrwt beam="2">  1       21 0.99053395E-02 0.18424868E+03</pdfrwt>
<totfact> 0.91955381E+04</totfact>
</mgrwt>
</event>
<event>
 4    1  0.3976152E+000  0.1983084E+03  0.7546771E-02  0.1151174E+00
         21   -1    0    0  503  502  0.00000000000E+00  0.00000000000E+00  0.80623002476E+02  0.80623002476E+02  0.00000000000E+00 0. -1.
         21   -1    0    0  501  503 -0.00000000000E+00 -0.00000000000E+00 -0.49840941511E+03  0.49840941511E+03  0.00000000000E+00 0. -1.
          6    1    1    2  501    0  0.89398174217E+02  0.37485870717E+02 -0.25117473564E+03  0.32002339271E+03  0.17300000000E+03 0. -1.
         -6    1    1    2    0  502 -0.89398174217E+02 -0.37485870717E+02 -0.16661167699E+03  0.25900902488E+03  0.17300000000E+03 0. -1.
<mgrwt>
<rscale>  2 0.19830841E+03</rscale>
<asrwt>0</asrwt>
<pdfrwt beam="1">  1       21 0.12403539E-01 0.19830841E+03</pdfrwt>
<pdfrwt beam="2">  1       21 0.76678369E-01 0.19830841E+03</pdfrwt>
<totfact> 0.83478776E+04</totfact>
</mgrwt>
</event>
<event>
 4    1  0.3976152E+000  0.2430595E+03  0.7546771E-02  0.1117771E+00
         21   -1    0    0  501  502  0.00000000000E+00  0.00000000000E+00  0.49882007216E+03  0.49882007216E+03  0.00000000000E+00 0. -1.
         21   -1    0    0  502  503 -0.00000000000E+00 -0.00000000000E+00 -0.13685216969E+03  0.13685216969E+03  0.00000000000E+00 0.  1.
          6    1    1    2  501    0  0.33828647129E+02 -0.16734551345E+03  0.29758044022E+03  0.38422911998E+03  0.17300000000E+03 0. -1.
         -6    1    1    2    0  503 -0.33828647129E+02  0.16734551345E+03  0.64387462254E+02  0.25144312187E+03  0.17300000000E+03 0.  1.
<mgrwt>
<rscale>  2 0.24305945E+03</rscale>
<asrwt>0</asrwt>
<pdfrwt beam="1">  1       21 0.76741549E-01 0.24305945E+03</pdfrwt>
<pdfrwt beam="2">  1       21 0.21054180E-01 0.24305945E+03</pdfrwt>
<totfact> 0.30858370E+04</totfact>
</mgrwt>
</event>
<event>
 4    1  0.3976152E+000  0.2764796E+03  0.7546771E-02  0.1097627E+00
         21   -1    0    0  503  502  0.00000000000E+00  0.00000000000E+00  0.19573155170E+04  0.19573155170E+04  0.00000000000E+00 0. -1.
         21   -1    0    0  501  503 -0.00000000000E+00 -0.00000000000E+00 -0.62340197061E+02  0.62340197061E+02  0.00000000000E+00 0.  1.
          6    1    1    2  501    0 -0.21409662145E+03  0.25972865965E+02  0.33030634385E+03  0.43074729700E+03  0.17300000000E+03 0.  1.
         -6    1    1    2    0  502  0.21409662145E+03 -0.25972865965E+02  0.15646689761E+04  0.15889084171E+04  0.17300000000E+03 0. -1.
<mgrwt>
<rscale>  2 0.27647957E+03</rscale>
<asrwt>0</asrwt>
<pdfrwt beam="1">  1       21 0.30112542E+00 0.27647957E+03</pdfrwt>
<pdfrwt beam="2">  1       21 0.95908010E-02 0.27647957E+03</pdfrwt>
<totfact> 0.26951022E+03</totfact>
</mgrwt>
</event>
<event>
 4    1  0.3976152E+000  0.1856100E+03  0.7546771E-02  0.1162481E+00
         21   -1    0    0  501  502  0.00000000000E+00  0.00000000000E+00  0.15465557616E+03  0.15465557616E+03  0.00000000000E+00 0. -1.
         21   -1    0    0  502  503 -0.00000000000E+00 -0.00000000000E+00 -0.22324951543E+03  0.22324951543E+03  0.00000000000E+00 0. -1.
          6    1    1    2  501    0  0.49340841389E+02 -0.45689690513E+02 -0.25448493299E+02  0.18734644982E+03  0.17300000000E+03 0. -1.
         -6    1    1    2    0  503 -0.49340841389E+02  0.45689690513E+02 -0.43145445966E+02  0.19055864178E+03  0.17300000000E+03 0. -1.
<mgrwt>
<rscale>  2 0.18560998E+03</rscale>
<asrwt>0</asrwt>
<pdfrwt beam="1">  1       21 0.23793165E-01 0.18560998E+03</pdfrwt>
<pdfrwt beam="2">  1       21 0.34346080E-01 0.18560998E+03</pdfrwt>
<totfact> 0.13628152E+05</totfact>
</mgrwt>
</event>
<event>
 4    1  0.3976152E+000  0.1806456E+03  0.7546771E-02  0.1167180E+00
         21   -1    0    0  503  502  0.00000000000E+00  0.00000000000E+00  0.76247096716E+02  0.76247096716E+02  0.00000000000E+00 0.  1.
         21   -1    0    0  501  503 -0.00000000000E+00 -0.00000000000E+00 -0.77552254789E+03  0.77552254789E+03  0.00000000000E+00 0.  1.
          6    1    1    2  501    0 -0.30212033053E+02  0.42321023730E+02 -0.63473560889E+03  0.65994100433E+03  0.17300000000E+03 0.  1.
         -6    1    1    2    0  502  0.30212033053E+02 -0.42321023730E+02 -0.64539842281E+02  0.19182864028E+03  0.17300000000E+03 0.  1.
<mgrwt>
<rscale>  2 0.18064561E+03</rscale>
<asrwt>0</asrwt>
<pdfrwt beam="1">  1       21 0.11730323E-01 0.18064561E+03</pdfrwt>
<pdfrwt beam="2">  1       21 0.11931115E+00 0.18064561E+03</pdfrwt>
<totfact> 0.32964406E+04</totfact>
</mgrwt>
</event>
<event>
 4    1  0.3976152E+000  0.2182386E+03  0.7546771E-02  0.1135203E+00
         21   -1    0    0  503  502  0.00000000000E+00  0.00000000000E+00  0.42848545920E+03  0.42848545920E+03  0.00000000000E+00 0. -1.
         21   -1    0    0  501  503 -0.00000000000E+00 -0.00000000000E+00 -0.27075503629E+03  0.27075503629E+03  0.00000000000E+00 0.  1.
          6    1    1    2  501    0 -0.13197585268E+03 -0.16777255039E+02 -0.18956131404E+03  0.28907022288E+03  0.17300000000E+03 0.  1.
         -6    1    1    2    0  502  0.13197585268E+03  0.16777255039E+02  0.34729173695E+03  0.41017027260E+03  0.17300000000E+03 0. -1.
<mgrwt>
<rscale>  2 0.21823864E+03</rscale>
<asrwt>0</asrwt>
<pdfrwt beam="1">  1       21 0.65920840E-01 0.21823864E+03</pdfrwt>
<pdfrwt beam="2">  1       21 0.41654621E-01 0.21823864E+03</pdfrwt>
<totfact> 0.11533820E+04</totfact>
</mgrwt>
</event>
<event>
 4    1  0.3976152E+000  0.1988100E+03  0.7546771E-02  0.1150747E+00
         21   -1    0    0  501  502  0.00000000000E+00  0.00000000000E+00  0.42712543286E+02  0.42712543286E+02  0.00000000000E+00 0. -1.
         21   -1    0    0  502  503 -0.00000000000E+00 -0.00000000000E+00 -0.22765930235E+04  0.22765930235E+04  0.00000000000E+00 0.  1.
          6    1    1    2  501    0  0.28407082143E+02  0.93752096499E+02 -0.22353834927E+03  0.29915683430E+03  0.17300000000E+03 0. -1.
         -6    1    1    2    0  503 -0.28407082143E+02 -0.93752096499E+02 -0.20103421309E+04  0.20201487324E+04  0.17300000000E+03 0.  1.
<mgrwt>
<rscale>  2 0.19881000E+03</rscale>
<asrwt>0</asrwt>
<pdfrwt beam="1">  1       21 0.65711615E-02 0.19881000E+03</pdfrwt>
<pdfrwt beam="2">  1       21 0.35024503E+00 0.19881000E+03</pdfrwt>
<totfact> 0.29162456E+03</totfact>
</mgrwt>
</event>
<event>
 4    1  0.3976152E+000  0.2766079E+03  0.7546771E-02  0.1097556E+00
         21   -1    0    0  501  502  0.00000000000E+00  0.00000000000E+00  0.13518755893E+04  0.13518755893E+04  0.00000000000E+00 0.  1.
         21   -1    0    0  502  503 -0.00000000000E+00 -0.00000000000E+00 -0.57110729160E+02  0.57110729160E+02  0.00000000000E+00 0. -1.
          6    1    1    2  501    0 -0.12333046568E+03 -0.17712285675E+03  0.71420839547E+03  0.76590178372E+03  0.17300000000E+03 0. -1.
         -6    1    1    2    0  503  0.12333046568E+03  0.17712285675E+03  0.58055646466E+03  0.64308453473E+03  0.17300000000E+03 0.  1.
<mgrwt>
<rscale>  2 0.27660786E+03</rscale>
<asrwt>0</asrwt>
<pdfrwt beam="1">  1       21 0.20798084E+00 0.27660786E+03</pdfrwt>
<pdfrwt beam="2">  1       21 0.87862670E-02 0.27660786E+03</pdfrwt>
<totfact> 0.11462378E+04</totfact>
</mgrwt>
</event>
<event>
 4    1  0.3976152E+000  0.1761241E+03  0.7546771E-02  0.1171608E+00
         21   -1    0    0  501  502  0.00000000000E+00  0.00000000000E+00  0.23049038620E+03  0.23049038620E+03  0.00000000000E+00 0.  1.
         21   -1    0    0  502  503 -0.00000000000E+00 -0.00000000000E+00 -0.14886373274E+03  0.14886373274E+03  0.00000000000E+00 0.  1.
          6    1    1    2  501    0 -0.35606598381E+01 -0.32833393619E+02  0.99565036725E+02  0.20231882407E+03  0.17300000000E+03 0. -1.
         -6    1    1    2    0  503  0.35606598381E+01  0.32833393619E+02 -0.17938383264E+02  0.17703529487E+03  0.17300000000E+03 0. -1.
<mgrwt>
<rscale>  2 0.17612413E+03</rscale>
<asrwt>0</asrwt>
<pdfrwt beam="1">  1       21 0.35460059E-01 0.17612413E+03</pdfrwt>
<pdfrwt beam="2">  1       21 0.22902113E-01 0.17612413E+03</pdfrwt>
<totfact> 0.13795730E+05</totfact>
</mgrwt>
</event>
<event>
 4    1  0.3976152E+000  0.5883328E+03  0.7546771E-02  0.9929912E-01
         21   -1    0    0  501  502  0.00000000000E+00  0.00000000000E+00  0.16567440725E+04  0.16567440725E+04  0.00000000000E+00 0. -1.
         21   -1    0    0  502  503 -0.00000000000E+00 -0.00000000000E+00 -0.26950335393E+03  0.26950335393E+03  0.00000000000E+00 0.  1.
          6    1    1    2  501    0  0.56189784175E+03 -0.21847035651E+02  0.11502438420E+04  0.12919738285E+04  0.17300000000E+03 0. -1.
         -6    1    1    2    0  503 -0.56189784175E+03  0.21847035651E+02  0.23699687660E+03  0.63427359794E+03  0.17300000000E+03 0.  1.
<mgrwt>
<rscale>  2 0.58833279E+03</rscale>
<asrwt>0</asrwt>
<pdfrwt beam="1">  1       21 0.25488370E+00 0.58833279E+03</pdfrwt>
<pdfrwt beam="2">  1       21 0.41462056E-01 0.58833279E+03</pdfrwt>
<totfact> 0.26090178E+02</totfact>
</mgrwt>
</event>
<event>
 4    1  0.3976152E+000  0.2205395E+03  0.7546771E-02  0.1133481E+00
         21   -1    0    0  503  502  0.00000000000E+00  0.00000000000E+00  0.17540706964E+03  0.17540706964E+03  0.00000000000E+00 0.  1.
         21   -1    0    0  501  503 -0.00000000000E+00 -0.00000000000E+00 -0.39142992543E+03  0.39142992543E+03  0.00000000000E+00 0.  1.
          6    1    1    2  501    0  0.13667529048E+03  0.53411283623E+01 -0.26106040195E+03  0.34174580634E+03  0.17300000000E+03 0.  1.
         -6    1    1    2    0  502 -0.13667529048E+03 -0.53411283623E+01  0.45037546162E+02  0.22509118873E+03  0.17300000000E+03 0.  1.
<mgrwt>
<rscale>  2 0.22053948E+03</rscale>
<asrwt>0</asrwt>
<pdfrwt beam="1">  1       21 0.26985703E-01 0.22053948E+03</pdfrwt>
<pdfrwt beam="2">  1       21 0.60219988E-01 0.22053948E+03</pdfrwt>
<totfact> 0.33146308E+04</totfact>
</mgrwt>
</event>
<event>
 4    1  0.3976152E+000  0.1984707E+03  0.7546771E-02  0.1151036E+00
         21   -1    0    0  503  502  0.00000000000E+00  0.00000000000E+00  0.61895256741E+03  0.61895256741E+03  0.00000000000E+00 0.  1.
         21   -1    0    0  501  503 -0.00000000000E+00 -0.00000000000E+00 -0.66695790657E+02  0.66695790657E+02  0.00000000000E+00 0.  1.
          6    1    1    2  501    0  0.84294013184E+02 -0.48539891656E+02  0.20275625060E+03  0.28372645083E+03  0.17300000000E+03 0.  1.
         -6    1    1    2    0  502 -0.84294013184E+02  0.48539891656E+02  0.34950052615E+03  0.40192190724E+03  0.17300000000E+03 0.  1.
<mgrwt>
<rscale>  2 0.19847066E+03</rscale>
<asrwt>0</asrwt>
<pdfrwt beam="1">  1       21 0.95223468E-01 0.19847066E+03</pdfrwt>
<pdfrwt beam="2">  1       21 0.10260891E-01 0.19847066E+03</pdfrwt>
<totfact> 0.71234113E+04</totfact>
</mgrwt>
</event>
<event>
 4    1  0.3976152E+000  0.2902765E+03  0.7546771E-02  0.1090205E+00
         21   -1    0    0  501  502  0.00000000000E+00  0.00000000000E+00  0.37444830328E+03  0.37444830328E+03  0.00000000000E+00 0.  1.
         21   -1    0    0  502  503 -0.00000000000E+00 -0.00000000000E+00 -0.31699773703E+03  0.31699773703E+03  0.00000000000E+00 0.  1.
          6    1    1    2  501    0  0.22221867990E+03  0.70358527320E+02  0.21494612831E+03  0.36119565631E+03  0.17300000000E+03 0.  1.
         -6    1    1    2    0  503 -0.22221867990E+03 -0.70358527320E+02 -0.15749556206E+03  0.33025038400E+03  0.17300000000E+03 0.  1.
<mgrwt>
<rscale>  2 0.29027653E+03</rscale>
<asrwt>0</asrwt>
<pdfrwt beam="1">  1       21 0.57607431E-01 0.29027653E+03</pdfrwt>
<pdfrwt beam="2">  1       21 0.48768883E-01 0.29027653E+03</pdfrwt>
<totfact> 0.10736198E+04</totfact>
</mgrwt>
</event>
<event>
 4    1  0.3976152E+000  0.2362097E+03  0.7546771E-02  0.1122344E+00
         21   -1    0    0  503  502  0.00000000000E+00  0.00000000000E+00  0.11147240381E+04  0.11147240381E+04  0.00000000000E+00 0. -1.
         21   -1    0    0  501  503 -0.00000000000E+00 -0.00000000000E+00 -0.73686485447E+02  0.73686485447E+02  0.00000000000E+00 0.  1.
          6    1    1    2  501    0 -0.48756564988E+02 -0.15326069105E+03  0.18400066739E+03  0.29941824869E+03  0.17300000000E+03 0.  1.
         -6    1    1    2    0  502  0.48756564988E+02  0.15326069105E+03  0.85703688531E+03  0.88899227490E+03  0.17300000000E+03 0. -1.
<mgrwt>
<rscale>  2 0.23620974E+03</rscale>
<asrwt>0</asrwt>
<pdfrwt beam="1">  1       21 0.17149599E+00 0.23620974E+03</pdfrwt>
<pdfrwt beam="2">  1       21 0.11336383E-01 0.23620974E+03</pdfrwt>
<totfact> 0.13119466E+04</totfact>
</mgrwt>
</event>
<event>
 4    1  0.3976152E+000  0.1862138E+03  0.7546771E-02  0.1161921E+00
         21   -1    0    0  501  502  0.00000000000E+00  0.00000000000E+00  0.24687287490E+03  0.24687287490E+03  0.00000000000E+00 0.  1.
         21   -1    0    0  502  503 -0.00000000000E+00 -0.00000000000E+00 -0.37675345326E+03  0.37675345326E+03  0.00000000000E+00 0.  1.
          6    1    1    2  501    0  0.31776026812E+02  0.61130014818E+02  0.18200019802E+03  0.26038369126E+03  0.17300000000E+03 0.  1.
         -6    1    1    2    0  503 -0.31776026812E+02 -0.61130014818E+02 -0.31188077638E+03  0.36324263691E+03  0.17300000000E+03 0.  1.
<mgrwt>
<rscale>  2 0.18621384E+03</rscale>
<asrwt>0</asrwt>
<pdfrwt beam="1">  1       21 0.37980442E-01 0.18621384E+03</pdfrwt>
<pdfrwt beam="2">  1       21 0.57962070E-01 0.18621384E+03</pdfrwt>
<totfact> 0.18726187E+04</totfact>
</mgrwt>
</event>
<event>
 4    1  0.3976152E+000  0.1973862E+03  0.7546771E-02  0.1151963E+00
         21   -1    0    0  503  502  0.00000000000E+00  0.00000000000E+00  0.63790972566E+03  0.63790972566E+03  0.00000000000E+00 0. -1.
         21   -1    0    0  501  503 -0.00000000000E+00 -0.00000000000E+00 -0.90242145169E+02  0.90242145169E+02  0.00000000000E+00 0.  1.
          6    1    1    2  501    0  0.92407233194E+02  0.22208718885E+02  0.66856495755E+02  0.20840133149E+03  0.17300000000E+03 0.  1.
         -6    1    1    2    0  502 -0.92407233194E+02 -0.22208718885E+02  0.48081108474E+03  0.51975053935E+03  0.17300000000E+03 0. -1.
<mgrwt>
<rscale>  2 0.19738623E+03</rscale>
<asrwt>0</asrwt>
<pdfrwt beam="1">  1       21 0.98139955E-01 0.19738623E+03</pdfrwt>
<pdfrwt beam="2">  1       21 0.13883407E-01 0.19738623E+03</pdfrwt>
<totfact> 0.38642824E+04</totfact>
</mgrwt>
</event>
<event>
 4    1  0.3976152E+000  0.1970563E+03  0.7546771E-02  0.1152247E+00
         21   -1    0    0  503  502  0.00000000000E+00  0.00000000000E+00  0.10897955331E+04  0.10897955331E+04  0.00000000000E+00 0. -1.
         21   -1    0    0  501  503 -0.00000000000E+00 -0.00000000000E+00 -0.98221707745E+02  0.98221707745E+02  0.00000000000E+00 0. -1.
          6    1    1    2  501    0  0.80321942459E+02  0.49503370506E+02  0.21608552193E+02  0.19823755361E+03  0.17300000000E+03 0. -1.
         -6    1    1    2    0  502 -0.80321942459E+02 -0.49503370506E+02  0.96996527321E+03  0.98977968728E+03  0.17300000000E+03 0. -1.
<mgrwt>
<rscale>  2 0.19705633E+03</rscale>
<asrwt>0</asrwt>
<pdfrwt beam="1">  1       21 0.16766084E+00 0.19705633E+03</pdfrwt>
<pdfrwt beam="2">  1       21 0.15111033E-01 0.19705633E+03</pdfrwt>
<totfact> 0.85487507E+03</totfact>
</mgrwt>
</event>
<event>
 4    1  0.3976152E+000  0.1928328E+03  0.7546771E-02  0.1155931E+00
         21   -1    0    0  503  502  0.00000000000E+00  0.00000000000E+00  0.12962282647E+03  0.12962282647E+03  0.00000000000E+00 0. -1.
         21   -1    0    0  501  503 -0.00000000000E+00 -0.00000000000E+00 -0.52109818423E+03  0.52109818423E+03  0.00000000000E+00 0. -1.
          6    1    1    2  501    0  0.83850803031E+02 -0.14984922155E+02 -0.41387373463E+03  0.45659169208E+03  0.17300000000E+03 0. -1.
         -6    1    1    2    0  502 -0.83850803031E+02  0.14984922155E+02  0.22398376875E+02  0.19412931862E+03  0.17300000000E+03 0. -1.
<mgrwt>
<rscale>  2 0.19283284E+03</rscale>
<asrwt>0</asrwt>
<pdfrwt beam="1">  1       21 0.19941974E-01 0.19283284E+03</pdfrwt>
<pdfrwt beam="2">  1       21 0.80168950E-01 0.19283284E+03</pdfrwt>
<totfact> 0.31767278E+04</totfact>
</mgrwt>
</event>
<event>
 4    1  0.3976152E+000  0.2364288E+03  0.7546771E-02  0.1122195E+00
         21   -1    0    0  501  502  0.00000000000E+00  0.00000000000E+00  0.36337031888E+03  0.36337031888E+03  0.00000000000E+00 0. -1.
         21   -1    0    0  502  503 -0.00000000000E+00 -0.00000000000E+00 -0.34399003028E+03  0.34399003028E+03  0.00000000000E+00 0.  1.
          6    1    1    2  501    0 -0.71562490885E+02 -0.14438978716E+03  0.27265225791E+03  0.36088482163E+03  0.17300000000E+03 0.  1.
         -6    1    1    2    0  503  0.71562490885E+02  0.14438978716E+03 -0.25327196932E+03  0.34647552753E+03  0.17300000000E+03 0.  1.
<mgrwt>
<rscale>  2 0.23642885E+03</rscale>
<asrwt>0</asrwt>
<pdfrwt beam="1">  1       21 0.55903126E-01 0.23642885E+03</pdfrwt>
<pdfrwt beam="2">  1       21 0.52921543E-01 0.23642885E+03</pdfrwt>
<totfact> 0.99117556E+03</totfact>
</mgrwt>
</event>
<event>
 4    1  0.3976152E+000  0.2054560E+03  0.7546771E-02  0.1145216E+00
         21   -1    0    0  501  502  0.00000000000E+00  0.00000000000E+00  0.75511216501E+02  0.75511216501E+02  0.00000000000E+00 0.  1.
         21   -1    0    0  502  503 -0.00000000000E+00 -0.00000000000E+00 -0.63322993043E+03  0.63322993043E+03  0.00000000000E+00 0. -1.
          6    1    1    2  501    0 -0.34481079167E+01  0.11077576646E+03 -0.15754488541E+03  0.25890645183E+03  0.17300000000E+03 0.  1.
         -6    1    1    2    0  503  0.34481079167E+01 -0.11077576646E+03 -0.40017382852E+03  0.44983469510E+03  0.17300000000E+03 0. -1.
<mgrwt>
<rscale>  2 0.20545598E+03</rscale>
<asrwt>0</asrwt>
<pdfrwt beam="1">  1       21 0.11617110E-01 0.20545598E+03</pdfrwt>
<pdfrwt beam="2">  1       21 0.97419988E-01 0.20545598E+03</pdfrwt>
<totfact> 0.53952659E+04</totfact>
</mgrwt>
</event>
<event>
 4    1  0.3976152E+000  0.2492863E+03  0.7546771E-02  0.1113757E+00
         21   -1    0    0  503  502  0.00000000000E+00  0.00000000000E+00  0.98856833828E+02  0.98856833828E+02  0.00000000000E+00 0.  1.
         21   -1    0    0  501  503 -0.00000000000E+00 -0.00000000000E+00 -0.65370201479E+03  0.65370201479E+03  0.00000000000E+00 0.  1.
          6    1    1    2  501    0  0.17945223750E+03  0.33982742649E+01 -0.35112438133E+03  0.43061814287E+03  0.17300000000E+03 0.  1.
         -6    1    1    2    0  502 -0.17945223750E+03 -0.33982742649E+01 -0.20372079964E+03  0.32194070575E+03  0.17300000000E+03 0.  1.
<mgrwt>
<rscale>  2 0.24928629E+03</rscale>
<asrwt>0</asrwt>
<pdfrwt beam="1">  1       21 0.15208743E-01 0.24928629E+03</pdfrwt>
<pdfrwt beam="2">  1       21 0.10056954E+00 0.24928629E+03</pdfrwt>
<totfact> 0.30080538E+04</totfact>
</mgrwt>
</event>
<event>
 4    1  0.3976152E+000  0.1733566E+03  0.7546771E-02  0.1174392E+00
         21   -1    0    0  503  502  0.00000000000E+00  0.00000000000E+00  0.69964313136E+03  0.69964313136E+03  0.00000000000E+00 0.  1.
         21   -1    0    0  501  503 -0.00000000000E+00 -0.00000000000E+00 -0.94934136731E+02  0.94934136731E+02  0.00000000000E+00 0.  1.
          6    1    1    2  501    0  0.46794422481E+01  0.10080927417E+02  0.83775060252E+01  0.17355893778E+03  0.17300000000E+03 0.  1.
         -6    1    1    2    0  502 -0.46794422481E+01 -0.10080927417E+02  0.59633148860E+03  0.62101833031E+03  0.17300000000E+03 0.  1.
<mgrwt>
<rscale>  2 0.17335663E+03</rscale>
<asrwt>0</asrwt>
<pdfrwt beam="1">  1       21 0.10763740E+00 0.17335663E+03</pdfrwt>
<pdfrwt beam="2">  1       21 0.14605252E-01 0.17335663E+03</pdfrwt>
<totfact> 0.28664999E+04</totfact>
</mgrwt>
</event>
<event>
 4    1  0.3976152E+000  0.2199942E+03  0.7546771E-02  0.1133887E+00
         21   -1    0    0  503  502  0.00000000000E+00  0.00000000000E+00  0.43529514620E+03  0.43529514620E+03  0.00000000000E+00 0.  1.
         21   -1    0    0  501  503 -0.00000000000E+00 -0.00000000000E+00 -0.13275737043E+03  0.13275737043E+03  0.00000000000E+00 0.  1.
          6    1    1    2  501    0  0.32860075705E+02 -0.13186605058E+03  0.36770918787E+02  0.22304604982E+03  0.17300000000E+03 0.  1.
         -6    1    1    2    0  502 -0.32860075705E+02  0.13186605058E+03  0.26576685698E+03  0.34500646681E+03  0.17300000000E+03 0.  1.
<mgrwt>
<rscale>  2 0.21999418E+03</rscale>
<asrwt>0</asrwt>
<pdfrwt beam="1">  1       21 0.66968483E-01 0.21999418E+03</pdfrwt>
<pdfrwt beam="2">  1       21 0.20424211E-01 0.21999418E+03</pdfrwt>
<totfact> 0.44718598E+04</totfact>
</mgrwt>
</event>
<event>
 4    1  0.3976152E+000  0.2233959E+03  0.7546771E-02  0.1131376E+00
         21   -1    0    0  501  502  0.00000000000E+00  0.00000000000E+00  0.18009416519E+03  0.18009416519E+03  0.00000000000E+00 0.  1.
         21   -1    0    0  502  503 -0.00000000000E+00 -0.00000000000E+00 -0.34918051100E+03  0.34918051100E+03  0.00000000000E+00 0.  1.
          6    1    1    2  501    0 -0.10947260931E+03  0.89400702150E+02  0.35685357402E+02  0.22622816462E+03  0.17300000000E+03 0.  1.
         -6    1    1    2    0  503  0.10947260931E+03 -0.89400702150E+02 -0.20477170322E+03  0.30304651157E+03  0.17300000000E+03 0.  1.
<mgrwt>
<rscale>  2 0.22339592E+03</rscale>
<asrwt>0</asrwt>
<pdfrwt beam="1">  1       21 0.27706795E-01 0.22339592E+03</pdfrwt>
<pdfrwt beam="2">  1       21 0.53720078E-01 0.22339592E+03</pdfrwt>
<totfact> 0.40142605E+04</totfact>
</mgrwt>
</event>
<event>
 4    1  0.3976152E+000  0.2105828E+03  0.7546771E-02  0.1141105E+00
         21   -1    0    0  503  502  0.00000000000E+00  0.00000000000E+00  0.11564215886E+04  0.11564215886E+04  0.00000000000E+00 0. -1.
         21   -1    0    0  501  503 -0.00000000000E+00 -0.00000000000E+00 -0.77287348065E+02  0.77287348065E+02  0.00000000000E+00 0. -1.
          6    1    1    2  501    0 -0.93796108472E+02 -0.74956074447E+02  0.10171316878E+03  0.23386041085E+03  0.17300000000E+03 0. -1.
         -6    1    1    2    0  502  0.93796108472E+02  0.74956074447E+02  0.97742107173E+03  0.99984852579E+03  0.17300000000E+03 0. -1.
<mgrwt>
<rscale>  2 0.21058282E+03</rscale>
<asrwt>0</asrwt>
<pdfrwt beam="1">  1       21 0.17791100E+00 0.21058282E+03</pdfrwt>
<pdfrwt beam="2">  1       21 0.11890362E-01 0.21058282E+03</pdfrwt>
<totfact> 0.11062323E+04</totfact>
</mgrwt>
</event>
<event>
 4    1  0.3976152E+000  0.1902580E+03  0.7546771E-02  0.1158229E+00
         21   -1    0    0  503  502  0.00000000000E+00  0.00000000000E+00  0.76084311710E+03  0.76084311710E+03  0.00000000000E+00 0.  1.
         21   -1    0    0  501  503 -0.00000000000E+00 -0.00000000000E+00 -0.11544174539E+03  0.11544174539E+03  0.00000000000E+00 0.  1.
          6    1    1    2  501    0 -0.78170818953E+02 -0.12586570723E+02 -0.13236616637E+02  0.19071787205E+03  0.17300000000E+03 0.  1.
         -6    1    1    2    0  502  0.78170818953E+02  0.12586570723E+02  0.65863798834E+03  0.68556699044E+03  0.17300000000E+03 0.  1.
<mgrwt>
<rscale>  2 0.19025798E+03</rscale>
<asrwt>0</asrwt>
<pdfrwt beam="1">  1       21 0.11705278E+00 0.19025798E+03</pdfrwt>
<pdfrwt beam="2">  1       21 0.17760269E-01 0.19025798E+03</pdfrwt>
<totfact> 0.16184829E+04</totfact>
</mgrwt>
</event>
<event>
 4    1  0.3976152E+000  0.1781267E+03  0.7546771E-02  0.1169628E+00
         21   -1    0    0  501  502  0.00000000000E+00  0.00000000000E+00  0.22018988171E+03  0.22018988171E+03  0.00000000000E+00 0. -1.
         21   -1    0    0  502  503 -0.00000000000E+00 -0.00000000000E+00 -0.47886936590E+03  0.47886936590E+03  0.00000000000E+00 0. -1.
          6    1    1    2  501    0 -0.42241585626E+02  0.39723535348E+01  0.16290654120E+03  0.24138697628E+03  0.17300000000E+03 0. -1.
         -6    1    1    2    0  503  0.42241585626E+02 -0.39723535348E+01 -0.42158602539E+03  0.45767227134E+03  0.17300000000E+03 0. -1.
<mgrwt>
<rscale>  2 0.17812673E+03</rscale>
<asrwt>0</asrwt>
<pdfrwt beam="1">  1       21 0.33875367E-01 0.17812673E+03</pdfrwt>
<pdfrwt beam="2">  1       21 0.73672210E-01 0.17812673E+03</pdfrwt>
<totfact> 0.14022573E+04</totfact>
</mgrwt>
</event>
<event>
 4    1  0.3976152E+000  0.1908741E+03  0.7546771E-02  0.1157675E+00
         21   -1    0    0  501  502  0.00000000000E+00  0.00000000000E+00  0.18359050590E+03  0.18359050590E+03  0.00000000000E+00 0. -1.
         21   -1    0    0  502  503 -0.00000000000E+00 -0.00000000000E+00 -0.33685158929E+03  0.33685158929E+03  0.00000000000E+00 0. -1.
          6    1    1    2  501    0  0.43191430118E+02  0.68106060380E+02  0.90170513444E+02  0.21110105777E+03  0.17300000000E+03 0. -1.
         -6    1    1    2    0  503 -0.43191430118E+02 -0.68106060380E+02 -0.24343159683E+03  0.30934103742E+03  0.17300000000E+03 0. -1.
<mgrwt>
<rscale>  2 0.19087413E+03</rscale>
<asrwt>0</asrwt>
<pdfrwt beam="1">  1       21 0.28244693E-01 0.19087413E+03</pdfrwt>
<pdfrwt beam="2">  1       21 0.51823321E-01 0.19087413E+03</pdfrwt>
<totfact> 0.42394351E+04</totfact>
</mgrwt>
</event>
<event>
 4    1  0.3976152E+000  0.3651449E+03  0.7546771E-02  0.1056565E+00
         21   -1    0    0  501  502  0.00000000000E+00  0.00000000000E+00  0.90086226610E+03  0.90086226610E+03  0.00000000000E+00 0.  1.
         21   -1    0    0  502  503 -0.00000000000E+00 -0.00000000000E+00 -0.19641874407E+03  0.19641874407E+03  0.00000000000E+00 0. -1.
          6    1    1    2  501    0 -0.29011333137E+03  0.13869404548E+03  0.62460939751E+03  0.72351066526E+03  0.17300000000E+03 0.  1.
         -6    1    1    2    0  503  0.29011333137E+03 -0.13869404548E+03  0.79834124521E+02  0.37377034491E+03  0.17300000000E+03 0. -1.
<mgrwt>
<rscale>  2 0.36514488E+03</rscale>
<asrwt>0</asrwt>
<pdfrwt beam="1">  1       21 0.13859419E+00 0.36514488E+03</pdfrwt>
<pdfrwt beam="2">  1       21 0.30218269E-01 0.36514488E+03</pdfrwt>
<totfact> 0.34619967E+03</totfact>
</mgrwt>
</event>
<event>
 4    1  0.3976152E+000  0.1732058E+03  0.7546771E-02  0.1174545E+00
         21   -1    0    0  503  502  0.00000000000E+00  0.00000000000E+00  0.11330653247E+04  0.11330653247E+04  0.00000000000E+00 0. -1.
         21   -1    0    0  501  503 -0.00000000000E+00 -0.00000000000E+00 -0.20246723322E+03  0.20246723322E+03  0.00000000000E+00 0. -1.
          6    1    1    2  501    0  0.79151924950E+01 -0.29316465686E+01 -0.15727543163E+03  0.23395684691E+03  0.17300000000E+03 0. -1.
         -6    1    1    2    0  502 -0.79151924950E+01  0.29316465686E+01  0.10878735231E+04  0.11015757110E+04  0.17300000000E+03 0. -1.
<mgrwt>
<rscale>  2 0.17320579E+03</rscale>
<asrwt>0</asrwt>
<pdfrwt beam="1">  1       21 0.17431774E+00 0.17320579E+03</pdfrwt>
<pdfrwt beam="2">  1       21 0.31148806E-01 0.17320579E+03</pdfrwt>
<totfact> 0.20115155E+03</totfact>
</mgrwt>
</event>
<event>
 4    1  0.3976152E+000  0.1978246E+03  0.7546771E-02  0.1151587E+00
         21   -1    0    0  501  502  0.00000000000E+00  0.00000000000E+00  0.23988543067E+03  0.23988543067E+03  0.00000000000E+00 0.  1.
         21   -1    0    0  502  503 -0.00000000000E+00 -0.00000000000E+00 -0.24295980241E+03  0.24295980241E+03  0.00000000000E+00 0.  1.
          6    1    1    2  501    0 -0.89131804269E+02 -0.35512156722E+02  0.13684164684E+03  0.24054153096E+03  0.17300000000E+03 0.  1.
         -6    1    1    2    0  503  0.89131804269E+02  0.35512156722E+02 -0.13991601857E+03  0.24230370212E+03  0.17300000000E+03 0.  1.
<mgrwt>
<rscale>  2 0.19782465E+03</rscale>
<asrwt>0</asrwt>
<pdfrwt beam="1">  1       21 0.36905451E-01 0.19782465E+03</pdfrwt>
<pdfrwt beam="2">  1       21 0.37378431E-01 0.19782465E+03</pdfrwt>
<totfact> 0.48756429E+04</totfact>
</mgrwt>
</event>
<event>
 4    1  0.3976152E+000  0.1907243E+03  0.7546771E-02  0.1157810E+00
         21   -1    0    0  501  502  0.00000000000E+00  0.00000000000E+00  0.50763714542E+03  0.50763714542E+03  0.00000000000E+00 0.  1.
         21   -1    0    0  502  503 -0.00000000000E+00 -0.00000000000E+00 -0.80224407634E+02  0.80224407634E+02  0.00000000000E+00 0.  1.
          6    1    1    2  501    0  0.19576369109E+02 -0.77868549393E+02  0.30976071130E+03  0.36376839263E+03  0.17300000000E+03 0.  1.
         -6    1    1    2    0  503 -0.19576369109E+02  0.77868549393E+02  0.11765202649E+03  0.22409316042E+03  0.17300000000E+03 0.  1.
<mgrwt>
<rscale>  2 0.19072426E+03</rscale>
<asrwt>0</asrwt>
<pdfrwt beam="1">  1       21 0.78098020E-01 0.19072426E+03</pdfrwt>
<pdfrwt beam="2">  1       21 0.12342217E-01 0.19072426E+03</pdfrwt>
<totfact> 0.81091928E+04</totfact>
</mgrwt>
</event>
<event>
 4    1  0.3976152E+000  0.2664678E+03  0.7546771E-02  0.1103318E+00
         21   -1    0    0  503  502  0.00000000000E+00  0.00000000000E+00  0.89167979622E+03  0.89167979622E+03  0.00000000000E+00 0.  1.
         21   -1    0    0  501  503 -0.00000000000E+00 -0.00000000000E+00 -0.15865155709E+03  0.15865155709E+03  0.00000000000E+00 0. -1.
          6    1    1    2  501    0 -0.16068829829E+03  0.12351250379E+03 -0.41197379954E+01  0.26649960608E+03  0.17300000000E+03 0. -1.
         -6    1    1    2    0  502  0.16068829829E+03 -0.12351250379E+03  0.73714797712E+03  0.78383174723E+03  0.17300000000E+03 0.  1.
<mgrwt>
<rscale>  2 0.26646776E+03</rscale>
<asrwt>0</asrwt>
<pdfrwt beam="1">  1       21 0.13718150E+00 0.26646776E+03</pdfrwt>
<pdfrwt beam="2">  1       21 0.24407932E-01 0.26646776E+03</pdfrwt>
<totfact> 0.56760663E+03</totfact>
</mgrwt>
</event>
<event>
 4    1  0.3976152E+000  0.2180423E+03  0.7546771E-02  0.1135351E+00
         21   -1    0    0  501  502  0.00000000000E+00  0.00000000000E+00  0.53489209467E+02  0.53489209467E+02  0.00000000000E+00 0.  1.
         21   -1    0    0  502  503 -0.00000000000E+00 -0.00000000000E+00 -0.11277274117E+04  0.11277274117E+04  0.00000000000E+00 0.  1.
          6    1    1    2  501    0 -0.72409288258E+02  0.11122211367E+03 -0.26528172924E+03  0.34339024369E+03  0.17300000000E+03 0. -1.
         -6    1    1    2    0  503  0.72409288258E+02 -0.11122211367E+03 -0.80895647296E+03  0.83782637744E+03  0.17300000000E+03 0. -1.
<mgrwt>
<rscale>  2 0.21804234E+03</rscale>
<asrwt>0</asrwt>
<pdfrwt beam="1">  1       21 0.82291092E-02 0.21804234E+03</pdfrwt>
<pdfrwt beam="2">  1       21 0.17349652E+00 0.21804234E+03</pdfrwt>
<totfact> 0.22651888E+04</totfact>
</mgrwt>
</event>
<event>
 4    1  0.3976152E+000  0.1996435E+03  0.7546771E-02  0.1150040E+00
         21   -1    0    0  503  502  0.00000000000E+00  0.00000000000E+00  0.10412360905E+03  0.10412360905E+03  0.00000000000E+00 0. -1.
         21   -1    0    0  501  503 -0.00000000000E+00 -0.00000000000E+00 -0.88012113950E+03  0.88012113950E+03  0.00000000000E+00 0.  1.
          6    1    1    2  501    0  0.99626943790E+02 -0.17323876936E+01 -0.75793297051E+03  0.78378563197E+03  0.17300000000E+03 0.  1.
         -6    1    1    2    0  502 -0.99626943790E+02  0.17323876936E+01 -0.18064559944E+02  0.20045911658E+03  0.17300000000E+03 0. -1.
<mgrwt>
<rscale>  2 0.19964351E+03</rscale>
<asrwt>0</asrwt>
<pdfrwt beam="1">  1       21 0.16019017E-01 0.19964351E+03</pdfrwt>
<pdfrwt beam="2">  1       21 0.13540325E+00 0.19964351E+03</pdfrwt>
<totfact> 0.13497819E+04</totfact>
</mgrwt>
</event>
<event>
 4    1  0.3976152E+000  0.1782132E+03  0.7546771E-02  0.1169544E+00
         21   -1    0    0  501  502  0.00000000000E+00  0.00000000000E+00  0.24686258957E+02  0.24686258957E+02  0.00000000000E+00 0.  1.
         21   -1    0    0  502  503 -0.00000000000E+00 -0.00000000000E+00 -0.14022675470E+04  0.14022675470E+04  0.00000000000E+00 0.  1.
          6    1    1    2  501    0 -0.74533258852E+01 -0.42135304226E+02 -0.48382689841E+03  0.51560489094E+03  0.17300000000E+03 0.  1.
         -6    1    1    2    0  503  0.74533258852E+01  0.42135304226E+02 -0.89375438966E+03  0.91134891505E+03  0.17300000000E+03 0.  1.
<mgrwt>
<rscale>  2 0.17821318E+03</rscale>
<asrwt>0</asrwt>
<pdfrwt beam="1">  1       21 0.37978861E-02 0.17821318E+03</pdfrwt>
<pdfrwt beam="2">  1       21 0.21573346E+00 0.17821318E+03</pdfrwt>
<totfact> 0.46148841E+04</totfact>
</mgrwt>
</event>
<event>
 4    1  0.3976152E+000  0.1757204E+03  0.7546771E-02  0.1172010E+00
         21   -1    0    0  501  502  0.00000000000E+00  0.00000000000E+00  0.56344169684E+03  0.56344169684E+03  0.00000000000E+00 0.  1.
         21   -1    0    0  502  503 -0.00000000000E+00 -0.00000000000E+00 -0.65859424755E+02  0.65859424755E+02  0.00000000000E+00 0.  1.
          6    1    1    2  501    0 -0.28981958153E+02 -0.10425934800E+02  0.37771973209E+03  0.41659314688E+03  0.17300000000E+03 0. -1.
         -6    1    1    2    0  503  0.28981958153E+02  0.10425934800E+02  0.11986254000E+03  0.21270797472E+03  0.17300000000E+03 0. -1.
<mgrwt>
<rscale>  2 0.17572039E+03</rscale>
<asrwt>0</asrwt>
<pdfrwt beam="1">  1       21 0.86683335E-01 0.17572039E+03</pdfrwt>
<pdfrwt beam="2">  1       21 0.10132220E-01 0.17572039E+03</pdfrwt>
<totfact> 0.91464325E+04</totfact>
</mgrwt>
</event>
<event>
 4    1  0.3976152E+000  0.2071438E+03  0.7546771E-02  0.1143848E+00
         21   -1    0    0  503  502  0.00000000000E+00  0.00000000000E+00  0.79951670270E+02  0.79951670270E+02  0.00000000000E+00 0.  1.
         21   -1    0    0  501  503 -0.00000000000E+00 -0.00000000000E+00 -0.14668495599E+04  0.14668495599E+04  0.00000000000E+00 0.  1.
          6    1    1    2  501    0 -0.25400635801E+01  0.11389956995E+03 -0.13093238248E+04  0.13256083291E+04  0.17300000000E+03 0.  1.
         -6    1    1    2    0  502  0.25400635801E+01 -0.11389956995E+03 -0.77574064835E+02  0.22119290109E+03  0.17300000000E+03 0.  1.
<mgrwt>
<rscale>  2 0.20714382E+03</rscale>
<asrwt>0</asrwt>
<pdfrwt beam="1">  1       21 0.12300258E-01 0.20714382E+03</pdfrwt>
<pdfrwt beam="2">  1       21 0.22566915E+00 0.20714382E+03</pdfrwt>
<totfact> 0.51433960E+03</totfact>
</mgrwt>
</event>
<event>
 4    1  0.3976152E+000  0.1883503E+03  0.7546771E-02  0.1159958E+00
         21   -1    0    0  501  502  0.00000000000E+00  0.00000000000E+00  0.48315364141E+03  0.48315364141E+03  0.00000000000E+00 0. -1.
         21   -1    0    0  502  503 -0.00000000000E+00 -0.00000000000E+00 -0.86923860563E+02  0.86923860563E+02  0.00000000000E+00 0. -1.
          6    1    1    2  501    0 -0.74318245323E+02  0.48609844903E+01  0.31043921470E+03  0.36310926287E+03  0.17300000000E+03 0.  1.
         -6    1    1    2    0  503  0.74318245323E+02 -0.48609844903E+01  0.85790566149E+02  0.20696823911E+03  0.17300000000E+03 0.  1.
<mgrwt>
<rscale>  2 0.18835029E+03</rscale>
<asrwt>0</asrwt>
<pdfrwt beam="1">  1       21 0.74331328E-01 0.18835029E+03</pdfrwt>
<pdfrwt beam="2">  1       21 0.13372902E-01 0.18835029E+03</pdfrwt>
<totfact> 0.78492786E+04</totfact>
</mgrwt>
</event>
<event>
 4    1  0.3976152E+000  0.1825807E+03  0.7546771E-02  0.1165329E+00
         21   -1    0    0  503  502  0.00000000000E+00  0.00000000000E+00  0.18382047467E+03  0.18382047467E+03  0.00000000000E+00 0. -1.
         21   -1    0    0  501  503 -0.00000000000E+00 -0.00000000000E+00 -0.68162531931E+03  0.68162531931E+03  0.00000000000E+00 0. -1.
          6    1    1    2  501    0  0.38713729398E+02  0.43680351329E+02 -0.61961885250E+03  0.64595916923E+03  0.17300000000E+03 0. -1.
         -6    1    1    2    0  502 -0.38713729398E+02 -0.43680351329E+02  0.12181400786E+03  0.21948662476E+03  0.17300000000E+03 0. -1.
<mgrwt>
<rscale>  2 0.18258074E+03</rscale>
<asrwt>0</asrwt>
<pdfrwt beam="1">  1       21 0.28280073E-01 0.18258074E+03</pdfrwt>
<pdfrwt beam="2">  1       21 0.10486543E+00 0.18258074E+03</pdfrwt>
<totfact> 0.88231147E+03</totfact>
</mgrwt>
</event>
<event>
 4    1  0.3976152E+000  0.1873447E+03  0.7546771E-02  0.1160878E+00
         21   -1    0    0  503  502  0.00000000000E+00  0.00000000000E+00  0.56576978223E+03  0.56576978223E+03  0.00000000000E+00 0. -1.
         21   -1    0    0  501  503 -0.00000000000E+00 -0.00000000000E+00 -0.77906448061E+02  0.77906448061E+02  0.00000000000E+00 0. -1.
          6    1    1    2  501    0 -0.68945193869E+02 -0.20386159065E+02  0.98671414777E+02  0.21174060388E+03  0.17300000000E+03 0. -1.
         -6    1    1    2    0  502  0.68945193869E+02  0.20386159065E+02  0.38919191939E+03  0.43193562640E+03  0.17300000000E+03 0. -1.
<mgrwt>
<rscale>  2 0.18734470E+03</rscale>
<asrwt>0</asrwt>
<pdfrwt beam="1">  1       21 0.87041502E-01 0.18734470E+03</pdfrwt>
<pdfrwt beam="2">  1       21 0.11985608E-01 0.18734470E+03</pdfrwt>
<totfact> 0.66893715E+04</totfact>
</mgrwt>
</event>
<event>
 4    1  0.3976152E+000  0.2370697E+03  0.7546771E-02  0.1121760E+00
         21   -1    0    0  503  502  0.00000000000E+00  0.00000000000E+00  0.20165721123E+03  0.20165721123E+03  0.00000000000E+00 0. -1.
         21   -1    0    0  501  503 -0.00000000000E+00 -0.00000000000E+00 -0.29676735554E+03  0.29676735554E+03  0.00000000000E+00 0.  1.
          6    1    1    2  501    0  0.14018391490E+03 -0.81372727189E+02 -0.10904409524E+03  0.26094571358E+03  0.17300000000E+03 0.  1.
         -6    1    1    2    0  502 -0.14018391490E+03  0.81372727189E+02  0.13933950932E+02  0.23747885320E+03  0.17300000000E+03 0. -1.
<mgrwt>
<rscale>  2 0.23706972E+03</rscale>
<asrwt>0</asrwt>
<pdfrwt beam="1">  1       21 0.31024186E-01 0.23706972E+03</pdfrwt>
<pdfrwt beam="2">  1       21 0.45656517E-01 0.23706972E+03</pdfrwt>
<totfact> 0.44958783E+04</totfact>
</mgrwt>
</event>
<event>
 4    1  0.3976152E+000  0.1744297E+03  0.7546771E-02  0.1173306E+00
         21   -1    0    0  503  502  0.00000000000E+00  0.00000000000E+00  0.15774753394E+03  0.15774753394E+03  0.00000000000E+00 0. -1.
         21   -1    0    0  501  503 -0.00000000000E+00 -0.00000000000E+00 -0.19378991862E+03  0.19378991862E+03  0.00000000000E+00 0. -1.
          6    1    1    2  501    0 -0.70135955445E+01 -0.21154707463E+02 -0.59505171007E+01  0.17453114571E+03  0.17300000000E+03 0. -1.
         -6    1    1    2    0  502  0.70135955445E+01  0.21154707463E+02 -0.30091867573E+02  0.17700630685E+03  0.17300000000E+03 0. -1.
<mgrwt>
<rscale>  2 0.17442968E+03</rscale>
<asrwt>0</asrwt>
<pdfrwt beam="1">  1       21 0.24268851E-01 0.17442968E+03</pdfrwt>
<pdfrwt beam="2">  1       21 0.29813834E-01 0.17442968E+03</pdfrwt>
<totfact> 0.17384683E+05</totfact>
</mgrwt>
</event>
<event>
 4    1  0.3976152E+000  0.2053773E+03  0.7546771E-02  0.1145280E+00
         21   -1    0    0  503  502  0.00000000000E+00  0.00000000000E+00  0.72619169334E+03  0.72619169334E+03  0.00000000000E+00 0.  1.
         21   -1    0    0  501  503 -0.00000000000E+00 -0.00000000000E+00 -0.99477014009E+02  0.99477014009E+02  0.00000000000E+00 0. -1.
          6    1    1    2  501    0 -0.84097183488E+02  0.71961919169E+02  0.47051988477E+02  0.21069822899E+03  0.17300000000E+03 0. -1.
         -6    1    1    2    0  502  0.84097183488E+02 -0.71961919169E+02  0.57966269085E+03  0.61497047835E+03  0.17300000000E+03 0.  1.
<mgrwt>
<rscale>  2 0.20537735E+03</rscale>
<asrwt>0</asrwt>
<pdfrwt beam="1">  1       21 0.11172180E+00 0.20537735E+03</pdfrwt>
<pdfrwt beam="2">  1       21 0.15304156E-01 0.20537735E+03</pdfrwt>
<totfact> 0.23603804E+04</totfact>
</mgrwt>
</event>
<event>
 4    1  0.3976152E+000  0.2984939E+03  0.7546771E-02  0.1085996E+00
         21   -1    0    0  503  502  0.00000000000E+00  0.00000000000E+00  0.13371552264E+04  0.13371552264E+04  0.00000000000E+00 0. -1.
         21   -1    0    0  501  503 -0.00000000000E+00 -0.00000000000E+00 -0.72257031683E+02  0.72257031683E+02  0.00000000000E+00 0.  1.
          6    1    1    2  501    0 -0.77288859222E+02  0.23064271473E+03  0.82905333212E+03  0.88115155173E+03  0.17300000000E+03 0. -1.
         -6    1    1    2    0  502  0.77288859222E+02 -0.23064271473E+03  0.43584486255E+03  0.52826070631E+03  0.17300000000E+03 0.  1.
<mgrwt>
<rscale>  2 0.29849394E+03</rscale>
<asrwt>0</asrwt>
<pdfrwt beam="1">  1       21 0.20571617E+00 0.29849394E+03</pdfrwt>
<pdfrwt beam="2">  1       21 0.11116467E-01 0.29849394E+03</pdfrwt>
<totfact> 0.76971290E+03</totfact>
</mgrwt>
</event>
<event>
 4    1  0.3976152E+000  0.2002537E+03  0.7546771E-02  0.1149525E+00
         21   -1    0    0  501  502  0.00000000000E+00  0.00000000000E+00  0.45130135330E+02  0.45130135330E+02  0.00000000000E+00 0. -1.
         21   -1    0    0  502  503 -0.00000000000E+00 -0.00000000000E+00 -0.10457998858E+04  0.10457998858E+04  0.00000000000E+00 0. -1.
          6    1    1    2  501    0  0.11252194100E+02  0.10022931902E+03 -0.28883861733E+03  0.35146731729E+03  0.17300000000E+03 0. -1.
         -6    1    1    2    0  503 -0.11252194100E+02 -0.10022931902E+03 -0.71183113316E+03  0.73946270386E+03  0.17300000000E+03 0. -1.
<mgrwt>
<rscale>  2 0.20025366E+03</rscale>
<asrwt>0</asrwt>
<pdfrwt beam="1">  1       21 0.69430975E-02 0.20025366E+03</pdfrwt>
<pdfrwt beam="2">  1       21 0.16089229E+00 0.20025366E+03</pdfrwt>
<totfact> 0.37859627E+04</totfact>
</mgrwt>
</event>
<event>
 4    1  0.3976152E+000  0.2112411E+03  0.7546771E-02  0.1140587E+00
         21   -1    0    0  503  502  0.00000000000E+00  0.00000000000E+00  0.92917594446E+03  0.92917594446E+03  0.00000000000E+00 0.  1.
         21   -1    0    0  501  503 -0.00000000000E+00 -0.00000000000E+00 -0.86967756314E+02  0.86967756314E+02  0.00000000000E+00 0.  1.
          6    1    1    2  501    0 -0.61758199410E+02 -0.10430595832E+03  0.81115345739E+02  0.22627971065E+03  0.17300000000E+03 0.  1.
         -6    1    1    2    0  502  0.61758199410E+02  0.10430595832E+03  0.76109284240E+03  0.78986399012E+03  0.17300000000E+03 0.  1.
<mgrwt>
<rscale>  2 0.21124111E+03</rscale>
<asrwt>0</asrwt>
<pdfrwt beam="1">  1       21 0.14295014E+00 0.21124111E+03</pdfrwt>
<pdfrwt beam="2">  1       21 0.13379655E-01 0.21124111E+03</pdfrwt>
<totfact> 0.16155198E+04</totfact>
</mgrwt>
</event>
<event>
 4    1  0.3976152E+000  0.1753091E+03  0.7546771E-02  0.1172422E+00
         21   -1    0    0  503  502  0.00000000000E+00  0.00000000000E+00  0.13326151463E+03  0.13326151463E+03  0.00000000000E+00 0. -1.
         21   -1    0    0  501  503 -0.00000000000E+00 -0.00000000000E+00 -0.50248702069E+03  0.50248702069E+03  0.00000000000E+00 0. -1.
          6    1    1    2  501    0 -0.21848873640E+02 -0.18080545445E+02 -0.41842548813E+03  0.45366636256E+03  0.17300000000E+03 0. -1.
         -6    1    1    2    0  502  0.21848873640E+02  0.18080545445E+02  0.49199982060E+02  0.18208217276E+03  0.17300000000E+03 0. -1.
<mgrwt>
<rscale>  2 0.17530910E+03</rscale>
<asrwt>0</asrwt>
<pdfrwt beam="1">  1       21 0.20501771E-01 0.17530910E+03</pdfrwt>
<pdfrwt beam="2">  1       21 0.77305696E-01 0.17530910E+03</pdfrwt>
<totfact> 0.33051264E+04</totfact>
</mgrwt>
</event>
<event>
 4    1  0.3976152E+000  0.1792257E+03  0.7546771E-02  0.1168555E+00
         21   -1    0    0  503  502  0.00000000000E+00  0.00000000000E+00  0.18598708156E+03  0.18598708156E+03  0.00000000000E+00 0. -1.
         21   -1    0    0  501  503 -0.00000000000E+00 -0.00000000000E+00 -0.72207031230E+03  0.72207031230E+03  0.00000000000E+00 0. -1.
          6    1    1    2  501    0  0.32190362071E+02  0.34009236496E+02 -0.66406621125E+03  0.68782685357E+03  0.17300000000E+03 0. -1.
         -6    1    1    2    0  502 -0.32190362071E+02 -0.34009236496E+02  0.12798298050E+03  0.22023054029E+03  0.17300000000E+03 0. -1.
<mgrwt>
<rscale>  2 0.17922569E+03</rscale>
<asrwt>0</asrwt>
<pdfrwt beam="1">  1       21 0.28613397E-01 0.17922569E+03</pdfrwt>
<pdfrwt beam="2">  1       21 0.11108774E+00 0.17922569E+03</pdfrwt>
<totfact> 0.75269393E+03</totfact>
</mgrwt>
</event>
<event>
 4    1  0.3976152E+000  0.1823932E+03  0.7546771E-02  0.1165507E+00
         21   -1    0    0  503  502  0.00000000000E+00  0.00000000000E+00  0.16244158003E+02  0.16244158003E+02  0.00000000000E+00 0.  1.
         21   -1    0    0  501  503 -0.00000000000E+00 -0.00000000000E+00 -0.21444510729E+04  0.21444510729E+04  0.00000000000E+00 0.  1.
          6    1    1    2  501    0 -0.48038840095E+02 -0.32102368184E+02 -0.12932756842E+04  0.13060739978E+04  0.17300000000E+03 0.  1.
         -6    1    1    2    0  502  0.48038840095E+02  0.32102368184E+02 -0.83493123070E+03  0.85462123318E+03  0.17300000000E+03 0.  1.
<mgrwt>
<rscale>  2 0.18239324E+03</rscale>
<asrwt>0</asrwt>
<pdfrwt beam="1">  1       21 0.24991004E-02 0.18239324E+03</pdfrwt>
<pdfrwt beam="2">  1       21 0.32991566E+00 0.18239324E+03</pdfrwt>
<totfact> 0.19827056E+04</totfact>
</mgrwt>
</event>
<event>
 4    1  0.3976152E+000  0.4927379E+03  0.7546771E-02  0.1015692E+00
         21   -1    0    0  501  502  0.00000000000E+00  0.00000000000E+00  0.19679263982E+04  0.19679263982E+04  0.00000000000E+00 0.  1.
         21   -1    0    0  502  503 -0.00000000000E+00 -0.00000000000E+00 -0.12440003529E+03  0.12440003529E+03  0.00000000000E+00 0. -1.
          6    1    1    2  501    0 -0.44889194810E+03 -0.10657224819E+03  0.10167810824E+04  0.11298824694E+04  0.17300000000E+03 0. -1.
         -6    1    1    2    0  503  0.44889194810E+03  0.10657224819E+03  0.82674528051E+03  0.96244396408E+03  0.17300000000E+03 0.  1.
<mgrwt>
<rscale>  2 0.49273789E+03</rscale>
<asrwt>0</asrwt>
<pdfrwt beam="1">  1       21 0.30275789E+00 0.49273789E+03</pdfrwt>
<pdfrwt beam="2">  1       21 0.19138468E-01 0.49273789E+03</pdfrwt>
<totfact> 0.64519196E+02</totfact>
</mgrwt>
</event>
<event>
 4    1  0.3976152E+000  0.2009396E+03  0.7546771E-02  0.1148949E+00
         21   -1    0    0  501  502  0.00000000000E+00  0.00000000000E+00  0.43943957319E+03  0.43943957319E+03  0.00000000000E+00 0. -1.
         21   -1    0    0  502  503 -0.00000000000E+00 -0.00000000000E+00 -0.14641713818E+03  0.14641713818E+03  0.00000000000E+00 0. -1.
          6    1    1    2  501    0 -0.64027734512E+02 -0.79675371835E+02  0.32528445233E+03  0.38234368125E+03  0.17300000000E+03 0. -1.
         -6    1    1    2    0  503  0.64027734512E+02  0.79675371835E+02 -0.32262017330E+02  0.20351303011E+03  0.17300000000E+03 0. -1.
<mgrwt>
<rscale>  2 0.20093958E+03</rscale>
<asrwt>0</asrwt>
<pdfrwt beam="1">  1       21 0.67606087E-01 0.20093958E+03</pdfrwt>
<pdfrwt beam="2">  1       21 0.22525714E-01 0.20093958E+03</pdfrwt>
<totfact> 0.36764875E+04</totfact>
</mgrwt>
</event>
<event>
 4    1  0.3976152E+000  0.1910031E+03  0.7546771E-02  0.1157560E+00
         21   -1    0    0  501  502  0.00000000000E+00  0.00000000000E+00  0.11701536820E+03  0.11701536820E+03  0.00000000000E+00 0. -1.
         21   -1    0    0  502  503 -0.00000000000E+00 -0.00000000000E+00 -0.34211962466E+03  0.34211962466E+03  0.00000000000E+00 0. -1.
          6    1    1    2  501    0 -0.62110251758E+02  0.51918051881E+02 -0.44179768304E+02  0.19604596250E+03  0.17300000000E+03 0.  1.
         -6    1    1    2    0  503  0.62110251758E+02 -0.51918051881E+02 -0.18092448815E+03  0.26308903036E+03  0.17300000000E+03 0.  1.
<mgrwt>
<rscale>  2 0.19100306E+03</rscale>
<asrwt>0</asrwt>
<pdfrwt beam="1">  1       21 0.18002365E-01 0.19100306E+03</pdfrwt>
<pdfrwt beam="2">  1       21 0.52633786E-01 0.19100306E+03</pdfrwt>
<totfact> 0.96122250E+04</totfact>
</mgrwt>
</event>
<event>
 4    1  0.3976152E+000  0.2812904E+03  0.7546771E-02  0.1094986E+00
         21   -1    0    0  503  502  0.00000000000E+00  0.00000000000E+00  0.64662828531E+02  0.64662828531E+02  0.00000000000E+00 0.  1.
         21   -1    0    0  501  503 -0.00000000000E+00 -0.00000000000E+00 -0.14063051507E+04  0.14063051507E+04  0.00000000000E+00 0. -1.
          6    1    1    2  501    0 -0.21117473066E+03  0.67827009439E+02 -0.93588882844E+03  0.97724724061E+03  0.17300000000E+03 0.  1.
         -6    1    1    2    0  502  0.21117473066E+03 -0.67827009439E+02 -0.40575349375E+03  0.49372073865E+03  0.17300000000E+03 0.  1.
<mgrwt>
<rscale>  2 0.28129037E+03</rscale>
<asrwt>0</asrwt>
<pdfrwt beam="1">  1       21 0.99481271E-02 0.28129037E+03</pdfrwt>
<pdfrwt beam="2">  1       21 0.21635465E+00 0.28129037E+03</pdfrwt>
<totfact> 0.81123788E+03</totfact>
</mgrwt>
</event>
<event>
 4    1  0.3976152E+000  0.2068862E+03  0.7546771E-02  0.1144056E+00
         21   -1    0    0  501  502  0.00000000000E+00  0.00000000000E+00  0.15278129417E+03  0.15278129417E+03  0.00000000000E+00 0. -1.
         21   -1    0    0  502  503 -0.00000000000E+00 -0.00000000000E+00 -0.36392891135E+03  0.36392891135E+03  0.00000000000E+00 0. -1.
          6    1    1    2  501    0  0.11101914551E+03 -0.23401592389E+02  0.18383641065E+02  0.20770133234E+03  0.17300000000E+03 0.  1.
         -6    1    1    2    0  503 -0.11101914551E+03  0.23401592389E+02 -0.22953125824E+03  0.30900887318E+03  0.17300000000E+03 0.  1.
<mgrwt>
<rscale>  2 0.20688616E+03</rscale>
<asrwt>0</asrwt>
<pdfrwt beam="1">  1       21 0.23504815E-01 0.20688616E+03</pdfrwt>
<pdfrwt beam="2">  1       21 0.55989063E-01 0.20688616E+03</pdfrwt>
<totfact> 0.50807632E+04</totfact>
</mgrwt>
</event>
<event>
 4    1  0.3976152E+000  0.1750268E+03  0.7546771E-02  0.1172705E+00
         21   -1    0    0  501  502  0.00000000000E+00  0.00000000000E+00  0.25457939102E+03  0.25457939102E+03  0.00000000000E+00 0. -1.
         21   -1    0    0  502  503 -0.00000000000E+00 -0.00000000000E+00 -0.12497001676E+03  0.12497001676E+03  0.00000000000E+00 0. -1.
          6    1    1    2  501    0  0.12695831864E+02 -0.23328326238E+02  0.10135891514E+03  0.20225732281E+03  0.17300000000E+03 0. -1.
         -6    1    1    2    0  503 -0.12695831864E+02  0.23328326238E+02  0.28250459121E+02  0.17729208497E+03  0.17300000000E+03 0. -1.
<mgrwt>
<rscale>  2 0.17502684E+03</rscale>
<asrwt>0</asrwt>
<pdfrwt beam="1">  1       21 0.39166060E-01 0.17502684E+03</pdfrwt>
<pdfrwt beam="2">  1       21 0.19226157E-01 0.17502684E+03</pdfrwt>
<totfact> 0.15703468E+05</totfact>
</mgrwt>
</event>
<event>
 4    1  0.3976152E+000  0.1827356E+03  0.7546771E-02  0.1165181E+00
         21   -1    0    0  503  502  0.00000000000E+00  0.00000000000E+00  0.45164680871E+02  0.45164680871E+02  0.00000000000E+00 0.  1.
         21   -1    0    0  501  503 -0.00000000000E+00 -0.00000000000E+00 -0.83468940552E+03  0.83468940552E+03  0.00000000000E+00 0.  1.
          6    1    1    2  501    0  0.56280971077E+02  0.17197582553E+02 -0.54344649647E+03  0.57334666571E+03  0.17300000000E+03 0.  1.
         -6    1    1    2    0  502 -0.56280971077E+02 -0.17197582553E+02 -0.24607822817E+03  0.30650742068E+03  0.17300000000E+03 0.  1.
<mgrwt>
<rscale>  2 0.18273561E+03</rscale>
<asrwt>0</asrwt>
<pdfrwt beam="1">  1       21 0.69484124E-02 0.18273561E+03</pdfrwt>
<pdfrwt beam="2">  1       21 0.12841376E+00 0.18273561E+03</pdfrwt>
<totfact> 0.68638336E+04</totfact>
</mgrwt>
</event>
<event>
 4    1  0.3976152E+000  0.1970920E+03  0.7546771E-02  0.1152216E+00
         21   -1    0    0  501  502  0.00000000000E+00  0.00000000000E+00  0.87684901551E+02  0.87684901551E+02  0.00000000000E+00 0.  1.
         21   -1    0    0  502  503 -0.00000000000E+00 -0.00000000000E+00 -0.56339840888E+03  0.56339840888E+03  0.00000000000E+00 0.  1.
          6    1    1    2  501    0 -0.82575079986E+02 -0.45799793095E+02 -0.87372320423E+02  0.21559032274E+03  0.17300000000E+03 0.  1.
         -6    1    1    2    0  503  0.82575079986E+02  0.45799793095E+02 -0.38834118691E+03  0.43549298770E+03  0.17300000000E+03 0.  1.
<mgrwt>
<rscale>  2 0.19709202E+03</rscale>
<asrwt>0</asrwt>
<pdfrwt beam="1">  1       21 0.13489985E-01 0.19709202E+03</pdfrwt>
<pdfrwt beam="2">  1       21 0.86676679E-01 0.19709202E+03</pdfrwt>
<totfact> 0.54364144E+04</totfact>
</mgrwt>
</event>
<event>
 4    1  0.3976152E+000  0.1999054E+03  0.7546771E-02  0.1149819E+00
         21   -1    0    0  503  502  0.00000000000E+00  0.00000000000E+00  0.33924991768E+03  0.33924991768E+03  0.00000000000E+00 0.  1.
         21   -1    0    0  501  503 -0.00000000000E+00 -0.00000000000E+00 -0.11788500140E+03  0.11788500140E+03  0.00000000000E+00 0. -1.
          6    1    1    2  501    0  0.48106327839E+02 -0.87857638611E+02  0.10439173543E+03  0.22552121378E+03  0.17300000000E+03 0.  1.
         -6    1    1    2    0  502 -0.48106327839E+02  0.87857638611E+02  0.11697318085E+03  0.23161370529E+03  0.17300000000E+03 0. -1.
<mgrwt>
<rscale>  2 0.19990544E+03</rscale>
<asrwt>0</asrwt>
<pdfrwt beam="1">  1       21 0.52192295E-01 0.19990544E+03</pdfrwt>
<pdfrwt beam="2">  1       21 0.18136154E-01 0.19990544E+03</pdfrwt>
<totfact> 0.96155519E+04</totfact>
</mgrwt>
</event>
<event>
 4    1  0.3976152E+000  0.2161666E+03  0.7546771E-02  0.1136774E+00
         21   -1    0    0  501  502  0.00000000000E+00  0.00000000000E+00  0.22409288933E+03  0.22409288933E+03  0.00000000000E+00 0. -1.
         21   -1    0    0  502  503 -0.00000000000E+00 -0.00000000000E+00 -0.26040526364E+03  0.26040526364E+03  0.00000000000E+00 0. -1.
          6    1    1    2  501    0 -0.10243374384E+03 -0.79412269917E+02  0.89976454862E+02  0.23414470509E+03  0.17300000000E+03 0. -1.
         -6    1    1    2    0  503  0.10243374384E+03  0.79412269917E+02 -0.12628882918E+03  0.25035344788E+03  0.17300000000E+03 0. -1.
<mgrwt>
<rscale>  2 0.21616656E+03</rscale>
<asrwt>0</asrwt>
<pdfrwt beam="1">  1       21 0.34475829E-01 0.21616656E+03</pdfrwt>
<pdfrwt beam="2">  1       21 0.40062348E-01 0.21616656E+03</pdfrwt>
<totfact> 0.48139914E+04</totfact>
</mgrwt>
</event>
<event>
 4    1  0.3976152E+000  0.2089037E+03  0.7546771E-02  0.1142437E+00
         21   -1    0    0  503  502  0.00000000000E+00  0.00000000000E+00  0.45276215348E+02  0.45276215348E+02  0.00000000000E+00 0.  1.
         21   -1    0    0  501  503 -0.00000000000E+00 -0.00000000000E+00 -0.11481169081E+04  0.11481169081E+04  0.00000000000E+00 0.  1.
          6    1    1    2  501    0  0.11966392867E+02  0.11648417090E+03 -0.79044952949E+03  0.81758865898E+03  0.17300000000E+03 0.  1.
         -6    1    1    2    0  502 -0.11966392867E+02 -0.11648417090E+03 -0.31239116327E+03  0.37580446447E+03  0.17300000000E+03 0.  1.
<mgrwt>
<rscale>  2 0.20890370E+03</rscale>
<asrwt>0</asrwt>
<pdfrwt beam="1">  1       21 0.69655712E-02 0.20890370E+03</pdfrwt>
<pdfrwt beam="2">  1       21 0.17663338E+00 0.20890370E+03</pdfrwt>
<totfact> 0.28957530E+04</totfact>
</mgrwt>
</event>
<event>
 4    1  0.3976152E+000  0.2206381E+03  0.7546771E-02  0.1133408E+00
         21   -1    0    0  501  502  0.00000000000E+00  0.00000000000E+00  0.95358632954E+02  0.95358632954E+02  0.00000000000E+00 0. -1.
         21   -1    0    0  502  503 -0.00000000000E+00 -0.00000000000E+00 -0.61794242549E+03  0.61794242549E+03  0.00000000000E+00 0. -1.
          6    1    1    2  501    0 -0.11697459377E+03  0.71197723779E+02 -0.11258049112E+03  0.24770050149E+03  0.17300000000E+03 0. -1.
         -6    1    1    2    0  503  0.11697459377E+03 -0.71197723779E+02 -0.41000330141E+03  0.46560055695E+03  0.17300000000E+03 0. -1.
<mgrwt>
<rscale>  2 0.22063810E+03</rscale>
<asrwt>0</asrwt>
<pdfrwt beam="1">  1       21 0.14670559E-01 0.22063810E+03</pdfrwt>
<pdfrwt beam="2">  1       21 0.95068065E-01 0.22063810E+03</pdfrwt>
<totfact> 0.37220348E+04</totfact>
</mgrwt>
</event>
<event>
 4    1  0.3976152E+000  0.1817074E+03  0.7546771E-02  0.1166161E+00
         21   -1    0    0  503  502  0.00000000000E+00  0.00000000000E+00  0.53294483352E+02  0.53294483352E+02  0.00000000000E+00 0.  1.
         21   -1    0    0  501  503 -0.00000000000E+00 -0.00000000000E+00 -0.66711205564E+03  0.66711205564E+03  0.00000000000E+00 0.  1.
          6    1    1    2  501    0 -0.21742978210E+02 -0.51145045654E+02 -0.40310684315E+03  0.44216818044E+03  0.17300000000E+03 0.  1.
         -6    1    1    2    0  502  0.21742978210E+02  0.51145045654E+02 -0.21071072913E+03  0.27823835855E+03  0.17300000000E+03 0.  1.
<mgrwt>
<rscale>  2 0.18170738E+03</rscale>
<asrwt>0</asrwt>
<pdfrwt beam="1">  1       21 0.81991513E-02 0.18170738E+03</pdfrwt>
<pdfrwt beam="2">  1       21 0.10263262E+00 0.18170738E+03</pdfrwt>
<totfact> 0.89131987E+04</totfact>
</mgrwt>
</event>
<event>
 4    1  0.3976152E+000  0.1830944E+03  0.7546771E-02  0.1164841E+00
         21   -1    0    0  503  502  0.00000000000E+00  0.00000000000E+00  0.90119871103E+02  0.90119871103E+02  0.00000000000E+00 0. -1.
         21   -1    0    0  501  503 -0.00000000000E+00 -0.00000000000E+00 -0.51094280362E+03  0.51094280362E+03  0.00000000000E+00 0. -1.
          6    1    1    2  501    0 -0.59230716356E+02 -0.92878407859E+01 -0.36713703810E+03  0.41025985240E+03  0.17300000000E+03 0. -1.
         -6    1    1    2    0  502  0.59230716356E+02  0.92878407859E+01 -0.53685894415E+02  0.19080282232E+03  0.17300000000E+03 0. -1.
<mgrwt>
<rscale>  2 0.18309435E+03</rscale>
<asrwt>0</asrwt>
<pdfrwt beam="1">  1       21 0.13864596E-01 0.18309435E+03</pdfrwt>
<pdfrwt beam="2">  1       21 0.78606585E-01 0.18309435E+03</pdfrwt>
<totfact> 0.65033693E+04</totfact>
</mgrwt>
</event>
<event>
 4    1  0.3976152E+000  0.1861958E+03  0.7546771E-02  0.1161938E+00
         21   -1    0    0  503  502  0.00000000000E+00  0.00000000000E+00  0.40036731294E+03  0.40036731294E+03  0.00000000000E+00 0. -1.
         21   -1    0    0  501  503 -0.00000000000E+00 -0.00000000000E+00 -0.88161845290E+02  0.88161845290E+02  0.00000000000E+00 0.  1.
          6    1    1    2  501    0  0.65128322743E+02 -0.22319508892E+02  0.12351446292E+03  0.22343831688E+03  0.17300000000E+03 0. -1.
         -6    1    1    2    0  502 -0.65128322743E+02  0.22319508892E+02  0.18869100473E+03  0.26509084135E+03  0.17300000000E+03 0.  1.
<mgrwt>
<rscale>  2 0.18619575E+03</rscale>
<asrwt>0</asrwt>
<pdfrwt beam="1">  1       21 0.61594970E-01 0.18619575E+03</pdfrwt>
<pdfrwt beam="2">  1       21 0.13563361E-01 0.18619575E+03</pdfrwt>
<totfact> 0.11558475E+05</totfact>
</mgrwt>
</event>
<event>
 4    1  0.3976152E+000  0.2207361E+03  0.7546771E-02  0.1133335E+00
         21   -1    0    0  503  502  0.00000000000E+00  0.00000000000E+00  0.16863218885E+03  0.16863218885E+03  0.00000000000E+00 0.  1.
         21   -1    0    0  501  503 -0.00000000000E+00 -0.00000000000E+00 -0.70828261624E+03  0.70828261624E+03  0.00000000000E+00 0. -1.
          6    1    1    2  501    0 -0.12712224421E+03 -0.51335723011E+02 -0.60719727662E+03  0.64607503756E+03  0.17300000000E+03 0. -1.
         -6    1    1    2    0  502  0.12712224421E+03  0.51335723011E+02  0.67546849229E+02  0.23083976752E+03  0.17300000000E+03 0.  1.
<mgrwt>
<rscale>  2 0.22073609E+03</rscale>
<asrwt>0</asrwt>
<pdfrwt beam="1">  1       21 0.25943414E-01 0.22073609E+03</pdfrwt>
<pdfrwt beam="2">  1       21 0.10896656E+00 0.22073609E+03</pdfrwt>
<totfact> 0.92457719E+03</totfact>
</mgrwt>
</event>
<event>
 4    1  0.3976152E+000  0.2323296E+03  0.7546771E-02  0.1125011E+00
         21   -1    0    0  501  502  0.00000000000E+00  0.00000000000E+00  0.20604204265E+03  0.20604204265E+03  0.00000000000E+00 0. -1.
         21   -1    0    0  502  503 -0.00000000000E+00 -0.00000000000E+00 -0.31880579552E+03  0.31880579552E+03  0.00000000000E+00 0.  1.
          6    1    1    2  501    0  0.13658564539E+03 -0.73433081943E+02  0.54420012842E+02  0.23861809204E+03  0.17300000000E+03 0. -1.
         -6    1    1    2    0  503 -0.13658564539E+03  0.73433081943E+02 -0.16718376571E+03  0.28622974613E+03  0.17300000000E+03 0.  1.
<mgrwt>
<rscale>  2 0.23232963E+03</rscale>
<asrwt>0</asrwt>
<pdfrwt beam="1">  1       21 0.31698776E-01 0.23232963E+03</pdfrwt>
<pdfrwt beam="2">  1       21 0.49047045E-01 0.23232963E+03</pdfrwt>
<totfact> 0.37210259E+04</totfact>
</mgrwt>
</event>
<event>
 4    1  0.3976152E+000  0.1772745E+03  0.7546771E-02  0.1170467E+00
         21   -1    0    0  503  502  0.00000000000E+00  0.00000000000E+00  0.51638211198E+02  0.51638211198E+02  0.00000000000E+00 0. -1.
         21   -1    0    0  501  503 -0.00000000000E+00 -0.00000000000E+00 -0.82653838638E+03  0.82653838638E+03  0.00000000000E+00 0. -1.
          6    1    1    2  501    0 -0.75885597908E+01  0.37942904178E+02 -0.61292694744E+03  0.63804834701E+03  0.17300000000E+03 0. -1.
         -6    1    1    2    0  502  0.75885597908E+01 -0.37942904178E+02 -0.16197322774E+03  0.24012825057E+03  0.17300000000E+03 0. -1.
<mgrwt>
<rscale>  2 0.17727451E+03</rscale>
<asrwt>0</asrwt>
<pdfrwt beam="1">  1       21 0.79443406E-02 0.17727451E+03</pdfrwt>
<pdfrwt beam="2">  1       21 0.12715975E+00 0.17727451E+03</pdfrwt>
<totfact> 0.55951360E+04</totfact>
</mgrwt>
</event>
<event>
 4    1  0.3976152E+000  0.1762922E+03  0.7546771E-02  0.1171440E+00
         21   -1    0    0  501  502  0.00000000000E+00  0.00000000000E+00  0.16964521024E+03  0.16964521024E+03  0.00000000000E+00 0.  1.
         21   -1    0    0  502  503 -0.00000000000E+00 -0.00000000000E+00 -0.39031054450E+03  0.39031054450E+03  0.00000000000E+00 0.  1.
          6    1    1    2  501    0 -0.23467570402E+01 -0.33829561231E+02  0.93615603027E+02  0.19960668228E+03  0.17300000000E+03 0.  1.
         -6    1    1    2    0  503  0.23467570402E+01  0.33829561231E+02 -0.31428093729E+03  0.36034907246E+03  0.17300000000E+03 0.  1.
<mgrwt>
<rscale>  2 0.17629222E+03</rscale>
<asrwt>0</asrwt>
<pdfrwt beam="1">  1       21 0.26099263E-01 0.17629222E+03</pdfrwt>
<pdfrwt beam="2">  1       21 0.60047775E-01 0.17629222E+03</pdfrwt>
<totfact> 0.36393262E+04</totfact>
</mgrwt>
</event>
<event>
 4    1  0.3976152E+000  0.2761003E+03  0.7546771E-02  0.1097838E+00
         21   -1    0    0  503  502  0.00000000000E+00  0.00000000000E+00  0.34091248395E+03  0.34091248395E+03  0.00000000000E+00 0. -1.
         21   -1    0    0  501  503 -0.00000000000E+00 -0.00000000000E+00 -0.30036138491E+03  0.30036138491E+03  0.00000000000E+00 0.  1.
          6    1    1    2  501    0  0.17460701468E+03  0.12575688037E+03 -0.14180650172E+03  0.31038763904E+03  0.17300000000E+03 0.  1.
         -6    1    1    2    0  502 -0.17460701468E+03 -0.12575688037E+03  0.18235760076E+03  0.33088622983E+03  0.17300000000E+03 0. -1.
<mgrwt>
<rscale>  2 0.27610035E+03</rscale>
<asrwt>0</asrwt>
<pdfrwt beam="1">  1       21 0.52448074E-01 0.27610035E+03</pdfrwt>
<pdfrwt beam="2">  1       21 0.46209444E-01 0.27610035E+03</pdfrwt>
<totfact> 0.14778255E+04</totfact>
</mgrwt>
</event>
<event>
 4    1  0.3976152E+000  0.1878582E+03  0.7546771E-02  0.1160407E+00
         21   -1    0    0  501  502  0.00000000000E+00  0.00000000000E+00  0.13155114032E+04  0.13155114032E+04  0.00000000000E+00 0.  1.
         21   -1    0    0  502  503 -0.00000000000E+00 -0.00000000000E+00 -0.35461087094E+02  0.35461087094E+02  0.00000000000E+00 0.  1.
          6    1    1    2  501    0  0.34525292723E+02 -0.64573239305E+02  0.97334313961E+03  0.99130599035E+03  0.17300000000E+03 0.  1.
         -6    1    1    2    0  503 -0.34525292723E+02  0.64573239305E+02  0.30670717651E+03  0.35966649996E+03  0.17300000000E+03 0.  1.
<mgrwt>
<rscale>  2 0.18785819E+03</rscale>
<asrwt>0</asrwt>
<pdfrwt beam="1">  1       21 0.20238633E+00 0.18785819E+03</pdfrwt>
<pdfrwt beam="2">  1       21 0.54555529E-02 0.18785819E+03</pdfrwt>
<totfact> 0.30171112E+04</totfact>
</mgrwt>
</event>
<event>
 4    1  0.3976152E+000  0.1820651E+03  0.7546771E-02  0.1165819E+00
         21   -1    0    0  501  502  0.00000000000E+00  0.00000000000E+00  0.50704868092E+03  0.50704868092E+03  0.00000000000E+00 0. -1.
         21   -1    0    0  502  503 -0.00000000000E+00 -0.00000000000E+00 -0.67652344067E+02  0.67652344067E+02  0.00000000000E+00 0.  1.
          6    1    1    2  501    0 -0.21476872421E+02  0.52511386080E+02  0.27243314625E+03  0.32766983519E+03  0.17300000000E+03 0. -1.
         -6    1    1    2    0  503  0.21476872421E+02 -0.52511386080E+02  0.16696319060E+03  0.24703118980E+03  0.17300000000E+03 0.  1.
<mgrwt>
<rscale>  2 0.18206510E+03</rscale>
<asrwt>0</asrwt>
<pdfrwt beam="1">  1       21 0.78007487E-01 0.18206510E+03</pdfrwt>
<pdfrwt beam="2">  1       21 0.10408053E-01 0.18206510E+03</pdfrwt>
<totfact> 0.11050711E+05</totfact>
</mgrwt>
</event>
<event>
 4    1  0.3976152E+000  0.1807632E+03  0.7546771E-02  0.1167067E+00
         21   -1    0    0  503  502  0.00000000000E+00  0.00000000000E+00  0.24977646671E+03  0.24977646671E+03  0.00000000000E+00 0.  1.
         21   -1    0    0  501  503 -0.00000000000E+00 -0.00000000000E+00 -0.17040590437E+03  0.17040590437E+03  0.00000000000E+00 0.  1.
          6    1    1    2  501    0 -0.21663020861E+02  0.47718254660E+02 -0.61576471651E+02  0.19096329533E+03  0.17300000000E+03 0.  1.
         -6    1    1    2    0  502  0.21663020861E+02 -0.47718254660E+02  0.14094703398E+03  0.22921907575E+03  0.17300000000E+03 0.  1.
<mgrwt>
<rscale>  2 0.18076316E+03</rscale>
<asrwt>0</asrwt>
<pdfrwt beam="1">  1       21 0.38427149E-01 0.18076316E+03</pdfrwt>
<pdfrwt beam="2">  1       21 0.26216293E-01 0.18076316E+03</pdfrwt>
<totfact> 0.90736542E+04</totfact>
</mgrwt>
</event>
<event>
 4    1  0.3976152E+000  0.2140680E+03  0.7546771E-02  0.1138384E+00
         21   -1    0    0  503  502  0.00000000000E+00  0.00000000000E+00  0.91061271107E+03  0.91061271107E+03  0.00000000000E+00 0.  1.
         21   -1    0    0  501  503 -0.00000000000E+00 -0.00000000000E+00 -0.54179646262E+02  0.54179646262E+02  0.00000000000E+00 0.  1.
          6    1    1    2  501    0 -0.12240868537E+03  0.30203156892E+02  0.29951941423E+03  0.36815349576E+03  0.17300000000E+03 0.  1.
         -6    1    1    2    0  502  0.12240868537E+03 -0.30203156892E+02  0.55691365058E+03  0.59663886157E+03  0.17300000000E+03 0.  1.
<mgrwt>
<rscale>  2 0.21406802E+03</rscale>
<asrwt>0</asrwt>
<pdfrwt beam="1">  1       21 0.14009425E+00 0.21406802E+03</pdfrwt>
<pdfrwt beam="2">  1       21 0.83353308E-02 0.21406802E+03</pdfrwt>
<totfact> 0.39419778E+04</totfact>
</mgrwt>
</event>
<event>
 4    1  0.3976152E+000  0.1835963E+03  0.7546771E-02  0.1164367E+00
         21   -1    0    0  501  502  0.00000000000E+00  0.00000000000E+00  0.67131993957E+03  0.67131993957E+03  0.00000000000E+00 0.  1.
         21   -1    0    0  502  503 -0.00000000000E+00 -0.00000000000E+00 -0.53724127735E+02  0.53724127735E+02  0.00000000000E+00 0.  1.
          6    1    1    2  501    0 -0.40205812063E+02 -0.46498242602E+02  0.40150253959E+03  0.44148825940E+03  0.17300000000E+03 0.  1.
         -6    1    1    2    0  503  0.40205812063E+02  0.46498242602E+02  0.21609327224E+03  0.28355580791E+03  0.17300000000E+03 0.  1.
<mgrwt>
<rscale>  2 0.18359628E+03</rscale>
<asrwt>0</asrwt>
<pdfrwt beam="1">  1       21 0.10327999E+00 0.18359628E+03</pdfrwt>
<pdfrwt beam="2">  1       21 0.82652509E-02 0.18359628E+03</pdfrwt>
<totfact> 0.86513343E+04</totfact>
</mgrwt>
</event>
<event>
 4    1  0.3976152E+000  0.1887531E+03  0.7546771E-02  0.1159591E+00
         21   -1    0    0  501  502  0.00000000000E+00  0.00000000000E+00  0.20617313173E+04  0.20617313173E+04  0.00000000000E+00 0. -1.
         21   -1    0    0  502  503 -0.00000000000E+00 -0.00000000000E+00 -0.21880700531E+02  0.21880700531E+02  0.00000000000E+00 0.  1.
          6    1    1    2  501    0  0.51349900607E+02 -0.55334697859E+02  0.14976138103E+04  0.15094617802E+04  0.17300000000E+03 0. -1.
         -6    1    1    2    0  503 -0.51349900607E+02  0.55334697859E+02  0.54223680639E+03  0.57415023756E+03  0.17300000000E+03 0.  1.
<mgrwt>
<rscale>  2 0.18875312E+03</rscale>
<asrwt>0</asrwt>
<pdfrwt beam="1">  1       21 0.31718928E+00 0.18875312E+03</pdfrwt>
<pdfrwt beam="2">  1       21 0.33662633E-02 0.18875312E+03</pdfrwt>
<totfact> 0.14261511E+04</totfact>
</mgrwt>
</event>
<event>
 4    1  0.3976152E+000  0.1881386E+03  0.7546771E-02  0.1160151E+00
         21   -1    0    0  501  502  0.00000000000E+00  0.00000000000E+00  0.29433434906E+02  0.29433434906E+02  0.00000000000E+00 0.  1.
         21   -1    0    0  502  503 -0.00000000000E+00 -0.00000000000E+00 -0.15855368670E+04  0.15855368670E+04  0.00000000000E+00 0.  1.
          6    1    1    2  501    0  0.60624348094E+02 -0.42329784064E+02 -0.38120745174E+03  0.42510615553E+03  0.17300000000E+03 0.  1.
         -6    1    1    2    0  503 -0.60624348094E+02  0.42329784064E+02 -0.11748959804E+04  0.11898641464E+04  0.17300000000E+03 0.  1.
<mgrwt>
<rscale>  2 0.18813857E+03</rscale>
<asrwt>0</asrwt>
<pdfrwt beam="1">  1       21 0.45282210E-02 0.18813857E+03</pdfrwt>
<pdfrwt beam="2">  1       21 0.24392873E+00 0.18813857E+03</pdfrwt>
<totfact> 0.23055916E+04</totfact>
</mgrwt>
</event>
<event>
 4    1  0.3976152E+000  0.2908940E+03  0.7546771E-02  0.1089883E+00
         21   -1    0    0  501  502  0.00000000000E+00  0.00000000000E+00  0.95161710521E+03  0.95161710521E+03  0.00000000000E+00 0.  1.
         21   -1    0    0  502  503 -0.00000000000E+00 -0.00000000000E+00 -0.13793782972E+03  0.13793782972E+03  0.00000000000E+00 0. -1.
          6    1    1    2  501    0 -0.20723419261E+03  0.10837123096E+03  0.73158825187E+03  0.78729962820E+03  0.17300000000E+03 0.  1.
         -6    1    1    2    0  503  0.20723419261E+03 -0.10837123096E+03  0.82091023615E+02  0.30225530673E+03  0.17300000000E+03 0. -1.
<mgrwt>
<rscale>  2 0.29089403E+03</rscale>
<asrwt>0</asrwt>
<pdfrwt beam="1">  1       21 0.14640263E+00 0.29089403E+03</pdfrwt>
<pdfrwt beam="2">  1       21 0.21221205E-01 0.29089403E+03</pdfrwt>
<totfact> 0.61606679E+03</totfact>
</mgrwt>
</event>
<event>
 4    1  0.3976152E+000  0.1795724E+03  0.7546771E-02  0.1168217E+00
         21   -1    0    0  501  502  0.00000000000E+00  0.00000000000E+00  0.27428572203E+03  0.27428572203E+03  0.00000000000E+00 0.  1.
         21   -1    0    0  502  503 -0.00000000000E+00 -0.00000000000E+00 -0.21217618624E+03  0.21217618624E+03  0.00000000000E+00 0.  1.
          6    1    1    2  501    0 -0.44967728677E+02  0.17180275928E+02  0.19347605938E+03  0.26396826335E+03  0.17300000000E+03 0.  1.
         -6    1    1    2    0  503  0.44967728677E+02 -0.17180275928E+02 -0.13136652360E+03  0.22249364491E+03  0.17300000000E+03 0.  1.
<mgrwt>
<rscale>  2 0.17957243E+03</rscale>
<asrwt>0</asrwt>
<pdfrwt beam="1">  1       21 0.42197804E-01 0.17957243E+03</pdfrwt>
<pdfrwt beam="2">  1       21 0.32642490E-01 0.17957243E+03</pdfrwt>
<totfact> 0.49116224E+04</totfact>
</mgrwt>
</event>
<event>
 4    1  0.3976152E+000  0.1740515E+03  0.7546771E-02  0.1173687E+00
         21   -1    0    0  503  502  0.00000000000E+00  0.00000000000E+00  0.64699989712E+02  0.64699989712E+02  0.00000000000E+00 0.  1.
         21   -1    0    0  501  503 -0.00000000000E+00 -0.00000000000E+00 -0.48722856856E+03  0.48722856856E+03  0.00000000000E+00 0.  1.
          6    1    1    2  501    0 -0.18292885773E+02  0.55026428325E+01 -0.26577064637E+03  0.31769158821E+03  0.17300000000E+03 0.  1.
         -6    1    1    2    0  502  0.18292885773E+02 -0.55026428325E+01 -0.15675793247E+03  0.23423697006E+03  0.17300000000E+03 0.  1.
<mgrwt>
<rscale>  2 0.17405145E+03</rscale>
<asrwt>0</asrwt>
<pdfrwt beam="1">  1       21 0.99538445E-02 0.17405145E+03</pdfrwt>
<pdfrwt beam="2">  1       21 0.74958242E-01 0.17405145E+03</pdfrwt>
<totfact> 0.13111035E+05</totfact>
</mgrwt>
</event>
<event>
 4    1  0.3976152E+000  0.1767320E+03  0.7546771E-02  0.1171004E+00
         21   -1    0    0  501  502  0.00000000000E+00  0.00000000000E+00  0.52244543578E+02  0.52244543578E+02  0.00000000000E+00 0. -1.
         21   -1    0    0  502  503 -0.00000000000E+00 -0.00000000000E+00 -0.70494589094E+03  0.70494589094E+03  0.00000000000E+00 0. -1.
          6    1    1    2  501    0  0.25963761029E+02  0.25121464303E+02 -0.17878300247E+03  0.25139126243E+03  0.17300000000E+03 0. -1.
         -6    1    1    2    0  503 -0.25963761029E+02 -0.25121464303E+02 -0.47391834490E+03  0.50579917209E+03  0.17300000000E+03 0. -1.
<mgrwt>
<rscale>  2 0.17673201E+03</rscale>
<asrwt>0</asrwt>
<pdfrwt beam="1">  1       21 0.80376224E-02 0.17673201E+03</pdfrwt>
<pdfrwt beam="2">  1       21 0.10845321E+00 0.17673201E+03</pdfrwt>
<totfact> 0.81020963E+04</totfact>
</mgrwt>
</event>
<event>
 4    1  0.3976152E+000  0.2174594E+03  0.7546771E-02  0.1135791E+00
         21   -1    0    0  501  502  0.00000000000E+00  0.00000000000E+00  0.70472435487E+03  0.70472435487E+03  0.00000000000E+00 0. -1.
         21   -1    0    0  502  503 -0.00000000000E+00 -0.00000000000E+00 -0.11025977404E+03  0.11025977404E+03  0.00000000000E+00 0. -1.
          6    1    1    2  501    0  0.12907329720E+03 -0.26451690370E+02  0.55217273434E+03  0.59345036568E+03  0.17300000000E+03 0. -1.
         -6    1    1    2    0  503 -0.12907329720E+03  0.26451690370E+02  0.42291846486E+02  0.22153376323E+03  0.17300000000E+03 0. -1.
<mgrwt>
<rscale>  2 0.21745944E+03</rscale>
<asrwt>0</asrwt>
<pdfrwt beam="1">  1       21 0.10841913E+00 0.21745944E+03</pdfrwt>
<pdfrwt beam="2">  1       21 0.16963043E-01 0.21745944E+03</pdfrwt>
<totfact> 0.20868426E+04</totfact>
</mgrwt>
</event>
<event>
 4    1  0.3976152E+000  0.1749898E+03  0.7546771E-02  0.1172742E+00
         21   -1    0    0  503  502  0.00000000000E+00  0.00000000000E+00  0.71097052076E+02  0.71097052076E+02  0.00000000000E+00 0. -1.
         21   -1    0    0  501  503 -0.00000000000E+00 -0.00000000000E+00 -0.44572182992E+03  0.44572182992E+03  0.00000000000E+00 0. -1.
          6    1    1    2  501    0  0.25130673742E+02 -0.78015112230E+01 -0.23475355193E+03  0.29279795847E+03  0.17300000000E+03 0. -1.
         -6    1    1    2    0  502 -0.25130673742E+02  0.78015112230E+01 -0.13987122592E+03  0.22402092353E+03  0.17300000000E+03 0. -1.
<mgrwt>
<rscale>  2 0.17498975E+03</rscale>
<asrwt>0</asrwt>
<pdfrwt beam="1">  1       21 0.10938008E-01 0.17498975E+03</pdfrwt>
<pdfrwt beam="2">  1       21 0.68572591E-01 0.17498975E+03</pdfrwt>
<totfact> 0.13505441E+05</totfact>
</mgrwt>
</event>
<event>
 4    1  0.3976152E+000  0.1956019E+03  0.7546771E-02  0.1153504E+00
         21   -1    0    0  501  502  0.00000000000E+00  0.00000000000E+00  0.23368400995E+03  0.23368400995E+03  0.00000000000E+00 0. -1.
         21   -1    0    0  502  503 -0.00000000000E+00 -0.00000000000E+00 -0.28112565288E+03  0.28112565288E+03  0.00000000000E+00 0. -1.
          6    1    1    2  501    0 -0.60791216960E+02 -0.68084688521E+02  0.14262054641E+03  0.24207584995E+03  0.17300000000E+03 0. -1.
         -6    1    1    2    0  503  0.60791216960E+02  0.68084688521E+02 -0.19006218934E+03  0.27273381288E+03  0.17300000000E+03 0. -1.
<mgrwt>
<rscale>  2 0.19560188E+03</rscale>
<asrwt>0</asrwt>
<pdfrwt beam="1">  1       21 0.35951386E-01 0.19560188E+03</pdfrwt>
<pdfrwt beam="2">  1       21 0.43250100E-01 0.19560188E+03</pdfrwt>
<totfact> 0.38288080E+04</totfact>
</mgrwt>
</event>
<event>
 4    1  0.3976152E+000  0.1745760E+03  0.7546771E-02  0.1173158E+00
         21   -1    0    0  501  502  0.00000000000E+00  0.00000000000E+00  0.61183757902E+03  0.61183757902E+03  0.00000000000E+00 0. -1.
         21   -1    0    0  502  503 -0.00000000000E+00 -0.00000000000E+00 -0.49822394166E+02  0.49822394166E+02  0.00000000000E+00 0. -1.
          6    1    1    2  501    0 -0.23153649557E+02 -0.34201708278E+01  0.27620499385E+03  0.32675065062E+03  0.17300000000E+03 0. -1.
         -6    1    1    2    0  503  0.23153649557E+02  0.34201708278E+01  0.28581019101E+03  0.33490932257E+03  0.17300000000E+03 0. -1.
<mgrwt>
<rscale>  2 0.17457603E+03</rscale>
<asrwt>0</asrwt>
<pdfrwt beam="1">  1       21 0.94128853E-01 0.17457603E+03</pdfrwt>
<pdfrwt beam="2">  1       21 0.76649841E-02 0.17457603E+03</pdfrwt>
<totfact> 0.12320516E+05</totfact>
</mgrwt>
</event>
<event>
 4    1  0.3976152E+000  0.2118553E+03  0.7546771E-02  0.1140105E+00
         21   -1    0    0  503  502  0.00000000000E+00  0.00000000000E+00  0.12325608633E+03  0.12325608633E+03  0.00000000000E+00 0. -1.
         21   -1    0    0  501  503 -0.00000000000E+00 -0.00000000000E+00 -0.36518498340E+03  0.36518498340E+03  0.00000000000E+00 0.  1.
          6    1    1    2  501    0 -0.20313491059E+02  0.12058621226E+03 -0.13401836699E+03  0.25068624852E+03  0.17300000000E+03 0. -1.
         -6    1    1    2    0  502  0.20313491059E+02 -0.12058621226E+03 -0.10791053008E+03  0.23775482121E+03  0.17300000000E+03 0. -1.
<mgrwt>
<rscale>  2 0.21185531E+03</rscale>
<asrwt>0</asrwt>
<pdfrwt beam="1">  1       21 0.18962475E-01 0.21185531E+03</pdfrwt>
<pdfrwt beam="2">  1       21 0.56182304E-01 0.21185531E+03</pdfrwt>
<totfact> 0.75376427E+04</totfact>
</mgrwt>
</event>
<event>
 4    1  0.3976152E+000  0.2540297E+03  0.7546771E-02  0.1110784E+00
         21   -1    0    0  503  502  0.00000000000E+00  0.00000000000E+00  0.38067231115E+03  0.38067231115E+03  0.00000000000E+00 0. -1.
         21   -1    0    0  501  503 -0.00000000000E+00 -0.00000000000E+00 -0.16978486905E+03  0.16978486905E+03  0.00000000000E+00 0. -1.
          6    1    1    2  501    0 -0.16463411064E+03  0.86589106718E+02  0.11634173932E+03  0.27940376536E+03  0.17300000000E+03 0. -1.
         -6    1    1    2    0  502  0.16463411064E+03 -0.86589106718E+02  0.94545702781E+02  0.27105341485E+03  0.17300000000E+03 0. -1.
<mgrwt>
<rscale>  2 0.25402965E+03</rscale>
<asrwt>0</asrwt>
<pdfrwt beam="1">  1       21 0.58564971E-01 0.25402965E+03</pdfrwt>
<pdfrwt beam="2">  1       21 0.26120749E-01 0.25402965E+03</pdfrwt>
<totfact> 0.36917772E+04</totfact>
</mgrwt>
</event>
<event>
 4    1  0.3976152E+000  0.2358777E+03  0.7546771E-02  0.1122570E+00
         21   -1    0    0  503  502  0.00000000000E+00  0.00000000000E+00  0.16751780292E+04  0.16751780292E+04  0.00000000000E+00 0.  1.
         21   -1    0    0  501  503 -0.00000000000E+00 -0.00000000000E+00 -0.38833397895E+02  0.38833397895E+02  0.00000000000E+00 0. -1.
          6    1    1    2  501    0  0.61174653926E+02  0.14821246338E+03  0.49214719329E+03  0.54575372875E+03  0.17300000000E+03 0. -1.
         -6    1    1    2    0  502 -0.61174653926E+02 -0.14821246338E+03  0.11441974381E+04  0.11682576984E+04  0.17300000000E+03 0. -1.
<mgrwt>
<rscale>  2 0.23587766E+03</rscale>
<asrwt>0</asrwt>
<pdfrwt beam="1">  1       21 0.25771964E+00 0.23587766E+03</pdfrwt>
<pdfrwt beam="2">  1       21 0.59743702E-02 0.23587766E+03</pdfrwt>
<totfact> 0.11454549E+04</totfact>
</mgrwt>
</event>
<event>
 4    1  0.3976152E+000  0.2143042E+03  0.7546771E-02  0.1138202E+00
         21   -1    0    0  503  502  0.00000000000E+00  0.00000000000E+00  0.11601533878E+03  0.11601533878E+03  0.00000000000E+00 0. -1.
         21   -1    0    0  501  503 -0.00000000000E+00 -0.00000000000E+00 -0.39757057899E+03  0.39757057899E+03  0.00000000000E+00 0.  1.
          6    1    1    2  501    0  0.94088274913E+02  0.84526309172E+02 -0.15760182006E+03  0.26601622903E+03  0.17300000000E+03 0. -1.
         -6    1    1    2    0  502 -0.94088274913E+02 -0.84526309172E+02 -0.12395342014E+03  0.24756968874E+03  0.17300000000E+03 0. -1.
<mgrwt>
<rscale>  2 0.21430422E+03</rscale>
<asrwt>0</asrwt>
<pdfrwt beam="1">  1       21 0.17848514E-01 0.21430422E+03</pdfrwt>
<pdfrwt beam="2">  1       21 0.61164703E-01 0.21430422E+03</pdfrwt>
<totfact> 0.70224551E+04</totfact>
</mgrwt>
</event>
<event>
 4    1  0.3976152E+000  0.2531434E+03  0.7546771E-02  0.1111334E+00
         21   -1    0    0  501  502  0.00000000000E+00  0.00000000000E+00  0.48305211701E+03  0.48305211701E+03  0.00000000000E+00 0.  1.
         21   -1    0    0  502  503 -0.00000000000E+00 -0.00000000000E+00 -0.15136430786E+03  0.15136430786E+03  0.00000000000E+00 0. -1.
          6    1    1    2  501    0  0.11733219340E+03  0.14277855381E+03  0.27735208876E+03  0.37550731042E+03  0.17300000000E+03 0.  1.
         -6    1    1    2    0  503 -0.11733219340E+03 -0.14277855381E+03  0.54335720386E+02  0.25890911445E+03  0.17300000000E+03 0. -1.
<mgrwt>
<rscale>  2 0.25314336E+03</rscale>
<asrwt>0</asrwt>
<pdfrwt beam="1">  1       21 0.74315710E-01 0.25314336E+03</pdfrwt>
<pdfrwt beam="2">  1       21 0.23286817E-01 0.25314336E+03</pdfrwt>
<totfact> 0.27272765E+04</totfact>
</mgrwt>
</event>
<event>
 4    1  0.3976152E+000  0.2706309E+03  0.7546771E-02  0.1100919E+00
         21   -1    0    0  503  502  0.00000000000E+00  0.00000000000E+00  0.88116290743E+03  0.88116290743E+03  0.00000000000E+00 0. -1.
         21   -1    0    0  501  503 -0.00000000000E+00 -0.00000000000E+00 -0.85215919161E+02  0.85215919161E+02  0.00000000000E+00 0.  1.
          6    1    1    2  501    0 -0.20417983845E+03  0.40282272241E+02  0.32217081948E+03  0.42075539784E+03  0.17300000000E+03 0.  1.
         -6    1    1    2    0  502  0.20417983845E+03 -0.40282272241E+02  0.47377616879E+03  0.54562342875E+03  0.17300000000E+03 0. -1.
<mgrwt>
<rscale>  2 0.27063087E+03</rscale>
<asrwt>0</asrwt>
<pdfrwt beam="1">  1       21 0.13556352E+00 0.27063087E+03</pdfrwt>
<pdfrwt beam="2">  1       21 0.13110142E-01 0.27063087E+03</pdfrwt>
<totfact> 0.18603924E+04</totfact>
</mgrwt>
</event>
<event>
 4    1  0.3976152E+000  0.1974046E+03  0.7546771E-02  0.1151947E+00
         21   -1    0    0  503  502  0.00000000000E+00  0.00000000000E+00  0.22420244880E+04  0.22420244880E+04  0.00000000000E+00 0.  1.
         21   -1    0    0  501  503 -0.00000000000E+00 -0.00000000000E+00 -0.23082490693E+02  0.23082490693E+02  0.00000000000E+00 0.  1.
          6    1    1    2  501    0  0.92171765125E+02  0.23322953663E+02  0.54659573777E+03  0.58115014841E+03  0.17300000000E+03 0.  1.
         -6    1    1    2    0  502 -0.92171765125E+02 -0.23322953663E+02  0.16723462595E+04  0.16839568303E+04  0.17300000000E+03 0.  1.
<mgrwt>
<rscale>  2 0.19740465E+03</rscale>
<asrwt>0</asrwt>
<pdfrwt beam="1">  1       21 0.34492667E+00 0.19740465E+03</pdfrwt>
<pdfrwt beam="2">  1       21 0.35511542E-02 0.19740465E+03</pdfrwt>
<totfact> 0.89061027E+03</totfact>
</mgrwt>
</event>
<event>
 4    1  0.3976152E+000  0.2983789E+03  0.7546771E-02  0.1086054E+00
         21   -1    0    0  503  502  0.00000000000E+00  0.00000000000E+00  0.88494748093E+03  0.88494748093E+03  0.00000000000E+00 0.  1.
         21   -1    0    0  501  503 -0.00000000000E+00 -0.00000000000E+00 -0.11674529641E+03  0.11674529641E+03  0.00000000000E+00 0. -1.
          6    1    1    2  501    0  0.73460972886E+01 -0.24299588097E+03  0.19787380811E+03  0.35802794199E+03  0.17300000000E+03 0. -1.
         -6    1    1    2    0  502 -0.73460972886E+01  0.24299588097E+03  0.57032837641E+03  0.64366483534E+03  0.17300000000E+03 0.  1.
<mgrwt>
<rscale>  2 0.29837889E+03</rscale>
<asrwt>0</asrwt>
<pdfrwt beam="1">  1       21 0.13614576E+00 0.29837889E+03</pdfrwt>
<pdfrwt beam="2">  1       21 0.17960815E-01 0.29837889E+03</pdfrwt>
<totfact> 0.10168220E+04</totfact>
</mgrwt>
</event>
<event>
 4    1  0.3976152E+000  0.1783071E+03  0.7546771E-02  0.1169452E+00
         21   -1    0    0  503  502  0.00000000000E+00  0.00000000000E+00  0.19915320523E+03  0.19915320523E+03  0.00000000000E+00 0.  1.
         21   -1    0    0  501  503 -0.00000000000E+00 -0.00000000000E+00 -0.17031981988E+03  0.17031981988E+03  0.00000000000E+00 0.  1.
          6    1    1    2  501    0 -0.36624571523E+02  0.22870460231E+02 -0.31836412590E+02  0.18112695646E+03  0.17300000000E+03 0. -1.
         -6    1    1    2    0  502  0.36624571523E+02 -0.22870460231E+02  0.60669797939E+02  0.18834606864E+03  0.17300000000E+03 0. -1.
<mgrwt>
<rscale>  2 0.17830709E+03</rscale>
<asrwt>0</asrwt>
<pdfrwt beam="1">  1       21 0.30638955E-01 0.17830709E+03</pdfrwt>
<pdfrwt beam="2">  1       21 0.26203049E-01 0.17830709E+03</pdfrwt>
<totfact> 0.14224760E+05</totfact>
</mgrwt>
</event>
<event>
 4    1  0.3976152E+000  0.2036956E+03  0.7546771E-02  0.1146658E+00
         21   -1    0    0  503  502  0.00000000000E+00  0.00000000000E+00  0.22371181687E+04  0.22371181687E+04  0.00000000000E+00 0.  1.
         21   -1    0    0  501  503 -0.00000000000E+00 -0.00000000000E+00 -0.19081655839E+02  0.19081655839E+02  0.00000000000E+00 0.  1.
          6    1    1    2  501    0  0.10391142355E+03 -0.27664123913E+02  0.92019027922E+03  0.94246593448E+03  0.17300000000E+03 0.  1.
         -6    1    1    2    0  502 -0.10391142355E+03  0.27664123913E+02  0.12978462337E+04  0.13137338901E+04  0.17300000000E+03 0.  1.
<mgrwt>
<rscale>  2 0.20369558E+03</rscale>
<asrwt>0</asrwt>
<pdfrwt beam="1">  1       21 0.34417182E+00 0.20369558E+03</pdfrwt>
<pdfrwt beam="2">  1       21 0.29356411E-02 0.20369558E+03</pdfrwt>
<totfact> 0.12258389E+04</totfact>
</mgrwt>
</event>
<event>
 4    1  0.3976152E+000  0.1821989E+03  0.7546771E-02  0.1165692E+00
         21   -1    0    0  503  502  0.00000000000E+00  0.00000000000E+00  0.16281780578E+03  0.16281780578E+03  0.00000000000E+00 0.  1.
         21   -1    0    0  501  503 -0.00000000000E+00 -0.00000000000E+00 -0.21102285592E+03  0.21102285592E+03  0.00000000000E+00 0.  1.
          6    1    1    2  501    0 -0.53751988945E+02 -0.19446680215E+02 -0.58475086046E+02  0.19135251599E+03  0.17300000000E+03 0.  1.
         -6    1    1    2    0  502  0.53751988945E+02  0.19446680215E+02  0.10270035902E+02  0.18248814571E+03  0.17300000000E+03 0.  1.
<mgrwt>
<rscale>  2 0.18219893E+03</rscale>
<asrwt>0</asrwt>
<pdfrwt beam="1">  1       21 0.25048893E-01 0.18219893E+03</pdfrwt>
<pdfrwt beam="2">  1       21 0.32465055E-01 0.18219893E+03</pdfrwt>
<totfact> 0.13824755E+05</totfact>
</mgrwt>
</event>
<event>
 4    1  0.3976152E+000  0.2275168E+03  0.7546771E-02  0.1128400E+00
         21   -1    0    0  501  502  0.00000000000E+00  0.00000000000E+00  0.29221908254E+03  0.29221908254E+03  0.00000000000E+00 0.  1.
         21   -1    0    0  502  503 -0.00000000000E+00 -0.00000000000E+00 -0.19586057890E+03  0.19586057890E+03  0.00000000000E+00 0.  1.
          6    1    1    2  501    0 -0.54966464940E+02 -0.13716255942E+03  0.12362577419E+03  0.25893476402E+03  0.17300000000E+03 0.  1.
         -6    1    1    2    0  503  0.54966464940E+02  0.13716255942E+03 -0.27267270553E+02  0.22914489743E+03  0.17300000000E+03 0.  1.
<mgrwt>
<rscale>  2 0.22751677E+03</rscale>
<asrwt>0</asrwt>
<pdfrwt beam="1">  1       21 0.44956782E-01 0.22751677E+03</pdfrwt>
<pdfrwt beam="2">  1       21 0.30132397E-01 0.22751677E+03</pdfrwt>
<totfact> 0.49351933E+04</totfact>
</mgrwt>
</event>
<event>
 4    1  0.3976152E+000  0.2059542E+03  0.7546771E-02  0.1144810E+00
         21   -1    0    0  503  502  0.00000000000E+00  0.00000000000E+00  0.11706530745E+04  0.11706530745E+04  0.00000000000E+00 0.  1.
         21   -1    0    0  501  503 -0.00000000000E+00 -0.00000000000E+00 -0.38313586235E+02  0.38313586235E+02  0.00000000000E+00 0.  1.
          6    1    1    2  501    0  0.46777598332E+02  0.10148894666E+03  0.42533086132E+03  0.47257114977E+03  0.17300000000E+03 0.  1.
         -6    1    1    2    0  502 -0.46777598332E+02 -0.10148894666E+03  0.70700862698E+03  0.73639551101E+03  0.17300000000E+03 0.  1.
<mgrwt>
<rscale>  2 0.20595424E+03</rscale>
<asrwt>0</asrwt>
<pdfrwt beam="1">  1       21 0.18010045E+00 0.20595424E+03</pdfrwt>
<pdfrwt beam="2">  1       21 0.58943988E-02 0.20595424E+03</pdfrwt>
<totfact> 0.36609873E+04</totfact>
</mgrwt>
</event>
<event>
 4    1  0.3976152E+000  0.1757345E+03  0.7546771E-02  0.1171996E+00
         21   -1    0    0  503  502  0.00000000000E+00  0.00000000000E+00  0.15092659184E+03  0.15092659184E+03  0.00000000000E+00 0. -1.
         21   -1    0    0  501  503 -0.00000000000E+00 -0.00000000000E+00 -0.27359003388E+03  0.27359003388E+03  0.00000000000E+00 0. -1.
          6    1    1    2  501    0  0.29829438234E+02 -0.79885936898E+01 -0.16790406141E+03  0.24305223071E+03  0.17300000000E+03 0. -1.
         -6    1    1    2    0  502 -0.29829438234E+02  0.79885936898E+01  0.45240619379E+02  0.18146439501E+03  0.17300000000E+03 0. -1.
<mgrwt>
<rscale>  2 0.17573450E+03</rscale>
<asrwt>0</asrwt>
<pdfrwt beam="1">  1       21 0.23219476E-01 0.17573450E+03</pdfrwt>
<pdfrwt beam="2">  1       21 0.42090774E-01 0.17573450E+03</pdfrwt>
<totfact> 0.95317416E+04</totfact>
</mgrwt>
</event>
<event>
 4    1  0.3976152E+000  0.2077367E+03  0.7546771E-02  0.1143371E+00
         21   -1    0    0  503  502  0.00000000000E+00  0.00000000000E+00  0.35678234342E+02  0.35678234342E+02  0.00000000000E+00 0. -1.
         21   -1    0    0  501  503 -0.00000000000E+00 -0.00000000000E+00 -0.12199951085E+04  0.12199951085E+04  0.00000000000E+00 0.  1.
          6    1    1    2  501    0  0.71940324175E+02  0.89722486201E+02 -0.65025721275E+03  0.68263385318E+03  0.17300000000E+03 0. -1.
         -6    1    1    2    0  502 -0.71940324175E+02 -0.89722486201E+02 -0.53405966143E+03  0.57303948968E+03  0.17300000000E+03 0.  1.
<mgrwt>
<rscale>  2 0.20773670E+03</rscale>
<asrwt>0</asrwt>
<pdfrwt beam="1">  1       21 0.54889593E-02 0.20773670E+03</pdfrwt>
<pdfrwt beam="2">  1       21 0.18769155E+00 0.20773670E+03</pdfrwt>
<totfact> 0.36715826E+04</totfact>
</mgrwt>
</event>
<event>
 4    1  0.3976152E+000  0.1966619E+03  0.7546771E-02  0.1152586E+00
         21   -1    0    0  501  502  0.00000000000E+00  0.00000000000E+00  0.55234438992E+03  0.55234438992E+03  0.00000000000E+00 0.  1.
         21   -1    0    0  502  503 -0.00000000000E+00 -0.00000000000E+00 -0.80035830027E+02  0.80035830027E+02  0.00000000000E+00 0.  1.
          6    1    1    2  501    0  0.15822026130E+02  0.92176900696E+02  0.34800004977E+03  0.39972484558E+03  0.17300000000E+03 0.  1.
         -6    1    1    2    0  503 -0.15822026130E+02 -0.92176900696E+02  0.12430851012E+03  0.23265537436E+03  0.17300000000E+03 0.  1.
<mgrwt>
<rscale>  2 0.19666194E+03</rscale>
<asrwt>0</asrwt>
<pdfrwt beam="1">  1       21 0.84976057E-01 0.19666194E+03</pdfrwt>
<pdfrwt beam="2">  1       21 0.12313205E-01 0.19666194E+03</pdfrwt>
<totfact> 0.67064062E+04</totfact>
</mgrwt>
</event>
<event>
 4    1  0.3976152E+000  0.2109804E+03  0.7546771E-02  0.1140792E+00
         21   -1    0    0  503  502  0.00000000000E+00  0.00000000000E+00  0.11781529864E+03  0.11781529864E+03  0.00000000000E+00 0. -1.
         21   -1    0    0  501  503 -0.00000000000E+00 -0.00000000000E+00 -0.45034239947E+03  0.45034239947E+03  0.00000000000E+00 0. -1.
          6    1    1    2  501    0  0.32083210366E+02 -0.11642329593E+03 -0.28026494622E+03  0.35080073589E+03  0.17300000000E+03 0. -1.
         -6    1    1    2    0  502 -0.32083210366E+02  0.11642329593E+03 -0.52262154611E+02  0.21735696222E+03  0.17300000000E+03 0. -1.
<mgrwt>
<rscale>  2 0.21098037E+03</rscale>
<asrwt>0</asrwt>
<pdfrwt beam="1">  1       21 0.18125430E-01 0.21098037E+03</pdfrwt>
<pdfrwt beam="2">  1       21 0.69283447E-01 0.21098037E+03</pdfrwt>
<totfact> 0.52071123E+04</totfact>
</mgrwt>
</event>
<event>
 4    1  0.3976152E+000  0.1938626E+03  0.7546771E-02  0.1155023E+00
         21   -1    0    0  503  502  0.00000000000E+00  0.00000000000E+00  0.96316808308E+02  0.96316808308E+02  0.00000000000E+00 0. -1.
         21   -1    0    0  501  503 -0.00000000000E+00 -0.00000000000E+00 -0.67465638531E+03  0.67465638531E+03  0.00000000000E+00 0.  1.
          6    1    1    2  501    0  0.62765898563E+02 -0.60943735399E+02 -0.53947896585E+03  0.57325408982E+03  0.17300000000E+03 0.  1.
         -6    1    1    2    0  502 -0.62765898563E+02  0.60943735399E+02 -0.38860611155E+02  0.19771910380E+03  0.17300000000E+03 0. -1.
<mgrwt>
<rscale>  2 0.19386257E+03</rscale>
<asrwt>0</asrwt>
<pdfrwt beam="1">  1       21 0.14817970E-01 0.19386257E+03</pdfrwt>
<pdfrwt beam="2">  1       21 0.10379329E+00 0.19386257E+03</pdfrwt>
<totfact> 0.30109148E+04</totfact>
</mgrwt>
</event>
<event>
 4    1  0.3976152E+000  0.1971828E+03  0.7546771E-02  0.1152138E+00
         21   -1    0    0  503  502  0.00000000000E+00  0.00000000000E+00  0.34526500084E+03  0.34526500084E+03  0.00000000000E+00 0.  1.
         21   -1    0    0  501  503 -0.00000000000E+00 -0.00000000000E+00 -0.11262316103E+03  0.11262316103E+03  0.00000000000E+00 0.  1.
          6    1    1    2  501    0 -0.64953187781E+02 -0.68797871110E+02  0.11857584279E+03  0.23008975242E+03  0.17300000000E+03 0. -1.
         -6    1    1    2    0  502  0.64953187781E+02  0.68797871110E+02  0.11406599702E+03  0.22779840945E+03  0.17300000000E+03 0. -1.
<mgrwt>
<rscale>  2 0.19718282E+03</rscale>
<asrwt>0</asrwt>
<pdfrwt beam="1">  1       21 0.53117692E-01 0.19718282E+03</pdfrwt>
<pdfrwt beam="2">  1       21 0.17326640E-01 0.19718282E+03</pdfrwt>
<totfact> 0.10093825E+05</totfact>
</mgrwt>
</event>
<event>
 4    1  0.3976152E+000  0.1936153E+03  0.7546771E-02  0.1155240E+00
         21   -1    0    0  501  502  0.00000000000E+00  0.00000000000E+00  0.26096819370E+03  0.26096819370E+03  0.00000000000E+00 0.  1.
         21   -1    0    0  502  503 -0.00000000000E+00 -0.00000000000E+00 -0.69579054344E+03  0.69579054344E+03  0.00000000000E+00 0.  1.
          6    1    1    2  501    0 -0.48303264064E+02 -0.72281834117E+02  0.20873620856E+03  0.28470629362E+03  0.17300000000E+03 0.  1.
         -6    1    1    2    0  503  0.48303264064E+02  0.72281834117E+02 -0.64355855830E+03  0.67205244351E+03  0.17300000000E+03 0.  1.
<mgrwt>
<rscale>  2 0.19361526E+03</rscale>
<asrwt>0</asrwt>
<pdfrwt beam="1">  1       21 0.40148953E-01 0.19361526E+03</pdfrwt>
<pdfrwt beam="2">  1       21 0.10704470E+00 0.19361526E+03</pdfrwt>
<totfact> 0.41668794E+03</totfact>
</mgrwt>
</event>
<event>
 4    1  0.3976152E+000  0.2122079E+03  0.7546771E-02  0.1139829E+00
         21   -1    0    0  501  502  0.00000000000E+00  0.00000000000E+00  0.25483804876E+04  0.25483804876E+04  0.00000000000E+00 0.  1.
         21   -1    0    0  502  503 -0.00000000000E+00 -0.00000000000E+00 -0.29960256066E+02  0.29960256066E+02  0.00000000000E+00 0.  1.
          6    1    1    2  501    0  0.10814920856E+03  0.58369094278E+02  0.20848714381E+04  0.20956433656E+04  0.17300000000E+03 0.  1.
         -6    1    1    2    0  503 -0.10814920856E+03 -0.58369094278E+02  0.43354879341E+03  0.48269737802E+03  0.17300000000E+03 0.  1.
<mgrwt>
<rscale>  2 0.21220792E+03</rscale>
<asrwt>0</asrwt>
<pdfrwt beam="1">  1       21 0.39205836E+00 0.21220792E+03</pdfrwt>
<pdfrwt beam="2">  1       21 0.46092722E-02 0.21220792E+03</pdfrwt>
<totfact> 0.29337966E+03</totfact>
</mgrwt>
</event>
<event>
 4    1  0.3976152E+000  0.2143723E+03  0.7546771E-02  0.1138150E+00
         21   -1    0    0  503  502  0.00000000000E+00  0.00000000000E+00  0.14671862502E+03  0.14671862502E+03  0.00000000000E+00 0. -1.
         21   -1    0    0  501  503 -0.00000000000E+00 -0.00000000000E+00 -0.11556967150E+04  0.11556967150E+04  0.00000000000E+00 0. -1.
          6    1    1    2  501    0  0.23941476996E+02  0.12431125122E+03 -0.10604906432E+04  0.10819407959E+04  0.17300000000E+03 0. -1.
         -6    1    1    2    0  502 -0.23941476996E+02 -0.12431125122E+03  0.51512553157E+02  0.22047454419E+03  0.17300000000E+03 0. -1.
<mgrwt>
<rscale>  2 0.21437230E+03</rscale>
<asrwt>0</asrwt>
<pdfrwt beam="1">  1       21 0.22572095E-01 0.21437230E+03</pdfrwt>
<pdfrwt beam="2">  1       21 0.17779950E+00 0.21437230E+03</pdfrwt>
<totfact> 0.33967244E+03</totfact>
</mgrwt>
</event>
<event>
 4    1  0.3976152E+000  0.1873175E+03  0.7546771E-02  0.1160903E+00
         21   -1    0    0  501  502  0.00000000000E+00  0.00000000000E+00  0.65821793499E+02  0.65821793499E+02  0.00000000000E+00 0.  1.
         21   -1    0    0  502  503 -0.00000000000E+00 -0.00000000000E+00 -0.12018285137E+04  0.12018285137E+04  0.00000000000E+00 0.  1.
          6    1    1    2  501    0 -0.94738933823E+01  0.71197500669E+02 -0.95198623775E+02  0.21012048145E+03  0.17300000000E+03 0.  1.
         -6    1    1    2    0  503  0.94738933823E+01 -0.71197500669E+02 -0.10408080964E+04  0.10575298257E+04  0.17300000000E+03 0.  1.
<mgrwt>
<rscale>  2 0.18731748E+03</rscale>
<asrwt>0</asrwt>
<pdfrwt beam="1">  1       21 0.10126432E-01 0.18731748E+03</pdfrwt>
<pdfrwt beam="2">  1       21 0.18489666E+00 0.18731748E+03</pdfrwt>
<totfact> 0.13438681E+04</totfact>
</mgrwt>
</event>
<event>
 4    1  0.3976152E+000  0.1907720E+03  0.7546771E-02  0.1157767E+00
         21   -1    0    0  503  502  0.00000000000E+00  0.00000000000E+00  0.21474200847E+03  0.21474200847E+03  0.00000000000E+00 0.  1.
         21   -1    0    0  501  503 -0.00000000000E+00 -0.00000000000E+00 -0.16991962837E+03  0.16991962837E+03  0.00000000000E+00 0. -1.
          6    1    1    2  501    0  0.39087945959E+02  0.70264383204E+02  0.12601097471E+02  0.19118770547E+03  0.17300000000E+03 0. -1.
         -6    1    1    2    0  502 -0.39087945959E+02 -0.70264383204E+02  0.32221282629E+02  0.19347393137E+03  0.17300000000E+03 0.  1.
<mgrwt>
<rscale>  2 0.19077199E+03</rscale>
<asrwt>0</asrwt>
<pdfrwt beam="1">  1       21 0.33037232E-01 0.19077199E+03</pdfrwt>
<pdfrwt beam="2">  1       21 0.26141481E-01 0.19077199E+03</pdfrwt>
<totfact> 0.12275278E+05</totfact>
</mgrwt>
</event>
<event>
 4    1  0.3976152E+000  0.2622118E+03  0.7546771E-02  0.1105822E+00
         21   -1    0    0  503  502  0.00000000000E+00  0.00000000000E+00  0.57016019078E+02  0.57016019078E+02  0.00000000000E+00 0. -1.
         21   -1    0    0  501  503 -0.00000000000E+00 -0.00000000000E+00 -0.14603942939E+04  0.14603942939E+04  0.00000000000E+00 0. -1.
          6    1    1    2  501    0 -0.17454456816E+03  0.91434353928E+02 -0.10184164585E+04  0.10516307005E+04  0.17300000000E+03 0. -1.
         -6    1    1    2    0  502  0.17454456816E+03 -0.91434353928E+02 -0.38496181638E+03  0.46577961251E+03  0.17300000000E+03 0. -1.
<mgrwt>
<rscale>  2 0.26221184E+03</rscale>
<asrwt>0</asrwt>
<pdfrwt beam="1">  1       21 0.87716958E-02 0.26221184E+03</pdfrwt>
<pdfrwt beam="2">  1       21 0.22467603E+00 0.26221184E+03</pdfrwt>
<totfact> 0.91106542E+03</totfact>
</mgrwt>
</event>
<event>
 4    1  0.3976152E+000  0.1734742E+03  0.7546771E-02  0.1174272E+00
         21   -1    0    0  503  502  0.00000000000E+00  0.00000000000E+00  0.16120049047E+03  0.16120049047E+03  0.00000000000E+00 0.  1.
         21   -1    0    0  501  503 -0.00000000000E+00 -0.00000000000E+00 -0.19064510427E+03  0.19064510427E+03  0.00000000000E+00 0.  1.
          6    1    1    2  501    0 -0.30320050769E+01 -0.12453966997E+02 -0.40085571754E+02  0.17804535212E+03  0.17300000000E+03 0.  1.
         -6    1    1    2    0  502  0.30320050769E+01  0.12453966997E+02  0.10640957958E+02  0.17380024262E+03  0.17300000000E+03 0.  1.
<mgrwt>
<rscale>  2 0.17347419E+03</rscale>
<asrwt>0</asrwt>
<pdfrwt beam="1">  1       21 0.24800076E-01 0.17347419E+03</pdfrwt>
<pdfrwt beam="2">  1       21 0.29330016E-01 0.17347419E+03</pdfrwt>
<totfact> 0.17227243E+05</totfact>
</mgrwt>
</event>
<event>
 4    1  0.3976152E+000  0.1999558E+03  0.7546771E-02  0.1149776E+00
         21   -1    0    0  503  502  0.00000000000E+00  0.00000000000E+00  0.27962200166E+03  0.27962200166E+03  0.00000000000E+00 0.  1.
         21   -1    0    0  501  503 -0.00000000000E+00 -0.00000000000E+00 -0.16627556848E+03  0.16627556848E+03  0.00000000000E+00 0.  1.
          6    1    1    2  501    0 -0.34040550048E+02 -0.94311089089E+02 -0.26764287682E+02  0.20173910793E+03  0.17300000000E+03 0.  1.
         -6    1    1    2    0  502  0.34040550048E+02  0.94311089089E+02  0.14011072086E+03  0.24415846222E+03  0.17300000000E+03 0.  1.
<mgrwt>
<rscale>  2 0.19995585E+03</rscale>
<asrwt>0</asrwt>
<pdfrwt beam="1">  1       21 0.43018769E-01 0.19995585E+03</pdfrwt>
<pdfrwt beam="2">  1       21 0.25580857E-01 0.19995585E+03</pdfrwt>
<totfact> 0.75084444E+04</totfact>
</mgrwt>
</event>
<event>
 4    1  0.3976152E+000  0.2203256E+03  0.7546771E-02  0.1133641E+00
         21   -1    0    0  503  502  0.00000000000E+00  0.00000000000E+00  0.25147599668E+03  0.25147599668E+03  0.00000000000E+00 0.  1.
         21   -1    0    0  501  503 -0.00000000000E+00 -0.00000000000E+00 -0.21860620028E+03  0.21860620028E+03  0.00000000000E+00 0. -1.
          6    1    1    2  501    0  0.12484525562E+03 -0.55027630445E+02 -0.63954347835E+02  0.22942000037E+03  0.17300000000E+03 0. -1.
         -6    1    1    2    0  502 -0.12484525562E+03  0.55027630445E+02  0.96824144234E+02  0.24066219659E+03  0.17300000000E+03 0.  1.
<mgrwt>
<rscale>  2 0.22032562E+03</rscale>
<asrwt>0</asrwt>
<pdfrwt beam="1">  1       21 0.38688615E-01 0.22032562E+03</pdfrwt>
<pdfrwt beam="2">  1       21 0.33631723E-01 0.22032562E+03</pdfrwt>
<totfact> 0.54161541E+04</totfact>
</mgrwt>
</event>
<event>
 4    1  0.3976152E+000  0.2551697E+03  0.7546771E-02  0.1110081E+00
         21   -1    0    0  501  502  0.00000000000E+00  0.00000000000E+00  0.35985893271E+03  0.35985893271E+03  0.00000000000E+00 0.  1.
         21   -1    0    0  502  503 -0.00000000000E+00 -0.00000000000E+00 -0.31657283602E+03  0.31657283602E+03  0.00000000000E+00 0.  1.
          6    1    1    2  501    0 -0.14096830102E+02 -0.18703973174E+03  0.24302660107E+03  0.35238261974E+03  0.17300000000E+03 0.  1.
         -6    1    1    2    0  503  0.14096830102E+02  0.18703973174E+03 -0.19974050439E+03  0.32404914899E+03  0.17300000000E+03 0.  1.
<mgrwt>
<rscale>  2 0.25516971E+03</rscale>
<asrwt>0</asrwt>
<pdfrwt beam="1">  1       21 0.55362913E-01 0.25516971E+03</pdfrwt>
<pdfrwt beam="2">  1       21 0.48703513E-01 0.25516971E+03</pdfrwt>
<totfact> 0.11927041E+04</totfact>
</mgrwt>
</event>
<event>
 4    1  0.3976152E+000  0.2175015E+03  0.7546771E-02  0.1135760E+00
         21   -1    0    0  501  502  0.00000000000E+00  0.00000000000E+00  0.10166269635E+03  0.10166269635E+03  0.00000000000E+00 0.  1.
         21   -1    0    0  502  503 -0.00000000000E+00 -0.00000000000E+00 -0.49616366223E+03  0.49616366223E+03  0.00000000000E+00 0.  1.
          6    1    1    2  501    0 -0.10052239349E+03  0.85282710376E+02 -0.12273749235E+03  0.24974263614E+03  0.17300000000E+03 0.  1.
         -6    1    1    2    0  503  0.10052239349E+03 -0.85282710376E+02 -0.27176347353E+03  0.34808372244E+03  0.17300000000E+03 0.  1.
<mgrwt>
<rscale>  2 0.21750148E+03</rscale>
<asrwt>0</asrwt>
<pdfrwt beam="1">  1       21 0.15640415E-01 0.21750148E+03</pdfrwt>
<pdfrwt beam="2">  1       21 0.76332872E-01 0.21750148E+03</pdfrwt>
<totfact> 0.54906080E+04</totfact>
</mgrwt>
</event>
<event>
 4    1  0.3976152E+000  0.1996016E+03  0.7546771E-02  0.1150076E+00
         21   -1    0    0  501  502  0.00000000000E+00  0.00000000000E+00  0.14839765167E+04  0.14839765167E+04  0.00000000000E+00 0. -1.
         21   -1    0    0  502  503 -0.00000000000E+00 -0.00000000000E+00 -0.14993912841E+03  0.14993912841E+03  0.00000000000E+00 0. -1.
          6    1    1    2  501    0 -0.98251677626E+01  0.99072047040E+02  0.14072316913E+04  0.14213169377E+04  0.17300000000E+03 0. -1.
         -6    1    1    2    0  503  0.98251677626E+01 -0.99072047040E+02 -0.73194302957E+02  0.21259870746E+03  0.17300000000E+03 0. -1.
<mgrwt>
<rscale>  2 0.19960161E+03</rscale>
<asrwt>0</asrwt>
<pdfrwt beam="1">  1       21 0.22830407E+00 0.19960161E+03</pdfrwt>
<pdfrwt beam="2">  1       21 0.23067559E-01 0.19960161E+03</pdfrwt>
<totfact> 0.15682110E+03</totfact>
</mgrwt>
</event>
<event>
 4    1  0.3976152E+000  0.2437129E+03  0.7546771E-02  0.1117344E+00
         21   -1    0    0  501  502  0.00000000000E+00  0.00000000000E+00  0.11169778143E+03  0.11169778143E+03  0.00000000000E+00 0. -1.
         21   -1    0    0  502  503 -0.00000000000E+00 -0.00000000000E+00 -0.72853590427E+03  0.72853590427E+03  0.00000000000E+00 0. -1.
          6    1    1    2  501    0 -0.16934735132E+03 -0.28079371313E+02 -0.90078271725E+02  0.25982700308E+03  0.17300000000E+03 0. -1.
         -6    1    1    2    0  503  0.16934735132E+03  0.28079371313E+02 -0.52675985111E+03  0.58040668262E+03  0.17300000000E+03 0. -1.
<mgrwt>
<rscale>  2 0.24371290E+03</rscale>
<asrwt>0</asrwt>
<pdfrwt beam="1">  1       21 0.17184274E-01 0.24371290E+03</pdfrwt>
<pdfrwt beam="2">  1       21 0.11208245E+00 0.24371290E+03</pdfrwt>
<totfact> 0.18521396E+04</totfact>
</mgrwt>
</event>
<event>
 4    1  0.3976152E+000  0.2822612E+03  0.7546771E-02  0.1094460E+00
         21   -1    0    0  501  502  0.00000000000E+00  0.00000000000E+00  0.47136928106E+03  0.47136928106E+03  0.00000000000E+00 0.  1.
         21   -1    0    0  502  503 -0.00000000000E+00 -0.00000000000E+00 -0.25144733681E+03  0.25144733681E+03  0.00000000000E+00 0.  1.
          6    1    1    2  501    0 -0.21667369091E+03 -0.52866559666E+02  0.31688327809E+03  0.42436584852E+03  0.17300000000E+03 0.  1.
         -6    1    1    2    0  503  0.21667369091E+03  0.52866559666E+02 -0.96961333844E+02  0.29845076935E+03  0.17300000000E+03 0.  1.
<mgrwt>
<rscale>  2 0.28226116E+03</rscale>
<asrwt>0</asrwt>
<pdfrwt beam="1">  1       21 0.72518351E-01 0.28226116E+03</pdfrwt>
<pdfrwt beam="2">  1       21 0.38684206E-01 0.28226116E+03</pdfrwt>
<totfact> 0.10482182E+04</totfact>
</mgrwt>
</event>
<event>
 4    1  0.3976152E+000  0.1770425E+03  0.7546771E-02  0.1170696E+00
         21   -1    0    0  501  502  0.00000000000E+00  0.00000000000E+00  0.63527777431E+02  0.63527777431E+02  0.00000000000E+00 0. -1.
         21   -1    0    0  502  503 -0.00000000000E+00 -0.00000000000E+00 -0.80608747090E+03  0.80608747090E+03  0.00000000000E+00 0. -1.
          6    1    1    2  501    0 -0.17625158263E+02 -0.33232642495E+02 -0.10046820844E+03  0.20356305077E+03  0.17300000000E+03 0. -1.
         -6    1    1    2    0  503  0.17625158263E+02  0.33232642495E+02 -0.64209148502E+03  0.66605219756E+03  0.17300000000E+03 0. -1.
<mgrwt>
<rscale>  2 0.17704252E+03</rscale>
<asrwt>0</asrwt>
<pdfrwt beam="1">  1       21 0.97735038E-02 0.17704252E+03</pdfrwt>
<pdfrwt beam="2">  1       21 0.12401346E+00 0.17704252E+03</pdfrwt>
<totfact> 0.41468004E+04</totfact>
</mgrwt>
</event>
<event>
 4    1  0.3976152E+000  0.1761635E+03  0.7546771E-02  0.1171569E+00
         21   -1    0    0  503  502  0.00000000000E+00  0.00000000000E+00  0.17800840286E+02  0.17800840286E+02  0.00000000000E+00 0.  1.
         21   -1    0    0  501  503 -0.00000000000E+00 -0.00000000000E+00 -0.18122937524E+04  0.18122937524E+04  0.00000000000E+00 0.  1.
          6    1    1    2  501    0 -0.27635152814E+02 -0.18462946056E+02 -0.10756857494E+04  0.10900153272E+04  0.17300000000E+03 0. -1.
         -6    1    1    2    0  502  0.27635152814E+02  0.18462946056E+02 -0.71880716276E+03  0.74007926554E+03  0.17300000000E+03 0. -1.
<mgrwt>
<rscale>  2 0.17616351E+03</rscale>
<asrwt>0</asrwt>
<pdfrwt beam="1">  1       21 0.27385906E-02 0.17616351E+03</pdfrwt>
<pdfrwt beam="2">  1       21 0.27881444E+00 0.17616351E+03</pdfrwt>
<totfact> 0.33759928E+04</totfact>
</mgrwt>
</event>
<event>
 4    1  0.3976152E+000  0.2010208E+03  0.7546771E-02  0.1148881E+00
         21   -1    0    0  501  502  0.00000000000E+00  0.00000000000E+00  0.17482317004E+03  0.17482317004E+03  0.00000000000E+00 0. -1.
         21   -1    0    0  502  503 -0.00000000000E+00 -0.00000000000E+00 -0.26433434126E+03  0.26433434126E+03  0.00000000000E+00 0. -1.
          6    1    1    2  501    0 -0.10585661293E+00 -0.10237366026E+03  0.33051202285E+02  0.20371980634E+03  0.17300000000E+03 0. -1.
         -6    1    1    2    0  503  0.10585661293E+00  0.10237366026E+03 -0.12256237350E+03  0.23543770496E+03  0.17300000000E+03 0. -1.
<mgrwt>
<rscale>  2 0.20102084E+03</rscale>
<asrwt>0</asrwt>
<pdfrwt beam="1">  1       21 0.26895872E-01 0.20102084E+03</pdfrwt>
<pdfrwt beam="2">  1       21 0.40666822E-01 0.20102084E+03</pdfrwt>
<totfact> 0.76422673E+04</totfact>
</mgrwt>
</event>
<event>
 4    1  0.3976152E+000  0.4590035E+03  0.7546771E-02  0.1025071E+00
         21   -1    0    0  503  502  0.00000000000E+00  0.00000000000E+00  0.33680559322E+03  0.33680559322E+03  0.00000000000E+00 0.  1.
         21   -1    0    0  501  503 -0.00000000000E+00 -0.00000000000E+00 -0.67904614189E+03  0.67904614189E+03  0.00000000000E+00 0.  1.
          6    1    1    2  501    0 -0.42330382022E+03 -0.39611242261E+02 -0.31370300176E+03  0.55596200233E+03  0.17300000000E+03 0.  1.
         -6    1    1    2    0  502  0.42330382022E+03  0.39611242261E+02 -0.28537546906E+02  0.45988973277E+03  0.17300000000E+03 0.  1.
<mgrwt>
<rscale>  2 0.45900346E+03</rscale>
<asrwt>0</asrwt>
<pdfrwt beam="1">  1       21 0.51816245E-01 0.45900346E+03</pdfrwt>
<pdfrwt beam="2">  1       21 0.10446864E+00 0.45900346E+03</pdfrwt>
<totfact> 0.22528219E+03</totfact>
</mgrwt>
</event>
<event>
 4    1  0.3976152E+000  0.1973226E+03  0.7546771E-02  0.1152018E+00
         21   -1    0    0  501  502  0.00000000000E+00  0.00000000000E+00  0.18631378666E+03  0.18631378666E+03  0.00000000000E+00 0.  1.
         21   -1    0    0  502  503 -0.00000000000E+00 -0.00000000000E+00 -0.26497829468E+03  0.26497829468E+03  0.00000000000E+00 0.  1.
          6    1    1    2  501    0  0.85475623320E+02 -0.41244474342E+02  0.64397422225E+02  0.20756497015E+03  0.17300000000E+03 0.  1.
         -6    1    1    2    0  503 -0.85475623320E+02  0.41244474342E+02 -0.14306193024E+03  0.24372711119E+03  0.17300000000E+03 0.  1.
<mgrwt>
<rscale>  2 0.19732255E+03</rscale>
<asrwt>0</asrwt>
<pdfrwt beam="1">  1       21 0.28663660E-01 0.19732255E+03</pdfrwt>
<pdfrwt beam="2">  1       21 0.40765891E-01 0.19732255E+03</pdfrwt>
<totfact> 0.67352087E+04</totfact>
</mgrwt>
</event>
<event>
 4    1  0.3976152E+000  0.1958816E+03  0.7546771E-02  0.1153261E+00
         21   -1    0    0  501  502  0.00000000000E+00  0.00000000000E+00  0.37585662481E+03  0.37585662481E+03  0.00000000000E+00 0.  1.
         21   -1    0    0  502  503 -0.00000000000E+00 -0.00000000000E+00 -0.10654722474E+03  0.10654722474E+03  0.00000000000E+00 0.  1.
          6    1    1    2  501    0  0.85504218941E+02 -0.33609890036E+02  0.18401185497E+03  0.26875631887E+03  0.17300000000E+03 0.  1.
         -6    1    1    2    0  503 -0.85504218941E+02  0.33609890036E+02  0.85297545109E+02  0.21364753068E+03  0.17300000000E+03 0.  1.
<mgrwt>
<rscale>  2 0.19588159E+03</rscale>
<asrwt>0</asrwt>
<pdfrwt beam="1">  1       21 0.57824096E-01 0.19588159E+03</pdfrwt>
<pdfrwt beam="2">  1       21 0.16391881E-01 0.19588159E+03</pdfrwt>
<totfact> 0.93422111E+04</totfact>
</mgrwt>
</event>
<event>
 4    1  0.3976152E+000  0.2440845E+03  0.7546771E-02  0.1117101E+00
         21   -1    0    0  503  502  0.00000000000E+00  0.00000000000E+00  0.16187561025E+04  0.16187561025E+04  0.00000000000E+00 0.  1.
         21   -1    0    0  501  503 -0.00000000000E+00 -0.00000000000E+00 -0.46385560641E+02  0.46385560641E+02  0.00000000000E+00 0.  1.
          6    1    1    2  501    0  0.14348211154E+03 -0.95190053605E+02  0.40779494022E+03  0.47526200764E+03  0.17300000000E+03 0.  1.
         -6    1    1    2    0  502 -0.14348211154E+03  0.95190053605E+02  0.11645756017E+04  0.11898796555E+04  0.17300000000E+03 0.  1.
<mgrwt>
<rscale>  2 0.24408454E+03</rscale>
<asrwt>0</asrwt>
<pdfrwt beam="1">  1       21 0.24903936E+00 0.24408454E+03</pdfrwt>
<pdfrwt beam="2">  1       21 0.71362413E-02 0.24408454E+03</pdfrwt>
<totfact> 0.94262014E+03</totfact>
</mgrwt>
</event>
<event>
 4    1  0.3976152E+000  0.1784832E+03  0.7546771E-02  0.1169279E+00
         21   -1    0    0  501  502  0.00000000000E+00  0.00000000000E+00  0.80836727018E+02  0.80836727018E+02  0.00000000000E+00 0. -1.
         21   -1    0    0  502  503 -0.00000000000E+00 -0.00000000000E+00 -0.51464313932E+03  0.51464313932E+03  0.00000000000E+00 0. -1.
          6    1    1    2  501    0 -0.37543690428E+02  0.22753405333E+02 -0.72794956441E+02  0.19275723548E+03  0.17300000000E+03 0.  1.
         -6    1    1    2    0  503  0.37543690428E+02 -0.22753405333E+02 -0.36101145586E+03  0.40272263086E+03  0.17300000000E+03 0.  1.
<mgrwt>
<rscale>  2 0.17848318E+03</rscale>
<asrwt>0</asrwt>
<pdfrwt beam="1">  1       21 0.12436420E-01 0.17848318E+03</pdfrwt>
<pdfrwt beam="2">  1       21 0.79175866E-01 0.17848318E+03</pdfrwt>
<totfact> 0.77966666E+04</totfact>
</mgrwt>
</event>
<event>
 4    1  0.3976152E+000  0.2609075E+03  0.7546771E-02  0.1106599E+00
         21   -1    0    0  501  502  0.00000000000E+00  0.00000000000E+00  0.93178537105E+03  0.93178537105E+03  0.00000000000E+00 0.  1.
         21   -1    0    0  502  503 -0.00000000000E+00 -0.00000000000E+00 -0.94633643733E+02  0.94633643733E+02  0.00000000000E+00 0. -1.
          6    1    1    2  501    0 -0.13940696714E+03  0.13678240640E+03  0.66363538238E+03  0.71308109632E+03  0.17300000000E+03 0.  1.
         -6    1    1    2    0  503  0.13940696714E+03 -0.13678240640E+03  0.17351634494E+03  0.31333791846E+03  0.17300000000E+03 0. -1.
<mgrwt>
<rscale>  2 0.26090751E+03</rscale>
<asrwt>0</asrwt>
<pdfrwt beam="1">  1       21 0.14335159E+00 0.26090751E+03</pdfrwt>
<pdfrwt beam="2">  1       21 0.14559023E-01 0.26090751E+03</pdfrwt>
<totfact> 0.13351243E+04</totfact>
</mgrwt>
</event>
<event>
 4    1  0.3976152E+000  0.2056348E+03  0.7546771E-02  0.1145070E+00
         21   -1    0    0  501  502  0.00000000000E+00  0.00000000000E+00  0.21818014809E+03  0.21818014809E+03  0.00000000000E+00 0.  1.
         21   -1    0    0  502  503 -0.00000000000E+00 -0.00000000000E+00 -0.20045636283E+03  0.20045636283E+03  0.00000000000E+00 0.  1.
          6    1    1    2  501    0  0.26161623674E+02 -0.10803819703E+03  0.46973831381E+02  0.21093179800E+03  0.17300000000E+03 0.  1.
         -6    1    1    2    0  503 -0.26161623674E+02  0.10803819703E+03 -0.29250046126E+02  0.20770471292E+03  0.17300000000E+03 0.  1.
<mgrwt>
<rscale>  2 0.20563483E+03</rscale>
<asrwt>0</asrwt>
<pdfrwt beam="1">  1       21 0.33566177E-01 0.20563483E+03</pdfrwt>
<pdfrwt beam="2">  1       21 0.30839440E-01 0.20563483E+03</pdfrwt>
<totfact> 0.85850763E+04</totfact>
</mgrwt>
</event>
<event>
 4    1  0.3976152E+000  0.1750399E+03  0.7546771E-02  0.1172692E+00
         21   -1    0    0  501  502  0.00000000000E+00  0.00000000000E+00  0.37478019109E+03  0.37478019109E+03  0.00000000000E+00 0.  1.
         21   -1    0    0  502  503 -0.00000000000E+00 -0.00000000000E+00 -0.81927888486E+02  0.81927888486E+02  0.00000000000E+00 0.  1.
          6    1    1    2  501    0 -0.42453828798E+01  0.26304921548E+02  0.15701143562E+03  0.23514158094E+03  0.17300000000E+03 0. -1.
         -6    1    1    2    0  503  0.42453828798E+01 -0.26304921548E+02  0.13584086699E+03  0.22156649864E+03  0.17300000000E+03 0. -1.
<mgrwt>
<rscale>  2 0.17503992E+03</rscale>
<asrwt>0</asrwt>
<pdfrwt beam="1">  1       21 0.57658490E-01 0.17503992E+03</pdfrwt>
<pdfrwt beam="2">  1       21 0.12604291E-01 0.17503992E+03</pdfrwt>
<totfact> 0.15250595E+05</totfact>
</mgrwt>
</event>
<event>
 4    1  0.3976152E+000  0.2554077E+03  0.7546771E-02  0.1109934E+00
         21   -1    0    0  501  502  0.00000000000E+00  0.00000000000E+00  0.60414249800E+03  0.60414249800E+03  0.00000000000E+00 0. -1.
         21   -1    0    0  502  503 -0.00000000000E+00 -0.00000000000E+00 -0.10806441523E+03  0.10806441523E+03  0.00000000000E+00 0.  1.
          6    1    1    2  501    0  0.16065229972E+03  0.97442056698E+02  0.23787468426E+03  0.34902361128E+03  0.17300000000E+03 0.  1.
         -6    1    1    2    0  503 -0.16065229972E+03 -0.97442056698E+02  0.25820339851E+03  0.36318330196E+03  0.17300000000E+03 0.  1.
<mgrwt>
<rscale>  2 0.25540774E+03</rscale>
<asrwt>0</asrwt>
<pdfrwt beam="1">  1       21 0.92944998E-01 0.25540774E+03</pdfrwt>
<pdfrwt beam="2">  1       21 0.16625295E-01 0.25540774E+03</pdfrwt>
<totfact> 0.30691120E+04</totfact>
</mgrwt>
</event>
<event>
 4    1  0.3976152E+000  0.1960288E+03  0.7546771E-02  0.1153133E+00
         21   -1    0    0  503  502  0.00000000000E+00  0.00000000000E+00  0.91687571325E+02  0.91687571325E+02  0.00000000000E+00 0. -1.
         21   -1    0    0  501  503 -0.00000000000E+00 -0.00000000000E+00 -0.41962483498E+03  0.41962483498E+03  0.00000000000E+00 0. -1.
          6    1    1    2  501    0  0.78345985985E+02 -0.48581877058E+02 -0.17291266532E+03  0.26139258238E+03  0.17300000000E+03 0. -1.
         -6    1    1    2    0  502 -0.78345985985E+02  0.48581877058E+02 -0.15502459834E+03  0.24991982392E+03  0.17300000000E+03 0. -1.
<mgrwt>
<rscale>  2 0.19602880E+03</rscale>
<asrwt>0</asrwt>
<pdfrwt beam="1">  1       21 0.14105780E-01 0.19602880E+03</pdfrwt>
<pdfrwt beam="2">  1       21 0.64557668E-01 0.19602880E+03</pdfrwt>
<totfact> 0.96894887E+04</totfact>
</mgrwt>
</event>
<event>
 4    1  0.3976152E+000  0.2400469E+03  0.7546771E-02  0.1119762E+00
         21   -1    0    0  501  502  0.00000000000E+00  0.00000000000E+00  0.47667589833E+03  0.47667589833E+03  0.00000000000E+00 0.  1.
         21   -1    0    0  502  503 -0.00000000000E+00 -0.00000000000E+00 -0.14864443998E+03  0.14864443998E+03  0.00000000000E+00 0.  1.
          6    1    1    2  501    0  0.16060131361E+03 -0.43597632253E+02  0.29913292975E+03  0.38354014801E+03  0.17300000000E+03 0.  1.
         -6    1    1    2    0  503 -0.16060131361E+03  0.43597632253E+02  0.28898528598E+02  0.24178019031E+03  0.17300000000E+03 0.  1.
<mgrwt>
<rscale>  2 0.24004694E+03</rscale>
<asrwt>0</asrwt>
<pdfrwt beam="1">  1       21 0.73334753E-01 0.24004694E+03</pdfrwt>
<pdfrwt beam="2">  1       21 0.22868376E-01 0.24004694E+03</pdfrwt>
<totfact> 0.29259575E+04</totfact>
</mgrwt>
</event>
<event>
 4    1  0.3976152E+000  0.1800824E+03  0.7546771E-02  0.1167723E+00
         21   -1    0    0  501  502  0.00000000000E+00  0.00000000000E+00  0.63212183638E+02  0.63212183638E+02  0.00000000000E+00 0.  1.
         21   -1    0    0  502  503 -0.00000000000E+00 -0.00000000000E+00 -0.54667189486E+03  0.54667189486E+03  0.00000000000E+00 0.  1.
          6    1    1    2  501    0  0.40580840836E+02 -0.29220764236E+02 -0.16608084968E+03  0.24497450140E+03  0.17300000000E+03 0.  1.
         -6    1    1    2    0  503 -0.40580840836E+02  0.29220764236E+02 -0.31737886154E+03  0.36490957710E+03  0.17300000000E+03 0.  1.
<mgrwt>
<rscale>  2 0.18008236E+03</rscale>
<asrwt>0</asrwt>
<pdfrwt beam="1">  1       21 0.97249509E-02 0.18008236E+03</pdfrwt>
<pdfrwt beam="2">  1       21 0.84103372E-01 0.18008236E+03</pdfrwt>
<totfact> 0.10515917E+05</totfact>
</mgrwt>
</event>
<event>
 4    1  0.3976152E+000  0.2844650E+03  0.7546771E-02  0.1093275E+00
         21   -1    0    0  503  502  0.00000000000E+00  0.00000000000E+00  0.35150874963E+03  0.35150874963E+03  0.00000000000E+00 0. -1.
         21   -1    0    0  501  503 -0.00000000000E+00 -0.00000000000E+00 -0.23755685569E+03  0.23755685569E+03  0.00000000000E+00 0. -1.
          6    1    1    2  501    0  0.24668993655E+02 -0.22446105892E+03  0.51743756612E+01  0.28451203909E+03  0.17300000000E+03 0. -1.
         -6    1    1    2    0  502 -0.24668993655E+02  0.22446105892E+03  0.10877751829E+03  0.30455356623E+03  0.17300000000E+03 0. -1.
<mgrwt>
<rscale>  2 0.28446498E+03</rscale>
<asrwt>0</asrwt>
<pdfrwt beam="1">  1       21 0.54078269E-01 0.28446498E+03</pdfrwt>
<pdfrwt beam="2">  1       21 0.36547209E-01 0.28446498E+03</pdfrwt>
<totfact> 0.22298555E+04</totfact>
</mgrwt>
</event>
<event>
 4    1  0.3976152E+000  0.2191834E+03  0.7546771E-02  0.1134493E+00
         21   -1    0    0  503  502  0.00000000000E+00  0.00000000000E+00  0.22877458769E+03  0.22877458769E+03  0.00000000000E+00 0.  1.
         21   -1    0    0  501  503 -0.00000000000E+00 -0.00000000000E+00 -0.61872524260E+03  0.61872524260E+03  0.00000000000E+00 0. -1.
          6    1    1    2  501    0 -0.44622757220E+02 -0.12696922374E+03 -0.53938824433E+03  0.58222079348E+03  0.17300000000E+03 0. -1.
         -6    1    1    2    0  502  0.44622757220E+02  0.12696922374E+03  0.14943758943E+03  0.26527903681E+03  0.17300000000E+03 0.  1.
<mgrwt>
<rscale>  2 0.21918343E+03</rscale>
<asrwt>0</asrwt>
<pdfrwt beam="1">  1       21 0.35196091E-01 0.21918343E+03</pdfrwt>
<pdfrwt beam="2">  1       21 0.95188497E-01 0.21918343E+03</pdfrwt>
<totfact> 0.70398693E+03</totfact>
</mgrwt>
</event>
<event>
 4    1  0.3976152E+000  0.2430554E+03  0.7546771E-02  0.1117774E+00
         21   -1    0    0  503  502  0.00000000000E+00  0.00000000000E+00  0.10790350873E+03  0.10790350873E+03  0.00000000000E+00 0.  1.
         21   -1    0    0  501  503 -0.00000000000E+00 -0.00000000000E+00 -0.55289958549E+03  0.55289958549E+03  0.00000000000E+00 0.  1.
          6    1    1    2  501    0  0.16064958336E+03 -0.57780766901E+02 -0.18981140117E+03  0.30838980799E+03  0.17300000000E+03 0.  1.
         -6    1    1    2    0  502 -0.16064958336E+03  0.57780766901E+02 -0.25518467559E+03  0.35241328623E+03  0.17300000000E+03 0.  1.
<mgrwt>
<rscale>  2 0.24305536E+03</rscale>
<asrwt>0</asrwt>
<pdfrwt beam="1">  1       21 0.16600540E-01 0.24305536E+03</pdfrwt>
<pdfrwt beam="2">  1       21 0.85061475E-01 0.24305536E+03</pdfrwt>
<totfact> 0.38028379E+04</totfact>
</mgrwt>
</event>
<event>
 4    1  0.3976152E+000  0.1759941E+03  0.7546771E-02  0.1171737E+00
         21   -1    0    0  503  502  0.00000000000E+00  0.00000000000E+00  0.26703093476E+02  0.26703093476E+02  0.00000000000E+00 0. -1.
         21   -1    0    0  501  503 -0.00000000000E+00 -0.00000000000E+00 -0.13255946013E+04  0.13255946013E+04  0.00000000000E+00 0. -1.
          6    1    1    2  501    0 -0.18604698912E+02 -0.26434612811E+02 -0.88846990084E+03  0.90573323240E+03  0.17300000000E+03 0. -1.
         -6    1    1    2    0  502  0.18604698912E+02  0.26434612811E+02 -0.41042160695E+03  0.44656446235E+03  0.17300000000E+03 0. -1.
<mgrwt>
<rscale>  2 0.17599410E+03</rscale>
<asrwt>0</asrwt>
<pdfrwt beam="1">  1       21 0.41081680E-02 0.17599410E+03</pdfrwt>
<pdfrwt beam="2">  1       21 0.20393764E+00 0.17599410E+03</pdfrwt>
<totfact> 0.48020623E+04</totfact>
</mgrwt>
</event>
<event>
 4    1  0.3976152E+000  0.2005936E+03  0.7546771E-02  0.1149239E+00
         21   -1    0    0  501  502  0.00000000000E+00  0.00000000000E+00  0.42574134311E+02  0.42574134311E+02  0.00000000000E+00 0.  1.
         21   -1    0    0  502  503 -0.00000000000E+00 -0.00000000000E+00 -0.95712258815E+03  0.95712258815E+03  0.00000000000E+00 0.  1.
          6    1    1    2  501    0  0.24013438711E+02  0.98651577386E+02 -0.40130570236E+03  0.44864690538E+03  0.17300000000E+03 0.  1.
         -6    1    1    2    0  503 -0.24013438711E+02 -0.98651577386E+02 -0.51324275147E+03  0.55104981708E+03  0.17300000000E+03 0.  1.
<mgrwt>
<rscale>  2 0.20059357E+03</rscale>
<asrwt>0</asrwt>
<pdfrwt beam="1">  1       21 0.65498670E-02 0.20059357E+03</pdfrwt>
<pdfrwt beam="2">  1       21 0.14724962E+00 0.20059357E+03</pdfrwt>
<totfact> 0.52991213E+04</totfact>
</mgrwt>
</event>
<event>
 4    1  0.3976152E+000  0.2029841E+03  0.7546771E-02  0.1147245E+00
         21   -1    0    0  503  502  0.00000000000E+00  0.00000000000E+00  0.16106748208E+03  0.16106748208E+03  0.00000000000E+00 0.  1.
         21   -1    0    0  501  503 -0.00000000000E+00 -0.00000000000E+00 -0.32003103102E+03  0.32003103102E+03  0.00000000000E+00 0.  1.
          6    1    1    2  501    0  0.37037091066E+02  0.99507787771E+02 -0.18723971168E+03  0.27615440531E+03  0.17300000000E+03 0.  1.
         -6    1    1    2    0  502 -0.37037091066E+02 -0.99507787771E+02  0.28276162735E+02  0.20494410780E+03  0.17300000000E+03 0.  1.
<mgrwt>
<rscale>  2 0.20298410E+03</rscale>
<asrwt>0</asrwt>
<pdfrwt beam="1">  1       21 0.24779613E-01 0.20298410E+03</pdfrwt>
<pdfrwt beam="2">  1       21 0.49235542E-01 0.20298410E+03</pdfrwt>
<totfact> 0.60322076E+04</totfact>
</mgrwt>
</event>
<event>
 4    1  0.3976152E+000  0.2638035E+03  0.7546771E-02  0.1104879E+00
         21   -1    0    0  503  502  0.00000000000E+00  0.00000000000E+00  0.51866680880E+02  0.51866680880E+02  0.00000000000E+00 0. -1.
         21   -1    0    0  501  503 -0.00000000000E+00 -0.00000000000E+00 -0.16468138631E+04  0.16468138631E+04  0.00000000000E+00 0.  1.
          6    1    1    2  501    0  0.12484279991E+03  0.15516952588E+03 -0.11630282060E+04  0.11925715553E+04  0.17300000000E+03 0.  1.
         -6    1    1    2    0  502 -0.12484279991E+03 -0.15516952588E+03 -0.43191897623E+03  0.50610898873E+03  0.17300000000E+03 0. -1.
<mgrwt>
<rscale>  2 0.26380354E+03</rscale>
<asrwt>0</asrwt>
<pdfrwt beam="1">  1       21 0.79794887E-02 0.26380354E+03</pdfrwt>
<pdfrwt beam="2">  1       21 0.25335600E+00 0.26380354E+03</pdfrwt>
<totfact> 0.72025529E+03</totfact>
</mgrwt>
</event>
<event>
 4    1  0.3976152E+000  0.1788780E+03  0.7546771E-02  0.1168893E+00
         21   -1    0    0  501  502  0.00000000000E+00  0.00000000000E+00  0.79072311831E+02  0.79072311831E+02  0.00000000000E+00 0.  1.
         21   -1    0    0  502  503 -0.00000000000E+00 -0.00000000000E+00 -0.42220897120E+03  0.42220897120E+03  0.00000000000E+00 0.  1.
          6    1    1    2  501    0  0.23029555834E+02 -0.39217211633E+02 -0.12046823953E+03  0.21566164904E+03  0.17300000000E+03 0.  1.
         -6    1    1    2    0  503 -0.23029555834E+02  0.39217211633E+02 -0.22266841984E+03  0.28561963400E+03  0.17300000000E+03 0.  1.
<mgrwt>
<rscale>  2 0.17887803E+03</rscale>
<asrwt>0</asrwt>
<pdfrwt beam="1">  1       21 0.12164971E-01 0.17887803E+03</pdfrwt>
<pdfrwt beam="2">  1       21 0.64955224E-01 0.17887803E+03</pdfrwt>
<totfact> 0.12561144E+05</totfact>
</mgrwt>
</event>
<event>
 4    1  0.3976152E+000  0.1810160E+03  0.7546771E-02  0.1166823E+00
         21   -1    0    0  501  502  0.00000000000E+00  0.00000000000E+00  0.14625209666E+03  0.14625209666E+03  0.00000000000E+00 0.  1.
         21   -1    0    0  502  503 -0.00000000000E+00 -0.00000000000E+00 -0.46352733848E+03  0.46352733848E+03  0.00000000000E+00 0.  1.
          6    1    1    2  501    0 -0.17571203034E+01  0.53241875007E+02  0.60513399493E+02  0.19086292527E+03  0.17300000000E+03 0.  1.
         -6    1    1    2    0  503  0.17571203034E+01 -0.53241875007E+02 -0.37778864132E+03  0.41891650986E+03  0.17300000000E+03 0.  1.
<mgrwt>
<rscale>  2 0.18101598E+03</rscale>
<asrwt>0</asrwt>
<pdfrwt beam="1">  1       21 0.22500323E-01 0.18101598E+03</pdfrwt>
<pdfrwt beam="2">  1       21 0.71311898E-01 0.18101598E+03</pdfrwt>
<totfact> 0.33108373E+04</totfact>
</mgrwt>
</event>
<event>
 4    1  0.3976152E+000  0.1759840E+03  0.7546771E-02  0.1171747E+00
         21   -1    0    0  501  502  0.00000000000E+00  0.00000000000E+00  0.12839259036E+03  0.12839259036E+03  0.00000000000E+00 0.  1.
         21   -1    0    0  502  503 -0.00000000000E+00 -0.00000000000E+00 -0.32716009134E+03  0.32716009134E+03  0.00000000000E+00 0.  1.
          6    1    1    2  501    0  0.44246267822E+01  0.31965350676E+02  0.17360685207E+02  0.17683821520E+03  0.17300000000E+03 0.  1.
         -6    1    1    2    0  503 -0.44246267822E+01 -0.31965350676E+02 -0.21612818619E+03  0.27871446649E+03  0.17300000000E+03 0.  1.
<mgrwt>
<rscale>  2 0.17598398E+03</rscale>
<asrwt>0</asrwt>
<pdfrwt beam="1">  1       21 0.19752706E-01 0.17598398E+03</pdfrwt>
<pdfrwt beam="2">  1       21 0.50332321E-01 0.17598398E+03</pdfrwt>
<totfact> 0.89377064E+04</totfact>
</mgrwt>
</event>
<event>
 4    1  0.3976152E+000  0.2764549E+03  0.7546771E-02  0.1097641E+00
         21   -1    0    0  503  502  0.00000000000E+00  0.00000000000E+00  0.19828554694E+03  0.19828554694E+03  0.00000000000E+00 0.  1.
         21   -1    0    0  501  503 -0.00000000000E+00 -0.00000000000E+00 -0.38597555354E+03  0.38597555354E+03  0.00000000000E+00 0. -1.
          6    1    1    2  501    0  0.20330408647E+03  0.71873163331E+02 -0.82969509783E+02  0.28863687002E+03  0.17300000000E+03 0.  1.
         -6    1    1    2    0  502 -0.20330408647E+03 -0.71873163331E+02 -0.10472049682E+03  0.29562423046E+03  0.17300000000E+03 0. -1.
<mgrwt>
<rscale>  2 0.27645488E+03</rscale>
<asrwt>0</asrwt>
<pdfrwt beam="1">  1       21 0.30505469E-01 0.27645488E+03</pdfrwt>
<pdfrwt beam="2">  1       21 0.59380854E-01 0.27645488E+03</pdfrwt>
<totfact> 0.26230097E+04</totfact>
</mgrwt>
</event>
<event>
 4    1  0.3976152E+000  0.1793306E+03  0.7546771E-02  0.1168452E+00
         21   -1    0    0  501  502  0.00000000000E+00  0.00000000000E+00  0.29764861034E+02  0.29764861034E+02  0.00000000000E+00 0. -1.
         21   -1    0    0  502  503 -0.00000000000E+00 -0.00000000000E+00 -0.18098010034E+04  0.18098010034E+04  0.00000000000E+00 0. -1.
          6    1    1    2  501    0  0.47193987337E+02 -0.17877325898E+01 -0.30611873280E+03  0.35477901150E+03  0.17300000000E+03 0. -1.
         -6    1    1    2    0  503 -0.47193987337E+02  0.17877325898E+01 -0.14739174096E+04  0.14847868530E+04  0.17300000000E+03 0. -1.
<mgrwt>
<rscale>  2 0.17933061E+03</rscale>
<asrwt>0</asrwt>
<pdfrwt beam="1">  1       21 0.45792095E-02 0.17933061E+03</pdfrwt>
<pdfrwt beam="2">  1       21 0.27843092E+00 0.17933061E+03</pdfrwt>
<totfact> 0.14374909E+04</totfact>
</mgrwt>
</event>
<event>
 4    1  0.3976152E+000  0.1892956E+03  0.7546771E-02  0.1159098E+00
         21   -1    0    0  503  502  0.00000000000E+00  0.00000000000E+00  0.73205207112E+02  0.73205207112E+02  0.00000000000E+00 0. -1.
         21   -1    0    0  501  503 -0.00000000000E+00 -0.00000000000E+00 -0.48967430088E+03  0.48967430088E+03  0.00000000000E+00 0. -1.
          6    1    1    2  501    0  0.32451316834E+01 -0.76767677435E+02 -0.20269223938E+03  0.27733905438E+03  0.17300000000E+03 0. -1.
         -6    1    1    2    0  502 -0.32451316834E+01  0.76767677435E+02 -0.21377685440E+03  0.28554045362E+03  0.17300000000E+03 0. -1.
<mgrwt>
<rscale>  2 0.18929556E+03</rscale>
<asrwt>0</asrwt>
<pdfrwt beam="1">  1       21 0.11262340E-01 0.18929556E+03</pdfrwt>
<pdfrwt beam="2">  1       21 0.75334506E-01 0.18929556E+03</pdfrwt>
<totfact> 0.10358928E+05</totfact>
</mgrwt>
</event>
<event>
 4    1  0.3976152E+000  0.2282908E+03  0.7546771E-02  0.1127849E+00
         21   -1    0    0  503  502  0.00000000000E+00  0.00000000000E+00  0.81757502666E+02  0.81757502666E+02  0.00000000000E+00 0. -1.
         21   -1    0    0  501  503 -0.00000000000E+00 -0.00000000000E+00 -0.64106179287E+03  0.64106179287E+03  0.00000000000E+00 0. -1.
          6    1    1    2  501    0 -0.40876326922E+02  0.14323684657E+03 -0.30676373427E+03  0.38238809733E+03  0.17300000000E+03 0. -1.
         -6    1    1    2    0  502  0.40876326922E+02 -0.14323684657E+03 -0.25254055594E+03  0.34043119821E+03  0.17300000000E+03 0. -1.
<mgrwt>
<rscale>  2 0.22829075E+03</rscale>
<asrwt>0</asrwt>
<pdfrwt beam="1">  1       21 0.12578078E-01 0.22829075E+03</pdfrwt>
<pdfrwt beam="2">  1       21 0.98624887E-01 0.22829075E+03</pdfrwt>
<totfact> 0.44944501E+04</totfact>
</mgrwt>
</event>
<event>
 4    1  0.3976152E+000  0.2133521E+03  0.7546771E-02  0.1138939E+00
         21   -1    0    0  503  502  0.00000000000E+00  0.00000000000E+00  0.64044345937E+02  0.64044345937E+02  0.00000000000E+00 0. -1.
         21   -1    0    0  501  503 -0.00000000000E+00 -0.00000000000E+00 -0.76667771768E+03  0.76667771768E+03  0.00000000000E+00 0. -1.
          6    1    1    2  501    0  0.70059398708E+02  0.10335282531E+03 -0.23912602583E+03  0.32046900330E+03  0.17300000000E+03 0. -1.
         -6    1    1    2    0  502 -0.70059398708E+02 -0.10335282531E+03 -0.46350734591E+03  0.51025306032E+03  0.17300000000E+03 0. -1.
<mgrwt>
<rscale>  2 0.21335212E+03</rscale>
<asrwt>0</asrwt>
<pdfrwt beam="1">  1       21 0.98529767E-02 0.21335212E+03</pdfrwt>
<pdfrwt beam="2">  1       21 0.11795041E+00 0.21335212E+03</pdfrwt>
<totfact> 0.45399069E+04</totfact>
</mgrwt>
</event>
<event>
 4    1  0.3976152E+000  0.3220304E+03  0.7546771E-02  0.1074719E+00
         21   -1    0    0  503  502  0.00000000000E+00  0.00000000000E+00  0.59846630727E+03  0.59846630727E+03  0.00000000000E+00 0. -1.
         21   -1    0    0  501  503 -0.00000000000E+00 -0.00000000000E+00 -0.38706902052E+03  0.38706902052E+03  0.00000000000E+00 0.  1.
          6    1    1    2  501    0  0.26332086310E+03  0.66608575910E+02 -0.26051829111E+03  0.41421414671E+03  0.17300000000E+03 0.  1.
         -6    1    1    2    0  502 -0.26332086310E+03 -0.66608575910E+02  0.47191557786E+03  0.57132118108E+03  0.17300000000E+03 0. -1.
<mgrwt>
<rscale>  2 0.32203040E+03</rscale>
<asrwt>0</asrwt>
<pdfrwt beam="1">  1       21 0.92071740E-01 0.32203040E+03</pdfrwt>
<pdfrwt beam="2">  1       21 0.59549080E-01 0.32203040E+03</pdfrwt>
<totfact> 0.24021698E+03</totfact>
</mgrwt>
</event>
<event>
 4    1  0.3976152E+000  0.1834760E+03  0.7546771E-02  0.1164481E+00
         21   -1    0    0  503  502  0.00000000000E+00  0.00000000000E+00  0.48854847402E+03  0.48854847402E+03  0.00000000000E+00 0.  1.
         21   -1    0    0  501  503 -0.00000000000E+00 -0.00000000000E+00 -0.19255973943E+03  0.19255973943E+03  0.00000000000E+00 0.  1.
          6    1    1    2  501    0  0.43440493264E+02 -0.42980944511E+02 -0.12490890346E+03  0.22195871735E+03  0.17300000000E+03 0.  1.
         -6    1    1    2    0  502 -0.43440493264E+02  0.42980944511E+02  0.42089763805E+03  0.45914949609E+03  0.17300000000E+03 0.  1.
<mgrwt>
<rscale>  2 0.18347599E+03</rscale>
<asrwt>0</asrwt>
<pdfrwt beam="1">  1       21 0.75161303E-01 0.18347599E+03</pdfrwt>
<pdfrwt beam="2">  1       21 0.29624575E-01 0.18347599E+03</pdfrwt>
<totfact> 0.17378439E+04</totfact>
</mgrwt>
</event>
<event>
 4    1  0.3976152E+000  0.1930798E+03  0.7546771E-02  0.1155712E+00
         21   -1    0    0  501  502  0.00000000000E+00  0.00000000000E+00  0.30224783631E+03  0.30224783631E+03  0.00000000000E+00 0.  1.
         21   -1    0    0  502  503 -0.00000000000E+00 -0.00000000000E+00 -0.15424898203E+03  0.15424898203E+03  0.00000000000E+00 0.  1.
          6    1    1    2  501    0 -0.68472499671E+02  0.51597914194E+02  0.17616991785E+03  0.26137266099E+03  0.17300000000E+03 0.  1.
         -6    1    1    2    0  503  0.68472499671E+02 -0.51597914194E+02 -0.28171063569E+02  0.19512415735E+03  0.17300000000E+03 0.  1.
<mgrwt>
<rscale>  2 0.19307985E+03</rscale>
<asrwt>0</asrwt>
<pdfrwt beam="1">  1       21 0.46499667E-01 0.19307985E+03</pdfrwt>
<pdfrwt beam="2">  1       21 0.23730613E-01 0.19307985E+03</pdfrwt>
<totfact> 0.74081985E+04</totfact>
</mgrwt>
</event>
<event>
 4    1  0.3976152E+000  0.2725204E+03  0.7546771E-02  0.1099846E+00
         21   -1    0    0  501  502  0.00000000000E+00  0.00000000000E+00  0.23638711213E+03  0.23638711213E+03  0.00000000000E+00 0. -1.
         21   -1    0    0  502  503 -0.00000000000E+00 -0.00000000000E+00 -0.49044693431E+03  0.49044693431E+03  0.00000000000E+00 0. -1.
          6    1    1    2  501    0  0.20877576342E+03 -0.27404845651E+02  0.90840689264E+02  0.28726185925E+03  0.17300000000E+03 0. -1.
         -6    1    1    2    0  503 -0.20877576342E+03  0.27404845651E+02 -0.34490051145E+03  0.43957218719E+03  0.17300000000E+03 0. -1.
<mgrwt>
<rscale>  2 0.27252036E+03</rscale>
<asrwt>0</asrwt>
<pdfrwt beam="1">  1       21 0.36367248E-01 0.27252036E+03</pdfrwt>
<pdfrwt beam="2">  1       21 0.75453375E-01 0.27252036E+03</pdfrwt>
<totfact> 0.10913411E+04</totfact>
</mgrwt>
</event>
<event>
 4    1  0.3976152E+000  0.2383571E+03  0.7546771E-02  0.1120892E+00
         21   -1    0    0  501  502  0.00000000000E+00  0.00000000000E+00  0.49730719403E+03  0.49730719403E+03  0.00000000000E+00 0. -1.
         21   -1    0    0  502  503 -0.00000000000E+00 -0.00000000000E+00 -0.16716906018E+03  0.16716906018E+03  0.00000000000E+00 0. -1.
          6    1    1    2  501    0 -0.15403390934E+03 -0.56201940303E+02  0.35200997276E+03  0.42511777691E+03  0.17300000000E+03 0. -1.
         -6    1    1    2    0  503  0.15403390934E+03  0.56201940303E+02 -0.21871838917E+02  0.23935847730E+03  0.17300000000E+03 0. -1.
<mgrwt>
<rscale>  2 0.23835709E+03</rscale>
<asrwt>0</asrwt>
<pdfrwt beam="1">  1       21 0.76508798E-01 0.23835709E+03</pdfrwt>
<pdfrwt beam="2">  1       21 0.25718317E-01 0.23835709E+03</pdfrwt>
<totfact> 0.21268117E+04</totfact>
</mgrwt>
</event>
<event>
 4    1  0.3976152E+000  0.2423299E+03  0.7546771E-02  0.1118250E+00
         21   -1    0    0  501  502  0.00000000000E+00  0.00000000000E+00  0.55586287340E+03  0.55586287340E+03  0.00000000000E+00 0. -1.
         21   -1    0    0  502  503 -0.00000000000E+00 -0.00000000000E+00 -0.10893729262E+03  0.10893729262E+03  0.00000000000E+00 0. -1.
          6    1    1    2  501    0  0.14759556286E+03  0.83727577512E+02  0.28125464622E+03  0.37125184637E+03  0.17300000000E+03 0. -1.
         -6    1    1    2    0  503 -0.14759556286E+03 -0.83727577512E+02  0.16567093456E+03  0.29354831965E+03  0.17300000000E+03 0. -1.
<mgrwt>
<rscale>  2 0.24232985E+03</rscale>
<asrwt>0</asrwt>
<pdfrwt beam="1">  1       21 0.85517363E-01 0.24232985E+03</pdfrwt>
<pdfrwt beam="2">  1       21 0.16759584E-01 0.24232985E+03</pdfrwt>
<totfact> 0.36919136E+04</totfact>
</mgrwt>
</event>
<event>
 4    1  0.3976152E+000  0.1862939E+03  0.7546771E-02  0.1161847E+00
         21   -1    0    0  503  502  0.00000000000E+00  0.00000000000E+00  0.15947746870E+03  0.15947746870E+03  0.00000000000E+00 0.  1.
         21   -1    0    0  501  503 -0.00000000000E+00 -0.00000000000E+00 -0.27788119847E+03  0.27788119847E+03  0.00000000000E+00 0.  1.
          6    1    1    2  501    0 -0.46721509934E+02 -0.50926464285E+02 -0.16103729597E+03  0.24624868517E+03  0.17300000000E+03 0.  1.
         -6    1    1    2    0  502  0.46721509934E+02  0.50926464285E+02  0.42633566192E+02  0.19110998200E+03  0.17300000000E+03 0.  1.
<mgrwt>
<rscale>  2 0.18629387E+03</rscale>
<asrwt>0</asrwt>
<pdfrwt beam="1">  1       21 0.24534995E-01 0.18629387E+03</pdfrwt>
<pdfrwt beam="2">  1       21 0.42750953E-01 0.18629387E+03</pdfrwt>
<totfact> 0.82831531E+04</totfact>
</mgrwt>
</event>
<event>
 4    1  0.3976152E+000  0.1947742E+03  0.7546771E-02  0.1154224E+00
         21   -1    0    0  501  502  0.00000000000E+00  0.00000000000E+00  0.57720657514E+03  0.57720657514E+03  0.00000000000E+00 0.  1.
         21   -1    0    0  502  503 -0.00000000000E+00 -0.00000000000E+00 -0.83959156917E+02  0.83959156917E+02  0.00000000000E+00 0.  1.
          6    1    1    2  501    0 -0.78387522931E+02 -0.43167048822E+02  0.40068274491E+03  0.44551505017E+03  0.17300000000E+03 0.  1.
         -6    1    1    2    0  503  0.78387522931E+02  0.43167048822E+02  0.92564673315E+02  0.21565068189E+03  0.17300000000E+03 0.  1.
<mgrwt>
<rscale>  2 0.19477422E+03</rscale>
<asrwt>0</asrwt>
<pdfrwt beam="1">  1       21 0.88801009E-01 0.19477422E+03</pdfrwt>
<pdfrwt beam="2">  1       21 0.12916794E-01 0.19477422E+03</pdfrwt>
<totfact> 0.55668151E+04</totfact>
</mgrwt>
</event>
<event>
 4    1  0.3976152E+000  0.2328444E+03  0.7546771E-02  0.1124654E+00
         21   -1    0    0  501  502  0.00000000000E+00  0.00000000000E+00  0.95227076937E+03  0.95227076937E+03  0.00000000000E+00 0. -1.
         21   -1    0    0  502  503 -0.00000000000E+00 -0.00000000000E+00 -0.61918667445E+02  0.61918667445E+02  0.00000000000E+00 0. -1.
          6    1    1    2  501    0  0.14782652792E+03  0.49344138006E+02  0.58905558397E+03  0.63340587882E+03  0.17300000000E+03 0. -1.
         -6    1    1    2    0  503 -0.14782652792E+03 -0.49344138006E+02  0.30129651795E+03  0.38078355799E+03  0.17300000000E+03 0. -1.
<mgrwt>
<rscale>  2 0.23284443E+03</rscale>
<asrwt>0</asrwt>
<pdfrwt beam="1">  1       21 0.14650318E+00 0.23284443E+03</pdfrwt>
<pdfrwt beam="2">  1       21 0.95259495E-02 0.23284443E+03</pdfrwt>
<totfact> 0.27442900E+04</totfact>
</mgrwt>
</event>
<event>
 4    1  0.3976152E+000  0.1837825E+03  0.7546771E-02  0.1164192E+00
         21   -1    0    0  503  502  0.00000000000E+00  0.00000000000E+00  0.14739118907E+04  0.14739118907E+04  0.00000000000E+00 0. -1.
         21   -1    0    0  501  503 -0.00000000000E+00 -0.00000000000E+00 -0.24966276780E+02  0.24966276780E+02  0.00000000000E+00 0. -1.
          6    1    1    2  501    0  0.46234223258E+02 -0.41344991701E+02  0.50970128298E+03  0.54182230446E+03  0.17300000000E+03 0. -1.
         -6    1    1    2    0  502 -0.46234223258E+02  0.41344991701E+02  0.93924433096E+03  0.95705586304E+03  0.17300000000E+03 0. -1.
<mgrwt>
<rscale>  2 0.18378251E+03</rscale>
<asrwt>0</asrwt>
<pdfrwt beam="1">  1       21 0.22675561E+00 0.18378251E+03</pdfrwt>
<pdfrwt beam="2">  1       21 0.38409668E-02 0.18378251E+03</pdfrwt>
<totfact> 0.38629658E+04</totfact>
</mgrwt>
</event>
<event>
 4    1  0.3976152E+000  0.2438353E+03  0.7546771E-02  0.1117264E+00
         21   -1    0    0  501  502  0.00000000000E+00  0.00000000000E+00  0.24847717578E+04  0.24847717578E+04  0.00000000000E+00 0.  1.
         21   -1    0    0  502  503 -0.00000000000E+00 -0.00000000000E+00 -0.26943121227E+02  0.26943121227E+02  0.00000000000E+00 0. -1.
          6    1    1    2  501    0  0.10929581513E+03 -0.13259365484E+03  0.16490289399E+04  0.16669589368E+04  0.17300000000E+03 0.  1.
         -6    1    1    2    0  503 -0.10929581513E+03  0.13259365484E+03  0.80879969670E+03  0.84475594221E+03  0.17300000000E+03 0. -1.
<mgrwt>
<rscale>  2 0.24383530E+03</rscale>
<asrwt>0</asrwt>
<pdfrwt beam="1">  1       21 0.38227240E+00 0.24383530E+03</pdfrwt>
<pdfrwt beam="2">  1       21 0.41450975E-02 0.24383530E+03</pdfrwt>
<totfact> 0.38859949E+03</totfact>
</mgrwt>
</event>
<event>
 4    1  0.3976152E+000  0.1868600E+03  0.7546771E-02  0.1161324E+00
         21   -1    0    0  503  502  0.00000000000E+00  0.00000000000E+00  0.86372998658E+02  0.86372998658E+02  0.00000000000E+00 0. -1.
         21   -1    0    0  501  503 -0.00000000000E+00 -0.00000000000E+00 -0.47068905726E+03  0.47068905726E+03  0.00000000000E+00 0.  1.
          6    1    1    2  501    0 -0.22941270452E+02  0.66793469859E+02 -0.29679946761E+03  0.35072295830E+03  0.17300000000E+03 0.  1.
         -6    1    1    2    0  502  0.22941270452E+02 -0.66793469859E+02 -0.87516590987E+02  0.20633909761E+03  0.17300000000E+03 0. -1.
<mgrwt>
<rscale>  2 0.18686003E+03</rscale>
<asrwt>0</asrwt>
<pdfrwt beam="1">  1       21 0.13288153E-01 0.18686003E+03</pdfrwt>
<pdfrwt beam="2">  1       21 0.72413702E-01 0.18686003E+03</pdfrwt>
<totfact> 0.84196678E+04</totfact>
</mgrwt>
</event>
<event>
 4    1  0.3976152E+000  0.2009304E+03  0.7546771E-02  0.1148956E+00
         21   -1    0    0  501  502  0.00000000000E+00  0.00000000000E+00  0.53439817625E+03  0.53439817625E+03  0.00000000000E+00 0.  1.
         21   -1    0    0  502  503 -0.00000000000E+00 -0.00000000000E+00 -0.12875100302E+03  0.12875100302E+03  0.00000000000E+00 0. -1.
          6    1    1    2  501    0 -0.96379999930E+02 -0.33984275432E+02  0.41596681751E+03  0.46195392480E+03  0.17300000000E+03 0.  1.
         -6    1    1    2    0  503  0.96379999930E+02  0.33984275432E+02 -0.10319644279E+02  0.20119525447E+03  0.17300000000E+03 0. -1.
<mgrwt>
<rscale>  2 0.20093042E+03</rscale>
<asrwt>0</asrwt>
<pdfrwt beam="1">  1       21 0.82215103E-01 0.20093042E+03</pdfrwt>
<pdfrwt beam="2">  1       21 0.19807847E-01 0.20093042E+03</pdfrwt>
<totfact> 0.30243869E+04</totfact>
</mgrwt>
</event>
<event>
 4    1  0.3976152E+000  0.2231801E+03  0.7546771E-02  0.1131534E+00
         21   -1    0    0  503  502  0.00000000000E+00  0.00000000000E+00  0.49032568853E+03  0.49032568853E+03  0.00000000000E+00 0.  1.
         21   -1    0    0  501  503 -0.00000000000E+00 -0.00000000000E+00 -0.10554742758E+03  0.10554742758E+03  0.00000000000E+00 0.  1.
          6    1    1    2  501    0 -0.13474333033E+03  0.41528052098E+02  0.13465610435E+03  0.26065611564E+03  0.17300000000E+03 0.  1.
         -6    1    1    2    0  502  0.13474333033E+03 -0.41528052098E+02  0.25012215660E+03  0.33521700047E+03  0.17300000000E+03 0.  1.
<mgrwt>
<rscale>  2 0.22318007E+03</rscale>
<asrwt>0</asrwt>
<pdfrwt beam="1">  1       21 0.75434720E-01 0.22318007E+03</pdfrwt>
<pdfrwt beam="2">  1       21 0.16238066E-01 0.22318007E+03</pdfrwt>
<totfact> 0.52500050E+04</totfact>
</mgrwt>
</event>
<event>
 4    1  0.3976152E+000  0.1933120E+03  0.7546771E-02  0.1155508E+00
         21   -1    0    0  501  502  0.00000000000E+00  0.00000000000E+00  0.41889408690E+03  0.41889408690E+03  0.00000000000E+00 0. -1.
         21   -1    0    0  502  503 -0.00000000000E+00 -0.00000000000E+00 -0.12147269420E+03  0.12147269420E+03  0.00000000000E+00 0.  1.
          6    1    1    2  501    0  0.14698598466E+02 -0.84996990809E+02  0.28795251900E+03  0.34682299584E+03  0.17300000000E+03 0. -1.
         -6    1    1    2    0  503 -0.14698598466E+02  0.84996990809E+02  0.94688737060E+01  0.19354378526E+03  0.17300000000E+03 0.  1.
<mgrwt>
<rscale>  2 0.19331202E+03</rscale>
<asrwt>0</asrwt>
<pdfrwt beam="1">  1       21 0.64445243E-01 0.19331202E+03</pdfrwt>
<pdfrwt beam="2">  1       21 0.18688107E-01 0.19331202E+03</pdfrwt>
<totfact> 0.58143957E+04</totfact>
</mgrwt>
</event>
<event>
 4    1  0.3976152E+000  0.1916275E+03  0.7546771E-02  0.1157002E+00
         21   -1    0    0  501  502  0.00000000000E+00  0.00000000000E+00  0.10296346372E+04  0.10296346372E+04  0.00000000000E+00 0. -1.
         21   -1    0    0  502  503 -0.00000000000E+00 -0.00000000000E+00 -0.39576322607E+02  0.39576322607E+02  0.00000000000E+00 0. -1.
          6    1    1    2  501    0  0.82249863992E+02 -0.52009555756E+01  0.66311154767E+03  0.69024489474E+03  0.17300000000E+03 0. -1.
         -6    1    1    2    0  503 -0.82249863992E+02  0.52009555756E+01  0.32694676690E+03  0.37896606504E+03  0.17300000000E+03 0. -1.
<mgrwt>
<rscale>  2 0.19162748E+03</rscale>
<asrwt>0</asrwt>
<pdfrwt beam="1">  1       21 0.15840531E+00 0.19162748E+03</pdfrwt>
<pdfrwt beam="2">  1       21 0.60886658E-02 0.19162748E+03</pdfrwt>
<totfact> 0.49751651E+04</totfact>
</mgrwt>
</event>
<event>
 4    1  0.3976152E+000  0.1810847E+03  0.7546771E-02  0.1166757E+00
         21   -1    0    0  503  502  0.00000000000E+00  0.00000000000E+00  0.73477280082E+02  0.73477280082E+02  0.00000000000E+00 0. -1.
         21   -1    0    0  501  503 -0.00000000000E+00 -0.00000000000E+00 -0.51496250533E+03  0.51496250533E+03  0.00000000000E+00 0. -1.
          6    1    1    2  501    0  0.52965731012E+02  0.75697432905E+01 -0.32819038935E+03  0.37483409842E+03  0.17300000000E+03 0. -1.
         -6    1    1    2    0  502 -0.52965731012E+02 -0.75697432905E+01 -0.11329483590E+03  0.21360568699E+03  0.17300000000E+03 0. -1.
<mgrwt>
<rscale>  2 0.18108470E+03</rscale>
<asrwt>0</asrwt>
<pdfrwt beam="1">  1       21 0.11304197E-01 0.18108470E+03</pdfrwt>
<pdfrwt beam="2">  1       21 0.79225001E-01 0.18108470E+03</pdfrwt>
<totfact> 0.92215597E+04</totfact>
</mgrwt>
</event>
<event>
 4    1  0.3976152E+000  0.1773048E+03  0.7546771E-02  0.1170437E+00
         21   -1    0    0  503  502  0.00000000000E+00  0.00000000000E+00  0.42923848831E+03  0.42923848831E+03  0.00000000000E+00 0. -1.
         21   -1    0    0  501  503 -0.00000000000E+00 -0.00000000000E+00 -0.22932154433E+03  0.22932154433E+03  0.00000000000E+00 0. -1.
          6    1    1    2  501    0  0.38765014020E+02  0.22976224374E+01 -0.17169802028E+03  0.24681413158E+03  0.17300000000E+03 0. -1.
         -6    1    1    2    0  502 -0.38765014020E+02 -0.22976224374E+01  0.37161496426E+03  0.41174590106E+03  0.17300000000E+03 0. -1.
<mgrwt>
<rscale>  2 0.17730484E+03</rscale>
<asrwt>0</asrwt>
<pdfrwt beam="1">  1       21 0.66036691E-01 0.17730484E+03</pdfrwt>
<pdfrwt beam="2">  1       21 0.35280238E-01 0.17730484E+03</pdfrwt>
<totfact> 0.16467952E+04</totfact>
</mgrwt>
</event>
<event>
 4    1  0.3976152E+000  0.2217524E+03  0.7546771E-02  0.1132583E+00
         21   -1    0    0  501  502  0.00000000000E+00  0.00000000000E+00  0.51044139890E+02  0.51044139890E+02  0.00000000000E+00 0.  1.
         21   -1    0    0  502  503 -0.00000000000E+00 -0.00000000000E+00 -0.12033467307E+04  0.12033467307E+04  0.00000000000E+00 0.  1.
          6    1    1    2  501    0 -0.72776511352E+02 -0.11810467777E+03 -0.29606192382E+03  0.36990106549E+03  0.17300000000E+03 0.  1.
         -6    1    1    2    0  503  0.72776511352E+02  0.11810467777E+03 -0.85624066699E+03  0.88448980510E+03  0.17300000000E+03 0.  1.
<mgrwt>
<rscale>  2 0.22175242E+03</rscale>
<asrwt>0</asrwt>
<pdfrwt beam="1">  1       21 0.78529454E-02 0.22175242E+03</pdfrwt>
<pdfrwt beam="2">  1       21 0.18513025E+00 0.22175242E+03</pdfrwt>
<totfact> 0.20403180E+04</totfact>
</mgrwt>
</event>
<event>
 4    1  0.3976152E+000  0.1770213E+03  0.7546771E-02  0.1170717E+00
         21   -1    0    0  503  502  0.00000000000E+00  0.00000000000E+00  0.35719800893E+03  0.35719800893E+03  0.00000000000E+00 0. -1.
         21   -1    0    0  501  503 -0.00000000000E+00 -0.00000000000E+00 -0.11078190870E+03  0.11078190870E+03  0.00000000000E+00 0. -1.
          6    1    1    2  501    0 -0.36959097941E+02 -0.64473020224E+01  0.16467898922E+02  0.17778564149E+03  0.17300000000E+03 0. -1.
         -6    1    1    2    0  502  0.36959097941E+02  0.64473020224E+01  0.22994820131E+03  0.29019427615E+03  0.17300000000E+03 0. -1.
<mgrwt>
<rscale>  2 0.17702131E+03</rscale>
<asrwt>0</asrwt>
<pdfrwt beam="1">  1       21 0.54953540E-01 0.17702131E+03</pdfrwt>
<pdfrwt beam="2">  1       21 0.17043371E-01 0.17702131E+03</pdfrwt>
<totfact> 0.97614425E+04</totfact>
</mgrwt>
</event>
<event>
 4    1  0.3976152E+000  0.2122483E+03  0.7546771E-02  0.1139798E+00
         21   -1    0    0  501  502  0.00000000000E+00  0.00000000000E+00  0.70783568284E+03  0.70783568284E+03  0.00000000000E+00 0. -1.
         21   -1    0    0  502  503 -0.00000000000E+00 -0.00000000000E+00 -0.69587640405E+02  0.69587640405E+02  0.00000000000E+00 0. -1.
          6    1    1    2  501    0 -0.97855581535E+02 -0.74462260369E+02  0.43272853277E+03  0.48197855360E+03  0.17300000000E+03 0. -1.
         -6    1    1    2    0  503  0.97855581535E+02  0.74462260369E+02  0.20551950966E+03  0.29544476964E+03  0.17300000000E+03 0. -1.
<mgrwt>
<rscale>  2 0.21224831E+03</rscale>
<asrwt>0</asrwt>
<pdfrwt beam="1">  1       21 0.10889779E+00 0.21224831E+03</pdfrwt>
<pdfrwt beam="2">  1       21 0.10705791E-01 0.21224831E+03</pdfrwt>
<totfact> 0.47638416E+04</totfact>
</mgrwt>
</event>
<event>
 4    1  0.3976152E+000  0.1979953E+03  0.7546771E-02  0.1151441E+00
         21   -1    0    0  501  502  0.00000000000E+00  0.00000000000E+00  0.95894720478E+02  0.95894720478E+02  0.00000000000E+00 0. -1.
         21   -1    0    0  502  503 -0.00000000000E+00 -0.00000000000E+00 -0.50608281856E+03  0.50608281856E+03  0.00000000000E+00 0. -1.
          6    1    1    2  501    0  0.95042752280E+02 -0.15492487861E+02 -0.73132101304E+02  0.21106976615E+03  0.17300000000E+03 0. -1.
         -6    1    1    2    0  503 -0.95042752280E+02  0.15492487861E+02 -0.33705599678E+03  0.39090777289E+03  0.17300000000E+03 0. -1.
<mgrwt>
<rscale>  2 0.19799531E+03</rscale>
<asrwt>0</asrwt>
<pdfrwt beam="1">  1       21 0.14753034E-01 0.19799531E+03</pdfrwt>
<pdfrwt beam="2">  1       21 0.77858896E-01 0.19799531E+03</pdfrwt>
<totfact> 0.58963775E+04</totfact>
</mgrwt>
</event>
<event>
 4    1  0.3976152E+000  0.2421051E+03  0.7546771E-02  0.1118398E+00
         21   -1    0    0  501  502  0.00000000000E+00  0.00000000000E+00  0.11356447299E+03  0.11356447299E+03  0.00000000000E+00 0. -1.
         21   -1    0    0  502  503 -0.00000000000E+00 -0.00000000000E+00 -0.85913070797E+03  0.85913070797E+03  0.00000000000E+00 0. -1.
          6    1    1    2  501    0  0.13677813337E+03  0.99888100416E+02 -0.65485022922E+02  0.25080506095E+03  0.17300000000E+03 0. -1.
         -6    1    1    2    0  503 -0.13677813337E+03 -0.99888100416E+02 -0.68008121205E+03  0.72189012001E+03  0.17300000000E+03 0. -1.
<mgrwt>
<rscale>  2 0.24210512E+03</rscale>
<asrwt>0</asrwt>
<pdfrwt beam="1">  1       21 0.17471458E-01 0.24210512E+03</pdfrwt>
<pdfrwt beam="2">  1       21 0.13217395E+00 0.24210512E+03</pdfrwt>
<totfact> 0.11902863E+04</totfact>
</mgrwt>
</event>
<event>
 4    1  0.3976152E+000  0.1749572E+03  0.7546771E-02  0.1172775E+00
         21   -1    0    0  503  502  0.00000000000E+00  0.00000000000E+00  0.19652143769E+03  0.19652143769E+03  0.00000000000E+00 0.  1.
         21   -1    0    0  501  503 -0.00000000000E+00 -0.00000000000E+00 -0.29255102957E+03  0.29255102957E+03  0.00000000000E+00 0.  1.
          6    1    1    2  501    0 -0.15764071356E+02 -0.20796905675E+02 -0.21522875146E+03  0.27736876660E+03  0.17300000000E+03 0.  1.
         -6    1    1    2    0  502  0.15764071356E+02  0.20796905675E+02  0.11919915958E+03  0.21170370067E+03  0.17300000000E+03 0.  1.
<mgrwt>
<rscale>  2 0.17495719E+03</rscale>
<asrwt>0</asrwt>
<pdfrwt beam="1">  1       21 0.30234067E-01 0.17495719E+03</pdfrwt>
<pdfrwt beam="2">  1       21 0.45007850E-01 0.17495719E+03</pdfrwt>
<totfact> 0.50138482E+04</totfact>
</mgrwt>
</event>
<event>
 4    1  0.3976152E+000  0.1828606E+03  0.7546771E-02  0.1165063E+00
         21   -1    0    0  503  502  0.00000000000E+00  0.00000000000E+00  0.67887023390E+02  0.67887023390E+02  0.00000000000E+00 0.  1.
         21   -1    0    0  501  503 -0.00000000000E+00 -0.00000000000E+00 -0.50425192263E+03  0.50425192263E+03  0.00000000000E+00 0.  1.
          6    1    1    2  501    0 -0.55963629896E+02  0.19418557931E+02 -0.26175436595E+03  0.31930135665E+03  0.17300000000E+03 0.  1.
         -6    1    1    2    0  502  0.55963629896E+02 -0.19418557931E+02 -0.17461053329E+03  0.25283758937E+03  0.17300000000E+03 0.  1.
<mgrwt>
<rscale>  2 0.18286063E+03</rscale>
<asrwt>0</asrwt>
<pdfrwt beam="1">  1       21 0.10444158E-01 0.18286063E+03</pdfrwt>
<pdfrwt beam="2">  1       21 0.77577218E-01 0.18286063E+03</pdfrwt>
<totfact> 0.11117043E+05</totfact>
</mgrwt>
</event>
<event>
 4    1  0.3976152E+000  0.1954675E+03  0.7546771E-02  0.1153620E+00
         21   -1    0    0  501  502  0.00000000000E+00  0.00000000000E+00  0.45629807552E+03  0.45629807552E+03  0.00000000000E+00 0. -1.
         21   -1    0    0  502  503 -0.00000000000E+00 -0.00000000000E+00 -0.84069764918E+02  0.84069764918E+02  0.00000000000E+00 0. -1.
          6    1    1    2  501    0  0.14293408115E+01  0.90975309448E+02  0.20319532069E+03  0.28195015215E+03  0.17300000000E+03 0. -1.
         -6    1    1    2    0  503 -0.14293408115E+01 -0.90975309448E+02  0.16903298991E+03  0.25841768829E+03  0.17300000000E+03 0. -1.
<mgrwt>
<rscale>  2 0.19546752E+03</rscale>
<asrwt>0</asrwt>
<pdfrwt beam="1">  1       21 0.70199702E-01 0.19546752E+03</pdfrwt>
<pdfrwt beam="2">  1       21 0.12933810E-01 0.19546752E+03</pdfrwt>
<totfact> 0.94351536E+04</totfact>
</mgrwt>
</event>
<event>
 4    1  0.3976152E+000  0.2095158E+03  0.7546771E-02  0.1141950E+00
         21   -1    0    0  503  502  0.00000000000E+00  0.00000000000E+00  0.28237454865E+03  0.28237454865E+03  0.00000000000E+00 0.  1.
         21   -1    0    0  501  503 -0.00000000000E+00 -0.00000000000E+00 -0.18124187411E+03  0.18124187411E+03  0.00000000000E+00 0. -1.
          6    1    1    2  501    0  0.88310072323E+02 -0.78544316486E+02 -0.36869336870E+02  0.21273510883E+03  0.17300000000E+03 0. -1.
         -6    1    1    2    0  502 -0.88310072323E+02  0.78544316486E+02  0.13800201141E+03  0.25088131393E+03  0.17300000000E+03 0.  1.
<mgrwt>
<rscale>  2 0.20951582E+03</rscale>
<asrwt>0</asrwt>
<pdfrwt beam="1">  1       21 0.43442238E-01 0.20951582E+03</pdfrwt>
<pdfrwt beam="2">  1       21 0.27883365E-01 0.20951582E+03</pdfrwt>
<totfact> 0.62076421E+04</totfact>
</mgrwt>
</event>
<event>
 4    1  0.3976152E+000  0.1767537E+03  0.7546771E-02  0.1170982E+00
         21   -1    0    0  501  502  0.00000000000E+00  0.00000000000E+00  0.45205745602E+02  0.45205745602E+02  0.00000000000E+00 0. -1.
         21   -1    0    0  502  503 -0.00000000000E+00 -0.00000000000E+00 -0.80113523435E+03  0.80113523435E+03  0.00000000000E+00 0.  1.
          6    1    1    2  501    0  0.10676770718E+02  0.34624709486E+02 -0.22113776224E+03  0.28309675701E+03  0.17300000000E+03 0. -1.
         -6    1    1    2    0  503 -0.10676770718E+02 -0.34624709486E+02 -0.53479172651E+03  0.56324422295E+03  0.17300000000E+03 0.  1.
<mgrwt>
<rscale>  2 0.17675368E+03</rscale>
<asrwt>0</asrwt>
<pdfrwt beam="1">  1       21 0.69547296E-02 0.17675368E+03</pdfrwt>
<pdfrwt beam="2">  1       21 0.12325158E+00 0.17675368E+03</pdfrwt>
<totfact> 0.76156644E+04</totfact>
</mgrwt>
</event>
<event>
 4    1  0.3976152E+000  0.2686397E+03  0.7546771E-02  0.1102061E+00
         21   -1    0    0  501  502  0.00000000000E+00  0.00000000000E+00  0.33776769807E+03  0.33776769807E+03  0.00000000000E+00 0. -1.
         21   -1    0    0  502  503 -0.00000000000E+00 -0.00000000000E+00 -0.22647442660E+03  0.22647442660E+03  0.00000000000E+00 0. -1.
          6    1    1    2  501    0  0.19826759493E+03  0.54113162742E+02  0.12275616361E+03  0.29535800190E+03  0.17300000000E+03 0. -1.
         -6    1    1    2    0  503 -0.19826759493E+03 -0.54113162742E+02 -0.11462892135E+02  0.26888412277E+03  0.17300000000E+03 0. -1.
<mgrwt>
<rscale>  2 0.26863967E+03</rscale>
<asrwt>0</asrwt>
<pdfrwt beam="1">  1       21 0.51964261E-01 0.26863967E+03</pdfrwt>
<pdfrwt beam="2">  1       21 0.34842219E-01 0.26863967E+03</pdfrwt>
<totfact> 0.26886805E+04</totfact>
</mgrwt>
</event>
<event>
 4    1  0.3976152E+000  0.3577633E+03  0.7546771E-02  0.1059473E+00
         21   -1    0    0  503  502  0.00000000000E+00  0.00000000000E+00  0.25142568678E+03  0.25142568678E+03  0.00000000000E+00 0. -1.
         21   -1    0    0  501  503 -0.00000000000E+00 -0.00000000000E+00 -0.10444148193E+04  0.10444148193E+04  0.00000000000E+00 0.  1.
          6    1    1    2  501    0 -0.18539785135E+03  0.25237511303E+03 -0.86036828665E+03  0.93178760973E+03  0.17300000000E+03 0.  1.
         -6    1    1    2    0  502  0.18539785135E+03 -0.25237511303E+03  0.67379154096E+02  0.36405289639E+03  0.17300000000E+03 0. -1.
<mgrwt>
<rscale>  2 0.35776328E+03</rscale>
<asrwt>0</asrwt>
<pdfrwt beam="1">  1       21 0.38680875E-01 0.35776328E+03</pdfrwt>
<pdfrwt beam="2">  1       21 0.16067920E+00 0.35776328E+03</pdfrwt>
<totfact> 0.14204604E+03</totfact>
</mgrwt>
</event>
<event>
 4    1  0.3976152E+000  0.2502101E+03  0.7546771E-02  0.1113172E+00
         21   -1    0    0  503  502  0.00000000000E+00  0.00000000000E+00  0.32977101194E+03  0.32977101194E+03  0.00000000000E+00 0. -1.
         21   -1    0    0  501  503 -0.00000000000E+00 -0.00000000000E+00 -0.28994855498E+03  0.28994855498E+03  0.00000000000E+00 0. -1.
          6    1    1    2  501    0  0.10771724811E+03  0.14516579345E+03 -0.16215576887E+03  0.29816037045E+03  0.17300000000E+03 0. -1.
         -6    1    1    2    0  502 -0.10771724811E+03 -0.14516579345E+03  0.20197822583E+03  0.32155919647E+03  0.17300000000E+03 0. -1.
<mgrwt>
<rscale>  2 0.25021014E+03</rscale>
<asrwt>0</asrwt>
<pdfrwt beam="1">  1       21 0.50734002E-01 0.25021014E+03</pdfrwt>
<pdfrwt beam="2">  1       21 0.44607470E-01 0.25021014E+03</pdfrwt>
<totfact> 0.17266467E+04</totfact>
</mgrwt>
</event>
<event>
 4    1  0.3976152E+000  0.2820504E+03  0.7546771E-02  0.1094574E+00
         21   -1    0    0  503  502  0.00000000000E+00  0.00000000000E+00  0.80782286782E+03  0.80782286782E+03  0.00000000000E+00 0.  1.
         21   -1    0    0  501  503 -0.00000000000E+00 -0.00000000000E+00 -0.11571077973E+03  0.11571077973E+03  0.00000000000E+00 0. -1.
          6    1    1    2  501    0  0.11631736326E+03  0.18998345300E+03  0.16785150038E+03  0.32821725669E+03  0.17300000000E+03 0.  1.
         -6    1    1    2    0  502 -0.11631736326E+03 -0.18998345300E+03  0.52426058770E+03  0.59531639086E+03  0.17300000000E+03 0.  1.
<mgrwt>
<rscale>  2 0.28205042E+03</rscale>
<asrwt>0</asrwt>
<pdfrwt beam="1">  1       21 0.12428044E+00 0.28205042E+03</pdfrwt>
<pdfrwt beam="2">  1       21 0.17801659E-01 0.28205042E+03</pdfrwt>
<totfact> 0.13159081E+04</totfact>
</mgrwt>
</event>
<event>
 4    1  0.3976152E+000  0.2266565E+03  0.7546771E-02  0.1129015E+00
         21   -1    0    0  503  502  0.00000000000E+00  0.00000000000E+00  0.91767999818E+02  0.91767999818E+02  0.00000000000E+00 0. -1.
         21   -1    0    0  501  503 -0.00000000000E+00 -0.00000000000E+00 -0.99814020387E+03  0.99814020387E+03  0.00000000000E+00 0. -1.
          6    1    1    2  501    0  0.12519231839E+03  0.75967525437E+02 -0.81431475538E+03  0.84527019487E+03  0.17300000000E+03 0. -1.
         -6    1    1    2    0  502 -0.12519231839E+03 -0.75967525437E+02 -0.92057448674E+02  0.24463800882E+03  0.17300000000E+03 0. -1.
<mgrwt>
<rscale>  2 0.22665653E+03</rscale>
<asrwt>0</asrwt>
<pdfrwt beam="1">  1       21 0.14118154E-01 0.22665653E+03</pdfrwt>
<pdfrwt beam="2">  1       21 0.15356003E+00 0.22665653E+03</pdfrwt>
<totfact> 0.12011754E+04</totfact>
</mgrwt>
</event>
<event>
 4    1  0.3976152E+000  0.1993103E+03  0.7546771E-02  0.1150322E+00
         21   -1    0    0  503  502  0.00000000000E+00  0.00000000000E+00  0.63267315299E+02  0.63267315299E+02  0.00000000000E+00 0. -1.
         21   -1    0    0  501  503 -0.00000000000E+00 -0.00000000000E+00 -0.69340093697E+03  0.69340093697E+03  0.00000000000E+00 0.  1.
          6    1    1    2  501    0 -0.37120723285E+02 -0.91747793751E+02 -0.43136056504E+03  0.47518053709E+03  0.17300000000E+03 0.  1.
         -6    1    1    2    0  502  0.37120723285E+02  0.91747793751E+02 -0.19877305663E+03  0.28148771518E+03  0.17300000000E+03 0. -1.
<mgrwt>
<rscale>  2 0.19931033E+03</rscale>
<asrwt>0</asrwt>
<pdfrwt beam="1">  1       21 0.97334334E-02 0.19931033E+03</pdfrwt>
<pdfrwt beam="2">  1       21 0.10667706E+00 0.19931033E+03</pdfrwt>
<totfact> 0.59658248E+04</totfact>
</mgrwt>
</event>
<event>
 4    1  0.3976152E+000  0.1797381E+03  0.7546771E-02  0.1168057E+00
         21   -1    0    0  503  502  0.00000000000E+00  0.00000000000E+00  0.43017892549E+02  0.43017892549E+02  0.00000000000E+00 0. -1.
         21   -1    0    0  501  503 -0.00000000000E+00 -0.00000000000E+00 -0.94231327365E+03  0.94231327365E+03  0.00000000000E+00 0. -1.
          6    1    1    2  501    0 -0.13897094761E+02  0.46729418613E+02 -0.67164350460E+03  0.69527747344E+03  0.17300000000E+03 0. -1.
         -6    1    1    2    0  502  0.13897094761E+02 -0.46729418613E+02 -0.22765187650E+03  0.29005369276E+03  0.17300000000E+03 0. -1.
<mgrwt>
<rscale>  2 0.17973805E+03</rscale>
<asrwt>0</asrwt>
<pdfrwt beam="1">  1       21 0.66181377E-02 0.17973805E+03</pdfrwt>
<pdfrwt beam="2">  1       21 0.14497126E+00 0.17973805E+03</pdfrwt>
<totfact> 0.54843703E+04</totfact>
</mgrwt>
</event>
<event>
 4    1  0.3976152E+000  0.2854967E+03  0.7546771E-02  0.1092724E+00
         21   -1    0    0  501  502  0.00000000000E+00  0.00000000000E+00  0.12001961737E+03  0.12001961737E+03  0.00000000000E+00 0.  1.
         21   -1    0    0  502  503 -0.00000000000E+00 -0.00000000000E+00 -0.83246213482E+03  0.83246213482E+03  0.00000000000E+00 0. -1.
          6    1    1    2  501    0  0.17149948677E+03 -0.14888679248E+03 -0.15182743779E+03  0.32335726651E+03  0.17300000000E+03 0.  1.
         -6    1    1    2    0  503 -0.17149948677E+03  0.14888679248E+03 -0.56061507967E+03  0.62912448568E+03  0.17300000000E+03 0. -1.
<mgrwt>
<rscale>  2 0.28549667E+03</rscale>
<asrwt>0</asrwt>
<pdfrwt beam="1">  1       21 0.18464556E-01 0.28549667E+03</pdfrwt>
<pdfrwt beam="2">  1       21 0.12807110E+00 0.28549667E+03</pdfrwt>
<totfact> 0.11368767E+04</totfact>
</mgrwt>
</event>
<event>
 4    1  0.3976152E+000  0.2936572E+03  0.7546771E-02  0.1088455E+00
         21   -1    0    0  503  502  0.00000000000E+00  0.00000000000E+00  0.59850734309E+03  0.59850734309E+03  0.00000000000E+00 0.  1.
         21   -1    0    0  501  503 -0.00000000000E+00 -0.00000000000E+00 -0.25508572331E+03  0.25508572331E+03  0.00000000000E+00 0. -1.
          6    1    1    2  501    0 -0.16728563319E+03  0.16828855888E+03 -0.10983256652E+03  0.31352466377E+03  0.17300000000E+03 0. -1.
         -6    1    1    2    0  502  0.16728563319E+03 -0.16828855888E+03  0.45325418631E+03  0.54006840264E+03  0.17300000000E+03 0.  1.
<mgrwt>
<rscale>  2 0.29365715E+03</rscale>
<asrwt>0</asrwt>
<pdfrwt beam="1">  1       21 0.92078052E-01 0.29365715E+03</pdfrwt>
<pdfrwt beam="2">  1       21 0.39243958E-01 0.29365715E+03</pdfrwt>
<totfact> 0.58517914E+03</totfact>
</mgrwt>
</event>
<event>
 4    1  0.3976152E+000  0.1785680E+03  0.7546771E-02  0.1169196E+00
         21   -1    0    0  503  502  0.00000000000E+00  0.00000000000E+00  0.43784654993E+03  0.43784654993E+03  0.00000000000E+00 0. -1.
         21   -1    0    0  501  503 -0.00000000000E+00 -0.00000000000E+00 -0.13910236722E+03  0.13910236722E+03  0.00000000000E+00 0. -1.
          6    1    1    2  501    0 -0.27410015606E+01  0.44158800980E+02 -0.49750347557E+02  0.18536884818E+03  0.17300000000E+03 0. -1.
         -6    1    1    2    0  502  0.27410015606E+01 -0.44158800980E+02  0.34849453027E+03  0.39158006898E+03  0.17300000000E+03 0. -1.
<mgrwt>
<rscale>  2 0.17856795E+03</rscale>
<asrwt>0</asrwt>
<pdfrwt beam="1">  1       21 0.67361007E-01 0.17856795E+03</pdfrwt>
<pdfrwt beam="2">  1       21 0.21400364E-01 0.17856795E+03</pdfrwt>
<totfact> 0.41288605E+04</totfact>
</mgrwt>
</event>
<event>
 4    1  0.3976152E+000  0.1885765E+03  0.7546771E-02  0.1159752E+00
         21   -1    0    0  503  502  0.00000000000E+00  0.00000000000E+00  0.23141086988E+03  0.23141086988E+03  0.00000000000E+00 0. -1.
         21   -1    0    0  501  503 -0.00000000000E+00 -0.00000000000E+00 -0.70940558102E+03  0.70940558102E+03  0.00000000000E+00 0. -1.
          6    1    1    2  501    0  0.51618450079E+02  0.54475850174E+02 -0.65535008318E+03  0.68194194340E+03  0.17300000000E+03 0. -1.
         -6    1    1    2    0  502 -0.51618450079E+02 -0.54475850174E+02  0.17735537205E+03  0.25887450750E+03  0.17300000000E+03 0. -1.
<mgrwt>
<rscale>  2 0.18857646E+03</rscale>
<asrwt>0</asrwt>
<pdfrwt beam="1">  1       21 0.35601672E-01 0.18857646E+03</pdfrwt>
<pdfrwt beam="2">  1       21 0.10913932E+00 0.18857646E+03</pdfrwt>
<totfact> 0.50802918E+03</totfact>
</mgrwt>
</event>
<event>
 4    1  0.3976152E+000  0.2226868E+03  0.7546771E-02  0.1131896E+00
         21   -1    0    0  501  502  0.00000000000E+00  0.00000000000E+00  0.13108487410E+04  0.13108487410E+04  0.00000000000E+00 0.  1.
         21   -1    0    0  502  503 -0.00000000000E+00 -0.00000000000E+00 -0.49138463914E+02  0.49138463914E+02  0.00000000000E+00 0. -1.
          6    1    1    2  501    0  0.78035784818E+02 -0.11649392601E+03  0.95706395242E+03  0.98262954745E+03  0.17300000000E+03 0. -1.
         -6    1    1    2    0  503 -0.78035784818E+02  0.11649392601E+03  0.30464632466E+03  0.37735765746E+03  0.17300000000E+03 0. -1.
<mgrwt>
<rscale>  2 0.22268682E+03</rscale>
<asrwt>0</asrwt>
<pdfrwt beam="1">  1       21 0.20166901E+00 0.22268682E+03</pdfrwt>
<pdfrwt beam="2">  1       21 0.75597647E-02 0.22268682E+03</pdfrwt>
<totfact> 0.16959171E+04</totfact>
</mgrwt>
</event>
<event>
 4    1  0.3976152E+000  0.2216361E+03  0.7546771E-02  0.1132669E+00
         21   -1    0    0  501  502  0.00000000000E+00  0.00000000000E+00  0.75308545685E+02  0.75308545685E+02  0.00000000000E+00 0.  1.
         21   -1    0    0  502  503 -0.00000000000E+00 -0.00000000000E+00 -0.67919819656E+03  0.67919819656E+03  0.00000000000E+00 0.  1.
          6    1    1    2  501    0  0.77715142527E+02  0.11469053780E+03 -0.22684737203E+03  0.31714711576E+03  0.17300000000E+03 0.  1.
         -6    1    1    2    0  503 -0.77715142527E+02 -0.11469053780E+03 -0.37704227885E+03  0.43735962649E+03  0.17300000000E+03 0.  1.
<mgrwt>
<rscale>  2 0.22163610E+03</rscale>
<asrwt>0</asrwt>
<pdfrwt beam="1">  1       21 0.11585930E-01 0.22163610E+03</pdfrwt>
<pdfrwt beam="2">  1       21 0.10449203E+00 0.22163610E+03</pdfrwt>
<totfact> 0.45505272E+04</totfact>
</mgrwt>
</event>
<event>
 4    1  0.3976152E+000  0.2519203E+03  0.7546771E-02  0.1112097E+00
         21   -1    0    0  503  502  0.00000000000E+00  0.00000000000E+00  0.10928398129E+03  0.10928398129E+03  0.00000000000E+00 0.  1.
         21   -1    0    0  501  503 -0.00000000000E+00 -0.00000000000E+00 -0.72945534192E+03  0.72945534192E+03  0.00000000000E+00 0.  1.
          6    1    1    2  501    0 -0.88756234346E+02  0.16017847670E+03 -0.49945042769E+03  0.55938765025E+03  0.17300000000E+03 0.  1.
         -6    1    1    2    0  502  0.88756234346E+02 -0.16017847670E+03 -0.12072093295E+03  0.27935167296E+03  0.17300000000E+03 0.  1.
<mgrwt>
<rscale>  2 0.25192025E+03</rscale>
<asrwt>0</asrwt>
<pdfrwt beam="1">  1       21 0.16812920E-01 0.25192025E+03</pdfrwt>
<pdfrwt beam="2">  1       21 0.11222390E+00 0.25192025E+03</pdfrwt>
<totfact> 0.19145241E+04</totfact>
</mgrwt>
</event>
<event>
 4    1  0.3976152E+000  0.2279067E+03  0.7546771E-02  0.1128122E+00
         21   -1    0    0  501  502  0.00000000000E+00  0.00000000000E+00  0.26821454526E+03  0.26821454526E+03  0.00000000000E+00 0. -1.
         21   -1    0    0  502  503 -0.00000000000E+00 -0.00000000000E+00 -0.78081074541E+03  0.78081074541E+03  0.00000000000E+00 0. -1.
          6    1    1    2  501    0  0.14247502320E+03 -0.41392381563E+02  0.19854249009E+03  0.30225913031E+03  0.17300000000E+03 0. -1.
         -6    1    1    2    0  503 -0.14247502320E+03  0.41392381563E+02 -0.71113869024E+03  0.74676616035E+03  0.17300000000E+03 0. -1.
<mgrwt>
<rscale>  2 0.22790669E+03</rscale>
<asrwt>0</asrwt>
<pdfrwt beam="1">  1       21 0.41263776E-01 0.22790669E+03</pdfrwt>
<pdfrwt beam="2">  1       21 0.12012473E+00 0.22790669E+03</pdfrwt>
<totfact> 0.28933160E+03</totfact>
</mgrwt>
</event>
<event>
 4    1  0.3976152E+000  0.2003522E+03  0.7546771E-02  0.1149442E+00
         21   -1    0    0  503  502  0.00000000000E+00  0.00000000000E+00  0.10884622090E+03  0.10884622090E+03  0.00000000000E+00 0.  1.
         21   -1    0    0  501  503 -0.00000000000E+00 -0.00000000000E+00 -0.39119979019E+03  0.39119979019E+03  0.00000000000E+00 0. -1.
          6    1    1    2  501    0 -0.91988860908E+02 -0.41833721030E+02 -0.20102263119E+03  0.28381527267E+03  0.17300000000E+03 0. -1.
         -6    1    1    2    0  502  0.91988860908E+02  0.41833721030E+02 -0.81330938091E+02  0.21623073842E+03  0.17300000000E+03 0.  1.
<mgrwt>
<rscale>  2 0.20035222E+03</rscale>
<asrwt>0</asrwt>
<pdfrwt beam="1">  1       21 0.16745573E-01 0.20035222E+03</pdfrwt>
<pdfrwt beam="2">  1       21 0.60184583E-01 0.20035222E+03</pdfrwt>
<totfact> 0.82289677E+04</totfact>
</mgrwt>
</event>
<event>
 4    1  0.3976152E+000  0.2105901E+03  0.7546771E-02  0.1141100E+00
         21   -1    0    0  503  502  0.00000000000E+00  0.00000000000E+00  0.16152747070E+03  0.16152747070E+03  0.00000000000E+00 0.  1.
         21   -1    0    0  501  503 -0.00000000000E+00 -0.00000000000E+00 -0.43902681232E+03  0.43902681232E+03  0.00000000000E+00 0.  1.
          6    1    1    2  501    0 -0.17697979470E+02 -0.11876849461E+03 -0.32253993300E+03  0.38520148257E+03  0.17300000000E+03 0.  1.
         -6    1    1    2    0  502  0.17697979470E+02  0.11876849461E+03  0.45040591380E+02  0.21535280045E+03  0.17300000000E+03 0.  1.
<mgrwt>
<rscale>  2 0.21059006E+03</rscale>
<asrwt>0</asrwt>
<pdfrwt beam="1">  1       21 0.24850380E-01 0.21059006E+03</pdfrwt>
<pdfrwt beam="2">  1       21 0.67542586E-01 0.21059006E+03</pdfrwt>
<totfact> 0.30408752E+04</totfact>
</mgrwt>
</event>
<event>
 4    1  0.3976152E+000  0.2579443E+03  0.7546771E-02  0.1108385E+00
         21   -1    0    0  503  502  0.00000000000E+00  0.00000000000E+00  0.57688979030E+03  0.57688979030E+03  0.00000000000E+00 0.  1.
         21   -1    0    0  501  503 -0.00000000000E+00 -0.00000000000E+00 -0.11698657414E+03  0.11698657414E+03  0.00000000000E+00 0. -1.
          6    1    1    2  501    0  0.18902158398E+02 -0.19039166130E+03  0.18872256689E+03  0.31961145714E+03  0.17300000000E+03 0. -1.
         -6    1    1    2    0  502 -0.18902158398E+02  0.19039166130E+03  0.27118064928E+03  0.37426490730E+03  0.17300000000E+03 0.  1.
<mgrwt>
<rscale>  2 0.25794433E+03</rscale>
<asrwt>0</asrwt>
<pdfrwt beam="1">  1       21 0.88752274E-01 0.25794433E+03</pdfrwt>
<pdfrwt beam="2">  1       21 0.17997935E-01 0.25794433E+03</pdfrwt>
<totfact> 0.29477234E+04</totfact>
</mgrwt>
</event>
<event>
 4    1  0.3976152E+000  0.2955748E+03  0.7546771E-02  0.1087474E+00
         21   -1    0    0  501  502  0.00000000000E+00  0.00000000000E+00  0.29317368994E+03  0.29317368994E+03  0.00000000000E+00 0.  1.
         21   -1    0    0  502  503 -0.00000000000E+00 -0.00000000000E+00 -0.48220059801E+03  0.48220059801E+03  0.00000000000E+00 0. -1.
          6    1    1    2  501    0 -0.68919570092E+02  0.22953327867E+03  0.14510396108E+03  0.32927130558E+03  0.17300000000E+03 0.  1.
         -6    1    1    2    0  503  0.68919570092E+02 -0.22953327867E+03 -0.33413086915E+03  0.44610298237E+03  0.17300000000E+03 0. -1.
<mgrwt>
<rscale>  2 0.29557475E+03</rscale>
<asrwt>0</asrwt>
<pdfrwt beam="1">  1       21 0.45103645E-01 0.29557475E+03</pdfrwt>
<pdfrwt beam="2">  1       21 0.74184707E-01 0.29557475E+03</pdfrwt>
<totfact> 0.72218620E+03</totfact>
</mgrwt>
</event>
<event>
 4    1  0.3976152E+000  0.1917516E+03  0.7546771E-02  0.1156891E+00
         21   -1    0    0  503  502  0.00000000000E+00  0.00000000000E+00  0.20450373852E+03  0.20450373852E+03  0.00000000000E+00 0. -1.
         21   -1    0    0  501  503 -0.00000000000E+00 -0.00000000000E+00 -0.18220572524E+03  0.18220572524E+03  0.00000000000E+00 0. -1.
          6    1    1    2  501    0 -0.72688511428E+02  0.39446764862E+02 -0.11093518101E+02  0.19207220803E+03  0.17300000000E+03 0. -1.
         -6    1    1    2    0  502  0.72688511428E+02 -0.39446764862E+02  0.33391531373E+02  0.19463725573E+03  0.17300000000E+03 0. -1.
<mgrwt>
<rscale>  2 0.19175158E+03</rscale>
<asrwt>0</asrwt>
<pdfrwt beam="1">  1       21 0.31462114E-01 0.19175158E+03</pdfrwt>
<pdfrwt beam="2">  1       21 0.28031650E-01 0.19175158E+03</pdfrwt>
<totfact> 0.11808554E+05</totfact>
</mgrwt>
</event>
<event>
 4    1  0.3976152E+000  0.1824021E+03  0.7546771E-02  0.1165498E+00
         21   -1    0    0  501  502  0.00000000000E+00  0.00000000000E+00  0.22596279345E+03  0.22596279345E+03  0.00000000000E+00 0.  1.
         21   -1    0    0  502  503 -0.00000000000E+00 -0.00000000000E+00 -0.36008902378E+03  0.36008902378E+03  0.00000000000E+00 0.  1.
          6    1    1    2  501    0  0.54478948624E+02  0.19328420231E+02  0.15822479961E+03  0.24146558944E+03  0.17300000000E+03 0.  1.
         -6    1    1    2    0  503 -0.54478948624E+02 -0.19328420231E+02 -0.29235102994E+03  0.34458622779E+03  0.17300000000E+03 0.  1.
<mgrwt>
<rscale>  2 0.18240215E+03</rscale>
<asrwt>0</asrwt>
<pdfrwt beam="1">  1       21 0.34763507E-01 0.18240215E+03</pdfrwt>
<pdfrwt beam="2">  1       21 0.55398311E-01 0.18240215E+03</pdfrwt>
<totfact> 0.24643857E+04</totfact>
</mgrwt>
</event>
<event>
 4    1  0.3976152E+000  0.2117946E+03  0.7546771E-02  0.1140153E+00
         21   -1    0    0  501  502  0.00000000000E+00  0.00000000000E+00  0.10658189000E+04  0.10658189000E+04  0.00000000000E+00 0. -1.
         21   -1    0    0  502  503 -0.00000000000E+00 -0.00000000000E+00 -0.13571498175E+03  0.13571498175E+03  0.00000000000E+00 0. -1.
          6    1    1    2  501    0 -0.56193866026E+02 -0.10849057209E+03  0.96404595535E+03  0.98703675658E+03  0.17300000000E+03 0. -1.
         -6    1    1    2    0  503  0.56193866026E+02  0.10849057209E+03 -0.33942037126E+02  0.21449712515E+03  0.17300000000E+03 0. -1.
<mgrwt>
<rscale>  2 0.21179461E+03</rscale>
<asrwt>0</asrwt>
<pdfrwt beam="1">  1       21 0.16397213E+00 0.21179461E+03</pdfrwt>
<pdfrwt beam="2">  1       21 0.20879229E-01 0.21179461E+03</pdfrwt>
<totfact> 0.49355342E+03</totfact>
</mgrwt>
</event>
<event>
 4    1  0.3976152E+000  0.2513079E+03  0.7546771E-02  0.1112481E+00
         21   -1    0    0  501  502  0.00000000000E+00  0.00000000000E+00  0.26033628156E+04  0.26033628156E+04  0.00000000000E+00 0. -1.
         21   -1    0    0  502  503 -0.00000000000E+00 -0.00000000000E+00 -0.34168844315E+02  0.34168844315E+02  0.00000000000E+00 0. -1.
          6    1    1    2  501    0  0.11033323985E+03 -0.14509730388E+03  0.19947963727E+04  0.20105641546E+04  0.17300000000E+03 0. -1.
         -6    1    1    2    0  503 -0.11033323985E+03  0.14509730388E+03  0.57439759865E+03  0.62696750533E+03  0.17300000000E+03 0. -1.
<mgrwt>
<rscale>  2 0.25130788E+03</rscale>
<asrwt>0</asrwt>
<pdfrwt beam="1">  1       21 0.40051720E+00 0.25130788E+03</pdfrwt>
<pdfrwt beam="2">  1       21 0.52567473E-02 0.25130788E+03</pdfrwt>
<totfact> 0.19823545E+03</totfact>
</mgrwt>
</event>
<event>
 4    1  0.3976152E+000  0.2740001E+03  0.7546771E-02  0.1099012E+00
         21   -1    0    0  501  502  0.00000000000E+00  0.00000000000E+00  0.14078956037E+03  0.14078956037E+03  0.00000000000E+00 0. -1.
         21   -1    0    0  502  503 -0.00000000000E+00 -0.00000000000E+00 -0.68304004217E+03  0.68304004217E+03  0.00000000000E+00 0.  1.
          6    1    1    2  501    0 -0.19491681586E+03 -0.84584215993E+02 -0.78228200517E+02  0.28494860248E+03  0.17300000000E+03 0. -1.
         -6    1    1    2    0  503  0.19491681586E+03  0.84584215993E+02 -0.46402228128E+03  0.53888100006E+03  0.17300000000E+03 0.  1.
<mgrwt>
<rscale>  2 0.27400010E+03</rscale>
<asrwt>0</asrwt>
<pdfrwt beam="1">  1       21 0.21659932E-01 0.27400010E+03</pdfrwt>
<pdfrwt beam="2">  1       21 0.10508308E+00 0.27400010E+03</pdfrwt>
<totfact> 0.13830562E+04</totfact>
</mgrwt>
</event>
<event>
 4    1  0.3976152E+000  0.2076199E+03  0.7546771E-02  0.1143465E+00
         21   -1    0    0  501  502  0.00000000000E+00  0.00000000000E+00  0.26243697031E+03  0.26243697031E+03  0.00000000000E+00 0. -1.
         21   -1    0    0  502  503 -0.00000000000E+00 -0.00000000000E+00 -0.20001949453E+03  0.20001949453E+03  0.00000000000E+00 0. -1.
          6    1    1    2  501    0 -0.50618069189E+02 -0.10302841269E+03  0.12898721681E+03  0.24442533594E+03  0.17300000000E+03 0. -1.
         -6    1    1    2    0  503  0.50618069189E+02  0.10302841269E+03 -0.66569741032E+02  0.21803112890E+03  0.17300000000E+03 0. -1.
<mgrwt>
<rscale>  2 0.20761995E+03</rscale>
<asrwt>0</asrwt>
<pdfrwt beam="1">  1       21 0.40374918E-01 0.20761995E+03</pdfrwt>
<pdfrwt beam="2">  1       21 0.30772230E-01 0.20761995E+03</pdfrwt>
<totfact> 0.59525681E+04</totfact>
</mgrwt>
</event>
<event>
 4    1  0.3976152E+000  0.1947353E+03  0.7546771E-02  0.1154258E+00
         21   -1    0    0  503  502  0.00000000000E+00  0.00000000000E+00  0.20301970841E+03  0.20301970841E+03  0.00000000000E+00 0. -1.
         21   -1    0    0  501  503 -0.00000000000E+00 -0.00000000000E+00 -0.25406720508E+03  0.25406720508E+03  0.00000000000E+00 0. -1.
          6    1    1    2  501    0  0.56221868701E+02  0.69512102675E+02 -0.14313042051E+03  0.24167777766E+03  0.17300000000E+03 0. -1.
         -6    1    1    2    0  502 -0.56221868701E+02 -0.69512102675E+02  0.92082923836E+02  0.21540913583E+03  0.17300000000E+03 0. -1.
<mgrwt>
<rscale>  2 0.19473528E+03</rscale>
<asrwt>0</asrwt>
<pdfrwt beam="1">  1       21 0.31233801E-01 0.19473528E+03</pdfrwt>
<pdfrwt beam="2">  1       21 0.39087262E-01 0.19473528E+03</pdfrwt>
<totfact> 0.62099000E+04</totfact>
</mgrwt>
</event>
<event>
 4    1  0.3976152E+000  0.1907096E+03  0.7546771E-02  0.1157823E+00
         21   -1    0    0  501  502  0.00000000000E+00  0.00000000000E+00  0.21937407707E+03  0.21937407707E+03  0.00000000000E+00 0. -1.
         21   -1    0    0  502  503 -0.00000000000E+00 -0.00000000000E+00 -0.17256132189E+03  0.17256132189E+03  0.00000000000E+00 0. -1.
          6    1    1    2  501    0 -0.20234790196E+02 -0.77664038819E+02  0.62224251411E+02  0.20060410545E+03  0.17300000000E+03 0.  1.
         -6    1    1    2    0  503  0.20234790196E+02  0.77664038819E+02 -0.15411496234E+02  0.19133129351E+03  0.17300000000E+03 0.  1.
<mgrwt>
<rscale>  2 0.19070960E+03</rscale>
<asrwt>0</asrwt>
<pdfrwt beam="1">  1       21 0.33749858E-01 0.19070960E+03</pdfrwt>
<pdfrwt beam="2">  1       21 0.26547896E-01 0.19070960E+03</pdfrwt>
<totfact> 0.11426029E+05</totfact>
</mgrwt>
</event>
<event>
 4    1  0.3976152E+000  0.1992789E+03  0.7546771E-02  0.1150349E+00
         21   -1    0    0  503  502  0.00000000000E+00  0.00000000000E+00  0.35413015933E+03  0.35413015933E+03  0.00000000000E+00 0. -1.
         21   -1    0    0  501  503 -0.00000000000E+00 -0.00000000000E+00 -0.11889229508E+03  0.11889229508E+03  0.00000000000E+00 0.  1.
          6    1    1    2  501    0 -0.11397234347E+02 -0.98250710452E+02  0.61254415088E+02  0.20848070036E+03  0.17300000000E+03 0. -1.
         -6    1    1    2    0  502  0.11397234347E+02  0.98250710452E+02  0.17398344916E+03  0.26454175405E+03  0.17300000000E+03 0. -1.
<mgrwt>
<rscale>  2 0.19927895E+03</rscale>
<asrwt>0</asrwt>
<pdfrwt beam="1">  1       21 0.54481563E-01 0.19927895E+03</pdfrwt>
<pdfrwt beam="2">  1       21 0.18291122E-01 0.19927895E+03</pdfrwt>
<totfact> 0.86488116E+04</totfact>
</mgrwt>
</event>
<event>
 4    1  0.3976152E+000  0.1855750E+03  0.7546771E-02  0.1162514E+00
         21   -1    0    0  503  502  0.00000000000E+00  0.00000000000E+00  0.39399977527E+03  0.39399977527E+03  0.00000000000E+00 0. -1.
         21   -1    0    0  501  503 -0.00000000000E+00 -0.00000000000E+00 -0.10973140387E+03  0.10973140387E+03  0.00000000000E+00 0. -1.
          6    1    1    2  501    0 -0.58878235992E+02 -0.32286459085E+02  0.28528485033E+02  0.18775499080E+03  0.17300000000E+03 0. -1.
         -6    1    1    2    0  502  0.58878235992E+02  0.32286459085E+02  0.25573988637E+03  0.31597618834E+03  0.17300000000E+03 0. -1.
<mgrwt>
<rscale>  2 0.18557495E+03</rscale>
<asrwt>0</asrwt>
<pdfrwt beam="1">  1       21 0.60615349E-01 0.18557495E+03</pdfrwt>
<pdfrwt beam="2">  1       21 0.16881755E-01 0.18557495E+03</pdfrwt>
<totfact> 0.80338780E+04</totfact>
</mgrwt>
</event>
<event>
 4    1  0.3976152E+000  0.1786721E+03  0.7546771E-02  0.1169094E+00
         21   -1    0    0  501  502  0.00000000000E+00  0.00000000000E+00  0.60843039844E+02  0.60843039844E+02  0.00000000000E+00 0. -1.
         21   -1    0    0  502  503 -0.00000000000E+00 -0.00000000000E+00 -0.59209814791E+03  0.59209814791E+03  0.00000000000E+00 0. -1.
          6    1    1    2  501    0  0.12956972008E+02  0.42741585671E+02 -0.15547264527E+03  0.23684482198E+03  0.17300000000E+03 0. -1.
         -6    1    1    2    0  503 -0.12956972008E+02 -0.42741585671E+02 -0.37578246279E+03  0.41609636577E+03  0.17300000000E+03 0. -1.
<mgrwt>
<rscale>  2 0.17867212E+03</rscale>
<asrwt>0</asrwt>
<pdfrwt beam="1">  1       21 0.93604681E-02 0.17867212E+03</pdfrwt>
<pdfrwt beam="2">  1       21 0.91092019E-01 0.17867212E+03</pdfrwt>
<totfact> 0.93681225E+04</totfact>
</mgrwt>
</event>
<event>
 4    1  0.3976152E+000  0.1734114E+03  0.7546771E-02  0.1174336E+00
         21   -1    0    0  501  502  0.00000000000E+00  0.00000000000E+00  0.11603406896E+03  0.11603406896E+03  0.00000000000E+00 0.  1.
         21   -1    0    0  502  503 -0.00000000000E+00 -0.00000000000E+00 -0.28674323466E+03  0.28674323466E+03  0.00000000000E+00 0.  1.
          6    1    1    2  501    0 -0.68001513079E+01  0.98123550000E+01 -0.22894603207E+02  0.17491622916E+03  0.17300000000E+03 0.  1.
         -6    1    1    2    0  503  0.68001513079E+01 -0.98123550000E+01 -0.14781456249E+03  0.22786107446E+03  0.17300000000E+03 0.  1.
<mgrwt>
<rscale>  2 0.17341143E+03</rscale>
<asrwt>0</asrwt>
<pdfrwt beam="1">  1       21 0.17851395E-01 0.17341143E+03</pdfrwt>
<pdfrwt beam="2">  1       21 0.44114343E-01 0.17341143E+03</pdfrwt>
<totfact> 0.14162684E+05</totfact>
</mgrwt>
</event>
<event>
 4    1  0.3976152E+000  0.2364123E+03  0.7546771E-02  0.1122206E+00
         21   -1    0    0  503  502  0.00000000000E+00  0.00000000000E+00  0.43855509360E+03  0.43855509360E+03  0.00000000000E+00 0. -1.
         21   -1    0    0  501  503 -0.00000000000E+00 -0.00000000000E+00 -0.14224708466E+03  0.14224708466E+03  0.00000000000E+00 0. -1.
          6    1    1    2  501    0  0.41307344731E+02 -0.15574172398E+03  0.54469625445E+02  0.24260610341E+03  0.17300000000E+03 0. -1.
         -6    1    1    2    0  502 -0.41307344731E+02  0.15574172398E+03  0.24183838349E+03  0.33819607485E+03  0.17300000000E+03 0. -1.
<mgrwt>
<rscale>  2 0.23641231E+03</rscale>
<asrwt>0</asrwt>
<pdfrwt beam="1">  1       21 0.67470014E-01 0.23641231E+03</pdfrwt>
<pdfrwt beam="2">  1       21 0.21884167E-01 0.23641231E+03</pdfrwt>
<totfact> 0.38333090E+04</totfact>
</mgrwt>
</event>
<event>
 4    1  0.3976152E+000  0.1874978E+03  0.7546771E-02  0.1160738E+00
         21   -1    0    0  503  502  0.00000000000E+00  0.00000000000E+00  0.53096717945E+02  0.53096717945E+02  0.00000000000E+00 0.  1.
         21   -1    0    0  501  503 -0.00000000000E+00 -0.00000000000E+00 -0.12794136135E+04  0.12794136135E+04  0.00000000000E+00 0.  1.
          6    1    1    2  501    0  0.56425414716E+02 -0.45195195142E+02 -0.10759521026E+04  0.10921668188E+04  0.17300000000E+03 0.  1.
         -6    1    1    2    0  502 -0.56425414716E+02  0.45195195142E+02 -0.15036479295E+03  0.24034351260E+03  0.17300000000E+03 0.  1.
<mgrwt>
<rscale>  2 0.18749782E+03</rscale>
<asrwt>0</asrwt>
<pdfrwt beam="1">  1       21 0.81687257E-02 0.18749782E+03</pdfrwt>
<pdfrwt beam="2">  1       21 0.19683287E+00 0.18749782E+03</pdfrwt>
<totfact> 0.16350934E+04</totfact>
</mgrwt>
</event>
<event>
 4    1  0.3976152E+000  0.1822258E+03  0.7546771E-02  0.1165666E+00
         21   -1    0    0  503  502  0.00000000000E+00  0.00000000000E+00  0.49504999908E+02  0.49504999908E+02  0.00000000000E+00 0. -1.
         21   -1    0    0  501  503 -0.00000000000E+00 -0.00000000000E+00 -0.93642201559E+03  0.93642201559E+03  0.00000000000E+00 0. -1.
          6    1    1    2  501    0 -0.10154028693E+02 -0.56339483711E+02 -0.70602498082E+03  0.72916220093E+03  0.17300000000E+03 0. -1.
         -6    1    1    2    0  502  0.10154028693E+02  0.56339483711E+02 -0.18089203486E+03  0.25676481457E+03  0.17300000000E+03 0. -1.
<mgrwt>
<rscale>  2 0.18222580E+03</rscale>
<asrwt>0</asrwt>
<pdfrwt beam="1">  1       21 0.76161544E-02 0.18222580E+03</pdfrwt>
<pdfrwt beam="2">  1       21 0.14406491E+00 0.18222580E+03</pdfrwt>
<totfact> 0.43682292E+04</totfact>
</mgrwt>
</event>
<event>
 4    1  0.3976152E+000  0.1842281E+03  0.7546771E-02  0.1163773E+00
         21   -1    0    0  503  502  0.00000000000E+00  0.00000000000E+00  0.46419139028E+03  0.46419139028E+03  0.00000000000E+00 0. -1.
         21   -1    0    0  501  503 -0.00000000000E+00 -0.00000000000E+00 -0.74723778428E+02  0.74723778428E+02  0.00000000000E+00 0. -1.
          6    1    1    2  501    0  0.39432970305E+02  0.49558340196E+02  0.15521312002E+03  0.24089645256E+03  0.17300000000E+03 0. -1.
         -6    1    1    2    0  502 -0.39432970305E+02 -0.49558340196E+02  0.23425449183E+03  0.29801871614E+03  0.17300000000E+03 0. -1.
<mgrwt>
<rscale>  2 0.18422809E+03</rscale>
<asrwt>0</asrwt>
<pdfrwt beam="1">  1       21 0.71414058E-01 0.18422809E+03</pdfrwt>
<pdfrwt beam="2">  1       21 0.11495966E-01 0.18422809E+03</pdfrwt>
<totfact> 0.11267390E+05</totfact>
</mgrwt>
</event>
<event>
 4    1  0.3976152E+000  0.1988136E+03  0.7546771E-02  0.1150744E+00
         21   -1    0    0  503  502  0.00000000000E+00  0.00000000000E+00  0.37017807842E+02  0.37017807842E+02  0.00000000000E+00 0. -1.
         21   -1    0    0  501  503 -0.00000000000E+00 -0.00000000000E+00 -0.16391569658E+04  0.16391569658E+04  0.00000000000E+00 0.  1.
          6    1    1    2  501    0  0.85353234414E+02 -0.48090298446E+02 -0.12958820507E+04  0.13110442940E+04  0.17300000000E+03 0.  1.
         -6    1    1    2    0  502 -0.85353234414E+02  0.48090298446E+02 -0.30625710718E+03  0.36513047959E+03  0.17300000000E+03 0. -1.
<mgrwt>
<rscale>  2 0.19881361E+03</rscale>
<asrwt>0</asrwt>
<pdfrwt beam="1">  1       21 0.56950472E-02 0.19881361E+03</pdfrwt>
<pdfrwt beam="2">  1       21 0.25217800E+00 0.19881361E+03</pdfrwt>
<totfact> 0.13839095E+04</totfact>
</mgrwt>
</event>
<event>
 4    1  0.3976152E+000  0.3128851E+03  0.7546771E-02  0.1078971E+00
         21   -1    0    0  503  502  0.00000000000E+00  0.00000000000E+00  0.12639554356E+03  0.12639554356E+03  0.00000000000E+00 0.  1.
         21   -1    0    0  501  503 -0.00000000000E+00 -0.00000000000E+00 -0.14345871008E+04  0.14345871008E+04  0.00000000000E+00 0.  1.
          6    1    1    2  501    0  0.17065182110E+03 -0.19709394410E+03 -0.11835099509E+04  0.12241702784E+04  0.17300000000E+03 0.  1.
         -6    1    1    2    0  502 -0.17065182110E+03  0.19709394410E+03 -0.12468160635E+03  0.33681236588E+03  0.17300000000E+03 0.  1.
<mgrwt>
<rscale>  2 0.31288507E+03</rscale>
<asrwt>0</asrwt>
<pdfrwt beam="1">  1       21 0.19445467E-01 0.31288507E+03</pdfrwt>
<pdfrwt beam="2">  1       21 0.22070572E+00 0.31288507E+03</pdfrwt>
<totfact> 0.21912774E+03</totfact>
</mgrwt>
</event>
<event>
 4    1  0.3976152E+000  0.1766723E+03  0.7546771E-02  0.1171063E+00
         21   -1    0    0  503  502  0.00000000000E+00  0.00000000000E+00  0.63944420480E+03  0.63944420480E+03  0.00000000000E+00 0. -1.
         21   -1    0    0  501  503 -0.00000000000E+00 -0.00000000000E+00 -0.67642032260E+02  0.67642032260E+02  0.00000000000E+00 0. -1.
          6    1    1    2  501    0  0.90341789569E+01  0.34676877041E+02  0.99370675043E+02  0.20270084669E+03  0.17300000000E+03 0. -1.
         -6    1    1    2    0  502 -0.90341789569E+01 -0.34676877041E+02  0.47243149749E+03  0.50438539037E+03  0.17300000000E+03 0. -1.
<mgrwt>
<rscale>  2 0.17667230E+03</rscale>
<asrwt>0</asrwt>
<pdfrwt beam="1">  1       21 0.98376027E-01 0.17667230E+03</pdfrwt>
<pdfrwt beam="2">  1       21 0.10406467E-01 0.17667230E+03</pdfrwt>
<totfact> 0.65017486E+04</totfact>
</mgrwt>
</event>
<event>
 4    1  0.3976152E+000  0.2363696E+03  0.7546771E-02  0.1122235E+00
         21   -1    0    0  503  502  0.00000000000E+00  0.00000000000E+00  0.21921326687E+03  0.21921326687E+03  0.00000000000E+00 0.  1.
         21   -1    0    0  501  503 -0.00000000000E+00 -0.00000000000E+00 -0.25543299466E+03  0.25543299466E+03  0.00000000000E+00 0.  1.
          6    1    1    2  501    0 -0.19511198826E+02  0.15987774044E+03 -0.69542769236E+01  0.23647186034E+03  0.17300000000E+03 0.  1.
         -6    1    1    2    0  502  0.19511198826E+02 -0.15987774044E+03 -0.29265450870E+02  0.23817440119E+03  0.17300000000E+03 0.  1.
<mgrwt>
<rscale>  2 0.23636958E+03</rscale>
<asrwt>0</asrwt>
<pdfrwt beam="1">  1       21 0.33725118E-01 0.23636958E+03</pdfrwt>
<pdfrwt beam="2">  1       21 0.39297384E-01 0.23636958E+03</pdfrwt>
<totfact> 0.51837059E+04</totfact>
</mgrwt>
</event>
<event>
 4    1  0.3976152E+000  0.2785264E+03  0.7546771E-02  0.1096497E+00
         21   -1    0    0  503  502  0.00000000000E+00  0.00000000000E+00  0.13372840543E+03  0.13372840543E+03  0.00000000000E+00 0. -1.
         21   -1    0    0  501  503 -0.00000000000E+00 -0.00000000000E+00 -0.64521231495E+03  0.64521231495E+03  0.00000000000E+00 0.  1.
          6    1    1    2  501    0 -0.19234930049E+03 -0.10319740819E+03 -0.37945826569E+03  0.47070748226E+03  0.17300000000E+03 0.  1.
         -6    1    1    2    0  502  0.19234930049E+03  0.10319740819E+03 -0.13202564383E+03  0.30823323812E+03  0.17300000000E+03 0. -1.
<mgrwt>
<rscale>  2 0.27852641E+03</rscale>
<asrwt>0</asrwt>
<pdfrwt beam="1">  1       21 0.20573600E-01 0.27852641E+03</pdfrwt>
<pdfrwt beam="2">  1       21 0.99263435E-01 0.27852641E+03</pdfrwt>
<totfact> 0.17455017E+04</totfact>
</mgrwt>
</event>
<event>
 4    1  0.3976152E+000  0.2168893E+03  0.7546771E-02  0.1136224E+00
         21   -1    0    0  501  502  0.00000000000E+00  0.00000000000E+00  0.21059525180E+03  0.21059525180E+03  0.00000000000E+00 0. -1.
         21   -1    0    0  502  503 -0.00000000000E+00 -0.00000000000E+00 -0.23888061970E+03  0.23888061970E+03  0.00000000000E+00 0.  1.
          6    1    1    2  501    0 -0.12661418985E+03  0.32875451403E+02  0.43121282305E+02  0.22113433330E+03  0.17300000000E+03 0. -1.
         -6    1    1    2    0  503  0.12661418985E+03 -0.32875451403E+02 -0.71406650205E+02  0.22834153821E+03  0.17300000000E+03 0.  1.
<mgrwt>
<rscale>  2 0.21688925E+03</rscale>
<asrwt>0</asrwt>
<pdfrwt beam="1">  1       21 0.32399269E-01 0.21688925E+03</pdfrwt>
<pdfrwt beam="2">  1       21 0.36750865E-01 0.21688925E+03</pdfrwt>
<totfact> 0.64749428E+04</totfact>
</mgrwt>
</event>
<event>
 4    1  0.3976152E+000  0.2767298E+03  0.7546771E-02  0.1097489E+00
         21   -1    0    0  503  502  0.00000000000E+00  0.00000000000E+00  0.28698303045E+03  0.28698303045E+03  0.00000000000E+00 0. -1.
         21   -1    0    0  501  503 -0.00000000000E+00 -0.00000000000E+00 -0.32751848672E+03  0.32751848672E+03  0.00000000000E+00 0. -1.
          6    1    1    2  501    0 -0.67210071827E+02 -0.20526376429E+03 -0.15251349065E+03  0.31597432098E+03  0.17300000000E+03 0. -1.
         -6    1    1    2    0  502  0.67210071827E+02  0.20526376429E+03  0.11197803437E+03  0.29852719619E+03  0.17300000000E+03 0. -1.
<mgrwt>
<rscale>  2 0.27672984E+03</rscale>
<asrwt>0</asrwt>
<pdfrwt beam="1">  1       21 0.44151235E-01 0.27672984E+03</pdfrwt>
<pdfrwt beam="2">  1       21 0.50387460E-01 0.27672984E+03</pdfrwt>
<totfact> 0.17672223E+04</totfact>
</mgrwt>
</event>
<event>
 4    1  0.3976152E+000  0.5573350E+03  0.7546771E-02  0.9998103E-01
         21   -1    0    0  501  502  0.00000000000E+00  0.00000000000E+00  0.71050334304E+03  0.71050334304E+03  0.00000000000E+00 0.  1.
         21   -1    0    0  502  503 -0.00000000000E+00 -0.00000000000E+00 -0.66728073275E+03  0.66728073275E+03  0.00000000000E+00 0. -1.
          6    1    1    2  501    0 -0.31934611907E+03  0.42274270723E+03  0.42614053849E+03  0.70158256736E+03  0.17300000000E+03 0.  1.
         -6    1    1    2    0  503  0.31934611907E+03 -0.42274270723E+03 -0.38291792819E+03  0.67620150843E+03  0.17300000000E+03 0. -1.
<mgrwt>
<rscale>  2 0.55733503E+03</rscale>
<asrwt>0</asrwt>
<pdfrwt beam="1">  1       21 0.10930821E+00 0.55733503E+03</pdfrwt>
<pdfrwt beam="2">  1       21 0.10265857E+00 0.55733503E+03</pdfrwt>
<totfact> 0.40784077E+02</totfact>
</mgrwt>
</event>
<event>
 4    1  0.3976152E+000  0.2035720E+03  0.7546771E-02  0.1146760E+00
         21   -1    0    0  503  502  0.00000000000E+00  0.00000000000E+00  0.70884579303E+02  0.70884579303E+02  0.00000000000E+00 0.  1.
         21   -1    0    0  501  503 -0.00000000000E+00 -0.00000000000E+00 -0.83625633047E+03  0.83625633047E+03  0.00000000000E+00 0. -1.
          6    1    1    2  501    0 -0.35276556574E+02  0.10133173371E+03 -0.13388644163E+03  0.24365371935E+03  0.17300000000E+03 0.  1.
         -6    1    1    2    0  502  0.35276556574E+02 -0.10133173371E+03 -0.63148530954E+03  0.66348719043E+03  0.17300000000E+03 0. -1.
<mgrwt>
<rscale>  2 0.20357199E+03</rscale>
<asrwt>0</asrwt>
<pdfrwt beam="1">  1       21 0.10905320E-01 0.20357199E+03</pdfrwt>
<pdfrwt beam="2">  1       21 0.12865482E+00 0.20357199E+03</pdfrwt>
<totfact> 0.30680836E+04</totfact>
</mgrwt>
</event>
<event>
 4    1  0.3976152E+000  0.1972658E+03  0.7546771E-02  0.1152067E+00
         21   -1    0    0  503  502  0.00000000000E+00  0.00000000000E+00  0.66145994380E+03  0.66145994380E+03  0.00000000000E+00 0. -1.
         21   -1    0    0  501  503 -0.00000000000E+00 -0.00000000000E+00 -0.76755959010E+02  0.76755959010E+02  0.00000000000E+00 0.  1.
          6    1    1    2  501    0  0.94490115599E+02 -0.75099372366E+01  0.11397581475E+03  0.22782508082E+03  0.17300000000E+03 0.  1.
         -6    1    1    2    0  502 -0.94490115599E+02  0.75099372366E+01  0.47072817003E+03  0.51039082198E+03  0.17300000000E+03 0. -1.
<mgrwt>
<rscale>  2 0.19726576E+03</rscale>
<asrwt>0</asrwt>
<pdfrwt beam="1">  1       21 0.10176306E+00 0.19726576E+03</pdfrwt>
<pdfrwt beam="2">  1       21 0.11808610E-01 0.19726576E+03</pdfrwt>
<totfact> 0.47445432E+04</totfact>
</mgrwt>
</event>
<event>
 4    1  0.3976152E+000  0.1882025E+03  0.7546771E-02  0.1160093E+00
         21   -1    0    0  501  502  0.00000000000E+00  0.00000000000E+00  0.17240752049E+03  0.17240752049E+03  0.00000000000E+00 0.  1.
         21   -1    0    0  502  503 -0.00000000000E+00 -0.00000000000E+00 -0.20769532977E+03  0.20769532977E+03  0.00000000000E+00 0.  1.
          6    1    1    2  501    0  0.29403785917E+02 -0.68019023121E+02  0.21409491743E+01  0.18821464820E+03  0.17300000000E+03 0.  1.
         -6    1    1    2    0  503 -0.29403785917E+02  0.68019023121E+02 -0.37428758453E+02  0.19188820207E+03  0.17300000000E+03 0.  1.
<mgrwt>
<rscale>  2 0.18820247E+03</rscale>
<asrwt>0</asrwt>
<pdfrwt beam="1">  1       21 0.26524234E-01 0.18820247E+03</pdfrwt>
<pdfrwt beam="2">  1       21 0.31953128E-01 0.18820247E+03</pdfrwt>
<totfact> 0.12758044E+05</totfact>
</mgrwt>
</event>
<event>
 4    1  0.3976152E+000  0.1976560E+03  0.7546771E-02  0.1151732E+00
         21   -1    0    0  501  502  0.00000000000E+00  0.00000000000E+00  0.44408722691E+02  0.44408722691E+02  0.00000000000E+00 0.  1.
         21   -1    0    0  502  503 -0.00000000000E+00 -0.00000000000E+00 -0.88892057335E+03  0.88892057335E+03  0.00000000000E+00 0.  1.
          6    1    1    2  501    0  0.87831615096E+02 -0.37742331783E+02 -0.37481607688E+03  0.42373926855E+03  0.17300000000E+03 0.  1.
         -6    1    1    2    0  503 -0.87831615096E+02  0.37742331783E+02 -0.46969577378E+03  0.50959002750E+03  0.17300000000E+03 0.  1.
<mgrwt>
<rscale>  2 0.19765595E+03</rscale>
<asrwt>0</asrwt>
<pdfrwt beam="1">  1       21 0.68321109E-02 0.19765595E+03</pdfrwt>
<pdfrwt beam="2">  1       21 0.13675702E+00 0.19765595E+03</pdfrwt>
<totfact> 0.59798135E+04</totfact>
</mgrwt>
</event>
<event>
 4    1  0.3976152E+000  0.2077379E+03  0.7546771E-02  0.1143370E+00
         21   -1    0    0  503  502  0.00000000000E+00  0.00000000000E+00  0.11973035569E+04  0.11973035569E+04  0.00000000000E+00 0. -1.
         21   -1    0    0  501  503 -0.00000000000E+00 -0.00000000000E+00 -0.48506828829E+02  0.48506828829E+02  0.00000000000E+00 0.  1.
          6    1    1    2  501    0 -0.83932207567E+02  0.78621993203E+02  0.25865283570E+03  0.33174737783E+03  0.17300000000E+03 0.  1.
         -6    1    1    2    0  502  0.83932207567E+02 -0.78621993203E+02  0.89014389239E+03  0.91406300792E+03  0.17300000000E+03 0. -1.
<mgrwt>
<rscale>  2 0.20773790E+03</rscale>
<asrwt>0</asrwt>
<pdfrwt beam="1">  1       21 0.18420053E+00 0.20773790E+03</pdfrwt>
<pdfrwt beam="2">  1       21 0.74625899E-02 0.20773790E+03</pdfrwt>
<totfact> 0.22835723E+04</totfact>
</mgrwt>
</event>
<event>
 4    1  0.3976152E+000  0.1983361E+03  0.7546771E-02  0.1151150E+00
         21   -1    0    0  501  502  0.00000000000E+00  0.00000000000E+00  0.12552612644E+03  0.12552612644E+03  0.00000000000E+00 0.  1.
         21   -1    0    0  502  503 -0.00000000000E+00 -0.00000000000E+00 -0.79322253208E+03  0.79322253208E+03  0.00000000000E+00 0.  1.
          6    1    1    2  501    0 -0.93622801596E+02  0.25356866659E+02  0.23440440810E+02  0.19971643380E+03  0.17300000000E+03 0.  1.
         -6    1    1    2    0  503  0.93622801596E+02 -0.25356866659E+02 -0.69113684645E+03  0.71903222472E+03  0.17300000000E+03 0.  1.
<mgrwt>
<rscale>  2 0.19833608E+03</rscale>
<asrwt>0</asrwt>
<pdfrwt beam="1">  1       21 0.19311712E-01 0.19833608E+03</pdfrwt>
<pdfrwt beam="2">  1       21 0.12203424E+00 0.19833608E+03</pdfrwt>
<totfact> 0.12430974E+04</totfact>
</mgrwt>
</event>
<event>
 4    1  0.3976152E+000  0.2329616E+03  0.7546771E-02  0.1124572E+00
         21   -1    0    0  503  502  0.00000000000E+00  0.00000000000E+00  0.39261794368E+03  0.39261794368E+03  0.00000000000E+00 0. -1.
         21   -1    0    0  501  503 -0.00000000000E+00 -0.00000000000E+00 -0.14059921222E+03  0.14059921222E+03  0.00000000000E+00 0.  1.
          6    1    1    2  501    0  0.42180980229E+02  0.15020945793E+03  0.91392122226E+02  0.25024715053E+03  0.17300000000E+03 0. -1.
         -6    1    1    2    0  502 -0.42180980229E+02 -0.15020945793E+03  0.16062660923E+03  0.28297000537E+03  0.17300000000E+03 0. -1.
<mgrwt>
<rscale>  2 0.23296162E+03</rscale>
<asrwt>0</asrwt>
<pdfrwt beam="1">  1       21 0.60402760E-01 0.23296162E+03</pdfrwt>
<pdfrwt beam="2">  1       21 0.21630648E-01 0.23296162E+03</pdfrwt>
<totfact> 0.49957744E+04</totfact>
</mgrwt>
</event>
<event>
 4    1  0.3976152E+000  0.1755239E+03  0.7546771E-02  0.1172207E+00
         21   -1    0    0  501  502  0.00000000000E+00  0.00000000000E+00  0.15771741711E+03  0.15771741711E+03  0.00000000000E+00 0.  1.
         21   -1    0    0  502  503 -0.00000000000E+00 -0.00000000000E+00 -0.29953339249E+03  0.29953339249E+03  0.00000000000E+00 0.  1.
          6    1    1    2  501    0 -0.29302125069E+02 -0.45847542112E+01  0.63932540327E+02  0.18680472215E+03  0.17300000000E+03 0.  1.
         -6    1    1    2    0  503  0.29302125069E+02  0.45847542112E+01 -0.20574851570E+03  0.27044608745E+03  0.17300000000E+03 0.  1.
<mgrwt>
<rscale>  2 0.17552389E+03</rscale>
<asrwt>0</asrwt>
<pdfrwt beam="1">  1       21 0.24264218E-01 0.17552389E+03</pdfrwt>
<pdfrwt beam="2">  1       21 0.46082060E-01 0.17552389E+03</pdfrwt>
<totfact> 0.72883493E+04</totfact>
</mgrwt>
</event>
<event>
 4    1  0.3976152E+000  0.1765672E+03  0.7546771E-02  0.1171167E+00
         21   -1    0    0  503  502  0.00000000000E+00  0.00000000000E+00  0.17118789386E+03  0.17118789386E+03  0.00000000000E+00 0.  1.
         21   -1    0    0  501  503 -0.00000000000E+00 -0.00000000000E+00 -0.52014118530E+03  0.52014118530E+03  0.00000000000E+00 0.  1.
          6    1    1    2  501    0 -0.17338303459E+02  0.30762836370E+02 -0.45313306921E+03  0.48631836001E+03  0.17300000000E+03 0.  1.
         -6    1    1    2    0  502  0.17338303459E+02 -0.30762836370E+02  0.10417977777E+03  0.20501071915E+03  0.17300000000E+03 0.  1.
<mgrwt>
<rscale>  2 0.17656718E+03</rscale>
<asrwt>0</asrwt>
<pdfrwt beam="1">  1       21 0.26336600E-01 0.17656718E+03</pdfrwt>
<pdfrwt beam="2">  1       21 0.80021719E-01 0.17656718E+03</pdfrwt>
<totfact> 0.19031602E+04</totfact>
</mgrwt>
</event>
<event>
 4    1  0.3976152E+000  0.1894151E+03  0.7546771E-02  0.1158990E+00
         21   -1    0    0  501  502  0.00000000000E+00  0.00000000000E+00  0.69551044716E+03  0.69551044716E+03  0.00000000000E+00 0. -1.
         21   -1    0    0  502  503 -0.00000000000E+00 -0.00000000000E+00 -0.82877555260E+02  0.82877555260E+02  0.00000000000E+00 0.  1.
          6    1    1    2  501    0  0.29687860282E+02 -0.71187970391E+02  0.54546419225E+03  0.57741603823E+03  0.17300000000E+03 0. -1.
         -6    1    1    2    0  503 -0.29687860282E+02  0.71187970391E+02  0.67168699642E+02  0.20097196418E+03  0.17300000000E+03 0.  1.
<mgrwt>
<rscale>  2 0.18941514E+03</rscale>
<asrwt>0</asrwt>
<pdfrwt beam="1">  1       21 0.10700160E+00 0.18941514E+03</pdfrwt>
<pdfrwt beam="2">  1       21 0.12750394E-01 0.18941514E+03</pdfrwt>
<totfact> 0.36813209E+04</totfact>
</mgrwt>
</event>
<event>
 4    1  0.3976152E+000  0.1922585E+03  0.7546771E-02  0.1156440E+00
         21   -1    0    0  503  502  0.00000000000E+00  0.00000000000E+00  0.93595887854E+03  0.93595887854E+03  0.00000000000E+00 0. -1.
         21   -1    0    0  501  503 -0.00000000000E+00 -0.00000000000E+00 -0.65882399880E+03  0.65882399880E+03  0.00000000000E+00 0.  1.
          6    1    1    2  501    0  0.83770933698E+02 -0.40957073996E+01 -0.63455530792E+03  0.66304131316E+03  0.17300000000E+03 0.  1.
         -6    1    1    2    0  502 -0.83770933698E+02  0.40957073996E+01  0.91169018766E+03  0.93174156418E+03  0.17300000000E+03 0. -1.
<mgrwt>
<rscale>  2 0.19225853E+03</rscale>
<asrwt>0</asrwt>
<pdfrwt beam="1">  1       21 0.14399367E+00 0.19225853E+03</pdfrwt>
<pdfrwt beam="2">  1       21 0.10135754E+00 0.19225853E+03</pdfrwt>
<totfact> 0.26460722E+02</totfact>
</mgrwt>
</event>
<event>
 4    1  0.3976152E+000  0.2392734E+03  0.7546771E-02  0.1120278E+00
         21   -1    0    0  503  502  0.00000000000E+00  0.00000000000E+00  0.24105443591E+03  0.24105443591E+03  0.00000000000E+00 0.  1.
         21   -1    0    0  501  503 -0.00000000000E+00 -0.00000000000E+00 -0.31410249957E+03  0.31410249957E+03  0.00000000000E+00 0.  1.
          6    1    1    2  501    0 -0.11593272053E+03 -0.11782336545E+03 -0.17359835558E+03  0.29561483419E+03  0.17300000000E+03 0.  1.
         -6    1    1    2    0  502  0.11593272053E+03  0.11782336545E+03  0.10055029192E+03  0.25954210129E+03  0.17300000000E+03 0.  1.
<mgrwt>
<rscale>  2 0.23927336E+03</rscale>
<asrwt>0</asrwt>
<pdfrwt beam="1">  1       21 0.37085298E-01 0.23927336E+03</pdfrwt>
<pdfrwt beam="2">  1       21 0.48323462E-01 0.23927336E+03</pdfrwt>
<totfact> 0.27998075E+04</totfact>
</mgrwt>
</event>
<event>
 4    1  0.3976152E+000  0.2791643E+03  0.7546771E-02  0.1096146E+00
         21   -1    0    0  503  502  0.00000000000E+00  0.00000000000E+00  0.32509641625E+03  0.32509641625E+03  0.00000000000E+00 0. -1.
         21   -1    0    0  501  503 -0.00000000000E+00 -0.00000000000E+00 -0.34266825777E+03  0.34266825777E+03  0.00000000000E+00 0. -1.
          6    1    1    2  501    0 -0.12906962787E+03 -0.17704447913E+03 -0.19179055657E+03  0.33869799825E+03  0.17300000000E+03 0. -1.
         -6    1    1    2    0  502  0.12906962787E+03  0.17704447913E+03  0.17421871505E+03  0.32906667577E+03  0.17300000000E+03 0. -1.
<mgrwt>
<rscale>  2 0.27916432E+03</rscale>
<asrwt>0</asrwt>
<pdfrwt beam="1">  1       21 0.50014833E-01 0.27916432E+03</pdfrwt>
<pdfrwt beam="2">  1       21 0.52718193E-01 0.27916432E+03</pdfrwt>
<totfact> 0.12370225E+04</totfact>
</mgrwt>
</event>
<event>
 4    1  0.3976152E+000  0.2195237E+03  0.7546771E-02  0.1134239E+00
         21   -1    0    0  501  502  0.00000000000E+00  0.00000000000E+00  0.92897193490E+03  0.92897193490E+03  0.00000000000E+00 0. -1.
         21   -1    0    0  502  503 -0.00000000000E+00 -0.00000000000E+00 -0.53187314794E+02  0.53187314794E+02  0.00000000000E+00 0. -1.
          6    1    1    2  501    0 -0.28862910298E+02 -0.13201731743E+03  0.51502306883E+03  0.55985658978E+03  0.17300000000E+03 0. -1.
         -6    1    1    2    0  503  0.28862910298E+02  0.13201731743E+03  0.36076155128E+03  0.42230265991E+03  0.17300000000E+03 0. -1.
<mgrwt>
<rscale>  2 0.21952367E+03</rscale>
<asrwt>0</asrwt>
<pdfrwt beam="1">  1       21 0.14291875E+00 0.21952367E+03</pdfrwt>
<pdfrwt beam="2">  1       21 0.81826645E-02 0.21952367E+03</pdfrwt>
<totfact> 0.38538235E+04</totfact>
</mgrwt>
</event>
<event>
 4    1  0.3976152E+000  0.2028180E+03  0.7546771E-02  0.1147383E+00
         21   -1    0    0  503  502  0.00000000000E+00  0.00000000000E+00  0.15347156440E+02  0.15347156440E+02  0.00000000000E+00 0. -1.
         21   -1    0    0  501  503 -0.00000000000E+00 -0.00000000000E+00 -0.27450288217E+04  0.27450288217E+04  0.00000000000E+00 0.  1.
          6    1    1    2  501    0  0.12518734455E+02 -0.10511620312E+03 -0.15767650212E+04  0.15897556627E+04  0.17300000000E+03 0.  1.
         -6    1    1    2    0  502 -0.12518734455E+02  0.10511620312E+03 -0.11529166440E+04  0.11706203155E+04  0.17300000000E+03 0.  1.
<mgrwt>
<rscale>  2 0.20281798E+03</rscale>
<asrwt>0</asrwt>
<pdfrwt beam="1">  1       21 0.23611015E-02 0.20281798E+03</pdfrwt>
<pdfrwt beam="2">  1       21 0.42231204E+00 0.20281798E+03</pdfrwt>
<totfact> 0.58346823E+03</totfact>
</mgrwt>
</event>
<event>
 4    1  0.3976152E+000  0.1873328E+03  0.7546771E-02  0.1160889E+00
         21   -1    0    0  503  502  0.00000000000E+00  0.00000000000E+00  0.42547909680E+03  0.42547909680E+03  0.00000000000E+00 0. -1.
         21   -1    0    0  501  503 -0.00000000000E+00 -0.00000000000E+00 -0.89850538147E+02  0.89850538147E+02  0.00000000000E+00 0. -1.
          6    1    1    2  501    0 -0.56273299581E+02 -0.44697905682E+02  0.94017152088E+02  0.20960155511E+03  0.17300000000E+03 0. -1.
         -6    1    1    2    0  502  0.56273299581E+02  0.44697905682E+02  0.24161140656E+03  0.30572807983E+03  0.17300000000E+03 0. -1.
<mgrwt>
<rscale>  2 0.18733282E+03</rscale>
<asrwt>0</asrwt>
<pdfrwt beam="1">  1       21 0.65458322E-01 0.18733282E+03</pdfrwt>
<pdfrwt beam="2">  1       21 0.13823160E-01 0.18733282E+03</pdfrwt>
<totfact> 0.97860700E+04</totfact>
</mgrwt>
</event>
<event>
 4    1  0.3976152E+000  0.2426099E+03  0.7546771E-02  0.1118066E+00
         21   -1    0    0  501  502  0.00000000000E+00  0.00000000000E+00  0.30252822181E+03  0.30252822181E+03  0.00000000000E+00 0. -1.
         21   -1    0    0  502  503 -0.00000000000E+00 -0.00000000000E+00 -0.20628265349E+03  0.20628265349E+03  0.00000000000E+00 0.  1.
          6    1    1    2  501    0 -0.17000122078E+03  0.54921123328E+01 -0.12526702695E+02  0.24293311146E+03  0.17300000000E+03 0.  1.
         -6    1    1    2    0  503  0.17000122078E+03 -0.54921123328E+01  0.10877227102E+03  0.26587776384E+03  0.17300000000E+03 0. -1.
<mgrwt>
<rscale>  2 0.24260993E+03</rscale>
<asrwt>0</asrwt>
<pdfrwt beam="1">  1       21 0.46542803E-01 0.24260993E+03</pdfrwt>
<pdfrwt beam="2">  1       21 0.31735793E-01 0.24260993E+03</pdfrwt>
<totfact> 0.41219001E+04</totfact>
</mgrwt>
</event>
<event>
 4    1  0.3976152E+000  0.1936935E+03  0.7546771E-02  0.1155172E+00
         21   -1    0    0  503  502  0.00000000000E+00  0.00000000000E+00  0.43528041156E+02  0.43528041156E+02  0.00000000000E+00 0.  1.
         21   -1    0    0  501  503 -0.00000000000E+00 -0.00000000000E+00 -0.10615601083E+04  0.10615601083E+04  0.00000000000E+00 0.  1.
          6    1    1    2  501    0  0.37608721165E+02  0.78573139609E+02 -0.74864090855E+03  0.77329190099E+03  0.17300000000E+03 0.  1.
         -6    1    1    2    0  502 -0.37608721165E+02 -0.78573139609E+02 -0.26939115864E+03  0.33179624852E+03  0.17300000000E+03 0.  1.
<mgrwt>
<rscale>  2 0.19369345E+03</rscale>
<asrwt>0</asrwt>
<pdfrwt beam="1">  1       21 0.66966219E-02 0.19369345E+03</pdfrwt>
<pdfrwt beam="2">  1       21 0.16331693E+00 0.19369345E+03</pdfrwt>
<totfact> 0.38853504E+04</totfact>
</mgrwt>
</event>
<event>
 4    1  0.3976152E+000  0.2359956E+03  0.7546771E-02  0.1122490E+00
         21   -1    0    0  501  502  0.00000000000E+00  0.00000000000E+00  0.17711183426E+03  0.17711183426E+03  0.00000000000E+00 0.  1.
         21   -1    0    0  502  503 -0.00000000000E+00 -0.00000000000E+00 -0.63537280468E+03  0.63537280468E+03  0.00000000000E+00 0.  1.
          6    1    1    2  501    0  0.14365833977E+03 -0.71604388332E+02  0.59582936980E+02  0.24340097246E+03  0.17300000000E+03 0.  1.
         -6    1    1    2    0  503 -0.14365833977E+03  0.71604388332E+02 -0.51784390740E+03  0.56908366647E+03  0.17300000000E+03 0.  1.
<mgrwt>
<rscale>  2 0.23599557E+03</rscale>
<asrwt>0</asrwt>
<pdfrwt beam="1">  1       21 0.27247975E-01 0.23599557E+03</pdfrwt>
<pdfrwt beam="2">  1       21 0.97749660E-01 0.23599557E+03</pdfrwt>
<totfact> 0.10815890E+04</totfact>
</mgrwt>
</event>
<event>
 4    1  0.3976152E+000  0.1756968E+03  0.7546771E-02  0.1172034E+00
         21   -1    0    0  503  502  0.00000000000E+00  0.00000000000E+00  0.53815738265E+03  0.53815738265E+03  0.00000000000E+00 0. -1.
         21   -1    0    0  501  503 -0.00000000000E+00 -0.00000000000E+00 -0.57917932018E+02  0.57917932018E+02  0.00000000000E+00 0. -1.
          6    1    1    2  501    0  0.12351840232E+02 -0.28067808444E+02  0.21090002839E+03  0.27449625098E+03  0.17300000000E+03 0. -1.
         -6    1    1    2    0  502 -0.12351840232E+02  0.28067808444E+02  0.26933942224E+03  0.32157906369E+03  0.17300000000E+03 0. -1.
<mgrwt>
<rscale>  2 0.17569681E+03</rscale>
<asrwt>0</asrwt>
<pdfrwt beam="1">  1       21 0.82793440E-01 0.17569681E+03</pdfrwt>
<pdfrwt beam="2">  1       21 0.89104514E-02 0.17569681E+03</pdfrwt>
<totfact> 0.12727941E+05</totfact>
</mgrwt>
</event>
<event>
 4    1  0.3976152E+000  0.2076326E+03  0.7546771E-02  0.1143455E+00
         21   -1    0    0  503  502  0.00000000000E+00  0.00000000000E+00  0.11896319209E+04  0.11896319209E+04  0.00000000000E+00 0.  1.
         21   -1    0    0  501  503 -0.00000000000E+00 -0.00000000000E+00 -0.46997927758E+02  0.46997927758E+02  0.00000000000E+00 0. -1.
          6    1    1    2  501    0  0.18056294641E+02  0.11338539141E+03  0.27548075089E+03  0.34496510095E+03  0.17300000000E+03 0. -1.
         -6    1    1    2    0  502 -0.18056294641E+02 -0.11338539141E+03  0.86715324228E+03  0.89166474774E+03  0.17300000000E+03 0.  1.
<mgrwt>
<rscale>  2 0.20763255E+03</rscale>
<asrwt>0</asrwt>
<pdfrwt beam="1">  1       21 0.18302027E+00 0.20763255E+03</pdfrwt>
<pdfrwt beam="2">  1       21 0.72304513E-02 0.20763255E+03</pdfrwt>
<totfact> 0.24570726E+04</totfact>
</mgrwt>
</event>
<event>
 4    1  0.3976152E+000  0.2984934E+03  0.7546771E-02  0.1085996E+00
         21   -1    0    0  503  502  0.00000000000E+00  0.00000000000E+00  0.87892298243E+03  0.87892298243E+03  0.00000000000E+00 0. -1.
         21   -1    0    0  501  503 -0.00000000000E+00 -0.00000000000E+00 -0.83294950235E+03  0.83294950235E+03  0.00000000000E+00 0.  1.
          6    1    1    2  501    0 -0.15742546849E+03 -0.18543605633E+03 -0.77917548510E+03  0.83439363953E+03  0.17300000000E+03 0.  1.
         -6    1    1    2    0  502  0.15742546849E+03  0.18543605633E+03  0.82514896519E+03  0.87747884525E+03  0.17300000000E+03 0. -1.
<mgrwt>
<rscale>  2 0.29849340E+03</rscale>
<asrwt>0</asrwt>
<pdfrwt beam="1">  1       21 0.13521892E+00 0.29849340E+03</pdfrwt>
<pdfrwt beam="2">  1       21 0.12814608E+00 0.29849340E+03</pdfrwt>
<totfact> 0.15700593E+02</totfact>
</mgrwt>
</event>
<event>
 4    1  0.3976152E+000  0.1730102E+03  0.7546771E-02  0.1174745E+00
         21   -1    0    0  503  502  0.00000000000E+00  0.00000000000E+00  0.16272132145E+03  0.16272132145E+03  0.00000000000E+00 0. -1.
         21   -1    0    0  501  503 -0.00000000000E+00 -0.00000000000E+00 -0.19108955845E+03  0.19108955845E+03  0.00000000000E+00 0. -1.
          6    1    1    2  501    0  0.10341359590E+01 -0.15693331237E+01 -0.48379593092E+02  0.17964720224E+03  0.17300000000E+03 0. -1.
         -6    1    1    2    0  502 -0.10341359590E+01  0.15693331237E+01  0.20011356100E+02  0.17416367766E+03  0.17300000000E+03 0. -1.
<mgrwt>
<rscale>  2 0.17301021E+03</rscale>
<asrwt>0</asrwt>
<pdfrwt beam="1">  1       21 0.25034050E-01 0.17301021E+03</pdfrwt>
<pdfrwt beam="2">  1       21 0.29398393E-01 0.17301021E+03</pdfrwt>
<totfact> 0.16848335E+05</totfact>
</mgrwt>
</event>
<event>
 4    1  0.3976152E+000  0.1940028E+03  0.7546771E-02  0.1154900E+00
         21   -1    0    0  503  502  0.00000000000E+00  0.00000000000E+00  0.14102746956E+03  0.14102746956E+03  0.00000000000E+00 0.  1.
         21   -1    0    0  501  503 -0.00000000000E+00 -0.00000000000E+00 -0.38152565066E+03  0.38152565066E+03  0.00000000000E+00 0.  1.
          6    1    1    2  501    0 -0.44426969839E+02  0.75725307944E+02 -0.26347508458E+03  0.32719443471E+03  0.17300000000E+03 0.  1.
         -6    1    1    2    0  502  0.44426969839E+02 -0.75725307944E+02  0.22976903483E+02  0.19535868551E+03  0.17300000000E+03 0.  1.
<mgrwt>
<rscale>  2 0.19400278E+03</rscale>
<asrwt>0</asrwt>
<pdfrwt beam="1">  1       21 0.21696534E-01 0.19400278E+03</pdfrwt>
<pdfrwt beam="2">  1       21 0.58696254E-01 0.19400278E+03</pdfrwt>
<totfact> 0.53787966E+04</totfact>
</mgrwt>
</event>
<event>
 4    1  0.3976152E+000  0.1831804E+03  0.7546771E-02  0.1164760E+00
         21   -1    0    0  501  502  0.00000000000E+00  0.00000000000E+00  0.69710046488E+02  0.69710046488E+02  0.00000000000E+00 0.  1.
         21   -1    0    0  502  503 -0.00000000000E+00 -0.00000000000E+00 -0.48209079944E+03  0.48209079944E+03  0.00000000000E+00 0.  1.
          6    1    1    2  501    0  0.21923045075E+02  0.56084209646E+02 -0.21699229896E+03  0.28397309078E+03  0.17300000000E+03 0.  1.
         -6    1    1    2    0  503 -0.21923045075E+02 -0.56084209646E+02 -0.19538845400E+03  0.26782775516E+03  0.17300000000E+03 0.  1.
<mgrwt>
<rscale>  2 0.18318040E+03</rscale>
<asrwt>0</asrwt>
<pdfrwt beam="1">  1       21 0.10724623E-01 0.18318040E+03</pdfrwt>
<pdfrwt beam="2">  1       21 0.74167814E-01 0.18318040E+03</pdfrwt>
<totfact> 0.11726341E+05</totfact>
</mgrwt>
</event>
<event>
 4    1  0.3976152E+000  0.1843662E+03  0.7546771E-02  0.1163643E+00
         21   -1    0    0  503  502  0.00000000000E+00  0.00000000000E+00  0.69787090153E+03  0.69787090153E+03  0.00000000000E+00 0.  1.
         21   -1    0    0  501  503 -0.00000000000E+00 -0.00000000000E+00 -0.52133673336E+02  0.52133673336E+02  0.00000000000E+00 0. -1.
          6    1    1    2  501    0  0.35565004573E+02  0.52886928008E+02  0.22672101065E+03  0.29222134312E+03  0.17300000000E+03 0. -1.
         -6    1    1    2    0  502 -0.35565004573E+02 -0.52886928008E+02  0.41901621755E+03  0.45778323175E+03  0.17300000000E+03 0. -1.
<mgrwt>
<rscale>  2 0.18436620E+03</rscale>
<asrwt>0</asrwt>
<pdfrwt beam="1">  1       21 0.10736475E+00 0.18436620E+03</pdfrwt>
<pdfrwt beam="2">  1       21 0.80205656E-02 0.18436620E+03</pdfrwt>
<totfact> 0.83032599E+04</totfact>
</mgrwt>
</event>
<event>
 4    1  0.3976152E+000  0.2258230E+03  0.7546771E-02  0.1129615E+00
         21   -1    0    0  503  502  0.00000000000E+00  0.00000000000E+00  0.11077366924E+04  0.11077366924E+04  0.00000000000E+00 0. -1.
         21   -1    0    0  501  503 -0.00000000000E+00 -0.00000000000E+00 -0.67814382741E+02  0.67814382741E+02  0.00000000000E+00 0. -1.
          6    1    1    2  501    0 -0.11749994167E+03  0.85210203073E+02  0.18687147591E+03  0.29311595574E+03  0.17300000000E+03 0. -1.
         -6    1    1    2    0  502  0.11749994167E+03 -0.85210203073E+02  0.85305083377E+03  0.88243511942E+03  0.17300000000E+03 0. -1.
<mgrwt>
<rscale>  2 0.22582297E+03</rscale>
<asrwt>0</asrwt>
<pdfrwt beam="1">  1       21 0.17042102E+00 0.22582297E+03</pdfrwt>
<pdfrwt beam="2">  1       21 0.10432983E-01 0.22582297E+03</pdfrwt>
<totfact> 0.15587504E+04</totfact>
</mgrwt>
</event>
<event>
 4    1  0.3976152E+000  0.1737606E+03  0.7546771E-02  0.1173982E+00
         21   -1    0    0  501  502  0.00000000000E+00  0.00000000000E+00  0.69657187648E+03  0.69657187648E+03  0.00000000000E+00 0.  1.
         21   -1    0    0  502  503 -0.00000000000E+00 -0.00000000000E+00 -0.43375642720E+02  0.43375642720E+02  0.00000000000E+00 0.  1.
          6    1    1    2  501    0 -0.12533797957E+02 -0.10326547988E+02  0.33647176478E+03  0.37868982317E+03  0.17300000000E+03 0. -1.
         -6    1    1    2    0  503  0.12533797957E+02  0.10326547988E+02  0.31672446899E+03  0.36125769603E+03  0.17300000000E+03 0. -1.
<mgrwt>
<rscale>  2 0.17376056E+03</rscale>
<asrwt>0</asrwt>
<pdfrwt beam="1">  1       21 0.10716490E+00 0.17376056E+03</pdfrwt>
<pdfrwt beam="2">  1       21 0.66731763E-02 0.17376056E+03</pdfrwt>
<totfact> 0.11514773E+05</totfact>
</mgrwt>
</event>
<event>
 4    1  0.3976152E+000  0.1761639E+03  0.7546771E-02  0.1171568E+00
         21   -1    0    0  501  502  0.00000000000E+00  0.00000000000E+00  0.25704780592E+03  0.25704780592E+03  0.00000000000E+00 0.  1.
         21   -1    0    0  502  503 -0.00000000000E+00 -0.00000000000E+00 -0.15107936470E+03  0.15107936470E+03  0.00000000000E+00 0.  1.
          6    1    1    2  501    0 -0.32233602301E+02  0.81064559589E+01  0.14444361636E+03  0.22781061883E+03  0.17300000000E+03 0.  1.
         -6    1    1    2    0  503  0.32233602301E+02 -0.81064559589E+01 -0.38475175148E+02  0.18031655179E+03  0.17300000000E+03 0.  1.
<mgrwt>
<rscale>  2 0.17616390E+03</rscale>
<asrwt>0</asrwt>
<pdfrwt beam="1">  1       21 0.39545816E-01 0.17616390E+03</pdfrwt>
<pdfrwt beam="2">  1       21 0.23242979E-01 0.17616390E+03</pdfrwt>
<totfact> 0.10789961E+05</totfact>
</mgrwt>
</event>
<event>
 4    1  0.3976152E+000  0.1932239E+03  0.7546771E-02  0.1155585E+00
         21   -1    0    0  501  502  0.00000000000E+00  0.00000000000E+00  0.22879812805E+03  0.22879812805E+03  0.00000000000E+00 0.  1.
         21   -1    0    0  502  503 -0.00000000000E+00 -0.00000000000E+00 -0.29148040348E+03  0.29148040348E+03  0.00000000000E+00 0. -1.
          6    1    1    2  501    0 -0.43499005964E+02 -0.74258408474E+02  0.14124813106E+03  0.23934600326E+03  0.17300000000E+03 0.  1.
         -6    1    1    2    0  503  0.43499005964E+02  0.74258408474E+02 -0.20393040649E+03  0.28093252827E+03  0.17300000000E+03 0. -1.
<mgrwt>
<rscale>  2 0.19322390E+03</rscale>
<asrwt>0</asrwt>
<pdfrwt beam="1">  1       21 0.35199712E-01 0.19322390E+03</pdfrwt>
<pdfrwt beam="2">  1       21 0.44843139E-01 0.19322390E+03</pdfrwt>
<totfact> 0.37128415E+04</totfact>
</mgrwt>
</event>
<event>
 4    1  0.3976152E+000  0.3729431E+03  0.7546771E-02  0.1053573E+00
         21   -1    0    0  503  502  0.00000000000E+00  0.00000000000E+00  0.26308307705E+03  0.26308307705E+03  0.00000000000E+00 0. -1.
         21   -1    0    0  501  503 -0.00000000000E+00 -0.00000000000E+00 -0.55439426522E+03  0.55439426522E+03  0.00000000000E+00 0.  1.
          6    1    1    2  501    0  0.17979615763E+03  0.27718381626E+03 -0.23368564694E+03  0.44010851830E+03  0.17300000000E+03 0.  1.
         -6    1    1    2    0  502 -0.17979615763E+03 -0.27718381626E+03 -0.57625541233E+02  0.37736882396E+03  0.17300000000E+03 0. -1.
<mgrwt>
<rscale>  2 0.37294306E+03</rscale>
<asrwt>0</asrwt>
<pdfrwt beam="1">  1       21 0.40474320E-01 0.37294306E+03</pdfrwt>
<pdfrwt beam="2">  1       21 0.85291424E-01 0.37294306E+03</pdfrwt>
<totfact> 0.63446959E+03</totfact>
</mgrwt>
</event>
<event>
 4    1  0.3976152E+000  0.1899119E+03  0.7546771E-02  0.1158541E+00
         21   -1    0    0  503  502  0.00000000000E+00  0.00000000000E+00  0.91154477245E+02  0.91154477245E+02  0.00000000000E+00 0.  1.
         21   -1    0    0  501  503 -0.00000000000E+00 -0.00000000000E+00 -0.11460447199E+04  0.11460447199E+04  0.00000000000E+00 0.  1.
          6    1    1    2  501    0  0.74830745641E+02 -0.23192445012E+02 -0.10279977344E+04  0.10453926879E+04  0.17300000000E+03 0.  1.
         -6    1    1    2    0  502 -0.74830745641E+02  0.23192445012E+02 -0.26892508295E+02  0.19180650928E+03  0.17300000000E+03 0.  1.
<mgrwt>
<rscale>  2 0.18991190E+03</rscale>
<asrwt>0</asrwt>
<pdfrwt beam="1">  1       21 0.14023765E-01 0.18991190E+03</pdfrwt>
<pdfrwt beam="2">  1       21 0.17631458E+00 0.18991190E+03</pdfrwt>
<totfact> 0.85678943E+03</totfact>
</mgrwt>
</event>
<event>
 4    1  0.3976152E+000  0.2309414E+03  0.7546771E-02  0.1125979E+00
         21   -1    0    0  501  502  0.00000000000E+00  0.00000000000E+00  0.68970578837E+02  0.68970578837E+02  0.00000000000E+00 0.  1.
         21   -1    0    0  502  503 -0.00000000000E+00 -0.00000000000E+00 -0.78611227945E+03  0.78611227945E+03  0.00000000000E+00 0.  1.
          6    1    1    2  501    0 -0.13383074829E+03 -0.74123192413E+02 -0.41318466460E+03  0.47334499459E+03  0.17300000000E+03 0.  1.
         -6    1    1    2    0  503  0.13383074829E+03  0.74123192413E+02 -0.30395703601E+03  0.38173786370E+03  0.17300000000E+03 0.  1.
<mgrwt>
<rscale>  2 0.23094137E+03</rscale>
<asrwt>0</asrwt>
<pdfrwt beam="1">  1       21 0.10610858E-01 0.23094137E+03</pdfrwt>
<pdfrwt beam="2">  1       21 0.12094035E+00 0.23094137E+03</pdfrwt>
<totfact> 0.37070237E+04</totfact>
</mgrwt>
</event>
<event>
 4    1  0.3976152E+000  0.2490518E+03  0.7546771E-02  0.1113906E+00
         21   -1    0    0  503  502  0.00000000000E+00  0.00000000000E+00  0.31116570172E+03  0.31116570172E+03  0.00000000000E+00 0.  1.
         21   -1    0    0  501  503 -0.00000000000E+00 -0.00000000000E+00 -0.21006886448E+03  0.21006886448E+03  0.00000000000E+00 0. -1.
          6    1    1    2  501    0 -0.17816190422E+03  0.18871786703E+02 -0.83578952580E+01  0.24919202006E+03  0.17300000000E+03 0.  1.
         -6    1    1    2    0  502  0.17816190422E+03 -0.18871786703E+02  0.10945473249E+03  0.27204254614E+03  0.17300000000E+03 0. -1.
<mgrwt>
<rscale>  2 0.24905182E+03</rscale>
<asrwt>0</asrwt>
<pdfrwt beam="1">  1       21 0.47871647E-01 0.24905182E+03</pdfrwt>
<pdfrwt beam="2">  1       21 0.32318287E-01 0.24905182E+03</pdfrwt>
<totfact> 0.37400706E+04</totfact>
</mgrwt>
</event>
<event>
 4    1  0.3976152E+000  0.1881882E+03  0.7546771E-02  0.1160106E+00
         21   -1    0    0  501  502  0.00000000000E+00  0.00000000000E+00  0.90801210204E+02  0.90801210204E+02  0.00000000000E+00 0.  1.
         21   -1    0    0  502  503 -0.00000000000E+00 -0.00000000000E+00 -0.39041213994E+03  0.39041213994E+03  0.00000000000E+00 0. -1.
          6    1    1    2  501    0 -0.14862211805E+01 -0.74051174982E+02 -0.14223344069E+03  0.23589221483E+03  0.17300000000E+03 0. -1.
         -6    1    1    2    0  503  0.14862211805E+01  0.74051174982E+02 -0.15737748905E+03  0.24532113531E+03  0.17300000000E+03 0. -1.
<mgrwt>
<rscale>  2 0.18818816E+03</rscale>
<asrwt>0</asrwt>
<pdfrwt beam="1">  1       21 0.13969417E-01 0.18818816E+03</pdfrwt>
<pdfrwt beam="2">  1       21 0.60063406E-01 0.18818816E+03</pdfrwt>
<totfact> 0.11559888E+05</totfact>
</mgrwt>
</event>
<event>
 4    1  0.3976152E+000  0.1967618E+03  0.7546771E-02  0.1152500E+00
         21   -1    0    0  501  502  0.00000000000E+00  0.00000000000E+00  0.36337509857E+02  0.36337509857E+02  0.00000000000E+00 0. -1.
         21   -1    0    0  502  503 -0.00000000000E+00 -0.00000000000E+00 -0.13106610116E+04  0.13106610116E+04  0.00000000000E+00 0. -1.
          6    1    1    2  501    0 -0.80100319717E+02  0.48684034675E+02 -0.34583751052E+03  0.39789292546E+03  0.17300000000E+03 0. -1.
         -6    1    1    2    0  503  0.80100319717E+02 -0.48684034675E+02 -0.92848599124E+03  0.94910559601E+03  0.17300000000E+03 0. -1.
<mgrwt>
<rscale>  2 0.19676178E+03</rscale>
<asrwt>0</asrwt>
<pdfrwt beam="1">  1       21 0.55903865E-02 0.19676178E+03</pdfrwt>
<pdfrwt beam="2">  1       21 0.20164014E+00 0.19676178E+03</pdfrwt>
<totfact> 0.29074031E+04</totfact>
</mgrwt>
</event>
<event>
 4    1  0.3976152E+000  0.3125676E+03  0.7546771E-02  0.1079122E+00
         21   -1    0    0  503  502  0.00000000000E+00  0.00000000000E+00  0.11645524206E+03  0.11645524206E+03  0.00000000000E+00 0. -1.
         21   -1    0    0  501  503 -0.00000000000E+00 -0.00000000000E+00 -0.84736869302E+03  0.84736869302E+03  0.00000000000E+00 0.  1.
          6    1    1    2  501    0  0.23207568124E+03  0.11794237243E+03 -0.41353047504E+03  0.51836857430E+03  0.17300000000E+03 0.  1.
         -6    1    1    2    0  502 -0.23207568124E+03 -0.11794237243E+03 -0.31738297592E+03  0.44545536078E+03  0.17300000000E+03 0. -1.
<mgrwt>
<rscale>  2 0.31256763E+03</rscale>
<asrwt>0</asrwt>
<pdfrwt beam="1">  1       21 0.17916190E-01 0.31256763E+03</pdfrwt>
<pdfrwt beam="2">  1       21 0.13036442E+00 0.31256763E+03</pdfrwt>
<totfact> 0.11348757E+04</totfact>
</mgrwt>
</event>
<event>
 4    1  0.3976152E+000  0.1967118E+03  0.7546771E-02  0.1152543E+00
         21   -1    0    0  501  502  0.00000000000E+00  0.00000000000E+00  0.54958490907E+03  0.54958490907E+03  0.00000000000E+00 0.  1.
         21   -1    0    0  502  503 -0.00000000000E+00 -0.00000000000E+00 -0.29172313154E+03  0.29172313154E+03  0.00000000000E+00 0. -1.
          6    1    1    2  501    0  0.86795753846E+02 -0.35114239704E+02  0.49532168897E+03  0.53295317644E+03  0.17300000000E+03 0.  1.
         -6    1    1    2    0  503 -0.86795753846E+02  0.35114239704E+02 -0.23745991144E+03  0.30835486417E+03  0.17300000000E+03 0. -1.
<mgrwt>
<rscale>  2 0.19671175E+03</rscale>
<asrwt>0</asrwt>
<pdfrwt beam="1">  1       21 0.84551524E-01 0.19671175E+03</pdfrwt>
<pdfrwt beam="2">  1       21 0.44880482E-01 0.19671175E+03</pdfrwt>
<totfact> 0.57607911E+03</totfact>
</mgrwt>
</event>
<event>
 4    1  0.3976152E+000  0.2013718E+03  0.7546771E-02  0.1148587E+00
         21   -1    0    0  503  502  0.00000000000E+00  0.00000000000E+00  0.34905219912E+02  0.34905219912E+02  0.00000000000E+00 0. -1.
         21   -1    0    0  501  503 -0.00000000000E+00 -0.00000000000E+00 -0.19031749856E+04  0.19031749856E+04  0.00000000000E+00 0. -1.
          6    1    1    2  501    0  0.82266448508E+01  0.10273219996E+03 -0.15389751116E+04  0.15520937397E+04  0.17300000000E+03 0. -1.
         -6    1    1    2    0  502 -0.82266448508E+01 -0.10273219996E+03 -0.32929465402E+03  0.38598646577E+03  0.17300000000E+03 0. -1.
<mgrwt>
<rscale>  2 0.20137175E+03</rscale>
<asrwt>0</asrwt>
<pdfrwt beam="1">  1       21 0.53700330E-02 0.20137175E+03</pdfrwt>
<pdfrwt beam="2">  1       21 0.29279620E+00 0.20137175E+03</pdfrwt>
<totfact> 0.88661757E+03</totfact>
</mgrwt>
</event>
<event>
 4    1  0.3976152E+000  0.2235266E+03  0.7546771E-02  0.1131281E+00
         21   -1    0    0  501  502  0.00000000000E+00  0.00000000000E+00  0.99855901479E+03  0.99855901479E+03  0.00000000000E+00 0. -1.
         21   -1    0    0  502  503 -0.00000000000E+00 -0.00000000000E+00 -0.20853218114E+03  0.20853218114E+03  0.00000000000E+00 0. -1.
          6    1    1    2  501    0  0.84630951757E+02 -0.11345820298E+03  0.92119129383E+03  0.94792276144E+03  0.17300000000E+03 0. -1.
         -6    1    1    2    0  503 -0.84630951757E+02  0.11345820298E+03 -0.13116446019E+03  0.25916843449E+03  0.17300000000E+03 0. -1.
<mgrwt>
<rscale>  2 0.22352665E+03</rscale>
<asrwt>0</asrwt>
<pdfrwt beam="1">  1       21 0.15362446E+00 0.22352665E+03</pdfrwt>
<pdfrwt beam="2">  1       21 0.32081875E-01 0.22352665E+03</pdfrwt>
<totfact> 0.25517806E+03</totfact>
</mgrwt>
</event>
<event>
 4    1  0.3976152E+000  0.1841682E+03  0.7546771E-02  0.1163829E+00
         21   -1    0    0  501  502  0.00000000000E+00  0.00000000000E+00  0.31915489830E+02  0.31915489830E+02  0.00000000000E+00 0. -1.
         21   -1    0    0  502  503 -0.00000000000E+00 -0.00000000000E+00 -0.14220696668E+04  0.14220696668E+04  0.00000000000E+00 0. -1.
          6    1    1    2  501    0 -0.46512473344E+02  0.42726097040E+02 -0.32963807786E+03  0.37759659946E+03  0.17300000000E+03 0. -1.
         -6    1    1    2    0  503  0.46512473344E+02 -0.42726097040E+02 -0.10605160991E+04  0.10763885572E+04  0.17300000000E+03 0. -1.
<mgrwt>
<rscale>  2 0.18416821E+03</rscale>
<asrwt>0</asrwt>
<pdfrwt beam="1">  1       21 0.49100750E-02 0.18416821E+03</pdfrwt>
<pdfrwt beam="2">  1       21 0.21877997E+00 0.18416821E+03</pdfrwt>
<totfact> 0.28575782E+04</totfact>
</mgrwt>
</event>
<event>
 4    1  0.3976152E+000  0.2245202E+03  0.7546771E-02  0.1130557E+00
         21   -1    0    0  501  502  0.00000000000E+00  0.00000000000E+00  0.23542725543E+03  0.23542725543E+03  0.00000000000E+00 0.  1.
         21   -1    0    0  502  503 -0.00000000000E+00 -0.00000000000E+00 -0.26163106891E+03  0.26163106891E+03  0.00000000000E+00 0.  1.
          6    1    1    2  501    0  0.82415335972E+02 -0.11699576986E+03  0.92808246233E+02  0.24294581358E+03  0.17300000000E+03 0.  1.
         -6    1    1    2    0  503 -0.82415335972E+02  0.11699576986E+03 -0.11901205971E+03  0.25411251076E+03  0.17300000000E+03 0.  1.
<mgrwt>
<rscale>  2 0.22452015E+03</rscale>
<asrwt>0</asrwt>
<pdfrwt beam="1">  1       21 0.36219578E-01 0.22452015E+03</pdfrwt>
<pdfrwt beam="2">  1       21 0.40250934E-01 0.22452015E+03</pdfrwt>
<totfact> 0.43051312E+04</totfact>
</mgrwt>
</event>
<event>
 4    1  0.3976152E+000  0.1743108E+03  0.7546771E-02  0.1173426E+00
         21   -1    0    0  501  502  0.00000000000E+00  0.00000000000E+00  0.84534128919E+03  0.84534128919E+03  0.00000000000E+00 0. -1.
         21   -1    0    0  502  503 -0.00000000000E+00 -0.00000000000E+00 -0.38176991964E+02  0.38176991964E+02  0.00000000000E+00 0. -1.
          6    1    1    2  501    0  0.16596474237E+02 -0.13408884319E+02  0.51044075117E+03  0.53938298230E+03  0.17300000000E+03 0. -1.
         -6    1    1    2    0  503 -0.16596474237E+02  0.13408884319E+02  0.29672354605E+03  0.34413529885E+03  0.17300000000E+03 0. -1.
<mgrwt>
<rscale>  2 0.17431076E+03</rscale>
<asrwt>0</asrwt>
<pdfrwt beam="1">  1       21 0.13005249E+00 0.17431076E+03</pdfrwt>
<pdfrwt beam="2">  1       21 0.58733840E-02 0.17431076E+03</pdfrwt>
<totfact> 0.89065429E+04</totfact>
</mgrwt>
</event>
<event>
 4    1  0.3976152E+000  0.2857551E+03  0.7546771E-02  0.1092586E+00
         21   -1    0    0  503  502  0.00000000000E+00  0.00000000000E+00  0.90977330495E+02  0.90977330495E+02  0.00000000000E+00 0.  1.
         21   -1    0    0  501  503 -0.00000000000E+00 -0.00000000000E+00 -0.14926416721E+04  0.14926416721E+04  0.00000000000E+00 0. -1.
          6    1    1    2  501    0 -0.22610081124E+03  0.24605325833E+02 -0.12007949665E+04  0.12343275702E+04  0.17300000000E+03 0. -1.
         -6    1    1    2    0  502  0.22610081124E+03 -0.24605325833E+02 -0.20086937507E+03  0.34929143239E+03  0.17300000000E+03 0.  1.
<mgrwt>
<rscale>  2 0.28575514E+03</rscale>
<asrwt>0</asrwt>
<pdfrwt beam="1">  1       21 0.13996513E-01 0.28575514E+03</pdfrwt>
<pdfrwt beam="2">  1       21 0.22963716E+00 0.28575514E+03</pdfrwt>
<totfact> 0.36126012E+03</totfact>
</mgrwt>
</event>
<event>
 4    1  0.3976152E+000  0.1733925E+03  0.7546771E-02  0.1174355E+00
         21   -1    0    0  503  502  0.00000000000E+00  0.00000000000E+00  0.35912784492E+02  0.35912784492E+02  0.00000000000E+00 0.  1.
         21   -1    0    0  501  503 -0.00000000000E+00 -0.00000000000E+00 -0.85040836410E+03  0.85040836410E+03  0.00000000000E+00 0.  1.
          6    1    1    2  501    0  0.10573460112E+02 -0.49157608403E+01 -0.46254838855E+03  0.49397973087E+03  0.17300000000E+03 0.  1.
         -6    1    1    2    0  502 -0.10573460112E+02  0.49157608403E+01 -0.35194719106E+03  0.39234141772E+03  0.17300000000E+03 0.  1.
<mgrwt>
<rscale>  2 0.17339251E+03</rscale>
<asrwt>0</asrwt>
<pdfrwt beam="1">  1       21 0.55250449E-02 0.17339251E+03</pdfrwt>
<pdfrwt beam="2">  1       21 0.13083203E+00 0.17339251E+03</pdfrwt>
<totfact> 0.97405825E+04</totfact>
</mgrwt>
</event>
<event>
 4    1  0.3976152E+000  0.1980702E+03  0.7546771E-02  0.1151377E+00
         21   -1    0    0  501  502  0.00000000000E+00  0.00000000000E+00  0.16477093785E+03  0.16477093785E+03  0.00000000000E+00 0.  1.
         21   -1    0    0  502  503 -0.00000000000E+00 -0.00000000000E+00 -0.82334414628E+03  0.82334414628E+03  0.00000000000E+00 0.  1.
          6    1    1    2  501    0 -0.23366719539E+02  0.93577865942E+02  0.87252411297E+02  0.21643660470E+03  0.17300000000E+03 0.  1.
         -6    1    1    2    0  503  0.23366719539E+02 -0.93577865942E+02 -0.74582561973E+03  0.77167847943E+03  0.17300000000E+03 0.  1.
<mgrwt>
<rscale>  2 0.19807024E+03</rscale>
<asrwt>0</asrwt>
<pdfrwt beam="1">  1       21 0.25349376E-01 0.19807024E+03</pdfrwt>
<pdfrwt beam="2">  1       21 0.12666833E+00 0.19807024E+03</pdfrwt>
<totfact> 0.67777701E+03</totfact>
</mgrwt>
</event>
<event>
 4    1  0.3976152E+000  0.2099146E+03  0.7546771E-02  0.1141634E+00
         21   -1    0    0  501  502  0.00000000000E+00  0.00000000000E+00  0.58143858280E+03  0.58143858280E+03  0.00000000000E+00 0. -1.
         21   -1    0    0  502  503 -0.00000000000E+00 -0.00000000000E+00 -0.76315121108E+02  0.76315121108E+02  0.00000000000E+00 0.  1.
          6    1    1    2  501    0 -0.89507934827E+02 -0.78252719261E+02  0.27997945700E+03  0.34993235748E+03  0.17300000000E+03 0. -1.
         -6    1    1    2    0  503  0.89507934827E+02  0.78252719261E+02  0.22514400469E+03  0.30782134643E+03  0.17300000000E+03 0. -1.
<mgrwt>
<rscale>  2 0.20991465E+03</rscale>
<asrwt>0</asrwt>
<pdfrwt beam="1">  1       21 0.89452087E-01 0.20991465E+03</pdfrwt>
<pdfrwt beam="2">  1       21 0.11740788E-01 0.20991465E+03</pdfrwt>
<totfact> 0.64489704E+04</totfact>
</mgrwt>
</event>
<event>
 4    1  0.3976152E+000  0.2011681E+03  0.7546771E-02  0.1148757E+00
         21   -1    0    0  503  502  0.00000000000E+00  0.00000000000E+00  0.42708763570E+03  0.42708763570E+03  0.00000000000E+00 0. -1.
         21   -1    0    0  501  503 -0.00000000000E+00 -0.00000000000E+00 -0.14844073351E+03  0.14844073351E+03  0.00000000000E+00 0.  1.
          6    1    1    2  501    0 -0.59940101392E+02  0.83347313880E+02 -0.33734107366E+02  0.20397691165E+03  0.17300000000E+03 0.  1.
         -6    1    1    2    0  502  0.59940101392E+02 -0.83347313880E+02  0.31238100955E+03  0.37155145756E+03  0.17300000000E+03 0. -1.
<mgrwt>
<rscale>  2 0.20116807E+03</rscale>
<asrwt>0</asrwt>
<pdfrwt beam="1">  1       21 0.65705789E-01 0.20116807E+03</pdfrwt>
<pdfrwt beam="2">  1       21 0.22837036E-01 0.20116807E+03</pdfrwt>
<totfact> 0.38123744E+04</totfact>
</mgrwt>
</event>
<event>
 4    1  0.3976152E+000  0.3016354E+03  0.7546771E-02  0.1084426E+00
         21   -1    0    0  503  502  0.00000000000E+00  0.00000000000E+00  0.92277192592E+02  0.92277192592E+02  0.00000000000E+00 0. -1.
         21   -1    0    0  501  503 -0.00000000000E+00 -0.00000000000E+00 -0.10050567781E+04  0.10050567781E+04  0.00000000000E+00 0. -1.
          6    1    1    2  501    0  0.23878324359E+03  0.63541045415E+02 -0.53197073710E+03  0.61153639875E+03  0.17300000000E+03 0. -1.
         -6    1    1    2    0  502 -0.23878324359E+03 -0.63541045415E+02 -0.38080884839E+03  0.48579757192E+03  0.17300000000E+03 0. -1.
<mgrwt>
<rscale>  2 0.30163538E+03</rscale>
<asrwt>0</asrwt>
<pdfrwt beam="1">  1       21 0.14196490E-01 0.30163538E+03</pdfrwt>
<pdfrwt beam="2">  1       21 0.15462413E+00 0.30163538E+03</pdfrwt>
<totfact> 0.11190480E+04</totfact>
</mgrwt>
</event>
<event>
 4    1  0.3976152E+000  0.1807211E+03  0.7546771E-02  0.1167107E+00
         21   -1    0    0  501  502  0.00000000000E+00  0.00000000000E+00  0.42001232481E+02  0.42001232481E+02  0.00000000000E+00 0. -1.
         21   -1    0    0  502  503 -0.00000000000E+00 -0.00000000000E+00 -0.79719546390E+03  0.79719546390E+03  0.00000000000E+00 0. -1.
          6    1    1    2  501    0  0.50103176640E+02 -0.14858964078E+02 -0.31181012524E+03  0.36039654733E+03  0.17300000000E+03 0. -1.
         -6    1    1    2    0  503 -0.50103176640E+02  0.14858964078E+02 -0.44338410618E+03  0.47880014905E+03  0.17300000000E+03 0. -1.
<mgrwt>
<rscale>  2 0.18072110E+03</rscale>
<asrwt>0</asrwt>
<pdfrwt beam="1">  1       21 0.64617284E-02 0.18072110E+03</pdfrwt>
<pdfrwt beam="2">  1       21 0.12264545E+00 0.18072110E+03</pdfrwt>
<totfact> 0.87324512E+04</totfact>
</mgrwt>
</event>
<event>
 4    1  0.3976152E+000  0.2048262E+03  0.7546771E-02  0.1145730E+00
         21   -1    0    0  503  502  0.00000000000E+00  0.00000000000E+00  0.18980592944E+03  0.18980592944E+03  0.00000000000E+00 0. -1.
         21   -1    0    0  501  503 -0.00000000000E+00 -0.00000000000E+00 -0.31504521458E+03  0.31504521458E+03  0.00000000000E+00 0.  1.
          6    1    1    2  501    0 -0.10084661011E+03  0.43066670738E+02 -0.20051007833E+03  0.28663228780E+03  0.17300000000E+03 0.  1.
         -6    1    1    2    0  502  0.10084661011E+03 -0.43066670738E+02  0.75270793192E+02  0.21821885621E+03  0.17300000000E+03 0. -1.
<mgrwt>
<rscale>  2 0.20482621E+03</rscale>
<asrwt>0</asrwt>
<pdfrwt beam="1">  1       21 0.29200912E-01 0.20482621E+03</pdfrwt>
<pdfrwt beam="2">  1       21 0.48468495E-01 0.20482621E+03</pdfrwt>
<totfact> 0.45379373E+04</totfact>
</mgrwt>
</event>
<event>
 4    1  0.3976152E+000  0.1922532E+03  0.7546771E-02  0.1156445E+00
         21   -1    0    0  501  502  0.00000000000E+00  0.00000000000E+00  0.15481952710E+03  0.15481952710E+03  0.00000000000E+00 0.  1.
         21   -1    0    0  502  503 -0.00000000000E+00 -0.00000000000E+00 -0.25039333022E+03  0.25039333022E+03  0.00000000000E+00 0.  1.
          6    1    1    2  501    0 -0.78383846198E+02 -0.29803825736E+02 -0.40744459906E+01  0.19229637668E+03  0.17300000000E+03 0. -1.
         -6    1    1    2    0  503  0.78383846198E+02  0.29803825736E+02 -0.91499357132E+02  0.21291648064E+03  0.17300000000E+03 0. -1.
<mgrwt>
<rscale>  2 0.19225321E+03</rscale>
<asrwt>0</asrwt>
<pdfrwt beam="1">  1       21 0.23818389E-01 0.19225321E+03</pdfrwt>
<pdfrwt beam="2">  1       21 0.38522051E-01 0.19225321E+03</pdfrwt>
<totfact> 0.10795529E+05</totfact>
</mgrwt>
</event>
<event>
 4    1  0.3976152E+000  0.1901865E+03  0.7546771E-02  0.1158293E+00
         21   -1    0    0  503  502  0.00000000000E+00  0.00000000000E+00  0.90291761516E+02  0.90291761516E+02  0.00000000000E+00 0.  1.
         21   -1    0    0  501  503 -0.00000000000E+00 -0.00000000000E+00 -0.46297687355E+03  0.46297687355E+03  0.00000000000E+00 0.  1.
          6    1    1    2  501    0  0.71912123467E+02 -0.32719324779E+02 -0.28788254832E+03  0.34503227290E+03  0.17300000000E+03 0.  1.
         -6    1    1    2    0  502 -0.71912123467E+02  0.32719324779E+02 -0.84802563714E+02  0.20823636217E+03  0.17300000000E+03 0.  1.
<mgrwt>
<rscale>  2 0.19018651E+03</rscale>
<asrwt>0</asrwt>
<pdfrwt beam="1">  1       21 0.13891040E-01 0.19018651E+03</pdfrwt>
<pdfrwt beam="2">  1       21 0.71227211E-01 0.19018651E+03</pdfrwt>
<totfact> 0.80499936E+04</totfact>
</mgrwt>
</event>
<event>
 4    1  0.3976152E+000  0.1752108E+03  0.7546771E-02  0.1172520E+00
         21   -1    0    0  501  502  0.00000000000E+00  0.00000000000E+00  0.24323456143E+02  0.24323456143E+02  0.00000000000E+00 0.  1.
         21   -1    0    0  502  503 -0.00000000000E+00 -0.00000000000E+00 -0.24556350168E+04  0.24556350168E+04  0.00000000000E+00 0.  1.
          6    1    1    2  501    0  0.23087194587E+02  0.15388806071E+02 -0.35118843769E+03  0.39246930157E+03  0.17300000000E+03 0.  1.
         -6    1    1    2    0  503 -0.23087194587E+02 -0.15388806071E+02 -0.20801231230E+04  0.20874891714E+04  0.17300000000E+03 0.  1.
<mgrwt>
<rscale>  2 0.17521083E+03</rscale>
<asrwt>0</asrwt>
<pdfrwt beam="1">  1       21 0.37420695E-02 0.17521083E+03</pdfrwt>
<pdfrwt beam="2">  1       21 0.37779007E+00 0.17521083E+03</pdfrwt>
<totfact> 0.53533922E+03</totfact>
</mgrwt>
</event>
<event>
 4    1  0.3976152E+000  0.3587629E+03  0.7546771E-02  0.1059075E+00
         21   -1    0    0  503  502  0.00000000000E+00  0.00000000000E+00  0.22949790351E+03  0.22949790351E+03  0.00000000000E+00 0.  1.
         21   -1    0    0  501  503 -0.00000000000E+00 -0.00000000000E+00 -0.70381460510E+03  0.70381460510E+03  0.00000000000E+00 0. -1.
          6    1    1    2  501    0  0.19364052844E+03  0.24755835950E+03 -0.44748909443E+03  0.57354797990E+03  0.17300000000E+03 0. -1.
         -6    1    1    2    0  502 -0.19364052844E+03 -0.24755835950E+03 -0.26827607165E+02  0.35976452871E+03  0.17300000000E+03 0.  1.
<mgrwt>
<rscale>  2 0.35876287E+03</rscale>
<asrwt>0</asrwt>
<pdfrwt beam="1">  1       21 0.35307370E-01 0.35876287E+03</pdfrwt>
<pdfrwt beam="2">  1       21 0.10827917E+00 0.35876287E+03</pdfrwt>
<totfact> 0.47591758E+03</totfact>
</mgrwt>
</event>
<event>
 4    1  0.3976152E+000  0.2137698E+03  0.7546771E-02  0.1138615E+00
         21   -1    0    0  501  502  0.00000000000E+00  0.00000000000E+00  0.15439610164E+03  0.15439610164E+03  0.00000000000E+00 0.  1.
         21   -1    0    0  502  503 -0.00000000000E+00 -0.00000000000E+00 -0.32547292721E+03  0.32547292721E+03  0.00000000000E+00 0.  1.
          6    1    1    2  501    0  0.49834144641E+02  0.11526100730E+03 -0.13307413739E+02  0.21418363391E+03  0.17300000000E+03 0.  1.
         -6    1    1    2    0  503 -0.49834144641E+02 -0.11526100730E+03 -0.15776941183E+03  0.26568539494E+03  0.17300000000E+03 0.  1.
<mgrwt>
<rscale>  2 0.21376983E+03</rscale>
<asrwt>0</asrwt>
<pdfrwt beam="1">  1       21 0.23753246E-01 0.21376983E+03</pdfrwt>
<pdfrwt beam="2">  1       21 0.50072759E-01 0.21376983E+03</pdfrwt>
<totfact> 0.62823103E+04</totfact>
</mgrwt>
</event>
<event>
 4    1  0.3976152E+000  0.2341847E+03  0.7546771E-02  0.1123729E+00
         21   -1    0    0  501  502  0.00000000000E+00  0.00000000000E+00  0.50938494562E+03  0.50938494562E+03  0.00000000000E+00 0.  1.
         21   -1    0    0  502  503 -0.00000000000E+00 -0.00000000000E+00 -0.42319174298E+03  0.42319174298E+03  0.00000000000E+00 0.  1.
          6    1    1    2  501    0 -0.14998054711E+03  0.49186286655E+02  0.44572527060E+03  0.50350121366E+03  0.17300000000E+03 0.  1.
         -6    1    1    2    0  503  0.14998054711E+03 -0.49186286655E+02 -0.35953206795E+03  0.42907547494E+03  0.17300000000E+03 0.  1.
<mgrwt>
<rscale>  2 0.23418466E+03</rscale>
<asrwt>0</asrwt>
<pdfrwt beam="1">  1       21 0.78366914E-01 0.23418466E+03</pdfrwt>
<pdfrwt beam="2">  1       21 0.65106422E-01 0.23418466E+03</pdfrwt>
<totfact> 0.30280044E+03</totfact>
</mgrwt>
</event>
<event>
 4    1  0.3976152E+000  0.8714620E+03  0.7546771E-02  0.9461976E-01
         21   -1    0    0  501  502  0.00000000000E+00  0.00000000000E+00  0.98039939444E+03  0.98039939444E+03  0.00000000000E+00 0.  1.
         21   -1    0    0  502  503 -0.00000000000E+00 -0.00000000000E+00 -0.83693565480E+03  0.83693565480E+03  0.00000000000E+00 0. -1.
          6    1    1    2  501    0  0.76473296234E+03  0.38039514211E+03  0.31965988389E+03  0.92823941373E+03  0.17300000000E+03 0.  1.
         -6    1    1    2    0  503 -0.76473296234E+03 -0.38039514211E+03 -0.17619614425E+03  0.88909563551E+03  0.17300000000E+03 0. -1.
<mgrwt>
<rscale>  2 0.87146197E+03</rscale>
<asrwt>0</asrwt>
<pdfrwt beam="1">  1       21 0.15083068E+00 0.87146197E+03</pdfrwt>
<pdfrwt beam="2">  1       21 0.12875933E+00 0.87146197E+03</pdfrwt>
<totfact> 0.89183678E+01</totfact>
</mgrwt>
</event>
<event>
 4    1  0.3976152E+000  0.2083550E+03  0.7546771E-02  0.1142875E+00
         21   -1    0    0  503  502  0.00000000000E+00  0.00000000000E+00  0.35675075848E+03  0.35675075848E+03  0.00000000000E+00 0. -1.
         21   -1    0    0  501  503 -0.00000000000E+00 -0.00000000000E+00 -0.17456240391E+03  0.17456240391E+03  0.00000000000E+00 0. -1.
          6    1    1    2  501    0  0.92133496625E+02 -0.70669972483E+02 -0.55114537924E+02  0.21552131797E+03  0.17300000000E+03 0. -1.
         -6    1    1    2    0  502 -0.92133496625E+02  0.70669972483E+02  0.23730289250E+03  0.31579184442E+03  0.17300000000E+03 0. -1.
<mgrwt>
<rscale>  2 0.20835505E+03</rscale>
<asrwt>0</asrwt>
<pdfrwt beam="1">  1       21 0.54884732E-01 0.20835505E+03</pdfrwt>
<pdfrwt beam="2">  1       21 0.26855755E-01 0.20835505E+03</pdfrwt>
<totfact> 0.41041018E+04</totfact>
</mgrwt>
</event>
<event>
 4    1  0.3976152E+000  0.2037813E+03  0.7546771E-02  0.1146587E+00
         21   -1    0    0  501  502  0.00000000000E+00  0.00000000000E+00  0.89817259486E+03  0.89817259486E+03  0.00000000000E+00 0.  1.
         21   -1    0    0  502  503 -0.00000000000E+00 -0.00000000000E+00 -0.62694489107E+02  0.62694489107E+02  0.00000000000E+00 0.  1.
          6    1    1    2  501    0  0.13250026987E+02  0.10687490704E+03  0.66390601364E+03  0.69447678429E+03  0.17300000000E+03 0. -1.
         -6    1    1    2    0  503 -0.13250026987E+02 -0.10687490704E+03  0.17157209212E+03  0.26639029968E+03  0.17300000000E+03 0. -1.
<mgrwt>
<rscale>  2 0.20378128E+03</rscale>
<asrwt>0</asrwt>
<pdfrwt beam="1">  1       21 0.13818039E+00 0.20378128E+03</pdfrwt>
<pdfrwt beam="2">  1       21 0.96453067E-02 0.20378128E+03</pdfrwt>
<totfact> 0.31794586E+04</totfact>
</mgrwt>
</event>
<event>
 4    1  0.3976152E+000  0.2371931E+03  0.7546771E-02  0.1121677E+00
         21   -1    0    0  501  502  0.00000000000E+00  0.00000000000E+00  0.21750156948E+03  0.21750156948E+03  0.00000000000E+00 0. -1.
         21   -1    0    0  502  503 -0.00000000000E+00 -0.00000000000E+00 -0.31044560000E+03  0.31044560000E+03  0.00000000000E+00 0. -1.
          6    1    1    2  501    0 -0.42466652085E+02 -0.15661470392E+03  0.61333473017E+02  0.24499464675E+03  0.17300000000E+03 0. -1.
         -6    1    1    2    0  503  0.42466652085E+02  0.15661470392E+03 -0.15427750353E+03  0.28295252273E+03  0.17300000000E+03 0. -1.
<mgrwt>
<rscale>  2 0.23719313E+03</rscale>
<asrwt>0</asrwt>
<pdfrwt beam="1">  1       21 0.33461780E-01 0.23719313E+03</pdfrwt>
<pdfrwt beam="2">  1       21 0.47760862E-01 0.23719313E+03</pdfrwt>
<totfact> 0.35261551E+04</totfact>
</mgrwt>
</event>
<event>
 4    1  0.3976152E+000  0.1833878E+03  0.7546771E-02  0.1164564E+00
         21   -1    0    0  503  502  0.00000000000E+00  0.00000000000E+00  0.26430981508E+03  0.26430981508E+03  0.00000000000E+00 0.  1.
         21   -1    0    0  501  503 -0.00000000000E+00 -0.00000000000E+00 -0.37366213343E+03  0.37366213343E+03  0.00000000000E+00 0.  1.
          6    1    1    2  501    0 -0.56491158504E+02  0.22602030761E+02 -0.31371854207E+03  0.36338743295E+03  0.17300000000E+03 0.  1.
         -6    1    1    2    0  502  0.56491158504E+02 -0.22602030761E+02  0.20436622372E+03  0.27458451555E+03  0.17300000000E+03 0.  1.
<mgrwt>
<rscale>  2 0.18338785E+03</rscale>
<asrwt>0</asrwt>
<pdfrwt beam="1">  1       21 0.40663049E-01 0.18338785E+03</pdfrwt>
<pdfrwt beam="2">  1       21 0.57486482E-01 0.18338785E+03</pdfrwt>
<totfact> 0.16640458E+04</totfact>
</mgrwt>
</event>
<event>
 4    1  0.3976152E+000  0.1781943E+03  0.7546771E-02  0.1169562E+00
         21   -1    0    0  503  502  0.00000000000E+00  0.00000000000E+00  0.13725861802E+03  0.13725861802E+03  0.00000000000E+00 0. -1.
         21   -1    0    0  501  503 -0.00000000000E+00 -0.00000000000E+00 -0.43543747701E+03  0.43543747701E+03  0.00000000000E+00 0. -1.
          6    1    1    2  501    0  0.32123391362E+02 -0.28147504320E+02 -0.34513263896E+03  0.38841953188E+03  0.17300000000E+03 0. -1.
         -6    1    1    2    0  502 -0.32123391362E+02  0.28147504320E+02  0.46953779969E+02  0.18427656315E+03  0.17300000000E+03 0. -1.
<mgrwt>
<rscale>  2 0.17819426E+03</rscale>
<asrwt>0</asrwt>
<pdfrwt beam="1">  1       21 0.21116710E-01 0.17819426E+03</pdfrwt>
<pdfrwt beam="2">  1       21 0.66990382E-01 0.17819426E+03</pdfrwt>
<totfact> 0.42856208E+04</totfact>
</mgrwt>
</event>
<event>
 4    1  0.3976152E+000  0.1809086E+03  0.7546771E-02  0.1166927E+00
         21   -1    0    0  501  502  0.00000000000E+00  0.00000000000E+00  0.10181198639E+03  0.10181198639E+03  0.00000000000E+00 0. -1.
         21   -1    0    0  502  503 -0.00000000000E+00 -0.00000000000E+00 -0.35448752230E+03  0.35448752230E+03  0.00000000000E+00 0. -1.
          6    1    1    2  501    0 -0.11637926428E+01  0.52892123984E+02 -0.56692271614E+02  0.18958360914E+03  0.17300000000E+03 0. -1.
         -6    1    1    2    0  503  0.11637926428E+01 -0.52892123984E+02 -0.19598326429E+03  0.26671589955E+03  0.17300000000E+03 0. -1.
<mgrwt>
<rscale>  2 0.18090863E+03</rscale>
<asrwt>0</asrwt>
<pdfrwt beam="1">  1       21 0.15663383E-01 0.18090863E+03</pdfrwt>
<pdfrwt beam="2">  1       21 0.54536542E-01 0.18090863E+03</pdfrwt>
<totfact> 0.11560300E+05</totfact>
</mgrwt>
</event>
<event>
 4    1  0.3976152E+000  0.1795291E+03  0.7546771E-02  0.1168260E+00
         21   -1    0    0  503  502  0.00000000000E+00  0.00000000000E+00  0.10342181900E+04  0.10342181900E+04  0.00000000000E+00 0. -1.
         21   -1    0    0  501  503 -0.00000000000E+00 -0.00000000000E+00 -0.39192957794E+02  0.39192957794E+02  0.00000000000E+00 0. -1.
          6    1    1    2  501    0  0.38177991883E+02  0.29054215351E+02  0.25459834966E+03  0.31153013681E+03  0.17300000000E+03 0. -1.
         -6    1    1    2    0  502 -0.38177991883E+02 -0.29054215351E+02  0.74042688255E+03  0.76188101098E+03  0.17300000000E+03 0. -1.
<mgrwt>
<rscale>  2 0.17952912E+03</rscale>
<asrwt>0</asrwt>
<pdfrwt beam="1">  1       21 0.15911047E+00 0.17952912E+03</pdfrwt>
<pdfrwt beam="2">  1       21 0.60296866E-02 0.17952912E+03</pdfrwt>
<totfact> 0.50336210E+04</totfact>
</mgrwt>
</event>
<event>
 4    1  0.3976152E+000  0.2482221E+03  0.7546771E-02  0.1114434E+00
         21   -1    0    0  501  502  0.00000000000E+00  0.00000000000E+00  0.47171188546E+03  0.47171188546E+03  0.00000000000E+00 0. -1.
         21   -1    0    0  502  503 -0.00000000000E+00 -0.00000000000E+00 -0.27524340636E+03  0.27524340636E+03  0.00000000000E+00 0.  1.
          6    1    1    2  501    0 -0.17546591514E+03  0.29948408963E+02  0.36895903124E+03  0.44468523847E+03  0.17300000000E+03 0. -1.
         -6    1    1    2    0  503  0.17546591514E+03 -0.29948408963E+02 -0.17249055214E+03  0.30227005335E+03  0.17300000000E+03 0.  1.
<mgrwt>
<rscale>  2 0.24822207E+03</rscale>
<asrwt>0</asrwt>
<pdfrwt beam="1">  1       21 0.72571060E-01 0.24822207E+03</pdfrwt>
<pdfrwt beam="2">  1       21 0.42345139E-01 0.24822207E+03</pdfrwt>
<totfact> 0.88590658E+03</totfact>
</mgrwt>
</event>
<event>
 4    1  0.3976152E+000  0.1906501E+03  0.7546771E-02  0.1157876E+00
         21   -1    0    0  501  502  0.00000000000E+00  0.00000000000E+00  0.13824462505E+04  0.13824462505E+04  0.00000000000E+00 0.  1.
         21   -1    0    0  502  503 -0.00000000000E+00 -0.00000000000E+00 -0.96096123181E+02  0.96096123181E+02  0.00000000000E+00 0.  1.
          6    1    1    2  501    0 -0.60292802775E+01  0.79888133778E+02  0.12732481925E+04  0.12874425913E+04  0.17300000000E+03 0.  1.
         -6    1    1    2    0  503  0.60292802775E+01 -0.79888133778E+02  0.13101934823E+02  0.19109978241E+03  0.17300000000E+03 0.  1.
<mgrwt>
<rscale>  2 0.19065011E+03</rscale>
<asrwt>0</asrwt>
<pdfrwt beam="1">  1       21 0.21268402E+00 0.19065011E+03</pdfrwt>
<pdfrwt beam="2">  1       21 0.14784020E-01 0.19065011E+03</pdfrwt>
<totfact> 0.45055306E+03</totfact>
</mgrwt>
</event>
<event>
 4    1  0.3976152E+000  0.2944962E+03  0.7546771E-02  0.1088025E+00
         21   -1    0    0  503  502  0.00000000000E+00  0.00000000000E+00  0.18863190500E+03  0.18863190500E+03  0.00000000000E+00 0.  1.
         21   -1    0    0  501  503 -0.00000000000E+00 -0.00000000000E+00 -0.47655748515E+03  0.47655748515E+03  0.00000000000E+00 0.  1.
          6    1    1    2  501    0  0.22648948480E+03 -0.74172086721E+02 -0.20637978873E+03  0.35961173837E+03  0.17300000000E+03 0.  1.
         -6    1    1    2    0  502 -0.22648948480E+03  0.74172086721E+02 -0.81545791424E+02  0.30557765179E+03  0.17300000000E+03 0.  1.
<mgrwt>
<rscale>  2 0.29449615E+03</rscale>
<asrwt>0</asrwt>
<pdfrwt beam="1">  1       21 0.29020294E-01 0.29449615E+03</pdfrwt>
<pdfrwt beam="2">  1       21 0.73316535E-01 0.29449615E+03</pdfrwt>
<totfact> 0.18043514E+04</totfact>
</mgrwt>
</event>
<event>
 4    1  0.3976152E+000  0.2859661E+03  0.7546771E-02  0.1092474E+00
         21   -1    0    0  503  502  0.00000000000E+00  0.00000000000E+00  0.14681120667E+04  0.14681120667E+04  0.00000000000E+00 0.  1.
         21   -1    0    0  501  503 -0.00000000000E+00 -0.00000000000E+00 -0.56759249076E+02  0.56759249076E+02  0.00000000000E+00 0.  1.
          6    1    1    2  501    0  0.15102027930E+03 -0.17041266915E+03  0.60161298144E+03  0.66611919505E+03  0.17300000000E+03 0.  1.
         -6    1    1    2    0  502 -0.15102027930E+03  0.17041266915E+03  0.80973983621E+03  0.85875212076E+03  0.17300000000E+03 0.  1.
<mgrwt>
<rscale>  2 0.28596609E+03</rscale>
<asrwt>0</asrwt>
<pdfrwt beam="1">  1       21 0.22586337E+00 0.28596609E+03</pdfrwt>
<pdfrwt beam="2">  1       21 0.87321933E-02 0.28596609E+03</pdfrwt>
<totfact> 0.88905370E+03</totfact>
</mgrwt>
</event>
<event>
 4    1  0.3976152E+000  0.2075162E+03  0.7546771E-02  0.1143548E+00
         21   -1    0    0  501  502  0.00000000000E+00  0.00000000000E+00  0.12732505876E+04  0.12732505876E+04  0.00000000000E+00 0.  1.
         21   -1    0    0  502  503 -0.00000000000E+00 -0.00000000000E+00 -0.59613191320E+02  0.59613191320E+02  0.00000000000E+00 0.  1.
          6    1    1    2  501    0  0.84763819572E+02 -0.77130278602E+02  0.10451739491E+04  0.10655756984E+04  0.17300000000E+03 0.  1.
         -6    1    1    2    0  503 -0.84763819572E+02  0.77130278602E+02  0.16846344715E+03  0.26728808056E+03  0.17300000000E+03 0.  1.
<mgrwt>
<rscale>  2 0.20751623E+03</rscale>
<asrwt>0</asrwt>
<pdfrwt beam="1">  1       21 0.19588469E+00 0.20751623E+03</pdfrwt>
<pdfrwt beam="2">  1       21 0.91712611E-02 0.20751623E+03</pdfrwt>
<totfact> 0.13332004E+04</totfact>
</mgrwt>
</event>
<event>
 4    1  0.3976152E+000  0.2362201E+03  0.7546771E-02  0.1122337E+00
         21   -1    0    0  501  502  0.00000000000E+00  0.00000000000E+00  0.56545737898E+03  0.56545737898E+03  0.00000000000E+00 0. -1.
         21   -1    0    0  502  503 -0.00000000000E+00 -0.00000000000E+00 -0.17148589468E+03  0.17148589468E+03  0.00000000000E+00 0. -1.
          6    1    1    2  501    0 -0.14819912481E+03  0.62513512421E+02  0.43707351566E+03  0.49682308513E+03  0.17300000000E+03 0. -1.
         -6    1    1    2    0  503  0.14819912481E+03 -0.62513512421E+02 -0.43102031361E+02  0.24012018853E+03  0.17300000000E+03 0. -1.
<mgrwt>
<rscale>  2 0.23622007E+03</rscale>
<asrwt>0</asrwt>
<pdfrwt beam="1">  1       21 0.86993442E-01 0.23622007E+03</pdfrwt>
<pdfrwt beam="2">  1       21 0.26382446E-01 0.23622007E+03</pdfrwt>
<totfact> 0.15121267E+04</totfact>
</mgrwt>
</event>
<event>
 4    1  0.3976152E+000  0.1984067E+03  0.7546771E-02  0.1151090E+00
         21   -1    0    0  503  502  0.00000000000E+00  0.00000000000E+00  0.50769746238E+03  0.50769746238E+03  0.00000000000E+00 0. -1.
         21   -1    0    0  501  503 -0.00000000000E+00 -0.00000000000E+00 -0.88788974610E+02  0.88788974610E+02  0.00000000000E+00 0. -1.
          6    1    1    2  501    0 -0.36638898550E+02  0.89965497578E+02  0.10328207396E+03  0.22367920432E+03  0.17300000000E+03 0. -1.
         -6    1    1    2    0  502  0.36638898550E+02 -0.89965497578E+02  0.31562641380E+03  0.37280723267E+03  0.17300000000E+03 0. -1.
<mgrwt>
<rscale>  2 0.19840665E+03</rscale>
<asrwt>0</asrwt>
<pdfrwt beam="1">  1       21 0.78107300E-01 0.19840665E+03</pdfrwt>
<pdfrwt beam="2">  1       21 0.13659843E-01 0.19840665E+03</pdfrwt>
<totfact> 0.67304403E+04</totfact>
</mgrwt>
</event>
<event>
 4    1  0.3976152E+000  0.1776509E+03  0.7546771E-02  0.1170096E+00
         21   -1    0    0  501  502  0.00000000000E+00  0.00000000000E+00  0.26997856899E+03  0.26997856899E+03  0.00000000000E+00 0.  1.
         21   -1    0    0  502  503 -0.00000000000E+00 -0.00000000000E+00 -0.17059964765E+03  0.17059964765E+03  0.00000000000E+00 0. -1.
          6    1    1    2  501    0  0.20152109910E+02 -0.34996417022E+02  0.17328398589E+03  0.24816767820E+03  0.17300000000E+03 0.  1.
         -6    1    1    2    0  503 -0.20152109910E+02  0.34996417022E+02 -0.73905064546E+02  0.19241053844E+03  0.17300000000E+03 0. -1.
<mgrwt>
<rscale>  2 0.17765094E+03</rscale>
<asrwt>0</asrwt>
<pdfrwt beam="1">  1       21 0.41535165E-01 0.17765094E+03</pdfrwt>
<pdfrwt beam="2">  1       21 0.26246100E-01 0.17765094E+03</pdfrwt>
<totfact> 0.77498122E+04</totfact>
</mgrwt>
</event>
<event>
 4    1  0.3976152E+000  0.2230688E+03  0.7546771E-02  0.1131616E+00
         21   -1    0    0  501  502  0.00000000000E+00  0.00000000000E+00  0.26191478895E+03  0.26191478895E+03  0.00000000000E+00 0. -1.
         21   -1    0    0  502  503 -0.00000000000E+00 -0.00000000000E+00 -0.21944618571E+03  0.21944618571E+03  0.00000000000E+00 0.  1.
          6    1    1    2  501    0  0.12443060077E+02  0.14027071457E+03  0.10942179242E+03  0.24846092603E+03  0.17300000000E+03 0. -1.
         -6    1    1    2    0  503 -0.12443060077E+02 -0.14027071457E+03 -0.66953189181E+02  0.23290004863E+03  0.17300000000E+03 0.  1.
<mgrwt>
<rscale>  2 0.22306883E+03</rscale>
<asrwt>0</asrwt>
<pdfrwt beam="1">  1       21 0.40294583E-01 0.22306883E+03</pdfrwt>
<pdfrwt beam="2">  1       21 0.33760952E-01 0.22306883E+03</pdfrwt>
<totfact> 0.49445265E+04</totfact>
</mgrwt>
</event>
<event>
 4    1  0.3976152E+000  0.2253841E+03  0.7546771E-02  0.1129931E+00
         21   -1    0    0  503  502  0.00000000000E+00  0.00000000000E+00  0.20881124723E+04  0.20881124723E+04  0.00000000000E+00 0.  1.
         21   -1    0    0  501  503 -0.00000000000E+00 -0.00000000000E+00 -0.25211003512E+02  0.25211003512E+02  0.00000000000E+00 0. -1.
          6    1    1    2  501    0 -0.57690107455E+02  0.13244188792E+03  0.83361248828E+03  0.86354373531E+03  0.17300000000E+03 0.  1.
         -6    1    1    2    0  502  0.57690107455E+02 -0.13244188792E+03  0.12292889805E+04  0.12497797405E+04  0.17300000000E+03 0.  1.
<mgrwt>
<rscale>  2 0.22538412E+03</rscale>
<asrwt>0</asrwt>
<pdfrwt beam="1">  1       21 0.32124794E+00 0.22538412E+03</pdfrwt>
<pdfrwt beam="2">  1       21 0.38786176E-02 0.22538412E+03</pdfrwt>
<totfact> 0.10260809E+04</totfact>
</mgrwt>
</event>
<event>
 4    1  0.3976152E+000  0.2748000E+03  0.7546771E-02  0.1098563E+00
         21   -1    0    0  503  502  0.00000000000E+00  0.00000000000E+00  0.12448635694E+03  0.12448635694E+03  0.00000000000E+00 0. -1.
         21   -1    0    0  501  503 -0.00000000000E+00 -0.00000000000E+00 -0.68213298470E+03  0.68213298470E+03  0.00000000000E+00 0.  1.
          6    1    1    2  501    0  0.30188852898E+02 -0.21136389003E+03 -0.41301778787E+03  0.49608341430E+03  0.17300000000E+03 0.  1.
         -6    1    1    2    0  502 -0.30188852898E+02  0.21136389003E+03 -0.14462883989E+03  0.31053592735E+03  0.17300000000E+03 0. -1.
<mgrwt>
<rscale>  2 0.27480004E+03</rscale>
<asrwt>0</asrwt>
<pdfrwt beam="1">  1       21 0.19151747E-01 0.27480004E+03</pdfrwt>
<pdfrwt beam="2">  1       21 0.10494354E+00 0.27480004E+03</pdfrwt>
<totfact> 0.17494988E+04</totfact>
</mgrwt>
</event>
<event>
 4    1  0.3976152E+000  0.1883669E+03  0.7546771E-02  0.1159943E+00
         21   -1    0    0  503  502  0.00000000000E+00  0.00000000000E+00  0.12462426312E+03  0.12462426312E+03  0.00000000000E+00 0.  1.
         21   -1    0    0  501  503 -0.00000000000E+00 -0.00000000000E+00 -0.30458996397E+03  0.30458996397E+03  0.00000000000E+00 0.  1.
          6    1    1    2  501    0 -0.11852610135E+02  0.73570360686E+02 -0.14480639162E+03  0.23759413585E+03  0.17300000000E+03 0.  1.
         -6    1    1    2    0  502  0.11852610135E+02 -0.73570360686E+02 -0.35159309234E+02  0.19162009123E+03  0.17300000000E+03 0.  1.
<mgrwt>
<rscale>  2 0.18836688E+03</rscale>
<asrwt>0</asrwt>
<pdfrwt beam="1">  1       21 0.19172964E-01 0.18836688E+03</pdfrwt>
<pdfrwt beam="2">  1       21 0.46859994E-01 0.18836688E+03</pdfrwt>
<totfact> 0.10904323E+05</totfact>
</mgrwt>
</event>
<event>
 4    1  0.3976152E+000  0.1746190E+03  0.7546771E-02  0.1173115E+00
         21   -1    0    0  501  502  0.00000000000E+00  0.00000000000E+00  0.56519744399E+02  0.56519744399E+02  0.00000000000E+00 0.  1.
         21   -1    0    0  502  503 -0.00000000000E+00 -0.00000000000E+00 -0.55644408480E+03  0.55644408480E+03  0.00000000000E+00 0.  1.
          6    1    1    2  501    0  0.13454440136E+02 -0.19539349185E+02 -0.19646414090E+03  0.26284970380E+03  0.17300000000E+03 0.  1.
         -6    1    1    2    0  503 -0.13454440136E+02  0.19539349185E+02 -0.30346019950E+03  0.35011412540E+03  0.17300000000E+03 0.  1.
<mgrwt>
<rscale>  2 0.17461904E+03</rscale>
<asrwt>0</asrwt>
<pdfrwt beam="1">  1       21 0.86953453E-02 0.17461904E+03</pdfrwt>
<pdfrwt beam="2">  1       21 0.85606782E-01 0.17461904E+03</pdfrwt>
<totfact> 0.12315080E+05</totfact>
</mgrwt>
</event>
<event>
 4    1  0.3976152E+000  0.2917012E+03  0.7546771E-02  0.1089464E+00
         21   -1    0    0  501  502  0.00000000000E+00  0.00000000000E+00  0.15740069547E+04  0.15740069547E+04  0.00000000000E+00 0. -1.
         21   -1    0    0  502  503 -0.00000000000E+00 -0.00000000000E+00 -0.95510197263E+02  0.95510197263E+02  0.00000000000E+00 0.  1.
          6    1    1    2  501    0  0.14464285600E+03 -0.18503798846E+03  0.12891732012E+04  0.13217628969E+04  0.17300000000E+03 0. -1.
         -6    1    1    2    0  503 -0.14464285600E+03  0.18503798846E+03  0.18932355626E+03  0.34775425508E+03  0.17300000000E+03 0.  1.
<mgrwt>
<rscale>  2 0.29170124E+03</rscale>
<asrwt>0</asrwt>
<pdfrwt beam="1">  1       21 0.24215490E+00 0.29170124E+03</pdfrwt>
<pdfrwt beam="2">  1       21 0.14693878E-01 0.29170124E+03</pdfrwt>
<totfact> 0.27596580E+03</totfact>
</mgrwt>
</event>
<event>
 4    1  0.3976152E+000  0.2067412E+03  0.7546771E-02  0.1144173E+00
         21   -1    0    0  503  502  0.00000000000E+00  0.00000000000E+00  0.89285082414E+03  0.89285082414E+03  0.00000000000E+00 0. -1.
         21   -1    0    0  501  503 -0.00000000000E+00 -0.00000000000E+00 -0.64007559445E+02  0.64007559445E+02  0.00000000000E+00 0.  1.
          6    1    1    2  501    0 -0.10019015196E+03 -0.52677058874E+02  0.17420485934E+03  0.27035027668E+03  0.17300000000E+03 0.  1.
         -6    1    1    2    0  502  0.10019015196E+03  0.52677058874E+02  0.65463840536E+03  0.68650810691E+03  0.17300000000E+03 0. -1.
<mgrwt>
<rscale>  2 0.20674124E+03</rscale>
<asrwt>0</asrwt>
<pdfrwt beam="1">  1       21 0.13736166E+00 0.20674124E+03</pdfrwt>
<pdfrwt beam="2">  1       21 0.98473175E-02 0.20674124E+03</pdfrwt>
<totfact> 0.31070619E+04</totfact>
</mgrwt>
</event>
<event>
 4    1  0.3976152E+000  0.1787912E+03  0.7546771E-02  0.1168978E+00
         21   -1    0    0  501  502  0.00000000000E+00  0.00000000000E+00  0.23832033522E+03  0.23832033522E+03  0.00000000000E+00 0.  1.
         21   -1    0    0  502  503 -0.00000000000E+00 -0.00000000000E+00 -0.13423049391E+03  0.13423049391E+03  0.00000000000E+00 0.  1.
          6    1    1    2  501    0  0.43934033002E+02 -0.10349333790E+02  0.57098854394E+02  0.18768747198E+03  0.17300000000E+03 0.  1.
         -6    1    1    2    0  503 -0.43934033002E+02  0.10349333790E+02  0.46990986916E+02  0.18486335715E+03  0.17300000000E+03 0.  1.
<mgrwt>
<rscale>  2 0.17879124E+03</rscale>
<asrwt>0</asrwt>
<pdfrwt beam="1">  1       21 0.36664667E-01 0.17879124E+03</pdfrwt>
<pdfrwt beam="2">  1       21 0.20650845E-01 0.17879124E+03</pdfrwt>
<totfact> 0.15665767E+05</totfact>
</mgrwt>
</event>
<event>
 4    1  0.3976152E+000  0.2216617E+03  0.7546771E-02  0.1132650E+00
         21   -1    0    0  501  502  0.00000000000E+00  0.00000000000E+00  0.55427314079E+03  0.55427314079E+03  0.00000000000E+00 0. -1.
         21   -1    0    0  502  503 -0.00000000000E+00 -0.00000000000E+00 -0.96173615337E+02  0.96173615337E+02  0.00000000000E+00 0. -1.
          6    1    1    2  501    0  0.14094383099E+02  0.13786323355E+03  0.32003932004E+03  0.38930590693E+03  0.17300000000E+03 0. -1.
         -6    1    1    2    0  503 -0.14094383099E+02 -0.13786323355E+03  0.13806020541E+03  0.26114084919E+03  0.17300000000E+03 0. -1.
<mgrwt>
<rscale>  2 0.22166173E+03</rscale>
<asrwt>0</asrwt>
<pdfrwt beam="1">  1       21 0.85272788E-01 0.22166173E+03</pdfrwt>
<pdfrwt beam="2">  1       21 0.14795941E-01 0.22166173E+03</pdfrwt>
<totfact> 0.47160217E+04</totfact>
</mgrwt>
</event>
<event>
 4    1  0.3976152E+000  0.1861550E+03  0.7546771E-02  0.1161976E+00
         21   -1    0    0  501  502  0.00000000000E+00  0.00000000000E+00  0.20493602476E+03  0.20493602476E+03  0.00000000000E+00 0.  1.
         21   -1    0    0  502  503 -0.00000000000E+00 -0.00000000000E+00 -0.25878011825E+03  0.25878011825E+03  0.00000000000E+00 0.  1.
          6    1    1    2  501    0 -0.42860756307E+02 -0.53736590054E+02  0.10957298965E+03  0.21600904056E+03  0.17300000000E+03 0.  1.
         -6    1    1    2    0  503  0.42860756307E+02  0.53736590054E+02 -0.16341708315E+03  0.24770710245E+03  0.17300000000E+03 0.  1.
<mgrwt>
<rscale>  2 0.18615495E+03</rscale>
<asrwt>0</asrwt>
<pdfrwt beam="1">  1       21 0.31528619E-01 0.18615495E+03</pdfrwt>
<pdfrwt beam="2">  1       21 0.39812326E-01 0.18615495E+03</pdfrwt>
<totfact> 0.58972159E+04</totfact>
</mgrwt>
</event>
<event>
 4    1  0.3976152E+000  0.2098914E+03  0.7546771E-02  0.1141652E+00
         21   -1    0    0  501  502  0.00000000000E+00  0.00000000000E+00  0.17109651847E+03  0.17109651847E+03  0.00000000000E+00 0. -1.
         21   -1    0    0  502  503 -0.00000000000E+00 -0.00000000000E+00 -0.26870302913E+03  0.26870302913E+03  0.00000000000E+00 0.  1.
          6    1    1    2  501    0 -0.11634064032E+03 -0.24295069290E+02 -0.38675941471E+01  0.20992701890E+03  0.17300000000E+03 0.  1.
         -6    1    1    2    0  503  0.11634064032E+03  0.24295069290E+02 -0.93738916518E+02  0.22987252870E+03  0.17300000000E+03 0.  1.
<mgrwt>
<rscale>  2 0.20989139E+03</rscale>
<asrwt>0</asrwt>
<pdfrwt beam="1">  1       21 0.26322541E-01 0.20989139E+03</pdfrwt>
<pdfrwt beam="2">  1       21 0.41338928E-01 0.20989139E+03</pdfrwt>
<totfact> 0.76758415E+04</totfact>
</mgrwt>
</event>
<event>
 4    1  0.3976152E+000  0.2006618E+03  0.7546771E-02  0.1149182E+00
         21   -1    0    0  501  502  0.00000000000E+00  0.00000000000E+00  0.55266844524E+03  0.55266844524E+03  0.00000000000E+00 0.  1.
         21   -1    0    0  502  503 -0.00000000000E+00 -0.00000000000E+00 -0.14618103227E+03  0.14618103227E+03  0.00000000000E+00 0. -1.
          6    1    1    2  501    0 -0.75155382209E+02  0.68467601354E+02  0.45072058785E+03  0.49337023849E+03  0.17300000000E+03 0.  1.
         -6    1    1    2    0  503  0.75155382209E+02 -0.68467601354E+02 -0.44233174886E+02  0.20547923903E+03  0.17300000000E+03 0. -1.
<mgrwt>
<rscale>  2 0.20066176E+03</rscale>
<asrwt>0</asrwt>
<pdfrwt beam="1">  1       21 0.85025914E-01 0.20066176E+03</pdfrwt>
<pdfrwt beam="2">  1       21 0.22489390E-01 0.20066176E+03</pdfrwt>
<totfact> 0.22067513E+04</totfact>
</mgrwt>
</event>
<event>
 4    1  0.3976152E+000  0.1947051E+03  0.7546771E-02  0.1154285E+00
         21   -1    0    0  501  502  0.00000000000E+00  0.00000000000E+00  0.11349014303E+03  0.11349014303E+03  0.00000000000E+00 0.  1.
         21   -1    0    0  502  503 -0.00000000000E+00 -0.00000000000E+00 -0.38092595613E+03  0.38092595613E+03  0.00000000000E+00 0.  1.
          6    1    1    2  501    0  0.50368855696E+02 -0.73783961184E+02 -0.46987786033E+02  0.20029464943E+03  0.17300000000E+03 0.  1.
         -6    1    1    2    0  503 -0.50368855696E+02  0.73783961184E+02 -0.22044802707E+03  0.29412144973E+03  0.17300000000E+03 0.  1.
<mgrwt>
<rscale>  2 0.19470515E+03</rscale>
<asrwt>0</asrwt>
<pdfrwt beam="1">  1       21 0.17460022E-01 0.19470515E+03</pdfrwt>
<pdfrwt beam="2">  1       21 0.58603994E-01 0.19470515E+03</pdfrwt>
<totfact> 0.80872896E+04</totfact>
</mgrwt>
</event>
<event>
 4    1  0.3976152E+000  0.3232210E+03  0.7546771E-02  0.1074176E+00
         21   -1    0    0  501  502  0.00000000000E+00  0.00000000000E+00  0.18803766122E+03  0.18803766122E+03  0.00000000000E+00 0.  1.
         21   -1    0    0  502  503 -0.00000000000E+00 -0.00000000000E+00 -0.60715143998E+03  0.60715143998E+03  0.00000000000E+00 0. -1.
          6    1    1    2  501    0  0.68798200950E+02 -0.26421505121E+03 -0.93690963414E+02  0.33652605005E+03  0.17300000000E+03 0.  1.
         -6    1    1    2    0  503 -0.68798200950E+02  0.26421505121E+03 -0.32542281535E+03  0.45866305115E+03  0.17300000000E+03 0.  1.
<mgrwt>
<rscale>  2 0.32322095E+03</rscale>
<asrwt>0</asrwt>
<pdfrwt beam="1">  1       21 0.28928871E-01 0.32322095E+03</pdfrwt>
<pdfrwt beam="2">  1       21 0.93407913E-01 0.32322095E+03</pdfrwt>
<totfact> 0.10262984E+04</totfact>
</mgrwt>
</event>
<event>
 4    1  0.3976152E+000  0.1845535E+03  0.7546771E-02  0.1163467E+00
         21   -1    0    0  503  502  0.00000000000E+00  0.00000000000E+00  0.41516191946E+03  0.41516191946E+03  0.00000000000E+00 0.  1.
         21   -1    0    0  501  503 -0.00000000000E+00 -0.00000000000E+00 -0.17971910346E+03  0.17971910346E+03  0.00000000000E+00 0.  1.
          6    1    1    2  501    0 -0.56271776689E+02  0.31056262735E+02 -0.10156069370E+03  0.21065274461E+03  0.17300000000E+03 0.  1.
         -6    1    1    2    0  502  0.56271776689E+02 -0.31056262735E+02  0.33700350970E+03  0.38422827831E+03  0.17300000000E+03 0.  1.
<mgrwt>
<rscale>  2 0.18455353E+03</rscale>
<asrwt>0</asrwt>
<pdfrwt beam="1">  1       21 0.63871064E-01 0.18455353E+03</pdfrwt>
<pdfrwt beam="2">  1       21 0.27649093E-01 0.18455353E+03</pdfrwt>
<totfact> 0.28390654E+04</totfact>
</mgrwt>
</event>
<event>
 4    1  0.3976152E+000  0.1794616E+03  0.7546771E-02  0.1168325E+00
         21   -1    0    0  501  502  0.00000000000E+00  0.00000000000E+00  0.13753862602E+04  0.13753862602E+04  0.00000000000E+00 0.  1.
         21   -1    0    0  502  503 -0.00000000000E+00 -0.00000000000E+00 -0.35303272547E+02  0.35303272547E+02  0.00000000000E+00 0.  1.
          6    1    1    2  501    0 -0.25380558147E+02  0.40414123770E+02  0.10793298330E+04  0.10941477791E+04  0.17300000000E+03 0.  1.
         -6    1    1    2    0  503  0.25380558147E+02 -0.40414123770E+02  0.26075315465E+03  0.31654175363E+03  0.17300000000E+03 0.  1.
<mgrwt>
<rscale>  2 0.17946162E+03</rscale>
<asrwt>0</asrwt>
<pdfrwt beam="1">  1       21 0.21159784E+00 0.17946162E+03</pdfrwt>
<pdfrwt beam="2">  1       21 0.54312738E-02 0.17946162E+03</pdfrwt>
<totfact> 0.26771590E+04</totfact>
</mgrwt>
</event>
<event>
 4    1  0.3976152E+000  0.2002248E+03  0.7546771E-02  0.1149550E+00
         21   -1    0    0  503  502  0.00000000000E+00  0.00000000000E+00  0.49893614217E+02  0.49893614217E+02  0.00000000000E+00 0.  1.
         21   -1    0    0  501  503 -0.00000000000E+00 -0.00000000000E+00 -0.80438246555E+03  0.80438246555E+03  0.00000000000E+00 0.  1.
          6    1    1    2  501    0  0.32668712340E+02 -0.95360926390E+02 -0.39132254440E+03  0.43957170610E+03  0.17300000000E+03 0.  1.
         -6    1    1    2    0  502 -0.32668712340E+02  0.95360926390E+02 -0.36316630693E+03  0.41470437367E+03  0.17300000000E+03 0.  1.
<mgrwt>
<rscale>  2 0.20022475E+03</rscale>
<asrwt>0</asrwt>
<pdfrwt beam="1">  1       21 0.76759412E-02 0.20022475E+03</pdfrwt>
<pdfrwt beam="2">  1       21 0.12375114E+00 0.20022475E+03</pdfrwt>
<totfact> 0.62831521E+04</totfact>
</mgrwt>
</event>
<event>
 4    1  0.3976152E+000  0.1778824E+03  0.7546771E-02  0.1169868E+00
         21   -1    0    0  503  502  0.00000000000E+00  0.00000000000E+00  0.76584470018E+02  0.76584470018E+02  0.00000000000E+00 0. -1.
         21   -1    0    0  501  503 -0.00000000000E+00 -0.00000000000E+00 -0.41506447700E+03  0.41506447700E+03  0.00000000000E+00 0. -1.
          6    1    1    2  501    0 -0.30290060308E+01  0.41279367662E+02 -0.18586178187E+03  0.25726788185E+03  0.17300000000E+03 0. -1.
         -6    1    1    2    0  502  0.30290060308E+01 -0.41279367662E+02 -0.15261822511E+03  0.23438106516E+03  0.17300000000E+03 0. -1.
<mgrwt>
<rscale>  2 0.17788244E+03</rscale>
<asrwt>0</asrwt>
<pdfrwt beam="1">  1       21 0.11782226E-01 0.17788244E+03</pdfrwt>
<pdfrwt beam="2">  1       21 0.63856073E-01 0.17788244E+03</pdfrwt>
<totfact> 0.13805285E+05</totfact>
</mgrwt>
</event>
<event>
 4    1  0.3976152E+000  0.3374519E+03  0.7546771E-02  0.1067886E+00
         21   -1    0    0  501  502  0.00000000000E+00  0.00000000000E+00  0.45970904385E+03  0.45970904385E+03  0.00000000000E+00 0.  1.
         21   -1    0    0  502  503 -0.00000000000E+00 -0.00000000000E+00 -0.27278353925E+03  0.27278353925E+03  0.00000000000E+00 0.  1.
          6    1    1    2  501    0 -0.16871983585E+03 -0.23553856470E+03  0.20450435091E+03  0.39458310660E+03  0.17300000000E+03 0.  1.
         -6    1    1    2    0  503  0.16871983585E+03  0.23553856470E+03 -0.17578846309E+02  0.33790947650E+03  0.17300000000E+03 0.  1.
<mgrwt>
<rscale>  2 0.33745192E+03</rscale>
<asrwt>0</asrwt>
<pdfrwt beam="1">  1       21 0.70724468E-01 0.33745192E+03</pdfrwt>
<pdfrwt beam="2">  1       21 0.41966698E-01 0.33745192E+03</pdfrwt>
<totfact> 0.91605782E+03</totfact>
</mgrwt>
</event>
<event>
 4    1  0.3976152E+000  0.2120762E+03  0.7546771E-02  0.1139932E+00
         21   -1    0    0  501  502  0.00000000000E+00  0.00000000000E+00  0.97238265246E+02  0.97238265246E+02  0.00000000000E+00 0.  1.
         21   -1    0    0  502  503 -0.00000000000E+00 -0.00000000000E+00 -0.55928388271E+03  0.55928388271E+03  0.00000000000E+00 0.  1.
          6    1    1    2  501    0  0.10212449171E+03  0.67955083900E+02 -0.94494880707E+02  0.23217576901E+03  0.17300000000E+03 0.  1.
         -6    1    1    2    0  503 -0.10212449171E+03 -0.67955083900E+02 -0.36755073676E+03  0.42434637895E+03  0.17300000000E+03 0.  1.
<mgrwt>
<rscale>  2 0.21207618E+03</rscale>
<asrwt>0</asrwt>
<pdfrwt beam="1">  1       21 0.14959733E-01 0.21207618E+03</pdfrwt>
<pdfrwt beam="2">  1       21 0.86043673E-01 0.21207618E+03</pdfrwt>
<totfact> 0.45483602E+04</totfact>
</mgrwt>
</event>
<event>
 4    1  0.3976152E+000  0.2278576E+03  0.7546771E-02  0.1128157E+00
         21   -1    0    0  501  502  0.00000000000E+00  0.00000000000E+00  0.36658909583E+03  0.36658909583E+03  0.00000000000E+00 0. -1.
         21   -1    0    0  502  503 -0.00000000000E+00 -0.00000000000E+00 -0.31869640898E+03  0.31869640898E+03  0.00000000000E+00 0.  1.
          6    1    1    2  501    0  0.12815059039E+03  0.74615875769E+02  0.27934823071E+03  0.36049207583E+03  0.17300000000E+03 0. -1.
         -6    1    1    2    0  503 -0.12815059039E+03 -0.74615875769E+02 -0.23145554386E+03  0.32479342899E+03  0.17300000000E+03 0.  1.
<mgrwt>
<rscale>  2 0.22785764E+03</rscale>
<asrwt>0</asrwt>
<pdfrwt beam="1">  1       21 0.56398322E-01 0.22785764E+03</pdfrwt>
<pdfrwt beam="2">  1       21 0.49030217E-01 0.22785764E+03</pdfrwt>
<totfact> 0.11477455E+04</totfact>
</mgrwt>
</event>
<event>
 4    1  0.3976152E+000  0.2290874E+03  0.7546771E-02  0.1127284E+00
         21   -1    0    0  503  502  0.00000000000E+00  0.00000000000E+00  0.43724263491E+02  0.43724263491E+02  0.00000000000E+00 0.  1.
         21   -1    0    0  501  503 -0.00000000000E+00 -0.00000000000E+00 -0.12755578468E+04  0.12755578468E+04  0.00000000000E+00 0. -1.
          6    1    1    2  501    0 -0.14874026405E+03  0.20697568075E+02 -0.77617165380E+03  0.80927343440E+03  0.17300000000E+03 0.  1.
         -6    1    1    2    0  502  0.14874026405E+03 -0.20697568075E+02 -0.45566192953E+03  0.51000867590E+03  0.17300000000E+03 0. -1.
<mgrwt>
<rscale>  2 0.22908744E+03</rscale>
<asrwt>0</asrwt>
<pdfrwt beam="1">  1       21 0.67268106E-02 0.22908744E+03</pdfrwt>
<pdfrwt beam="2">  1       21 0.19623964E+00 0.22908744E+03</pdfrwt>
<totfact> 0.22423416E+04</totfact>
</mgrwt>
</event>
<event>
 4    1  0.3976152E+000  0.1749382E+03  0.7546771E-02  0.1172794E+00
         21   -1    0    0  503  502  0.00000000000E+00  0.00000000000E+00  0.15639632887E+04  0.15639632887E+04  0.00000000000E+00 0. -1.
         21   -1    0    0  501  503 -0.00000000000E+00 -0.00000000000E+00 -0.19827446016E+02  0.19827446016E+02  0.00000000000E+00 0. -1.
          6    1    1    2  501    0 -0.19338447773E+02 -0.17331988973E+02  0.68145353855E+03  0.70354978403E+03  0.17300000000E+03 0. -1.
         -6    1    1    2    0  502  0.19338447773E+02  0.17331988973E+02  0.86268230418E+03  0.88024095074E+03  0.17300000000E+03 0. -1.
<mgrwt>
<rscale>  2 0.17493820E+03</rscale>
<asrwt>0</asrwt>
<pdfrwt beam="1">  1       21 0.24060964E+00 0.17493820E+03</pdfrwt>
<pdfrwt beam="2">  1       21 0.30503775E-02 0.17493820E+03</pdfrwt>
<totfact> 0.47149567E+04</totfact>
</mgrwt>
</event>
<event>
 4    1  0.3976152E+000  0.1796118E+03  0.7546771E-02  0.1168179E+00
         21   -1    0    0  503  502  0.00000000000E+00  0.00000000000E+00  0.52532393706E+02  0.52532393706E+02  0.00000000000E+00 0.  1.
         21   -1    0    0  501  503 -0.00000000000E+00 -0.00000000000E+00 -0.13711661478E+04  0.13711661478E+04  0.00000000000E+00 0.  1.
          6    1    1    2  501    0 -0.43821554176E+02 -0.20274914103E+02 -0.11882594327E+04  0.12017574132E+04  0.17300000000E+03 0.  1.
         -6    1    1    2    0  502  0.43821554176E+02  0.20274914103E+02 -0.13037432135E+03  0.22194112827E+03  0.17300000000E+03 0.  1.
<mgrwt>
<rscale>  2 0.17961181E+03</rscale>
<asrwt>0</asrwt>
<pdfrwt beam="1">  1       21 0.80819065E-02 0.17961181E+03</pdfrwt>
<pdfrwt beam="2">  1       21 0.21094864E+00 0.17961181E+03</pdfrwt>
<totfact> 0.13644155E+04</totfact>
</mgrwt>
</event>
<event>
 4    1  0.3976152E+000  0.1799537E+03  0.7546771E-02  0.1167848E+00
         21   -1    0    0  501  502  0.00000000000E+00  0.00000000000E+00  0.46187740609E+03  0.46187740609E+03  0.00000000000E+00 0.  1.
         21   -1    0    0  502  503 -0.00000000000E+00 -0.00000000000E+00 -0.75500471056E+02  0.75500471056E+02  0.00000000000E+00 0.  1.
          6    1    1    2  501    0 -0.60708756519E+01 -0.49167934404E+02  0.26496639735E+03  0.32029756951E+03  0.17300000000E+03 0. -1.
         -6    1    1    2    0  503  0.60708756519E+01  0.49167934404E+02  0.12141053768E+03  0.21708030764E+03  0.17300000000E+03 0. -1.
<mgrwt>
<rscale>  2 0.17995372E+03</rscale>
<asrwt>0</asrwt>
<pdfrwt beam="1">  1       21 0.71058061E-01 0.17995372E+03</pdfrwt>
<pdfrwt beam="2">  1       21 0.11615457E-01 0.17995372E+03</pdfrwt>
<totfact> 0.11202458E+05</totfact>
</mgrwt>
</event>
<event>
 4    1  0.3976152E+000  0.2037148E+03  0.7546771E-02  0.1146642E+00
         21   -1    0    0  501  502  0.00000000000E+00  0.00000000000E+00  0.37033895781E+03  0.37033895781E+03  0.00000000000E+00 0.  1.
         21   -1    0    0  502  503 -0.00000000000E+00 -0.00000000000E+00 -0.15814815782E+03  0.15814815782E+03  0.00000000000E+00 0.  1.
          6    1    1    2  501    0 -0.51847582783E+02 -0.94247336381E+02  0.24874572201E+03  0.32151853208E+03  0.17300000000E+03 0.  1.
         -6    1    1    2    0  503  0.51847582783E+02  0.94247336381E+02 -0.36554922015E+02  0.20696858356E+03  0.17300000000E+03 0.  1.
<mgrwt>
<rscale>  2 0.20371483E+03</rscale>
<asrwt>0</asrwt>
<pdfrwt beam="1">  1       21 0.56975224E-01 0.20371483E+03</pdfrwt>
<pdfrwt beam="2">  1       21 0.24330486E-01 0.20371483E+03</pdfrwt>
<totfact> 0.45911686E+04</totfact>
</mgrwt>
</event>
<event>
 4    1  0.3976152E+000  0.1917474E+03  0.7546771E-02  0.1156895E+00
         21   -1    0    0  503  502  0.00000000000E+00  0.00000000000E+00  0.23742393848E+03  0.23742393848E+03  0.00000000000E+00 0.  1.
         21   -1    0    0  501  503 -0.00000000000E+00 -0.00000000000E+00 -0.25436017021E+03  0.25436017021E+03  0.00000000000E+00 0.  1.
          6    1    1    2  501    0  0.82600106274E+02 -0.39113739117E+01 -0.16226073099E+03  0.25118841777E+03  0.17300000000E+03 0.  1.
         -6    1    1    2    0  502 -0.82600106274E+02  0.39113739117E+01  0.14532449926E+03  0.24059569092E+03  0.17300000000E+03 0.  1.
<mgrwt>
<rscale>  2 0.19174743E+03</rscale>
<asrwt>0</asrwt>
<pdfrwt beam="1">  1       21 0.36526760E-01 0.19174743E+03</pdfrwt>
<pdfrwt beam="2">  1       21 0.39132334E-01 0.19174743E+03</pdfrwt>
<totfact> 0.45531339E+04</totfact>
</mgrwt>
</event>
<event>
 4    1  0.3976152E+000  0.2170029E+03  0.7546771E-02  0.1136137E+00
         21   -1    0    0  501  502  0.00000000000E+00  0.00000000000E+00  0.37848014128E+03  0.37848014128E+03  0.00000000000E+00 0. -1.
         21   -1    0    0  502  503 -0.00000000000E+00 -0.00000000000E+00 -0.13451998189E+03  0.13451998189E+03  0.00000000000E+00 0. -1.
          6    1    1    2  501    0 -0.10678724741E+03 -0.75879921761E+02  0.19226576654E+03  0.28992482425E+03  0.17300000000E+03 0. -1.
         -6    1    1    2    0  503  0.10678724741E+03  0.75879921761E+02  0.51694392849E+02  0.22307529892E+03  0.17300000000E+03 0. -1.
<mgrwt>
<rscale>  2 0.21700295E+03</rscale>
<asrwt>0</asrwt>
<pdfrwt beam="1">  1       21 0.58227714E-01 0.21700295E+03</pdfrwt>
<pdfrwt beam="2">  1       21 0.20695382E-01 0.21700295E+03</pdfrwt>
<totfact> 0.59163401E+04</totfact>
</mgrwt>
</event>
<event>
 4    1  0.3976152E+000  0.1937919E+03  0.7546771E-02  0.1155085E+00
         21   -1    0    0  501  502  0.00000000000E+00  0.00000000000E+00  0.90629424400E+03  0.90629424400E+03  0.00000000000E+00 0. -1.
         21   -1    0    0  502  503 -0.00000000000E+00 -0.00000000000E+00 -0.10090965166E+03  0.10090965166E+03  0.00000000000E+00 0. -1.
          6    1    1    2  501    0  0.61772014317E+02 -0.61729547555E+02  0.78930386670E+03  0.81274590911E+03  0.17300000000E+03 0. -1.
         -6    1    1    2    0  503 -0.61772014317E+02  0.61729547555E+02  0.16080725648E+02  0.19445798655E+03  0.17300000000E+03 0. -1.
<mgrwt>
<rscale>  2 0.19379195E+03</rscale>
<asrwt>0</asrwt>
<pdfrwt beam="1">  1       21 0.13942988E+00 0.19379195E+03</pdfrwt>
<pdfrwt beam="2">  1       21 0.15524562E-01 0.19379195E+03</pdfrwt>
<totfact> 0.13313809E+04</totfact>
</mgrwt>
</event>
<event>
 4    1  0.3976152E+000  0.2008041E+03  0.7546771E-02  0.1149062E+00
         21   -1    0    0  501  502  0.00000000000E+00  0.00000000000E+00  0.33727620684E+03  0.33727620684E+03  0.00000000000E+00 0.  1.
         21   -1    0    0  502  503 -0.00000000000E+00 -0.00000000000E+00 -0.38579487069E+03  0.38579487069E+03  0.00000000000E+00 0. -1.
          6    1    1    2  501    0  0.94352298984E+02  0.38612359294E+02  0.27607931394E+03  0.34138256868E+03  0.17300000000E+03 0.  1.
         -6    1    1    2    0  503 -0.94352298984E+02 -0.38612359294E+02 -0.32459797778E+03  0.38168850886E+03  0.17300000000E+03 0. -1.
<mgrwt>
<rscale>  2 0.20080406E+03</rscale>
<asrwt>0</asrwt>
<pdfrwt beam="1">  1       21 0.51888647E-01 0.20080406E+03</pdfrwt>
<pdfrwt beam="2">  1       21 0.59353057E-01 0.20080406E+03</pdfrwt>
<totfact> 0.92988784E+03</totfact>
</mgrwt>
</event>
<event>
 4    1  0.3976152E+000  0.1783937E+03  0.7546771E-02  0.1169367E+00
         21   -1    0    0  503  502  0.00000000000E+00  0.00000000000E+00  0.54291902861E+03  0.54291902861E+03  0.00000000000E+00 0. -1.
         21   -1    0    0  501  503 -0.00000000000E+00 -0.00000000000E+00 -0.59209951174E+02  0.59209951174E+02  0.00000000000E+00 0. -1.
          6    1    1    2  501    0  0.16921057074E+02  0.40112189953E+02  0.21172762711E+03  0.27686259776E+03  0.17300000000E+03 0.  1.
         -6    1    1    2    0  502 -0.16921057074E+02 -0.40112189953E+02  0.27198145032E+03  0.32526638203E+03  0.17300000000E+03 0.  1.
<mgrwt>
<rscale>  2 0.17839369E+03</rscale>
<asrwt>0</asrwt>
<pdfrwt beam="1">  1       21 0.83526001E-01 0.17839369E+03</pdfrwt>
<pdfrwt beam="2">  1       21 0.91092236E-02 0.17839369E+03</pdfrwt>
<totfact> 0.11990596E+05</totfact>
</mgrwt>
</event>
<event>
 4    1  0.3976152E+000  0.1836258E+03  0.7546771E-02  0.1164339E+00
         21   -1    0    0  501  502  0.00000000000E+00  0.00000000000E+00  0.77349695488E+02  0.77349695488E+02  0.00000000000E+00 0.  1.
         21   -1    0    0  502  503 -0.00000000000E+00 -0.00000000000E+00 -0.76528395141E+03  0.76528395141E+03  0.00000000000E+00 0.  1.
          6    1    1    2  501    0  0.61548947061E+02 -0.10726909314E+01 -0.67569507126E+02  0.19566313358E+03  0.17300000000E+03 0.  1.
         -6    1    1    2    0  503 -0.61548947061E+02  0.10726909314E+01 -0.62036474880E+03  0.64697051332E+03  0.17300000000E+03 0.  1.
<mgrwt>
<rscale>  2 0.18362577E+03</rscale>
<asrwt>0</asrwt>
<pdfrwt beam="1">  1       21 0.11899953E-01 0.18362577E+03</pdfrwt>
<pdfrwt beam="2">  1       21 0.11773599E+00 0.18362577E+03</pdfrwt>
<totfact> 0.33141291E+04</totfact>
</mgrwt>
</event>
<event>
 4    1  0.3976152E+000  0.2904482E+03  0.7546771E-02  0.1090115E+00
         21   -1    0    0  501  502  0.00000000000E+00  0.00000000000E+00  0.10652942516E+03  0.10652942516E+03  0.00000000000E+00 0. -1.
         21   -1    0    0  502  503 -0.00000000000E+00 -0.00000000000E+00 -0.89404784521E+03  0.89404784521E+03  0.00000000000E+00 0.  1.
          6    1    1    2  501    0 -0.18121642753E+03  0.14694129377E+03 -0.22465083133E+03  0.36718950617E+03  0.17300000000E+03 0.  1.
         -6    1    1    2    0  503  0.18121642753E+03 -0.14694129377E+03 -0.56286758872E+03  0.63338776421E+03  0.17300000000E+03 0. -1.
<mgrwt>
<rscale>  2 0.29044817E+03</rscale>
<asrwt>0</asrwt>
<pdfrwt beam="1">  1       21 0.16389143E-01 0.29044817E+03</pdfrwt>
<pdfrwt beam="2">  1       21 0.13754581E+00 0.29044817E+03</pdfrwt>
<totfact> 0.11784205E+04</totfact>
</mgrwt>
</event>
<event>
 4    1  0.3976152E+000  0.1964343E+03  0.7546771E-02  0.1152783E+00
         21   -1    0    0  503  502  0.00000000000E+00  0.00000000000E+00  0.34496990111E+03  0.34496990111E+03  0.00000000000E+00 0.  1.
         21   -1    0    0  501  503 -0.00000000000E+00 -0.00000000000E+00 -0.18677895512E+03  0.18677895512E+03  0.00000000000E+00 0.  1.
          6    1    1    2  501    0  0.47563029760E+02  0.79969992826E+02 -0.89297648036E+02  0.21577884859E+03  0.17300000000E+03 0.  1.
         -6    1    1    2    0  502 -0.47563029760E+02 -0.79969992826E+02  0.24748859403E+03  0.31597000764E+03  0.17300000000E+03 0.  1.
<mgrwt>
<rscale>  2 0.19643432E+03</rscale>
<asrwt>0</asrwt>
<pdfrwt beam="1">  1       21 0.53072293E-01 0.19643432E+03</pdfrwt>
<pdfrwt beam="2">  1       21 0.28735224E-01 0.19643432E+03</pdfrwt>
<totfact> 0.38891927E+04</totfact>
</mgrwt>
</event>
<event>
 4    1  0.3976152E+000  0.2083637E+03  0.7546771E-02  0.1142868E+00
         21   -1    0    0  501  502  0.00000000000E+00  0.00000000000E+00  0.22753390180E+03  0.22753390180E+03  0.00000000000E+00 0. -1.
         21   -1    0    0  502  503 -0.00000000000E+00 -0.00000000000E+00 -0.36927926881E+03  0.36927926881E+03  0.00000000000E+00 0.  1.
          6    1    1    2  501    0 -0.65687900550E+02  0.95768159850E+02  0.13657771924E+03  0.24913633639E+03  0.17300000000E+03 0. -1.
         -6    1    1    2    0  503  0.65687900550E+02 -0.95768159850E+02 -0.27832308624E+03  0.34767683422E+03  0.17300000000E+03 0.  1.
<mgrwt>
<rscale>  2 0.20836372E+03</rscale>
<asrwt>0</asrwt>
<pdfrwt beam="1">  1       21 0.35005216E-01 0.20836372E+03</pdfrwt>
<pdfrwt beam="2">  1       21 0.56812195E-01 0.20836372E+03</pdfrwt>
<totfact> 0.22699859E+04</totfact>
</mgrwt>
</event>
<event>
 4    1  0.3976152E+000  0.2095585E+03  0.7546771E-02  0.1141916E+00
         21   -1    0    0  503  502  0.00000000000E+00  0.00000000000E+00  0.27206192334E+03  0.27206192334E+03  0.00000000000E+00 0.  1.
         21   -1    0    0  501  503 -0.00000000000E+00 -0.00000000000E+00 -0.20158458790E+03  0.20158458790E+03  0.00000000000E+00 0.  1.
          6    1    1    2  501    0 -0.73124695110E+02  0.92943711692E+02 -0.70478805024E+02  0.22109277812E+03  0.17300000000E+03 0.  1.
         -6    1    1    2    0  502  0.73124695110E+02 -0.92943711692E+02  0.14095614046E+03  0.25255373312E+03  0.17300000000E+03 0.  1.
<mgrwt>
<rscale>  2 0.20955848E+03</rscale>
<asrwt>0</asrwt>
<pdfrwt beam="1">  1       21 0.41855681E-01 0.20955848E+03</pdfrwt>
<pdfrwt beam="2">  1       21 0.31013014E-01 0.20955848E+03</pdfrwt>
<totfact> 0.54437732E+04</totfact>
</mgrwt>
</event>
<event>
 4    1  0.3976152E+000  0.2298291E+03  0.7546771E-02  0.1126760E+00
         21   -1    0    0  503  502  0.00000000000E+00  0.00000000000E+00  0.13954291954E+03  0.13954291954E+03  0.00000000000E+00 0.  1.
         21   -1    0    0  501  503 -0.00000000000E+00 -0.00000000000E+00 -0.37867790126E+03  0.37867790126E+03  0.00000000000E+00 0.  1.
          6    1    1    2  501    0  0.28893666600E+02 -0.14851787955E+03 -0.12466050437E+03  0.26146060098E+03  0.17300000000E+03 0.  1.
         -6    1    1    2    0  502 -0.28893666600E+02  0.14851787955E+03 -0.11447447735E+03  0.25676021982E+03  0.17300000000E+03 0.  1.
<mgrwt>
<rscale>  2 0.22982908E+03</rscale>
<asrwt>0</asrwt>
<pdfrwt beam="1">  1       21 0.21468142E-01 0.22982908E+03</pdfrwt>
<pdfrwt beam="2">  1       21 0.58258139E-01 0.22982908E+03</pdfrwt>
<totfact> 0.54850009E+04</totfact>
</mgrwt>
</event>
<event>
 4    1  0.3976152E+000  0.2263774E+03  0.7546771E-02  0.1129216E+00
         21   -1    0    0  503  502  0.00000000000E+00  0.00000000000E+00  0.30223581368E+03  0.30223581368E+03  0.00000000000E+00 0.  1.
         21   -1    0    0  501  503 -0.00000000000E+00 -0.00000000000E+00 -0.45967937211E+03  0.45967937211E+03  0.00000000000E+00 0.  1.
          6    1    1    2  501    0 -0.14362646901E+03 -0.26251917315E+02 -0.38137021161E+03  0.44349742284E+03  0.17300000000E+03 0.  1.
         -6    1    1    2    0  502  0.14362646901E+03  0.26251917315E+02  0.22392665318E+03  0.31841776296E+03  0.17300000000E+03 0.  1.
<mgrwt>
<rscale>  2 0.22637740E+03</rscale>
<asrwt>0</asrwt>
<pdfrwt beam="1">  1       21 0.46497817E-01 0.22637740E+03</pdfrwt>
<pdfrwt beam="2">  1       21 0.70719904E-01 0.22637740E+03</pdfrwt>
<totfact> 0.78406304E+03</totfact>
</mgrwt>
</event>
<event>
 4    1  0.3976152E+000  0.2095150E+03  0.7546771E-02  0.1141951E+00
         21   -1    0    0  501  502  0.00000000000E+00  0.00000000000E+00  0.70861872117E+02  0.70861872117E+02  0.00000000000E+00 0.  1.
         21   -1    0    0  502  503 -0.00000000000E+00 -0.00000000000E+00 -0.62514571297E+03  0.62514571297E+03  0.00000000000E+00 0.  1.
          6    1    1    2  501    0 -0.10124636180E+03  0.60964678453E+02 -0.24397096456E+03  0.32158723443E+03  0.17300000000E+03 0.  1.
         -6    1    1    2    0  503  0.10124636180E+03 -0.60964678453E+02 -0.31031287629E+03  0.37442035066E+03  0.17300000000E+03 0.  1.
<mgrwt>
<rscale>  2 0.20951496E+03</rscale>
<asrwt>0</asrwt>
<pdfrwt beam="1">  1       21 0.10901826E-01 0.20951496E+03</pdfrwt>
<pdfrwt beam="2">  1       21 0.96176266E-01 0.20951496E+03</pdfrwt>
<totfact> 0.62165172E+04</totfact>
</mgrwt>
</event>
<event>
 4    1  0.3976152E+000  0.2379165E+03  0.7546771E-02  0.1121189E+00
         21   -1    0    0  503  502  0.00000000000E+00  0.00000000000E+00  0.20104353959E+03  0.20104353959E+03  0.00000000000E+00 0.  1.
         21   -1    0    0  501  503 -0.00000000000E+00 -0.00000000000E+00 -0.28219560598E+03  0.28219560598E+03  0.00000000000E+00 0.  1.
          6    1    1    2  501    0 -0.22489911885E+02  0.16176974477E+03 -0.52113406143E+02  0.24355708481E+03  0.17300000000E+03 0.  1.
         -6    1    1    2    0  502  0.22489911885E+02 -0.16176974477E+03 -0.29038660251E+02  0.23968206076E+03  0.17300000000E+03 0.  1.
<mgrwt>
<rscale>  2 0.23791647E+03</rscale>
<asrwt>0</asrwt>
<pdfrwt beam="1">  1       21 0.30929775E-01 0.23791647E+03</pdfrwt>
<pdfrwt beam="2">  1       21 0.43414709E-01 0.23791647E+03</pdfrwt>
<totfact> 0.50157194E+04</totfact>
</mgrwt>
</event>
<event>
 4    1  0.3976152E+000  0.1770817E+03  0.7546771E-02  0.1170658E+00
         21   -1    0    0  501  502  0.00000000000E+00  0.00000000000E+00  0.24583268429E+03  0.24583268429E+03  0.00000000000E+00 0. -1.
         21   -1    0    0  502  503 -0.00000000000E+00 -0.00000000000E+00 -0.76398427580E+03  0.76398427580E+03  0.00000000000E+00 0. -1.
          6    1    1    2  501    0 -0.14192231647E+02  0.35035871921E+02  0.20175818678E+03  0.26844794224E+03  0.17300000000E+03 0. -1.
         -6    1    1    2    0  503  0.14192231647E+02 -0.35035871921E+02 -0.71990977829E+03  0.74136901785E+03  0.17300000000E+03 0. -1.
<mgrwt>
<rscale>  2 0.17708171E+03</rscale>
<asrwt>0</asrwt>
<pdfrwt beam="1">  1       21 0.37820415E-01 0.17708171E+03</pdfrwt>
<pdfrwt beam="2">  1       21 0.11753604E+00 0.17708171E+03</pdfrwt>
<totfact> 0.37983806E+03</totfact>
</mgrwt>
</event>
<event>
 4    1  0.3976152E+000  0.2077862E+03  0.7546771E-02  0.1143331E+00
         21   -1    0    0  501  502  0.00000000000E+00  0.00000000000E+00  0.15189846509E+04  0.15189846509E+04  0.00000000000E+00 0.  1.
         21   -1    0    0  502  503 -0.00000000000E+00 -0.00000000000E+00 -0.30790721996E+02  0.30790721996E+02  0.00000000000E+00 0. -1.
          6    1    1    2  501    0 -0.63201201145E+02 -0.96185890260E+02  0.95894569466E+03  0.98119924715E+03  0.17300000000E+03 0. -1.
         -6    1    1    2    0  503  0.63201201145E+02  0.96185890260E+02  0.52924823423E+03  0.56857612573E+03  0.17300000000E+03 0. -1.
<mgrwt>
<rscale>  2 0.20778623E+03</rscale>
<asrwt>0</asrwt>
<pdfrwt beam="1">  1       21 0.23368989E+00 0.20778623E+03</pdfrwt>
<pdfrwt beam="2">  1       21 0.47370353E-02 0.20778623E+03</pdfrwt>
<totfact> 0.24198520E+04</totfact>
</mgrwt>
</event>
<event>
 4    1  0.3976152E+000  0.1884377E+03  0.7546771E-02  0.1159878E+00
         21   -1    0    0  501  502  0.00000000000E+00  0.00000000000E+00  0.48285074211E+02  0.48285074211E+02  0.00000000000E+00 0.  1.
         21   -1    0    0  502  503 -0.00000000000E+00 -0.00000000000E+00 -0.79818405199E+03  0.79818405199E+03  0.00000000000E+00 0. -1.
          6    1    1    2  501    0 -0.73468650269E+02  0.13495750111E+02 -0.25624723032E+03  0.31807455241E+03  0.17300000000E+03 0.  1.
         -6    1    1    2    0  503  0.73468650269E+02 -0.13495750111E+02 -0.49365174746E+03  0.52839457379E+03  0.17300000000E+03 0. -1.
<mgrwt>
<rscale>  2 0.18843773E+03</rscale>
<asrwt>0</asrwt>
<pdfrwt beam="1">  1       21 0.74284731E-02 0.18843773E+03</pdfrwt>
<pdfrwt beam="2">  1       21 0.12279754E+00 0.18843773E+03</pdfrwt>
<totfact> 0.68204160E+04</totfact>
</mgrwt>
</event>
<event>
 4    1  0.3976152E+000  0.1776555E+03  0.7546771E-02  0.1170092E+00
         21   -1    0    0  501  502  0.00000000000E+00  0.00000000000E+00  0.15682705956E+03  0.15682705956E+03  0.00000000000E+00 0. -1.
         21   -1    0    0  502  503 -0.00000000000E+00 -0.00000000000E+00 -0.34378558164E+03  0.34378558164E+03  0.00000000000E+00 0. -1.
          6    1    1    2  501    0 -0.10965104692E+02  0.38887681931E+02  0.67692610371E+02  0.19011516201E+03  0.17300000000E+03 0. -1.
         -6    1    1    2    0  503  0.10965104692E+02 -0.38887681931E+02 -0.25465113245E+03  0.31049747919E+03  0.17300000000E+03 0. -1.
<mgrwt>
<rscale>  2 0.17765552E+03</rscale>
<asrwt>0</asrwt>
<pdfrwt beam="1">  1       21 0.24127240E-01 0.17765552E+03</pdfrwt>
<pdfrwt beam="2">  1       21 0.52890089E-01 0.17765552E+03</pdfrwt>
<totfact> 0.55284266E+04</totfact>
</mgrwt>
</event>
<event>
 4    1  0.3976152E+000  0.1846485E+03  0.7546771E-02  0.1163378E+00
         21   -1    0    0  501  502  0.00000000000E+00  0.00000000000E+00  0.21639200111E+03  0.21639200111E+03  0.00000000000E+00 0. -1.
         21   -1    0    0  502  503 -0.00000000000E+00 -0.00000000000E+00 -0.20284829817E+03  0.20284829817E+03  0.00000000000E+00 0. -1.
          6    1    1    2  501    0 -0.56170933642E+02  0.31794842534E+02  0.10581679745E+03  0.21281983089E+03  0.17300000000E+03 0. -1.
         -6    1    1    2    0  503  0.56170933642E+02 -0.31794842534E+02 -0.92273094518E+02  0.20642046839E+03  0.17300000000E+03 0. -1.
<mgrwt>
<rscale>  2 0.18464855E+03</rscale>
<asrwt>0</asrwt>
<pdfrwt beam="1">  1       21 0.33291077E-01 0.18464855E+03</pdfrwt>
<pdfrwt beam="2">  1       21 0.31207430E-01 0.18464855E+03</pdfrwt>
<totfact> 0.85991857E+04</totfact>
</mgrwt>
</event>
<event>
 4    1  0.3976152E+000  0.1793010E+03  0.7546771E-02  0.1168481E+00
         21   -1    0    0  501  502  0.00000000000E+00  0.00000000000E+00  0.55371435711E+02  0.55371435711E+02  0.00000000000E+00 0. -1.
         21   -1    0    0  502  503 -0.00000000000E+00 -0.00000000000E+00 -0.59315151664E+03  0.59315151664E+03  0.00000000000E+00 0. -1.
          6    1    1    2  501    0 -0.28522826069E+02  0.37500837931E+02 -0.22172769847E+03  0.28515265512E+03  0.17300000000E+03 0. -1.
         -6    1    1    2    0  503  0.28522826069E+02 -0.37500837931E+02 -0.31605238246E+03  0.36337029723E+03  0.17300000000E+03 0. -1.
<mgrwt>
<rscale>  2 0.17930104E+03</rscale>
<asrwt>0</asrwt>
<pdfrwt beam="1">  1       21 0.85186825E-02 0.17930104E+03</pdfrwt>
<pdfrwt beam="2">  1       21 0.91254078E-01 0.17930104E+03</pdfrwt>
<totfact> 0.10999608E+05</totfact>
</mgrwt>
</event>
<event>
 4    1  0.3976152E+000  0.1984797E+03  0.7546771E-02  0.1151028E+00
         21   -1    0    0  501  502  0.00000000000E+00  0.00000000000E+00  0.14656127793E+03  0.14656127793E+03  0.00000000000E+00 0. -1.
         21   -1    0    0  502  503 -0.00000000000E+00 -0.00000000000E+00 -0.37529856372E+03  0.37529856372E+03  0.00000000000E+00 0. -1.
          6    1    1    2  501    0 -0.18510982453E+02 -0.95512006775E+02  0.24635511029E+02  0.20000277076E+03  0.17300000000E+03 0. -1.
         -6    1    1    2    0  503  0.18510982453E+02  0.95512006775E+02 -0.25337279682E+03  0.32185707089E+03  0.17300000000E+03 0. -1.
<mgrwt>
<rscale>  2 0.19847972E+03</rscale>
<asrwt>0</asrwt>
<pdfrwt beam="1">  1       21 0.22547889E-01 0.19847972E+03</pdfrwt>
<pdfrwt beam="2">  1       21 0.57738240E-01 0.19847972E+03</pdfrwt>
<totfact> 0.51696218E+04</totfact>
</mgrwt>
</event>
<event>
 4    1  0.3976152E+000  0.1929215E+03  0.7546771E-02  0.1155852E+00
         21   -1    0    0  501  502  0.00000000000E+00  0.00000000000E+00  0.35245708138E+03  0.35245708138E+03  0.00000000000E+00 0. -1.
         21   -1    0    0  502  503 -0.00000000000E+00 -0.00000000000E+00 -0.11435817451E+03  0.11435817451E+03  0.00000000000E+00 0.  1.
          6    1    1    2  501    0 -0.23623558279E+02  0.82046508018E+02  0.18365087868E+03  0.26635755522E+03  0.17300000000E+03 0.  1.
         -6    1    1    2    0  503  0.23623558279E+02 -0.82046508018E+02  0.54448028193E+02  0.20045770067E+03  0.17300000000E+03 0.  1.
<mgrwt>
<rscale>  2 0.19292149E+03</rscale>
<asrwt>0</asrwt>
<pdfrwt beam="1">  1       21 0.54224166E-01 0.19292149E+03</pdfrwt>
<pdfrwt beam="2">  1       21 0.17593565E-01 0.19292149E+03</pdfrwt>
<totfact> 0.94126894E+04</totfact>
</mgrwt>
</event>
<event>
 4    1  0.3976152E+000  0.1824575E+03  0.7546771E-02  0.1165446E+00
         21   -1    0    0  503  502  0.00000000000E+00  0.00000000000E+00  0.23023945578E+02  0.23023945578E+02  0.00000000000E+00 0.  1.
         21   -1    0    0  501  503 -0.00000000000E+00 -0.00000000000E+00 -0.14668911209E+04  0.14668911209E+04  0.00000000000E+00 0.  1.
          6    1    1    2  501    0  0.39608956767E+02 -0.42342107913E+02 -0.81101155623E+03  0.83128242367E+03  0.17300000000E+03 0. -1.
         -6    1    1    2    0  502 -0.39608956767E+02  0.42342107913E+02 -0.63285561907E+03  0.65863264279E+03  0.17300000000E+03 0. -1.
<mgrwt>
<rscale>  2 0.18245746E+03</rscale>
<asrwt>0</asrwt>
<pdfrwt beam="1">  1       21 0.35421454E-02 0.18245746E+03</pdfrwt>
<pdfrwt beam="2">  1       21 0.22567556E+00 0.18245746E+03</pdfrwt>
<totfact> 0.44933296E+04</totfact>
</mgrwt>
</event>
<event>
 4    1  0.3976152E+000  0.2137284E+03  0.7546771E-02  0.1138647E+00
         21   -1    0    0  501  502  0.00000000000E+00  0.00000000000E+00  0.43443831289E+02  0.43443831289E+02  0.00000000000E+00 0. -1.
         21   -1    0    0  502  503 -0.00000000000E+00 -0.00000000000E+00 -0.10515869280E+04  0.10515869280E+04  0.00000000000E+00 0.  1.
          6    1    1    2  501    0 -0.10156342580E+03  0.73727163804E+02 -0.49826348933E+03  0.54216817404E+03  0.17300000000E+03 0.  1.
         -6    1    1    2    0  503  0.10156342580E+03 -0.73727163804E+02 -0.50987960738E+03  0.55286258524E+03  0.17300000000E+03 0. -1.
<mgrwt>
<rscale>  2 0.21372839E+03</rscale>
<asrwt>0</asrwt>
<pdfrwt beam="1">  1       21 0.66836671E-02 0.21372839E+03</pdfrwt>
<pdfrwt beam="2">  1       21 0.16178259E+00 0.21372839E+03</pdfrwt>
<totfact> 0.39513574E+04</totfact>
</mgrwt>
</event>
<event>
 4    1  0.3976152E+000  0.3132216E+03  0.7546771E-02  0.1078812E+00
         21   -1    0    0  501  502  0.00000000000E+00  0.00000000000E+00  0.73751799130E+03  0.73751799130E+03  0.00000000000E+00 0.  1.
         21   -1    0    0  502  503 -0.00000000000E+00 -0.00000000000E+00 -0.14813109806E+03  0.14813109806E+03  0.00000000000E+00 0.  1.
          6    1    1    2  501    0 -0.25947120415E+03  0.29214436653E+02  0.43610837938E+03  0.53693417441E+03  0.17300000000E+03 0.  1.
         -6    1    1    2    0  503  0.25947120415E+03 -0.29214436653E+02  0.15327851386E+03  0.34871491494E+03  0.17300000000E+03 0.  1.
<mgrwt>
<rscale>  2 0.31322163E+03</rscale>
<asrwt>0</asrwt>
<pdfrwt beam="1">  1       21 0.11346430E+00 0.31322163E+03</pdfrwt>
<pdfrwt beam="2">  1       21 0.22789400E-01 0.31322163E+03</pdfrwt>
<totfact> 0.10215811E+04</totfact>
</mgrwt>
</event>
<event>
 4    1  0.3976152E+000  0.2008606E+03  0.7546771E-02  0.1149015E+00
         21   -1    0    0  503  502  0.00000000000E+00  0.00000000000E+00  0.16325722719E+04  0.16325722719E+04  0.00000000000E+00 0.  1.
         21   -1    0    0  501  503 -0.00000000000E+00 -0.00000000000E+00 -0.25606570521E+02  0.25606570521E+02  0.00000000000E+00 0.  1.
          6    1    1    2  501    0 -0.88016301420E+02  0.51663398362E+02  0.64856319326E+03  0.67895448426E+03  0.17300000000E+03 0.  1.
         -6    1    1    2    0  502  0.88016301420E+02 -0.51663398362E+02  0.95840250812E+03  0.97922435816E+03  0.17300000000E+03 0.  1.
<mgrwt>
<rscale>  2 0.20086059E+03</rscale>
<asrwt>0</asrwt>
<pdfrwt beam="1">  1       21 0.25116488E+00 0.20086059E+03</pdfrwt>
<pdfrwt beam="2">  1       21 0.39394737E-02 0.20086059E+03</pdfrwt>
<totfact> 0.26131071E+04</totfact>
</mgrwt>
</event>
<event>
 4    1  0.3976152E+000  0.2044690E+03  0.7546771E-02  0.1146022E+00
         21   -1    0    0  503  502  0.00000000000E+00  0.00000000000E+00  0.58569638761E+03  0.58569638761E+03  0.00000000000E+00 0.  1.
         21   -1    0    0  501  503 -0.00000000000E+00 -0.00000000000E+00 -0.72167291832E+02  0.72167291832E+02  0.00000000000E+00 0.  1.
          6    1    1    2  501    0  0.98683631839E+02  0.46261370045E+02  0.29109955648E+03  0.35573378436E+03  0.17300000000E+03 0.  1.
         -6    1    1    2    0  502 -0.98683631839E+02 -0.46261370045E+02  0.22242953930E+03  0.30212989509E+03  0.17300000000E+03 0.  1.
<mgrwt>
<rscale>  2 0.20446900E+03</rscale>
<asrwt>0</asrwt>
<pdfrwt beam="1">  1       21 0.90107134E-01 0.20446900E+03</pdfrwt>
<pdfrwt beam="2">  1       21 0.11102661E-01 0.20446900E+03</pdfrwt>
<totfact> 0.70237730E+04</totfact>
</mgrwt>
</event>
<event>
 4    1  0.3976152E+000  0.1783749E+03  0.7546771E-02  0.1169385E+00
         21   -1    0    0  503  502  0.00000000000E+00  0.00000000000E+00  0.25291005121E+03  0.25291005121E+03  0.00000000000E+00 0.  1.
         21   -1    0    0  501  503 -0.00000000000E+00 -0.00000000000E+00 -0.16614355511E+03  0.16614355511E+03  0.00000000000E+00 0.  1.
          6    1    1    2  501    0 -0.14627977592E+02  0.40922151198E+02 -0.59857860619E+02  0.18815037514E+03  0.17300000000E+03 0.  1.
         -6    1    1    2    0  502  0.14627977592E+02 -0.40922151198E+02  0.14662435671E+03  0.23090323118E+03  0.17300000000E+03 0.  1.
<mgrwt>
<rscale>  2 0.17837489E+03</rscale>
<asrwt>0</asrwt>
<pdfrwt beam="1">  1       21 0.38909239E-01 0.17837489E+03</pdfrwt>
<pdfrwt beam="2">  1       21 0.25560547E-01 0.17837489E+03</pdfrwt>
<totfact> 0.92976024E+04</totfact>
</mgrwt>
</event>
<event>
 4    1  0.3976152E+000  0.2034365E+03  0.7546771E-02  0.1146872E+00
         21   -1    0    0  501  502  0.00000000000E+00  0.00000000000E+00  0.61480737114E+02  0.61480737114E+02  0.00000000000E+00 0. -1.
         21   -1    0    0  502  503 -0.00000000000E+00 -0.00000000000E+00 -0.68116520157E+03  0.68116520157E+03  0.00000000000E+00 0. -1.
          6    1    1    2  501    0 -0.10545719712E+03  0.18335330669E+02 -0.26958928332E+03  0.33773478716E+03  0.17300000000E+03 0. -1.
         -6    1    1    2    0  503  0.10545719712E+03 -0.18335330669E+02 -0.35009518113E+03  0.40491115152E+03  0.17300000000E+03 0. -1.
<mgrwt>
<rscale>  2 0.20343649E+03</rscale>
<asrwt>0</asrwt>
<pdfrwt beam="1">  1       21 0.94585746E-02 0.20343649E+03</pdfrwt>
<pdfrwt beam="2">  1       21 0.10479465E+00 0.20343649E+03</pdfrwt>
<totfact> 0.65364257E+04</totfact>
</mgrwt>
</event>
<event>
 4    1  0.3976152E+000  0.1990859E+03  0.7546771E-02  0.1150512E+00
         21   -1    0    0  503  502  0.00000000000E+00  0.00000000000E+00  0.14170683718E+03  0.14170683718E+03  0.00000000000E+00 0.  1.
         21   -1    0    0  501  503 -0.00000000000E+00 -0.00000000000E+00 -0.37935950420E+03  0.37935950420E+03  0.00000000000E+00 0.  1.
          6    1    1    2  501    0 -0.59692942215E+02 -0.78377084313E+02 -0.25236277135E+03  0.32143768146E+03  0.17300000000E+03 0.  1.
         -6    1    1    2    0  502  0.59692942215E+02  0.78377084313E+02  0.14710104332E+02  0.19962865993E+03  0.17300000000E+03 0.  1.
<mgrwt>
<rscale>  2 0.19908595E+03</rscale>
<asrwt>0</asrwt>
<pdfrwt beam="1">  1       21 0.21801052E-01 0.19908595E+03</pdfrwt>
<pdfrwt beam="2">  1       21 0.58363001E-01 0.19908595E+03</pdfrwt>
<totfact> 0.53821258E+04</totfact>
</mgrwt>
</event>
<event>
 4    1  0.3976152E+000  0.1746029E+03  0.7546771E-02  0.1173131E+00
         21   -1    0    0  501  502  0.00000000000E+00  0.00000000000E+00  0.67807947684E+02  0.67807947684E+02  0.00000000000E+00 0.  1.
         21   -1    0    0  502  503 -0.00000000000E+00 -0.00000000000E+00 -0.47794825371E+03  0.47794825371E+03  0.00000000000E+00 0.  1.
          6    1    1    2  501    0  0.18044597877E+02  0.15217141287E+02 -0.13860813527E+03  0.22293134383E+03  0.17300000000E+03 0. -1.
         -6    1    1    2    0  503 -0.18044597877E+02 -0.15217141287E+02 -0.27153217076E+03  0.32282485756E+03  0.17300000000E+03 0. -1.
<mgrwt>
<rscale>  2 0.17460289E+03</rscale>
<asrwt>0</asrwt>
<pdfrwt beam="1">  1       21 0.10431993E-01 0.17460289E+03</pdfrwt>
<pdfrwt beam="2">  1       21 0.73530497E-01 0.17460289E+03</pdfrwt>
<totfact> 0.12593628E+05</totfact>
</mgrwt>
</event>
<event>
 4    1  0.3976152E+000  0.2041904E+03  0.7546771E-02  0.1146251E+00
         21   -1    0    0  503  502  0.00000000000E+00  0.00000000000E+00  0.78324679362E+03  0.78324679362E+03  0.00000000000E+00 0.  1.
         21   -1    0    0  501  503 -0.00000000000E+00 -0.00000000000E+00 -0.87680855990E+02  0.87680855990E+02  0.00000000000E+00 0.  1.
          6    1    1    2  501    0  0.55321518001E+02 -0.93296554507E+02  0.74830073755E+02  0.21747012985E+03  0.17300000000E+03 0.  1.
         -6    1    1    2    0  502 -0.55321518001E+02  0.93296554507E+02  0.62073586387E+03  0.65345751976E+03  0.17300000000E+03 0.  1.
<mgrwt>
<rscale>  2 0.20419040E+03</rscale>
<asrwt>0</asrwt>
<pdfrwt beam="1">  1       21 0.12049950E+00 0.20419040E+03</pdfrwt>
<pdfrwt beam="2">  1       21 0.13489363E-01 0.20419040E+03</pdfrwt>
<totfact> 0.24680689E+04</totfact>
</mgrwt>
</event>
<event>
 4    1  0.3976152E+000  0.2860807E+03  0.7546771E-02  0.1092413E+00
         21   -1    0    0  501  502  0.00000000000E+00  0.00000000000E+00  0.36023030514E+03  0.36023030514E+03  0.00000000000E+00 0.  1.
         21   -1    0    0  502  503 -0.00000000000E+00 -0.00000000000E+00 -0.25105493641E+03  0.25105493641E+03  0.00000000000E+00 0. -1.
          6    1    1    2  501    0 -0.52407307747E+02  0.22173546082E+03  0.14881435943E+03  0.32247147791E+03  0.17300000000E+03 0. -1.
         -6    1    1    2    0  503  0.52407307747E+02 -0.22173546082E+03 -0.39638990697E+02  0.28881376365E+03  0.17300000000E+03 0.  1.
<mgrwt>
<rscale>  2 0.28608065E+03</rscale>
<asrwt>0</asrwt>
<pdfrwt beam="1">  1       21 0.55420047E-01 0.28608065E+03</pdfrwt>
<pdfrwt beam="2">  1       21 0.38623836E-01 0.28608065E+03</pdfrwt>
<totfact> 0.18912378E+04</totfact>
</mgrwt>
</event>
<event>
 4    1  0.3976152E+000  0.1886021E+03  0.7546771E-02  0.1159728E+00
         21   -1    0    0  501  502  0.00000000000E+00  0.00000000000E+00  0.28152044525E+03  0.28152044525E+03  0.00000000000E+00 0. -1.
         21   -1    0    0  502  503 -0.00000000000E+00 -0.00000000000E+00 -0.12647524328E+03  0.12647524328E+03  0.00000000000E+00 0. -1.
          6    1    1    2  501    0 -0.50987198098E+02 -0.55154949483E+02  0.83882216485E+02  0.20641460478E+03  0.17300000000E+03 0. -1.
         -6    1    1    2    0  503  0.50987198098E+02  0.55154949483E+02  0.71162985488E+02  0.20158108375E+03  0.17300000000E+03 0. -1.
<mgrwt>
<rscale>  2 0.18860213E+03</rscale>
<asrwt>0</asrwt>
<pdfrwt beam="1">  1       21 0.43310837E-01 0.18860213E+03</pdfrwt>
<pdfrwt beam="2">  1       21 0.19457730E-01 0.18860213E+03</pdfrwt>
<totfact> 0.12470004E+05</totfact>
</mgrwt>
</event>
<event>
 4    1  0.3976152E+000  0.1749251E+03  0.7546771E-02  0.1172807E+00
         21   -1    0    0  501  502  0.00000000000E+00  0.00000000000E+00  0.21289954968E+03  0.21289954968E+03  0.00000000000E+00 0. -1.
         21   -1    0    0  502  503 -0.00000000000E+00 -0.00000000000E+00 -0.15661224134E+03  0.15661224134E+03  0.00000000000E+00 0. -1.
          6    1    1    2  501    0  0.13300574173E+02  0.22200988507E+02  0.81144298876E+02  0.19282942308E+03  0.17300000000E+03 0. -1.
         -6    1    1    2    0  503 -0.13300574173E+02 -0.22200988507E+02 -0.24856990540E+02  0.17668236795E+03  0.17300000000E+03 0. -1.
<mgrwt>
<rscale>  2 0.17492510E+03</rscale>
<asrwt>0</asrwt>
<pdfrwt beam="1">  1       21 0.32753777E-01 0.17492510E+03</pdfrwt>
<pdfrwt beam="2">  1       21 0.24094191E-01 0.17492510E+03</pdfrwt>
<totfact> 0.14664488E+05</totfact>
</mgrwt>
</event>
<event>
 4    1  0.3976152E+000  0.2435054E+03  0.7546771E-02  0.1117479E+00
         21   -1    0    0  501  502  0.00000000000E+00  0.00000000000E+00  0.50510170664E+03  0.50510170664E+03  0.00000000000E+00 0.  1.
         21   -1    0    0  502  503 -0.00000000000E+00 -0.00000000000E+00 -0.14992117192E+03  0.14992117192E+03  0.00000000000E+00 0. -1.
          6    1    1    2  501    0 -0.56958057086E+01  0.17127006022E+03  0.33014715080E+03  0.41023410013E+03  0.17300000000E+03 0.  1.
         -6    1    1    2    0  503  0.56958057086E+01 -0.17127006022E+03  0.25033383922E+02  0.24478877842E+03  0.17300000000E+03 0. -1.
<mgrwt>
<rscale>  2 0.24350539E+03</rscale>
<asrwt>0</asrwt>
<pdfrwt beam="1">  1       21 0.77707954E-01 0.24350539E+03</pdfrwt>
<pdfrwt beam="2">  1       21 0.23064796E-01 0.24350539E+03</pdfrwt>
<totfact> 0.25229894E+04</totfact>
</mgrwt>
</event>
<event>
 4    1  0.3976152E+000  0.1758961E+03  0.7546771E-02  0.1171835E+00
         21   -1    0    0  503  502  0.00000000000E+00  0.00000000000E+00  0.27679263631E+02  0.27679263631E+02  0.00000000000E+00 0. -1.
         21   -1    0    0  501  503 -0.00000000000E+00 -0.00000000000E+00 -0.15863861607E+04  0.15863861607E+04  0.00000000000E+00 0. -1.
          6    1    1    2  501    0  0.27727348025E+02 -0.15544610042E+02 -0.12179738019E+04  0.12306094518E+04  0.17300000000E+03 0. -1.
         -6    1    1    2    0  502 -0.27727348025E+02  0.15544610042E+02 -0.34073309515E+03  0.38345597252E+03  0.17300000000E+03 0. -1.
<mgrwt>
<rscale>  2 0.17589611E+03</rscale>
<asrwt>0</asrwt>
<pdfrwt beam="1">  1       21 0.42583469E-02 0.17589611E+03</pdfrwt>
<pdfrwt beam="2">  1       21 0.24405949E+00 0.17589611E+03</pdfrwt>
<totfact> 0.25794626E+04</totfact>
</mgrwt>
</event>
<event>
 4    1  0.3976152E+000  0.2088866E+03  0.7546771E-02  0.1142451E+00
         21   -1    0    0  503  502  0.00000000000E+00  0.00000000000E+00  0.11044437299E+04  0.11044437299E+04  0.00000000000E+00 0.  1.
         21   -1    0    0  501  503 -0.00000000000E+00 -0.00000000000E+00 -0.45793859015E+02  0.45793859015E+02  0.00000000000E+00 0.  1.
          6    1    1    2  501    0  0.69058241888E+02  0.94528217108E+02  0.31623676139E+03  0.37899777553E+03  0.17300000000E+03 0.  1.
         -6    1    1    2    0  502 -0.69058241888E+02 -0.94528217108E+02  0.74241310951E+03  0.77123981341E+03  0.17300000000E+03 0.  1.
<mgrwt>
<rscale>  2 0.20888663E+03</rscale>
<asrwt>0</asrwt>
<pdfrwt beam="1">  1       21 0.16991440E+00 0.20888663E+03</pdfrwt>
<pdfrwt beam="2">  1       21 0.70452099E-02 0.20888663E+03</pdfrwt>
<totfact> 0.31631620E+04</totfact>
</mgrwt>
</event>
<event>
 4    1  0.3976152E+000  0.1837052E+03  0.7546771E-02  0.1164265E+00
         21   -1    0    0  501  502  0.00000000000E+00  0.00000000000E+00  0.14494667981E+03  0.14494667981E+03  0.00000000000E+00 0. -1.
         21   -1    0    0  502  503 -0.00000000000E+00 -0.00000000000E+00 -0.80549129662E+03  0.80549129662E+03  0.00000000000E+00 0.  1.
          6    1    1    2  501    0  0.49213270900E+02  0.37371946069E+02  0.70421960679E+02  0.19674059299E+03  0.17300000000E+03 0. -1.
         -6    1    1    2    0  503 -0.49213270900E+02 -0.37371946069E+02 -0.73096657749E+03  0.75369738343E+03  0.17300000000E+03 0.  1.
<mgrwt>
<rscale>  2 0.18370522E+03</rscale>
<asrwt>0</asrwt>
<pdfrwt beam="1">  1       21 0.22299490E-01 0.18370522E+03</pdfrwt>
<pdfrwt beam="2">  1       21 0.12392174E+00 0.18370522E+03</pdfrwt>
<totfact> 0.92336560E+03</totfact>
</mgrwt>
</event>
<event>
 4    1  0.3976152E+000  0.2201853E+03  0.7546771E-02  0.1133745E+00
         21   -1    0    0  501  502  0.00000000000E+00  0.00000000000E+00  0.46674513970E+02  0.46674513970E+02  0.00000000000E+00 0.  1.
         21   -1    0    0  502  503 -0.00000000000E+00 -0.00000000000E+00 -0.10392597528E+04  0.10392597528E+04  0.00000000000E+00 0. -1.
          6    1    1    2  501    0  0.35990999896E+01  0.13616031183E+03 -0.50870755955E+03  0.55431486105E+03  0.17300000000E+03 0.  1.
         -6    1    1    2    0  503 -0.35990999896E+01 -0.13616031183E+03 -0.48387767933E+03  0.53161940577E+03  0.17300000000E+03 0. -1.
<mgrwt>
<rscale>  2 0.22018534E+03</rscale>
<asrwt>0</asrwt>
<pdfrwt beam="1">  1       21 0.71806949E-02 0.22018534E+03</pdfrwt>
<pdfrwt beam="2">  1       21 0.15988611E+00 0.22018534E+03</pdfrwt>
<totfact> 0.35901966E+04</totfact>
</mgrwt>
</event>
<event>
 4    1  0.3976152E+000  0.1816445E+03  0.7546771E-02  0.1166221E+00
         21   -1    0    0  503  502  0.00000000000E+00  0.00000000000E+00  0.10687593909E+03  0.10687593909E+03  0.00000000000E+00 0. -1.
         21   -1    0    0  501  503 -0.00000000000E+00 -0.00000000000E+00 -0.12579999987E+04  0.12579999987E+04  0.00000000000E+00 0. -1.
          6    1    1    2  501    0  0.54930474776E+02  0.69543014132E+01 -0.11683782399E+04  0.11824138154E+04  0.17300000000E+03 0. -1.
         -6    1    1    2    0  502 -0.54930474776E+02 -0.69543014132E+01  0.17254180298E+02  0.18246212238E+03  0.17300000000E+03 0. -1.
<mgrwt>
<rscale>  2 0.18164449E+03</rscale>
<asrwt>0</asrwt>
<pdfrwt beam="1">  1       21 0.16442452E-01 0.18164449E+03</pdfrwt>
<pdfrwt beam="2">  1       21 0.19353846E+00 0.18164449E+03</pdfrwt>
<totfact> 0.49546386E+03</totfact>
</mgrwt>
</event>
<event>
 4    1  0.3976152E+000  0.2134135E+03  0.7546771E-02  0.1138891E+00
         21   -1    0    0  501  502  0.00000000000E+00  0.00000000000E+00  0.83770665919E+02  0.83770665919E+02  0.00000000000E+00 0.  1.
         21   -1    0    0  502  503 -0.00000000000E+00 -0.00000000000E+00 -0.74950438731E+03  0.74950438731E+03  0.00000000000E+00 0. -1.
          6    1    1    2  501    0  0.36650102157E+02  0.11947011248E+03 -0.11453940752E+03  0.24220779021E+03  0.17300000000E+03 0.  1.
         -6    1    1    2    0  503 -0.36650102157E+02 -0.11947011248E+03 -0.55119431388E+03  0.59106726302E+03  0.17300000000E+03 0. -1.
<mgrwt>
<rscale>  2 0.21341354E+03</rscale>
<asrwt>0</asrwt>
<pdfrwt beam="1">  1       21 0.12887795E-01 0.21341354E+03</pdfrwt>
<pdfrwt beam="2">  1       21 0.11530837E+00 0.21341354E+03</pdfrwt>
<totfact> 0.29713554E+04</totfact>
</mgrwt>
</event>
<event>
 4    1  0.3976152E+000  0.2674641E+03  0.7546771E-02  0.1102740E+00
         21   -1    0    0  503  502  0.00000000000E+00  0.00000000000E+00  0.67871078709E+02  0.67871078709E+02  0.00000000000E+00 0. -1.
         21   -1    0    0  501  503 -0.00000000000E+00 -0.00000000000E+00 -0.12191703450E+04  0.12191703450E+04  0.00000000000E+00 0.  1.
          6    1    1    2  501    0 -0.47733444211E+01 -0.20392470219E+03 -0.81250210981E+03  0.85539274455E+03  0.17300000000E+03 0.  1.
         -6    1    1    2    0  502  0.47733444211E+01  0.20392470219E+03 -0.33879715646E+03  0.43164867914E+03  0.17300000000E+03 0. -1.
<mgrwt>
<rscale>  2 0.26746415E+03</rscale>
<asrwt>0</asrwt>
<pdfrwt beam="1">  1       21 0.10441704E-01 0.26746415E+03</pdfrwt>
<pdfrwt beam="2">  1       21 0.18756467E+00 0.26746415E+03</pdfrwt>
<totfact> 0.11550708E+04</totfact>
</mgrwt>
</event>
<event>
 4    1  0.3976152E+000  0.1768691E+03  0.7546771E-02  0.1170868E+00
         21   -1    0    0  503  502  0.00000000000E+00  0.00000000000E+00  0.48779613944E+02  0.48779613944E+02  0.00000000000E+00 0. -1.
         21   -1    0    0  501  503 -0.00000000000E+00 -0.00000000000E+00 -0.74291228207E+03  0.74291228207E+03  0.00000000000E+00 0. -1.
          6    1    1    2  501    0  0.34936660327E+02 -0.11537579610E+02 -0.49345806202E+03  0.52419800167E+03  0.17300000000E+03 0. -1.
         -6    1    1    2    0  502 -0.34936660327E+02  0.11537579610E+02 -0.20067460611E+03  0.26749389435E+03  0.17300000000E+03 0. -1.
<mgrwt>
<rscale>  2 0.17686912E+03</rscale>
<asrwt>0</asrwt>
<pdfrwt beam="1">  1       21 0.75045567E-02 0.17686912E+03</pdfrwt>
<pdfrwt beam="2">  1       21 0.11429419E+00 0.17686912E+03</pdfrwt>
<totfact> 0.80382854E+04</totfact>
</mgrwt>
</event>
<event>
 4    1  0.3976152E+000  0.2041650E+03  0.7546771E-02  0.1146272E+00
         21   -1    0    0  503  502  0.00000000000E+00  0.00000000000E+00  0.21161082025E+03  0.21161082025E+03  0.00000000000E+00 0. -1.
         21   -1    0    0  501  503 -0.00000000000E+00 -0.00000000000E+00 -0.39161823127E+03  0.39161823127E+03  0.00000000000E+00 0. -1.
          6    1    1    2  501    0 -0.10830960391E+03 -0.48354756569E+01 -0.30263811463E+03  0.36506599479E+03  0.17300000000E+03 0. -1.
         -6    1    1    2    0  502  0.10830960391E+03  0.48354756569E+01  0.12263070361E+03  0.23816305673E+03  0.17300000000E+03 0. -1.
<mgrwt>
<rscale>  2 0.20416501E+03</rscale>
<asrwt>0</asrwt>
<pdfrwt beam="1">  1       21 0.32555511E-01 0.20416501E+03</pdfrwt>
<pdfrwt beam="2">  1       21 0.60248958E-01 0.20416501E+03</pdfrwt>
<totfact> 0.23163186E+04</totfact>
</mgrwt>
</event>
<event>
 4    1  0.3976152E+000  0.1978400E+03  0.7546771E-02  0.1151574E+00
         21   -1    0    0  503  502  0.00000000000E+00  0.00000000000E+00  0.40201865647E+02  0.40201865647E+02  0.00000000000E+00 0.  1.
         21   -1    0    0  501  503 -0.00000000000E+00 -0.00000000000E+00 -0.10167287461E+04  0.10167287461E+04  0.00000000000E+00 0.  1.
          6    1    1    2  501    0 -0.54034156159E+02 -0.79322005962E+02 -0.59710143438E+03  0.62902368287E+03  0.17300000000E+03 0.  1.
         -6    1    1    2    0  502  0.54034156159E+02  0.79322005962E+02 -0.37942544608E+03  0.42790692889E+03  0.17300000000E+03 0.  1.
<mgrwt>
<rscale>  2 0.19784001E+03</rscale>
<asrwt>0</asrwt>
<pdfrwt beam="1">  1       21 0.61849024E-02 0.19784001E+03</pdfrwt>
<pdfrwt beam="2">  1       21 0.15641981E+00 0.19784001E+03</pdfrwt>
<totfact> 0.49918409E+04</totfact>
</mgrwt>
</event>
<event>
 4    1  0.3976152E+000  0.1994401E+03  0.7546771E-02  0.1150212E+00
         21   -1    0    0  503  502  0.00000000000E+00  0.00000000000E+00  0.31737458512E+03  0.31737458512E+03  0.00000000000E+00 0.  1.
         21   -1    0    0  501  503 -0.00000000000E+00 -0.00000000000E+00 -0.16010333882E+03  0.16010333882E+03  0.00000000000E+00 0.  1.
          6    1    1    2  501    0  0.67001292369E+02  0.73199682204E+02 -0.32627191768E+02  0.20209131673E+03  0.17300000000E+03 0.  1.
         -6    1    1    2    0  502 -0.67001292369E+02 -0.73199682204E+02  0.18989843806E+03  0.27538660721E+03  0.17300000000E+03 0.  1.
<mgrwt>
<rscale>  2 0.19944013E+03</rscale>
<asrwt>0</asrwt>
<pdfrwt beam="1">  1       21 0.48826859E-01 0.19944013E+03</pdfrwt>
<pdfrwt beam="2">  1       21 0.24631283E-01 0.19944013E+03</pdfrwt>
<totfact> 0.62187627E+04</totfact>
</mgrwt>
</event>
<event>
 4    1  0.3976152E+000  0.1772049E+03  0.7546771E-02  0.1170536E+00
         21   -1    0    0  503  502  0.00000000000E+00  0.00000000000E+00  0.19648888757E+03  0.19648888757E+03  0.00000000000E+00 0. -1.
         21   -1    0    0  501  503 -0.00000000000E+00 -0.00000000000E+00 -0.47562912672E+03  0.47562912672E+03  0.00000000000E+00 0. -1.
          6    1    1    2  501    0  0.12117121408E+02 -0.36410678914E+02 -0.41341093405E+03  0.44978902005E+03  0.17300000000E+03 0. -1.
         -6    1    1    2    0  502 -0.12117121408E+02  0.36410678914E+02  0.13427069489E+03  0.22232899423E+03  0.17300000000E+03 0. -1.
<mgrwt>
<rscale>  2 0.17720486E+03</rscale>
<asrwt>0</asrwt>
<pdfrwt beam="1">  1       21 0.30229060E-01 0.17720486E+03</pdfrwt>
<pdfrwt beam="2">  1       21 0.73173711E-01 0.17720486E+03</pdfrwt>
<totfact> 0.17805675E+04</totfact>
</mgrwt>
</event>
<event>
 4    1  0.3976152E+000  0.2059898E+03  0.7546771E-02  0.1144782E+00
         21   -1    0    0  503  502  0.00000000000E+00  0.00000000000E+00  0.27654870569E+03  0.27654870569E+03  0.00000000000E+00 0.  1.
         21   -1    0    0  501  503 -0.00000000000E+00 -0.00000000000E+00 -0.22551447411E+03  0.22551447411E+03  0.00000000000E+00 0. -1.
          6    1    1    2  501    0  0.11577081784E+02  0.11121494767E+03 -0.11640561264E+03  0.23660528325E+03  0.17300000000E+03 0. -1.
         -6    1    1    2    0  502 -0.11577081784E+02 -0.11121494767E+03  0.16743984422E+03  0.26545789655E+03  0.17300000000E+03 0.  1.
<mgrwt>
<rscale>  2 0.20598979E+03</rscale>
<asrwt>0</asrwt>
<pdfrwt beam="1">  1       21 0.42545955E-01 0.20598979E+03</pdfrwt>
<pdfrwt beam="2">  1       21 0.34694534E-01 0.20598979E+03</pdfrwt>
<totfact> 0.42270167E+04</totfact>
</mgrwt>
</event>
<event>
 4    1  0.3976152E+000  0.1843639E+03  0.7546771E-02  0.1163645E+00
         21   -1    0    0  503  502  0.00000000000E+00  0.00000000000E+00  0.17615629636E+04  0.17615629636E+04  0.00000000000E+00 0.  1.
         21   -1    0    0  501  503 -0.00000000000E+00 -0.00000000000E+00 -0.21220494110E+02  0.21220494110E+02  0.00000000000E+00 0. -1.
          6    1    1    2  501    0  0.50216163279E+02 -0.39234926996E+02  0.60168743690E+03  0.62929946311E+03  0.17300000000E+03 0. -1.
         -6    1    1    2    0  502 -0.50216163279E+02  0.39234926996E+02  0.11386550326E+04  0.11534839946E+04  0.17300000000E+03 0.  1.
<mgrwt>
<rscale>  2 0.18436389E+03</rscale>
<asrwt>0</asrwt>
<pdfrwt beam="1">  1       21 0.27100957E+00 0.18436389E+03</pdfrwt>
<pdfrwt beam="2">  1       21 0.32646928E-02 0.18436389E+03</pdfrwt>
<totfact> 0.27790674E+04</totfact>
</mgrwt>
</event>
<event>
 4    1  0.3976152E+000  0.2378649E+03  0.7546771E-02  0.1121223E+00
         21   -1    0    0  503  502  0.00000000000E+00  0.00000000000E+00  0.31605569297E+03  0.31605569297E+03  0.00000000000E+00 0. -1.
         21   -1    0    0  501  503 -0.00000000000E+00 -0.00000000000E+00 -0.36256403308E+03  0.36256403308E+03  0.00000000000E+00 0.  1.
          6    1    1    2  501    0 -0.48740287740E+02 -0.15580462921E+03 -0.26467596556E+03  0.35585539883E+03  0.17300000000E+03 0.  1.
         -6    1    1    2    0  502  0.48740287740E+02  0.15580462921E+03  0.21816762545E+03  0.32276432722E+03  0.17300000000E+03 0. -1.
<mgrwt>
<rscale>  2 0.23786487E+03</rscale>
<asrwt>0</asrwt>
<pdfrwt beam="1">  1       21 0.48623953E-01 0.23786487E+03</pdfrwt>
<pdfrwt beam="2">  1       21 0.55779082E-01 0.23786487E+03</pdfrwt>
<totfact> 0.11888223E+04</totfact>
</mgrwt>
</event>
<event>
 4    1  0.3976152E+000  0.1940062E+03  0.7546771E-02  0.1154897E+00
         21   -1    0    0  501  502  0.00000000000E+00  0.00000000000E+00  0.22324593344E+04  0.22324593344E+04  0.00000000000E+00 0.  1.
         21   -1    0    0  502  503 -0.00000000000E+00 -0.00000000000E+00 -0.73705800411E+02  0.73705800411E+02  0.00000000000E+00 0. -1.
          6    1    1    2  501    0  0.33049691538E+01  0.87741096979E+02  0.20920287226E+04  0.21010051402E+04  0.17300000000E+03 0.  1.
         -6    1    1    2    0  503 -0.33049691538E+01 -0.87741096979E+02  0.66724811323E+02  0.20515999456E+03  0.17300000000E+03 0. -1.
<mgrwt>
<rscale>  2 0.19400624E+03</rscale>
<asrwt>0</asrwt>
<pdfrwt beam="1">  1       21 0.34345523E+00 0.19400624E+03</pdfrwt>
<pdfrwt beam="2">  1       21 0.11339356E-01 0.19400624E+03</pdfrwt>
<totfact> 0.12382034E+03</totfact>
</mgrwt>
</event>
<event>
 4    1  0.3976152E+000  0.2445329E+03  0.7546771E-02  0.1116809E+00
         21   -1    0    0  503  502  0.00000000000E+00  0.00000000000E+00  0.22678984406E+04  0.22678984406E+04  0.00000000000E+00 0. -1.
         21   -1    0    0  501  503 -0.00000000000E+00 -0.00000000000E+00 -0.26728275035E+02  0.26728275035E+02  0.00000000000E+00 0. -1.
          6    1    1    2  501    0 -0.44789656671E+02 -0.16691680992E+03  0.98708814334E+03  0.10169264170E+04  0.17300000000E+03 0. -1.
         -6    1    1    2    0  502  0.44789656671E+02  0.16691680992E+03  0.12540820222E+04  0.12777002986E+04  0.17300000000E+03 0. -1.
<mgrwt>
<rscale>  2 0.24453289E+03</rscale>
<asrwt>0</asrwt>
<pdfrwt beam="1">  1       21 0.34890730E+00 0.24453289E+03</pdfrwt>
<pdfrwt beam="2">  1       21 0.41120441E-02 0.24453289E+03</pdfrwt>
<totfact> 0.62688441E+03</totfact>
</mgrwt>
</event>
<event>
 4    1  0.3976152E+000  0.2729081E+03  0.7546771E-02  0.1099627E+00
         21   -1    0    0  501  502  0.00000000000E+00  0.00000000000E+00  0.18692048609E+03  0.18692048609E+03  0.00000000000E+00 0. -1.
         21   -1    0    0  502  503 -0.00000000000E+00 -0.00000000000E+00 -0.48443052327E+03  0.48443052327E+03  0.00000000000E+00 0.  1.
          6    1    1    2  501    0 -0.20672021394E+03 -0.42621647230E+02 -0.73389516506E+01  0.27300679822E+03  0.17300000000E+03 0. -1.
         -6    1    1    2    0  503  0.20672021394E+03  0.42621647230E+02 -0.29017108553E+03  0.39834421113E+03  0.17300000000E+03 0.  1.
<mgrwt>
<rscale>  2 0.27290814E+03</rscale>
<asrwt>0</asrwt>
<pdfrwt beam="1">  1       21 0.28756998E-01 0.27290814E+03</pdfrwt>
<pdfrwt beam="2">  1       21 0.74527772E-01 0.27290814E+03</pdfrwt>
<totfact> 0.17870356E+04</totfact>
</mgrwt>
</event>
<event>
 4    1  0.3976152E+000  0.2317692E+03  0.7546771E-02  0.1125401E+00
         21   -1    0    0  503  502  0.00000000000E+00  0.00000000000E+00  0.23645925079E+03  0.23645925079E+03  0.00000000000E+00 0.  1.
         21   -1    0    0  501  503 -0.00000000000E+00 -0.00000000000E+00 -0.27395321658E+03  0.27395321658E+03  0.00000000000E+00 0.  1.
          6    1    1    2  501    0  0.92083584203E+02  0.12372781478E+03 -0.12420706180E+03  0.26295313809E+03  0.17300000000E+03 0.  1.
         -6    1    1    2    0  502 -0.92083584203E+02 -0.12372781478E+03  0.86713096003E+02  0.24745932928E+03  0.17300000000E+03 0.  1.
<mgrwt>
<rscale>  2 0.23176919E+03</rscale>
<asrwt>0</asrwt>
<pdfrwt beam="1">  1       21 0.36378346E-01 0.23176919E+03</pdfrwt>
<pdfrwt beam="2">  1       21 0.42146649E-01 0.23176919E+03</pdfrwt>
<totfact> 0.38729131E+04</totfact>
</mgrwt>
</event>
<event>
 4    1  0.3976152E+000  0.2859052E+03  0.7546771E-02  0.1092507E+00
         21   -1    0    0  503  502  0.00000000000E+00  0.00000000000E+00  0.73233911773E+03  0.73233911773E+03  0.00000000000E+00 0.  1.
         21   -1    0    0  501  503 -0.00000000000E+00 -0.00000000000E+00 -0.31978942565E+03  0.31978942565E+03  0.00000000000E+00 0.  1.
          6    1    1    2  501    0 -0.22638292550E+03 -0.23739166354E+02 -0.21816676840E+03  0.35963664415E+03  0.17300000000E+03 0.  1.
         -6    1    1    2    0  502  0.22638292550E+03  0.23739166354E+02  0.63071646048E+03  0.69249189923E+03  0.17300000000E+03 0.  1.
<mgrwt>
<rscale>  2 0.28590519E+03</rscale>
<asrwt>0</asrwt>
<pdfrwt beam="1">  1       21 0.11266756E+00 0.28590519E+03</pdfrwt>
<pdfrwt beam="2">  1       21 0.49198373E-01 0.28590519E+03</pdfrwt>
<totfact> 0.22644202E+03</totfact>
</mgrwt>
</event>
<event>
 4    1  0.3976152E+000  0.2049065E+03  0.7546771E-02  0.1145664E+00
         21   -1    0    0  501  502  0.00000000000E+00  0.00000000000E+00  0.12111875482E+04  0.12111875482E+04  0.00000000000E+00 0. -1.
         21   -1    0    0  502  503 -0.00000000000E+00 -0.00000000000E+00 -0.48505734206E+02  0.48505734206E+02  0.00000000000E+00 0. -1.
          6    1    1    2  501    0 -0.10980041241E+03 -0.12403922525E+01  0.91778026383E+03  0.94037613848E+03  0.17300000000E+03 0. -1.
         -6    1    1    2    0  503  0.10980041241E+03  0.12403922525E+01  0.24490155019E+03  0.31931714395E+03  0.17300000000E+03 0. -1.
<mgrwt>
<rscale>  2 0.20490649E+03</rscale>
<asrwt>0</asrwt>
<pdfrwt beam="1">  1       21 0.18633652E+00 0.20490649E+03</pdfrwt>
<pdfrwt beam="2">  1       21 0.74624215E-02 0.20490649E+03</pdfrwt>
<totfact> 0.22139167E+04</totfact>
</mgrwt>
</event>
<event>
 4    1  0.3976152E+000  0.2856853E+03  0.7546771E-02  0.1092624E+00
         21   -1    0    0  501  502  0.00000000000E+00  0.00000000000E+00  0.53949897553E+03  0.53949897553E+03  0.00000000000E+00 0.  1.
         21   -1    0    0  502  503 -0.00000000000E+00 -0.00000000000E+00 -0.26608605307E+03  0.26608605307E+03  0.00000000000E+00 0. -1.
          6    1    1    2  501    0  0.21923849686E+03  0.60179716107E+02  0.40128233135E+03  0.49258869881E+03  0.17300000000E+03 0.  1.
         -6    1    1    2    0  503 -0.21923849686E+03 -0.60179716107E+02 -0.12786940889E+03  0.31299632979E+03  0.17300000000E+03 0. -1.
<mgrwt>
<rscale>  2 0.28568535E+03</rscale>
<asrwt>0</asrwt>
<pdfrwt beam="1">  1       21 0.82999842E-01 0.28568535E+03</pdfrwt>
<pdfrwt beam="2">  1       21 0.40936316E-01 0.28568535E+03</pdfrwt>
<totfact> 0.68632055E+03</totfact>
</mgrwt>
</event>
<event>
 4    1  0.3976152E+000  0.2089596E+03  0.7546771E-02  0.1142393E+00
         21   -1    0    0  501  502  0.00000000000E+00  0.00000000000E+00  0.37458459853E+03  0.37458459853E+03  0.00000000000E+00 0. -1.
         21   -1    0    0  502  503 -0.00000000000E+00 -0.00000000000E+00 -0.13165395926E+03  0.13165395926E+03  0.00000000000E+00 0. -1.
          6    1    1    2  501    0 -0.55423492481E+02  0.10326351185E+03  0.20715182773E+03  0.29423799233E+03  0.17300000000E+03 0. -1.
         -6    1    1    2    0  503  0.55423492481E+02 -0.10326351185E+03  0.35778811541E+02  0.21200056546E+03  0.17300000000E+03 0. -1.
<mgrwt>
<rscale>  2 0.20895960E+03</rscale>
<asrwt>0</asrwt>
<pdfrwt beam="1">  1       21 0.57628400E-01 0.20895960E+03</pdfrwt>
<pdfrwt beam="2">  1       21 0.20254455E-01 0.20895960E+03</pdfrwt>
<totfact> 0.63207263E+04</totfact>
</mgrwt>
</event>
<event>
 4    1  0.3976152E+000  0.1927387E+03  0.7546771E-02  0.1156014E+00
         21   -1    0    0  501  502  0.00000000000E+00  0.00000000000E+00  0.14310901328E+03  0.14310901328E+03  0.00000000000E+00 0. -1.
         21   -1    0    0  502  503 -0.00000000000E+00 -0.00000000000E+00 -0.40710085175E+03  0.40710085175E+03  0.00000000000E+00 0. -1.
          6    1    1    2  501    0  0.48170962030E+02 -0.69991273732E+02  0.33609391228E+02  0.19564715986E+03  0.17300000000E+03 0. -1.
         -6    1    1    2    0  503 -0.48170962030E+02  0.69991273732E+02 -0.29760122969E+03  0.35456270517E+03  0.17300000000E+03 0. -1.
<mgrwt>
<rscale>  2 0.19273874E+03</rscale>
<asrwt>0</asrwt>
<pdfrwt beam="1">  1       21 0.22016772E-01 0.19273874E+03</pdfrwt>
<pdfrwt beam="2">  1       21 0.62630899E-01 0.19273874E+03</pdfrwt>
<totfact> 0.45535768E+04</totfact>
</mgrwt>
</event>
<event>
 4    1  0.3976152E+000  0.1895794E+03  0.7546771E-02  0.1158841E+00
         21   -1    0    0  501  502  0.00000000000E+00  0.00000000000E+00  0.62567789322E+03  0.62567789322E+03  0.00000000000E+00 0. -1.
         21   -1    0    0  502  503 -0.00000000000E+00 -0.00000000000E+00 -0.58032446022E+02  0.58032446022E+02  0.00000000000E+00 0.  1.
          6    1    1    2  501    0  0.73636729887E+02  0.24268677992E+02  0.24934724633E+03  0.31323215987E+03  0.17300000000E+03 0.  1.
         -6    1    1    2    0  503 -0.73636729887E+02 -0.24268677992E+02  0.31829820086E+03  0.37047817937E+03  0.17300000000E+03 0. -1.
<mgrwt>
<rscale>  2 0.18957937E+03</rscale>
<asrwt>0</asrwt>
<pdfrwt beam="1">  1       21 0.96258133E-01 0.18957937E+03</pdfrwt>
<pdfrwt beam="2">  1       21 0.89280690E-02 0.18957937E+03</pdfrwt>
<totfact> 0.89099701E+04</totfact>
</mgrwt>
</event>
<event>
 4    1  0.3976152E+000  0.1766261E+03  0.7546771E-02  0.1171109E+00
         21   -1    0    0  501  502  0.00000000000E+00  0.00000000000E+00  0.24566764569E+03  0.24566764569E+03  0.00000000000E+00 0. -1.
         21   -1    0    0  502  503 -0.00000000000E+00 -0.00000000000E+00 -0.14254325933E+03  0.14254325933E+03  0.00000000000E+00 0. -1.
          6    1    1    2  501    0  0.17568694145E+02  0.30969490544E+02  0.11568422295E+03  0.21113883536E+03  0.17300000000E+03 0. -1.
         -6    1    1    2    0  503 -0.17568694145E+02 -0.30969490544E+02 -0.12559836587E+02  0.17707206966E+03  0.17300000000E+03 0. -1.
<mgrwt>
<rscale>  2 0.17662607E+03</rscale>
<asrwt>0</asrwt>
<pdfrwt beam="1">  1       21 0.37795023E-01 0.17662607E+03</pdfrwt>
<pdfrwt beam="2">  1       21 0.21929732E-01 0.17662607E+03</pdfrwt>
<totfact> 0.13182984E+05</totfact>
</mgrwt>
</event>
<event>
 4    1  0.3976152E+000  0.2135126E+03  0.7546771E-02  0.1138814E+00
         21   -1    0    0  503  502  0.00000000000E+00  0.00000000000E+00  0.10779375715E+03  0.10779375715E+03  0.00000000000E+00 0.  1.
         21   -1    0    0  501  503 -0.00000000000E+00 -0.00000000000E+00 -0.54958852931E+03  0.54958852931E+03  0.00000000000E+00 0. -1.
          6    1    1    2  501    0 -0.31994635833E+02 -0.12097510476E+03 -0.37869903491E+03  0.43474198294E+03  0.17300000000E+03 0. -1.
         -6    1    1    2    0  502  0.31994635833E+02  0.12097510476E+03 -0.63095737258E+02  0.22264030352E+03  0.17300000000E+03 0.  1.
<mgrwt>
<rscale>  2 0.21351261E+03</rscale>
<asrwt>0</asrwt>
<pdfrwt beam="1">  1       21 0.16583655E-01 0.21351261E+03</pdfrwt>
<pdfrwt beam="2">  1       21 0.84552081E-01 0.21351261E+03</pdfrwt>
<totfact> 0.39171325E+04</totfact>
</mgrwt>
</event>
<event>
 4    1  0.3976152E+000  0.2019034E+03  0.7546771E-02  0.1148143E+00
         21   -1    0    0  503  502  0.00000000000E+00  0.00000000000E+00  0.24523930554E+02  0.24523930554E+02  0.00000000000E+00 0. -1.
         21   -1    0    0  501  503 -0.00000000000E+00 -0.00000000000E+00 -0.25637001593E+04  0.25637001593E+04  0.00000000000E+00 0.  1.
          6    1    1    2  501    0  0.12629244559E+02 -0.10332710389E+03 -0.20369642562E+04  0.20469461081E+04  0.17300000000E+03 0.  1.
         -6    1    1    2    0  502 -0.12629244559E+02  0.10332710389E+03 -0.50221197252E+03  0.54127798178E+03  0.17300000000E+03 0. -1.
<mgrwt>
<rscale>  2 0.20190341E+03</rscale>
<asrwt>0</asrwt>
<pdfrwt beam="1">  1       21 0.37729134E-02 0.20190341E+03</pdfrwt>
<pdfrwt beam="2">  1       21 0.39441530E+00 0.20190341E+03</pdfrwt>
<totfact> 0.40270854E+03</totfact>
</mgrwt>
</event>
<event>
 4    1  0.3976152E+000  0.1858629E+03  0.7546771E-02  0.1162247E+00
         21   -1    0    0  503  502  0.00000000000E+00  0.00000000000E+00  0.12637114316E+03  0.12637114316E+03  0.00000000000E+00 0.  1.
         21   -1    0    0  501  503 -0.00000000000E+00 -0.00000000000E+00 -0.28220598330E+03  0.28220598330E+03  0.00000000000E+00 0.  1.
          6    1    1    2  501    0  0.59660852894E+02  0.32505366381E+02 -0.11408296796E+03  0.21808241513E+03  0.17300000000E+03 0.  1.
         -6    1    1    2    0  502 -0.59660852894E+02 -0.32505366381E+02 -0.41751872176E+02  0.19049471132E+03  0.17300000000E+03 0.  1.
<mgrwt>
<rscale>  2 0.18586290E+03</rscale>
<asrwt>0</asrwt>
<pdfrwt beam="1">  1       21 0.19441714E-01 0.18586290E+03</pdfrwt>
<pdfrwt beam="2">  1       21 0.43416305E-01 0.18586290E+03</pdfrwt>
<totfact> 0.12438879E+05</totfact>
</mgrwt>
</event>
<event>
 4    1  0.3976152E+000  0.2078755E+03  0.7546771E-02  0.1143259E+00
         21   -1    0    0  503  502  0.00000000000E+00  0.00000000000E+00  0.60838577246E+03  0.60838577246E+03  0.00000000000E+00 0. -1.
         21   -1    0    0  501  503 -0.00000000000E+00 -0.00000000000E+00 -0.17518833981E+03  0.17518833981E+03  0.00000000000E+00 0. -1.
          6    1    1    2  501    0  0.33936926296E+02 -0.11014320634E+03 -0.85500298460E+02  0.22477220003E+03  0.17300000000E+03 0. -1.
         -6    1    1    2    0  502 -0.33936926296E+02  0.11014320634E+03  0.51869773111E+03  0.55880191224E+03  0.17300000000E+03 0. -1.
<mgrwt>
<rscale>  2 0.20787554E+03</rscale>
<asrwt>0</asrwt>
<pdfrwt beam="1">  1       21 0.93597810E-01 0.20787554E+03</pdfrwt>
<pdfrwt beam="2">  1       21 0.26952052E-01 0.20787554E+03</pdfrwt>
<totfact> 0.12450399E+04</totfact>
</mgrwt>
</event>
<event>
 4    1  0.3976152E+000  0.2709609E+03  0.7546771E-02  0.1100731E+00
         21   -1    0    0  503  502  0.00000000000E+00  0.00000000000E+00  0.48396429587E+03  0.48396429587E+03  0.00000000000E+00 0. -1.
         21   -1    0    0  501  503 -0.00000000000E+00 -0.00000000000E+00 -0.21894188493E+03  0.21894188493E+03  0.00000000000E+00 0.  1.
          6    1    1    2  501    0 -0.20700914496E+03 -0.25258604293E+02 -0.62251979498E+02  0.27801994918E+03  0.17300000000E+03 0.  1.
         -6    1    1    2    0  502  0.20700914496E+03  0.25258604293E+02  0.32727439044E+03  0.42488623163E+03  0.17300000000E+03 0. -1.
<mgrwt>
<rscale>  2 0.27096085E+03</rscale>
<asrwt>0</asrwt>
<pdfrwt beam="1">  1       21 0.74456045E-01 0.27096085E+03</pdfrwt>
<pdfrwt beam="2">  1       21 0.33683367E-01 0.27096085E+03</pdfrwt>
<totfact> 0.13120351E+04</totfact>
</mgrwt>
</event>
<event>
 4    1  0.3976152E+000  0.1950492E+03  0.7546771E-02  0.1153985E+00
         21   -1    0    0  503  502  0.00000000000E+00  0.00000000000E+00  0.46892673148E+02  0.46892673148E+02  0.00000000000E+00 0. -1.
         21   -1    0    0  501  503 -0.00000000000E+00 -0.00000000000E+00 -0.89675936765E+03  0.89675936765E+03  0.00000000000E+00 0. -1.
          6    1    1    2  501    0 -0.36238481128E+02  0.82473975545E+02 -0.57058492025E+03  0.60300193646E+03  0.17300000000E+03 0. -1.
         -6    1    1    2    0  502  0.36238481128E+02 -0.82473975545E+02 -0.27928177425E+03  0.34065010434E+03  0.17300000000E+03 0. -1.
<mgrwt>
<rscale>  2 0.19504918E+03</rscale>
<asrwt>0</asrwt>
<pdfrwt beam="1">  1       21 0.72142575E-02 0.19504918E+03</pdfrwt>
<pdfrwt beam="2">  1       21 0.13796298E+00 0.19504918E+03</pdfrwt>
<totfact> 0.53290252E+04</totfact>
</mgrwt>
</event>
<event>
 4    1  0.3976152E+000  0.1980925E+03  0.7546771E-02  0.1151358E+00
         21   -1    0    0  501  502  0.00000000000E+00  0.00000000000E+00  0.50130680821E+02  0.50130680821E+02  0.00000000000E+00 0.  1.
         21   -1    0    0  502  503 -0.00000000000E+00 -0.00000000000E+00 -0.88678573398E+03  0.88678573398E+03  0.00000000000E+00 0.  1.
          6    1    1    2  501    0 -0.35927039640E+02 -0.89559428836E+02 -0.25788582834E+03  0.32518570683E+03  0.17300000000E+03 0.  1.
         -6    1    1    2    0  503  0.35927039640E+02  0.89559428836E+02 -0.57876922482E+03  0.61173070797E+03  0.17300000000E+03 0.  1.
<mgrwt>
<rscale>  2 0.19809251E+03</rscale>
<asrwt>0</asrwt>
<pdfrwt beam="1">  1       21 0.77124128E-02 0.19809251E+03</pdfrwt>
<pdfrwt beam="2">  1       21 0.13642857E+00 0.19809251E+03</pdfrwt>
<totfact> 0.48763528E+04</totfact>
</mgrwt>
</event>
<event>
 4    1  0.3976152E+000  0.2180469E+03  0.7546771E-02  0.1135348E+00
         21   -1    0    0  503  502  0.00000000000E+00  0.00000000000E+00  0.78565084972E+02  0.78565084972E+02  0.00000000000E+00 0. -1.
         21   -1    0    0  501  503 -0.00000000000E+00 -0.00000000000E+00 -0.60903874995E+03  0.60903874995E+03  0.00000000000E+00 0.  1.
          6    1    1    2  501    0 -0.12477105527E+03  0.45250565495E+02 -0.23779938078E+03  0.32263442998E+03  0.17300000000E+03 0. -1.
         -6    1    1    2    0  502  0.12477105527E+03 -0.45250565495E+02 -0.29267428420E+03  0.36496940494E+03  0.17300000000E+03 0. -1.
<mgrwt>
<rscale>  2 0.21804685E+03</rscale>
<asrwt>0</asrwt>
<pdfrwt beam="1">  1       21 0.12086936E-01 0.21804685E+03</pdfrwt>
<pdfrwt beam="2">  1       21 0.93698271E-01 0.21804685E+03</pdfrwt>
<totfact> 0.54741973E+04</totfact>
</mgrwt>
</event>
<event>
 4    1  0.3976152E+000  0.2013857E+03  0.7546771E-02  0.1148575E+00
         21   -1    0    0  503  502  0.00000000000E+00  0.00000000000E+00  0.26467905692E+03  0.26467905692E+03  0.00000000000E+00 0. -1.
         21   -1    0    0  501  503 -0.00000000000E+00 -0.00000000000E+00 -0.32651790384E+03  0.32651790384E+03  0.00000000000E+00 0. -1.
          6    1    1    2  501    0  0.17179629514E+02  0.10164669078E+03 -0.24626481345E+03  0.31812347880E+03  0.17300000000E+03 0. -1.
         -6    1    1    2    0  502 -0.17179629514E+02 -0.10164669078E+03  0.18442596654E+03  0.27307348196E+03  0.17300000000E+03 0. -1.
<mgrwt>
<rscale>  2 0.20138567E+03</rscale>
<asrwt>0</asrwt>
<pdfrwt beam="1">  1       21 0.40719855E-01 0.20138567E+03</pdfrwt>
<pdfrwt beam="2">  1       21 0.50233523E-01 0.20138567E+03</pdfrwt>
<totfact> 0.21811691E+04</totfact>
</mgrwt>
</event>
<event>
 4    1  0.3976152E+000  0.1847940E+03  0.7546771E-02  0.1163242E+00
         21   -1    0    0  501  502  0.00000000000E+00  0.00000000000E+00  0.37468307188E+02  0.37468307188E+02  0.00000000000E+00 0. -1.
         21   -1    0    0  502  503 -0.00000000000E+00 -0.00000000000E+00 -0.10793660315E+04  0.10793660315E+04  0.00000000000E+00 0. -1.
          6    1    1    2  501    0  0.64821050824E+02  0.42511460297E+01 -0.30066771342E+03  0.35291629995E+03  0.17300000000E+03 0. -1.
         -6    1    1    2    0  503 -0.64821050824E+02 -0.42511460297E+01 -0.74123001088E+03  0.76391803873E+03  0.17300000000E+03 0. -1.
<mgrwt>
<rscale>  2 0.18479405E+03</rscale>
<asrwt>0</asrwt>
<pdfrwt beam="1">  1       21 0.57643545E-02 0.18479405E+03</pdfrwt>
<pdfrwt beam="2">  1       21 0.16605633E+00 0.18479405E+03</pdfrwt>
<totfact> 0.48274171E+04</totfact>
</mgrwt>
</event>
<event>
 4    1  0.3976152E+000  0.1760278E+03  0.7546771E-02  0.1171704E+00
         21   -1    0    0  501  502  0.00000000000E+00  0.00000000000E+00  0.16717045490E+03  0.16717045490E+03  0.00000000000E+00 0.  1.
         21   -1    0    0  502  503 -0.00000000000E+00 -0.00000000000E+00 -0.27233884907E+03  0.27233884907E+03  0.00000000000E+00 0.  1.
          6    1    1    2  501    0 -0.30640784775E+02  0.10859910731E+02  0.71610727578E+02  0.19003655348E+03  0.17300000000E+03 0.  1.
         -6    1    1    2    0  503  0.30640784775E+02 -0.10859910731E+02 -0.17677912175E+03  0.24947275049E+03  0.17300000000E+03 0.  1.
<mgrwt>
<rscale>  2 0.17602783E+03</rscale>
<asrwt>0</asrwt>
<pdfrwt beam="1">  1       21 0.25718531E-01 0.17602783E+03</pdfrwt>
<pdfrwt beam="2">  1       21 0.41898285E-01 0.17602783E+03</pdfrwt>
<totfact> 0.79212355E+04</totfact>
</mgrwt>
</event>
<event>
 4    1  0.3976152E+000  0.1863449E+03  0.7546771E-02  0.1161800E+00
         21   -1    0    0  501  502  0.00000000000E+00  0.00000000000E+00  0.28118714231E+03  0.28118714231E+03  0.00000000000E+00 0. -1.
         21   -1    0    0  502  503 -0.00000000000E+00 -0.00000000000E+00 -0.17093690103E+03  0.17093690103E+03  0.00000000000E+00 0. -1.
          6    1    1    2  501    0  0.41370064177E+02  0.55533124024E+02  0.17422290811E+03  0.25510396270E+03  0.17300000000E+03 0. -1.
         -6    1    1    2    0  503 -0.41370064177E+02 -0.55533124024E+02 -0.63972666827E+02  0.19702008064E+03  0.17300000000E+03 0. -1.
<mgrwt>
<rscale>  2 0.18634487E+03</rscale>
<asrwt>0</asrwt>
<pdfrwt beam="1">  1       21 0.43259560E-01 0.18634487E+03</pdfrwt>
<pdfrwt beam="2">  1       21 0.26297985E-01 0.18634487E+03</pdfrwt>
<totfact> 0.70816102E+04</totfact>
</mgrwt>
</event>
<event>
 4    1  0.3976152E+000  0.1886666E+03  0.7546771E-02  0.1159669E+00
         21   -1    0    0  501  502  0.00000000000E+00  0.00000000000E+00  0.41913343928E+03  0.41913343928E+03  0.00000000000E+00 0. -1.
         21   -1    0    0  502  503 -0.00000000000E+00 -0.00000000000E+00 -0.85725286708E+02  0.85725286708E+02  0.00000000000E+00 0. -1.
          6    1    1    2  501    0  0.69527406156E+02  0.28845077415E+02  0.19108691569E+03  0.26853176357E+03  0.17300000000E+03 0. -1.
         -6    1    1    2    0  503 -0.69527406156E+02 -0.28845077415E+02  0.14232123688E+03  0.23632696242E+03  0.17300000000E+03 0. -1.
<mgrwt>
<rscale>  2 0.18866663E+03</rscale>
<asrwt>0</asrwt>
<pdfrwt beam="1">  1       21 0.64482066E-01 0.18866663E+03</pdfrwt>
<pdfrwt beam="2">  1       21 0.13188506E-01 0.18866663E+03</pdfrwt>
<totfact> 0.11000817E+05</totfact>
</mgrwt>
</event>
<event>
 4    1  0.3976152E+000  0.2624062E+03  0.7546771E-02  0.1105706E+00
         21   -1    0    0  501  502  0.00000000000E+00  0.00000000000E+00  0.10395675470E+04  0.10395675470E+04  0.00000000000E+00 0. -1.
         21   -1    0    0  502  503 -0.00000000000E+00 -0.00000000000E+00 -0.10994705275E+03  0.10994705275E+03  0.00000000000E+00 0.  1.
          6    1    1    2  501    0 -0.85107728103E+02 -0.17800189565E+03  0.82720955303E+03  0.86783215247E+03  0.17300000000E+03 0. -1.
         -6    1    1    2    0  503  0.85107728103E+02  0.17800189565E+03  0.10241094127E+03  0.28168244733E+03  0.17300000000E+03 0. -1.
<mgrwt>
<rscale>  2 0.26240617E+03</rscale>
<asrwt>0</asrwt>
<pdfrwt beam="1">  1       21 0.15993346E+00 0.26240617E+03</pdfrwt>
<pdfrwt beam="2">  1       21 0.16914932E-01 0.26240617E+03</pdfrwt>
<totfact> 0.75523929E+03</totfact>
</mgrwt>
</event>
<event>
 4    1  0.3976152E+000  0.1801758E+03  0.7546771E-02  0.1167633E+00
         21   -1    0    0  501  502  0.00000000000E+00  0.00000000000E+00  0.95784545677E+02  0.95784545677E+02  0.00000000000E+00 0. -1.
         21   -1    0    0  502  503 -0.00000000000E+00 -0.00000000000E+00 -0.38243632064E+03  0.38243632064E+03  0.00000000000E+00 0. -1.
          6    1    1    2  501    0 -0.49059862614E+02  0.11289165695E+02 -0.62668500071E+02  0.19076335152E+03  0.17300000000E+03 0. -1.
         -6    1    1    2    0  503  0.49059862614E+02 -0.11289165695E+02 -0.22398327489E+03  0.28745751479E+03  0.17300000000E+03 0. -1.
<mgrwt>
<rscale>  2 0.18017579E+03</rscale>
<asrwt>0</asrwt>
<pdfrwt beam="1">  1       21 0.14736084E-01 0.18017579E+03</pdfrwt>
<pdfrwt beam="2">  1       21 0.58836356E-01 0.18017579E+03</pdfrwt>
<totfact> 0.10999309E+05</totfact>
</mgrwt>
</event>
<event>
 4    1  0.3976152E+000  0.1731310E+03  0.7546771E-02  0.1174621E+00
         21   -1    0    0  501  502  0.00000000000E+00  0.00000000000E+00  0.41475172601E+03  0.41475172601E+03  0.00000000000E+00 0.  1.
         21   -1    0    0  502  503 -0.00000000000E+00 -0.00000000000E+00 -0.83079080510E+02  0.83079080510E+02  0.00000000000E+00 0.  1.
          6    1    1    2  501    0  0.56421012575E+01 -0.36772066709E+01  0.25561812080E+03  0.30873124046E+03  0.17300000000E+03 0.  1.
         -6    1    1    2    0  503 -0.56421012575E+01  0.36772066709E+01  0.76054524698E+02  0.18909956606E+03  0.17300000000E+03 0.  1.
<mgrwt>
<rscale>  2 0.17313103E+03</rscale>
<asrwt>0</asrwt>
<pdfrwt beam="1">  1       21 0.63807957E-01 0.17313103E+03</pdfrwt>
<pdfrwt beam="2">  1       21 0.12781397E-01 0.17313103E+03</pdfrwt>
<totfact> 0.11975802E+05</totfact>
</mgrwt>
</event>
<event>
 4    1  0.3976152E+000  0.1916638E+03  0.7546771E-02  0.1156969E+00
         21   -1    0    0  503  502  0.00000000000E+00  0.00000000000E+00  0.28859765413E+04  0.28859765413E+04  0.00000000000E+00 0. -1.
         21   -1    0    0  501  503 -0.00000000000E+00 -0.00000000000E+00 -0.12740571442E+02  0.12740571442E+02  0.00000000000E+00 0.  1.
          6    1    1    2  501    0 -0.42036874151E+02  0.70985235821E+02  0.13925526991E+04  0.14056806259E+04  0.17300000000E+03 0.  1.
         -6    1    1    2    0  502  0.42036874151E+02 -0.70985235821E+02  0.14806832708E+04  0.14930364868E+04  0.17300000000E+03 0. -1.
<mgrwt>
<rscale>  2 0.19166377E+03</rscale>
<asrwt>0</asrwt>
<pdfrwt beam="1">  1       21 0.44399587E+00 0.19166377E+03</pdfrwt>
<pdfrwt beam="2">  1       21 0.19600902E-02 0.19166377E+03</pdfrwt>
<totfact> 0.58053247E+03</totfact>
</mgrwt>
</event>
<event>
 4    1  0.3976152E+000  0.1874438E+03  0.7546771E-02  0.1160787E+00
         21   -1    0    0  503  502  0.00000000000E+00  0.00000000000E+00  0.17049769499E+03  0.17049769499E+03  0.00000000000E+00 0.  1.
         21   -1    0    0  501  503 -0.00000000000E+00 -0.00000000000E+00 -0.20774658362E+03  0.20774658362E+03  0.00000000000E+00 0.  1.
          6    1    1    2  501    0 -0.63421156481E+01  0.71874616167E+02 -0.35592739581E+02  0.19079314975E+03  0.17300000000E+03 0. -1.
         -6    1    1    2    0  502  0.63421156481E+01 -0.71874616167E+02 -0.16561490512E+01  0.18745112886E+03  0.17300000000E+03 0. -1.
<mgrwt>
<rscale>  2 0.18744381E+03</rscale>
<asrwt>0</asrwt>
<pdfrwt beam="1">  1       21 0.26230415E-01 0.18744381E+03</pdfrwt>
<pdfrwt beam="2">  1       21 0.31961013E-01 0.18744381E+03</pdfrwt>
<totfact> 0.13030631E+05</totfact>
</mgrwt>
</event>
<event>
 4    1  0.3976152E+000  0.1866861E+03  0.7546771E-02  0.1161485E+00
         21   -1    0    0  503  502  0.00000000000E+00  0.00000000000E+00  0.91884339903E+03  0.91884339903E+03  0.00000000000E+00 0. -1.
         21   -1    0    0  501  503 -0.00000000000E+00 -0.00000000000E+00 -0.38853772487E+02  0.38853772487E+02  0.00000000000E+00 0. -1.
          6    1    1    2  501    0 -0.69739452218E+02 -0.76889243243E+01  0.36615865702E+03  0.41100349495E+03  0.17300000000E+03 0. -1.
         -6    1    1    2    0  502  0.69739452218E+02  0.76889243243E+01  0.51383096952E+03  0.54669367656E+03  0.17300000000E+03 0. -1.
<mgrwt>
<rscale>  2 0.18668613E+03</rscale>
<asrwt>0</asrwt>
<pdfrwt beam="1">  1       21 0.14136051E+00 0.18668613E+03</pdfrwt>
<pdfrwt beam="2">  1       21 0.59775041E-02 0.18668613E+03</pdfrwt>
<totfact> 0.69464870E+04</totfact>
</mgrwt>
</event>
<event>
 4    1  0.3976152E+000  0.3019755E+03  0.7546771E-02  0.1084257E+00
         21   -1    0    0  501  502  0.00000000000E+00  0.00000000000E+00  0.72635356624E+03  0.72635356624E+03  0.00000000000E+00 0. -1.
         21   -1    0    0  502  503 -0.00000000000E+00 -0.00000000000E+00 -0.12635766076E+03  0.12635766076E+03  0.00000000000E+00 0. -1.
          6    1    1    2  501    0  0.22399476208E+03 -0.10529255667E+03  0.33421560927E+03  0.45043229170E+03  0.17300000000E+03 0. -1.
         -6    1    1    2    0  503 -0.22399476208E+03  0.10529255667E+03  0.26578029621E+03  0.40227893530E+03  0.17300000000E+03 0. -1.
<mgrwt>
<rscale>  2 0.30197546E+03</rscale>
<asrwt>0</asrwt>
<pdfrwt beam="1">  1       21 0.11174670E+00 0.30197546E+03</pdfrwt>
<pdfrwt beam="2">  1       21 0.19439641E-01 0.30197546E+03</pdfrwt>
<totfact> 0.14413454E+04</totfact>
</mgrwt>
</event>
<event>
 4    1  0.3976152E+000  0.1806073E+03  0.7546771E-02  0.1167217E+00
         21   -1    0    0  501  502  0.00000000000E+00  0.00000000000E+00  0.14121543097E+03  0.14121543097E+03  0.00000000000E+00 0.  1.
         21   -1    0    0  502  503 -0.00000000000E+00 -0.00000000000E+00 -0.41739436325E+03  0.41739436325E+03  0.00000000000E+00 0.  1.
          6    1    1    2  501    0 -0.46592227367E+02  0.22785273017E+02  0.48564047127E+02  0.18702264834E+03  0.17300000000E+03 0.  1.
         -6    1    1    2    0  503  0.46592227367E+02 -0.22785273017E+02 -0.32474297941E+03  0.37158714589E+03  0.17300000000E+03 0.  1.
<mgrwt>
<rscale>  2 0.18060732E+03</rscale>
<asrwt>0</asrwt>
<pdfrwt beam="1">  1       21 0.21725451E-01 0.18060732E+03</pdfrwt>
<pdfrwt beam="2">  1       21 0.64214517E-01 0.18060732E+03</pdfrwt>
<totfact> 0.44494356E+04</totfact>
</mgrwt>
</event>
<event>
 4    1  0.3976152E+000  0.2001638E+03  0.7546771E-02  0.1149601E+00
         21   -1    0    0  501  502  0.00000000000E+00  0.00000000000E+00  0.86051265579E+03  0.86051265579E+03  0.00000000000E+00 0.  1.
         21   -1    0    0  502  503 -0.00000000000E+00 -0.00000000000E+00 -0.51330402163E+02  0.51330402163E+02  0.00000000000E+00 0.  1.
          6    1    1    2  501    0 -0.23446733702E+02  0.97912188456E+02  0.54357877472E+03  0.57926110719E+03  0.17300000000E+03 0.  1.
         -6    1    1    2    0  503  0.23446733702E+02 -0.97912188456E+02  0.26560347891E+03  0.33258195077E+03  0.17300000000E+03 0.  1.
<mgrwt>
<rscale>  2 0.20016380E+03</rscale>
<asrwt>0</asrwt>
<pdfrwt beam="1">  1       21 0.13238655E+00 0.20016380E+03</pdfrwt>
<pdfrwt beam="2">  1       21 0.78969856E-02 0.20016380E+03</pdfrwt>
<totfact> 0.50462546E+04</totfact>
</mgrwt>
</event>
<event>
 4    1  0.3976152E+000  0.1835480E+03  0.7546771E-02  0.1164413E+00
         21   -1    0    0  503  502  0.00000000000E+00  0.00000000000E+00  0.13972467674E+03  0.13972467674E+03  0.00000000000E+00 0.  1.
         21   -1    0    0  501  503 -0.00000000000E+00 -0.00000000000E+00 -0.31193023257E+03  0.31193023257E+03  0.00000000000E+00 0. -1.
          6    1    1    2  501    0  0.57921931498E+02 -0.20147800060E+02 -0.19370163260E+03  0.26685240577E+03  0.17300000000E+03 0. -1.
         -6    1    1    2    0  502 -0.57921931498E+02  0.20147800060E+02  0.21496076777E+02  0.18480250353E+03  0.17300000000E+03 0.  1.
<mgrwt>
<rscale>  2 0.18354804E+03</rscale>
<asrwt>0</asrwt>
<pdfrwt beam="1">  1       21 0.21496104E-01 0.18354804E+03</pdfrwt>
<pdfrwt beam="2">  1       21 0.47989266E-01 0.18354804E+03</pdfrwt>
<totfact> 0.83981646E+04</totfact>
</mgrwt>
</event>
<event>
 4    1  0.3976152E+000  0.1778535E+03  0.7546771E-02  0.1169897E+00
         21   -1    0    0  501  502  0.00000000000E+00  0.00000000000E+00  0.17688893061E+03  0.17688893061E+03  0.00000000000E+00 0. -1.
         21   -1    0    0  502  503 -0.00000000000E+00 -0.00000000000E+00 -0.48328959946E+03  0.48328959946E+03  0.00000000000E+00 0. -1.
          6    1    1    2  501    0 -0.14010313579E+02 -0.38814480062E+02  0.10879727524E+03  0.20849148627E+03  0.17300000000E+03 0. -1.
         -6    1    1    2    0  503  0.14010313579E+02  0.38814480062E+02 -0.41519794409E+03  0.45168704379E+03  0.17300000000E+03 0. -1.
<mgrwt>
<rscale>  2 0.17785346E+03</rscale>
<asrwt>0</asrwt>
<pdfrwt beam="1">  1       21 0.27213682E-01 0.17785346E+03</pdfrwt>
<pdfrwt beam="2">  1       21 0.74352246E-01 0.17785346E+03</pdfrwt>
<totfact> 0.21051655E+04</totfact>
</mgrwt>
</event>
<event>
 4    1  0.3976152E+000  0.1953055E+03  0.7546771E-02  0.1153761E+00
         21   -1    0    0  503  502  0.00000000000E+00  0.00000000000E+00  0.44571836094E+02  0.44571836094E+02  0.00000000000E+00 0.  1.
         21   -1    0    0  501  503 -0.00000000000E+00 -0.00000000000E+00 -0.11298001372E+04  0.11298001372E+04  0.00000000000E+00 0.  1.
          6    1    1    2  501    0  0.35745458140E+02 -0.83291586133E+02 -0.83178632848E+03  0.85440781969E+03  0.17300000000E+03 0.  1.
         -6    1    1    2    0  502 -0.35745458140E+02  0.83291586133E+02 -0.25344197259E+03  0.31996415356E+03  0.17300000000E+03 0.  1.
<mgrwt>
<rscale>  2 0.19530547E+03</rscale>
<asrwt>0</asrwt>
<pdfrwt beam="1">  1       21 0.68572059E-02 0.19530547E+03</pdfrwt>
<pdfrwt beam="2">  1       21 0.17381540E+00 0.19530547E+03</pdfrwt>
<totfact> 0.31401920E+04</totfact>
</mgrwt>
</event>
<event>
 4    1  0.3976152E+000  0.1881721E+03  0.7546771E-02  0.1160120E+00
         21   -1    0    0  503  502  0.00000000000E+00  0.00000000000E+00  0.23388313603E+03  0.23388313603E+03  0.00000000000E+00 0.  1.
         21   -1    0    0  501  503 -0.00000000000E+00 -0.00000000000E+00 -0.18118699612E+03  0.18118699612E+03  0.00000000000E+00 0.  1.
          6    1    1    2  501    0  0.12276457218E+02  0.73000129576E+02 -0.57806556482E+02  0.19685103071E+03  0.17300000000E+03 0.  1.
         -6    1    1    2    0  502 -0.12276457218E+02 -0.73000129576E+02  0.11050269639E+03  0.21821910143E+03  0.17300000000E+03 0.  1.
<mgrwt>
<rscale>  2 0.18817208E+03</rscale>
<asrwt>0</asrwt>
<pdfrwt beam="1">  1       21 0.35982021E-01 0.18817208E+03</pdfrwt>
<pdfrwt beam="2">  1       21 0.27874922E-01 0.18817208E+03</pdfrwt>
<totfact> 0.91692588E+04</totfact>
</mgrwt>
</event>
<event>
 4    1  0.3976152E+000  0.2715640E+03  0.7546771E-02  0.1100388E+00
         21   -1    0    0  503  502  0.00000000000E+00  0.00000000000E+00  0.35689609732E+03  0.35689609732E+03  0.00000000000E+00 0. -1.
         21   -1    0    0  501  503 -0.00000000000E+00 -0.00000000000E+00 -0.21802340226E+03  0.21802340226E+03  0.00000000000E+00 0. -1.
          6    1    1    2  501    0 -0.16420086534E+03  0.12983093012E+03  0.37357681301E+01  0.27158967314E+03  0.17300000000E+03 0. -1.
         -6    1    1    2    0  502  0.16420086534E+03 -0.12983093012E+03  0.13513692693E+03  0.30332982645E+03  0.17300000000E+03 0. -1.
<mgrwt>
<rscale>  2 0.27156398E+03</rscale>
<asrwt>0</asrwt>
<pdfrwt beam="1">  1       21 0.54907092E-01 0.27156398E+03</pdfrwt>
<pdfrwt beam="2">  1       21 0.33542062E-01 0.27156398E+03</pdfrwt>
<totfact> 0.25772069E+04</totfact>
</mgrwt>
</event>
<event>
 4    1  0.3976152E+000  0.1988777E+03  0.7546771E-02  0.1150689E+00
         21   -1    0    0  503  502  0.00000000000E+00  0.00000000000E+00  0.30717218762E+03  0.30717218762E+03  0.00000000000E+00 0. -1.
         21   -1    0    0  501  503 -0.00000000000E+00 -0.00000000000E+00 -0.13066122052E+03  0.13066122052E+03  0.00000000000E+00 0. -1.
          6    1    1    2  501    0 -0.92626173115E+02 -0.32306698080E+02  0.61867311626E+02  0.20827840727E+03  0.17300000000E+03 0. -1.
         -6    1    1    2    0  502  0.92626173115E+02  0.32306698080E+02  0.11464365547E+03  0.22955500087E+03  0.17300000000E+03 0. -1.
<mgrwt>
<rscale>  2 0.19887768E+03</rscale>
<asrwt>0</asrwt>
<pdfrwt beam="1">  1       21 0.47257259E-01 0.19887768E+03</pdfrwt>
<pdfrwt beam="2">  1       21 0.20101726E-01 0.19887768E+03</pdfrwt>
<totfact> 0.97707963E+04</totfact>
</mgrwt>
</event>
<event>
 4    1  0.3976152E+000  0.2030650E+03  0.7546771E-02  0.1147178E+00
         21   -1    0    0  501  502  0.00000000000E+00  0.00000000000E+00  0.79700332355E+02  0.79700332355E+02  0.00000000000E+00 0.  1.
         21   -1    0    0  502  503 -0.00000000000E+00 -0.00000000000E+00 -0.52436669932E+03  0.52436669932E+03  0.00000000000E+00 0. -1.
          6    1    1    2  501    0  0.10276995615E+03 -0.27290080949E+02 -0.18747117713E+03  0.27637086435E+03  0.17300000000E+03 0.  1.
         -6    1    1    2    0  503 -0.10276995615E+03  0.27290080949E+02 -0.25719518983E+03  0.32769616732E+03  0.17300000000E+03 0. -1.
<mgrwt>
<rscale>  2 0.20306504E+03</rscale>
<asrwt>0</asrwt>
<pdfrwt beam="1">  1       21 0.12261590E-01 0.20306504E+03</pdfrwt>
<pdfrwt beam="2">  1       21 0.80671799E-01 0.20306504E+03</pdfrwt>
<totfact> 0.75839554E+04</totfact>
</mgrwt>
</event>
<event>
 4    1  0.3976152E+000  0.1743984E+03  0.7546771E-02  0.1173337E+00
         21   -1    0    0  503  502  0.00000000000E+00  0.00000000000E+00  0.88546637603E+02  0.88546637603E+02  0.00000000000E+00 0.  1.
         21   -1    0    0  501  503 -0.00000000000E+00 -0.00000000000E+00 -0.39276716794E+03  0.39276716794E+03  0.00000000000E+00 0.  1.
          6    1    1    2  501    0  0.14981470668E+02 -0.16166175640E+02 -0.23735318651E+03  0.29453577855E+03  0.17300000000E+03 0.  1.
         -6    1    1    2    0  502 -0.14981470668E+02  0.16166175640E+02 -0.66867343829E+02  0.18677802700E+03  0.17300000000E+03 0.  1.
<mgrwt>
<rscale>  2 0.17439836E+03</rscale>
<asrwt>0</asrwt>
<pdfrwt beam="1">  1       21 0.13622560E-01 0.17439836E+03</pdfrwt>
<pdfrwt beam="2">  1       21 0.60425718E-01 0.17439836E+03</pdfrwt>
<totfact> 0.12002304E+05</totfact>
</mgrwt>
</event>
<event>
 4    1  0.3976152E+000  0.1849588E+03  0.7546771E-02  0.1163088E+00
         21   -1    0    0  503  502  0.00000000000E+00  0.00000000000E+00  0.70440917308E+03  0.70440917308E+03  0.00000000000E+00 0.  1.
         21   -1    0    0  501  503 -0.00000000000E+00 -0.00000000000E+00 -0.52738669300E+02  0.52738669300E+02  0.00000000000E+00 0.  1.
          6    1    1    2  501    0 -0.50355509490E+02 -0.41774109036E+02  0.21933856093E+03  0.28691315382E+03  0.17300000000E+03 0.  1.
         -6    1    1    2    0  502  0.50355509490E+02  0.41774109036E+02  0.43233194285E+03  0.47023468857E+03  0.17300000000E+03 0.  1.
<mgrwt>
<rscale>  2 0.18495879E+03</rscale>
<asrwt>0</asrwt>
<pdfrwt beam="1">  1       21 0.10837064E+00 0.18495879E+03</pdfrwt>
<pdfrwt beam="2">  1       21 0.81136419E-02 0.18495879E+03</pdfrwt>
<totfact> 0.79553575E+04</totfact>
</mgrwt>
</event>
<event>
 4    1  0.3976152E+000  0.2133076E+03  0.7546771E-02  0.1138973E+00
         21   -1    0    0  501  502  0.00000000000E+00  0.00000000000E+00  0.98310165800E+02  0.98310165800E+02  0.00000000000E+00 0.  1.
         21   -1    0    0  502  503 -0.00000000000E+00 -0.00000000000E+00 -0.57448984690E+03  0.57448984690E+03  0.00000000000E+00 0. -1.
          6    1    1    2  501    0  0.11907387436E+03 -0.37316589128E+02 -0.89777006764E+02  0.23143039196E+03  0.17300000000E+03 0.  1.
         -6    1    1    2    0  503 -0.11907387436E+03  0.37316589128E+02 -0.38640267433E+03  0.44136962074E+03  0.17300000000E+03 0. -1.
<mgrwt>
<rscale>  2 0.21330756E+03</rscale>
<asrwt>0</asrwt>
<pdfrwt beam="1">  1       21 0.15124641E-01 0.21330756E+03</pdfrwt>
<pdfrwt beam="2">  1       21 0.88383053E-01 0.21330756E+03</pdfrwt>
<totfact> 0.41882671E+04</totfact>
</mgrwt>
</event>
<event>
 4    1  0.3976152E+000  0.2059488E+03  0.7546771E-02  0.1144815E+00
         21   -1    0    0  501  502  0.00000000000E+00  0.00000000000E+00  0.45699120008E+03  0.45699120008E+03  0.00000000000E+00 0. -1.
         21   -1    0    0  502  503 -0.00000000000E+00 -0.00000000000E+00 -0.13706068873E+03  0.13706068873E+03  0.00000000000E+00 0. -1.
          6    1    1    2  501    0  0.63580528519E+02 -0.91888213147E+02  0.32872973542E+03  0.38791515345E+03  0.17300000000E+03 0. -1.
         -6    1    1    2    0  503 -0.63580528519E+02  0.91888213147E+02 -0.87992240699E+01  0.20613673536E+03  0.17300000000E+03 0. -1.
<mgrwt>
<rscale>  2 0.20594885E+03</rscale>
<asrwt>0</asrwt>
<pdfrwt beam="1">  1       21 0.70306338E-01 0.20594885E+03</pdfrwt>
<pdfrwt beam="2">  1       21 0.21086260E-01 0.20594885E+03</pdfrwt>
<totfact> 0.38099358E+04</totfact>
</mgrwt>
</event>
<event>
 4    1  0.3976152E+000  0.2761991E+03  0.7546771E-02  0.1097783E+00
         21   -1    0    0  501  502  0.00000000000E+00  0.00000000000E+00  0.16541451439E+03  0.16541451439E+03  0.00000000000E+00 0.  1.
         21   -1    0    0  502  503 -0.00000000000E+00 -0.00000000000E+00 -0.55790649900E+03  0.55790649900E+03  0.00000000000E+00 0. -1.
          6    1    1    2  501    0 -0.31260983892E+02  0.21302503710E+03 -0.45657274752E+02  0.27994732055E+03  0.17300000000E+03 0.  1.
         -6    1    1    2    0  503  0.31260983892E+02 -0.21302503710E+03 -0.34683470985E+03  0.44337369284E+03  0.17300000000E+03 0. -1.
<mgrwt>
<rscale>  2 0.27619905E+03</rscale>
<asrwt>0</asrwt>
<pdfrwt beam="1">  1       21 0.25448387E-01 0.27619905E+03</pdfrwt>
<pdfrwt beam="2">  1       21 0.85831769E-01 0.27619905E+03</pdfrwt>
<totfact> 0.16391060E+04</totfact>
</mgrwt>
</event>
<event>
 4    1  0.3976152E+000  0.2275931E+03  0.7546771E-02  0.1128345E+00
         21   -1    0    0  501  502  0.00000000000E+00  0.00000000000E+00  0.55135842125E+03  0.55135842125E+03  0.00000000000E+00 0.  1.
         21   -1    0    0  502  503 -0.00000000000E+00 -0.00000000000E+00 -0.10299415298E+03  0.10299415298E+03  0.00000000000E+00 0. -1.
          6    1    1    2  501    0  0.13755779884E+03 -0.54290713317E+02  0.32114926318E+03  0.39361844319E+03  0.17300000000E+03 0.  1.
         -6    1    1    2    0  503 -0.13755779884E+03  0.54290713317E+02  0.12721500509E+03  0.26073413105E+03  0.17300000000E+03 0. -1.
<mgrwt>
<rscale>  2 0.22759312E+03</rscale>
<asrwt>0</asrwt>
<pdfrwt beam="1">  1       21 0.84824371E-01 0.22759312E+03</pdfrwt>
<pdfrwt beam="2">  1       21 0.15845255E-01 0.22759312E+03</pdfrwt>
<totfact> 0.41992157E+04</totfact>
</mgrwt>
</event>
<event>
 4    1  0.3976152E+000  0.2164838E+03  0.7546771E-02  0.1136532E+00
         21   -1    0    0  501  502  0.00000000000E+00  0.00000000000E+00  0.29212170769E+03  0.29212170769E+03  0.00000000000E+00 0. -1.
         21   -1    0    0  502  503 -0.00000000000E+00 -0.00000000000E+00 -0.29369652677E+03  0.29369652677E+03  0.00000000000E+00 0. -1.
          6    1    1    2  501    0 -0.88256764193E+02  0.95639936002E+02  0.19651985970E+03  0.29237870825E+03  0.17300000000E+03 0. -1.
         -6    1    1    2    0  503  0.88256764193E+02 -0.95639936002E+02 -0.19809467877E+03  0.29343952621E+03  0.17300000000E+03 0. -1.
<mgrwt>
<rscale>  2 0.21648384E+03</rscale>
<asrwt>0</asrwt>
<pdfrwt beam="1">  1       21 0.44941801E-01 0.21648384E+03</pdfrwt>
<pdfrwt beam="2">  1       21 0.45184081E-01 0.21648384E+03</pdfrwt>
<totfact> 0.22022772E+04</totfact>
</mgrwt>
</event>
<event>
 4    1  0.3976152E+000  0.1804519E+03  0.7546771E-02  0.1167366E+00
         21   -1    0    0  503  502  0.00000000000E+00  0.00000000000E+00  0.31984390677E+03  0.31984390677E+03  0.00000000000E+00 0. -1.
         21   -1    0    0  501  503 -0.00000000000E+00 -0.00000000000E+00 -0.20503014018E+03  0.20503014018E+03  0.00000000000E+00 0.  1.
          6    1    1    2  501    0  0.80423800752E+01  0.50687386074E+02 -0.12880235139E+03  0.22170461589E+03  0.17300000000E+03 0.  1.
         -6    1    1    2    0  502 -0.80423800752E+01 -0.50687386074E+02  0.24361611798E+03  0.30316943105E+03  0.17300000000E+03 0. -1.
<mgrwt>
<rscale>  2 0.18045191E+03</rscale>
<asrwt>0</asrwt>
<pdfrwt beam="1">  1       21 0.49206755E-01 0.18045191E+03</pdfrwt>
<pdfrwt beam="2">  1       21 0.31543098E-01 0.18045191E+03</pdfrwt>
<totfact> 0.38295516E+04</totfact>
</mgrwt>
</event>
<event>
 4    1  0.3976152E+000  0.1792060E+03  0.7546771E-02  0.1168574E+00
         21   -1    0    0  503  502  0.00000000000E+00  0.00000000000E+00  0.59634725187E+03  0.59634725187E+03  0.00000000000E+00 0. -1.
         21   -1    0    0  501  503 -0.00000000000E+00 -0.00000000000E+00 -0.64724966939E+02  0.64724966939E+02  0.00000000000E+00 0. -1.
          6    1    1    2  501    0  0.27877166158E+02  0.37531879474E+02  0.13033979753E+03  0.22159251159E+03  0.17300000000E+03 0.  1.
         -6    1    1    2    0  502 -0.27877166158E+02 -0.37531879474E+02  0.40128248740E+03  0.43947970723E+03  0.17300000000E+03 0.  1.
<mgrwt>
<rscale>  2 0.17920597E+03</rscale>
<asrwt>0</asrwt>
<pdfrwt beam="1">  1       21 0.91745727E-01 0.17920597E+03</pdfrwt>
<pdfrwt beam="2">  1       21 0.99576876E-02 0.17920597E+03</pdfrwt>
<totfact> 0.82622484E+04</totfact>
</mgrwt>
</event>
<event>
 4    1  0.3976152E+000  0.3395172E+03  0.7546771E-02  0.1067002E+00
         21   -1    0    0  501  502  0.00000000000E+00  0.00000000000E+00  0.17562077612E+03  0.17562077612E+03  0.00000000000E+00 0.  1.
         21   -1    0    0  502  503 -0.00000000000E+00 -0.00000000000E+00 -0.12118290532E+04  0.12118290532E+04  0.00000000000E+00 0. -1.
          6    1    1    2  501    0  0.38980052902E+01  0.29210916993E+03 -0.48433742279E+02  0.34295449989E+03  0.17300000000E+03 0.  1.
         -6    1    1    2    0  503 -0.38980052902E+01 -0.29210916993E+03 -0.98777453483E+03  0.10444953295E+04  0.17300000000E+03 0. -1.
<mgrwt>
<rscale>  2 0.33951725E+03</rscale>
<asrwt>0</asrwt>
<pdfrwt beam="1">  1       21 0.27018582E-01 0.33951725E+03</pdfrwt>
<pdfrwt beam="2">  1       21 0.18643523E+00 0.33951725E+03</pdfrwt>
<totfact> 0.19220465E+03</totfact>
</mgrwt>
</event>
<event>
 4    1  0.3976152E+000  0.1890160E+03  0.7546771E-02  0.1159352E+00
         21   -1    0    0  503  502  0.00000000000E+00  0.00000000000E+00  0.85512176804E+03  0.85512176804E+03  0.00000000000E+00 0. -1.
         21   -1    0    0  501  503 -0.00000000000E+00 -0.00000000000E+00 -0.43145828938E+02  0.43145828938E+02  0.00000000000E+00 0. -1.
          6    1    1    2  501    0 -0.66321812967E+02 -0.37409204592E+02  0.32607885753E+03  0.37690111805E+03  0.17300000000E+03 0. -1.
         -6    1    1    2    0  502  0.66321812967E+02  0.37409204592E+02  0.48589708157E+03  0.52136647892E+03  0.17300000000E+03 0. -1.
<mgrwt>
<rscale>  2 0.18901596E+03</rscale>
<asrwt>0</asrwt>
<pdfrwt beam="1">  1       21 0.13155718E+00 0.18901596E+03</pdfrwt>
<pdfrwt beam="2">  1       21 0.66378205E-02 0.18901596E+03</pdfrwt>
<totfact> 0.69659714E+04</totfact>
</mgrwt>
</event>
<event>
 4    1  0.3976152E+000  0.1821894E+03  0.7546771E-02  0.1165701E+00
         21   -1    0    0  503  502  0.00000000000E+00  0.00000000000E+00  0.11137495724E+03  0.11137495724E+03  0.00000000000E+00 0.  1.
         21   -1    0    0  501  503 -0.00000000000E+00 -0.00000000000E+00 -0.29803121564E+03  0.29803121564E+03  0.00000000000E+00 0.  1.
          6    1    1    2  501    0 -0.22767980806E+01  0.57085940524E+02 -0.93861656928E+02  0.20494633214E+03  0.17300000000E+03 0.  1.
         -6    1    1    2    0  502  0.22767980806E+01 -0.57085940524E+02 -0.92794601467E+02  0.20445984074E+03  0.17300000000E+03 0.  1.
<mgrwt>
<rscale>  2 0.18218943E+03</rscale>
<asrwt>0</asrwt>
<pdfrwt beam="1">  1       21 0.17134609E-01 0.18218943E+03</pdfrwt>
<pdfrwt beam="2">  1       21 0.45850956E-01 0.18218943E+03</pdfrwt>
<totfact> 0.14068259E+05</totfact>
</mgrwt>
</event>
<event>
 4    1  0.3976152E+000  0.2685489E+03  0.7546771E-02  0.1102113E+00
         21   -1    0    0  501  502  0.00000000000E+00  0.00000000000E+00  0.69340608790E+03  0.69340608790E+03  0.00000000000E+00 0.  1.
         21   -1    0    0  502  503 -0.00000000000E+00 -0.00000000000E+00 -0.20860028044E+03  0.20860028044E+03  0.00000000000E+00 0. -1.
          6    1    1    2  501    0 -0.17450414774E+03  0.10834121702E+03  0.56175940611E+03  0.62264929715E+03  0.17300000000E+03 0.  1.
         -6    1    1    2    0  503  0.17450414774E+03 -0.10834121702E+03 -0.76953598647E+02  0.27935707120E+03  0.17300000000E+03 0. -1.
<mgrwt>
<rscale>  2 0.26854891E+03</rscale>
<asrwt>0</asrwt>
<pdfrwt beam="1">  1       21 0.10667786E+00 0.26854891E+03</pdfrwt>
<pdfrwt beam="2">  1       21 0.32092351E-01 0.26854891E+03</pdfrwt>
<totfact> 0.62442082E+03</totfact>
</mgrwt>
</event>
<event>
 4    1  0.3976152E+000  0.2074902E+03  0.7546771E-02  0.1143569E+00
         21   -1    0    0  503  502  0.00000000000E+00  0.00000000000E+00  0.28805185451E+03  0.28805185451E+03  0.00000000000E+00 0.  1.
         21   -1    0    0  501  503 -0.00000000000E+00 -0.00000000000E+00 -0.41383296421E+03  0.41383296421E+03  0.00000000000E+00 0. -1.
          6    1    1    2  501    0 -0.10173906659E+03 -0.52653036811E+02 -0.34338998022E+03  0.40120924525E+03  0.17300000000E+03 0. -1.
         -6    1    1    2    0  502  0.10173906659E+03  0.52653036811E+02  0.21760887052E+03  0.30067557348E+03  0.17300000000E+03 0.  1.
<mgrwt>
<rscale>  2 0.20749019E+03</rscale>
<asrwt>0</asrwt>
<pdfrwt beam="1">  1       21 0.44315670E-01 0.20749019E+03</pdfrwt>
<pdfrwt beam="2">  1       21 0.63666610E-01 0.20749019E+03</pdfrwt>
<totfact> 0.11037974E+04</totfact>
</mgrwt>
</event>
<event>
 4    1  0.3976152E+000  0.1921712E+03  0.7546771E-02  0.1156518E+00
         21   -1    0    0  501  502  0.00000000000E+00  0.00000000000E+00  0.60350299115E+03  0.60350299115E+03  0.00000000000E+00 0. -1.
         21   -1    0    0  502  503 -0.00000000000E+00 -0.00000000000E+00 -0.70958098124E+02  0.70958098124E+02  0.00000000000E+00 0.  1.
          6    1    1    2  501    0 -0.66026942825E+02 -0.51392596219E+02  0.39137871003E+03  0.43601267274E+03  0.17300000000E+03 0. -1.
         -6    1    1    2    0  503  0.66026942825E+02  0.51392596219E+02  0.14116618299E+03  0.23844841653E+03  0.17300000000E+03 0.  1.
<mgrwt>
<rscale>  2 0.19217116E+03</rscale>
<asrwt>0</asrwt>
<pdfrwt beam="1">  1       21 0.92846610E-01 0.19217116E+03</pdfrwt>
<pdfrwt beam="2">  1       21 0.10916631E-01 0.19217116E+03</pdfrwt>
<totfact> 0.67907738E+04</totfact>
</mgrwt>
</event>
<event>
 4    1  0.3976152E+000  0.2168184E+03  0.7546771E-02  0.1136278E+00
         21   -1    0    0  501  502  0.00000000000E+00  0.00000000000E+00  0.73925209950E+02  0.73925209950E+02  0.00000000000E+00 0.  1.
         21   -1    0    0  502  503 -0.00000000000E+00 -0.00000000000E+00 -0.87224725009E+03  0.87224725009E+03  0.00000000000E+00 0. -1.
          6    1    1    2  501    0  0.39110265260E+02  0.12470605834E+03 -0.15290820552E+03  0.26531327360E+03  0.17300000000E+03 0. -1.
         -6    1    1    2    0  503 -0.39110265260E+02 -0.12470605834E+03 -0.64541383462E+03  0.68085918644E+03  0.17300000000E+03 0. -1.
<mgrwt>
<rscale>  2 0.21681839E+03</rscale>
<asrwt>0</asrwt>
<pdfrwt beam="1">  1       21 0.11373110E-01 0.21681839E+03</pdfrwt>
<pdfrwt beam="2">  1       21 0.13419188E+00 0.21681839E+03</pdfrwt>
<totfact> 0.25383277E+04</totfact>
</mgrwt>
</event>
<event>
 4    1  0.3976152E+000  0.1993138E+03  0.7546771E-02  0.1150319E+00
         21   -1    0    0  501  502  0.00000000000E+00  0.00000000000E+00  0.53546991296E+03  0.53546991296E+03  0.00000000000E+00 0. -1.
         21   -1    0    0  502  503 -0.00000000000E+00 -0.00000000000E+00 -0.17505906665E+03  0.17505906665E+03  0.00000000000E+00 0.  1.
          6    1    1    2  501    0  0.42789103193E+02 -0.89252906691E+02  0.44988037143E+03  0.49205521774E+03  0.17300000000E+03 0. -1.
         -6    1    1    2    0  503 -0.42789103193E+02  0.89252906691E+02 -0.89469525115E+02  0.21847376188E+03  0.17300000000E+03 0.  1.
<mgrwt>
<rscale>  2 0.19931379E+03</rscale>
<asrwt>0</asrwt>
<pdfrwt beam="1">  1       21 0.82379986E-01 0.19931379E+03</pdfrwt>
<pdfrwt beam="2">  1       21 0.26932164E-01 0.19931379E+03</pdfrwt>
<totfact> 0.16829873E+04</totfact>
</mgrwt>
</event>
<event>
 4    1  0.3976152E+000  0.1839661E+03  0.7546771E-02  0.1164019E+00
         21   -1    0    0  503  502  0.00000000000E+00  0.00000000000E+00  0.44531511218E+02  0.44531511218E+02  0.00000000000E+00 0.  1.
         21   -1    0    0  501  503 -0.00000000000E+00 -0.00000000000E+00 -0.76092623475E+03  0.76092623475E+03  0.00000000000E+00 0.  1.
          6    1    1    2  501    0 -0.51507034872E+02 -0.35518101757E+02 -0.37232265563E+03  0.41529227068E+03  0.17300000000E+03 0.  1.
         -6    1    1    2    0  502  0.51507034872E+02  0.35518101757E+02 -0.34407206791E+03  0.39016547529E+03  0.17300000000E+03 0.  1.
<mgrwt>
<rscale>  2 0.18396606E+03</rscale>
<asrwt>0</asrwt>
<pdfrwt beam="1">  1       21 0.68510016E-02 0.18396606E+03</pdfrwt>
<pdfrwt beam="2">  1       21 0.11706558E+00 0.18396606E+03</pdfrwt>
<totfact> 0.88460512E+04</totfact>
</mgrwt>
</event>
<event>
 4    1  0.3976152E+000  0.2421213E+03  0.7546771E-02  0.1118388E+00
         21   -1    0    0  501  502  0.00000000000E+00  0.00000000000E+00  0.11144834804E+03  0.11144834804E+03  0.00000000000E+00 0. -1.
         21   -1    0    0  502  503 -0.00000000000E+00 -0.00000000000E+00 -0.14173568655E+04  0.14173568655E+04  0.00000000000E+00 0.  1.
          6    1    1    2  501    0 -0.76919104061E+02  0.15092102840E+03 -0.46767494777E+02  0.24659664221E+03  0.17300000000E+03 0. -1.
         -6    1    1    2    0  503  0.76919104061E+02 -0.15092102840E+03 -0.12591410227E+04  0.12822085713E+04  0.17300000000E+03 0.  1.
<mgrwt>
<rscale>  2 0.24212126E+03</rscale>
<asrwt>0</asrwt>
<pdfrwt beam="1">  1       21 0.17145899E-01 0.24212126E+03</pdfrwt>
<pdfrwt beam="2">  1       21 0.21805491E+00 0.24212126E+03</pdfrwt>
<totfact> 0.30328369E+03</totfact>
</mgrwt>
</event>
<event>
 4    1  0.3976152E+000  0.1825430E+03  0.7546771E-02  0.1165364E+00
         21   -1    0    0  501  502  0.00000000000E+00  0.00000000000E+00  0.28853051562E+03  0.28853051562E+03  0.00000000000E+00 0.  1.
         21   -1    0    0  502  503 -0.00000000000E+00 -0.00000000000E+00 -0.11851727874E+03  0.11851727874E+03  0.00000000000E+00 0.  1.
          6    1    1    2  501    0 -0.58138960735E+02 -0.35791370728E+01  0.11754232230E+03  0.21711321127E+03  0.17300000000E+03 0.  1.
         -6    1    1    2    0  503  0.58138960735E+02  0.35791370728E+01  0.52470914580E+02  0.18993458309E+03  0.17300000000E+03 0.  1.
<mgrwt>
<rscale>  2 0.18254301E+03</rscale>
<asrwt>0</asrwt>
<pdfrwt beam="1">  1       21 0.44389310E-01 0.18254301E+03</pdfrwt>
<pdfrwt beam="2">  1       21 0.18233428E-01 0.18254301E+03</pdfrwt>
<totfact> 0.13405688E+05</totfact>
</mgrwt>
</event>
<event>
 4    1  0.3976152E+000  0.1796959E+03  0.7546771E-02  0.1168098E+00
         21   -1    0    0  501  502  0.00000000000E+00  0.00000000000E+00  0.20832777793E+03  0.20832777793E+03  0.00000000000E+00 0. -1.
         21   -1    0    0  502  503 -0.00000000000E+00 -0.00000000000E+00 -0.21474152940E+03  0.21474152940E+03  0.00000000000E+00 0. -1.
          6    1    1    2  501    0 -0.36214758674E+02 -0.32405516403E+02  0.10836758593E+03  0.20984317935E+03  0.17300000000E+03 0. -1.
         -6    1    1    2    0  503  0.36214758674E+02  0.32405516403E+02 -0.11478133739E+03  0.21322612798E+03  0.17300000000E+03 0. -1.
<mgrwt>
<rscale>  2 0.17969593E+03</rscale>
<asrwt>0</asrwt>
<pdfrwt beam="1">  1       21 0.32050427E-01 0.17969593E+03</pdfrwt>
<pdfrwt beam="2">  1       21 0.33037158E-01 0.17969593E+03</pdfrwt>
<totfact> 0.83023555E+04</totfact>
</mgrwt>
</event>
<event>
 4    1  0.3976152E+000  0.2313880E+03  0.7546771E-02  0.1125667E+00
         21   -1    0    0  501  502  0.00000000000E+00  0.00000000000E+00  0.35177795137E+03  0.35177795137E+03  0.00000000000E+00 0.  1.
         21   -1    0    0  502  503 -0.00000000000E+00 -0.00000000000E+00 -0.16894119768E+03  0.16894119768E+03  0.00000000000E+00 0. -1.
          6    1    1    2  501    0 -0.14671838222E+03  0.45663238294E+02  0.17337914248E+03  0.28913792913E+03  0.17300000000E+03 0.  1.
         -6    1    1    2    0  503  0.14671838222E+03 -0.45663238294E+02  0.94576112148E+01  0.23158121993E+03  0.17300000000E+03 0. -1.
<mgrwt>
<rscale>  2 0.23138802E+03</rscale>
<asrwt>0</asrwt>
<pdfrwt beam="1">  1       21 0.54119685E-01 0.23138802E+03</pdfrwt>
<pdfrwt beam="2">  1       21 0.25990954E-01 0.23138802E+03</pdfrwt>
<totfact> 0.44549503E+04</totfact>
</mgrwt>
</event>
<event>
 4    1  0.3976152E+000  0.3849947E+03  0.7546771E-02  0.1049103E+00
         21   -1    0    0  503  502  0.00000000000E+00  0.00000000000E+00  0.17997362346E+03  0.17997362346E+03  0.00000000000E+00 0.  1.
         21   -1    0    0  501  503 -0.00000000000E+00 -0.00000000000E+00 -0.83369814950E+03  0.83369814950E+03  0.00000000000E+00 0.  1.
          6    1    1    2  501    0 -0.30843604571E+03  0.15218133986E+03 -0.38272455716E+03  0.54286189878E+03  0.17300000000E+03 0.  1.
         -6    1    1    2    0  502  0.30843604571E+03 -0.15218133986E+03 -0.27099996888E+03  0.47080987418E+03  0.17300000000E+03 0.  1.
<mgrwt>
<rscale>  2 0.38499475E+03</rscale>
<asrwt>0</asrwt>
<pdfrwt beam="1">  1       21 0.27688249E-01 0.38499475E+03</pdfrwt>
<pdfrwt beam="2">  1       21 0.12826126E+00 0.38499475E+03</pdfrwt>
<totfact> 0.49875568E+03</totfact>
</mgrwt>
</event>
<event>
 4    1  0.3976152E+000  0.1852111E+03  0.7546771E-02  0.1162853E+00
         21   -1    0    0  501  502  0.00000000000E+00  0.00000000000E+00  0.86352784034E+03  0.86352784034E+03  0.00000000000E+00 0.  1.
         21   -1    0    0  502  503 -0.00000000000E+00 -0.00000000000E+00 -0.12917371349E+03  0.12917371349E+03  0.00000000000E+00 0.  1.
          6    1    1    2  501    0  0.33781630741E+02  0.56859181177E+02  0.78021508118E+03  0.80189696218E+03  0.17300000000E+03 0.  1.
         -6    1    1    2    0  503 -0.33781630741E+02 -0.56859181177E+02 -0.45860954331E+02  0.19080459164E+03  0.17300000000E+03 0.  1.
<mgrwt>
<rscale>  2 0.18521114E+03</rscale>
<asrwt>0</asrwt>
<pdfrwt beam="1">  1       21 0.13285043E+00 0.18521114E+03</pdfrwt>
<pdfrwt beam="2">  1       21 0.19872880E-01 0.18521114E+03</pdfrwt>
<totfact> 0.96112567E+03</totfact>
</mgrwt>
</event>
<event>
 4    1  0.3976152E+000  0.2239149E+03  0.7546771E-02  0.1130998E+00
         21   -1    0    0  501  502  0.00000000000E+00  0.00000000000E+00  0.10832623178E+04  0.10832623178E+04  0.00000000000E+00 0.  1.
         21   -1    0    0  502  503 -0.00000000000E+00 -0.00000000000E+00 -0.52154949778E+02  0.52154949778E+02  0.00000000000E+00 0.  1.
          6    1    1    2  501    0  0.12048185095E+03  0.75451876288E+02  0.70602379333E+03  0.74068040260E+03  0.17300000000E+03 0.  1.
         -6    1    1    2    0  503 -0.12048185095E+03 -0.75451876288E+02  0.32508357471E+03  0.39473686500E+03  0.17300000000E+03 0.  1.
<mgrwt>
<rscale>  2 0.22391485E+03</rscale>
<asrwt>0</asrwt>
<pdfrwt beam="1">  1       21 0.16665572E+00 0.22391485E+03</pdfrwt>
<pdfrwt beam="2">  1       21 0.80238393E-02 0.22391485E+03</pdfrwt>
<totfact> 0.26366074E+04</totfact>
</mgrwt>
</event>
<event>
 4    1  0.3976152E+000  0.2640949E+03  0.7546771E-02  0.1104708E+00
         21   -1    0    0  503  502  0.00000000000E+00  0.00000000000E+00  0.16917776078E+03  0.16917776078E+03  0.00000000000E+00 0. -1.
         21   -1    0    0  501  503 -0.00000000000E+00 -0.00000000000E+00 -0.59622123165E+03  0.59622123165E+03  0.00000000000E+00 0. -1.
          6    1    1    2  501    0  0.73511342958E+01 -0.19940684995E+03 -0.42609615182E+03  0.50130236542E+03  0.17300000000E+03 0. -1.
         -6    1    1    2    0  502 -0.73511342958E+01  0.19940684995E+03 -0.94731904669E+00  0.26409662700E+03  0.17300000000E+03 0. -1.
<mgrwt>
<rscale>  2 0.26409493E+03</rscale>
<asrwt>0</asrwt>
<pdfrwt beam="1">  1       21 0.26027348E-01 0.26409493E+03</pdfrwt>
<pdfrwt beam="2">  1       21 0.91726344E-01 0.26409493E+03</pdfrwt>
<totfact> 0.13522974E+04</totfact>
</mgrwt>
</event>
<event>
 4    1  0.3976152E+000  0.1976611E+03  0.7546771E-02  0.1151727E+00
         21   -1    0    0  503  502  0.00000000000E+00  0.00000000000E+00  0.32492709534E+02  0.32492709534E+02  0.00000000000E+00 0. -1.
         21   -1    0    0  501  503 -0.00000000000E+00 -0.00000000000E+00 -0.12613285244E+04  0.12613285244E+04  0.00000000000E+00 0. -1.
          6    1    1    2  501    0  0.21664869175E+02 -0.93121224753E+02 -0.75422014028E+03  0.77969093176E+03  0.17300000000E+03 0. -1.
         -6    1    1    2    0  502 -0.21664869175E+02  0.93121224753E+02 -0.47461567458E+03  0.51413030217E+03  0.17300000000E+03 0. -1.
<mgrwt>
<rscale>  2 0.19766115E+03</rscale>
<asrwt>0</asrwt>
<pdfrwt beam="1">  1       21 0.49988779E-02 0.19766115E+03</pdfrwt>
<pdfrwt beam="2">  1       21 0.19405056E+00 0.19766115E+03</pdfrwt>
<totfact> 0.39347747E+04</totfact>
</mgrwt>
</event>
<event>
 4    1  0.3976152E+000  0.2395592E+03  0.7546771E-02  0.1120087E+00
         21   -1    0    0  503  502  0.00000000000E+00  0.00000000000E+00  0.30861792843E+03  0.30861792843E+03  0.00000000000E+00 0.  1.
         21   -1    0    0  501  503 -0.00000000000E+00 -0.00000000000E+00 -0.18690765525E+03  0.18690765525E+03  0.00000000000E+00 0. -1.
          6    1    1    2  501    0 -0.15037939584E+03 -0.69610692571E+02  0.43153559432E+02  0.24341495620E+03  0.17300000000E+03 0.  1.
         -6    1    1    2    0  502  0.15037939584E+03  0.69610692571E+02  0.78556713741E+02  0.25211062747E+03  0.17300000000E+03 0. -1.
<mgrwt>
<rscale>  2 0.23955920E+03</rscale>
<asrwt>0</asrwt>
<pdfrwt beam="1">  1       21 0.47479681E-01 0.23955920E+03</pdfrwt>
<pdfrwt beam="2">  1       21 0.28755024E-01 0.23955920E+03</pdfrwt>
<totfact> 0.48047815E+04</totfact>
</mgrwt>
</event>
<event>
 4    1  0.3976152E+000  0.2029400E+03  0.7546771E-02  0.1147282E+00
         21   -1    0    0  501  502  0.00000000000E+00  0.00000000000E+00  0.92172004120E+02  0.92172004120E+02  0.00000000000E+00 0.  1.
         21   -1    0    0  502  503 -0.00000000000E+00 -0.00000000000E+00 -0.56182745210E+03  0.56182745210E+03  0.00000000000E+00 0.  1.
          6    1    1    2  501    0 -0.79109710885E+02 -0.70691637514E+02 -0.86882295957E+02  0.22075594516E+03  0.17300000000E+03 0.  1.
         -6    1    1    2    0  503  0.79109710885E+02  0.70691637514E+02 -0.38277315202E+03  0.43324351106E+03  0.17300000000E+03 0.  1.
<mgrwt>
<rscale>  2 0.20294003E+03</rscale>
<asrwt>0</asrwt>
<pdfrwt beam="1">  1       21 0.14180308E-01 0.20294003E+03</pdfrwt>
<pdfrwt beam="2">  1       21 0.86434993E-01 0.20294003E+03</pdfrwt>
<totfact> 0.49839793E+04</totfact>
</mgrwt>
</event>
<event>
 4    1  0.3976152E+000  0.1845166E+03  0.7546771E-02  0.1163502E+00
         21   -1    0    0  503  502  0.00000000000E+00  0.00000000000E+00  0.10067343383E+04  0.10067343383E+04  0.00000000000E+00 0.  1.
         21   -1    0    0  501  503 -0.00000000000E+00 -0.00000000000E+00 -0.71479583816E+02  0.71479583816E+02  0.00000000000E+00 0. -1.
          6    1    1    2  501    0 -0.21137246634E+02 -0.60585446410E+02  0.76309607320E+02  0.19967357282E+03  0.17300000000E+03 0. -1.
         -6    1    1    2    0  502  0.21137246634E+02  0.60585446410E+02  0.85894514715E+03  0.87854034929E+03  0.17300000000E+03 0.  1.
<mgrwt>
<rscale>  2 0.18451661E+03</rscale>
<asrwt>0</asrwt>
<pdfrwt beam="1">  1       21 0.15488220E+00 0.18451661E+03</pdfrwt>
<pdfrwt beam="2">  1       21 0.10996860E-01 0.18451661E+03</pdfrwt>
<totfact> 0.18936474E+04</totfact>
</mgrwt>
</event>
<event>
 4    1  0.3976152E+000  0.1736091E+03  0.7546771E-02  0.1174136E+00
         21   -1    0    0  501  502  0.00000000000E+00  0.00000000000E+00  0.10021399750E+03  0.10021399750E+03  0.00000000000E+00 0.  1.
         21   -1    0    0  502  503 -0.00000000000E+00 -0.00000000000E+00 -0.34588956878E+03  0.34588956878E+03  0.00000000000E+00 0.  1.
          6    1    1    2  501    0 -0.86085467901E+01  0.11704739258E+02 -0.42266601095E+02  0.17868008721E+03  0.17300000000E+03 0. -1.
         -6    1    1    2    0  503  0.86085467901E+01 -0.11704739258E+02 -0.20340897019E+03  0.26742347906E+03  0.17300000000E+03 0. -1.
<mgrwt>
<rscale>  2 0.17360907E+03</rscale>
<asrwt>0</asrwt>
<pdfrwt beam="1">  1       21 0.15417538E-01 0.17360907E+03</pdfrwt>
<pdfrwt beam="2">  1       21 0.53213780E-01 0.17360907E+03</pdfrwt>
<totfact> 0.12563011E+05</totfact>
</mgrwt>
</event>
<event>
 4    1  0.3976152E+000  0.2444577E+03  0.7546771E-02  0.1116858E+00
         21   -1    0    0  501  502  0.00000000000E+00  0.00000000000E+00  0.32285332698E+03  0.32285332698E+03  0.00000000000E+00 0.  1.
         21   -1    0    0  502  503 -0.00000000000E+00 -0.00000000000E+00 -0.21555203569E+03  0.21555203569E+03  0.00000000000E+00 0. -1.
          6    1    1    2  501    0  0.33037202385E+02 -0.16952616791E+03  0.15483750717E+03  0.28936867829E+03  0.17300000000E+03 0. -1.
         -6    1    1    2    0  503 -0.33037202385E+02  0.16952616791E+03 -0.47536215883E+02  0.24903668439E+03  0.17300000000E+03 0. -1.
<mgrwt>
<rscale>  2 0.24445772E+03</rscale>
<asrwt>0</asrwt>
<pdfrwt beam="1">  1       21 0.49669743E-01 0.24445772E+03</pdfrwt>
<pdfrwt beam="2">  1       21 0.33161852E-01 0.24445772E+03</pdfrwt>
<totfact> 0.32968969E+04</totfact>
</mgrwt>
</event>
<event>
 4    1  0.3976152E+000  0.2345716E+03  0.7546771E-02  0.1123463E+00
         21   -1    0    0  503  502  0.00000000000E+00  0.00000000000E+00  0.19715673218E+03  0.19715673218E+03  0.00000000000E+00 0. -1.
         21   -1    0    0  501  503 -0.00000000000E+00 -0.00000000000E+00 -0.31235687585E+03  0.31235687585E+03  0.00000000000E+00 0. -1.
          6    1    1    2  501    0 -0.45890040146E+02 -0.15162098097E+03 -0.14074350262E+03  0.27355538961E+03  0.17300000000E+03 0. -1.
         -6    1    1    2    0  502  0.45890040146E+02  0.15162098097E+03  0.25543358955E+02  0.23595821842E+03  0.17300000000E+03 0. -1.
<mgrwt>
<rscale>  2 0.23457156E+03</rscale>
<asrwt>0</asrwt>
<pdfrwt beam="1">  1       21 0.30331805E-01 0.23457156E+03</pdfrwt>
<pdfrwt beam="2">  1       21 0.48054904E-01 0.23457156E+03</pdfrwt>
<totfact> 0.42303152E+04</totfact>
</mgrwt>
</event>
<event>
 4    1  0.3976152E+000  0.2231792E+03  0.7546771E-02  0.1131535E+00
         21   -1    0    0  501  502  0.00000000000E+00  0.00000000000E+00  0.11035845733E+04  0.11035845733E+04  0.00000000000E+00 0. -1.
         21   -1    0    0  502  503 -0.00000000000E+00 -0.00000000000E+00 -0.50853663456E+02  0.50853663456E+02  0.00000000000E+00 0. -1.
          6    1    1    2  501    0  0.98640807429E+02  0.10074703489E+03  0.71995064209E+03  0.75374922951E+03  0.17300000000E+03 0. -1.
         -6    1    1    2    0  503 -0.98640807429E+02 -0.10074703489E+03  0.33278026778E+03  0.40068900728E+03  0.17300000000E+03 0. -1.
<mgrwt>
<rscale>  2 0.22317924E+03</rscale>
<asrwt>0</asrwt>
<pdfrwt beam="1">  1       21 0.16978222E+00 0.22317924E+03</pdfrwt>
<pdfrwt beam="2">  1       21 0.78236413E-02 0.22317924E+03</pdfrwt>
<totfact> 0.26189359E+04</totfact>
</mgrwt>
</event>
<event>
 4    1  0.3976152E+000  0.2042179E+03  0.7546771E-02  0.1146228E+00
         21   -1    0    0  501  502  0.00000000000E+00  0.00000000000E+00  0.26621106428E+04  0.26621106428E+04  0.00000000000E+00 0.  1.
         21   -1    0    0  502  503 -0.00000000000E+00 -0.00000000000E+00 -0.43347557782E+02  0.43347557782E+02  0.00000000000E+00 0.  1.
          6    1    1    2  501    0  0.77468091858E+01  0.10824025288E+03  0.23903742816E+04  0.23990819435E+04  0.17300000000E+03 0.  1.
         -6    1    1    2    0  503 -0.77468091858E+01 -0.10824025288E+03  0.22838880347E+03  0.30637625715E+03  0.17300000000E+03 0.  1.
<mgrwt>
<rscale>  2 0.20421794E+03</rscale>
<asrwt>0</asrwt>
<pdfrwt beam="1">  1       21 0.40955535E+00 0.20421794E+03</pdfrwt>
<pdfrwt beam="2">  1       21 0.66688571E-02 0.20421794E+03</pdfrwt>
<totfact> 0.12272431E+03</totfact>
</mgrwt>
</event>
<event>
 4    1  0.3976152E+000  0.1741762E+03  0.7546771E-02  0.1173561E+00
         21   -1    0    0  503  502  0.00000000000E+00  0.00000000000E+00  0.67776683450E+03  0.67776683450E+03  0.00000000000E+00 0.  1.
         21   -1    0    0  501  503 -0.00000000000E+00 -0.00000000000E+00 -0.27654956285E+03  0.27654956285E+03  0.00000000000E+00 0.  1.
          6    1    1    2  501    0  0.20204189276E+02 -0.37194443338E+00 -0.23623110793E+03  0.29350039857E+03  0.17300000000E+03 0.  1.
         -6    1    1    2    0  502 -0.20204189276E+02  0.37194443338E+00  0.63744837958E+03  0.66081599878E+03  0.17300000000E+03 0.  1.
<mgrwt>
<rscale>  2 0.17417620E+03</rscale>
<asrwt>0</asrwt>
<pdfrwt beam="1">  1       21 0.10427182E+00 0.17417620E+03</pdfrwt>
<pdfrwt beam="2">  1       21 0.42546087E-01 0.17417620E+03</pdfrwt>
<totfact> 0.40109052E+03</totfact>
</mgrwt>
</event>
<event>
 4    1  0.3976152E+000  0.2053333E+03  0.7546771E-02  0.1145316E+00
         21   -1    0    0  503  502  0.00000000000E+00  0.00000000000E+00  0.15511102771E+03  0.15511102771E+03  0.00000000000E+00 0. -1.
         21   -1    0    0  501  503 -0.00000000000E+00 -0.00000000000E+00 -0.28443137336E+03  0.28443137336E+03  0.00000000000E+00 0.  1.
          6    1    1    2  501    0  0.86313148630E+02  0.69157940934E+02 -0.11094286605E+03  0.23338830294E+03  0.17300000000E+03 0. -1.
         -6    1    1    2    0  502 -0.86313148630E+02 -0.69157940934E+02 -0.18377479603E+02  0.20615409813E+03  0.17300000000E+03 0. -1.
<mgrwt>
<rscale>  2 0.20533334E+03</rscale>
<asrwt>0</asrwt>
<pdfrwt beam="1">  1       21 0.23863235E-01 0.20533334E+03</pdfrwt>
<pdfrwt beam="2">  1       21 0.43758672E-01 0.20533334E+03</pdfrwt>
<totfact> 0.82607603E+04</totfact>
</mgrwt>
</event>
<event>
 4    1  0.3976152E+000  0.2009331E+03  0.7546771E-02  0.1148954E+00
         21   -1    0    0  503  502  0.00000000000E+00  0.00000000000E+00  0.66368586041E+03  0.66368586041E+03  0.00000000000E+00 0. -1.
         21   -1    0    0  501  503 -0.00000000000E+00 -0.00000000000E+00 -0.91023257485E+02  0.91023257485E+02  0.00000000000E+00 0. -1.
          6    1    1    2  501    0 -0.86093940191E+02  0.55072136994E+02  0.69008304032E+02  0.21245294264E+03  0.17300000000E+03 0. -1.
         -6    1    1    2    0  502  0.86093940191E+02 -0.55072136994E+02  0.50365429889E+03  0.54225617526E+03  0.17300000000E+03 0. -1.
<mgrwt>
<rscale>  2 0.20093309E+03</rscale>
<asrwt>0</asrwt>
<pdfrwt beam="1">  1       21 0.10210551E+00 0.20093309E+03</pdfrwt>
<pdfrwt beam="2">  1       21 0.14003579E-01 0.20093309E+03</pdfrwt>
<totfact> 0.34558751E+04</totfact>
</mgrwt>
</event>
<event>
 4    1  0.3976152E+000  0.2866211E+03  0.7546771E-02  0.1092127E+00
         21   -1    0    0  503  502  0.00000000000E+00  0.00000000000E+00  0.28872843370E+03  0.28872843370E+03  0.00000000000E+00 0. -1.
         21   -1    0    0  501  503 -0.00000000000E+00 -0.00000000000E+00 -0.50164733689E+03  0.50164733689E+03  0.00000000000E+00 0.  1.
          6    1    1    2  501    0 -0.14516222282E+03 -0.17649526969E+03 -0.36644696184E+03  0.46522578067E+03  0.17300000000E+03 0.  1.
         -6    1    1    2    0  502  0.14516222282E+03  0.17649526969E+03  0.15352805865E+03  0.32514998992E+03  0.17300000000E+03 0. -1.
<mgrwt>
<rscale>  2 0.28662109E+03</rscale>
<asrwt>0</asrwt>
<pdfrwt beam="1">  1       21 0.44419760E-01 0.28662109E+03</pdfrwt>
<pdfrwt beam="2">  1       21 0.77176512E-01 0.28662109E+03</pdfrwt>
<totfact> 0.68470298E+03</totfact>
</mgrwt>
</event>
<event>
 4    1  0.3976152E+000  0.2461761E+03  0.7546771E-02  0.1115746E+00
         21   -1    0    0  501  502  0.00000000000E+00  0.00000000000E+00  0.65770581590E+02  0.65770581590E+02  0.00000000000E+00 0. -1.
         21   -1    0    0  502  503 -0.00000000000E+00 -0.00000000000E+00 -0.93974820242E+03  0.93974820242E+03  0.00000000000E+00 0. -1.
          6    1    1    2  501    0 -0.46535445563E+02 -0.16884352212E+03 -0.36678661191E+03  0.44174098897E+03  0.17300000000E+03 0. -1.
         -6    1    1    2    0  503  0.46535445563E+02  0.16884352212E+03 -0.50719100892E+03  0.56377779504E+03  0.17300000000E+03 0. -1.
<mgrwt>
<rscale>  2 0.24617612E+03</rscale>
<asrwt>0</asrwt>
<pdfrwt beam="1">  1       21 0.10118551E-01 0.24617612E+03</pdfrwt>
<pdfrwt beam="2">  1       21 0.14457665E+00 0.24617612E+03</pdfrwt>
<totfact> 0.25353161E+04</totfact>
</mgrwt>
</event>
<event>
 4    1  0.3976152E+000  0.2000377E+03  0.7546771E-02  0.1149707E+00
         21   -1    0    0  503  502  0.00000000000E+00  0.00000000000E+00  0.21368008835E+03  0.21368008835E+03  0.00000000000E+00 0. -1.
         21   -1    0    0  501  503 -0.00000000000E+00 -0.00000000000E+00 -0.58469702725E+03  0.58469702725E+03  0.00000000000E+00 0. -1.
          6    1    1    2  501    0 -0.15728238103E+02  0.99190244364E+02 -0.51462019512E+03  0.55213134966E+03  0.17300000000E+03 0. -1.
         -6    1    1    2    0  502  0.15728238103E+02 -0.99190244364E+02  0.14360325622E+03  0.24624576595E+03  0.17300000000E+03 0. -1.
<mgrwt>
<rscale>  2 0.20003770E+03</rscale>
<asrwt>0</asrwt>
<pdfrwt beam="1">  1       21 0.32873860E-01 0.20003770E+03</pdfrwt>
<pdfrwt beam="2">  1       21 0.89953387E-01 0.20003770E+03</pdfrwt>
<totfact> 0.93204131E+03</totfact>
</mgrwt>
</event>
<event>
 4    1  0.3976152E+000  0.2360702E+03  0.7546771E-02  0.1122439E+00
         21   -1    0    0  501  502  0.00000000000E+00  0.00000000000E+00  0.90521388731E+02  0.90521388731E+02  0.00000000000E+00 0.  1.
         21   -1    0    0  502  503 -0.00000000000E+00 -0.00000000000E+00 -0.61821901901E+03  0.61821901901E+03  0.00000000000E+00 0. -1.
          6    1    1    2  501    0  0.15924395351E+03 -0.21011743795E+02 -0.24098712992E+03  0.33734837615E+03  0.17300000000E+03 0.  1.
         -6    1    1    2    0  503 -0.15924395351E+03  0.21011743795E+02 -0.28671050036E+03  0.37139203159E+03  0.17300000000E+03 0. -1.
<mgrwt>
<rscale>  2 0.23607018E+03</rscale>
<asrwt>0</asrwt>
<pdfrwt beam="1">  1       21 0.13926367E-01 0.23607018E+03</pdfrwt>
<pdfrwt beam="2">  1       21 0.95110623E-01 0.23607018E+03</pdfrwt>
<totfact> 0.40578321E+04</totfact>
</mgrwt>
</event>
<event>
 4    1  0.3976152E+000  0.1881573E+03  0.7546771E-02  0.1160134E+00
         21   -1    0    0  501  502  0.00000000000E+00  0.00000000000E+00  0.59828665454E+02  0.59828665454E+02  0.00000000000E+00 0.  1.
         21   -1    0    0  502  503 -0.00000000000E+00 -0.00000000000E+00 -0.59556847904E+03  0.59556847904E+03  0.00000000000E+00 0.  1.
          6    1    1    2  501    0 -0.50390968951E+01 -0.73815767834E+02 -0.24160452160E+03  0.30622851751E+03  0.17300000000E+03 0.  1.
         -6    1    1    2    0  503  0.50390968951E+01  0.73815767834E+02 -0.29413529199E+03  0.34916862699E+03  0.17300000000E+03 0.  1.
<mgrwt>
<rscale>  2 0.18815727E+03</rscale>
<asrwt>0</asrwt>
<pdfrwt beam="1">  1       21 0.92044100E-02 0.18815727E+03</pdfrwt>
<pdfrwt beam="2">  1       21 0.91625920E-01 0.18815727E+03</pdfrwt>
<totfact> 0.94818591E+04</totfact>
</mgrwt>
</event>
<event>
 4    1  0.3976152E+000  0.2353074E+03  0.7546771E-02  0.1122959E+00
         21   -1    0    0  503  502  0.00000000000E+00  0.00000000000E+00  0.36650839267E+03  0.36650839267E+03  0.00000000000E+00 0.  1.
         21   -1    0    0  501  503 -0.00000000000E+00 -0.00000000000E+00 -0.17964564521E+03  0.17964564521E+03  0.00000000000E+00 0.  1.
          6    1    1    2  501    0 -0.10030551668E+03 -0.12401359876E+03 -0.15474438146E+02  0.23581566443E+03  0.17300000000E+03 0.  1.
         -6    1    1    2    0  502  0.10030551668E+03  0.12401359876E+03  0.20233718561E+03  0.31033837345E+03  0.17300000000E+03 0.  1.
<mgrwt>
<rscale>  2 0.23530739E+03</rscale>
<asrwt>0</asrwt>
<pdfrwt beam="1">  1       21 0.56385907E-01 0.23530739E+03</pdfrwt>
<pdfrwt beam="2">  1       21 0.27637792E-01 0.23530739E+03</pdfrwt>
<totfact> 0.36193105E+04</totfact>
</mgrwt>
</event>
<event>
 4    1  0.3976152E+000  0.1879140E+03  0.7546771E-02  0.1160356E+00
         21   -1    0    0  503  502  0.00000000000E+00  0.00000000000E+00  0.37651148496E+03  0.37651148496E+03  0.00000000000E+00 0. -1.
         21   -1    0    0  501  503 -0.00000000000E+00 -0.00000000000E+00 -0.13565155202E+03  0.13565155202E+03  0.00000000000E+00 0. -1.
          6    1    1    2  501    0  0.58963454295E+02  0.43657724470E+02 -0.21832976321E+02  0.18917812956E+03  0.17300000000E+03 0. -1.
         -6    1    1    2    0  502 -0.58963454295E+02 -0.43657724470E+02  0.26269290926E+03  0.32298490742E+03  0.17300000000E+03 0. -1.
<mgrwt>
<rscale>  2 0.18791404E+03</rscale>
<asrwt>0</asrwt>
<pdfrwt beam="1">  1       21 0.57924843E-01 0.18791404E+03</pdfrwt>
<pdfrwt beam="2">  1       21 0.20869470E-01 0.18791404E+03</pdfrwt>
<totfact> 0.59683919E+04</totfact>
</mgrwt>
</event>
<event>
 4    1  0.3976152E+000  0.1828404E+03  0.7546771E-02  0.1165082E+00
         21   -1    0    0  503  502  0.00000000000E+00  0.00000000000E+00  0.77526988147E+03  0.77526988147E+03  0.00000000000E+00 0. -1.
         21   -1    0    0  501  503 -0.00000000000E+00 -0.00000000000E+00 -0.44339275571E+02  0.44339275571E+02  0.00000000000E+00 0. -1.
          6    1    1    2  501    0 -0.43073049501E+02 -0.40574839760E+02  0.29754322253E+03  0.34923140536E+03  0.17300000000E+03 0. -1.
         -6    1    1    2    0  502  0.43073049501E+02  0.40574839760E+02  0.43338738336E+03  0.47037775168E+03  0.17300000000E+03 0. -1.
<mgrwt>
<rscale>  2 0.18284038E+03</rscale>
<asrwt>0</asrwt>
<pdfrwt beam="1">  1       21 0.11927228E+00 0.18284038E+03</pdfrwt>
<pdfrwt beam="2">  1       21 0.68214276E-02 0.18284038E+03</pdfrwt>
<totfact> 0.85171270E+04</totfact>
</mgrwt>
</event>
<event>
 4    1  0.3976152E+000  0.2792179E+03  0.7546771E-02  0.1096117E+00
         21   -1    0    0  503  502  0.00000000000E+00  0.00000000000E+00  0.16656526122E+03  0.16656526122E+03  0.00000000000E+00 0.  1.
         21   -1    0    0  501  503 -0.00000000000E+00 -0.00000000000E+00 -0.63563180163E+03  0.63563180163E+03  0.00000000000E+00 0. -1.
          6    1    1    2  501    0  0.15927339100E+03 -0.15055102748E+03 -0.44047674772E+03  0.52151930955E+03  0.17300000000E+03 0. -1.
         -6    1    1    2    0  502 -0.15927339100E+03  0.15055102748E+03 -0.28589792688E+02  0.28067775330E+03  0.17300000000E+03 0.  1.
<mgrwt>
<rscale>  2 0.27921788E+03</rscale>
<asrwt>0</asrwt>
<pdfrwt beam="1">  1       21 0.25625424E-01 0.27921788E+03</pdfrwt>
<pdfrwt beam="2">  1       21 0.97789511E-01 0.27921788E+03</pdfrwt>
<totfact> 0.11890146E+04</totfact>
</mgrwt>
</event>
<event>
 4    1  0.3976152E+000  0.2730420E+03  0.7546771E-02  0.1099551E+00
         21   -1    0    0  503  502  0.00000000000E+00  0.00000000000E+00  0.13327601923E+04  0.13327601923E+04  0.00000000000E+00 0. -1.
         21   -1    0    0  501  503 -0.00000000000E+00 -0.00000000000E+00 -0.12458547842E+03  0.12458547842E+03  0.00000000000E+00 0. -1.
          6    1    1    2  501    0 -0.19750769370E+03 -0.74924289918E+02  0.63194600878E+02  0.28025969363E+03  0.17300000000E+03 0. -1.
         -6    1    1    2    0  502  0.19750769370E+03  0.74924289918E+02  0.11449801130E+04  0.11770859771E+04  0.17300000000E+03 0. -1.
<mgrwt>
<rscale>  2 0.27304201E+03</rscale>
<asrwt>0</asrwt>
<pdfrwt beam="1">  1       21 0.20504002E+00 0.27304201E+03</pdfrwt>
<pdfrwt beam="2">  1       21 0.19166998E-01 0.27304201E+03</pdfrwt>
<totfact> 0.29097163E+03</totfact>
</mgrwt>
</event>
<event>
 4    1  0.3976152E+000  0.1883760E+03  0.7546771E-02  0.1159934E+00
         21   -1    0    0  503  502  0.00000000000E+00  0.00000000000E+00  0.46213716643E+03  0.46213716643E+03  0.00000000000E+00 0. -1.
         21   -1    0    0  501  503 -0.00000000000E+00 -0.00000000000E+00 -0.90168569789E+02  0.90168569789E+02  0.00000000000E+00 0. -1.
          6    1    1    2  501    0 -0.51669238043E+02  0.53729003495E+02  0.79595246230E+02  0.20450163618E+03  0.17300000000E+03 0. -1.
         -6    1    1    2    0  502  0.51669238043E+02 -0.53729003495E+02  0.29237335042E+03  0.34780410005E+03  0.17300000000E+03 0. -1.
<mgrwt>
<rscale>  2 0.18837600E+03</rscale>
<asrwt>0</asrwt>
<pdfrwt beam="1">  1       21 0.71098024E-01 0.18837600E+03</pdfrwt>
<pdfrwt beam="2">  1       21 0.13872088E-01 0.18837600E+03</pdfrwt>
<totfact> 0.81082885E+04</totfact>
</mgrwt>
</event>
<event>
 4    1  0.3976152E+000  0.2767826E+03  0.7546771E-02  0.1097459E+00
         21   -1    0    0  501  502  0.00000000000E+00  0.00000000000E+00  0.14702345455E+04  0.14702345455E+04  0.00000000000E+00 0. -1.
         21   -1    0    0  502  503 -0.00000000000E+00 -0.00000000000E+00 -0.20084757454E+03  0.20084757454E+03  0.00000000000E+00 0. -1.
          6    1    1    2  501    0  0.12970043695E+03 -0.17279299249E+03  0.13537286200E+04  0.13817343443E+04  0.17300000000E+03 0. -1.
         -6    1    1    2    0  503 -0.12970043695E+03  0.17279299249E+03 -0.84341648991E+02  0.28934777579E+03  0.17300000000E+03 0. -1.
<mgrwt>
<rscale>  2 0.27678263E+03</rscale>
<asrwt>0</asrwt>
<pdfrwt beam="1">  1       21 0.22618992E+00 0.27678263E+03</pdfrwt>
<pdfrwt beam="2">  1       21 0.30899628E-01 0.27678263E+03</pdfrwt>
<totfact> 0.85248645E+02</totfact>
</mgrwt>
</event>
<event>
 4    1  0.3976152E+000  0.2321909E+03  0.7546771E-02  0.1125107E+00
         21   -1    0    0  501  502  0.00000000000E+00  0.00000000000E+00  0.10500605009E+03  0.10500605009E+03  0.00000000000E+00 0. -1.
         21   -1    0    0  502  503 -0.00000000000E+00 -0.00000000000E+00 -0.86463316883E+03  0.86463316883E+03  0.00000000000E+00 0. -1.
          6    1    1    2  501    0 -0.13979549585E+03 -0.66639500581E+02 -0.70821522676E+02  0.24275150210E+03  0.17300000000E+03 0. -1.
         -6    1    1    2    0  503  0.13979549585E+03  0.66639500581E+02 -0.68880559606E+03  0.72688771682E+03  0.17300000000E+03 0. -1.
<mgrwt>
<rscale>  2 0.23219088E+03</rscale>
<asrwt>0</asrwt>
<pdfrwt beam="1">  1       21 0.16154777E-01 0.23219088E+03</pdfrwt>
<pdfrwt beam="2">  1       21 0.13302049E+00 0.23219088E+03</pdfrwt>
<totfact> 0.13613199E+04</totfact>
</mgrwt>
</event>
<event>
 4    1  0.3976152E+000  0.2358700E+03  0.7546771E-02  0.1122575E+00
         21   -1    0    0  503  502  0.00000000000E+00  0.00000000000E+00  0.27670009982E+03  0.27670009982E+03  0.00000000000E+00 0.  1.
         21   -1    0    0  501  503 -0.00000000000E+00 -0.00000000000E+00 -0.22772494512E+03  0.22772494512E+03  0.00000000000E+00 0. -1.
          6    1    1    2  501    0  0.10553593380E+03 -0.12069718257E+03 -0.61808847537E+02  0.24383391240E+03  0.17300000000E+03 0. -1.
         -6    1    1    2    0  502 -0.10553593380E+03  0.12069718257E+03  0.11078400224E+03  0.26059113254E+03  0.17300000000E+03 0.  1.
<mgrwt>
<rscale>  2 0.23586997E+03</rscale>
<asrwt>0</asrwt>
<pdfrwt beam="1">  1       21 0.42569246E-01 0.23586997E+03</pdfrwt>
<pdfrwt beam="2">  1       21 0.35034607E-01 0.23586997E+03</pdfrwt>
<totfact> 0.40837538E+04</totfact>
</mgrwt>
</event>
<event>
 4    1  0.3976152E+000  0.2109258E+03  0.7546771E-02  0.1140835E+00
         21   -1    0    0  503  502  0.00000000000E+00  0.00000000000E+00  0.91144967889E+02  0.91144967889E+02  0.00000000000E+00 0. -1.
         21   -1    0    0  501  503 -0.00000000000E+00 -0.00000000000E+00 -0.66518361225E+03  0.66518361225E+03  0.00000000000E+00 0. -1.
          6    1    1    2  501    0  0.49658001472E+02  0.10997617449E+03 -0.48212705468E+03  0.52624725455E+03  0.17300000000E+03 0. -1.
         -6    1    1    2    0  502 -0.49658001472E+02 -0.10997617449E+03 -0.91911589675E+02  0.23008132558E+03  0.17300000000E+03 0. -1.
<mgrwt>
<rscale>  2 0.21092576E+03</rscale>
<asrwt>0</asrwt>
<pdfrwt beam="1">  1       21 0.14022303E-01 0.21092576E+03</pdfrwt>
<pdfrwt beam="2">  1       21 0.10233594E+00 0.21092576E+03</pdfrwt>
<totfact> 0.34102754E+04</totfact>
</mgrwt>
</event>
<event>
 4    1  0.3976152E+000  0.3398740E+03  0.7546771E-02  0.1066850E+00
         21   -1    0    0  501  502  0.00000000000E+00  0.00000000000E+00  0.26057385992E+03  0.26057385992E+03  0.00000000000E+00 0. -1.
         21   -1    0    0  502  503 -0.00000000000E+00 -0.00000000000E+00 -0.76374445394E+03  0.76374445394E+03  0.00000000000E+00 0.  1.
          6    1    1    2  501    0  0.24988001875E+03  0.15213588246E+03  0.80158028460E+02  0.34919859683E+03  0.17300000000E+03 0. -1.
         -6    1    1    2    0  503 -0.24988001875E+03 -0.15213588246E+03 -0.58332862248E+03  0.67511971702E+03  0.17300000000E+03 0.  1.
<mgrwt>
<rscale>  2 0.33987402E+03</rscale>
<asrwt>0</asrwt>
<pdfrwt beam="1">  1       21 0.40088286E-01 0.33987402E+03</pdfrwt>
<pdfrwt beam="2">  1       21 0.11749915E+00 0.33987402E+03</pdfrwt>
<totfact> 0.30297886E+03</totfact>
</mgrwt>
</event>
<event>
 4    1  0.3976152E+000  0.2363620E+03  0.7546771E-02  0.1122240E+00
         21   -1    0    0  503  502  0.00000000000E+00  0.00000000000E+00  0.48957843090E+02  0.48957843090E+02  0.00000000000E+00 0. -1.
         21   -1    0    0  501  503 -0.00000000000E+00 -0.00000000000E+00 -0.11950025825E+04  0.11950025825E+04  0.00000000000E+00 0. -1.
          6    1    1    2  501    0  0.95646904195E+02 -0.12957484872E+03 -0.70509111908E+03  0.74365345283E+03  0.17300000000E+03 0. -1.
         -6    1    1    2    0  502 -0.95646904195E+02  0.12957484872E+03 -0.44095362030E+03  0.50030697272E+03  0.17300000000E+03 0. -1.
<mgrwt>
<rscale>  2 0.23636195E+03</rscale>
<asrwt>0</asrwt>
<pdfrwt beam="1">  1       21 0.75319767E-02 0.23636195E+03</pdfrwt>
<pdfrwt beam="2">  1       21 0.18384653E+00 0.23636195E+03</pdfrwt>
<totfact> 0.22178224E+04</totfact>
</mgrwt>
</event>
<event>
 4    1  0.3976152E+000  0.1776120E+03  0.7546771E-02  0.1170134E+00
         21   -1    0    0  501  502  0.00000000000E+00  0.00000000000E+00  0.55144394489E+03  0.55144394489E+03  0.00000000000E+00 0. -1.
         21   -1    0    0  502  503 -0.00000000000E+00 -0.00000000000E+00 -0.89875840868E+02  0.89875840868E+02  0.00000000000E+00 0. -1.
          6    1    1    2  501    0 -0.10839876394E+02  0.38723500534E+02  0.42411231204E+03  0.45980133280E+03  0.17300000000E+03 0. -1.
         -6    1    1    2    0  503  0.10839876394E+02 -0.38723500534E+02  0.37455791981E+02  0.18151845296E+03  0.17300000000E+03 0. -1.
<mgrwt>
<rscale>  2 0.17761197E+03</rscale>
<asrwt>0</asrwt>
<pdfrwt beam="1">  1       21 0.84837528E-01 0.17761197E+03</pdfrwt>
<pdfrwt beam="2">  1       21 0.13827053E-01 0.17761197E+03</pdfrwt>
<totfact> 0.55124543E+04</totfact>
</mgrwt>
</event>
<event>
 4    1  0.3976152E+000  0.2608817E+03  0.7546771E-02  0.1106615E+00
         21   -1    0    0  503  502  0.00000000000E+00  0.00000000000E+00  0.20965645314E+03  0.20965645314E+03  0.00000000000E+00 0. -1.
         21   -1    0    0  501  503 -0.00000000000E+00 -0.00000000000E+00 -0.40938102279E+03  0.40938102279E+03  0.00000000000E+00 0.  1.
          6    1    1    2  501    0 -0.17638785059E+03 -0.83770908296E+02 -0.24069849518E+03  0.35495775030E+03  0.17300000000E+03 0. -1.
         -6    1    1    2    0  502  0.17638785059E+03  0.83770908296E+02  0.40973925534E+02  0.26407972563E+03  0.17300000000E+03 0. -1.
<mgrwt>
<rscale>  2 0.26088166E+03</rscale>
<asrwt>0</asrwt>
<pdfrwt beam="1">  1       21 0.32254839E-01 0.26088166E+03</pdfrwt>
<pdfrwt beam="2">  1       21 0.62981695E-01 0.26088166E+03</pdfrwt>
<totfact> 0.20815322E+04</totfact>
</mgrwt>
</event>
<event>
 4    1  0.3976152E+000  0.1875562E+03  0.7546771E-02  0.1160684E+00
         21   -1    0    0  503  502  0.00000000000E+00  0.00000000000E+00  0.35449763670E+03  0.35449763670E+03  0.00000000000E+00 0.  1.
         21   -1    0    0  501  503 -0.00000000000E+00 -0.00000000000E+00 -0.41600496017E+03  0.41600496017E+03  0.00000000000E+00 0.  1.
          6    1    1    2  501    0  0.49011554148E+02 -0.53349842411E+02 -0.36693162334E+03  0.41208755663E+03  0.17300000000E+03 0.  1.
         -6    1    1    2    0  502 -0.49011554148E+02  0.53349842411E+02  0.30542429986E+03  0.35841504024E+03  0.17300000000E+03 0.  1.
<mgrwt>
<rscale>  2 0.18755623E+03</rscale>
<asrwt>0</asrwt>
<pdfrwt beam="1">  1       21 0.54538098E-01 0.18755623E+03</pdfrwt>
<pdfrwt beam="2">  1       21 0.64000763E-01 0.18755623E+03</pdfrwt>
<totfact> 0.71843502E+03</totfact>
</mgrwt>
</event>
<event>
 4    1  0.3976152E+000  0.1795656E+03  0.7546771E-02  0.1168224E+00
         21   -1    0    0  503  502  0.00000000000E+00  0.00000000000E+00  0.11505670908E+04  0.11505670908E+04  0.00000000000E+00 0.  1.
         21   -1    0    0  501  503 -0.00000000000E+00 -0.00000000000E+00 -0.36459891909E+02  0.36459891909E+02  0.00000000000E+00 0.  1.
          6    1    1    2  501    0 -0.12831389658E+02  0.46369700368E+02  0.27156967089E+03  0.32556701279E+03  0.17300000000E+03 0. -1.
         -6    1    1    2    0  502  0.12831389658E+02 -0.46369700368E+02  0.84253752801E+03  0.86145996992E+03  0.17300000000E+03 0. -1.
<mgrwt>
<rscale>  2 0.17956557E+03</rscale>
<asrwt>0</asrwt>
<pdfrwt beam="1">  1       21 0.17701029E+00 0.17956557E+03</pdfrwt>
<pdfrwt beam="2">  1       21 0.56092150E-02 0.17956557E+03</pdfrwt>
<totfact> 0.42544958E+04</totfact>
</mgrwt>
</event>
<event>
 4    1  0.3976152E+000  0.2559984E+03  0.7546771E-02  0.1109572E+00
         21   -1    0    0  501  502  0.00000000000E+00  0.00000000000E+00  0.89108732646E+03  0.89108732646E+03  0.00000000000E+00 0. -1.
         21   -1    0    0  502  503 -0.00000000000E+00 -0.00000000000E+00 -0.10979951805E+03  0.10979951805E+03  0.00000000000E+00 0.  1.
          6    1    1    2  501    0  0.16428956577E+02  0.18797947786E+03  0.67820798954E+03  0.72491466517E+03  0.17300000000E+03 0. -1.
         -6    1    1    2    0  503 -0.16428956577E+02 -0.18797947786E+03  0.10307981887E+03  0.27597217934E+03  0.17300000000E+03 0.  1.
<mgrwt>
<rscale>  2 0.25599843E+03</rscale>
<asrwt>0</asrwt>
<pdfrwt beam="1">  1       21 0.13709035E+00 0.25599843E+03</pdfrwt>
<pdfrwt beam="2">  1       21 0.16892234E-01 0.25599843E+03</pdfrwt>
<totfact> 0.11444801E+04</totfact>
</mgrwt>
</event>
<event>
 4    1  0.3976152E+000  0.2177082E+03  0.7546771E-02  0.1135603E+00
         21   -1    0    0  501  502  0.00000000000E+00  0.00000000000E+00  0.14922613076E+03  0.14922613076E+03  0.00000000000E+00 0.  1.
         21   -1    0    0  502  503 -0.00000000000E+00 -0.00000000000E+00 -0.70970216302E+03  0.70970216302E+03  0.00000000000E+00 0.  1.
          6    1    1    2  501    0  0.12954385213E+03  0.26196557903E+02  0.38973560029E+02  0.22116918332E+03  0.17300000000E+03 0.  1.
         -6    1    1    2    0  503 -0.12954385213E+03 -0.26196557903E+02 -0.59944959229E+03  0.63775911046E+03  0.17300000000E+03 0.  1.
<mgrwt>
<rscale>  2 0.21770822E+03</rscale>
<asrwt>0</asrwt>
<pdfrwt beam="1">  1       21 0.22957867E-01 0.21770822E+03</pdfrwt>
<pdfrwt beam="2">  1       21 0.10918495E+00 0.21770822E+03</pdfrwt>
<totfact> 0.11644486E+04</totfact>
</mgrwt>
</event>
<event>
 4    1  0.3976152E+000  0.1839744E+03  0.7546771E-02  0.1164011E+00
         21   -1    0    0  503  502  0.00000000000E+00  0.00000000000E+00  0.10652786819E+03  0.10652786819E+03  0.00000000000E+00 0. -1.
         21   -1    0    0  501  503 -0.00000000000E+00 -0.00000000000E+00 -0.52694329098E+03  0.52694329098E+03  0.00000000000E+00 0. -1.
          6    1    1    2  501    0 -0.44183191441E+02  0.44333201066E+02 -0.40978657244E+03  0.44918996213E+03  0.17300000000E+03 0. -1.
         -6    1    1    2    0  502  0.44183191441E+02 -0.44333201066E+02 -0.10628850345E+02  0.18428119704E+03  0.17300000000E+03 0. -1.
<mgrwt>
<rscale>  2 0.18397442E+03</rscale>
<asrwt>0</asrwt>
<pdfrwt beam="1">  1       21 0.16388903E-01 0.18397442E+03</pdfrwt>
<pdfrwt beam="2">  1       21 0.81068199E-01 0.18397442E+03</pdfrwt>
<totfact> 0.44726767E+04</totfact>
</mgrwt>
</event>
<event>
 4    1  0.3976152E+000  0.2733690E+03  0.7546771E-02  0.1099367E+00
         21   -1    0    0  501  502  0.00000000000E+00  0.00000000000E+00  0.11809477946E+04  0.11809477946E+04  0.00000000000E+00 0. -1.
         21   -1    0    0  502  503 -0.00000000000E+00 -0.00000000000E+00 -0.29349061045E+03  0.29349061045E+03  0.00000000000E+00 0. -1.
          6    1    1    2  501    0 -0.19314912724E+02  0.21078082496E+03  0.10966516488E+04  0.11302103613E+04  0.17300000000E+03 0. -1.
         -6    1    1    2    0  503  0.19314912724E+02 -0.21078082496E+03 -0.20919446468E+03  0.34422804371E+03  0.17300000000E+03 0. -1.
<mgrwt>
<rscale>  2 0.27336902E+03</rscale>
<asrwt>0</asrwt>
<pdfrwt beam="1">  1       21 0.18168427E+00 0.27336902E+03</pdfrwt>
<pdfrwt beam="2">  1       21 0.45152402E-01 0.27336902E+03</pdfrwt>
<totfact> 0.77231840E+02</totfact>
</mgrwt>
</event>
<event>
 4    1  0.3976152E+000  0.1863159E+03  0.7546771E-02  0.1161827E+00
         21   -1    0    0  501  502  0.00000000000E+00  0.00000000000E+00  0.13967239073E+04  0.13967239073E+04  0.00000000000E+00 0. -1.
         21   -1    0    0  502  503 -0.00000000000E+00 -0.00000000000E+00 -0.25084853845E+02  0.25084853845E+02  0.00000000000E+00 0. -1.
          6    1    1    2  501    0 -0.16629081592E+02  0.67142378953E+02  0.61756296070E+03  0.64505630439E+03  0.17300000000E+03 0. -1.
         -6    1    1    2    0  503  0.16629081592E+02 -0.67142378953E+02  0.75407609273E+03  0.77675245673E+03  0.17300000000E+03 0. -1.
<mgrwt>
<rscale>  2 0.18631593E+03</rscale>
<asrwt>0</asrwt>
<pdfrwt beam="1">  1       21 0.21488054E+00 0.18631593E+03</pdfrwt>
<pdfrwt beam="2">  1       21 0.38592094E-02 0.18631593E+03</pdfrwt>
<totfact> 0.45215502E+04</totfact>
</mgrwt>
</event>
<event>
 4    1  0.3976152E+000  0.3061883E+03  0.7546771E-02  0.1082187E+00
         21   -1    0    0  501  502  0.00000000000E+00  0.00000000000E+00  0.17555069182E+03  0.17555069182E+03  0.00000000000E+00 0. -1.
         21   -1    0    0  502  503 -0.00000000000E+00 -0.00000000000E+00 -0.59355352235E+03  0.59355352235E+03  0.00000000000E+00 0.  1.
          6    1    1    2  501    0  0.20680071793E+03 -0.14510598512E+03 -0.87234562640E+02  0.31837266336E+03  0.17300000000E+03 0. -1.
         -6    1    1    2    0  503 -0.20680071793E+03  0.14510598512E+03 -0.33076826788E+03  0.45073155081E+03  0.17300000000E+03 0.  1.
<mgrwt>
<rscale>  2 0.30618831E+03</rscale>
<asrwt>0</asrwt>
<pdfrwt beam="1">  1       21 0.27007798E-01 0.30618831E+03</pdfrwt>
<pdfrwt beam="2">  1       21 0.91315928E-01 0.30618831E+03</pdfrwt>
<totfact> 0.12474461E+04</totfact>
</mgrwt>
</event>
<event>
 4    1  0.3976152E+000  0.2001917E+03  0.7546771E-02  0.1149577E+00
         21   -1    0    0  501  502  0.00000000000E+00  0.00000000000E+00  0.87628579379E+03  0.87628579379E+03  0.00000000000E+00 0.  1.
         21   -1    0    0  502  503 -0.00000000000E+00 -0.00000000000E+00 -0.88069138408E+02  0.88069138408E+02  0.00000000000E+00 0.  1.
          6    1    1    2  501    0 -0.85974935687E+02 -0.52497827323E+02  0.72841241245E+03  0.75542130898E+03  0.17300000000E+03 0.  1.
         -6    1    1    2    0  503  0.85974935687E+02  0.52497827323E+02  0.59804242927E+02  0.20893362322E+03  0.17300000000E+03 0.  1.
<mgrwt>
<rscale>  2 0.20019169E+03</rscale>
<asrwt>0</asrwt>
<pdfrwt beam="1">  1       21 0.13481319E+00 0.20019169E+03</pdfrwt>
<pdfrwt beam="2">  1       21 0.13549099E-01 0.20019169E+03</pdfrwt>
<totfact> 0.18504973E+04</totfact>
</mgrwt>
</event>
<event>
 4    1  0.3976152E+000  0.1978326E+03  0.7546771E-02  0.1151581E+00
         21   -1    0    0  501  502  0.00000000000E+00  0.00000000000E+00  0.24079623869E+03  0.24079623869E+03  0.00000000000E+00 0.  1.
         21   -1    0    0  502  503 -0.00000000000E+00 -0.00000000000E+00 -0.25749792715E+03  0.25749792715E+03  0.00000000000E+00 0. -1.
          6    1    1    2  501    0 -0.68185316658E+02  0.67524157621E+02  0.14295183706E+03  0.24407576076E+03  0.17300000000E+03 0.  1.
         -6    1    1    2    0  503  0.68185316658E+02 -0.67524157621E+02 -0.15965352553E+03  0.25421840508E+03  0.17300000000E+03 0. -1.
<mgrwt>
<rscale>  2 0.19783263E+03</rscale>
<asrwt>0</asrwt>
<pdfrwt beam="1">  1       21 0.37045575E-01 0.19783263E+03</pdfrwt>
<pdfrwt beam="2">  1       21 0.39615066E-01 0.19783263E+03</pdfrwt>
<totfact> 0.43052921E+04</totfact>
</mgrwt>
</event>
<event>
 4    1  0.3976152E+000  0.2066730E+03  0.7546771E-02  0.1144228E+00
         21   -1    0    0  501  502  0.00000000000E+00  0.00000000000E+00  0.19499033198E+03  0.19499033198E+03  0.00000000000E+00 0.  1.
         21   -1    0    0  502  503 -0.00000000000E+00 -0.00000000000E+00 -0.36488117917E+03  0.36488117917E+03  0.00000000000E+00 0.  1.
          6    1    1    2  501    0 -0.11296095937E+03 -0.49530800507E+01  0.92024553636E+02  0.22623489964E+03  0.17300000000E+03 0.  1.
         -6    1    1    2    0  503  0.11296095937E+03  0.49530800507E+01 -0.26191540083E+03  0.33363661150E+03  0.17300000000E+03 0.  1.
<mgrwt>
<rscale>  2 0.20667296E+03</rscale>
<asrwt>0</asrwt>
<pdfrwt beam="1">  1       21 0.29998513E-01 0.20667296E+03</pdfrwt>
<pdfrwt beam="2">  1       21 0.56135565E-01 0.20667296E+03</pdfrwt>
<totfact> 0.31591523E+04</totfact>
</mgrwt>
</event>
<event>
 4    1  0.3976152E+000  0.1880467E+03  0.7546771E-02  0.1160235E+00
         21   -1    0    0  501  502  0.00000000000E+00  0.00000000000E+00  0.19638479117E+03  0.19638479117E+03  0.00000000000E+00 0.  1.
         21   -1    0    0  502  503 -0.00000000000E+00 -0.00000000000E+00 -0.21445030968E+03  0.21445030968E+03  0.00000000000E+00 0.  1.
          6    1    1    2  501    0 -0.16885270269E+02 -0.71745720762E+02  0.73224774015E+02  0.20180046662E+03  0.17300000000E+03 0.  1.
         -6    1    1    2    0  503  0.16885270269E+02  0.71745720762E+02 -0.91290292521E+02  0.20903463423E+03  0.17300000000E+03 0.  1.
<mgrwt>
<rscale>  2 0.18804670E+03</rscale>
<asrwt>0</asrwt>
<pdfrwt beam="1">  1       21 0.30213045E-01 0.18804670E+03</pdfrwt>
<pdfrwt beam="2">  1       21 0.32992355E-01 0.18804670E+03</pdfrwt>
<totfact> 0.93123990E+04</totfact>
</mgrwt>
</event>
<event>
 4    1  0.3976152E+000  0.2467591E+03  0.7546771E-02  0.1115370E+00
         21   -1    0    0  503  502  0.00000000000E+00  0.00000000000E+00  0.18168983179E+03  0.18168983179E+03  0.00000000000E+00 0.  1.
         21   -1    0    0  501  503 -0.00000000000E+00 -0.00000000000E+00 -0.48769200672E+03  0.48769200672E+03  0.00000000000E+00 0.  1.
          6    1    1    2  501    0  0.90220163619E+02  0.15106747949E+03 -0.34019493941E+03  0.42026498555E+03  0.17300000000E+03 0.  1.
         -6    1    1    2    0  502 -0.90220163619E+02 -0.15106747949E+03  0.34192764481E+02  0.24911685295E+03  0.17300000000E+03 0.  1.
<mgrwt>
<rscale>  2 0.24675912E+03</rscale>
<asrwt>0</asrwt>
<pdfrwt beam="1">  1       21 0.27952282E-01 0.24675912E+03</pdfrwt>
<pdfrwt beam="2">  1       21 0.75029539E-01 0.24675912E+03</pdfrwt>
<totfact> 0.18837204E+04</totfact>
</mgrwt>
</event>
<event>
 4    1  0.3976152E+000  0.1883263E+03  0.7546771E-02  0.1159980E+00
         21   -1    0    0  501  502  0.00000000000E+00  0.00000000000E+00  0.12847033469E+03  0.12847033469E+03  0.00000000000E+00 0.  1.
         21   -1    0    0  502  503 -0.00000000000E+00 -0.00000000000E+00 -0.28074278634E+03  0.28074278634E+03  0.00000000000E+00 0. -1.
          6    1    1    2  501    0  0.55698458003E+02  0.49350419413E+02 -0.49738798808E+02  0.19478380381E+03  0.17300000000E+03 0.  1.
         -6    1    1    2    0  503 -0.55698458003E+02 -0.49350419413E+02 -0.10253365283E+03  0.21442931722E+03  0.17300000000E+03 0. -1.
<mgrwt>
<rscale>  2 0.18832627E+03</rscale>
<asrwt>0</asrwt>
<pdfrwt beam="1">  1       21 0.19764667E-01 0.18832627E+03</pdfrwt>
<pdfrwt beam="2">  1       21 0.43191198E-01 0.18832627E+03</pdfrwt>
<totfact> 0.12181274E+05</totfact>
</mgrwt>
</event>
<event>
 4    1  0.3976152E+000  0.1755840E+03  0.7546771E-02  0.1172147E+00
         21   -1    0    0  501  502  0.00000000000E+00  0.00000000000E+00  0.25701105853E+03  0.25701105853E+03  0.00000000000E+00 0. -1.
         21   -1    0    0  502  503 -0.00000000000E+00 -0.00000000000E+00 -0.12760134211E+03  0.12760134211E+03  0.00000000000E+00 0. -1.
          6    1    1    2  501    0  0.29189204331E+02 -0.69809289359E+01  0.11178031832E+03  0.20814558026E+03  0.17300000000E+03 0. -1.
         -6    1    1    2    0  503 -0.29189204331E+02  0.69809289359E+01  0.17629398093E+02  0.17646682038E+03  0.17300000000E+03 0. -1.
<mgrwt>
<rscale>  2 0.17558401E+03</rscale>
<asrwt>0</asrwt>
<pdfrwt beam="1">  1       21 0.39540163E-01 0.17558401E+03</pdfrwt>
<pdfrwt beam="2">  1       21 0.19630976E-01 0.17558401E+03</pdfrwt>
<totfact> 0.14818243E+05</totfact>
</mgrwt>
</event>
<event>
 4    1  0.3976152E+000  0.1924927E+03  0.7546771E-02  0.1156232E+00
         21   -1    0    0  503  502  0.00000000000E+00  0.00000000000E+00  0.21294869149E+03  0.21294869149E+03  0.00000000000E+00 0.  1.
         21   -1    0    0  501  503 -0.00000000000E+00 -0.00000000000E+00 -0.20959621239E+03  0.20959621239E+03  0.00000000000E+00 0.  1.
          6    1    1    2  501    0 -0.83589325338E+02 -0.11715693845E+02 -0.85388584262E+02  0.21058167801E+03  0.17300000000E+03 0.  1.
         -6    1    1    2    0  502  0.83589325338E+02  0.11715693845E+02  0.88741063362E+02  0.21196322587E+03  0.17300000000E+03 0.  1.
<mgrwt>
<rscale>  2 0.19249268E+03</rscale>
<asrwt>0</asrwt>
<pdfrwt beam="1">  1       21 0.32761337E-01 0.19249268E+03</pdfrwt>
<pdfrwt beam="2">  1       21 0.32245571E-01 0.19249268E+03</pdfrwt>
<totfact> 0.82984117E+04</totfact>
</mgrwt>
</event>
<event>
 4    1  0.3976152E+000  0.2284540E+03  0.7546771E-02  0.1127733E+00
         21   -1    0    0  503  502  0.00000000000E+00  0.00000000000E+00  0.19162729159E+03  0.19162729159E+03  0.00000000000E+00 0. -1.
         21   -1    0    0  501  503 -0.00000000000E+00 -0.00000000000E+00 -0.33818529263E+03  0.33818529263E+03  0.00000000000E+00 0.  1.
          6    1    1    2  501    0 -0.14399314412E+03 -0.39092398421E+02 -0.19015293089E+03  0.29723623315E+03  0.17300000000E+03 0.  1.
         -6    1    1    2    0  502  0.14399314412E+03  0.39092398421E+02  0.43594929850E+02  0.23257635107E+03  0.17300000000E+03 0. -1.
<mgrwt>
<rscale>  2 0.22845402E+03</rscale>
<asrwt>0</asrwt>
<pdfrwt beam="1">  1       21 0.29481122E-01 0.22845402E+03</pdfrwt>
<pdfrwt beam="2">  1       21 0.52028506E-01 0.22845402E+03</pdfrwt>
<totfact> 0.37972164E+04</totfact>
</mgrwt>
</event>
<event>
 4    1  0.3976152E+000  0.3233364E+03  0.7546771E-02  0.1074124E+00
         21   -1    0    0  501  502  0.00000000000E+00  0.00000000000E+00  0.62791193771E+03  0.62791193771E+03  0.00000000000E+00 0. -1.
         21   -1    0    0  502  503 -0.00000000000E+00 -0.00000000000E+00 -0.44321643859E+03  0.44321643859E+03  0.00000000000E+00 0.  1.
          6    1    1    2  501    0  0.27049022369E+03 -0.38110893262E+02  0.51552493839E+03  0.60853296000E+03  0.17300000000E+03 0. -1.
         -6    1    1    2    0  503 -0.27049022369E+03  0.38110893262E+02 -0.33082943927E+03  0.46259541631E+03  0.17300000000E+03 0.  1.
<mgrwt>
<rscale>  2 0.32333636E+03</rscale>
<asrwt>0</asrwt>
<pdfrwt beam="1">  1       21 0.96601837E-01 0.32333636E+03</pdfrwt>
<pdfrwt beam="2">  1       21 0.68187144E-01 0.32333636E+03</pdfrwt>
<totfact> 0.15905224E+03</totfact>
</mgrwt>
</event>
<event>
 4    1  0.3976152E+000  0.2304697E+03  0.7546771E-02  0.1126310E+00
         21   -1    0    0  501  502  0.00000000000E+00  0.00000000000E+00  0.21473011810E+03  0.21473011810E+03  0.00000000000E+00 0.  1.
         21   -1    0    0  502  503 -0.00000000000E+00 -0.00000000000E+00 -0.33230001795E+03  0.33230001795E+03  0.00000000000E+00 0. -1.
          6    1    1    2  501    0  0.81965755560E+02 -0.12833118296E+03  0.79496740960E+02  0.24379501518E+03  0.17300000000E+03 0.  1.
         -6    1    1    2    0  503 -0.81965755560E+02  0.12833118296E+03 -0.19706664081E+03  0.30323512086E+03  0.17300000000E+03 0. -1.
<mgrwt>
<rscale>  2 0.23046969E+03</rscale>
<asrwt>0</asrwt>
<pdfrwt beam="1">  1       21 0.33035403E-01 0.23046969E+03</pdfrwt>
<pdfrwt beam="2">  1       21 0.51123079E-01 0.23046969E+03</pdfrwt>
<totfact> 0.31469695E+04</totfact>
</mgrwt>
</event>
<event>
 4    1  0.3976152E+000  0.1861142E+03  0.7546771E-02  0.1162013E+00
         21   -1    0    0  501  502  0.00000000000E+00  0.00000000000E+00  0.21001018996E+03  0.21001018996E+03  0.00000000000E+00 0.  1.
         21   -1    0    0  502  503 -0.00000000000E+00 -0.00000000000E+00 -0.18816439766E+03  0.18816439766E+03  0.00000000000E+00 0.  1.
          6    1    1    2  501    0  0.64676350692E+02  0.22945042175E+02  0.80870471227E+02  0.20292495760E+03  0.17300000000E+03 0.  1.
         -6    1    1    2    0  503 -0.64676350692E+02 -0.22945042175E+02 -0.59024678927E+02  0.19524963002E+03  0.17300000000E+03 0.  1.
<mgrwt>
<rscale>  2 0.18611423E+03</rscale>
<asrwt>0</asrwt>
<pdfrwt beam="1">  1       21 0.32309260E-01 0.18611423E+03</pdfrwt>
<pdfrwt beam="2">  1       21 0.28948369E-01 0.18611423E+03</pdfrwt>
<totfact> 0.10552384E+05</totfact>
</mgrwt>
</event>
<event>
 4    1  0.3976152E+000  0.2283055E+03  0.7546771E-02  0.1127838E+00
         21   -1    0    0  503  502  0.00000000000E+00  0.00000000000E+00  0.47894704779E+03  0.47894704779E+03  0.00000000000E+00 0. -1.
         21   -1    0    0  501  503 -0.00000000000E+00 -0.00000000000E+00 -0.20077787511E+03  0.20077787511E+03  0.00000000000E+00 0. -1.
          6    1    1    2  501    0 -0.13873452181E+03 -0.54287450120E+02 -0.90910286112E+02  0.24573985209E+03  0.17300000000E+03 0. -1.
         -6    1    1    2    0  502  0.13873452181E+03  0.54287450120E+02  0.36907945880E+03  0.43398507081E+03  0.17300000000E+03 0. -1.
<mgrwt>
<rscale>  2 0.22830549E+03</rscale>
<asrwt>0</asrwt>
<pdfrwt beam="1">  1       21 0.73684161E-01 0.22830549E+03</pdfrwt>
<pdfrwt beam="2">  1       21 0.30888904E-01 0.22830549E+03</pdfrwt>
<totfact> 0.16294740E+04</totfact>
</mgrwt>
</event>
<event>
 4    1  0.3976152E+000  0.2241615E+03  0.7546771E-02  0.1130818E+00
         21   -1    0    0  501  502  0.00000000000E+00  0.00000000000E+00  0.42980461204E+03  0.42980461204E+03  0.00000000000E+00 0. -1.
         21   -1    0    0  502  503 -0.00000000000E+00 -0.00000000000E+00 -0.11879660161E+03  0.11879660161E+03  0.00000000000E+00 0.  1.
          6    1    1    2  501    0 -0.14190064953E+03  0.13549416138E+02  0.19007288124E+03  0.29389807961E+03  0.17300000000E+03 0.  1.
         -6    1    1    2    0  503  0.14190064953E+03 -0.13549416138E+02  0.12093512920E+03  0.25470313404E+03  0.17300000000E+03 0.  1.
<mgrwt>
<rscale>  2 0.22416151E+03</rscale>
<asrwt>0</asrwt>
<pdfrwt beam="1">  1       21 0.66123786E-01 0.22416151E+03</pdfrwt>
<pdfrwt beam="2">  1       21 0.18276400E-01 0.22416151E+03</pdfrwt>
<totfact> 0.56481350E+04</totfact>
</mgrwt>
</event>
<event>
 4    1  0.3976152E+000  0.2264991E+03  0.7546771E-02  0.1129128E+00
         21   -1    0    0  501  502  0.00000000000E+00  0.00000000000E+00  0.53959384933E+03  0.53959384933E+03  0.00000000000E+00 0.  1.
         21   -1    0    0  502  503 -0.00000000000E+00 -0.00000000000E+00 -0.10782444325E+03  0.10782444325E+03  0.00000000000E+00 0. -1.
          6    1    1    2  501    0 -0.80230995457E+02 -0.12221222317E+03  0.32719706340E+03  0.39794441624E+03  0.17300000000E+03 0.  1.
         -6    1    1    2    0  503  0.80230995457E+02  0.12221222317E+03  0.10457234268E+03  0.24947387634E+03  0.17300000000E+03 0. -1.
<mgrwt>
<rscale>  2 0.22649910E+03</rscale>
<asrwt>0</asrwt>
<pdfrwt beam="1">  1       21 0.83014437E-01 0.22649910E+03</pdfrwt>
<pdfrwt beam="2">  1       21 0.16588376E-01 0.22649910E+03</pdfrwt>
<totfact> 0.40573979E+04</totfact>
</mgrwt>
</event>
<event>
 4    1  0.3976152E+000  0.1804042E+03  0.7546771E-02  0.1167412E+00
         21   -1    0    0  503  502  0.00000000000E+00  0.00000000000E+00  0.77313270934E+03  0.77313270934E+03  0.00000000000E+00 0. -1.
         21   -1    0    0  501  503 -0.00000000000E+00 -0.00000000000E+00 -0.17305104456E+03  0.17305104456E+03  0.00000000000E+00 0. -1.
          6    1    1    2  501    0 -0.44573411835E+02  0.25097189317E+02 -0.11150649712E+03  0.21208337241E+03  0.17300000000E+03 0. -1.
         -6    1    1    2    0  502  0.44573411835E+02 -0.25097189317E+02  0.71158816190E+03  0.73410038149E+03  0.17300000000E+03 0. -1.
<mgrwt>
<rscale>  2 0.18040415E+03</rscale>
<asrwt>0</asrwt>
<pdfrwt beam="1">  1       21 0.11894349E+00 0.18040415E+03</pdfrwt>
<pdfrwt beam="2">  1       21 0.26623238E-01 0.18040415E+03</pdfrwt>
<totfact> 0.73167042E+03</totfact>
</mgrwt>
</event>
<event>
 4    1  0.3976152E+000  0.1807332E+03  0.7546771E-02  0.1167095E+00
         21   -1    0    0  503  502  0.00000000000E+00  0.00000000000E+00  0.10898797448E+04  0.10898797448E+04  0.00000000000E+00 0. -1.
         21   -1    0    0  501  503 -0.00000000000E+00 -0.00000000000E+00 -0.29998949971E+02  0.29998949971E+02  0.00000000000E+00 0. -1.
          6    1    1    2  501    0 -0.91848212256E+01 -0.51489198863E+02  0.51276855173E+03  0.54368748945E+03  0.17300000000E+03 0. -1.
         -6    1    1    2    0  502  0.91848212256E+01  0.51489198863E+02  0.54711224310E+03  0.57619120532E+03  0.17300000000E+03 0. -1.
<mgrwt>
<rscale>  2 0.18073322E+03</rscale>
<asrwt>0</asrwt>
<pdfrwt beam="1">  1       21 0.16767378E+00 0.18073322E+03</pdfrwt>
<pdfrwt beam="2">  1       21 0.46152239E-02 0.18073322E+03</pdfrwt>
<totfact> 0.68710936E+04</totfact>
</mgrwt>
</event>
<event>
 4    1  0.3976152E+000  0.3176226E+03  0.7546771E-02  0.1076749E+00
         21   -1    0    0  501  502  0.00000000000E+00  0.00000000000E+00  0.74516498174E+03  0.74516498174E+03  0.00000000000E+00 0.  1.
         21   -1    0    0  502  503 -0.00000000000E+00 -0.00000000000E+00 -0.16180653365E+03  0.16180653365E+03  0.00000000000E+00 0.  1.
          6    1    1    2  501    0 -0.61962439190E+02 -0.25906713286E+03  0.47492967576E+03  0.57135131059E+03  0.17300000000E+03 0.  1.
         -6    1    1    2    0  503  0.61962439190E+02  0.25906713286E+03  0.10842877233E+03  0.33562020479E+03  0.17300000000E+03 0.  1.
<mgrwt>
<rscale>  2 0.31762261E+03</rscale>
<asrwt>0</asrwt>
<pdfrwt beam="1">  1       21 0.11464076E+00 0.31762261E+03</pdfrwt>
<pdfrwt beam="2">  1       21 0.24893313E-01 0.31762261E+03</pdfrwt>
<totfact> 0.83877131E+03</totfact>
</mgrwt>
</event>
<event>
 4    1  0.3976152E+000  0.1918135E+03  0.7546771E-02  0.1156836E+00
         21   -1    0    0  503  502  0.00000000000E+00  0.00000000000E+00  0.62903973982E+02  0.62903973982E+02  0.00000000000E+00 0.  1.
         21   -1    0    0  501  503 -0.00000000000E+00 -0.00000000000E+00 -0.80297477992E+03  0.80297477992E+03  0.00000000000E+00 0. -1.
          6    1    1    2  501    0  0.30215216494E+02 -0.77139142042E+02 -0.59565710982E+03  0.62577935330E+03  0.17300000000E+03 0. -1.
         -6    1    1    2    0  502 -0.30215216494E+02  0.77139142042E+02 -0.14441369613E+03  0.24009940061E+03  0.17300000000E+03 0.  1.
<mgrwt>
<rscale>  2 0.19181347E+03</rscale>
<asrwt>0</asrwt>
<pdfrwt beam="1">  1       21 0.96775349E-02 0.19181347E+03</pdfrwt>
<pdfrwt beam="2">  1       21 0.12353458E+00 0.19181347E+03</pdfrwt>
<totfact> 0.42260918E+04</totfact>
</mgrwt>
</event>
<event>
 4    1  0.3976152E+000  0.1803268E+03  0.7546771E-02  0.1167487E+00
         21   -1    0    0  501  502  0.00000000000E+00  0.00000000000E+00  0.17857886319E+04  0.17857886319E+04  0.00000000000E+00 0. -1.
         21   -1    0    0  502  503 -0.00000000000E+00 -0.00000000000E+00 -0.18510075462E+02  0.18510075462E+02  0.00000000000E+00 0. -1.
          6    1    1    2  501    0 -0.37984992603E+01  0.50737849504E+02  0.99866039744E+03  0.10148104983E+04  0.17300000000E+03 0. -1.
         -6    1    1    2    0  503  0.37984992603E+01 -0.50737849504E+02  0.76861815905E+03  0.78948820915E+03  0.17300000000E+03 0. -1.
<mgrwt>
<rscale>  2 0.18032681E+03</rscale>
<asrwt>0</asrwt>
<pdfrwt beam="1">  1       21 0.27473658E+00 0.18032681E+03</pdfrwt>
<pdfrwt beam="2">  1       21 0.28477053E-02 0.18032681E+03</pdfrwt>
<totfact> 0.33281472E+04</totfact>
</mgrwt>
</event>
<event>
 4    1  0.3976152E+000  0.1808425E+03  0.7546771E-02  0.1166990E+00
         21   -1    0    0  503  502  0.00000000000E+00  0.00000000000E+00  0.12857650917E+03  0.12857650917E+03  0.00000000000E+00 0. -1.
         21   -1    0    0  501  503 -0.00000000000E+00 -0.00000000000E+00 -0.61647365524E+03  0.61647365524E+03  0.00000000000E+00 0.  1.
          6    1    1    2  501    0 -0.38562222616E+02 -0.35888023565E+02 -0.52946039379E+03  0.55949289883E+03  0.17300000000E+03 0.  1.
         -6    1    1    2    0  502  0.38562222616E+02  0.35888023565E+02  0.41563247725E+02  0.18555726558E+03  0.17300000000E+03 0. -1.
<mgrwt>
<rscale>  2 0.18084246E+03</rscale>
<asrwt>0</asrwt>
<pdfrwt beam="1">  1       21 0.19781001E-01 0.18084246E+03</pdfrwt>
<pdfrwt beam="2">  1       21 0.94842101E-01 0.18084246E+03</pdfrwt>
<totfact> 0.22068316E+04</totfact>
</mgrwt>
</event>
<event>
 4    1  0.3976152E+000  0.2352071E+03  0.7546771E-02  0.1123028E+00
         21   -1    0    0  503  502  0.00000000000E+00  0.00000000000E+00  0.23552196229E+04  0.23552196229E+04  0.00000000000E+00 0. -1.
         21   -1    0    0  501  503 -0.00000000000E+00 -0.00000000000E+00 -0.86217802574E+02  0.86217802574E+02  0.00000000000E+00 0.  1.
          6    1    1    2  501    0  0.15929979891E+03 -0.41162983473E+01  0.93263603191E+02  0.25302266603E+03  0.17300000000E+03 0.  1.
         -6    1    1    2    0  502 -0.15929979891E+03  0.41162983473E+01  0.21757382171E+04  0.21884147594E+04  0.17300000000E+03 0. -1.
<mgrwt>
<rscale>  2 0.23520708E+03</rscale>
<asrwt>0</asrwt>
<pdfrwt beam="1">  1       21 0.36234143E+00 0.23520708E+03</pdfrwt>
<pdfrwt beam="2">  1       21 0.13264279E-01 0.23520708E+03</pdfrwt>
<totfact> 0.68243807E+02</totfact>
</mgrwt>
</event>
<event>
 4    1  0.3976152E+000  0.2222849E+03  0.7546771E-02  0.1132191E+00
         21   -1    0    0  501  502  0.00000000000E+00  0.00000000000E+00  0.14401850198E+03  0.14401850198E+03  0.00000000000E+00 0. -1.
         21   -1    0    0  502  503 -0.00000000000E+00 -0.00000000000E+00 -0.38572517345E+03  0.38572517345E+03  0.00000000000E+00 0. -1.
          6    1    1    2  501    0 -0.16942885641E+02  0.13854429852E+03 -0.20891895763E+03  0.30505362624E+03  0.17300000000E+03 0. -1.
         -6    1    1    2    0  503  0.16942885641E+02 -0.13854429852E+03 -0.32787713832E+02  0.22469004919E+03  0.17300000000E+03 0. -1.
<mgrwt>
<rscale>  2 0.22228492E+03</rscale>
<asrwt>0</asrwt>
<pdfrwt beam="1">  1       21 0.22156693E-01 0.22228492E+03</pdfrwt>
<pdfrwt beam="2">  1       21 0.59342334E-01 0.22228492E+03</pdfrwt>
<totfact> 0.49828049E+04</totfact>
</mgrwt>
</event>
<event>
 4    1  0.3976152E+000  0.2110811E+03  0.7546771E-02  0.1140713E+00
         21   -1    0    0  501  502  0.00000000000E+00  0.00000000000E+00  0.44692586502E+03  0.44692586502E+03  0.00000000000E+00 0. -1.
         21   -1    0    0  502  503 -0.00000000000E+00 -0.00000000000E+00 -0.10789289297E+03  0.10789289297E+03  0.00000000000E+00 0. -1.
          6    1    1    2  501    0 -0.55960341529E+02  0.10721316231E+03  0.24599477983E+03  0.32414295257E+03  0.17300000000E+03 0. -1.
         -6    1    1    2    0  503  0.55960341529E+02 -0.10721316231E+03  0.93038192217E+02  0.23067580542E+03  0.17300000000E+03 0. -1.
<mgrwt>
<rscale>  2 0.21108108E+03</rscale>
<asrwt>0</asrwt>
<pdfrwt beam="1">  1       21 0.68757825E-01 0.21108108E+03</pdfrwt>
<pdfrwt beam="2">  1       21 0.16598907E-01 0.21108108E+03</pdfrwt>
<totfact> 0.62292687E+04</totfact>
</mgrwt>
</event>
<event>
 4    1  0.3976152E+000  0.1746719E+03  0.7546771E-02  0.1173062E+00
         21   -1    0    0  501  502  0.00000000000E+00  0.00000000000E+00  0.78957826587E+03  0.78957826587E+03  0.00000000000E+00 0.  1.
         21   -1    0    0  502  503 -0.00000000000E+00 -0.00000000000E+00 -0.40498208942E+02  0.40498208942E+02  0.00000000000E+00 0.  1.
          6    1    1    2  501    0 -0.23808041684E+02 -0.38028999671E+01  0.46341352785E+03  0.49523972245E+03  0.17300000000E+03 0.  1.
         -6    1    1    2    0  503  0.23808041684E+02  0.38028999671E+01  0.28566652907E+03  0.33483675236E+03  0.17300000000E+03 0.  1.
<mgrwt>
<rscale>  2 0.17467194E+03</rscale>
<asrwt>0</asrwt>
<pdfrwt beam="1">  1       21 0.12147357E+00 0.17467194E+03</pdfrwt>
<pdfrwt beam="2">  1       21 0.62304943E-02 0.17467194E+03</pdfrwt>
<totfact> 0.95462153E+04</totfact>
</mgrwt>
</event>
<event>
 4    1  0.3976152E+000  0.1800101E+03  0.7546771E-02  0.1167793E+00
         21   -1    0    0  501  502  0.00000000000E+00  0.00000000000E+00  0.93812772614E+02  0.93812772614E+02  0.00000000000E+00 0. -1.
         21   -1    0    0  502  503 -0.00000000000E+00 -0.00000000000E+00 -0.41232019611E+03  0.41232019611E+03  0.00000000000E+00 0.  1.
          6    1    1    2  501    0  0.10505116621E+02 -0.48623818582E+02 -0.57307365940E+02  0.18891206261E+03  0.17300000000E+03 0. -1.
         -6    1    1    2    0  503 -0.10505116621E+02  0.48623818582E+02 -0.26120005756E+03  0.31722090612E+03  0.17300000000E+03 0.  1.
<mgrwt>
<rscale>  2 0.18001009E+03</rscale>
<asrwt>0</asrwt>
<pdfrwt beam="1">  1       21 0.14432734E-01 0.18001009E+03</pdfrwt>
<pdfrwt beam="2">  1       21 0.63433877E-01 0.18001009E+03</pdfrwt>
<totfact> 0.97169692E+04</totfact>
</mgrwt>
</event>
<event>
 4    1  0.3976152E+000  0.1744048E+03  0.7546771E-02  0.1173331E+00
         21   -1    0    0  501  502  0.00000000000E+00  0.00000000000E+00  0.10440281159E+04  0.10440281159E+04  0.00000000000E+00 0. -1.
         21   -1    0    0  502  503 -0.00000000000E+00 -0.00000000000E+00 -0.40469319149E+02  0.40469319149E+02  0.00000000000E+00 0. -1.
          6    1    1    2  501    0 -0.13217812851E+02 -0.17701323267E+02  0.78875591749E+03  0.80780749241E+03  0.17300000000E+03 0. -1.
         -6    1    1    2    0  503  0.13217812851E+02  0.17701323267E+02  0.21480287929E+03  0.27668994267E+03  0.17300000000E+03 0. -1.
<mgrwt>
<rscale>  2 0.17440484E+03</rscale>
<asrwt>0</asrwt>
<pdfrwt beam="1">  1       21 0.16061969E+00 0.17440484E+03</pdfrwt>
<pdfrwt beam="2">  1       21 0.62260499E-02 0.17440484E+03</pdfrwt>
<totfact> 0.46601745E+04</totfact>
</mgrwt>
</event>
<event>
 4    1  0.3976152E+000  0.1874532E+03  0.7546771E-02  0.1160779E+00
         21   -1    0    0  503  502  0.00000000000E+00  0.00000000000E+00  0.12227190331E+04  0.12227190331E+04  0.00000000000E+00 0.  1.
         21   -1    0    0  501  503 -0.00000000000E+00 -0.00000000000E+00 -0.28766950483E+02  0.28766950483E+02  0.00000000000E+00 0. -1.
          6    1    1    2  501    0  0.30315370264E+02  0.65503272166E+02  0.57718166118E+03  0.60685860819E+03  0.17300000000E+03 0. -1.
         -6    1    1    2    0  502 -0.30315370264E+02 -0.65503272166E+02  0.61677042144E+03  0.64462737539E+03  0.17300000000E+03 0. -1.
<mgrwt>
<rscale>  2 0.18745320E+03</rscale>
<asrwt>0</asrwt>
<pdfrwt beam="1">  1       21 0.18811058E+00 0.18745320E+03</pdfrwt>
<pdfrwt beam="2">  1       21 0.44256856E-02 0.18745320E+03</pdfrwt>
<totfact> 0.53238438E+04</totfact>
</mgrwt>
</event>
<event>
 4    1  0.3976152E+000  0.2200012E+03  0.7546771E-02  0.1133882E+00
         21   -1    0    0  501  502  0.00000000000E+00  0.00000000000E+00  0.12976591940E+04  0.12976591940E+04  0.00000000000E+00 0. -1.
         21   -1    0    0  502  503 -0.00000000000E+00 -0.00000000000E+00 -0.54022565553E+02  0.54022565553E+02  0.00000000000E+00 0. -1.
          6    1    1    2  501    0 -0.90623185670E+02  0.10128665181E+03  0.99785457452E+03  0.10218191129E+04  0.17300000000E+03 0. -1.
         -6    1    1    2    0  503  0.90623185670E+02 -0.10128665181E+03  0.24578205391E+03  0.32986264663E+03  0.17300000000E+03 0. -1.
<mgrwt>
<rscale>  2 0.22000124E+03</rscale>
<asrwt>0</asrwt>
<pdfrwt beam="1">  1       21 0.19963985E+00 0.22000124E+03</pdfrwt>
<pdfrwt beam="2">  1       21 0.83111649E-02 0.22000124E+03</pdfrwt>
<totfact> 0.14842542E+04</totfact>
</mgrwt>
</event>
<event>
 4    1  0.3976152E+000  0.1739996E+03  0.7546771E-02  0.1173740E+00
         21   -1    0    0  501  502  0.00000000000E+00  0.00000000000E+00  0.45760553583E+02  0.45760553583E+02  0.00000000000E+00 0.  1.
         21   -1    0    0  502  503 -0.00000000000E+00 -0.00000000000E+00 -0.72197268737E+03  0.72197268737E+03  0.00000000000E+00 0.  1.
          6    1    1    2  501    0  0.17114479668E+02  0.73455093382E+01 -0.22711531580E+03  0.28610702297E+03  0.17300000000E+03 0.  1.
         -6    1    1    2    0  503 -0.17114479668E+02 -0.73455093382E+01 -0.44909681799E+03  0.48162621798E+03  0.17300000000E+03 0.  1.
<mgrwt>
<rscale>  2 0.17399960E+03</rscale>
<asrwt>0</asrwt>
<pdfrwt beam="1">  1       21 0.70400862E-02 0.17399960E+03</pdfrwt>
<pdfrwt beam="2">  1       21 0.11107271E+00 0.17399960E+03</pdfrwt>
<totfact> 0.96324395E+04</totfact>
</mgrwt>
</event>
<event>
 4    1  0.3976152E+000  0.2350175E+03  0.7546771E-02  0.1123157E+00
         21   -1    0    0  501  502  0.00000000000E+00  0.00000000000E+00  0.28831909824E+02  0.28831909824E+02  0.00000000000E+00 0. -1.
         21   -1    0    0  502  503 -0.00000000000E+00 -0.00000000000E+00 -0.19156977746E+04  0.19156977746E+04  0.00000000000E+00 0.  1.
          6    1    1    2  501    0  0.14324948443E+03  0.69164973514E+02 -0.94397448872E+03  0.97279033903E+03  0.17300000000E+03 0. -1.
         -6    1    1    2    0  503 -0.14324948443E+03 -0.69164973514E+02 -0.94289137605E+03  0.97173934539E+03  0.17300000000E+03 0.  1.
<mgrwt>
<rscale>  2 0.23501746E+03</rscale>
<asrwt>0</asrwt>
<pdfrwt beam="1">  1       21 0.44356784E-02 0.23501746E+03</pdfrwt>
<pdfrwt beam="2">  1       21 0.29472274E+00 0.23501746E+03</pdfrwt>
<totfact> 0.11573252E+04</totfact>
</mgrwt>
</event>
<event>
 4    1  0.3976152E+000  0.1804983E+03  0.7546771E-02  0.1167322E+00
         21   -1    0    0  501  502  0.00000000000E+00  0.00000000000E+00  0.12273989889E+03  0.12273989889E+03  0.00000000000E+00 0. -1.
         21   -1    0    0  502  503 -0.00000000000E+00 -0.00000000000E+00 -0.26873036889E+03  0.26873036889E+03  0.00000000000E+00 0. -1.
          6    1    1    2  501    0  0.38902139028E+02 -0.33723105856E+02 -0.51324335857E+02  0.18765343520E+03  0.17300000000E+03 0.  1.
         -6    1    1    2    0  503 -0.38902139028E+02  0.33723105856E+02 -0.94666134142E+02  0.20381683258E+03  0.17300000000E+03 0.  1.
<mgrwt>
<rscale>  2 0.18049827E+03</rscale>
<asrwt>0</asrwt>
<pdfrwt beam="1">  1       21 0.18883061E-01 0.18049827E+03</pdfrwt>
<pdfrwt beam="2">  1       21 0.41343133E-01 0.18049827E+03</pdfrwt>
<totfact> 0.14531629E+05</totfact>
</mgrwt>
</event>
<event>
 4    1  0.3976152E+000  0.2229506E+03  0.7546771E-02  0.1131702E+00
         21   -1    0    0  501  502  0.00000000000E+00  0.00000000000E+00  0.30033535494E+03  0.30033535494E+03  0.00000000000E+00 0. -1.
         21   -1    0    0  502  503 -0.00000000000E+00 -0.00000000000E+00 -0.18450218365E+03  0.18450218365E+03  0.00000000000E+00 0. -1.
          6    1    1    2  501    0  0.78226697776E+02  0.11686973811E+03  0.13570448398E+03  0.26100317796E+03  0.17300000000E+03 0. -1.
         -6    1    1    2    0  503 -0.78226697776E+02 -0.11686973811E+03 -0.19871312690E+02  0.22383436063E+03  0.17300000000E+03 0. -1.
<mgrwt>
<rscale>  2 0.22295056E+03</rscale>
<asrwt>0</asrwt>
<pdfrwt beam="1">  1       21 0.46205439E-01 0.22295056E+03</pdfrwt>
<pdfrwt beam="2">  1       21 0.28384951E-01 0.22295056E+03</pdfrwt>
<totfact> 0.52505944E+04</totfact>
</mgrwt>
</event>
<event>
 4    1  0.3976152E+000  0.2860097E+03  0.7546771E-02  0.1092451E+00
         21   -1    0    0  503  502  0.00000000000E+00  0.00000000000E+00  0.82579084640E+03  0.82579084640E+03  0.00000000000E+00 0.  1.
         21   -1    0    0  501  503 -0.00000000000E+00 -0.00000000000E+00 -0.26094124908E+03  0.26094124908E+03  0.00000000000E+00 0. -1.
          6    1    1    2  501    0  0.14828996024E+03  0.17286596607E+03 -0.14555324877E+03  0.32091634854E+03  0.17300000000E+03 0. -1.
         -6    1    1    2    0  502 -0.14828996024E+03 -0.17286596607E+03  0.71040284609E+03  0.76581574694E+03  0.17300000000E+03 0.  1.
<mgrwt>
<rscale>  2 0.28600971E+03</rscale>
<asrwt>0</asrwt>
<pdfrwt beam="1">  1       21 0.12704474E+00 0.28600971E+03</pdfrwt>
<pdfrwt beam="2">  1       21 0.40144808E-01 0.28600971E+03</pdfrwt>
<totfact> 0.25541205E+03</totfact>
</mgrwt>
</event>
<event>
 4    1  0.3976152E+000  0.2388343E+03  0.7546771E-02  0.1120572E+00
         21   -1    0    0  503  502  0.00000000000E+00  0.00000000000E+00  0.54481452001E+03  0.54481452001E+03  0.00000000000E+00 0. -1.
         21   -1    0    0  501  503 -0.00000000000E+00 -0.00000000000E+00 -0.23307908237E+03  0.23307908237E+03  0.00000000000E+00 0. -1.
          6    1    1    2  501    0  0.90954621017E+02 -0.13725919301E+03 -0.13279218818E+03  0.27326835600E+03  0.17300000000E+03 0. -1.
         -6    1    1    2    0  502 -0.90954621017E+02  0.13725919301E+03  0.44452762582E+03  0.50462524637E+03  0.17300000000E+03 0. -1.
<mgrwt>
<rscale>  2 0.23883431E+03</rscale>
<asrwt>0</asrwt>
<pdfrwt beam="1">  1       21 0.83817618E-01 0.23883431E+03</pdfrwt>
<pdfrwt beam="2">  1       21 0.35858321E-01 0.23883431E+03</pdfrwt>
<totfact> 0.90008826E+03</totfact>
</mgrwt>
</event>
<event>
 4    1  0.3976152E+000  0.1804961E+03  0.7546771E-02  0.1167324E+00
         21   -1    0    0  501  502  0.00000000000E+00  0.00000000000E+00  0.37287649166E+02  0.37287649166E+02  0.00000000000E+00 0.  1.
         21   -1    0    0  502  503 -0.00000000000E+00 -0.00000000000E+00 -0.10521673650E+04  0.10521673650E+04  0.00000000000E+00 0.  1.
          6    1    1    2  501    0 -0.86929586619E+01 -0.50737233012E+02 -0.28310527903E+03  0.33574906308E+03  0.17300000000E+03 0.  1.
         -6    1    1    2    0  503  0.86929586619E+01  0.50737233012E+02 -0.73177443679E+03  0.75370595108E+03  0.17300000000E+03 0.  1.
<mgrwt>
<rscale>  2 0.18049608E+03</rscale>
<asrwt>0</asrwt>
<pdfrwt beam="1">  1       21 0.57365616E-02 0.18049608E+03</pdfrwt>
<pdfrwt beam="2">  1       21 0.16187190E+00 0.18049608E+03</pdfrwt>
<totfact> 0.52295245E+04</totfact>
</mgrwt>
</event>
<event>
 4    1  0.3976152E+000  0.2399726E+03  0.7546771E-02  0.1119811E+00
         21   -1    0    0  501  502  0.00000000000E+00  0.00000000000E+00  0.36184733920E+02  0.36184733920E+02  0.00000000000E+00 0.  1.
         21   -1    0    0  502  503 -0.00000000000E+00 -0.00000000000E+00 -0.15922700227E+04  0.15922700227E+04  0.00000000000E+00 0.  1.
          6    1    1    2  501    0  0.11973153465E+03 -0.11542182917E+03 -0.75976653829E+03  0.79676347290E+03  0.17300000000E+03 0.  1.
         -6    1    1    2    0  503 -0.11973153465E+03  0.11542182917E+03 -0.79631875053E+03  0.83169128377E+03  0.17300000000E+03 0.  1.
<mgrwt>
<rscale>  2 0.23997258E+03</rscale>
<asrwt>0</asrwt>
<pdfrwt beam="1">  1       21 0.55668812E-02 0.23997258E+03</pdfrwt>
<pdfrwt beam="2">  1       21 0.24496466E+00 0.23997258E+03</pdfrwt>
<totfact> 0.15349678E+04</totfact>
</mgrwt>
</event>
<event>
 4    1  0.3976152E+000  0.2042182E+03  0.7546771E-02  0.1146228E+00
         21   -1    0    0  501  502  0.00000000000E+00  0.00000000000E+00  0.35960390633E+03  0.35960390633E+03  0.00000000000E+00 0. -1.
         21   -1    0    0  502  503 -0.00000000000E+00 -0.00000000000E+00 -0.11598299258E+03  0.11598299258E+03  0.00000000000E+00 0.  1.
          6    1    1    2  501    0  0.94155583161E+01  0.10810843983E+03  0.12377603369E+03  0.23880032248E+03  0.17300000000E+03 0.  1.
         -6    1    1    2    0  503 -0.94155583161E+01 -0.10810843983E+03  0.11984488006E+03  0.23678657643E+03  0.17300000000E+03 0. -1.
<mgrwt>
<rscale>  2 0.20421823E+03</rscale>
<asrwt>0</asrwt>
<pdfrwt beam="1">  1       21 0.55323677E-01 0.20421823E+03</pdfrwt>
<pdfrwt beam="2">  1       21 0.17843537E-01 0.20421823E+03</pdfrwt>
<totfact> 0.87470526E+04</totfact>
</mgrwt>
</event>
<event>
 4    1  0.3976152E+000  0.1949921E+03  0.7546771E-02  0.1154034E+00
         21   -1    0    0  503  502  0.00000000000E+00  0.00000000000E+00  0.14510749432E+03  0.14510749432E+03  0.00000000000E+00 0. -1.
         21   -1    0    0  501  503 -0.00000000000E+00 -0.00000000000E+00 -0.39291161247E+03  0.39291161247E+03  0.00000000000E+00 0. -1.
          6    1    1    2  501    0 -0.25995772566E+02  0.86122700821E+02 -0.27916458364E+03  0.34052131291E+03  0.17300000000E+03 0. -1.
         -6    1    1    2    0  502  0.25995772566E+02 -0.86122700821E+02  0.31360465494E+02  0.19749779387E+03  0.17300000000E+03 0. -1.
<mgrwt>
<rscale>  2 0.19499205E+03</rscale>
<asrwt>0</asrwt>
<pdfrwt beam="1">  1       21 0.22324230E-01 0.19499205E+03</pdfrwt>
<pdfrwt beam="2">  1       21 0.60447940E-01 0.19499205E+03</pdfrwt>
<totfact> 0.47831963E+04</totfact>
</mgrwt>
</event>
<event>
 4    1  0.3976152E+000  0.1993759E+03  0.7546771E-02  0.1150267E+00
         21   -1    0    0  503  502  0.00000000000E+00  0.00000000000E+00  0.18419117612E+04  0.18419117612E+04  0.00000000000E+00 0.  1.
         21   -1    0    0  501  503 -0.00000000000E+00 -0.00000000000E+00 -0.42657482188E+02  0.42657482188E+02  0.00000000000E+00 0.  1.
          6    1    1    2  501    0 -0.81630216484E+02 -0.56198550680E+02  0.23728723796E+03  0.30992902839E+03  0.17300000000E+03 0.  1.
         -6    1    1    2    0  502  0.81630216484E+02  0.56198550680E+02  0.15619670410E+04  0.15746402150E+04  0.17300000000E+03 0.  1.
<mgrwt>
<rscale>  2 0.19937595E+03</rscale>
<asrwt>0</asrwt>
<pdfrwt beam="1">  1       21 0.28337098E+00 0.19937595E+03</pdfrwt>
<pdfrwt beam="2">  1       21 0.65626910E-02 0.19937595E+03</pdfrwt>
<totfact> 0.71430556E+03</totfact>
</mgrwt>
</event>
<event>
 4    1  0.3976152E+000  0.3375987E+03  0.7546771E-02  0.1067823E+00
         21   -1    0    0  501  502  0.00000000000E+00  0.00000000000E+00  0.20277130287E+03  0.20277130287E+03  0.00000000000E+00 0. -1.
         21   -1    0    0  502  503 -0.00000000000E+00 -0.00000000000E+00 -0.77328398077E+03  0.77328398077E+03  0.00000000000E+00 0.  1.
          6    1    1    2  501    0  0.12651063212E+03  0.26084273774E+03 -0.30203523432E+02  0.33894708539E+03  0.17300000000E+03 0. -1.
         -6    1    1    2    0  503 -0.12651063212E+03 -0.26084273774E+03 -0.54030915447E+03  0.63710819825E+03  0.17300000000E+03 0.  1.
<mgrwt>
<rscale>  2 0.33759869E+03</rscale>
<asrwt>0</asrwt>
<pdfrwt beam="1">  1       21 0.31195585E-01 0.33759869E+03</pdfrwt>
<pdfrwt beam="2">  1       21 0.11896677E+00 0.33759869E+03</pdfrwt>
<totfact> 0.48732348E+03</totfact>
</mgrwt>
</event>
<event>
 4    1  0.3976152E+000  0.1847622E+03  0.7546771E-02  0.1163272E+00
         21   -1    0    0  503  502  0.00000000000E+00  0.00000000000E+00  0.91101090520E+02  0.91101090520E+02  0.00000000000E+00 0. -1.
         21   -1    0    0  501  503 -0.00000000000E+00 -0.00000000000E+00 -0.56166665499E+03  0.56166665499E+03  0.00000000000E+00 0. -1.
          6    1    1    2  501    0  0.64085952214E+02  0.10052583062E+02 -0.42358373435E+03  0.46212578775E+03  0.17300000000E+03 0. -1.
         -6    1    1    2    0  502 -0.64085952214E+02 -0.10052583062E+02 -0.46981830120E+02  0.19064195776E+03  0.17300000000E+03 0. -1.
<mgrwt>
<rscale>  2 0.18476218E+03</rscale>
<asrwt>0</asrwt>
<pdfrwt beam="1">  1       21 0.14015552E-01 0.18476218E+03</pdfrwt>
<pdfrwt beam="2">  1       21 0.86410254E-01 0.18476218E+03</pdfrwt>
<totfact> 0.51399722E+04</totfact>
</mgrwt>
</event>
<event>
 4    1  0.3976152E+000  0.1946035E+03  0.7546771E-02  0.1154374E+00
         21   -1    0    0  501  502  0.00000000000E+00  0.00000000000E+00  0.44883386477E+02  0.44883386477E+02  0.00000000000E+00 0.  1.
         21   -1    0    0  502  503 -0.00000000000E+00 -0.00000000000E+00 -0.90925544984E+03  0.90925544984E+03  0.00000000000E+00 0.  1.
          6    1    1    2  501    0 -0.38400836460E+02 -0.80417126139E+02 -0.56023142653E+03  0.59306811556E+03  0.17300000000E+03 0.  1.
         -6    1    1    2    0  503  0.38400836460E+02  0.80417126139E+02 -0.30414063683E+03  0.36107072076E+03  0.17300000000E+03 0.  1.
<mgrwt>
<rscale>  2 0.19460354E+03</rscale>
<asrwt>0</asrwt>
<pdfrwt beam="1">  1       21 0.69051371E-02 0.19460354E+03</pdfrwt>
<pdfrwt beam="2">  1       21 0.13988544E+00 0.19460354E+03</pdfrwt>
<totfact> 0.55478128E+04</totfact>
</mgrwt>
</event>
<event>
 4    1  0.3976152E+000  0.1760051E+03  0.7546771E-02  0.1171726E+00
         21   -1    0    0  501  502  0.00000000000E+00  0.00000000000E+00  0.17605752386E+04  0.17605752386E+04  0.00000000000E+00 0. -1.
         21   -1    0    0  502  503 -0.00000000000E+00 -0.00000000000E+00 -0.17635323318E+02  0.17635323318E+02  0.00000000000E+00 0. -1.
          6    1    1    2  501    0 -0.10642299473E+02  0.30586451937E+02  0.91384426216E+03  0.93063909496E+03  0.17300000000E+03 0.  1.
         -6    1    1    2    0  503  0.10642299473E+02 -0.30586451937E+02  0.82909565308E+03  0.84757146692E+03  0.17300000000E+03 0.  1.
<mgrwt>
<rscale>  2 0.17600508E+03</rscale>
<asrwt>0</asrwt>
<pdfrwt beam="1">  1       21 0.27085759E+00 0.17600508E+03</pdfrwt>
<pdfrwt beam="2">  1       21 0.27131281E-02 0.17600508E+03</pdfrwt>
<totfact> 0.38095090E+04</totfact>
</mgrwt>
</event>
<event>
 4    1  0.3976152E+000  0.1867071E+03  0.7546771E-02  0.1161465E+00
         21   -1    0    0  501  502  0.00000000000E+00  0.00000000000E+00  0.10042259105E+03  0.10042259105E+03  0.00000000000E+00 0. -1.
         21   -1    0    0  502  503 -0.00000000000E+00 -0.00000000000E+00 -0.74964394781E+03  0.74964394781E+03  0.00000000000E+00 0.  1.
          6    1    1    2  501    0  0.52305205131E+02  0.46847637478E+02 -0.13161833717E+02  0.18717042899E+03  0.17300000000E+03 0. -1.
         -6    1    1    2    0  503 -0.52305205131E+02 -0.46847637478E+02 -0.63605952305E+03  0.66289610987E+03  0.17300000000E+03 0.  1.
<mgrwt>
<rscale>  2 0.18670709E+03</rscale>
<asrwt>0</asrwt>
<pdfrwt beam="1">  1       21 0.15449630E-01 0.18670709E+03</pdfrwt>
<pdfrwt beam="2">  1       21 0.11532984E+00 0.18670709E+03</pdfrwt>
<totfact> 0.21720312E+04</totfact>
</mgrwt>
</event>
<event>
 4    1  0.3976152E+000  0.2689618E+03  0.7546771E-02  0.1101875E+00
         21   -1    0    0  503  502  0.00000000000E+00  0.00000000000E+00  0.17289267549E+03  0.17289267549E+03  0.00000000000E+00 0. -1.
         21   -1    0    0  501  503 -0.00000000000E+00 -0.00000000000E+00 -0.43773088822E+03  0.43773088822E+03  0.00000000000E+00 0.  1.
          6    1    1    2  501    0 -0.19567731151E+03 -0.64201648430E+02 -0.19655853195E+03  0.33313018233E+03  0.17300000000E+03 0.  1.
         -6    1    1    2    0  502  0.19567731151E+03  0.64201648430E+02 -0.68279680781E+02  0.27749338138E+03  0.17300000000E+03 0. -1.
<mgrwt>
<rscale>  2 0.26896182E+03</rscale>
<asrwt>0</asrwt>
<pdfrwt beam="1">  1       21 0.26598874E-01 0.26896182E+03</pdfrwt>
<pdfrwt beam="2">  1       21 0.67343213E-01 0.26896182E+03</pdfrwt>
<totfact> 0.26120869E+04</totfact>
</mgrwt>
</event>
<event>
 4    1  0.3976152E+000  0.2016834E+03  0.7546771E-02  0.1148326E+00
         21   -1    0    0  501  502  0.00000000000E+00  0.00000000000E+00  0.76156315765E+02  0.76156315765E+02  0.00000000000E+00 0. -1.
         21   -1    0    0  502  503 -0.00000000000E+00 -0.00000000000E+00 -0.63229997885E+03  0.63229997885E+03  0.00000000000E+00 0.  1.
          6    1    1    2  501    0  0.17621852114E+02 -0.10216002494E+03 -0.13848485925E+03  0.24465129595E+03  0.17300000000E+03 0.  1.
         -6    1    1    2    0  503 -0.17621852114E+02  0.10216002494E+03 -0.41765880383E+03  0.46380499866E+03  0.17300000000E+03 0.  1.
<mgrwt>
<rscale>  2 0.20168342E+03</rscale>
<asrwt>0</asrwt>
<pdfrwt beam="1">  1       21 0.11716357E-01 0.20168342E+03</pdfrwt>
<pdfrwt beam="2">  1       21 0.97276917E-01 0.20168342E+03</pdfrwt>
<totfact> 0.53423017E+04</totfact>
</mgrwt>
</event>
<event>
 4    1  0.3976152E+000  0.2383180E+03  0.7546771E-02  0.1120918E+00
         21   -1    0    0  501  502  0.00000000000E+00  0.00000000000E+00  0.23476585394E+03  0.23476585394E+03  0.00000000000E+00 0.  1.
         21   -1    0    0  502  503 -0.00000000000E+00 -0.00000000000E+00 -0.35531761856E+03  0.35531761856E+03  0.00000000000E+00 0.  1.
          6    1    1    2  501    0  0.69118506950E+02  0.14862403674E+03  0.10639877531E+03  0.26099075020E+03  0.17300000000E+03 0.  1.
         -6    1    1    2    0  503 -0.69118506950E+02 -0.14862403674E+03 -0.22695053992E+03  0.32909272230E+03  0.17300000000E+03 0.  1.
<mgrwt>
<rscale>  2 0.23831801E+03</rscale>
<asrwt>0</asrwt>
<pdfrwt beam="1">  1       21 0.36117824E-01 0.23831801E+03</pdfrwt>
<pdfrwt beam="2">  1       21 0.54664249E-01 0.23831801E+03</pdfrwt>
<totfact> 0.22784557E+04</totfact>
</mgrwt>
</event>
<event>
 4    1  0.3976152E+000  0.1759362E+03  0.7546771E-02  0.1171795E+00
         21   -1    0    0  503  502  0.00000000000E+00  0.00000000000E+00  0.74996688568E+03  0.74996688568E+03  0.00000000000E+00 0. -1.
         21   -1    0    0  501  503 -0.00000000000E+00 -0.00000000000E+00 -0.11371866098E+03  0.11371866098E+03  0.00000000000E+00 0. -1.
          6    1    1    2  501    0  0.31476679537E+02 -0.58106485608E+01 -0.26555289740E+02  0.17792899821E+03  0.17300000000E+03 0. -1.
         -6    1    1    2    0  502 -0.31476679537E+02  0.58106485608E+01  0.66280351444E+03  0.68575654845E+03  0.17300000000E+03 0. -1.
<mgrwt>
<rscale>  2 0.17593620E+03</rscale>
<asrwt>0</asrwt>
<pdfrwt beam="1">  1       21 0.11537952E+00 0.17593620E+03</pdfrwt>
<pdfrwt beam="2">  1       21 0.17495179E-01 0.17593620E+03</pdfrwt>
<totfact> 0.17398735E+04</totfact>
</mgrwt>
</event>
<event>
 4    1  0.3976152E+000  0.1754547E+03  0.7546771E-02  0.1172276E+00
         21   -1    0    0  501  502  0.00000000000E+00  0.00000000000E+00  0.61614532168E+03  0.61614532168E+03  0.00000000000E+00 0.  1.
         21   -1    0    0  502  503 -0.00000000000E+00 -0.00000000000E+00 -0.13370821739E+03  0.13370821739E+03  0.00000000000E+00 0. -1.
          6    1    1    2  501    0 -0.28731535612E+02  0.54641343287E+01  0.53793927199E+03  0.56582949574E+03  0.17300000000E+03 0.  1.
         -6    1    1    2    0  503  0.28731535612E+02 -0.54641343287E+01 -0.55502167697E+02  0.18402404332E+03  0.17300000000E+03 0. -1.
<mgrwt>
<rscale>  2 0.17545472E+03</rscale>
<asrwt>0</asrwt>
<pdfrwt beam="1">  1       21 0.94791586E-01 0.17545472E+03</pdfrwt>
<pdfrwt beam="2">  1       21 0.20570495E-01 0.17545472E+03</pdfrwt>
<totfact> 0.20609384E+04</totfact>
</mgrwt>
</event>
<event>
 4    1  0.3976152E+000  0.2231976E+03  0.7546771E-02  0.1131521E+00
         21   -1    0    0  503  502  0.00000000000E+00  0.00000000000E+00  0.12006859096E+04  0.12006859096E+04  0.00000000000E+00 0. -1.
         21   -1    0    0  501  503 -0.00000000000E+00 -0.00000000000E+00 -0.45834135552E+02  0.45834135552E+02  0.00000000000E+00 0. -1.
          6    1    1    2  501    0  0.91626322427E+02  0.10720434674E+03  0.38556014694E+03  0.44550396387E+03  0.17300000000E+03 0. -1.
         -6    1    1    2    0  502 -0.91626322427E+02 -0.10720434674E+03  0.76929162709E+03  0.80101608125E+03  0.17300000000E+03 0. -1.
<mgrwt>
<rscale>  2 0.22319757E+03</rscale>
<asrwt>0</asrwt>
<pdfrwt beam="1">  1       21 0.18472089E+00 0.22319757E+03</pdfrwt>
<pdfrwt beam="2">  1       21 0.70514064E-02 0.22319757E+03</pdfrwt>
<totfact> 0.24737368E+04</totfact>
</mgrwt>
</event>
<event>
 4    1  0.3976152E+000  0.1807463E+03  0.7546771E-02  0.1167083E+00
         21   -1    0    0  503  502  0.00000000000E+00  0.00000000000E+00  0.87607010032E+03  0.87607010032E+03  0.00000000000E+00 0. -1.
         21   -1    0    0  501  503 -0.00000000000E+00 -0.00000000000E+00 -0.67450346262E+02  0.67450346262E+02  0.00000000000E+00 0. -1.
          6    1    1    2  501    0  0.48638865146E+02  0.19351907907E+02  0.88851102975E+02  0.20140445388E+03  0.17300000000E+03 0. -1.
         -6    1    1    2    0  502 -0.48638865146E+02 -0.19351907907E+02  0.71976865108E+03  0.74211599270E+03  0.17300000000E+03 0. -1.
<mgrwt>
<rscale>  2 0.18074633E+03</rscale>
<asrwt>0</asrwt>
<pdfrwt beam="1">  1       21 0.13478001E+00 0.18074633E+03</pdfrwt>
<pdfrwt beam="2">  1       21 0.10376977E-01 0.18074633E+03</pdfrwt>
<totfact> 0.30196909E+04</totfact>
</mgrwt>
</event>
<event>
 4    1  0.3976152E+000  0.2629329E+03  0.7546771E-02  0.1105394E+00
         21   -1    0    0  501  502  0.00000000000E+00  0.00000000000E+00  0.55006386033E+03  0.55006386033E+03  0.00000000000E+00 0.  1.
         21   -1    0    0  502  503 -0.00000000000E+00 -0.00000000000E+00 -0.12987942972E+03  0.12987942972E+03  0.00000000000E+00 0.  1.
          6    1    1    2  501    0  0.42544193601E+02  0.19337712638E+03  0.27120164490E+03  0.37773542806E+03  0.17300000000E+03 0.  1.
         -6    1    1    2    0  503 -0.42544193601E+02 -0.19337712638E+03  0.14898278570E+03  0.30220786199E+03  0.17300000000E+03 0.  1.
<mgrwt>
<rscale>  2 0.26293292E+03</rscale>
<asrwt>0</asrwt>
<pdfrwt beam="1">  1       21 0.84625208E-01 0.26293292E+03</pdfrwt>
<pdfrwt beam="2">  1       21 0.19981451E-01 0.26293292E+03</pdfrwt>
<totfact> 0.27005789E+04</totfact>
</mgrwt>
</event>
<event>
 4    1  0.3976152E+000  0.2157066E+03  0.7546771E-02  0.1137125E+00
         21   -1    0    0  503  502  0.00000000000E+00  0.00000000000E+00  0.69520554403E+03  0.69520554403E+03  0.00000000000E+00 0. -1.
         21   -1    0    0  501  503 -0.00000000000E+00 -0.00000000000E+00 -0.67328958834E+02  0.67328958834E+02  0.00000000000E+00 0. -1.
          6    1    1    2  501    0 -0.12199544222E+03 -0.41442002721E+02  0.34332846006E+03  0.40546733407E+03  0.17300000000E+03 0. -1.
         -6    1    1    2    0  502  0.12199544222E+03  0.41442002721E+02  0.28454812514E+03  0.35706716880E+03  0.17300000000E+03 0. -1.
<mgrwt>
<rscale>  2 0.21570658E+03</rscale>
<asrwt>0</asrwt>
<pdfrwt beam="1">  1       21 0.10695469E+00 0.21570658E+03</pdfrwt>
<pdfrwt beam="2">  1       21 0.10358302E-01 0.21570658E+03</pdfrwt>
<totfact> 0.52675581E+04</totfact>
</mgrwt>
</event>
<event>
 4    1  0.3976152E+000  0.1747685E+03  0.7546771E-02  0.1172964E+00
         21   -1    0    0  503  502  0.00000000000E+00  0.00000000000E+00  0.37350638880E+02  0.37350638880E+02  0.00000000000E+00 0. -1.
         21   -1    0    0  501  503 -0.00000000000E+00 -0.00000000000E+00 -0.85628490924E+03  0.85628490924E+03  0.00000000000E+00 0. -1.
          6    1    1    2  501    0  0.23602903257E+02  0.76120786029E+01 -0.50423576256E+03  0.53366444985E+03  0.17300000000E+03 0. -1.
         -6    1    1    2    0  502 -0.23602903257E+02 -0.76120786029E+01 -0.31469850780E+03  0.35997109827E+03  0.17300000000E+03 0. -1.
<mgrwt>
<rscale>  2 0.17476853E+03</rscale>
<asrwt>0</asrwt>
<pdfrwt beam="1">  1       21 0.57462525E-02 0.17476853E+03</pdfrwt>
<pdfrwt beam="2">  1       21 0.13173613E+00 0.17476853E+03</pdfrwt>
<totfact> 0.89484791E+04</totfact>
</mgrwt>
</event>
<event>
 4    1  0.3976152E+000  0.1736908E+03  0.7546771E-02  0.1174053E+00
         21   -1    0    0  501  502  0.00000000000E+00  0.00000000000E+00  0.43786434499E+03  0.43786434499E+03  0.00000000000E+00 0.  1.
         21   -1    0    0  502  503 -0.00000000000E+00 -0.00000000000E+00 -0.69308754007E+02  0.69308754007E+02  0.00000000000E+00 0.  1.
          6    1    1    2  501    0  0.11667037377E+02 -0.10167164600E+02  0.20377185946E+03  0.26775261288E+03  0.17300000000E+03 0. -1.
         -6    1    1    2    0  503 -0.11667037377E+02  0.10167164600E+02  0.16478373153E+03  0.23942048612E+03  0.17300000000E+03 0. -1.
<mgrwt>
<rscale>  2 0.17369079E+03</rscale>
<asrwt>0</asrwt>
<pdfrwt beam="1">  1       21 0.67363744E-01 0.17369079E+03</pdfrwt>
<pdfrwt beam="2">  1       21 0.10662885E-01 0.17369079E+03</pdfrwt>
<totfact> 0.14696290E+05</totfact>
</mgrwt>
</event>
<event>
 4    1  0.3976152E+000  0.1802191E+03  0.7546771E-02  0.1167591E+00
         21   -1    0    0  501  502  0.00000000000E+00  0.00000000000E+00  0.26552051048E+03  0.26552051048E+03  0.00000000000E+00 0.  1.
         21   -1    0    0  502  503 -0.00000000000E+00 -0.00000000000E+00 -0.12768759838E+03  0.12768759838E+03  0.00000000000E+00 0.  1.
          6    1    1    2  501    0 -0.48508572216E+01  0.50263237671E+02  0.10921958608E+03  0.21073168215E+03  0.17300000000E+03 0.  1.
         -6    1    1    2    0  503  0.48508572216E+01 -0.50263237671E+02  0.28613326015E+02  0.18247642670E+03  0.17300000000E+03 0.  1.
<mgrwt>
<rscale>  2 0.18021910E+03</rscale>
<asrwt>0</asrwt>
<pdfrwt beam="1">  1       21 0.40849309E-01 0.18021910E+03</pdfrwt>
<pdfrwt beam="2">  1       21 0.19644246E-01 0.18021910E+03</pdfrwt>
<totfact> 0.13836480E+05</totfact>
</mgrwt>
</event>
<event>
 4    1  0.3976152E+000  0.1746168E+03  0.7546771E-02  0.1173117E+00
         21   -1    0    0  501  502  0.00000000000E+00  0.00000000000E+00  0.11452521605E+04  0.11452521605E+04  0.00000000000E+00 0. -1.
         21   -1    0    0  502  503 -0.00000000000E+00 -0.00000000000E+00 -0.52073917955E+02  0.52073917955E+02  0.00000000000E+00 0. -1.
          6    1    1    2  501    0 -0.18518533803E+02  0.14802288294E+02  0.96510951711E+03  0.98077898828E+03  0.17300000000E+03 0. -1.
         -6    1    1    2    0  503  0.18518533803E+02 -0.14802288294E+02  0.12806872545E+03  0.21654709020E+03  0.17300000000E+03 0. -1.
<mgrwt>
<rscale>  2 0.17461685E+03</rscale>
<asrwt>0</asrwt>
<pdfrwt beam="1">  1       21 0.17619262E+00 0.17461685E+03</pdfrwt>
<pdfrwt beam="2">  1       21 0.80113728E-02 0.17461685E+03</pdfrwt>
<totfact> 0.23428662E+04</totfact>
</mgrwt>
</event>
<event>
 4    1  0.3976152E+000  0.2396736E+03  0.7546771E-02  0.1120010E+00
         21   -1    0    0  501  502  0.00000000000E+00  0.00000000000E+00  0.78681440170E+03  0.78681440170E+03  0.00000000000E+00 0.  1.
         21   -1    0    0  502  503 -0.00000000000E+00 -0.00000000000E+00 -0.21593009100E+03  0.21593009100E+03  0.00000000000E+00 0. -1.
          6    1    1    2  501    0 -0.96890218306E+02  0.13463542967E+03  0.69334245905E+03  0.73359878602E+03  0.17300000000E+03 0.  1.
         -6    1    1    2    0  503  0.96890218306E+02 -0.13463542967E+03 -0.12245814836E+03  0.26914570668E+03  0.17300000000E+03 0. -1.
<mgrwt>
<rscale>  2 0.23967356E+03</rscale>
<asrwt>0</asrwt>
<pdfrwt beam="1">  1       21 0.12104837E+00 0.23967356E+03</pdfrwt>
<pdfrwt beam="2">  1       21 0.33220014E-01 0.23967356E+03</pdfrwt>
<totfact> 0.43509112E+03</totfact>
</mgrwt>
</event>
<event>
 4    1  0.3976152E+000  0.2080765E+03  0.7546771E-02  0.1143098E+00
         21   -1    0    0  503  502  0.00000000000E+00  0.00000000000E+00  0.80114917451E+03  0.80114917451E+03  0.00000000000E+00 0. -1.
         21   -1    0    0  501  503 -0.00000000000E+00 -0.00000000000E+00 -0.10660354699E+03  0.10660354699E+03  0.00000000000E+00 0. -1.
          6    1    1    2  501    0 -0.11435137557E+03 -0.17046968682E+02  0.28570569038E+02  0.21002884005E+03  0.17300000000E+03 0. -1.
         -6    1    1    2    0  502  0.11435137557E+03  0.17046968682E+02  0.66597505848E+03  0.69772388146E+03  0.17300000000E+03 0. -1.
<mgrwt>
<rscale>  2 0.20807652E+03</rscale>
<asrwt>0</asrwt>
<pdfrwt beam="1">  1       21 0.12325372E+00 0.20807652E+03</pdfrwt>
<pdfrwt beam="2">  1       21 0.16400546E-01 0.20807652E+03</pdfrwt>
<totfact> 0.16298154E+04</totfact>
</mgrwt>
</event>
<event>
 4    1  0.3976152E+000  0.2652231E+03  0.7546771E-02  0.1104045E+00
         21   -1    0    0  503  502  0.00000000000E+00  0.00000000000E+00  0.69839333964E+02  0.69839333964E+02  0.00000000000E+00 0. -1.
         21   -1    0    0  501  503 -0.00000000000E+00 -0.00000000000E+00 -0.22053707258E+04  0.22053707258E+04  0.00000000000E+00 0.  1.
          6    1    1    2  501    0  0.10875287793E+03  0.16907723088E+03 -0.19062735665E+04  0.19246356041E+04  0.17300000000E+03 0.  1.
         -6    1    1    2    0  502 -0.10875287793E+03 -0.16907723088E+03 -0.22925782540E+03  0.35057445567E+03  0.17300000000E+03 0. -1.
<mgrwt>
<rscale>  2 0.26522311E+03</rscale>
<asrwt>0</asrwt>
<pdfrwt beam="1">  1       21 0.10744512E-01 0.26522311E+03</pdfrwt>
<pdfrwt beam="2">  1       21 0.33928784E+00 0.26522311E+03</pdfrwt>
<totfact> 0.13248763E+03</totfact>
</mgrwt>
</event>
<event>
 4    1  0.3976152E+000  0.2089628E+03  0.7546771E-02  0.1142390E+00
         21   -1    0    0  503  502  0.00000000000E+00  0.00000000000E+00  0.33464387111E+03  0.33464387111E+03  0.00000000000E+00 0. -1.
         21   -1    0    0  501  503 -0.00000000000E+00 -0.00000000000E+00 -0.18830079472E+03  0.18830079472E+03  0.00000000000E+00 0.  1.
          6    1    1    2  501    0 -0.79550226507E+02  0.86071001532E+02 -0.71715349788E+02  0.22092656526E+03  0.17300000000E+03 0.  1.
         -6    1    1    2    0  502  0.79550226507E+02 -0.86071001532E+02  0.21805842618E+03  0.30201810057E+03  0.17300000000E+03 0. -1.
<mgrwt>
<rscale>  2 0.20896281E+03</rscale>
<asrwt>0</asrwt>
<pdfrwt beam="1">  1       21 0.51483672E-01 0.20896281E+03</pdfrwt>
<pdfrwt beam="2">  1       21 0.28969353E-01 0.20896281E+03</pdfrwt>
<totfact> 0.40546694E+04</totfact>
</mgrwt>
</event>
<event>
 4    1  0.3976152E+000  0.2452073E+03  0.7546771E-02  0.1116372E+00
         21   -1    0    0  501  502  0.00000000000E+00  0.00000000000E+00  0.33848558534E+03  0.33848558534E+03  0.00000000000E+00 0.  1.
         21   -1    0    0  502  503 -0.00000000000E+00 -0.00000000000E+00 -0.26086652796E+03  0.26086652796E+03  0.00000000000E+00 0.  1.
          6    1    1    2  501    0 -0.11557863160E+03 -0.12976588957E+03  0.20808302486E+03  0.32159781003E+03  0.17300000000E+03 0.  1.
         -6    1    1    2    0  503  0.11557863160E+03  0.12976588957E+03 -0.13046396748E+03  0.27775430327E+03  0.17300000000E+03 0.  1.
<mgrwt>
<rscale>  2 0.24520727E+03</rscale>
<asrwt>0</asrwt>
<pdfrwt beam="1">  1       21 0.52074706E-01 0.24520727E+03</pdfrwt>
<pdfrwt beam="2">  1       21 0.40133312E-01 0.24520727E+03</pdfrwt>
<totfact> 0.20344493E+04</totfact>
</mgrwt>
</event>
<event>
 4    1  0.3976152E+000  0.2551262E+03  0.7546771E-02  0.1110107E+00
         21   -1    0    0  503  502  0.00000000000E+00  0.00000000000E+00  0.38881500913E+03  0.38881500913E+03  0.00000000000E+00 0.  1.
         21   -1    0    0  501  503 -0.00000000000E+00 -0.00000000000E+00 -0.32182330671E+03  0.32182330671E+03  0.00000000000E+00 0. -1.
          6    1    1    2  501    0  0.70305175412E+02 -0.17383202932E+03 -0.21263153403E+03  0.33211678875E+03  0.17300000000E+03 0. -1.
         -6    1    1    2    0  502 -0.70305175412E+02  0.17383202932E+03  0.27962323645E+03  0.37852152709E+03  0.17300000000E+03 0.  1.
<mgrwt>
<rscale>  2 0.25512623E+03</rscale>
<asrwt>0</asrwt>
<pdfrwt beam="1">  1       21 0.59817694E-01 0.25512623E+03</pdfrwt>
<pdfrwt beam="2">  1       21 0.49511278E-01 0.25512623E+03</pdfrwt>
<totfact> 0.97592960E+03</totfact>
</mgrwt>
</event>
<event>
 4    1  0.3976152E+000  0.2855625E+03  0.7546771E-02  0.1092689E+00
         21   -1    0    0  503  502  0.00000000000E+00  0.00000000000E+00  0.83253858735E+02  0.83253858735E+02  0.00000000000E+00 0.  1.
         21   -1    0    0  501  503 -0.00000000000E+00 -0.00000000000E+00 -0.99055464392E+03  0.99055464392E+03  0.00000000000E+00 0.  1.
          6    1    1    2  501    0  0.20504731195E+02  0.22626643690E+03 -0.51040685820E+03  0.58485990234E+03  0.17300000000E+03 0.  1.
         -6    1    1    2    0  502 -0.20504731195E+02 -0.22626643690E+03 -0.39689392699E+03  0.48894860032E+03  0.17300000000E+03 0.  1.
<mgrwt>
<rscale>  2 0.28556251E+03</rscale>
<asrwt>0</asrwt>
<pdfrwt beam="1">  1       21 0.12808287E-01 0.28556251E+03</pdfrwt>
<pdfrwt beam="2">  1       21 0.15239301E+00 0.28556251E+03</pdfrwt>
<totfact> 0.14149223E+04</totfact>
</mgrwt>
</event>
<event>
 4    1  0.3976152E+000  0.2114834E+03  0.7546771E-02  0.1140397E+00
         21   -1    0    0  503  502  0.00000000000E+00  0.00000000000E+00  0.62243176274E+03  0.62243176274E+03  0.00000000000E+00 0. -1.
         21   -1    0    0  501  503 -0.00000000000E+00 -0.00000000000E+00 -0.72096374832E+02  0.72096374832E+02  0.00000000000E+00 0.  1.
          6    1    1    2  501    0 -0.10246579768E+03 -0.65551302237E+02  0.25509982671E+03  0.33136254240E+03  0.17300000000E+03 0. -1.
         -6    1    1    2    0  502  0.10246579768E+03  0.65551302237E+02  0.29523556120E+03  0.36316559517E+03  0.17300000000E+03 0.  1.
<mgrwt>
<rscale>  2 0.21148336E+03</rscale>
<asrwt>0</asrwt>
<pdfrwt beam="1">  1       21 0.95758729E-01 0.21148336E+03</pdfrwt>
<pdfrwt beam="2">  1       21 0.11091750E-01 0.21148336E+03</pdfrwt>
<totfact> 0.60845565E+04</totfact>
</mgrwt>
</event>
<event>
 4    1  0.3976152E+000  0.2100734E+03  0.7546771E-02  0.1141508E+00
         21   -1    0    0  501  502  0.00000000000E+00  0.00000000000E+00  0.20140566646E+03  0.20140566646E+03  0.00000000000E+00 0. -1.
         21   -1    0    0  502  503 -0.00000000000E+00 -0.00000000000E+00 -0.31483273710E+03  0.31483273710E+03  0.00000000000E+00 0. -1.
          6    1    1    2  501    0  0.53959597442E+02 -0.10625531339E+03  0.85610591806E+02  0.22684797378E+03  0.17300000000E+03 0. -1.
         -6    1    1    2    0  503 -0.53959597442E+02  0.10625531339E+03 -0.19903766244E+03  0.28939042978E+03  0.17300000000E+03 0. -1.
<mgrwt>
<rscale>  2 0.21007339E+03</rscale>
<asrwt>0</asrwt>
<pdfrwt beam="1">  1       21 0.30985487E-01 0.21007339E+03</pdfrwt>
<pdfrwt beam="2">  1       21 0.48435805E-01 0.21007339E+03</pdfrwt>
<totfact> 0.40367225E+04</totfact>
</mgrwt>
</event>
<event>
 4    1  0.3976152E+000  0.2127505E+03  0.7546771E-02  0.1139406E+00
         21   -1    0    0  501  502  0.00000000000E+00  0.00000000000E+00  0.20726897559E+02  0.20726897559E+02  0.00000000000E+00 0. -1.
         21   -1    0    0  502  503 -0.00000000000E+00 -0.00000000000E+00 -0.30420648780E+04  0.30420648780E+04  0.00000000000E+00 0.  1.
          6    1    1    2  501    0 -0.84491999505E+02  0.90525662060E+02 -0.69723690111E+03  0.72897331209E+03  0.17300000000E+03 0. -1.
         -6    1    1    2    0  503  0.84491999505E+02 -0.90525662060E+02 -0.23241010794E+04  0.23338184635E+04  0.17300000000E+03 0.  1.
<mgrwt>
<rscale>  2 0.21275054E+03</rscale>
<asrwt>0</asrwt>
<pdfrwt beam="1">  1       21 0.31887540E-02 0.21275054E+03</pdfrwt>
<pdfrwt beam="2">  1       21 0.46800991E+00 0.21275054E+03</pdfrwt>
<totfact> 0.17499038E+03</totfact>
</mgrwt>
</event>
<event>
 4    1  0.3976152E+000  0.1747937E+03  0.7546771E-02  0.1172939E+00
         21   -1    0    0  503  502  0.00000000000E+00  0.00000000000E+00  0.31183766545E+03  0.31183766545E+03  0.00000000000E+00 0.  1.
         21   -1    0    0  501  503 -0.00000000000E+00 -0.00000000000E+00 -0.14728161085E+03  0.14728161085E+03  0.00000000000E+00 0.  1.
          6    1    1    2  501    0 -0.73135339164E+01  0.23882267596E+02 -0.50542745677E+02  0.18195444382E+03  0.17300000000E+03 0.  1.
         -6    1    1    2    0  502  0.73135339164E+01 -0.23882267596E+02  0.21509880027E+03  0.27716483248E+03  0.17300000000E+03 0.  1.
<mgrwt>
<rscale>  2 0.17479374E+03</rscale>
<asrwt>0</asrwt>
<pdfrwt beam="1">  1       21 0.47975025E-01 0.17479374E+03</pdfrwt>
<pdfrwt beam="2">  1       21 0.22658709E-01 0.17479374E+03</pdfrwt>
<totfact> 0.76381296E+04</totfact>
</mgrwt>
</event>
<event>
 4    1  0.3976152E+000  0.1816944E+03  0.7546771E-02  0.1166173E+00
         21   -1    0    0  501  502  0.00000000000E+00  0.00000000000E+00  0.59528652924E+02  0.59528652924E+02  0.00000000000E+00 0.  1.
         21   -1    0    0  502  503 -0.00000000000E+00 -0.00000000000E+00 -0.92021520330E+03  0.92021520330E+03  0.00000000000E+00 0. -1.
          6    1    1    2  501    0 -0.25431429785E+02 -0.49366854842E+02 -0.12155030635E+03  0.21860311286E+03  0.17300000000E+03 0.  1.
         -6    1    1    2    0  503  0.25431429785E+02  0.49366854842E+02 -0.73913624402E+03  0.76114074336E+03  0.17300000000E+03 0. -1.
<mgrwt>
<rscale>  2 0.18169437E+03</rscale>
<asrwt>0</asrwt>
<pdfrwt beam="1">  1       21 0.91582544E-02 0.18169437E+03</pdfrwt>
<pdfrwt beam="2">  1       21 0.14157157E+00 0.18169437E+03</pdfrwt>
<totfact> 0.33151687E+04</totfact>
</mgrwt>
</event>
<event>
 4    1  0.3976152E+000  0.1936452E+03  0.7546771E-02  0.1155214E+00
         21   -1    0    0  503  502  0.00000000000E+00  0.00000000000E+00  0.24386538542E+04  0.24386538542E+04  0.00000000000E+00 0. -1.
         21   -1    0    0  501  503 -0.00000000000E+00 -0.00000000000E+00 -0.18165430074E+02  0.18165430074E+02  0.00000000000E+00 0.  1.
          6    1    1    2  501    0 -0.47216297376E+02  0.73075786838E+02  0.72893564258E+03  0.75421854949E+03  0.17300000000E+03 0.  1.
         -6    1    1    2    0  502  0.47216297376E+02 -0.73075786838E+02  0.16915527815E+04  0.17026007348E+04  0.17300000000E+03 0. -1.
<mgrwt>
<rscale>  2 0.19364516E+03</rscale>
<asrwt>0</asrwt>
<pdfrwt beam="1">  1       21 0.37517726E+00 0.19364516E+03</pdfrwt>
<pdfrwt beam="2">  1       21 0.27946835E-02 0.19364516E+03</pdfrwt>
<totfact> 0.87878073E+03</totfact>
</mgrwt>
</event>
<event>
 4    1  0.3976152E+000  0.2087207E+03  0.7546771E-02  0.1142583E+00
         21   -1    0    0  503  502  0.00000000000E+00  0.00000000000E+00  0.12891396494E+04  0.12891396494E+04  0.00000000000E+00 0.  1.
         21   -1    0    0  501  503 -0.00000000000E+00 -0.00000000000E+00 -0.82263507125E+02  0.82263507125E+02  0.00000000000E+00 0.  1.
          6    1    1    2  501    0  0.19520203048E+02 -0.11512729774E+03  0.77095130667E+02  0.22250391499E+03  0.17300000000E+03 0.  1.
         -6    1    1    2    0  502 -0.19520203048E+02  0.11512729774E+03  0.11297810116E+04  0.11488992415E+04  0.17300000000E+03 0.  1.
<mgrwt>
<rscale>  2 0.20872071E+03</rscale>
<asrwt>0</asrwt>
<pdfrwt beam="1">  1       21 0.19832916E+00 0.20872071E+03</pdfrwt>
<pdfrwt beam="2">  1       21 0.12655925E-01 0.20872071E+03</pdfrwt>
<totfact> 0.72408387E+03</totfact>
</mgrwt>
</event>
<event>
 4    1  0.3976152E+000  0.1867855E+03  0.7546771E-02  0.1161393E+00
         21   -1    0    0  501  502  0.00000000000E+00  0.00000000000E+00  0.10937986533E+02  0.10937986533E+02  0.00000000000E+00 0. -1.
         21   -1    0    0  502  503 -0.00000000000E+00 -0.00000000000E+00 -0.33063230280E+04  0.33063230280E+04  0.00000000000E+00 0.  1.
          6    1    1    2  501    0  0.39637670501E+02 -0.58212450860E+02 -0.13361770663E+04  0.13491693692E+04  0.17300000000E+03 0. -1.
         -6    1    1    2    0  503 -0.39637670501E+02  0.58212450860E+02 -0.19592079752E+04  0.19680916454E+04  0.17300000000E+03 0.  1.
<mgrwt>
<rscale>  2 0.18678553E+03</rscale>
<asrwt>0</asrwt>
<pdfrwt beam="1">  1       21 0.16827657E-02 0.18678553E+03</pdfrwt>
<pdfrwt beam="2">  1       21 0.50866553E+00 0.18678553E+03</pdfrwt>
<totfact> 0.27017107E+03</totfact>
</mgrwt>
</event>
<event>
 4    1  0.3976152E+000  0.3246246E+03  0.7546771E-02  0.1073540E+00
         21   -1    0    0  501  502  0.00000000000E+00  0.00000000000E+00  0.25541115186E+03  0.25541115186E+03  0.00000000000E+00 0.  1.
         21   -1    0    0  502  503 -0.00000000000E+00 -0.00000000000E+00 -0.76273285232E+03  0.76273285232E+03  0.00000000000E+00 0. -1.
          6    1    1    2  501    0 -0.75977563400E+02 -0.26396887955E+03  0.91254890794E+02  0.33720707971E+03  0.17300000000E+03 0.  1.
         -6    1    1    2    0  503  0.75977563400E+02  0.26396887955E+03 -0.59857659126E+03  0.68093692447E+03  0.17300000000E+03 0. -1.
<mgrwt>
<rscale>  2 0.32462464E+03</rscale>
<asrwt>0</asrwt>
<pdfrwt beam="1">  1       21 0.39294023E-01 0.32462464E+03</pdfrwt>
<pdfrwt beam="2">  1       21 0.11734352E+00 0.32462464E+03</pdfrwt>
<totfact> 0.31913216E+03</totfact>
</mgrwt>
</event>
<event>
 4    1  0.3976152E+000  0.2029405E+03  0.7546771E-02  0.1147282E+00
         21   -1    0    0  503  502  0.00000000000E+00  0.00000000000E+00  0.22083221608E+04  0.22083221608E+04  0.00000000000E+00 0.  1.
         21   -1    0    0  501  503 -0.00000000000E+00 -0.00000000000E+00 -0.20581407266E+02  0.20581407266E+02  0.00000000000E+00 0. -1.
          6    1    1    2  501    0  0.82259143013E+02  0.67002017194E+02  0.75245774306E+03  0.77934427053E+03  0.17300000000E+03 0.  1.
         -6    1    1    2    0  502 -0.82259143013E+02 -0.67002017194E+02  0.14352830104E+04  0.14495592975E+04  0.17300000000E+03 0.  1.
<mgrwt>
<rscale>  2 0.20294048E+03</rscale>
<asrwt>0</asrwt>
<pdfrwt beam="1">  1       21 0.33974168E+00 0.20294048E+03</pdfrwt>
<pdfrwt beam="2">  1       21 0.31663721E-02 0.20294048E+03</pdfrwt>
<totfact> 0.11491064E+04</totfact>
</mgrwt>
</event>
<event>
 4    1  0.3976152E+000  0.2101316E+03  0.7546771E-02  0.1141462E+00
         21   -1    0    0  503  502  0.00000000000E+00  0.00000000000E+00  0.95962879602E+02  0.95962879602E+02  0.00000000000E+00 0.  1.
         21   -1    0    0  501  503 -0.00000000000E+00 -0.00000000000E+00 -0.47709288163E+03  0.47709288163E+03  0.00000000000E+00 0.  1.
          6    1    1    2  501    0  0.46319273977E+02 -0.10991280252E+03 -0.24459421379E+03  0.32246182521E+03  0.17300000000E+03 0.  1.
         -6    1    1    2    0  502 -0.46319273977E+02  0.10991280252E+03 -0.13653578824E+03  0.25059393602E+03  0.17300000000E+03 0.  1.
<mgrwt>
<rscale>  2 0.21013162E+03</rscale>
<asrwt>0</asrwt>
<pdfrwt beam="1">  1       21 0.14763520E-01 0.21013162E+03</pdfrwt>
<pdfrwt beam="2">  1       21 0.73398904E-01 0.21013162E+03</pdfrwt>
<totfact> 0.66825464E+04</totfact>
</mgrwt>
</event>
<event>
 4    1  0.3976152E+000  0.1949478E+03  0.7546771E-02  0.1154073E+00
         21   -1    0    0  503  502  0.00000000000E+00  0.00000000000E+00  0.44570534730E+02  0.44570534730E+02  0.00000000000E+00 0.  1.
         21   -1    0    0  501  503 -0.00000000000E+00 -0.00000000000E+00 -0.10743665762E+04  0.10743665762E+04  0.00000000000E+00 0.  1.
          6    1    1    2  501    0  0.52121617796E+02  0.73205016296E+02 -0.76903273656E+03  0.79335741463E+03  0.17300000000E+03 0.  1.
         -6    1    1    2    0  502 -0.52121617796E+02 -0.73205016296E+02 -0.26076330491E+03  0.32557969629E+03  0.17300000000E+03 0.  1.
<mgrwt>
<rscale>  2 0.19494778E+03</rscale>
<asrwt>0</asrwt>
<pdfrwt beam="1">  1       21 0.68570051E-02 0.19494778E+03</pdfrwt>
<pdfrwt beam="2">  1       21 0.16528717E+00 0.19494778E+03</pdfrwt>
<totfact> 0.36073293E+04</totfact>
</mgrwt>
</event>
<event>
 4    1  0.3976152E+000  0.3310905E+03  0.7546771E-02  0.1070655E+00
         21   -1    0    0  501  502  0.00000000000E+00  0.00000000000E+00  0.95660605007E+03  0.95660605007E+03  0.00000000000E+00 0.  1.
         21   -1    0    0  502  503 -0.00000000000E+00 -0.00000000000E+00 -0.32427538686E+03  0.32427538686E+03  0.00000000000E+00 0.  1.
          6    1    1    2  501    0  0.26446219447E+03 -0.98750564122E+02  0.83115948982E+03  0.89467704997E+03  0.17300000000E+03 0.  1.
         -6    1    1    2    0  503 -0.26446219447E+03  0.98750564122E+02 -0.19882882661E+03  0.38620438696E+03  0.17300000000E+03 0.  1.
<mgrwt>
<rscale>  2 0.33109051E+03</rscale>
<asrwt>0</asrwt>
<pdfrwt beam="1">  1       21 0.14717016E+00 0.33109051E+03</pdfrwt>
<pdfrwt beam="2">  1       21 0.49888521E-01 0.33109051E+03</pdfrwt>
<totfact> 0.10794106E+03</totfact>
</mgrwt>
</event>
<event>
 4    1  0.3976152E+000  0.2301667E+03  0.7546771E-02  0.1126522E+00
         21   -1    0    0  503  502  0.00000000000E+00  0.00000000000E+00  0.12321972641E+04  0.12321972641E+04  0.00000000000E+00 0.  1.
         21   -1    0    0  501  503 -0.00000000000E+00 -0.00000000000E+00 -0.25275756390E+03  0.25275756390E+03  0.00000000000E+00 0.  1.
          6    1    1    2  501    0 -0.31953845027E+02 -0.14841383050E+03 -0.18666910752E+03  0.29634788509E+03  0.17300000000E+03 0.  1.
         -6    1    1    2    0  502  0.31953845027E+02  0.14841383050E+03  0.11661088078E+04  0.11886069429E+04  0.17300000000E+03 0.  1.
<mgrwt>
<rscale>  2 0.23016671E+03</rscale>
<asrwt>0</asrwt>
<pdfrwt beam="1">  1       21 0.18956881E+00 0.23016671E+03</pdfrwt>
<pdfrwt beam="2">  1       21 0.38885780E-01 0.23016671E+03</pdfrwt>
<totfact> 0.96282461E+02</totfact>
</mgrwt>
</event>
<event>
 4    1  0.3976152E+000  0.1730046E+03  0.7546771E-02  0.1174750E+00
         21   -1    0    0  501  502  0.00000000000E+00  0.00000000000E+00  0.31398691246E+03  0.31398691246E+03  0.00000000000E+00 0.  1.
         21   -1    0    0  502  503 -0.00000000000E+00 -0.00000000000E+00 -0.17605337488E+03  0.17605337488E+03  0.00000000000E+00 0.  1.
          6    1    1    2  501    0  0.11790112275E+01  0.46497393212E+00  0.23488511041E+03  0.29172182188E+03  0.17300000000E+03 0.  1.
         -6    1    1    2    0  503 -0.11790112275E+01 -0.46497393212E+00 -0.96951572825E+02  0.19831846546E+03  0.17300000000E+03 0.  1.
<mgrwt>
<rscale>  2 0.17300464E+03</rscale>
<asrwt>0</asrwt>
<pdfrwt beam="1">  1       21 0.48305679E-01 0.17300464E+03</pdfrwt>
<pdfrwt beam="2">  1       21 0.27085135E-01 0.17300464E+03</pdfrwt>
<totfact> 0.53669785E+04</totfact>
</mgrwt>
</event>
<event>
 4    1  0.3976152E+000  0.2228726E+03  0.7546771E-02  0.1131759E+00
         21   -1    0    0  501  502  0.00000000000E+00  0.00000000000E+00  0.23834056922E+04  0.23834056922E+04  0.00000000000E+00 0.  1.
         21   -1    0    0  502  503 -0.00000000000E+00 -0.00000000000E+00 -0.72601543963E+02  0.72601543963E+02  0.00000000000E+00 0.  1.
          6    1    1    2  501    0 -0.12673554057E+03 -0.60673585502E+02  0.21922780144E+04  0.22035777893E+04  0.17300000000E+03 0.  1.
         -6    1    1    2    0  503  0.12673554057E+03  0.60673585502E+02  0.11852613382E+03  0.25242944681E+03  0.17300000000E+03 0.  1.
<mgrwt>
<rscale>  2 0.22287257E+03</rscale>
<asrwt>0</asrwt>
<pdfrwt beam="1">  1       21 0.36667774E+00 0.22287257E+03</pdfrwt>
<pdfrwt beam="2">  1       21 0.11169470E-01 0.22287257E+03</pdfrwt>
<totfact> 0.88947416E+02</totfact>
</mgrwt>
</event>
<event>
 4    1  0.3976152E+000  0.2522023E+03  0.7546771E-02  0.1111921E+00
         21   -1    0    0  501  502  0.00000000000E+00  0.00000000000E+00  0.94453335942E+03  0.94453335942E+03  0.00000000000E+00 0.  1.
         21   -1    0    0  502  503 -0.00000000000E+00 -0.00000000000E+00 -0.70223025543E+02  0.70223025543E+02  0.00000000000E+00 0.  1.
          6    1    1    2  501    0 -0.18027583596E+03  0.34316578209E+02  0.53993935128E+03  0.59593666411E+03  0.17300000000E+03 0.  1.
         -6    1    1    2    0  503  0.18027583596E+03 -0.34316578209E+02  0.33437098260E+03  0.41881972085E+03  0.17300000000E+03 0.  1.
<mgrwt>
<rscale>  2 0.25220231E+03</rscale>
<asrwt>0</asrwt>
<pdfrwt beam="1">  1       21 0.14531281E+00 0.25220231E+03</pdfrwt>
<pdfrwt beam="2">  1       21 0.10803543E-01 0.25220231E+03</pdfrwt>
<totfact> 0.22190333E+04</totfact>
</mgrwt>
</event>
<event>
 4    1  0.3976152E+000  0.2031263E+03  0.7546771E-02  0.1147128E+00
         21   -1    0    0  501  502  0.00000000000E+00  0.00000000000E+00  0.74997686177E+03  0.74997686177E+03  0.00000000000E+00 0. -1.
         21   -1    0    0  502  503 -0.00000000000E+00 -0.00000000000E+00 -0.90246240873E+02  0.90246240873E+02  0.00000000000E+00 0.  1.
          6    1    1    2  501    0  0.66080127352E+02  0.83454729133E+02  0.59235459758E+03  0.62621421600E+03  0.17300000000E+03 0. -1.
         -6    1    1    2    0  503 -0.66080127352E+02 -0.83454729133E+02  0.67376023321E+02  0.21400888665E+03  0.17300000000E+03 0.  1.
<mgrwt>
<rscale>  2 0.20312625E+03</rscale>
<asrwt>0</asrwt>
<pdfrwt beam="1">  1       21 0.11538105E+00 0.20312625E+03</pdfrwt>
<pdfrwt beam="2">  1       21 0.13884038E-01 0.20312625E+03</pdfrwt>
<totfact> 0.26085228E+04</totfact>
</mgrwt>
</event>
<event>
 4    1  0.3976152E+000  0.1798639E+03  0.7546771E-02  0.1167935E+00
         21   -1    0    0  503  502  0.00000000000E+00  0.00000000000E+00  0.12687157186E+04  0.12687157186E+04  0.00000000000E+00 0. -1.
         21   -1    0    0  501  503 -0.00000000000E+00 -0.00000000000E+00 -0.38419953931E+02  0.38419953931E+02  0.00000000000E+00 0. -1.
          6    1    1    2  501    0  0.40622955889E+02 -0.27781411475E+02  0.23613070939E+03  0.29683116967E+03  0.17300000000E+03 0. -1.
         -6    1    1    2    0  502 -0.40622955889E+02  0.27781411475E+02  0.99416505531E+03  0.10103045029E+04  0.17300000000E+03 0. -1.
<mgrwt>
<rscale>  2 0.17986392E+03</rscale>
<asrwt>0</asrwt>
<pdfrwt beam="1">  1       21 0.19518700E+00 0.17986392E+03</pdfrwt>
<pdfrwt beam="2">  1       21 0.59107631E-02 0.17986392E+03</pdfrwt>
<totfact> 0.29446636E+04</totfact>
</mgrwt>
</event>
<event>
 4    1  0.3976152E+000  0.1751693E+03  0.7546771E-02  0.1172562E+00
         21   -1    0    0  503  502  0.00000000000E+00  0.00000000000E+00  0.51379806832E+03  0.51379806832E+03  0.00000000000E+00 0.  1.
         21   -1    0    0  501  503 -0.00000000000E+00 -0.00000000000E+00 -0.59901125907E+02  0.59901125907E+02  0.00000000000E+00 0.  1.
          6    1    1    2  501    0 -0.84330579105E+01  0.26156348030E+02  0.21119624089E+03  0.27438681305E+03  0.17300000000E+03 0.  1.
         -6    1    1    2    0  502  0.84330579105E+01 -0.26156348030E+02  0.24270070153E+03  0.29931238119E+03  0.17300000000E+03 0.  1.
<mgrwt>
<rscale>  2 0.17516926E+03</rscale>
<asrwt>0</asrwt>
<pdfrwt beam="1">  1       21 0.79045854E-01 0.17516926E+03</pdfrwt>
<pdfrwt beam="2">  1       21 0.92155582E-02 0.17516926E+03</pdfrwt>
<totfact> 0.13325444E+05</totfact>
</mgrwt>
</event>
<event>
 4    1  0.3976152E+000  0.1772774E+03  0.7546771E-02  0.1170464E+00
         21   -1    0    0  503  502  0.00000000000E+00  0.00000000000E+00  0.63884982370E+03  0.63884982370E+03  0.00000000000E+00 0.  1.
         21   -1    0    0  501  503 -0.00000000000E+00 -0.00000000000E+00 -0.49499612054E+02  0.49499612054E+02  0.00000000000E+00 0.  1.
          6    1    1    2  501    0 -0.30475372033E+02 -0.23864879019E+02  0.32173922581E+03  0.36734644435E+03  0.17300000000E+03 0.  1.
         -6    1    1    2    0  502  0.30475372033E+02  0.23864879019E+02  0.26761098584E+03  0.32100299141E+03  0.17300000000E+03 0.  1.
<mgrwt>
<rscale>  2 0.17727741E+03</rscale>
<asrwt>0</asrwt>
<pdfrwt beam="1">  1       21 0.98284582E-01 0.17727741E+03</pdfrwt>
<pdfrwt beam="2">  1       21 0.76153254E-02 0.17727741E+03</pdfrwt>
<totfact> 0.11249277E+05</totfact>
</mgrwt>
</event>
<event>
 4    1  0.3976152E+000  0.2281258E+03  0.7546771E-02  0.1127966E+00
         21   -1    0    0  503  502  0.00000000000E+00  0.00000000000E+00  0.27511724379E+03  0.27511724379E+03  0.00000000000E+00 0.  1.
         21   -1    0    0  501  503 -0.00000000000E+00 -0.00000000000E+00 -0.37207755898E+03  0.37207755898E+03  0.00000000000E+00 0.  1.
          6    1    1    2  501    0  0.81143837840E+02  0.12461171027E+03 -0.27536998429E+03  0.35758919028E+03  0.17300000000E+03 0.  1.
         -6    1    1    2    0  502 -0.81143837840E+02 -0.12461171027E+03  0.17840966910E+03  0.28960561249E+03  0.17300000000E+03 0.  1.
<mgrwt>
<rscale>  2 0.22812584E+03</rscale>
<asrwt>0</asrwt>
<pdfrwt beam="1">  1       21 0.42325730E-01 0.22812584E+03</pdfrwt>
<pdfrwt beam="2">  1       21 0.57242701E-01 0.22812584E+03</pdfrwt>
<totfact> 0.15063532E+04</totfact>
</mgrwt>
</event>
<event>
 4    1  0.3976152E+000  0.2418274E+03  0.7546771E-02  0.1118581E+00
         21   -1    0    0  501  502  0.00000000000E+00  0.00000000000E+00  0.40460060472E+03  0.40460060472E+03  0.00000000000E+00 0.  1.
         21   -1    0    0  502  503 -0.00000000000E+00 -0.00000000000E+00 -0.41551700208E+03  0.41551700208E+03  0.00000000000E+00 0.  1.
          6    1    1    2  501    0 -0.14816793563E+03  0.81226513308E+02  0.32568735153E+03  0.40565100093E+03  0.17300000000E+03 0.  1.
         -6    1    1    2    0  503  0.14816793563E+03 -0.81226513308E+02 -0.33660374888E+03  0.41446660586E+03  0.17300000000E+03 0.  1.
<mgrwt>
<rscale>  2 0.24182738E+03</rscale>
<asrwt>0</asrwt>
<pdfrwt beam="1">  1       21 0.62246248E-01 0.24182738E+03</pdfrwt>
<pdfrwt beam="2">  1       21 0.63925692E-01 0.24182738E+03</pdfrwt>
<totfact> 0.52244504E+03</totfact>
</mgrwt>
</event>
<event>
 4    1  0.3976152E+000  0.1746125E+03  0.7546771E-02  0.1173121E+00
         21   -1    0    0  503  502  0.00000000000E+00  0.00000000000E+00  0.12326071301E+03  0.12326071301E+03  0.00000000000E+00 0. -1.
         21   -1    0    0  501  503 -0.00000000000E+00 -0.00000000000E+00 -0.24884712033E+03  0.24884712033E+03  0.00000000000E+00 0. -1.
          6    1    1    2  501    0 -0.22475259745E+02 -0.74427018930E+01 -0.77185441810E+02  0.19091129757E+03  0.17300000000E+03 0. -1.
         -6    1    1    2    0  502  0.22475259745E+02  0.74427018930E+01 -0.48400965512E+02  0.18119653577E+03  0.17300000000E+03 0. -1.
<mgrwt>
<rscale>  2 0.17461252E+03</rscale>
<asrwt>0</asrwt>
<pdfrwt beam="1">  1       21 0.18963187E-01 0.17461252E+03</pdfrwt>
<pdfrwt beam="2">  1       21 0.38284172E-01 0.17461252E+03</pdfrwt>
<totfact> 0.16865026E+05</totfact>
</mgrwt>
</event>
<event>
 4    1  0.3976152E+000  0.2248735E+03  0.7546771E-02  0.1130301E+00
         21   -1    0    0  501  502  0.00000000000E+00  0.00000000000E+00  0.18068406396E+04  0.18068406396E+04  0.00000000000E+00 0. -1.
         21   -1    0    0  502  503 -0.00000000000E+00 -0.00000000000E+00 -0.31513339612E+02  0.31513339612E+02  0.00000000000E+00 0.  1.
          6    1    1    2  501    0  0.45207919460E+02 -0.13636465158E+03  0.11951410060E+04  0.12161126997E+04  0.17300000000E+03 0. -1.
         -6    1    1    2    0  503 -0.45207919460E+02  0.13636465158E+03  0.58018629402E+03  0.62224127953E+03  0.17300000000E+03 0.  1.
<mgrwt>
<rscale>  2 0.22487346E+03</rscale>
<asrwt>0</asrwt>
<pdfrwt beam="1">  1       21 0.27797540E+00 0.22487346E+03</pdfrwt>
<pdfrwt beam="2">  1       21 0.48482075E-02 0.22487346E+03</pdfrwt>
<totfact> 0.12569377E+04</totfact>
</mgrwt>
</event>
<event>
 4    1  0.3976152E+000  0.1957314E+03  0.7546771E-02  0.1153391E+00
         21   -1    0    0  501  502  0.00000000000E+00  0.00000000000E+00  0.12651759146E+03  0.12651759146E+03  0.00000000000E+00 0.  1.
         21   -1    0    0  502  503 -0.00000000000E+00 -0.00000000000E+00 -0.74344805882E+03  0.74344805882E+03  0.00000000000E+00 0.  1.
          6    1    1    2  501    0 -0.45356834422E+02 -0.79526983562E+02  0.26413700525E+02  0.19750561288E+03  0.17300000000E+03 0. -1.
         -6    1    1    2    0  503  0.45356834422E+02  0.79526983562E+02 -0.64334416788E+03  0.67246003740E+03  0.17300000000E+03 0. -1.
<mgrwt>
<rscale>  2 0.19573141E+03</rscale>
<asrwt>0</asrwt>
<pdfrwt beam="1">  1       21 0.19464245E-01 0.19573141E+03</pdfrwt>
<pdfrwt beam="2">  1       21 0.11437662E+00 0.19573141E+03</pdfrwt>
<totfact> 0.14396092E+04</totfact>
</mgrwt>
</event>
<event>
 4    1  0.3976152E+000  0.3588454E+03  0.7546771E-02  0.1059042E+00
         21   -1    0    0  501  502  0.00000000000E+00  0.00000000000E+00  0.12375762648E+04  0.12375762648E+04  0.00000000000E+00 0. -1.
         21   -1    0    0  502  503 -0.00000000000E+00 -0.00000000000E+00 -0.20873688437E+03  0.20873688437E+03  0.00000000000E+00 0. -1.
          6    1    1    2  501    0  0.20255801487E+03  0.24043968793E+03  0.10265477502E+04  0.10874604712E+04  0.17300000000E+03 0. -1.
         -6    1    1    2    0  503 -0.20255801487E+03 -0.24043968793E+03  0.22916301987E+01  0.35885267797E+03  0.17300000000E+03 0. -1.
<mgrwt>
<rscale>  2 0.35884536E+03</rscale>
<asrwt>0</asrwt>
<pdfrwt beam="1">  1       21 0.19039634E+00 0.35884536E+03</pdfrwt>
<pdfrwt beam="2">  1       21 0.32113368E-01 0.35884536E+03</pdfrwt>
<totfact> 0.12711007E+03</totfact>
</mgrwt>
</event>
<event>
 4    1  0.3976152E+000  0.2396416E+03  0.7546771E-02  0.1120032E+00
         21   -1    0    0  503  502  0.00000000000E+00  0.00000000000E+00  0.25863942625E+03  0.25863942625E+03  0.00000000000E+00 0. -1.
         21   -1    0    0  501  503 -0.00000000000E+00 -0.00000000000E+00 -0.31873763428E+03  0.31873763428E+03  0.00000000000E+00 0. -1.
          6    1    1    2  501    0  0.73944601029E+01  0.16566359709E+03 -0.18905837822E+03  0.30523953842E+03  0.17300000000E+03 0. -1.
         -6    1    1    2    0  502 -0.73944601029E+01 -0.16566359709E+03  0.12896017019E+03  0.27213752210E+03  0.17300000000E+03 0. -1.
<mgrwt>
<rscale>  2 0.23964162E+03</rscale>
<asrwt>0</asrwt>
<pdfrwt beam="1">  1       21 0.39790681E-01 0.23964162E+03</pdfrwt>
<pdfrwt beam="2">  1       21 0.49036559E-01 0.23964162E+03</pdfrwt>
<totfact> 0.23551629E+04</totfact>
</mgrwt>
</event>
<event>
 4    1  0.3976152E+000  0.1737560E+03  0.7546771E-02  0.1173987E+00
         21   -1    0    0  501  502  0.00000000000E+00  0.00000000000E+00  0.94928998213E+03  0.94928998213E+03  0.00000000000E+00 0.  1.
         21   -1    0    0  502  503 -0.00000000000E+00 -0.00000000000E+00 -0.46218599102E+02  0.46218599102E+02  0.00000000000E+00 0.  1.
          6    1    1    2  501    0  0.94721719448E+01 -0.13131406556E+02  0.72951271659E+03  0.74991996876E+03  0.17300000000E+03 0.  1.
         -6    1    1    2    0  503 -0.94721719448E+01  0.13131406556E+02  0.17355866643E+03  0.24558861247E+03  0.17300000000E+03 0.  1.
<mgrwt>
<rscale>  2 0.17375602E+03</rscale>
<asrwt>0</asrwt>
<pdfrwt beam="1">  1       21 0.14604460E+00 0.17375602E+03</pdfrwt>
<pdfrwt beam="2">  1       21 0.71105544E-02 0.17375602E+03</pdfrwt>
<totfact> 0.47710884E+04</totfact>
</mgrwt>
</event>
<event>
 4    1  0.3976152E+000  0.3132821E+03  0.7546771E-02  0.1078783E+00
         21   -1    0    0  501  502  0.00000000000E+00  0.00000000000E+00  0.25991636246E+03  0.25991636246E+03  0.00000000000E+00 0. -1.
         21   -1    0    0  502  503 -0.00000000000E+00 -0.00000000000E+00 -0.41530487294E+03  0.41530487294E+03  0.00000000000E+00 0. -1.
          6    1    1    2  501    0 -0.23611884773E+03  0.11164490554E+03  0.24024967487E+02  0.31420199594E+03  0.17300000000E+03 0. -1.
         -6    1    1    2    0  503  0.23611884773E+03 -0.11164490554E+03 -0.17941347796E+03  0.36101923946E+03  0.17300000000E+03 0. -1.
<mgrwt>
<rscale>  2 0.31328213E+03</rscale>
<asrwt>0</asrwt>
<pdfrwt beam="1">  1       21 0.39987133E-01 0.31328213E+03</pdfrwt>
<pdfrwt beam="2">  1       21 0.63893057E-01 0.31328213E+03</pdfrwt>
<totfact> 0.12799602E+04</totfact>
</mgrwt>
</event>
<event>
 4    1  0.3976152E+000  0.1867165E+03  0.7546771E-02  0.1161457E+00
         21   -1    0    0  503  502  0.00000000000E+00  0.00000000000E+00  0.25636478464E+03  0.25636478464E+03  0.00000000000E+00 0.  1.
         21   -1    0    0  501  503 -0.00000000000E+00 -0.00000000000E+00 -0.55616125795E+03  0.55616125795E+03  0.00000000000E+00 0.  1.
          6    1    1    2  501    0 -0.70120318580E+02 -0.41447712298E+01 -0.50301644794E+03  0.53655249985E+03  0.17300000000E+03 0.  1.
         -6    1    1    2    0  502  0.70120318580E+02  0.41447712298E+01  0.20321997462E+03  0.27597354274E+03  0.17300000000E+03 0.  1.
<mgrwt>
<rscale>  2 0.18671646E+03</rscale>
<asrwt>0</asrwt>
<pdfrwt beam="1">  1       21 0.39440736E-01 0.18671646E+03</pdfrwt>
<pdfrwt beam="2">  1       21 0.85563270E-01 0.18671646E+03</pdfrwt>
<totfact> 0.73464592E+03</totfact>
</mgrwt>
</event>
<event>
 4    1  0.3976152E+000  0.2161873E+03  0.7546771E-02  0.1136758E+00
         21   -1    0    0  501  502  0.00000000000E+00  0.00000000000E+00  0.38909793239E+03  0.38909793239E+03  0.00000000000E+00 0. -1.
         21   -1    0    0  502  503 -0.00000000000E+00 -0.00000000000E+00 -0.12017746985E+03  0.12017746985E+03  0.00000000000E+00 0.  1.
          6    1    1    2  501    0 -0.10059711828E+03 -0.81781276956E+02  0.12870975503E+03  0.25160118940E+03  0.17300000000E+03 0. -1.
         -6    1    1    2    0  503  0.10059711828E+03  0.81781276956E+02  0.14021070751E+03  0.25767421285E+03  0.17300000000E+03 0. -1.
<mgrwt>
<rscale>  2 0.21618732E+03</rscale>
<asrwt>0</asrwt>
<pdfrwt beam="1">  1       21 0.59861220E-01 0.21618732E+03</pdfrwt>
<pdfrwt beam="2">  1       21 0.18488842E-01 0.21618732E+03</pdfrwt>
<totfact> 0.68851930E+04</totfact>
</mgrwt>
</event>
<event>
 4    1  0.3976152E+000  0.2808795E+03  0.7546771E-02  0.1095210E+00
         21   -1    0    0  501  502  0.00000000000E+00  0.00000000000E+00  0.12003179630E+03  0.12003179630E+03  0.00000000000E+00 0.  1.
         21   -1    0    0  502  503 -0.00000000000E+00 -0.00000000000E+00 -0.89085522516E+03  0.89085522516E+03  0.00000000000E+00 0. -1.
          6    1    1    2  501    0  0.31804587568E+02 -0.21898119461E+03 -0.12659532763E+03  0.30809036395E+03  0.17300000000E+03 0.  1.
         -6    1    1    2    0  503 -0.31804587568E+02  0.21898119461E+03 -0.64422810123E+03  0.70279665750E+03  0.17300000000E+03 0. -1.
<mgrwt>
<rscale>  2 0.28087950E+03</rscale>
<asrwt>0</asrwt>
<pdfrwt beam="1">  1       21 0.18466431E-01 0.28087950E+03</pdfrwt>
<pdfrwt beam="2">  1       21 0.13705464E+00 0.28087950E+03</pdfrwt>
<totfact> 0.95724547E+03</totfact>
</mgrwt>
</event>
<event>
 4    1  0.3976152E+000  0.1876664E+03  0.7546771E-02  0.1160583E+00
         21   -1    0    0  501  502  0.00000000000E+00  0.00000000000E+00  0.30001688394E+03  0.30001688394E+03  0.00000000000E+00 0.  1.
         21   -1    0    0  502  503 -0.00000000000E+00 -0.00000000000E+00 -0.31419162241E+03  0.31419162241E+03  0.00000000000E+00 0.  1.
          6    1    1    2  501    0 -0.45669031892E+02 -0.56604112209E+02  0.23596729329E+03  0.30149502400E+03  0.17300000000E+03 0.  1.
         -6    1    1    2    0  503  0.45669031892E+02  0.56604112209E+02 -0.25014203175E+03  0.31271348235E+03  0.17300000000E+03 0.  1.
<mgrwt>
<rscale>  2 0.18766642E+03</rscale>
<asrwt>0</asrwt>
<pdfrwt beam="1">  1       21 0.46156444E-01 0.18766642E+03</pdfrwt>
<pdfrwt beam="2">  1       21 0.48337172E-01 0.18766642E+03</pdfrwt>
<totfact> 0.18442274E+04</totfact>
</mgrwt>
</event>
<event>
 4    1  0.3976152E+000  0.2248198E+03  0.7546771E-02  0.1130340E+00
         21   -1    0    0  501  502  0.00000000000E+00  0.00000000000E+00  0.79837458720E+02  0.79837458720E+02  0.00000000000E+00 0. -1.
         21   -1    0    0  502  503 -0.00000000000E+00 -0.00000000000E+00 -0.81067734287E+03  0.81067734287E+03  0.00000000000E+00 0. -1.
          6    1    1    2  501    0 -0.10180453395E+03 -0.10124603779E+03 -0.15701939577E+03  0.27422438613E+03  0.17300000000E+03 0. -1.
         -6    1    1    2    0  503  0.10180453395E+03  0.10124603779E+03 -0.57382048838E+03  0.61629041546E+03  0.17300000000E+03 0. -1.
<mgrwt>
<rscale>  2 0.22481976E+03</rscale>
<asrwt>0</asrwt>
<pdfrwt beam="1">  1       21 0.12282687E-01 0.22481976E+03</pdfrwt>
<pdfrwt beam="2">  1       21 0.12471958E+00 0.22481976E+03</pdfrwt>
<totfact> 0.26496828E+04</totfact>
</mgrwt>
</event>
<event>
 4    1  0.3976152E+000  0.2507511E+03  0.7546771E-02  0.1112831E+00
         21   -1    0    0  503  502  0.00000000000E+00  0.00000000000E+00  0.45015048839E+03  0.45015048839E+03  0.00000000000E+00 0.  1.
         21   -1    0    0  501  503 -0.00000000000E+00 -0.00000000000E+00 -0.15891801763E+03  0.15891801763E+03  0.00000000000E+00 0.  1.
          6    1    1    2  501    0  0.14249930014E+03  0.11243250098E+03  0.39653694482E+02  0.25386715680E+03  0.17300000000E+03 0.  1.
         -6    1    1    2    0  502 -0.14249930014E+03 -0.11243250098E+03  0.25157877627E+03  0.35520134922E+03  0.17300000000E+03 0.  1.
<mgrwt>
<rscale>  2 0.25075111E+03</rscale>
<asrwt>0</asrwt>
<pdfrwt beam="1">  1       21 0.69253921E-01 0.25075111E+03</pdfrwt>
<pdfrwt beam="2">  1       21 0.24448926E-01 0.25075111E+03</pdfrwt>
<totfact> 0.29112678E+04</totfact>
</mgrwt>
</event>
<event>
 4    1  0.3976152E+000  0.1968469E+03  0.7546771E-02  0.1152427E+00
         21   -1    0    0  501  502  0.00000000000E+00  0.00000000000E+00  0.83267194442E+03  0.83267194442E+03  0.00000000000E+00 0.  1.
         21   -1    0    0  502  503 -0.00000000000E+00 -0.00000000000E+00 -0.87423572827E+02  0.87423572827E+02  0.00000000000E+00 0. -1.
          6    1    1    2  501    0  0.85177187629E+02 -0.39554141666E+02  0.68724521067E+03  0.71488087330E+03  0.17300000000E+03 0.  1.
         -6    1    1    2    0  503 -0.85177187629E+02  0.39554141666E+02  0.58003160923E+02  0.20521464395E+03  0.17300000000E+03 0. -1.
<mgrwt>
<rscale>  2 0.19684685E+03</rscale>
<asrwt>0</asrwt>
<pdfrwt beam="1">  1       21 0.12810337E+00 0.19684685E+03</pdfrwt>
<pdfrwt beam="2">  1       21 0.13449781E-01 0.19684685E+03</pdfrwt>
<totfact> 0.21387030E+04</totfact>
</mgrwt>
</event>
<event>
 4    1  0.3976152E+000  0.1900246E+03  0.7546771E-02  0.1158439E+00
         21   -1    0    0  503  502  0.00000000000E+00  0.00000000000E+00  0.31497657807E+03  0.31497657807E+03  0.00000000000E+00 0. -1.
         21   -1    0    0  501  503 -0.00000000000E+00 -0.00000000000E+00 -0.15175728525E+03  0.15175728525E+03  0.00000000000E+00 0. -1.
          6    1    1    2  501    0  0.78255385480E+02  0.75133001288E+01 -0.33800626741E+02  0.19300735065E+03  0.17300000000E+03 0. -1.
         -6    1    1    2    0  502 -0.78255385480E+02 -0.75133001288E+01  0.19701991956E+03  0.27372651267E+03  0.17300000000E+03 0. -1.
<mgrwt>
<rscale>  2 0.19002462E+03</rscale>
<asrwt>0</asrwt>
<pdfrwt beam="1">  1       21 0.48457935E-01 0.19002462E+03</pdfrwt>
<pdfrwt beam="2">  1       21 0.23347275E-01 0.19002462E+03</pdfrwt>
<totfact> 0.70242763E+04</totfact>
</mgrwt>
</event>
<event>
 4    1  0.3976152E+000  0.2014221E+03  0.7546771E-02  0.1148545E+00
         21   -1    0    0  503  502  0.00000000000E+00  0.00000000000E+00  0.25862735857E+03  0.25862735857E+03  0.00000000000E+00 0. -1.
         21   -1    0    0  501  503 -0.00000000000E+00 -0.00000000000E+00 -0.16896905374E+03  0.16896905374E+03  0.00000000000E+00 0. -1.
          6    1    1    2  501    0 -0.62015858865E+02 -0.82437250503E+02 -0.12381465710E+02  0.20180229859E+03  0.17300000000E+03 0. -1.
         -6    1    1    2    0  502  0.62015858865E+02  0.82437250503E+02  0.10203977054E+03  0.22579411373E+03  0.17300000000E+03 0. -1.
<mgrwt>
<rscale>  2 0.20142211E+03</rscale>
<asrwt>0</asrwt>
<pdfrwt beam="1">  1       21 0.39788824E-01 0.20142211E+03</pdfrwt>
<pdfrwt beam="2">  1       21 0.25995239E-01 0.20142211E+03</pdfrwt>
<totfact> 0.85265250E+04</totfact>
</mgrwt>
</event>
<event>
 4    1  0.3976152E+000  0.2607930E+03  0.7546771E-02  0.1106668E+00
         21   -1    0    0  501  502  0.00000000000E+00  0.00000000000E+00  0.33133206492E+03  0.33133206492E+03  0.00000000000E+00 0. -1.
         21   -1    0    0  502  503 -0.00000000000E+00 -0.00000000000E+00 -0.20643845222E+03  0.20643845222E+03  0.00000000000E+00 0.  1.
          6    1    1    2  501    0  0.52204904714E+02  0.18803887418E+03  0.42229106290E+02  0.26418983269E+03  0.17300000000E+03 0.  1.
         -6    1    1    2    0  503 -0.52204904714E+02 -0.18803887418E+03  0.82664506411E+02  0.27358068444E+03  0.17300000000E+03 0.  1.
<mgrwt>
<rscale>  2 0.26079296E+03</rscale>
<asrwt>0</asrwt>
<pdfrwt beam="1">  1       21 0.50974164E-01 0.26079296E+03</pdfrwt>
<pdfrwt beam="2">  1       21 0.31759762E-01 0.26079296E+03</pdfrwt>
<totfact> 0.33772334E+04</totfact>
</mgrwt>
</event>
<event>
 4    1  0.3976152E+000  0.2537536E+03  0.7546771E-02  0.1110955E+00
         21   -1    0    0  501  502  0.00000000000E+00  0.00000000000E+00  0.87197308291E+02  0.87197308291E+02  0.00000000000E+00 0. -1.
         21   -1    0    0  502  503 -0.00000000000E+00 -0.00000000000E+00 -0.14272485029E+04  0.14272485029E+04  0.00000000000E+00 0.  1.
          6    1    1    2  501    0 -0.18562773701E+03  0.20597865586E+01 -0.14398426219E+03  0.29175737733E+03  0.17300000000E+03 0. -1.
         -6    1    1    2    0  503  0.18562773701E+03 -0.20597865586E+01 -0.11960669324E+04  0.12226884338E+04  0.17300000000E+03 0.  1.
<mgrwt>
<rscale>  2 0.25375362E+03</rscale>
<asrwt>0</asrwt>
<pdfrwt beam="1">  1       21 0.13414970E-01 0.25375362E+03</pdfrwt>
<pdfrwt beam="2">  1       21 0.21957670E+00 0.25375362E+03</pdfrwt>
<totfact> 0.46109332E+03</totfact>
</mgrwt>
</event>
<event>
 4    1  0.3976152E+000  0.1811383E+03  0.7546771E-02  0.1166706E+00
         21   -1    0    0  503  502  0.00000000000E+00  0.00000000000E+00  0.14607964750E+03  0.14607964750E+03  0.00000000000E+00 0.  1.
         21   -1    0    0  501  503 -0.00000000000E+00 -0.00000000000E+00 -0.22470923886E+03  0.22470923886E+03  0.00000000000E+00 0.  1.
          6    1    1    2  501    0 -0.25060407337E+02 -0.47476877855E+02 -0.43193587245E+02  0.18621698077E+03  0.17300000000E+03 0. -1.
         -6    1    1    2    0  502  0.25060407337E+02  0.47476877855E+02 -0.35436004111E+02  0.18457190559E+03  0.17300000000E+03 0. -1.
<mgrwt>
<rscale>  2 0.18113828E+03</rscale>
<asrwt>0</asrwt>
<pdfrwt beam="1">  1       21 0.22473792E-01 0.18113828E+03</pdfrwt>
<pdfrwt beam="2">  1       21 0.34570652E-01 0.18113828E+03</pdfrwt>
<totfact> 0.15008700E+05</totfact>
</mgrwt>
</event>
<event>
 4    1  0.3976152E+000  0.3424076E+03  0.7546771E-02  0.1065775E+00
         21   -1    0    0  503  502  0.00000000000E+00  0.00000000000E+00  0.14327438493E+04  0.14327438493E+04  0.00000000000E+00 0.  1.
         21   -1    0    0  501  503 -0.00000000000E+00 -0.00000000000E+00 -0.16466653140E+03  0.16466653140E+03  0.00000000000E+00 0. -1.
          6    1    1    2  501    0 -0.28205148496E+03  0.88096302813E+02  0.67549087938E+02  0.34900698850E+03  0.17300000000E+03 0. -1.
         -6    1    1    2    0  502  0.28205148496E+03 -0.88096302813E+02  0.12005282300E+04  0.12484033922E+04  0.17300000000E+03 0.  1.
<mgrwt>
<rscale>  2 0.34240765E+03</rscale>
<asrwt>0</asrwt>
<pdfrwt beam="1">  1       21 0.22042212E+00 0.34240765E+03</pdfrwt>
<pdfrwt beam="2">  1       21 0.25333313E-01 0.34240765E+03</pdfrwt>
<totfact> 0.13026155E+03</totfact>
</mgrwt>
</event>
<event>
 4    1  0.3976152E+000  0.2427401E+03  0.7546771E-02  0.1117981E+00
         21   -1    0    0  503  502  0.00000000000E+00  0.00000000000E+00  0.26499020413E+03  0.26499020413E+03  0.00000000000E+00 0. -1.
         21   -1    0    0  501  503 -0.00000000000E+00 -0.00000000000E+00 -0.22840739828E+03  0.22840739828E+03  0.00000000000E+00 0.  1.
          6    1    1    2  501    0  0.95229228693E+02  0.14115652671E+03 -0.21855986764E+02  0.24372208597E+03  0.17300000000E+03 0.  1.
         -6    1    1    2    0  502 -0.95229228693E+02 -0.14115652671E+03  0.58438792614E+02  0.24967551645E+03  0.17300000000E+03 0. -1.
<mgrwt>
<rscale>  2 0.24274013E+03</rscale>
<asrwt>0</asrwt>
<pdfrwt beam="1">  1       21 0.40767724E-01 0.24274013E+03</pdfrwt>
<pdfrwt beam="2">  1       21 0.35139600E-01 0.24274013E+03</pdfrwt>
<totfact> 0.44213593E+04</totfact>
</mgrwt>
</event>
<event>
 4    1  0.3976152E+000  0.1776975E+03  0.7546771E-02  0.1170050E+00
         21   -1    0    0  501  502  0.00000000000E+00  0.00000000000E+00  0.26003600235E+03  0.26003600235E+03  0.00000000000E+00 0.  1.
         21   -1    0    0  502  503 -0.00000000000E+00 -0.00000000000E+00 -0.12437635799E+03  0.12437635799E+03  0.00000000000E+00 0.  1.
          6    1    1    2  501    0 -0.32871618839E+02  0.23808631289E+02  0.97408456663E+02  0.20264452047E+03  0.17300000000E+03 0. -1.
         -6    1    1    2    0  503  0.32871618839E+02 -0.23808631289E+02  0.38251187691E+02  0.18176783986E+03  0.17300000000E+03 0. -1.
<mgrwt>
<rscale>  2 0.17769748E+03</rscale>
<asrwt>0</asrwt>
<pdfrwt beam="1">  1       21 0.40005539E-01 0.17769748E+03</pdfrwt>
<pdfrwt beam="2">  1       21 0.19134824E-01 0.17769748E+03</pdfrwt>
<totfact> 0.15167504E+05</totfact>
</mgrwt>
</event>
<event>
 4    1  0.3976152E+000  0.2213142E+03  0.7546771E-02  0.1132907E+00
         21   -1    0    0  501  502  0.00000000000E+00  0.00000000000E+00  0.24474920722E+03  0.24474920722E+03  0.00000000000E+00 0.  1.
         21   -1    0    0  502  503 -0.00000000000E+00 -0.00000000000E+00 -0.39905384171E+03  0.39905384171E+03  0.00000000000E+00 0.  1.
          6    1    1    2  501    0 -0.13011722578E+03 -0.46048705203E+02  0.15012610780E+03  0.26742816594E+03  0.17300000000E+03 0.  1.
         -6    1    1    2    0  503  0.13011722578E+03  0.46048705203E+02 -0.30443074229E+03  0.37637488299E+03  0.17300000000E+03 0.  1.
<mgrwt>
<rscale>  2 0.22131420E+03</rscale>
<asrwt>0</asrwt>
<pdfrwt beam="1">  1       21 0.37653724E-01 0.22131420E+03</pdfrwt>
<pdfrwt beam="2">  1       21 0.61392898E-01 0.22131420E+03</pdfrwt>
<totfact> 0.16488463E+04</totfact>
</mgrwt>
</event>
<event>
 4    1  0.3976152E+000  0.1989956E+03  0.7546771E-02  0.1150589E+00
         21   -1    0    0  503  502  0.00000000000E+00  0.00000000000E+00  0.16225579510E+03  0.16225579510E+03  0.00000000000E+00 0. -1.
         21   -1    0    0  501  503 -0.00000000000E+00 -0.00000000000E+00 -0.30363803925E+03  0.30363803925E+03  0.00000000000E+00 0. -1.
          6    1    1    2  501    0 -0.91127017824E+02 -0.36960855363E+02 -0.17388227089E+03  0.26426176859E+03  0.17300000000E+03 0. -1.
         -6    1    1    2    0  502  0.91127017824E+02  0.36960855363E+02  0.32500026740E+02  0.20163206577E+03  0.17300000000E+03 0. -1.
<mgrwt>
<rscale>  2 0.19899557E+03</rscale>
<asrwt>0</asrwt>
<pdfrwt beam="1">  1       21 0.24962430E-01 0.19899557E+03</pdfrwt>
<pdfrwt beam="2">  1       21 0.46713544E-01 0.19899557E+03</pdfrwt>
<totfact> 0.66459056E+04</totfact>
</mgrwt>
</event>
<event>
 4    1  0.3976152E+000  0.2140424E+03  0.7546771E-02  0.1138404E+00
         21   -1    0    0  501  502  0.00000000000E+00  0.00000000000E+00  0.46821715920E+03  0.46821715920E+03  0.00000000000E+00 0.  1.
         21   -1    0    0  502  503 -0.00000000000E+00 -0.00000000000E+00 -0.12230276451E+03  0.12230276451E+03  0.00000000000E+00 0.  1.
          6    1    1    2  501    0 -0.84072889636E+02 -0.93898322993E+02  0.30498565034E+03  0.37259950717E+03  0.17300000000E+03 0.  1.
         -6    1    1    2    0  503  0.84072889636E+02  0.93898322993E+02  0.40928744349E+02  0.21792041654E+03  0.17300000000E+03 0.  1.
<mgrwt>
<rscale>  2 0.21404239E+03</rscale>
<asrwt>0</asrwt>
<pdfrwt beam="1">  1       21 0.72033408E-01 0.21404239E+03</pdfrwt>
<pdfrwt beam="2">  1       21 0.18815810E-01 0.21404239E+03</pdfrwt>
<totfact> 0.44502006E+04</totfact>
</mgrwt>
</event>
<event>
 4    1  0.3976152E+000  0.1825315E+03  0.7546771E-02  0.1165375E+00
         21   -1    0    0  503  502  0.00000000000E+00  0.00000000000E+00  0.16087800865E+04  0.16087800865E+04  0.00000000000E+00 0.  1.
         21   -1    0    0  501  503 -0.00000000000E+00 -0.00000000000E+00 -0.22596694663E+02  0.22596694663E+02  0.00000000000E+00 0.  1.
          6    1    1    2  501    0 -0.54287292558E+02  0.21015526332E+02  0.55739262894E+03  0.58651880216E+03  0.17300000000E+03 0.  1.
         -6    1    1    2    0  502  0.54287292558E+02 -0.21015526332E+02  0.10287907629E+04  0.10448579790E+04  0.17300000000E+03 0.  1.
<mgrwt>
<rscale>  2 0.18253154E+03</rscale>
<asrwt>0</asrwt>
<pdfrwt beam="1">  1       21 0.24750454E+00 0.18253154E+03</pdfrwt>
<pdfrwt beam="2">  1       21 0.34764158E-02 0.18253154E+03</pdfrwt>
<totfact> 0.34357383E+04</totfact>
</mgrwt>
</event>
<event>
 4    1  0.3976152E+000  0.1920833E+03  0.7546771E-02  0.1156596E+00
         21   -1    0    0  503  502  0.00000000000E+00  0.00000000000E+00  0.30729625838E+03  0.30729625838E+03  0.00000000000E+00 0.  1.
         21   -1    0    0  501  503 -0.00000000000E+00 -0.00000000000E+00 -0.14292634000E+03  0.14292634000E+03  0.00000000000E+00 0.  1.
          6    1    1    2  501    0 -0.29133197140E+02  0.78219253185E+02 -0.78430170029E+01  0.19224335531E+03  0.17300000000E+03 0.  1.
         -6    1    1    2    0  502  0.29133197140E+02 -0.78219253185E+02  0.17221293538E+03  0.25797924308E+03  0.17300000000E+03 0.  1.
<mgrwt>
<rscale>  2 0.19208330E+03</rscale>
<asrwt>0</asrwt>
<pdfrwt beam="1">  1       21 0.47276347E-01 0.19208330E+03</pdfrwt>
<pdfrwt beam="2">  1       21 0.21988668E-01 0.19208330E+03</pdfrwt>
<totfact> 0.82729572E+04</totfact>
</mgrwt>
</event>
<event>
 4    1  0.3976152E+000  0.2599499E+03  0.7546771E-02  0.1107173E+00
         21   -1    0    0  501  502  0.00000000000E+00  0.00000000000E+00  0.48205516853E+03  0.48205516853E+03  0.00000000000E+00 0. -1.
         21   -1    0    0  502  503 -0.00000000000E+00 -0.00000000000E+00 -0.14953484680E+03  0.14953484680E+03  0.00000000000E+00 0. -1.
          6    1    1    2  501    0 -0.35567517753E+02  0.19073515642E+03  0.24525134993E+03  0.35738239024E+03  0.17300000000E+03 0. -1.
         -6    1    1    2    0  503  0.35567517753E+02 -0.19073515642E+03  0.87268971803E+02  0.27420762508E+03  0.17300000000E+03 0. -1.
<mgrwt>
<rscale>  2 0.25994990E+03</rscale>
<asrwt>0</asrwt>
<pdfrwt beam="1">  1       21 0.74162333E-01 0.25994990E+03</pdfrwt>
<pdfrwt beam="2">  1       21 0.23005361E-01 0.25994990E+03</pdfrwt>
<totfact> 0.27957859E+04</totfact>
</mgrwt>
</event>
<event>
 4    1  0.3976152E+000  0.2038835E+03  0.7546771E-02  0.1146503E+00
         21   -1    0    0  501  502  0.00000000000E+00  0.00000000000E+00  0.78372485173E+03  0.78372485173E+03  0.00000000000E+00 0. -1.
         21   -1    0    0  502  503 -0.00000000000E+00 -0.00000000000E+00 -0.10585538337E+03  0.10585538337E+03  0.00000000000E+00 0. -1.
          6    1    1    2  501    0 -0.84241080034E+02 -0.67401163638E+02  0.65311607794E+03  0.68419959638E+03  0.17300000000E+03 0. -1.
         -6    1    1    2    0  503  0.84241080034E+02  0.67401163638E+02  0.24753390416E+02  0.20538063872E+03  0.17300000000E+03 0. -1.
<mgrwt>
<rscale>  2 0.20388349E+03</rscale>
<asrwt>0</asrwt>
<pdfrwt beam="1">  1       21 0.12057305E+00 0.20388349E+03</pdfrwt>
<pdfrwt beam="2">  1       21 0.16285444E-01 0.20388349E+03</pdfrwt>
<totfact> 0.17488490E+04</totfact>
</mgrwt>
</event>
<event>
 4    1  0.3976152E+000  0.2917612E+03  0.7546771E-02  0.1089433E+00
         21   -1    0    0  501  502  0.00000000000E+00  0.00000000000E+00  0.30245006081E+03  0.30245006081E+03  0.00000000000E+00 0.  1.
         21   -1    0    0  502  503 -0.00000000000E+00 -0.00000000000E+00 -0.14868517691E+04  0.14868517691E+04  0.00000000000E+00 0.  1.
          6    1    1    2  501    0 -0.23351426250E+03  0.25820598131E+02  0.21333645369E+03  0.36143748637E+03  0.17300000000E+03 0.  1.
         -6    1    1    2    0  503  0.23351426250E+03 -0.25820598131E+02 -0.13977381620E+04  0.14278643436E+04  0.17300000000E+03 0.  1.
<mgrwt>
<rscale>  2 0.29176123E+03</rscale>
<asrwt>0</asrwt>
<pdfrwt beam="1">  1       21 0.46530778E-01 0.29176123E+03</pdfrwt>
<pdfrwt beam="2">  1       21 0.22874643E+00 0.29176123E+03</pdfrwt>
<totfact> 0.35423319E+02</totfact>
</mgrwt>
</event>
<event>
 4    1  0.3976152E+000  0.2182694E+03  0.7546771E-02  0.1135180E+00
         21   -1    0    0  503  502  0.00000000000E+00  0.00000000000E+00  0.47654467221E+03  0.47654467221E+03  0.00000000000E+00 0. -1.
         21   -1    0    0  501  503 -0.00000000000E+00 -0.00000000000E+00 -0.10596324973E+03  0.10596324973E+03  0.00000000000E+00 0. -1.
          6    1    1    2  501    0  0.37419587973E+02  0.12771971009E+03  0.11604059298E+03  0.24719823852E+03  0.17300000000E+03 0. -1.
         -6    1    1    2    0  502 -0.37419587973E+02 -0.12771971009E+03  0.25454082950E+03  0.33530968341E+03  0.17300000000E+03 0. -1.
<mgrwt>
<rscale>  2 0.21826944E+03</rscale>
<asrwt>0</asrwt>
<pdfrwt beam="1">  1       21 0.73314564E-01 0.21826944E+03</pdfrwt>
<pdfrwt beam="2">  1       21 0.16302039E-01 0.21826944E+03</pdfrwt>
<totfact> 0.55676791E+04</totfact>
</mgrwt>
</event>
<event>
 4    1  0.3976152E+000  0.1929166E+03  0.7546771E-02  0.1155857E+00
         21   -1    0    0  501  502  0.00000000000E+00  0.00000000000E+00  0.20276646068E+03  0.20276646068E+03  0.00000000000E+00 0.  1.
         21   -1    0    0  502  503 -0.00000000000E+00 -0.00000000000E+00 -0.29529315119E+03  0.29529315119E+03  0.00000000000E+00 0.  1.
          6    1    1    2  501    0  0.37724936865E+02  0.76580964856E+02  0.10693158207E+03  0.22057012101E+03  0.17300000000E+03 0.  1.
         -6    1    1    2    0  503 -0.37724936865E+02 -0.76580964856E+02 -0.19945827258E+03  0.27748949087E+03  0.17300000000E+03 0.  1.
<mgrwt>
<rscale>  2 0.19291660E+03</rscale>
<asrwt>0</asrwt>
<pdfrwt beam="1">  1       21 0.31194840E-01 0.19291660E+03</pdfrwt>
<pdfrwt beam="2">  1       21 0.45429715E-01 0.19291660E+03</pdfrwt>
<totfact> 0.45879501E+04</totfact>
</mgrwt>
</event>
<event>
 4    1  0.3976152E+000  0.3796490E+03  0.7546771E-02  0.1051064E+00
         21   -1    0    0  503  502  0.00000000000E+00  0.00000000000E+00  0.52149638913E+03  0.52149638913E+03  0.00000000000E+00 0. -1.
         21   -1    0    0  501  503 -0.00000000000E+00 -0.00000000000E+00 -0.30480532755E+03  0.30480532755E+03  0.00000000000E+00 0.  1.
          6    1    1    2  501    0 -0.29868058803E+03  0.15809582054E+03 -0.17813325724E+02  0.38006670034E+03  0.17300000000E+03 0.  1.
         -6    1    1    2    0  502  0.29868058803E+03 -0.15809582054E+03  0.23450438731E+03  0.44623501634E+03  0.17300000000E+03 0. -1.
<mgrwt>
<rscale>  2 0.37964902E+03</rscale>
<asrwt>0</asrwt>
<pdfrwt beam="1">  1       21 0.80230214E-01 0.37964902E+03</pdfrwt>
<pdfrwt beam="2">  1       21 0.46893127E-01 0.37964902E+03</pdfrwt>
<totfact> 0.53704523E+03</totfact>
</mgrwt>
</event>
<event>
 4    1  0.3976152E+000  0.2131957E+03  0.7546771E-02  0.1139060E+00
         21   -1    0    0  501  502  0.00000000000E+00  0.00000000000E+00  0.87123041187E+02  0.87123041187E+02  0.00000000000E+00 0.  1.
         21   -1    0    0  502  503 -0.00000000000E+00 -0.00000000000E+00 -0.66175636741E+03  0.66175636741E+03  0.00000000000E+00 0.  1.
          6    1    1    2  501    0 -0.12412543912E+03 -0.10782543992E+02 -0.11505883491E+03  0.24226209646E+03  0.17300000000E+03 0.  1.
         -6    1    1    2    0  503  0.12412543912E+03  0.10782543992E+02 -0.45957449131E+03  0.50661731213E+03  0.17300000000E+03 0.  1.
<mgrwt>
<rscale>  2 0.21319566E+03</rscale>
<asrwt>0</asrwt>
<pdfrwt beam="1">  1       21 0.13403545E-01 0.21319566E+03</pdfrwt>
<pdfrwt beam="2">  1       21 0.10180867E+00 0.21319566E+03</pdfrwt>
<totfact> 0.37424755E+04</totfact>
</mgrwt>
</event>
<event>
 4    1  0.3976152E+000  0.1956630E+03  0.7546771E-02  0.1153451E+00
         21   -1    0    0  501  502  0.00000000000E+00  0.00000000000E+00  0.32762273872E+02  0.32762273872E+02  0.00000000000E+00 0.  1.
         21   -1    0    0  502  503 -0.00000000000E+00 -0.00000000000E+00 -0.12427290806E+04  0.12427290806E+04  0.00000000000E+00 0. -1.
          6    1    1    2  501    0 -0.24816343276E+02 -0.87972451919E+02 -0.44916043966E+03  0.48992765154E+03  0.17300000000E+03 0. -1.
         -6    1    1    2    0  503  0.24816343276E+02  0.87972451919E+02 -0.76080636710E+03  0.78556370297E+03  0.17300000000E+03 0. -1.
<mgrwt>
<rscale>  2 0.19566298E+03</rscale>
<asrwt>0</asrwt>
<pdfrwt beam="1">  1       21 0.50403498E-02 0.19566298E+03</pdfrwt>
<pdfrwt beam="2">  1       21 0.19118909E+00 0.19566298E+03</pdfrwt>
<totfact> 0.40567198E+04</totfact>
</mgrwt>
</event>
<event>
 4    1  0.3976152E+000  0.1744511E+03  0.7546771E-02  0.1173284E+00
         21   -1    0    0  501  502  0.00000000000E+00  0.00000000000E+00  0.19328179722E+03  0.19328179722E+03  0.00000000000E+00 0.  1.
         21   -1    0    0  502  503 -0.00000000000E+00 -0.00000000000E+00 -0.16528558575E+03  0.16528558575E+03  0.00000000000E+00 0.  1.
          6    1    1    2  501    0 -0.60196277861E+01 -0.21631775309E+02  0.53021287900E+02  0.18233054213E+03  0.17300000000E+03 0.  1.
         -6    1    1    2    0  503  0.60196277861E+01  0.21631775309E+02 -0.25025076428E+02  0.17623684085E+03  0.17300000000E+03 0.  1.
<mgrwt>
<rscale>  2 0.17445105E+03</rscale>
<asrwt>0</asrwt>
<pdfrwt beam="1">  1       21 0.29735661E-01 0.17445105E+03</pdfrwt>
<pdfrwt beam="2">  1       21 0.25428552E-01 0.17445105E+03</pdfrwt>
<totfact> 0.15988090E+05</totfact>
</mgrwt>
</event>
<event>
 4    1  0.3976152E+000  0.2341968E+03  0.7546771E-02  0.1123720E+00
         21   -1    0    0  503  502  0.00000000000E+00  0.00000000000E+00  0.36807633207E+03  0.36807633207E+03  0.00000000000E+00 0. -1.
         21   -1    0    0  501  503 -0.00000000000E+00 -0.00000000000E+00 -0.19979167743E+03  0.19979167743E+03  0.00000000000E+00 0.  1.
          6    1    1    2  501    0 -0.15784590117E+03  0.19494837098E+01 -0.59000551185E+02  0.24151437647E+03  0.17300000000E+03 0.  1.
         -6    1    1    2    0  502  0.15784590117E+03 -0.19494837098E+01  0.22728520583E+03  0.32635363303E+03  0.17300000000E+03 0. -1.
<mgrwt>
<rscale>  2 0.23419677E+03</rscale>
<asrwt>0</asrwt>
<pdfrwt beam="1">  1       21 0.56627128E-01 0.23419677E+03</pdfrwt>
<pdfrwt beam="2">  1       21 0.30737181E-01 0.23419677E+03</pdfrwt>
<totfact> 0.29159937E+04</totfact>
</mgrwt>
</event>
<event>
 4    1  0.3976152E+000  0.2130612E+03  0.7546771E-02  0.1139165E+00
         21   -1    0    0  501  502  0.00000000000E+00  0.00000000000E+00  0.44379546253E+03  0.44379546253E+03  0.00000000000E+00 0. -1.
         21   -1    0    0  502  503 -0.00000000000E+00 -0.00000000000E+00 -0.11004602387E+03  0.11004602387E+03  0.00000000000E+00 0. -1.
          6    1    1    2  501    0  0.13193274238E+02 -0.12366085491E+03  0.24039994144E+03  0.32122764726E+03  0.17300000000E+03 0.  1.
         -6    1    1    2    0  503 -0.13193274238E+02  0.12366085491E+03  0.93349497223E+02  0.23261383913E+03  0.17300000000E+03 0.  1.
<mgrwt>
<rscale>  2 0.21306119E+03</rscale>
<asrwt>0</asrwt>
<pdfrwt beam="1">  1       21 0.68276224E-01 0.21306119E+03</pdfrwt>
<pdfrwt beam="2">  1       21 0.16930158E-01 0.21306119E+03</pdfrwt>
<totfact> 0.60949351E+04</totfact>
</mgrwt>
</event>
<event>
 4    1  0.3976152E+000  0.1943644E+03  0.7546771E-02  0.1154583E+00
         21   -1    0    0  503  502  0.00000000000E+00  0.00000000000E+00  0.98026614310E+03  0.98026614310E+03  0.00000000000E+00 0. -1.
         21   -1    0    0  501  503 -0.00000000000E+00 -0.00000000000E+00 -0.40156848629E+02  0.40156848629E+02  0.00000000000E+00 0.  1.
          6    1    1    2  501    0  0.86549274886E+02 -0.18914583085E+02  0.36761505829E+03  0.41583454585E+03  0.17300000000E+03 0.  1.
         -6    1    1    2    0  502 -0.86549274886E+02  0.18914583085E+02  0.57249423618E+03  0.60458844588E+03  0.17300000000E+03 0.  1.
<mgrwt>
<rscale>  2 0.19436445E+03</rscale>
<asrwt>0</asrwt>
<pdfrwt beam="1">  1       21 0.15081016E+00 0.19436445E+03</pdfrwt>
<pdfrwt beam="2">  1       21 0.61779774E-02 0.19436445E+03</pdfrwt>
<totfact> 0.55217596E+04</totfact>
</mgrwt>
</event>
<event>
 4    1  0.3976152E+000  0.2179877E+03  0.7546771E-02  0.1135392E+00
         21   -1    0    0  501  502  0.00000000000E+00  0.00000000000E+00  0.40554938266E+03  0.40554938266E+03  0.00000000000E+00 0.  1.
         21   -1    0    0  502  503 -0.00000000000E+00 -0.00000000000E+00 -0.13263215896E+03  0.13263215896E+03  0.00000000000E+00 0. -1.
          6    1    1    2  501    0  0.76492774586E+02 -0.10834428737E+03  0.22833318214E+03  0.31568128110E+03  0.17300000000E+03 0.  1.
         -6    1    1    2    0  503 -0.76492774586E+02  0.10834428737E+03  0.44584041559E+02  0.22250026052E+03  0.17300000000E+03 0. -1.
<mgrwt>
<rscale>  2 0.21798768E+03</rscale>
<asrwt>0</asrwt>
<pdfrwt beam="1">  1       21 0.62392212E-01 0.21798768E+03</pdfrwt>
<pdfrwt beam="2">  1       21 0.20404948E-01 0.21798768E+03</pdfrwt>
<totfact> 0.52326386E+04</totfact>
</mgrwt>
</event>
<event>
 4    1  0.3976152E+000  0.2107297E+03  0.7546771E-02  0.1140989E+00
         21   -1    0    0  501  502  0.00000000000E+00  0.00000000000E+00  0.96298729317E+03  0.96298729317E+03  0.00000000000E+00 0. -1.
         21   -1    0    0  502  503 -0.00000000000E+00 -0.00000000000E+00 -0.58511192387E+02  0.58511192387E+02  0.00000000000E+00 0. -1.
          6    1    1    2  501    0 -0.11144841041E+01  0.12031946746E+03  0.68733835745E+03  0.71891656953E+03  0.17300000000E+03 0. -1.
         -6    1    1    2    0  503  0.11144841041E+01 -0.12031946746E+03  0.21713774333E+03  0.30258191603E+03  0.17300000000E+03 0. -1.
<mgrwt>
<rscale>  2 0.21072972E+03</rscale>
<asrwt>0</asrwt>
<pdfrwt beam="1">  1       21 0.14815188E+00 0.21072972E+03</pdfrwt>
<pdfrwt beam="2">  1       21 0.90017226E-02 0.21072972E+03</pdfrwt>
<totfact> 0.29819670E+04</totfact>
</mgrwt>
</event>
<event>
 4    1  0.3976152E+000  0.3327968E+03  0.7546771E-02  0.1069906E+00
         21   -1    0    0  501  502  0.00000000000E+00  0.00000000000E+00  0.65188263695E+03  0.65188263695E+03  0.00000000000E+00 0. -1.
         21   -1    0    0  502  503 -0.00000000000E+00 -0.00000000000E+00 -0.18929601003E+03  0.18929601003E+03  0.00000000000E+00 0.  1.
          6    1    1    2  501    0 -0.28429563125E+03  0.81933077709E+00  0.36593018945E+03  0.49462974112E+03  0.17300000000E+03 0. -1.
         -6    1    1    2    0  503  0.28429563125E+03 -0.81933077709E+00  0.96656437475E+02  0.34654890587E+03  0.17300000000E+03 0.  1.
<mgrwt>
<rscale>  2 0.33279675E+03</rscale>
<asrwt>0</asrwt>
<pdfrwt beam="1">  1       21 0.10028964E+00 0.33279675E+03</pdfrwt>
<pdfrwt beam="2">  1       21 0.29122463E-01 0.33279675E+03</pdfrwt>
<totfact> 0.85133187E+03</totfact>
</mgrwt>
</event>
<event>
 4    1  0.3976152E+000  0.3092343E+03  0.7546771E-02  0.1080713E+00
         21   -1    0    0  501  502  0.00000000000E+00  0.00000000000E+00  0.47080894224E+03  0.47080894224E+03  0.00000000000E+00 0. -1.
         21   -1    0    0  502  503 -0.00000000000E+00 -0.00000000000E+00 -0.26540872887E+03  0.26540872887E+03  0.00000000000E+00 0.  1.
          6    1    1    2  501    0  0.21466893249E+03  0.14005025215E+03  0.28104454493E+03  0.41786583964E+03  0.17300000000E+03 0. -1.
         -6    1    1    2    0  503 -0.21466893249E+03 -0.14005025215E+03 -0.75644331552E+02  0.31835183147E+03  0.17300000000E+03 0. -1.
<mgrwt>
<rscale>  2 0.30923425E+03</rscale>
<asrwt>0</asrwt>
<pdfrwt beam="1">  1       21 0.72432145E-01 0.30923425E+03</pdfrwt>
<pdfrwt beam="2">  1       21 0.40832112E-01 0.30923425E+03</pdfrwt>
<totfact> 0.92976279E+03</totfact>
</mgrwt>
</event>
<event>
 4    1  0.3976152E+000  0.1813132E+03  0.7546771E-02  0.1166538E+00
         21   -1    0    0  501  502  0.00000000000E+00  0.00000000000E+00  0.73028005271E+03  0.73028005271E+03  0.00000000000E+00 0.  1.
         21   -1    0    0  502  503 -0.00000000000E+00 -0.00000000000E+00 -0.33738378472E+03  0.33738378472E+03  0.00000000000E+00 0.  1.
          6    1    1    2  501    0  0.52056570748E+02  0.15349279679E+02  0.69339160558E+03  0.71670524320E+03  0.17300000000E+03 0.  1.
         -6    1    1    2    0  503 -0.52056570748E+02 -0.15349279679E+02 -0.30049533759E+03  0.35095859422E+03  0.17300000000E+03 0.  1.
<mgrwt>
<rscale>  2 0.18131323E+03</rscale>
<asrwt>0</asrwt>
<pdfrwt beam="1">  1       21 0.11235078E+00 0.18131323E+03</pdfrwt>
<pdfrwt beam="2">  1       21 0.51905198E-01 0.18131323E+03</pdfrwt>
<totfact> 0.22095097E+03</totfact>
</mgrwt>
</event>
<event>
 4    1  0.3976152E+000  0.1778579E+03  0.7546771E-02  0.1169892E+00
         21   -1    0    0  503  502  0.00000000000E+00  0.00000000000E+00  0.60969995047E+02  0.60969995047E+02  0.00000000000E+00 0. -1.
         21   -1    0    0  501  503 -0.00000000000E+00 -0.00000000000E+00 -0.59293226115E+03  0.59293226115E+03  0.00000000000E+00 0. -1.
          6    1    1    2  501    0 -0.39139133960E+02  0.13136431597E+02 -0.38155988495E+03  0.42097670178E+03  0.17300000000E+03 0. -1.
         -6    1    1    2    0  502  0.39139133960E+02 -0.13136431597E+02 -0.15040238116E+03  0.23292555441E+03  0.17300000000E+03 0. -1.
<mgrwt>
<rscale>  2 0.17785791E+03</rscale>
<asrwt>0</asrwt>
<pdfrwt beam="1">  1       21 0.93799991E-02 0.17785791E+03</pdfrwt>
<pdfrwt beam="2">  1       21 0.91220349E-01 0.17785791E+03</pdfrwt>
<totfact> 0.93067339E+04</totfact>
</mgrwt>
</event>
<event>
 4    1  0.3976152E+000  0.1748897E+03  0.7546771E-02  0.1172843E+00
         21   -1    0    0  501  502  0.00000000000E+00  0.00000000000E+00  0.67854923460E+02  0.67854923460E+02  0.00000000000E+00 0. -1.
         21   -1    0    0  502  503 -0.00000000000E+00 -0.00000000000E+00 -0.46058752721E+03  0.46058752721E+03  0.00000000000E+00 0. -1.
          6    1    1    2  501    0  0.25462594084E+02  0.30092013780E+01 -0.15777435233E+03  0.23554011387E+03  0.17300000000E+03 0. -1.
         -6    1    1    2    0  503 -0.25462594084E+02 -0.30092013780E+01 -0.23495825142E+03  0.29290233679E+03  0.17300000000E+03 0. -1.
<mgrwt>
<rscale>  2 0.17488968E+03</rscale>
<asrwt>0</asrwt>
<pdfrwt beam="1">  1       21 0.10439219E-01 0.17488968E+03</pdfrwt>
<pdfrwt beam="2">  1       21 0.70859619E-01 0.17488968E+03</pdfrwt>
<totfact> 0.13649073E+05</totfact>
</mgrwt>
</event>
<event>
 4    1  0.3976152E+000  0.1820813E+03  0.7546771E-02  0.1165804E+00
         21   -1    0    0  503  502  0.00000000000E+00  0.00000000000E+00  0.39481165299E+03  0.39481165299E+03  0.00000000000E+00 0. -1.
         21   -1    0    0  501  503 -0.00000000000E+00 -0.00000000000E+00 -0.11867872369E+03  0.11867872369E+03  0.00000000000E+00 0. -1.
          6    1    1    2  501    0 -0.35998267926E+02 -0.43917392548E+02 -0.77364460699E+00  0.18208297885E+03  0.17300000000E+03 0. -1.
         -6    1    1    2    0  502  0.35998267926E+02  0.43917392548E+02  0.27690657391E+03  0.33140739783E+03  0.17300000000E+03 0. -1.
<mgrwt>
<rscale>  2 0.18208134E+03</rscale>
<asrwt>0</asrwt>
<pdfrwt beam="1">  1       21 0.60740254E-01 0.18208134E+03</pdfrwt>
<pdfrwt beam="2">  1       21 0.18258265E-01 0.18208134E+03</pdfrwt>
<totfact> 0.69328563E+04</totfact>
</mgrwt>
</event>
<event>
 4    1  0.3976152E+000  0.1923905E+03  0.7546771E-02  0.1156323E+00
         21   -1    0    0  503  502  0.00000000000E+00  0.00000000000E+00  0.11171847966E+04  0.11171847966E+04  0.00000000000E+00 0.  1.
         21   -1    0    0  501  503 -0.00000000000E+00 -0.00000000000E+00 -0.22545285410E+03  0.22545285410E+03  0.00000000000E+00 0.  1.
          6    1    1    2  501    0 -0.76038901675E+02  0.36099691777E+02 -0.17416675959E+03  0.25951524514E+03  0.17300000000E+03 0.  1.
         -6    1    1    2    0  502  0.76038901675E+02 -0.36099691777E+02  0.10658987021E+04  0.10831224056E+04  0.17300000000E+03 0.  1.
<mgrwt>
<rscale>  2 0.19239049E+03</rscale>
<asrwt>0</asrwt>
<pdfrwt beam="1">  1       21 0.17187458E+00 0.19239049E+03</pdfrwt>
<pdfrwt beam="2">  1       21 0.34685055E-01 0.19239049E+03</pdfrwt>
<totfact> 0.16591570E+03</totfact>
</mgrwt>
</event>
<event>
 4    1  0.3976152E+000  0.2373707E+03  0.7546771E-02  0.1121557E+00
         21   -1    0    0  503  502  0.00000000000E+00  0.00000000000E+00  0.10089685792E+04  0.10089685792E+04  0.00000000000E+00 0. -1.
         21   -1    0    0  501  503 -0.00000000000E+00 -0.00000000000E+00 -0.59359991463E+02  0.59359991463E+02  0.00000000000E+00 0. -1.
          6    1    1    2  501    0 -0.50994464877E+02  0.15432244432E+03  0.34480195398E+03  0.41860869525E+03  0.17300000000E+03 0. -1.
         -6    1    1    2    0  502  0.50994464877E+02 -0.15432244432E+03  0.60480663370E+03  0.64971987536E+03  0.17300000000E+03 0. -1.
<mgrwt>
<rscale>  2 0.23737071E+03</rscale>
<asrwt>0</asrwt>
<pdfrwt beam="1">  1       21 0.15522592E+00 0.23737071E+03</pdfrwt>
<pdfrwt beam="2">  1       21 0.91323071E-02 0.23737071E+03</pdfrwt>
<totfact> 0.25293217E+04</totfact>
</mgrwt>
</event>
<event>
 4    1  0.3976152E+000  0.1825832E+03  0.7546771E-02  0.1165326E+00
         21   -1    0    0  503  502  0.00000000000E+00  0.00000000000E+00  0.26778316727E+02  0.26778316727E+02  0.00000000000E+00 0. -1.
         21   -1    0    0  501  503 -0.00000000000E+00 -0.00000000000E+00 -0.13976188561E+04  0.13976188561E+04  0.00000000000E+00 0. -1.
          6    1    1    2  501    0  0.41476954014E+01  0.58227211178E+02 -0.92083732822E+03  0.93876407928E+03  0.17300000000E+03 0.  1.
         -6    1    1    2    0  502 -0.41476954014E+01 -0.58227211178E+02 -0.45000321111E+03  0.48563309350E+03  0.17300000000E+03 0.  1.
<mgrwt>
<rscale>  2 0.18258316E+03</rscale>
<asrwt>0</asrwt>
<pdfrwt beam="1">  1       21 0.41197396E-02 0.18258316E+03</pdfrwt>
<pdfrwt beam="2">  1       21 0.21501836E+00 0.18258316E+03</pdfrwt>
<totfact> 0.40558904E+04</totfact>
</mgrwt>
</event>
<event>
 4    1  0.3976152E+000  0.2124613E+03  0.7546771E-02  0.1139632E+00
         21   -1    0    0  503  502  0.00000000000E+00  0.00000000000E+00  0.88873755909E+02  0.88873755909E+02  0.00000000000E+00 0. -1.
         21   -1    0    0  501  503 -0.00000000000E+00 -0.00000000000E+00 -0.51227668753E+03  0.51227668753E+03  0.00000000000E+00 0.  1.
          6    1    1    2  501    0  0.10600437209E+03  0.63038840485E+02 -0.23945403944E+03  0.32012194444E+03  0.17300000000E+03 0. -1.
         -6    1    1    2    0  502 -0.10600437209E+03 -0.63038840485E+02 -0.18394889219E+03  0.28102849900E+03  0.17300000000E+03 0.  1.
<mgrwt>
<rscale>  2 0.21246134E+03</rscale>
<asrwt>0</asrwt>
<pdfrwt beam="1">  1       21 0.13672886E-01 0.21246134E+03</pdfrwt>
<pdfrwt beam="2">  1       21 0.78811798E-01 0.21246134E+03</pdfrwt>
<totfact> 0.65418964E+04</totfact>
</mgrwt>
</event>
<event>
 4    1  0.3976152E+000  0.2092606E+03  0.7546771E-02  0.1142153E+00
         21   -1    0    0  503  502  0.00000000000E+00  0.00000000000E+00  0.10397276664E+03  0.10397276664E+03  0.00000000000E+00 0.  1.
         21   -1    0    0  501  503 -0.00000000000E+00 -0.00000000000E+00 -0.11005916358E+04  0.11005916358E+04  0.00000000000E+00 0.  1.
          6    1    1    2  501    0 -0.11136572686E+03  0.38192419719E+02 -0.97152312448E+03  0.99380439093E+03  0.17300000000E+03 0.  1.
         -6    1    1    2    0  502  0.11136572686E+03 -0.38192419719E+02 -0.25095744671E+02  0.21076001149E+03  0.17300000000E+03 0.  1.
<mgrwt>
<rscale>  2 0.20926057E+03</rscale>
<asrwt>0</asrwt>
<pdfrwt beam="1">  1       21 0.15995810E-01 0.20926057E+03</pdfrwt>
<pdfrwt beam="2">  1       21 0.16932179E+00 0.20926057E+03</pdfrwt>
<totfact> 0.74255579E+03</totfact>
</mgrwt>
</event>
<event>
 4    1  0.3976152E+000  0.1988527E+03  0.7546771E-02  0.1150711E+00
         21   -1    0    0  503  502  0.00000000000E+00  0.00000000000E+00  0.29187891482E+02  0.29187891482E+02  0.00000000000E+00 0. -1.
         21   -1    0    0  501  503 -0.00000000000E+00 -0.00000000000E+00 -0.13581609847E+04  0.13581609847E+04  0.00000000000E+00 0. -1.
          6    1    1    2  501    0 -0.30346769723E+02 -0.93233488908E+02 -0.62974322155E+03  0.66039301554E+03  0.17300000000E+03 0. -1.
         -6    1    1    2    0  502  0.30346769723E+02  0.93233488908E+02 -0.69922987165E+03  0.72695586062E+03  0.17300000000E+03 0. -1.
<mgrwt>
<rscale>  2 0.19885273E+03</rscale>
<asrwt>0</asrwt>
<pdfrwt beam="1">  1       21 0.44904456E-02 0.19885273E+03</pdfrwt>
<pdfrwt beam="2">  1       21 0.20894781E+00 0.19885273E+03</pdfrwt>
<totfact> 0.37841645E+04</totfact>
</mgrwt>
</event>
<event>
 4    1  0.3976152E+000  0.1854922E+03  0.7546771E-02  0.1162591E+00
         21   -1    0    0  501  502  0.00000000000E+00  0.00000000000E+00  0.62668059125E+02  0.62668059125E+02  0.00000000000E+00 0.  1.
         21   -1    0    0  502  503 -0.00000000000E+00 -0.00000000000E+00 -0.11538241981E+04  0.11538241981E+04  0.00000000000E+00 0.  1.
          6    1    1    2  501    0 -0.45210870393E+02  0.49338926125E+02 -0.10521662853E+03  0.21325546031E+03  0.17300000000E+03 0.  1.
         -6    1    1    2    0  503  0.45210870393E+02 -0.49338926125E+02 -0.98593951048E+03  0.10032367970E+04  0.17300000000E+03 0.  1.
<mgrwt>
<rscale>  2 0.18549219E+03</rscale>
<asrwt>0</asrwt>
<pdfrwt beam="1">  1       21 0.96412395E-02 0.18549219E+03</pdfrwt>
<pdfrwt beam="2">  1       21 0.17751142E+00 0.18549219E+03</pdfrwt>
<totfact> 0.16464754E+04</totfact>
</mgrwt>
</event>
<event>
 4    1  0.3976152E+000  0.2112672E+03  0.7546771E-02  0.1140566E+00
         21   -1    0    0  503  502  0.00000000000E+00  0.00000000000E+00  0.35741114302E+03  0.35741114302E+03  0.00000000000E+00 0. -1.
         21   -1    0    0  501  503 -0.00000000000E+00 -0.00000000000E+00 -0.88477484977E+03  0.88477484977E+03  0.00000000000E+00 0. -1.
          6    1    1    2  501    0  0.62055227630E+02 -0.10418236867E+03 -0.83927650155E+03  0.86545875886E+03  0.17300000000E+03 0. -1.
         -6    1    1    2    0  502 -0.62055227630E+02  0.10418236867E+03  0.31191279481E+03  0.37672723393E+03  0.17300000000E+03 0. -1.
<mgrwt>
<rscale>  2 0.21126717E+03</rscale>
<asrwt>0</asrwt>
<pdfrwt beam="1">  1       21 0.54986330E-01 0.21126717E+03</pdfrwt>
<pdfrwt beam="2">  1       21 0.13611921E+00 0.21126717E+03</pdfrwt>
<totfact> 0.11786827E+03</totfact>
</mgrwt>
</event>
<event>
 4    1  0.3976152E+000  0.1923273E+03  0.7546771E-02  0.1156379E+00
         21   -1    0    0  503  502  0.00000000000E+00  0.00000000000E+00  0.79623521630E+03  0.79623521630E+03  0.00000000000E+00 0. -1.
         21   -1    0    0  501  503 -0.00000000000E+00 -0.00000000000E+00 -0.53109991444E+02  0.53109991444E+02  0.00000000000E+00 0. -1.
          6    1    1    2  501    0  0.26591442855E+02 -0.79710103257E+02  0.22124451949E+03  0.29315344582E+03  0.17300000000E+03 0. -1.
         -6    1    1    2    0  502 -0.26591442855E+02  0.79710103257E+02  0.52188070536E+03  0.55619176191E+03  0.17300000000E+03 0. -1.
<mgrwt>
<rscale>  2 0.19232734E+03</rscale>
<asrwt>0</asrwt>
<pdfrwt beam="1">  1       21 0.12249772E+00 0.19232734E+03</pdfrwt>
<pdfrwt beam="2">  1       21 0.81707685E-02 0.19232734E+03</pdfrwt>
<totfact> 0.58046198E+04</totfact>
</mgrwt>
</event>
<event>
 4    1  0.3976152E+000  0.1754213E+03  0.7546771E-02  0.1172309E+00
         21   -1    0    0  503  502  0.00000000000E+00  0.00000000000E+00  0.51797945619E+02  0.51797945619E+02  0.00000000000E+00 0.  1.
         21   -1    0    0  501  503 -0.00000000000E+00 -0.00000000000E+00 -0.59440598408E+03  0.59440598408E+03  0.00000000000E+00 0.  1.
          6    1    1    2  501    0  0.16781052793E+02  0.23707295296E+02 -0.26385402018E+03  0.31684630904E+03  0.17300000000E+03 0.  1.
         -6    1    1    2    0  502 -0.16781052793E+02 -0.23707295296E+02 -0.27875401828E+03  0.32935762066E+03  0.17300000000E+03 0.  1.
<mgrwt>
<rscale>  2 0.17542132E+03</rscale>
<asrwt>0</asrwt>
<pdfrwt beam="1">  1       21 0.79689152E-02 0.17542132E+03</pdfrwt>
<pdfrwt beam="2">  1       21 0.91447069E-01 0.17542132E+03</pdfrwt>
<totfact> 0.12312562E+05</totfact>
</mgrwt>
</event>
<event>
 4    1  0.3976152E+000  0.1795328E+03  0.7546771E-02  0.1168256E+00
         21   -1    0    0  503  502  0.00000000000E+00  0.00000000000E+00  0.24361795648E+03  0.24361795648E+03  0.00000000000E+00 0. -1.
         21   -1    0    0  501  503 -0.00000000000E+00 -0.00000000000E+00 -0.21016698355E+03  0.21016698355E+03  0.00000000000E+00 0. -1.
          6    1    1    2  501    0 -0.30477481982E+02 -0.37069496996E+02 -0.12137615576E+03  0.21671224170E+03  0.17300000000E+03 0. -1.
         -6    1    1    2    0  502  0.30477481982E+02  0.37069496996E+02  0.15482712869E+03  0.23707269833E+03  0.17300000000E+03 0. -1.
<mgrwt>
<rscale>  2 0.17953280E+03</rscale>
<asrwt>0</asrwt>
<pdfrwt beam="1">  1       21 0.37479686E-01 0.17953280E+03</pdfrwt>
<pdfrwt beam="2">  1       21 0.32333382E-01 0.17953280E+03</pdfrwt>
<totfact> 0.63547988E+04</totfact>
</mgrwt>
</event>
<event>
 4    1  0.3976152E+000  0.2427644E+03  0.7546771E-02  0.1117965E+00
         21   -1    0    0  501  502  0.00000000000E+00  0.00000000000E+00  0.65585861684E+02  0.65585861684E+02  0.00000000000E+00 0. -1.
         21   -1    0    0  502  503 -0.00000000000E+00 -0.00000000000E+00 -0.91665591651E+03  0.91665591651E+03  0.00000000000E+00 0. -1.
          6    1    1    2  501    0  0.16393762785E+03 -0.46151796212E+02 -0.35658033048E+03  0.43137462397E+03  0.17300000000E+03 0. -1.
         -6    1    1    2    0  503 -0.16393762785E+03  0.46151796212E+02 -0.49448972435E+03  0.55086715423E+03  0.17300000000E+03 0. -1.
<mgrwt>
<rscale>  2 0.24276436E+03</rscale>
<asrwt>0</asrwt>
<pdfrwt beam="1">  1       21 0.10090134E-01 0.24276436E+03</pdfrwt>
<pdfrwt beam="2">  1       21 0.14102397E+00 0.24276436E+03</pdfrwt>
<totfact> 0.27245125E+04</totfact>
</mgrwt>
</event>
<event>
 4    1  0.3976152E+000  0.1965310E+03  0.7546771E-02  0.1152699E+00
         21   -1    0    0  503  502  0.00000000000E+00  0.00000000000E+00  0.10558919379E+03  0.10558919379E+03  0.00000000000E+00 0. -1.
         21   -1    0    0  501  503 -0.00000000000E+00 -0.00000000000E+00 -0.39964369742E+03  0.39964369742E+03  0.00000000000E+00 0.  1.
          6    1    1    2  501    0  0.61036807607E+02  0.70497910911E+02 -0.22054105386E+03  0.29540278225E+03  0.17300000000E+03 0.  1.
         -6    1    1    2    0  502 -0.61036807607E+02 -0.70497910911E+02 -0.73513449769E+02  0.20983010895E+03  0.17300000000E+03 0. -1.
<mgrwt>
<rscale>  2 0.19653103E+03</rscale>
<asrwt>0</asrwt>
<pdfrwt beam="1">  1       21 0.16244491E-01 0.19653103E+03</pdfrwt>
<pdfrwt beam="2">  1       21 0.61483647E-01 0.19653103E+03</pdfrwt>
<totfact> 0.83239129E+04</totfact>
</mgrwt>
</event>
<event>
 4    1  0.3976152E+000  0.2326109E+03  0.7546771E-02  0.1124815E+00
         21   -1    0    0  503  502  0.00000000000E+00  0.00000000000E+00  0.62787881832E+02  0.62787881832E+02  0.00000000000E+00 0. -1.
         21   -1    0    0  501  503 -0.00000000000E+00 -0.00000000000E+00 -0.95627054108E+03  0.95627054108E+03  0.00000000000E+00 0. -1.
          6    1    1    2  501    0  0.14330979482E+03  0.60341921476E+02 -0.60692845781E+03  0.64997692088E+03  0.17300000000E+03 0. -1.
         -6    1    1    2    0  502 -0.14330979482E+03 -0.60341921476E+02 -0.28655420144E+03  0.36908150203E+03  0.17300000000E+03 0. -1.
<mgrwt>
<rscale>  2 0.23261093E+03</rscale>
<asrwt>0</asrwt>
<pdfrwt beam="1">  1       21 0.96596747E-02 0.23261093E+03</pdfrwt>
<pdfrwt beam="2">  1       21 0.14711854E+00 0.23261093E+03</pdfrwt>
<totfact> 0.26483534E+04</totfact>
</mgrwt>
</event>
<event>
 4    1  0.3976152E+000  0.1925484E+03  0.7546771E-02  0.1156183E+00
         21   -1    0    0  501  502  0.00000000000E+00  0.00000000000E+00  0.86429216744E+02  0.86429216744E+02  0.00000000000E+00 0. -1.
         21   -1    0    0  502  503 -0.00000000000E+00 -0.00000000000E+00 -0.43610771991E+03  0.43610771991E+03  0.00000000000E+00 0. -1.
          6    1    1    2  501    0 -0.79649727463E+02 -0.28316378404E+02 -0.20828159383E+03  0.28364787801E+03  0.17300000000E+03 0.  1.
         -6    1    1    2    0  503  0.79649727463E+02  0.28316378404E+02 -0.14139690934E+03  0.23888905865E+03  0.17300000000E+03 0.  1.
<mgrwt>
<rscale>  2 0.19254843E+03</rscale>
<asrwt>0</asrwt>
<pdfrwt beam="1">  1       21 0.13296803E-01 0.19254843E+03</pdfrwt>
<pdfrwt beam="2">  1       21 0.67093495E-01 0.19254843E+03</pdfrwt>
<totfact> 0.99268908E+04</totfact>
</mgrwt>
</event>
<event>
 4    1  0.3976152E+000  0.1931542E+03  0.7546771E-02  0.1155647E+00
         21   -1    0    0  503  502  0.00000000000E+00  0.00000000000E+00  0.21807350343E+03  0.21807350343E+03  0.00000000000E+00 0. -1.
         21   -1    0    0  501  503 -0.00000000000E+00 -0.00000000000E+00 -0.23886115804E+03  0.23886115804E+03  0.00000000000E+00 0.  1.
          6    1    1    2  501    0  0.56547277561E+02  0.64667865758E+02 -0.13209599232E+03  0.23400401417E+03  0.17300000000E+03 0.  1.
         -6    1    1    2    0  502 -0.56547277561E+02 -0.64667865758E+02  0.11130833771E+03  0.22293064730E+03  0.17300000000E+03 0. -1.
<mgrwt>
<rscale>  2 0.19315415E+03</rscale>
<asrwt>0</asrwt>
<pdfrwt beam="1">  1       21 0.33549770E-01 0.19315415E+03</pdfrwt>
<pdfrwt beam="2">  1       21 0.36747870E-01 0.19315415E+03</pdfrwt>
<totfact> 0.61103501E+04</totfact>
</mgrwt>
</event>
<event>
 4    1  0.3976152E+000  0.3263868E+03  0.7546771E-02  0.1072747E+00
         21   -1    0    0  501  502  0.00000000000E+00  0.00000000000E+00  0.91902117038E+03  0.91902117038E+03  0.00000000000E+00 0.  1.
         21   -1    0    0  502  503 -0.00000000000E+00 -0.00000000000E+00 -0.11868271472E+03  0.11868271472E+03  0.00000000000E+00 0. -1.
          6    1    1    2  501    0  0.13058704349E+03  0.24402125937E+03  0.47940282074E+03  0.57996156380E+03  0.17300000000E+03 0.  1.
         -6    1    1    2    0  503 -0.13058704349E+03 -0.24402125937E+03  0.32093563492E+03  0.45774232130E+03  0.17300000000E+03 0.  1.
<mgrwt>
<rscale>  2 0.32638681E+03</rscale>
<asrwt>0</asrwt>
<pdfrwt beam="1">  1       21 0.14138787E+00 0.32638681E+03</pdfrwt>
<pdfrwt beam="2">  1       21 0.18258880E-01 0.32638681E+03</pdfrwt>
<totfact> 0.88132468E+03</totfact>
</mgrwt>
</event>
<event>
 4    1  0.3976152E+000  0.1942056E+03  0.7546771E-02  0.1154722E+00
         21   -1    0    0  501  502  0.00000000000E+00  0.00000000000E+00  0.14023604997E+03  0.14023604997E+03  0.00000000000E+00 0.  1.
         21   -1    0    0  502  503 -0.00000000000E+00 -0.00000000000E+00 -0.27064452947E+03  0.27064452947E+03  0.00000000000E+00 0.  1.
          6    1    1    2  501    0 -0.78260553052E+02  0.40768830411E+02 -0.48925322165E+02  0.20027356003E+03  0.17300000000E+03 0.  1.
         -6    1    1    2    0  503  0.78260553052E+02 -0.40768830411E+02 -0.81483157328E+02  0.21060701941E+03  0.17300000000E+03 0.  1.
<mgrwt>
<rscale>  2 0.19420559E+03</rscale>
<asrwt>0</asrwt>
<pdfrwt beam="1">  1       21 0.21574777E-01 0.19420559E+03</pdfrwt>
<pdfrwt beam="2">  1       21 0.41637620E-01 0.19420559E+03</pdfrwt>
<totfact> 0.11114679E+05</totfact>
</mgrwt>
</event>
<event>
 4    1  0.3976152E+000  0.1782095E+03  0.7546771E-02  0.1169547E+00
         21   -1    0    0  501  502  0.00000000000E+00  0.00000000000E+00  0.66356695588E+02  0.66356695588E+02  0.00000000000E+00 0. -1.
         21   -1    0    0  502  503 -0.00000000000E+00 -0.00000000000E+00 -0.52187948137E+03  0.52187948137E+03  0.00000000000E+00 0. -1.
          6    1    1    2  501    0  0.42530261227E+02 -0.45618713300E+01 -0.14306722510E+03  0.22853197739E+03  0.17300000000E+03 0. -1.
         -6    1    1    2    0  503 -0.42530261227E+02  0.45618713300E+01 -0.31245556068E+03  0.35970419957E+03  0.17300000000E+03 0. -1.
<mgrwt>
<rscale>  2 0.17820952E+03</rscale>
<asrwt>0</asrwt>
<pdfrwt beam="1">  1       21 0.10208722E-01 0.17820952E+03</pdfrwt>
<pdfrwt beam="2">  1       21 0.80289150E-01 0.17820952E+03</pdfrwt>
<totfact> 0.10732454E+05</totfact>
</mgrwt>
</event>
<event>
 4    1  0.3976152E+000  0.2083189E+03  0.7546771E-02  0.1142904E+00
         21   -1    0    0  501  502  0.00000000000E+00  0.00000000000E+00  0.43334127788E+03  0.43334127788E+03  0.00000000000E+00 0. -1.
         21   -1    0    0  502  503 -0.00000000000E+00 -0.00000000000E+00 -0.10505919639E+03  0.10505919639E+03  0.00000000000E+00 0. -1.
          6    1    1    2  501    0 -0.67408960371E+02 -0.94465757394E+02  0.22236564953E+03  0.30470186962E+03  0.17300000000E+03 0. -1.
         -6    1    1    2    0  503  0.67408960371E+02  0.94465757394E+02  0.10591643196E+03  0.23369860466E+03  0.17300000000E+03 0. -1.
<mgrwt>
<rscale>  2 0.20831886E+03</rscale>
<asrwt>0</asrwt>
<pdfrwt beam="1">  1       21 0.66667888E-01 0.20831886E+03</pdfrwt>
<pdfrwt beam="2">  1       21 0.16162953E-01 0.20831886E+03</pdfrwt>
<totfact> 0.70090570E+04</totfact>
</mgrwt>
</event>
<event>
 4    1  0.3976152E+000  0.2499738E+03  0.7546771E-02  0.1113321E+00
         21   -1    0    0  503  502  0.00000000000E+00  0.00000000000E+00  0.20579919368E+03  0.20579919368E+03  0.00000000000E+00 0. -1.
         21   -1    0    0  501  503 -0.00000000000E+00 -0.00000000000E+00 -0.37963329463E+03  0.37963329463E+03  0.00000000000E+00 0. -1.
          6    1    1    2  501    0 -0.17946373298E+03  0.18726452871E+02 -0.21788935404E+03  0.33160621541E+03  0.17300000000E+03 0. -1.
         -6    1    1    2    0  502  0.17946373298E+03 -0.18726452871E+02  0.44055253083E+02  0.25382627291E+03  0.17300000000E+03 0. -1.
<mgrwt>
<rscale>  2 0.24997382E+03</rscale>
<asrwt>0</asrwt>
<pdfrwt beam="1">  1       21 0.31661415E-01 0.24997382E+03</pdfrwt>
<pdfrwt beam="2">  1       21 0.58405122E-01 0.24997382E+03</pdfrwt>
<totfact> 0.25555226E+04</totfact>
</mgrwt>
</event>
<event>
 4    1  0.3976152E+000  0.1824885E+03  0.7546771E-02  0.1165416E+00
         21   -1    0    0  501  502  0.00000000000E+00  0.00000000000E+00  0.44341624814E+02  0.44341624814E+02  0.00000000000E+00 0. -1.
         21   -1    0    0  502  503 -0.00000000000E+00 -0.00000000000E+00 -0.11166495823E+04  0.11166495823E+04  0.00000000000E+00 0.  1.
          6    1    1    2  501    0 -0.31732849781E+02  0.48642492903E+02 -0.20398975374E+03  0.27370401075E+03  0.17300000000E+03 0. -1.
         -6    1    1    2    0  503  0.31732849781E+02 -0.48642492903E+02 -0.86831820374E+03  0.88728719636E+03  0.17300000000E+03 0.  1.
<mgrwt>
<rscale>  2 0.18248854E+03</rscale>
<asrwt>0</asrwt>
<pdfrwt beam="1">  1       21 0.68217886E-02 0.18248854E+03</pdfrwt>
<pdfrwt beam="2">  1       21 0.17179224E+00 0.18248854E+03</pdfrwt>
<totfact> 0.33001710E+04</totfact>
</mgrwt>
</event>
<event>
 4    1  0.3976152E+000  0.2226305E+03  0.7546771E-02  0.1131937E+00
         21   -1    0    0  503  502  0.00000000000E+00  0.00000000000E+00  0.14398024795E+03  0.14398024795E+03  0.00000000000E+00 0.  1.
         21   -1    0    0  501  503 -0.00000000000E+00 -0.00000000000E+00 -0.40483019718E+03  0.40483019718E+03  0.00000000000E+00 0. -1.
          6    1    1    2  501    0  0.13656302600E+03  0.31398387160E+02 -0.23658064813E+03  0.32486108085E+03  0.17300000000E+03 0. -1.
         -6    1    1    2    0  502 -0.13656302600E+03 -0.31398387160E+02 -0.24269301100E+02  0.22394936428E+03  0.17300000000E+03 0.  1.
<mgrwt>
<rscale>  2 0.22263045E+03</rscale>
<asrwt>0</asrwt>
<pdfrwt beam="1">  1       21 0.22150808E-01 0.22263045E+03</pdfrwt>
<pdfrwt beam="2">  1       21 0.62281568E-01 0.22263045E+03</pdfrwt>
<totfact> 0.44903144E+04</totfact>
</mgrwt>
</event>
<event>
 4    1  0.3976152E+000  0.2386646E+03  0.7546771E-02  0.1120686E+00
         21   -1    0    0  501  502  0.00000000000E+00  0.00000000000E+00  0.41099092264E+03  0.41099092264E+03  0.00000000000E+00 0.  1.
         21   -1    0    0  502  503 -0.00000000000E+00 -0.00000000000E+00 -0.14429370546E+03  0.14429370546E+03  0.00000000000E+00 0. -1.
          6    1    1    2  501    0 -0.15421350175E+03  0.57008664949E+02  0.18853041953E+03  0.30414554261E+03  0.17300000000E+03 0. -1.
         -6    1    1    2    0  503  0.15421350175E+03 -0.57008664949E+02  0.78166797658E+02  0.25113908549E+03  0.17300000000E+03 0. -1.
<mgrwt>
<rscale>  2 0.23866460E+03</rscale>
<asrwt>0</asrwt>
<pdfrwt beam="1">  1       21 0.63229372E-01 0.23866460E+03</pdfrwt>
<pdfrwt beam="2">  1       21 0.22199032E-01 0.23866460E+03</pdfrwt>
<totfact> 0.42967107E+04</totfact>
</mgrwt>
</event>
<event>
 4    1  0.3976152E+000  0.2466365E+03  0.7546771E-02  0.1115449E+00
         21   -1    0    0  503  502  0.00000000000E+00  0.00000000000E+00  0.24248713845E+03  0.24248713845E+03  0.00000000000E+00 0. -1.
         21   -1    0    0  501  503 -0.00000000000E+00 -0.00000000000E+00 -0.36468127004E+03  0.36468127004E+03  0.00000000000E+00 0. -1.
          6    1    1    2  501    0 -0.15159563225E+03 -0.88990468547E+02 -0.23070271992E+03  0.33771775818E+03  0.17300000000E+03 0. -1.
         -6    1    1    2    0  502  0.15159563225E+03  0.88990468547E+02  0.10850858833E+03  0.26945065031E+03  0.17300000000E+03 0. -1.
<mgrwt>
<rscale>  2 0.24663645E+03</rscale>
<asrwt>0</asrwt>
<pdfrwt beam="1">  1       21 0.37305714E-01 0.24663645E+03</pdfrwt>
<pdfrwt beam="2">  1       21 0.56104810E-01 0.24663645E+03</pdfrwt>
<totfact> 0.20118567E+04</totfact>
</mgrwt>
</event>
<event>
 4    1  0.3976152E+000  0.2500857E+03  0.7546771E-02  0.1113251E+00
         21   -1    0    0  501  502  0.00000000000E+00  0.00000000000E+00  0.15442553545E+04  0.15442553545E+04  0.00000000000E+00 0. -1.
         21   -1    0    0  502  503 -0.00000000000E+00 -0.00000000000E+00 -0.40826779342E+02  0.40826779342E+02  0.00000000000E+00 0. -1.
          6    1    1    2  501    0  0.87709786913E+02 -0.15786332309E+03  0.82258454154E+03  0.85976052683E+03  0.17300000000E+03 0. -1.
         -6    1    1    2    0  503 -0.87709786913E+02  0.15786332309E+03  0.68084403362E+03  0.72532160702E+03  0.17300000000E+03 0. -1.
<mgrwt>
<rscale>  2 0.25008566E+03</rscale>
<asrwt>0</asrwt>
<pdfrwt beam="1">  1       21 0.23757770E+00 0.25008566E+03</pdfrwt>
<pdfrwt beam="2">  1       21 0.62810442E-02 0.25008566E+03</pdfrwt>
<totfact> 0.13717831E+04</totfact>
</mgrwt>
</event>
<event>
 4    1  0.3976152E+000  0.1860513E+03  0.7546771E-02  0.1162072E+00
         21   -1    0    0  501  502  0.00000000000E+00  0.00000000000E+00  0.53319302639E+03  0.53319302639E+03  0.00000000000E+00 0.  1.
         21   -1    0    0  502  503 -0.00000000000E+00 -0.00000000000E+00 -0.10236367992E+03  0.10236367992E+03  0.00000000000E+00 0. -1.
          6    1    1    2  501    0 -0.60506626491E+02  0.32016070951E+02  0.40760811639E+03  0.44806188992E+03  0.17300000000E+03 0.  1.
         -6    1    1    2    0  503  0.60506626491E+02 -0.32016070951E+02  0.23221230084E+02  0.18749481640E+03  0.17300000000E+03 0. -1.
<mgrwt>
<rscale>  2 0.18605128E+03</rscale>
<asrwt>0</asrwt>
<pdfrwt beam="1">  1       21 0.82029695E-01 0.18605128E+03</pdfrwt>
<pdfrwt beam="2">  1       21 0.15748259E-01 0.18605128E+03</pdfrwt>
<totfact> 0.46794694E+04</totfact>
</mgrwt>
</event>
<event>
 4    1  0.3976152E+000  0.2442532E+03  0.7546771E-02  0.1116991E+00
         21   -1    0    0  501  502  0.00000000000E+00  0.00000000000E+00  0.23788201605E+04  0.23788201605E+04  0.00000000000E+00 0.  1.
         21   -1    0    0  502  503 -0.00000000000E+00 -0.00000000000E+00 -0.28672285895E+02  0.28672285895E+02  0.00000000000E+00 0. -1.
          6    1    1    2  501    0  0.17097487638E+03  0.22320516807E+02  0.16011818600E+04  0.16197045912E+04  0.17300000000E+03 0. -1.
         -6    1    1    2    0  503 -0.17097487638E+03 -0.22320516807E+02  0.74896601455E+03  0.78778785518E+03  0.17300000000E+03 0.  1.
<mgrwt>
<rscale>  2 0.24425318E+03</rscale>
<asrwt>0</asrwt>
<pdfrwt beam="1">  1       21 0.36597218E+00 0.24425318E+03</pdfrwt>
<pdfrwt beam="2">  1       21 0.44111228E-02 0.24425318E+03</pdfrwt>
<totfact> 0.43972499E+03</totfact>
</mgrwt>
</event>
<event>
 4    1  0.3976152E+000  0.2097030E+03  0.7546771E-02  0.1141801E+00
         21   -1    0    0  501  502  0.00000000000E+00  0.00000000000E+00  0.83787956786E+02  0.83787956786E+02  0.00000000000E+00 0.  1.
         21   -1    0    0  502  503 -0.00000000000E+00 -0.00000000000E+00 -0.98124913759E+03  0.98124913759E+03  0.00000000000E+00 0.  1.
          6    1    1    2  501    0  0.82058711272E+02  0.85514312368E+02 -0.85550587502E+02  0.22648230116E+03  0.17300000000E+03 0.  1.
         -6    1    1    2    0  503 -0.82058711272E+02 -0.85514312368E+02 -0.81191059330E+03  0.83855479322E+03  0.17300000000E+03 0.  1.
<mgrwt>
<rscale>  2 0.20970296E+03</rscale>
<asrwt>0</asrwt>
<pdfrwt beam="1">  1       21 0.12890455E-01 0.20970296E+03</pdfrwt>
<pdfrwt beam="2">  1       21 0.15096141E+00 0.20970296E+03</pdfrwt>
<totfact> 0.14989050E+04</totfact>
</mgrwt>
</event>
<event>
 4    1  0.3976152E+000  0.1950153E+03  0.7546771E-02  0.1154014E+00
         21   -1    0    0  503  502  0.00000000000E+00  0.00000000000E+00  0.88603607541E+02  0.88603607541E+02  0.00000000000E+00 0. -1.
         21   -1    0    0  501  503 -0.00000000000E+00 -0.00000000000E+00 -0.48570933823E+03  0.48570933823E+03  0.00000000000E+00 0.  1.
          6    1    1    2  501    0  0.60394132423E+02 -0.66742033561E+02 -0.29647739776E+03  0.35486588686E+03  0.17300000000E+03 0. -1.
         -6    1    1    2    0  502 -0.60394132423E+02  0.66742033561E+02 -0.10062833293E+03  0.21944705891E+03  0.17300000000E+03 0. -1.
<mgrwt>
<rscale>  2 0.19501526E+03</rscale>
<asrwt>0</asrwt>
<pdfrwt beam="1">  1       21 0.13631324E-01 0.19501526E+03</pdfrwt>
<pdfrwt beam="2">  1       21 0.74724513E-01 0.19501526E+03</pdfrwt>
<totfact> 0.74727080E+04</totfact>
</mgrwt>
</event>
<event>
 4    1  0.3976152E+000  0.2516281E+03  0.7546771E-02  0.1112280E+00
         21   -1    0    0  501  502  0.00000000000E+00  0.00000000000E+00  0.14935191909E+03  0.14935191909E+03  0.00000000000E+00 0.  1.
         21   -1    0    0  502  503 -0.00000000000E+00 -0.00000000000E+00 -0.44442633415E+03  0.44442633415E+03  0.00000000000E+00 0. -1.
          6    1    1    2  501    0 -0.27648935055E+02  0.18061903696E+03 -0.83799746268E+02  0.26521519111E+03  0.17300000000E+03 0.  1.
         -6    1    1    2    0  503  0.27648935055E+02 -0.18061903696E+03 -0.21127466879E+03  0.32856306213E+03  0.17300000000E+03 0. -1.
<mgrwt>
<rscale>  2 0.25162810E+03</rscale>
<asrwt>0</asrwt>
<pdfrwt beam="1">  1       21 0.22977218E-01 0.25162810E+03</pdfrwt>
<pdfrwt beam="2">  1       21 0.68373282E-01 0.25162810E+03</pdfrwt>
<totfact> 0.33708114E+04</totfact>
</mgrwt>
</event>
<event>
 4    1  0.3976152E+000  0.3067350E+03  0.7546771E-02  0.1081921E+00
         21   -1    0    0  503  502  0.00000000000E+00  0.00000000000E+00  0.25123953321E+03  0.25123953321E+03  0.00000000000E+00 0.  1.
         21   -1    0    0  501  503 -0.00000000000E+00 -0.00000000000E+00 -0.68015511191E+03  0.68015511191E+03  0.00000000000E+00 0.  1.
          6    1    1    2  501    0  0.17097603181E+03  0.18688112294E+03 -0.52665113482E+03  0.60946515518E+03  0.17300000000E+03 0.  1.
         -6    1    1    2    0  502 -0.17097603181E+03 -0.18688112294E+03  0.97735556124E+02  0.32192948994E+03  0.17300000000E+03 0.  1.
<mgrwt>
<rscale>  2 0.30673500E+03</rscale>
<asrwt>0</asrwt>
<pdfrwt beam="1">  1       21 0.38652237E-01 0.30673500E+03</pdfrwt>
<pdfrwt beam="2">  1       21 0.10463925E+00 0.30673500E+03</pdfrwt>
<totfact> 0.44151040E+03</totfact>
</mgrwt>
</event>
<event>
 4    1  0.3976152E+000  0.2413234E+03  0.7546771E-02  0.1118914E+00
         21   -1    0    0  503  502  0.00000000000E+00  0.00000000000E+00  0.20649390619E+03  0.20649390619E+03  0.00000000000E+00 0. -1.
         21   -1    0    0  501  503 -0.00000000000E+00 -0.00000000000E+00 -0.30517583528E+03  0.30517583528E+03  0.00000000000E+00 0.  1.
          6    1    1    2  501    0 -0.14216474777E+03 -0.89984321399E+02 -0.11980102793E+03  0.26942397796E+03  0.17300000000E+03 0.  1.
         -6    1    1    2    0  502  0.14216474777E+03  0.89984321399E+02  0.21119098833E+02  0.24224576352E+03  0.17300000000E+03 0. -1.
<mgrwt>
<rscale>  2 0.24132342E+03</rscale>
<asrwt>0</asrwt>
<pdfrwt beam="1">  1       21 0.31768293E-01 0.24132342E+03</pdfrwt>
<pdfrwt beam="2">  1       21 0.46950128E-01 0.24132342E+03</pdfrwt>
<totfact> 0.40420394E+04</totfact>
</mgrwt>
</event>
<event>
 4    1  0.3976152E+000  0.2535138E+03  0.7546771E-02  0.1111104E+00
         21   -1    0    0  501  502  0.00000000000E+00  0.00000000000E+00  0.25897780947E+03  0.25897780947E+03  0.00000000000E+00 0. -1.
         21   -1    0    0  502  503 -0.00000000000E+00 -0.00000000000E+00 -0.81877777914E+03  0.81877777914E+03  0.00000000000E+00 0.  1.
          6    1    1    2  501    0 -0.18352095634E+03 -0.25696127933E+02  0.16996066311E+03  0.30521444823E+03  0.17300000000E+03 0. -1.
         -6    1    1    2    0  503  0.18352095634E+03  0.25696127933E+02 -0.72976063278E+03  0.77254114037E+03  0.17300000000E+03 0.  1.
<mgrwt>
<rscale>  2 0.25351377E+03</rscale>
<asrwt>0</asrwt>
<pdfrwt beam="1">  1       21 0.39842740E-01 0.25351377E+03</pdfrwt>
<pdfrwt beam="2">  1       21 0.12596581E+00 0.25351377E+03</pdfrwt>
<totfact> 0.27072236E+03</totfact>
</mgrwt>
</event>
<event>
 4    1  0.3976152E+000  0.1994688E+03  0.7546771E-02  0.1150188E+00
         21   -1    0    0  501  502  0.00000000000E+00  0.00000000000E+00  0.13271001645E+03  0.13271001645E+03  0.00000000000E+00 0. -1.
         21   -1    0    0  502  503 -0.00000000000E+00 -0.00000000000E+00 -0.33571815083E+03  0.33571815083E+03  0.00000000000E+00 0.  1.
          6    1    1    2  501    0  0.84005821322E+02 -0.52932212250E+02 -0.24905297697E+02  0.20101758869E+03  0.17300000000E+03 0. -1.
         -6    1    1    2    0  503 -0.84005821322E+02  0.52932212250E+02 -0.17810283668E+03  0.26741057859E+03  0.17300000000E+03 0.  1.
<mgrwt>
<rscale>  2 0.19946879E+03</rscale>
<asrwt>0</asrwt>
<pdfrwt beam="1">  1       21 0.20416926E-01 0.19946879E+03</pdfrwt>
<pdfrwt beam="2">  1       21 0.51648946E-01 0.19946879E+03</pdfrwt>
<totfact> 0.78845305E+04</totfact>
</mgrwt>
</event>
<event>
 4    1  0.3976152E+000  0.1837531E+03  0.7546771E-02  0.1164219E+00
         21   -1    0    0  503  502  0.00000000000E+00  0.00000000000E+00  0.14499232850E+04  0.14499232850E+04  0.00000000000E+00 0.  1.
         21   -1    0    0  501  503 -0.00000000000E+00 -0.00000000000E+00 -0.30666643644E+02  0.30666643644E+02  0.00000000000E+00 0.  1.
          6    1    1    2  501    0  0.49948484788E+02  0.36624370775E+02  0.34648966700E+03  0.39219929246E+03  0.17300000000E+03 0.  1.
         -6    1    1    2    0  502 -0.49948484788E+02 -0.36624370775E+02  0.10727669744E+04  0.10883906362E+04  0.17300000000E+03 0.  1.
<mgrwt>
<rscale>  2 0.18375308E+03</rscale>
<asrwt>0</asrwt>
<pdfrwt beam="1">  1       21 0.22306507E+00 0.18375308E+03</pdfrwt>
<pdfrwt beam="2">  1       21 0.47179463E-02 0.18375308E+03</pdfrwt>
<totfact> 0.28791170E+04</totfact>
</mgrwt>
</event>
<event>
 4    1  0.3976152E+000  0.1867303E+03  0.7546771E-02  0.1161444E+00
         21   -1    0    0  501  502  0.00000000000E+00  0.00000000000E+00  0.39055020699E+03  0.39055020699E+03  0.00000000000E+00 0. -1.
         21   -1    0    0  502  503 -0.00000000000E+00 -0.00000000000E+00 -0.11546623568E+03  0.11546623568E+03  0.00000000000E+00 0.  1.
          6    1    1    2  501    0  0.10945741452E+02 -0.69421970366E+02  0.25803055792E+03  0.31850900779E+03  0.17300000000E+03 0. -1.
         -6    1    1    2    0  503 -0.10945741452E+02  0.69421970366E+02  0.17053413400E+02  0.18750743488E+03  0.17300000000E+03 0.  1.
<mgrwt>
<rscale>  2 0.18673034E+03</rscale>
<asrwt>0</asrwt>
<pdfrwt beam="1">  1       21 0.60084647E-01 0.18673034E+03</pdfrwt>
<pdfrwt beam="2">  1       21 0.17764036E-01 0.18673034E+03</pdfrwt>
<totfact> 0.74505076E+04</totfact>
</mgrwt>
</event>
<event>
 4    1  0.3976152E+000  0.1817580E+03  0.7546771E-02  0.1166112E+00
         21   -1    0    0  503  502  0.00000000000E+00  0.00000000000E+00  0.57450455545E+03  0.57450455545E+03  0.00000000000E+00 0. -1.
         21   -1    0    0  501  503 -0.00000000000E+00 -0.00000000000E+00 -0.12772088156E+03  0.12772088156E+03  0.00000000000E+00 0. -1.
          6    1    1    2  501    0  0.55637139246E+02 -0.33900445613E+01 -0.36946504039E+02  0.18547514072E+03  0.17300000000E+03 0. -1.
         -6    1    1    2    0  502 -0.55637139246E+02  0.33900445613E+01  0.48373017794E+03  0.51675029629E+03  0.17300000000E+03 0. -1.
<mgrwt>
<rscale>  2 0.18175804E+03</rscale>
<asrwt>0</asrwt>
<pdfrwt beam="1">  1       21 0.88385315E-01 0.18175804E+03</pdfrwt>
<pdfrwt beam="2">  1       21 0.19649367E-01 0.18175804E+03</pdfrwt>
<totfact> 0.26298571E+04</totfact>
</mgrwt>
</event>
<event>
 4    1  0.3976152E+000  0.1748433E+03  0.7546771E-02  0.1172889E+00
         21   -1    0    0  501  502  0.00000000000E+00  0.00000000000E+00  0.19921837387E+03  0.19921837387E+03  0.00000000000E+00 0.  1.
         21   -1    0    0  502  503 -0.00000000000E+00 -0.00000000000E+00 -0.25030084797E+03  0.25030084797E+03  0.00000000000E+00 0.  1.
          6    1    1    2  501    0 -0.20315485649E+02  0.15114521442E+02  0.11426856044E+03  0.20887190242E+03  0.17300000000E+03 0.  1.
         -6    1    1    2    0  503  0.20315485649E+02 -0.15114521442E+02 -0.16535103454E+03  0.24064731941E+03  0.17300000000E+03 0.  1.
<mgrwt>
<rscale>  2 0.17484327E+03</rscale>
<asrwt>0</asrwt>
<pdfrwt beam="1">  1       21 0.30648981E-01 0.17484327E+03</pdfrwt>
<pdfrwt beam="2">  1       21 0.38507823E-01 0.17484327E+03</pdfrwt>
<totfact> 0.66979019E+04</totfact>
</mgrwt>
</event>
<event>
 4    1  0.3976152E+000  0.1775990E+03  0.7546771E-02  0.1170147E+00
         21   -1    0    0  501  502  0.00000000000E+00  0.00000000000E+00  0.18780797440E+02  0.18780797440E+02  0.00000000000E+00 0.  1.
         21   -1    0    0  502  503 -0.00000000000E+00 -0.00000000000E+00 -0.16802982318E+04  0.16802982318E+04  0.00000000000E+00 0.  1.
          6    1    1    2  501    0 -0.36810570525E+02  0.16043426184E+02 -0.81167089752E+03  0.83087367000E+03  0.17300000000E+03 0.  1.
         -6    1    1    2    0  503  0.36810570525E+02 -0.16043426184E+02 -0.84984653680E+03  0.86820535920E+03  0.17300000000E+03 0.  1.
<mgrwt>
<rscale>  2 0.17759901E+03</rscale>
<asrwt>0</asrwt>
<pdfrwt beam="1">  1       21 0.28893536E-02 0.17759901E+03</pdfrwt>
<pdfrwt beam="2">  1       21 0.25850740E+00 0.17759901E+03</pdfrwt>
<totfact> 0.40423866E+04</totfact>
</mgrwt>
</event>
<event>
 4    1  0.3976152E+000  0.2343581E+03  0.7546771E-02  0.1123609E+00
         21   -1    0    0  501  502  0.00000000000E+00  0.00000000000E+00  0.14964196920E+03  0.14964196920E+03  0.00000000000E+00 0.  1.
         21   -1    0    0  502  503 -0.00000000000E+00 -0.00000000000E+00 -0.46756672912E+03  0.46756672912E+03  0.00000000000E+00 0.  1.
          6    1    1    2  501    0  0.90144466490E+02  0.12987950199E+03 -0.15864335450E+02  0.23489441674E+03  0.17300000000E+03 0.  1.
         -6    1    1    2    0  503 -0.90144466490E+02 -0.12987950199E+03 -0.30206042447E+03  0.38231428159E+03  0.17300000000E+03 0.  1.
<mgrwt>
<rscale>  2 0.23435808E+03</rscale>
<asrwt>0</asrwt>
<pdfrwt beam="1">  1       21 0.23021842E-01 0.23435808E+03</pdfrwt>
<pdfrwt beam="2">  1       21 0.71933342E-01 0.23435808E+03</pdfrwt>
<totfact> 0.30241755E+04</totfact>
</mgrwt>
</event>
<event>
 4    1  0.3976152E+000  0.1823306E+03  0.7546771E-02  0.1165566E+00
         21   -1    0    0  501  502  0.00000000000E+00  0.00000000000E+00  0.12076464862E+04  0.12076464862E+04  0.00000000000E+00 0.  1.
         21   -1    0    0  502  503 -0.00000000000E+00 -0.00000000000E+00 -0.64767159922E+02  0.64767159922E+02  0.00000000000E+00 0.  1.
          6    1    1    2  501    0  0.43696683722E+02  0.37497212064E+02  0.10538528269E+04  0.10695093370E+04  0.17300000000E+03 0.  1.
         -6    1    1    2    0  503 -0.43696683722E+02 -0.37497212064E+02  0.89026499360E+02  0.20290430914E+03  0.17300000000E+03 0.  1.
<mgrwt>
<rscale>  2 0.18233058E+03</rscale>
<asrwt>0</asrwt>
<pdfrwt beam="1">  1       21 0.18579175E+00 0.18233058E+03</pdfrwt>
<pdfrwt beam="2">  1       21 0.99641793E-02 0.18233058E+03</pdfrwt>
<totfact> 0.13692586E+04</totfact>
</mgrwt>
</event>
<event>
 4    1  0.3976152E+000  0.2031264E+03  0.7546771E-02  0.1147128E+00
         21   -1    0    0  503  502  0.00000000000E+00  0.00000000000E+00  0.12364692760E+03  0.12364692760E+03  0.00000000000E+00 0. -1.
         21   -1    0    0  501  503 -0.00000000000E+00 -0.00000000000E+00 -0.37653099940E+03  0.37653099940E+03  0.00000000000E+00 0.  1.
          6    1    1    2  501    0  0.18316179573E+02  0.10486103931E+03 -0.21079499295E+03  0.29273682558E+03  0.17300000000E+03 0.  1.
         -6    1    1    2    0  502 -0.18316179573E+02 -0.10486103931E+03 -0.42089078841E+02  0.20744110141E+03  0.17300000000E+03 0. -1.
<mgrwt>
<rscale>  2 0.20312636E+03</rscale>
<asrwt>0</asrwt>
<pdfrwt beam="1">  1       21 0.19022604E-01 0.20312636E+03</pdfrwt>
<pdfrwt beam="2">  1       21 0.57927846E-01 0.20312636E+03</pdfrwt>
<totfact> 0.70466379E+04</totfact>
</mgrwt>
</event>
<event>
 4    1  0.3976152E+000  0.1830263E+03  0.7546771E-02  0.1164906E+00
         21   -1    0    0  501  502  0.00000000000E+00  0.00000000000E+00  0.27833058602E+04  0.27833058602E+04  0.00000000000E+00 0.  1.
         21   -1    0    0  502  503 -0.00000000000E+00 -0.00000000000E+00 -0.13610477692E+02  0.13610477692E+02  0.00000000000E+00 0.  1.
          6    1    1    2  501    0 -0.26692301931E+02 -0.53452443642E+02  0.18605571911E+04  0.18695378317E+04  0.17300000000E+03 0. -1.
         -6    1    1    2    0  503  0.26692301931E+02  0.53452443642E+02  0.90913819136E+03  0.92737850617E+03  0.17300000000E+03 0. -1.
<mgrwt>
<rscale>  2 0.18302634E+03</rscale>
<asrwt>0</asrwt>
<pdfrwt beam="1">  1       21 0.42820045E+00 0.18302634E+03</pdfrwt>
<pdfrwt beam="2">  1       21 0.20939219E-02 0.18302634E+03</pdfrwt>
<totfact> 0.66881042E+03</totfact>
</mgrwt>
</event>
<event>
 4    1  0.3976152E+000  0.1755303E+03  0.7546771E-02  0.1172200E+00
         21   -1    0    0  501  502  0.00000000000E+00  0.00000000000E+00  0.93247344186E+02  0.93247344186E+02  0.00000000000E+00 0.  1.
         21   -1    0    0  502  503 -0.00000000000E+00 -0.00000000000E+00 -0.33323226622E+03  0.33323226622E+03  0.00000000000E+00 0.  1.
          6    1    1    2  501    0  0.52863549221E+01 -0.29222540023E+02 -0.10040727136E+03  0.20221899648E+03  0.17300000000E+03 0.  1.
         -6    1    1    2    0  503 -0.52863549221E+01  0.29222540023E+02 -0.13957765068E+03  0.22426061393E+03  0.17300000000E+03 0.  1.
<mgrwt>
<rscale>  2 0.17553035E+03</rscale>
<asrwt>0</asrwt>
<pdfrwt beam="1">  1       21 0.14345745E-01 0.17553035E+03</pdfrwt>
<pdfrwt beam="2">  1       21 0.51266502E-01 0.17553035E+03</pdfrwt>
<totfact> 0.15470261E+05</totfact>
</mgrwt>
</event>
<event>
 4    1  0.3976152E+000  0.2466604E+03  0.7546771E-02  0.1115434E+00
         21   -1    0    0  503  502  0.00000000000E+00  0.00000000000E+00  0.88951331042E+03  0.88951331042E+03  0.00000000000E+00 0.  1.
         21   -1    0    0  501  503 -0.00000000000E+00 -0.00000000000E+00 -0.76772304129E+02  0.76772304129E+02  0.00000000000E+00 0.  1.
          6    1    1    2  501    0  0.16119620627E+03  0.70200591279E+02  0.24680621973E+03  0.34893358971E+03  0.17300000000E+03 0.  1.
         -6    1    1    2    0  502 -0.16119620627E+03 -0.70200591279E+02  0.56593478656E+03  0.61735202484E+03  0.17300000000E+03 0.  1.
<mgrwt>
<rscale>  2 0.24666037E+03</rscale>
<asrwt>0</asrwt>
<pdfrwt beam="1">  1       21 0.13684819E+00 0.24666037E+03</pdfrwt>
<pdfrwt beam="2">  1       21 0.11811124E-01 0.24666037E+03</pdfrwt>
<totfact> 0.22190146E+04</totfact>
</mgrwt>
</event>
<event>
 4    1  0.3976152E+000  0.2304163E+03  0.7546771E-02  0.1126347E+00
         21   -1    0    0  501  502  0.00000000000E+00  0.00000000000E+00  0.11546991976E+03  0.11546991976E+03  0.00000000000E+00 0.  1.
         21   -1    0    0  502  503 -0.00000000000E+00 -0.00000000000E+00 -0.67512136144E+03  0.67512136144E+03  0.00000000000E+00 0.  1.
          6    1    1    2  501    0  0.66274232671E+02  0.13700514679E+03 -0.56578143873E+02  0.23726097557E+03  0.17300000000E+03 0.  1.
         -6    1    1    2    0  503 -0.66274232671E+02 -0.13700514679E+03 -0.50307329781E+03  0.55333030563E+03  0.17300000000E+03 0.  1.
<mgrwt>
<rscale>  2 0.23041633E+03</rscale>
<asrwt>0</asrwt>
<pdfrwt beam="1">  1       21 0.17764603E-01 0.23041633E+03</pdfrwt>
<pdfrwt beam="2">  1       21 0.10386483E+00 0.23041633E+03</pdfrwt>
<totfact> 0.21100187E+04</totfact>
</mgrwt>
</event>
<event>
 4    1  0.3976152E+000  0.2056669E+03  0.7546771E-02  0.1145044E+00
         21   -1    0    0  503  502  0.00000000000E+00  0.00000000000E+00  0.33198988970E+03  0.33198988970E+03  0.00000000000E+00 0. -1.
         21   -1    0    0  501  503 -0.00000000000E+00 -0.00000000000E+00 -0.12899930391E+03  0.12899930391E+03  0.00000000000E+00 0. -1.
          6    1    1    2  501    0  0.11118981662E+03 -0.25896112984E+01  0.75912371079E+02  0.21922949046E+03  0.17300000000E+03 0. -1.
         -6    1    1    2    0  502 -0.11118981662E+03  0.25896112984E+01  0.12707821471E+03  0.24175970314E+03  0.17300000000E+03 0. -1.
<mgrwt>
<rscale>  2 0.20566692E+03</rscale>
<asrwt>0</asrwt>
<pdfrwt beam="1">  1       21 0.51075367E-01 0.20566692E+03</pdfrwt>
<pdfrwt beam="2">  1       21 0.19846047E-01 0.20566692E+03</pdfrwt>
<totfact> 0.84885697E+04</totfact>
</mgrwt>
</event>
<event>
 4    1  0.3976152E+000  0.1824164E+03  0.7546771E-02  0.1165485E+00
         21   -1    0    0  503  502  0.00000000000E+00  0.00000000000E+00  0.44107332418E+02  0.44107332418E+02  0.00000000000E+00 0.  1.
         21   -1    0    0  501  503 -0.00000000000E+00 -0.00000000000E+00 -0.93664302292E+03  0.93664302292E+03  0.00000000000E+00 0.  1.
          6    1    1    2  501    0 -0.52357861099E+02  0.24605127005E+02 -0.66255704447E+03  0.68721000799E+03  0.17300000000E+03 0.  1.
         -6    1    1    2    0  502  0.52357861099E+02 -0.24605127005E+02 -0.22997864602E+03  0.29354034735E+03  0.17300000000E+03 0.  1.
<mgrwt>
<rscale>  2 0.18241644E+03</rscale>
<asrwt>0</asrwt>
<pdfrwt beam="1">  1       21 0.67857430E-02 0.18241644E+03</pdfrwt>
<pdfrwt beam="2">  1       21 0.14409894E+00 0.18241644E+03</pdfrwt>
<totfact> 0.53285903E+04</totfact>
</mgrwt>
</event>
<event>
 4    1  0.3976152E+000  0.1736013E+03  0.7546771E-02  0.1174143E+00
         21   -1    0    0  503  502  0.00000000000E+00  0.00000000000E+00  0.35746586474E+02  0.35746586474E+02  0.00000000000E+00 0.  1.
         21   -1    0    0  501  503 -0.00000000000E+00 -0.00000000000E+00 -0.93995637900E+03  0.93995637900E+03  0.00000000000E+00 0.  1.
          6    1    1    2  501    0  0.34898204757E+01  0.14008535635E+02 -0.60871907514E+03  0.63298999231E+03  0.17300000000E+03 0.  1.
         -6    1    1    2    0  502 -0.34898204757E+01 -0.14008535635E+02 -0.29549071739E+03  0.34271297317E+03  0.17300000000E+03 0.  1.
<mgrwt>
<rscale>  2 0.17360132E+03</rscale>
<asrwt>0</asrwt>
<pdfrwt beam="1">  1       21 0.54994749E-02 0.17360132E+03</pdfrwt>
<pdfrwt beam="2">  1       21 0.14460867E+00 0.17360132E+03</pdfrwt>
<totfact> 0.76002500E+04</totfact>
</mgrwt>
</event>
<event>
 4    1  0.3976152E+000  0.1911925E+03  0.7546771E-02  0.1157390E+00
         21   -1    0    0  503  502  0.00000000000E+00  0.00000000000E+00  0.11440286993E+03  0.11440286993E+03  0.00000000000E+00 0.  1.
         21   -1    0    0  501  503 -0.00000000000E+00 -0.00000000000E+00 -0.32027779452E+03  0.32027779452E+03  0.00000000000E+00 0. -1.
          6    1    1    2  501    0  0.59367319237E+02  0.55687499698E+02 -0.92400458173E+02  0.21234976074E+03  0.17300000000E+03 0.  1.
         -6    1    1    2    0  502 -0.59367319237E+02 -0.55687499698E+02 -0.11347446642E+03  0.22233090371E+03  0.17300000000E+03 0. -1.
<mgrwt>
<rscale>  2 0.19119251E+03</rscale>
<asrwt>0</asrwt>
<pdfrwt beam="1">  1       21 0.17600442E-01 0.19119251E+03</pdfrwt>
<pdfrwt beam="2">  1       21 0.49273506E-01 0.19119251E+03</pdfrwt>
<totfact> 0.11502618E+05</totfact>
</mgrwt>
</event>
<event>
 4    1  0.3976152E+000  0.1876873E+03  0.7546771E-02  0.1160564E+00
         21   -1    0    0  503  502  0.00000000000E+00  0.00000000000E+00  0.24739650306E+03  0.24739650306E+03  0.00000000000E+00 0. -1.
         21   -1    0    0  501  503 -0.00000000000E+00 -0.00000000000E+00 -0.40392424578E+03  0.40392424578E+03  0.00000000000E+00 0. -1.
          6    1    1    2  501    0 -0.60121828624E+02 -0.41023126190E+02 -0.34031141967E+03  0.38863658283E+03  0.17300000000E+03 0. -1.
         -6    1    1    2    0  502  0.60121828624E+02  0.41023126190E+02  0.18378367694E+03  0.26268416601E+03  0.17300000000E+03 0. -1.
<mgrwt>
<rscale>  2 0.18768732E+03</rscale>
<asrwt>0</asrwt>
<pdfrwt beam="1">  1       21 0.38061001E-01 0.18768732E+03</pdfrwt>
<pdfrwt beam="2">  1       21 0.62142192E-01 0.18768732E+03</pdfrwt>
<totfact> 0.16044447E+04</totfact>
</mgrwt>
</event>
<event>
 4    1  0.3976152E+000  0.2623009E+03  0.7546771E-02  0.1105769E+00
         21   -1    0    0  503  502  0.00000000000E+00  0.00000000000E+00  0.38816972786E+03  0.38816972786E+03  0.00000000000E+00 0. -1.
         21   -1    0    0  501  503 -0.00000000000E+00 -0.00000000000E+00 -0.17866156633E+03  0.17866156633E+03  0.00000000000E+00 0.  1.
          6    1    1    2  501    0 -0.12369683972E+03  0.15353119674E+03  0.79531335147E+02  0.27409299480E+03  0.17300000000E+03 0.  1.
         -6    1    1    2    0  502  0.12369683972E+03 -0.15353119674E+03  0.12997682639E+03  0.29273829939E+03  0.17300000000E+03 0.  1.
<mgrwt>
<rscale>  2 0.26230085E+03</rscale>
<asrwt>0</asrwt>
<pdfrwt beam="1">  1       21 0.59718419E-01 0.26230085E+03</pdfrwt>
<pdfrwt beam="2">  1       21 0.27486395E-01 0.26230085E+03</pdfrwt>
<totfact> 0.31958865E+04</totfact>
</mgrwt>
</event>
<event>
 4    1  0.3976152E+000  0.2723714E+03  0.7546771E-02  0.1099930E+00
         21   -1    0    0  503  502  0.00000000000E+00  0.00000000000E+00  0.48537278847E+03  0.48537278847E+03  0.00000000000E+00 0.  1.
         21   -1    0    0  501  503 -0.00000000000E+00 -0.00000000000E+00 -0.18614377019E+03  0.18614377019E+03  0.00000000000E+00 0. -1.
          6    1    1    2  501    0  0.13582864811E+03 -0.16064800341E+03  0.76026372428E+01  0.27247752704E+03  0.17300000000E+03 0. -1.
         -6    1    1    2    0  502 -0.13582864811E+03  0.16064800341E+03  0.29162638103E+03  0.39903903163E+03  0.17300000000E+03 0. -1.
<mgrwt>
<rscale>  2 0.27237144E+03</rscale>
<asrwt>0</asrwt>
<pdfrwt beam="1">  1       21 0.74672736E-01 0.27237144E+03</pdfrwt>
<pdfrwt beam="2">  1       21 0.28637503E-01 0.27237144E+03</pdfrwt>
<totfact> 0.17942198E+04</totfact>
</mgrwt>
</event>
<event>
 4    1  0.3976152E+000  0.1737734E+03  0.7546771E-02  0.1173969E+00
         21   -1    0    0  503  502  0.00000000000E+00  0.00000000000E+00  0.15221655854E+04  0.15221655854E+04  0.00000000000E+00 0. -1.
         21   -1    0    0  501  503 -0.00000000000E+00 -0.00000000000E+00 -0.21568646334E+02  0.21568646334E+02  0.00000000000E+00 0. -1.
          6    1    1    2  501    0 -0.97190949737E+01 -0.13180461869E+02  0.53167490763E+03  0.55935265512E+03  0.17300000000E+03 0. -1.
         -6    1    1    2    0  502  0.97190949737E+01  0.13180461869E+02  0.96892203145E+03  0.98438157663E+03  0.17300000000E+03 0. -1.
<mgrwt>
<rscale>  2 0.17377337E+03</rscale>
<asrwt>0</asrwt>
<pdfrwt beam="1">  1       21 0.23417924E+00 0.17377337E+03</pdfrwt>
<pdfrwt beam="2">  1       21 0.33182545E-02 0.17377337E+03</pdfrwt>
<totfact> 0.44823927E+04</totfact>
</mgrwt>
</event>
<event>
 4    1  0.3976152E+000  0.1816746E+03  0.7546771E-02  0.1166192E+00
         21   -1    0    0  501  502  0.00000000000E+00  0.00000000000E+00  0.81406569673E+02  0.81406569673E+02  0.00000000000E+00 0. -1.
         21   -1    0    0  502  503 -0.00000000000E+00 -0.00000000000E+00 -0.45003927142E+03  0.45003927142E+03  0.00000000000E+00 0. -1.
          6    1    1    2  501    0 -0.55450029105E+02  0.13986587895E+01 -0.26796458656E+03  0.32374477853E+03  0.17300000000E+03 0. -1.
         -6    1    1    2    0  503  0.55450029105E+02 -0.13986587895E+01 -0.10066811518E+03  0.20770106256E+03  0.17300000000E+03 0. -1.
<mgrwt>
<rscale>  2 0.18167460E+03</rscale>
<asrwt>0</asrwt>
<pdfrwt beam="1">  1       21 0.12524088E-01 0.18167460E+03</pdfrwt>
<pdfrwt beam="2">  1       21 0.69236811E-01 0.18167460E+03</pdfrwt>
<totfact> 0.10361015E+05</totfact>
</mgrwt>
</event>
<event>
 4    1  0.3976152E+000  0.1915802E+03  0.7546771E-02  0.1157044E+00
         21   -1    0    0  503  502  0.00000000000E+00  0.00000000000E+00  0.23865170628E+03  0.23865170628E+03  0.00000000000E+00 0.  1.
         21   -1    0    0  501  503 -0.00000000000E+00 -0.00000000000E+00 -0.16146020192E+03  0.16146020192E+03  0.00000000000E+00 0.  1.
          6    1    1    2  501    0 -0.70601038923E+02  0.42302125133E+02 -0.49991242047E+01  0.19164542189E+03  0.17300000000E+03 0.  1.
         -6    1    1    2    0  502  0.70601038923E+02 -0.42302125133E+02  0.82190628567E+02  0.20846648630E+03  0.17300000000E+03 0.  1.
<mgrwt>
<rscale>  2 0.19158021E+03</rscale>
<asrwt>0</asrwt>
<pdfrwt beam="1">  1       21 0.36715647E-01 0.19158021E+03</pdfrwt>
<pdfrwt beam="2">  1       21 0.24840031E-01 0.19158021E+03</pdfrwt>
<totfact> 0.10974799E+05</totfact>
</mgrwt>
</event>
<event>
 4    1  0.3976152E+000  0.4897619E+03  0.7546771E-02  0.1016486E+00
         21   -1    0    0  501  502  0.00000000000E+00  0.00000000000E+00  0.43430030759E+03  0.43430030759E+03  0.00000000000E+00 0.  1.
         21   -1    0    0  502  503 -0.00000000000E+00 -0.00000000000E+00 -0.69502142315E+03  0.69502142315E+03  0.00000000000E+00 0. -1.
          6    1    1    2  501    0 -0.45751833541E+03  0.24793252008E+02  0.12551206103E+03  0.50558877563E+03  0.17300000000E+03 0.  1.
         -6    1    1    2    0  503  0.45751833541E+03 -0.24793252008E+02 -0.38623317658E+03  0.62373295510E+03  0.17300000000E+03 0. -1.
<mgrwt>
<rscale>  2 0.48976191E+03</rscale>
<asrwt>0</asrwt>
<pdfrwt beam="1">  1       21 0.66815433E-01 0.48976191E+03</pdfrwt>
<pdfrwt beam="2">  1       21 0.10692637E+00 0.48976191E+03</pdfrwt>
<totfact> 0.12060591E+03</totfact>
</mgrwt>
</event>
<event>
 4    1  0.3976152E+000  0.2028344E+03  0.7546771E-02  0.1147369E+00
         21   -1    0    0  503  502  0.00000000000E+00  0.00000000000E+00  0.12401987797E+03  0.12401987797E+03  0.00000000000E+00 0.  1.
         21   -1    0    0  501  503 -0.00000000000E+00 -0.00000000000E+00 -0.33290472476E+03  0.33290472476E+03  0.00000000000E+00 0.  1.
          6    1    1    2  501    0  0.90678923641E+02  0.54682001414E+02 -0.11798231489E+03  0.23465211505E+03  0.17300000000E+03 0.  1.
         -6    1    1    2    0  502 -0.90678923641E+02 -0.54682001414E+02 -0.90902531902E+02  0.22227248768E+03  0.17300000000E+03 0.  1.
<mgrwt>
<rscale>  2 0.20283439E+03</rscale>
<asrwt>0</asrwt>
<pdfrwt beam="1">  1       21 0.19079981E-01 0.20283439E+03</pdfrwt>
<pdfrwt beam="2">  1       21 0.51216111E-01 0.20283439E+03</pdfrwt>
<totfact> 0.90936949E+04</totfact>
</mgrwt>
</event>
<event>
 4    1  0.3976152E+000  0.2283010E+03  0.7546771E-02  0.1127841E+00
         21   -1    0    0  503  502  0.00000000000E+00  0.00000000000E+00  0.29022994407E+03  0.29022994407E+03  0.00000000000E+00 0.  1.
         21   -1    0    0  501  503 -0.00000000000E+00 -0.00000000000E+00 -0.29008381237E+03  0.29008381237E+03  0.00000000000E+00 0.  1.
          6    1    1    2  501    0  0.49840182982E+02  0.14038627589E+03 -0.17900697317E+03  0.29011178318E+03  0.17300000000E+03 0.  1.
         -6    1    1    2    0  502 -0.49840182982E+02 -0.14038627589E+03  0.17915310487E+03  0.29020197326E+03  0.17300000000E+03 0.  1.
<mgrwt>
<rscale>  2 0.22830101E+03</rscale>
<asrwt>0</asrwt>
<pdfrwt beam="1">  1       21 0.44650761E-01 0.22830101E+03</pdfrwt>
<pdfrwt beam="2">  1       21 0.44628279E-01 0.22830101E+03</pdfrwt>
<totfact> 0.22752382E+04</totfact>
</mgrwt>
</event>
<event>
 4    1  0.3976152E+000  0.1802061E+03  0.7546771E-02  0.1167604E+00
         21   -1    0    0  501  502  0.00000000000E+00  0.00000000000E+00  0.46672385741E+02  0.46672385741E+02  0.00000000000E+00 0.  1.
         21   -1    0    0  502  503 -0.00000000000E+00 -0.00000000000E+00 -0.69716396718E+03  0.69716396718E+03  0.00000000000E+00 0.  1.
          6    1    1    2  501    0  0.49354181705E+02 -0.10460224662E+02 -0.30874429804E+03  0.35748747268E+03  0.17300000000E+03 0.  1.
         -6    1    1    2    0  503 -0.49354181705E+02  0.10460224662E+02 -0.34174728340E+03  0.38634888024E+03  0.17300000000E+03 0.  1.
<mgrwt>
<rscale>  2 0.18020614E+03</rscale>
<asrwt>0</asrwt>
<pdfrwt beam="1">  1       21 0.71803674E-02 0.18020614E+03</pdfrwt>
<pdfrwt beam="2">  1       21 0.10725599E+00 0.18020614E+03</pdfrwt>
<totfact> 0.10101354E+05</totfact>
</mgrwt>
</event>
<event>
 4    1  0.3976152E+000  0.3105145E+03  0.7546771E-02  0.1080100E+00
         21   -1    0    0  503  502  0.00000000000E+00  0.00000000000E+00  0.20526226451E+03  0.20526226451E+03  0.00000000000E+00 0.  1.
         21   -1    0    0  501  503 -0.00000000000E+00 -0.00000000000E+00 -0.74078837994E+03  0.74078837994E+03  0.00000000000E+00 0. -1.
          6    1    1    2  501    0  0.24318274642E+03 -0.85746342555E+02 -0.55389286929E+03  0.63499338112E+03  0.17300000000E+03 0. -1.
         -6    1    1    2    0  502 -0.24318274642E+03  0.85746342555E+02  0.18366753856E+02  0.31105726332E+03  0.17300000000E+03 0. -1.
<mgrwt>
<rscale>  2 0.31051455E+03</rscale>
<asrwt>0</asrwt>
<pdfrwt beam="1">  1       21 0.31578810E-01 0.31051455E+03</pdfrwt>
<pdfrwt beam="2">  1       21 0.11396744E+00 0.31051455E+03</pdfrwt>
<totfact> 0.53622206E+03</totfact>
</mgrwt>
</event>
<event>
 4    1  0.3976152E+000  0.2067970E+03  0.7546771E-02  0.1144128E+00
         21   -1    0    0  501  502  0.00000000000E+00  0.00000000000E+00  0.16173001702E+03  0.16173001702E+03  0.00000000000E+00 0.  1.
         21   -1    0    0  502  503 -0.00000000000E+00 -0.00000000000E+00 -0.45413140101E+03  0.45413140101E+03  0.00000000000E+00 0.  1.
          6    1    1    2  501    0 -0.33362791036E+02  0.10827252477E+03  0.52823730691E+02  0.21343702108E+03  0.17300000000E+03 0.  1.
         -6    1    1    2    0  503  0.33362791036E+02 -0.10827252477E+03 -0.34522511468E+03  0.40242439694E+03  0.17300000000E+03 0.  1.
<mgrwt>
<rscale>  2 0.20679704E+03</rscale>
<asrwt>0</asrwt>
<pdfrwt beam="1">  1       21 0.24881541E-01 0.20679704E+03</pdfrwt>
<pdfrwt beam="2">  1       21 0.69866369E-01 0.20679704E+03</pdfrwt>
<totfact> 0.28216054E+04</totfact>
</mgrwt>
</event>
<event>
 4    1  0.3976152E+000  0.2310141E+03  0.7546771E-02  0.1125928E+00
         21   -1    0    0  501  502  0.00000000000E+00  0.00000000000E+00  0.21265193070E+03  0.21265193070E+03  0.00000000000E+00 0. -1.
         21   -1    0    0  502  503 -0.00000000000E+00 -0.00000000000E+00 -0.51992235622E+03  0.51992235622E+03  0.00000000000E+00 0.  1.
          6    1    1    2  501    0 -0.10089599997E+03  0.11514559753E+03  0.10981389126E+03  0.25578624309E+03  0.17300000000E+03 0. -1.
         -6    1    1    2    0  503  0.10089599997E+03 -0.11514559753E+03 -0.41708431677E+03  0.47678804383E+03  0.17300000000E+03 0.  1.
<mgrwt>
<rscale>  2 0.23101409E+03</rscale>
<asrwt>0</asrwt>
<pdfrwt beam="1">  1       21 0.32715682E-01 0.23101409E+03</pdfrwt>
<pdfrwt beam="2">  1       21 0.79988053E-01 0.23101409E+03</pdfrwt>
<totfact> 0.12074637E+04</totfact>
</mgrwt>
</event>
<event>
 4    1  0.3976152E+000  0.2424280E+03  0.7546771E-02  0.1118186E+00
         21   -1    0    0  503  502  0.00000000000E+00  0.00000000000E+00  0.54392411046E+02  0.54392411046E+02  0.00000000000E+00 0.  1.
         21   -1    0    0  501  503 -0.00000000000E+00 -0.00000000000E+00 -0.12826738162E+04  0.12826738162E+04  0.00000000000E+00 0. -1.
          6    1    1    2  501    0  0.10292979867E+02  0.16951813470E+03 -0.87955265959E+03  0.91235093271E+03  0.17300000000E+03 0. -1.
         -6    1    1    2    0  502 -0.10292979867E+02 -0.16951813470E+03 -0.34872874556E+03  0.42471529453E+03  0.17300000000E+03 0.  1.
<mgrwt>
<rscale>  2 0.24242802E+03</rscale>
<asrwt>0</asrwt>
<pdfrwt beam="1">  1       21 0.83680640E-02 0.24242802E+03</pdfrwt>
<pdfrwt beam="2">  1       21 0.19733441E+00 0.24242802E+03</pdfrwt>
<totfact> 0.14950062E+04</totfact>
</mgrwt>
</event>
<event>
 4    1  0.3976152E+000  0.2347488E+03  0.7546771E-02  0.1123341E+00
         21   -1    0    0  501  502  0.00000000000E+00  0.00000000000E+00  0.12456731542E+03  0.12456731542E+03  0.00000000000E+00 0. -1.
         21   -1    0    0  502  503 -0.00000000000E+00 -0.00000000000E+00 -0.44254291877E+03  0.44254291877E+03  0.00000000000E+00 0.  1.
          6    1    1    2  501    0  0.71199710487E+02 -0.14180484222E+03 -0.16430321607E+03  0.28653544085E+03  0.17300000000E+03 0. -1.
         -6    1    1    2    0  503 -0.71199710487E+02  0.14180484222E+03 -0.15367238727E+03  0.28057479334E+03  0.17300000000E+03 0.  1.
<mgrwt>
<rscale>  2 0.23474883E+03</rscale>
<asrwt>0</asrwt>
<pdfrwt beam="1">  1       21 0.19164202E-01 0.23474883E+03</pdfrwt>
<pdfrwt beam="2">  1       21 0.68083526E-01 0.23474883E+03</pdfrwt>
<totfact> 0.48266725E+04</totfact>
</mgrwt>
</event>
<event>
 4    1  0.3976152E+000  0.2114842E+03  0.7546771E-02  0.1140396E+00
         21   -1    0    0  503  502  0.00000000000E+00  0.00000000000E+00  0.29468625880E+03  0.29468625880E+03  0.00000000000E+00 0.  1.
         21   -1    0    0  501  503 -0.00000000000E+00 -0.00000000000E+00 -0.24828796688E+03  0.24828796688E+03  0.00000000000E+00 0.  1.
          6    1    1    2  501    0  0.11088399857E+01 -0.12163605133E+03 -0.14606603884E+03  0.25702304607E+03  0.17300000000E+03 0.  1.
         -6    1    1    2    0  502 -0.11088399857E+01  0.12163605133E+03  0.19246433076E+03  0.28595117962E+03  0.17300000000E+03 0.  1.
<mgrwt>
<rscale>  2 0.21148418E+03</rscale>
<asrwt>0</asrwt>
<pdfrwt beam="1">  1       21 0.45336348E-01 0.21148418E+03</pdfrwt>
<pdfrwt beam="2">  1       21 0.38198149E-01 0.21148418E+03</pdfrwt>
<totfact> 0.30530897E+04</totfact>
</mgrwt>
</event>
<event>
 4    1  0.3976152E+000  0.1957764E+03  0.7546771E-02  0.1153352E+00
         21   -1    0    0  501  502  0.00000000000E+00  0.00000000000E+00  0.13407938510E+04  0.13407938510E+04  0.00000000000E+00 0. -1.
         21   -1    0    0  502  503 -0.00000000000E+00 -0.00000000000E+00 -0.29810240169E+02  0.29810240169E+02  0.00000000000E+00 0. -1.
          6    1    1    2  501    0  0.91387392792E+02  0.69092845873E+01  0.79435004094E+03  0.81812002867E+03  0.17300000000E+03 0. -1.
         -6    1    1    2    0  503 -0.91387392792E+02 -0.69092845873E+01  0.51663356992E+03  0.55248406252E+03  0.17300000000E+03 0. -1.
<mgrwt>
<rscale>  2 0.19577639E+03</rscale>
<asrwt>0</asrwt>
<pdfrwt beam="1">  1       21 0.20627593E+00 0.19577639E+03</pdfrwt>
<pdfrwt beam="2">  1       21 0.45861918E-02 0.19577639E+03</pdfrwt>
<totfact> 0.38043512E+04</totfact>
</mgrwt>
</event>
<event>
 4    1  0.3976152E+000  0.2316114E+03  0.7546771E-02  0.1125511E+00
         21   -1    0    0  501  502  0.00000000000E+00  0.00000000000E+00  0.93416136033E+02  0.93416136033E+02  0.00000000000E+00 0. -1.
         21   -1    0    0  502  503 -0.00000000000E+00 -0.00000000000E+00 -0.63948260248E+03  0.63948260248E+03  0.00000000000E+00 0. -1.
          6    1    1    2  501    0 -0.12919817278E+03  0.83801470099E+02 -0.15599039110E+03  0.27924336403E+03  0.17300000000E+03 0. -1.
         -6    1    1    2    0  503  0.12919817278E+03 -0.83801470099E+02 -0.39007607535E+03  0.45365537448E+03  0.17300000000E+03 0. -1.
<mgrwt>
<rscale>  2 0.23161143E+03</rscale>
<asrwt>0</asrwt>
<pdfrwt beam="1">  1       21 0.14371714E-01 0.23161143E+03</pdfrwt>
<pdfrwt beam="2">  1       21 0.98381936E-01 0.23161143E+03</pdfrwt>
<totfact> 0.35448063E+04</totfact>
</mgrwt>
</event>
<event>
 4    1  0.3976152E+000  0.1955046E+03  0.7546771E-02  0.1153588E+00
         21   -1    0    0  501  502  0.00000000000E+00  0.00000000000E+00  0.56162551897E+02  0.56162551897E+02  0.00000000000E+00 0.  1.
         21   -1    0    0  502  503 -0.00000000000E+00 -0.00000000000E+00 -0.11862134576E+04  0.11862134576E+04  0.00000000000E+00 0.  1.
          6    1    1    2  501    0  0.80581137087E+02  0.42423145686E+02 -0.15945370437E+03  0.25228461463E+03  0.17300000000E+03 0.  1.
         -6    1    1    2    0  503 -0.80581137087E+02 -0.42423145686E+02 -0.97059720132E+03  0.99009139485E+03  0.17300000000E+03 0.  1.
<mgrwt>
<rscale>  2 0.19550459E+03</rscale>
<asrwt>0</asrwt>
<pdfrwt beam="1">  1       21 0.86403928E-02 0.19550459E+03</pdfrwt>
<pdfrwt beam="2">  1       21 0.18249437E+00 0.19550459E+03</pdfrwt>
<totfact> 0.18323072E+04</totfact>
</mgrwt>
</event>
<event>
 4    1  0.3976152E+000  0.1947916E+03  0.7546771E-02  0.1154209E+00
         21   -1    0    0  501  502  0.00000000000E+00  0.00000000000E+00  0.14481082614E+04  0.14481082614E+04  0.00000000000E+00 0. -1.
         21   -1    0    0  502  503 -0.00000000000E+00 -0.00000000000E+00 -0.32114486317E+02  0.32114486317E+02  0.00000000000E+00 0. -1.
          6    1    1    2  501    0  0.86990722471E+02 -0.21151846989E+02  0.10255527643E+04  0.10438880489E+04  0.17300000000E+03 0. -1.
         -6    1    1    2    0  503 -0.86990722471E+02  0.21151846989E+02  0.39044101079E+03  0.43633469875E+03  0.17300000000E+03 0. -1.
<mgrwt>
<rscale>  2 0.19479165E+03</rscale>
<asrwt>0</asrwt>
<pdfrwt beam="1">  1       21 0.22278584E+00 0.19479165E+03</pdfrwt>
<pdfrwt beam="2">  1       21 0.49406913E-02 0.19479165E+03</pdfrwt>
<totfact> 0.26505534E+04</totfact>
</mgrwt>
</event>
<event>
 4    1  0.3976152E+000  0.1954289E+03  0.7546771E-02  0.1153654E+00
         21   -1    0    0  503  502  0.00000000000E+00  0.00000000000E+00  0.60690790665E+03  0.60690790665E+03  0.00000000000E+00 0.  1.
         21   -1    0    0  501  503 -0.00000000000E+00 -0.00000000000E+00 -0.63882915057E+02  0.63882915057E+02  0.00000000000E+00 0.  1.
          6    1    1    2  501    0 -0.52829507011E+02  0.73976436275E+02  0.23054082445E+03  0.30222763221E+03  0.17300000000E+03 0.  1.
         -6    1    1    2    0  502  0.52829507011E+02 -0.73976436275E+02  0.31248416714E+03  0.36856318949E+03  0.17300000000E+03 0.  1.
<mgrwt>
<rscale>  2 0.19542894E+03</rscale>
<asrwt>0</asrwt>
<pdfrwt beam="1">  1       21 0.93370443E-01 0.19542894E+03</pdfrwt>
<pdfrwt beam="2">  1       21 0.98281412E-02 0.19542894E+03</pdfrwt>
<totfact> 0.80604011E+04</totfact>
</mgrwt>
</event>
<event>
 4    1  0.3976152E+000  0.2177686E+03  0.7546771E-02  0.1135558E+00
         21   -1    0    0  501  502  0.00000000000E+00  0.00000000000E+00  0.92616594652E+03  0.92616594652E+03  0.00000000000E+00 0. -1.
         21   -1    0    0  502  503 -0.00000000000E+00 -0.00000000000E+00 -0.51239957261E+02  0.51239957261E+02  0.00000000000E+00 0. -1.
          6    1    1    2  501    0 -0.10848673070E+03  0.75662369741E+02  0.42447121838E+03  0.47707334883E+03  0.17300000000E+03 0. -1.
         -6    1    1    2    0  503  0.10848673070E+03 -0.75662369741E+02  0.45045477088E+03  0.50033255495E+03  0.17300000000E+03 0. -1.
<mgrwt>
<rscale>  2 0.21776860E+03</rscale>
<asrwt>0</asrwt>
<pdfrwt beam="1">  1       21 0.14248706E+00 0.21776860E+03</pdfrwt>
<pdfrwt beam="2">  1       21 0.78830710E-02 0.21776860E+03</pdfrwt>
<totfact> 0.41497329E+04</totfact>
</mgrwt>
</event>
<event>
 4    1  0.3976152E+000  0.1952243E+03  0.7546771E-02  0.1153832E+00
         21   -1    0    0  501  502  0.00000000000E+00  0.00000000000E+00  0.33149377988E+03  0.33149377988E+03  0.00000000000E+00 0.  1.
         21   -1    0    0  502  503 -0.00000000000E+00 -0.00000000000E+00 -0.14889263537E+03  0.14889263537E+03  0.00000000000E+00 0.  1.
          6    1    1    2  501    0 -0.90446499704E+02 -0.17213648249E+01  0.20594568141E+03  0.28377130950E+03  0.17300000000E+03 0.  1.
         -6    1    1    2    0  503  0.90446499704E+02  0.17213648249E+01 -0.23344536904E+02  0.19661510575E+03  0.17300000000E+03 0.  1.
<mgrwt>
<rscale>  2 0.19522431E+03</rscale>
<asrwt>0</asrwt>
<pdfrwt beam="1">  1       21 0.50999043E-01 0.19522431E+03</pdfrwt>
<pdfrwt beam="2">  1       21 0.22906559E-01 0.19522431E+03</pdfrwt>
<totfact> 0.65320144E+04</totfact>
</mgrwt>
</event>
<event>
 4    1  0.3976152E+000  0.1795418E+03  0.7546771E-02  0.1168247E+00
         21   -1    0    0  503  502  0.00000000000E+00  0.00000000000E+00  0.25444518489E+04  0.25444518489E+04  0.00000000000E+00 0.  1.
         21   -1    0    0  501  503 -0.00000000000E+00 -0.00000000000E+00 -0.13007174888E+02  0.13007174888E+02  0.00000000000E+00 0.  1.
          6    1    1    2  501    0  0.32168381398E+02  0.35657610835E+02  0.10594901724E+04  0.10745951310E+04  0.17300000000E+03 0. -1.
         -6    1    1    2    0  502 -0.32168381398E+02 -0.35657610835E+02  0.14719545016E+04  0.14828638929E+04  0.17300000000E+03 0. -1.
<mgrwt>
<rscale>  2 0.17954183E+03</rscale>
<asrwt>0</asrwt>
<pdfrwt beam="1">  1       21 0.39145373E+00 0.17954183E+03</pdfrwt>
<pdfrwt beam="2">  1       21 0.20011059E-02 0.17954183E+03</pdfrwt>
<totfact> 0.12310753E+04</totfact>
</mgrwt>
</event>
<event>
 4    1  0.3976152E+000  0.1856364E+03  0.7546771E-02  0.1162457E+00
         21   -1    0    0  501  502  0.00000000000E+00  0.00000000000E+00  0.70805665571E+03  0.70805665571E+03  0.00000000000E+00 0. -1.
         21   -1    0    0  502  503 -0.00000000000E+00 -0.00000000000E+00 -0.68507187378E+02  0.68507187378E+02  0.00000000000E+00 0. -1.
          6    1    1    2  501    0 -0.67275844231E+02 -0.24146819722E+01  0.52871540077E+03  0.56035778296E+03  0.17300000000E+03 0. -1.
         -6    1    1    2    0  503  0.67275844231E+02  0.24146819722E+01  0.11083406756E+03  0.21620606013E+03  0.17300000000E+03 0. -1.
<mgrwt>
<rscale>  2 0.18563639E+03</rscale>
<asrwt>0</asrwt>
<pdfrwt beam="1">  1       21 0.10893179E+00 0.18563639E+03</pdfrwt>
<pdfrwt beam="2">  1       21 0.10539568E-01 0.18563639E+03</pdfrwt>
<totfact> 0.49618488E+04</totfact>
</mgrwt>
</event>
<event>
 4    1  0.3976152E+000  0.1753278E+03  0.7546771E-02  0.1172403E+00
         21   -1    0    0  503  502  0.00000000000E+00  0.00000000000E+00  0.21830087883E+02  0.21830087883E+02  0.00000000000E+00 0.  1.
         21   -1    0    0  501  503 -0.00000000000E+00 -0.00000000000E+00 -0.14106108476E+04  0.14106108476E+04  0.00000000000E+00 0.  1.
          6    1    1    2  501    0  0.16747289304E+02 -0.23029971994E+02 -0.66442361726E+03  0.68716707902E+03  0.17300000000E+03 0.  1.
         -6    1    1    2    0  502 -0.16747289304E+02  0.23029971994E+02 -0.72435714250E+03  0.74527385651E+03  0.17300000000E+03 0.  1.
<mgrwt>
<rscale>  2 0.17532784E+03</rscale>
<asrwt>0</asrwt>
<pdfrwt beam="1">  1       21 0.33584744E-02 0.17532784E+03</pdfrwt>
<pdfrwt beam="2">  1       21 0.21701709E+00 0.17532784E+03</pdfrwt>
<totfact> 0.55725906E+04</totfact>
</mgrwt>
</event>
<event>
 4    1  0.3976152E+000  0.1927267E+03  0.7546771E-02  0.1156025E+00
         21   -1    0    0  501  502  0.00000000000E+00  0.00000000000E+00  0.29134484716E+03  0.29134484716E+03  0.00000000000E+00 0.  1.
         21   -1    0    0  502  503 -0.00000000000E+00 -0.00000000000E+00 -0.13821165655E+03  0.13821165655E+03  0.00000000000E+00 0.  1.
          6    1    1    2  501    0 -0.58876492825E+02 -0.61221984775E+02  0.13638676534E+03  0.23610362679E+03  0.17300000000E+03 0.  1.
         -6    1    1    2    0  503  0.58876492825E+02  0.61221984775E+02  0.16746425278E+02  0.19345287692E+03  0.17300000000E+03 0.  1.
<mgrwt>
<rscale>  2 0.19272668E+03</rscale>
<asrwt>0</asrwt>
<pdfrwt beam="1">  1       21 0.44822284E-01 0.19272668E+03</pdfrwt>
<pdfrwt beam="2">  1       21 0.21263332E-01 0.19272668E+03</pdfrwt>
<totfact> 0.98324366E+04</totfact>
</mgrwt>
</event>
<event>
 4    1  0.3976152E+000  0.1800859E+03  0.7546771E-02  0.1167720E+00
         21   -1    0    0  501  502  0.00000000000E+00  0.00000000000E+00  0.32351542687E+02  0.32351542687E+02  0.00000000000E+00 0. -1.
         21   -1    0    0  502  503 -0.00000000000E+00 -0.00000000000E+00 -0.15025050028E+04  0.15025050028E+04  0.00000000000E+00 0. -1.
          6    1    1    2  501    0  0.49399572133E+02 -0.78496143765E+01 -0.29234874774E+03  0.34336383688E+03  0.17300000000E+03 0. -1.
         -6    1    1    2    0  503 -0.49399572133E+02  0.78496143765E+01 -0.11778047124E+04  0.11914927086E+04  0.17300000000E+03 0. -1.
<mgrwt>
<rscale>  2 0.18008591E+03</rscale>
<asrwt>0</asrwt>
<pdfrwt beam="1">  1       21 0.49771609E-02 0.18008591E+03</pdfrwt>
<pdfrwt beam="2">  1       21 0.23115459E+00 0.18008591E+03</pdfrwt>
<totfact> 0.23574011E+04</totfact>
</mgrwt>
</event>
<event>
 4    1  0.3976152E+000  0.2497489E+03  0.7546771E-02  0.1113464E+00
         21   -1    0    0  503  502  0.00000000000E+00  0.00000000000E+00  0.19800533286E+04  0.19800533286E+04  0.00000000000E+00 0.  1.
         21   -1    0    0  501  503 -0.00000000000E+00 -0.00000000000E+00 -0.23052385750E+03  0.23052385750E+03  0.00000000000E+00 0. -1.
          6    1    1    2  501    0  0.11165709104E+03  0.14134426750E+03 -0.15223128373E+03  0.29248738722E+03  0.17300000000E+03 0. -1.
         -6    1    1    2    0  502 -0.11165709104E+03 -0.14134426750E+03  0.19017607548E+04  0.19180897989E+04  0.17300000000E+03 0.  1.
<mgrwt>
<rscale>  2 0.24974889E+03</rscale>
<asrwt>0</asrwt>
<pdfrwt beam="1">  1       21 0.30462358E+00 0.24974889E+03</pdfrwt>
<pdfrwt beam="2">  1       21 0.35465210E-01 0.24974889E+03</pdfrwt>
<totfact> 0.22777426E+02</totfact>
</mgrwt>
</event>
<event>
 4    1  0.3976152E+000  0.1870694E+03  0.7546771E-02  0.1161131E+00
         21   -1    0    0  503  502  0.00000000000E+00  0.00000000000E+00  0.27802830295E+02  0.27802830295E+02  0.00000000000E+00 0. -1.
         21   -1    0    0  501  503 -0.00000000000E+00 -0.00000000000E+00 -0.15935477723E+04  0.15935477723E+04  0.00000000000E+00 0. -1.
          6    1    1    2  501    0 -0.29224061138E+02  0.64899362348E+02 -0.11544920520E+04  0.11695498583E+04  0.17300000000E+03 0. -1.
         -6    1    1    2    0  502  0.29224061138E+02 -0.64899362348E+02 -0.41125289000E+03  0.45180074426E+03  0.17300000000E+03 0. -1.
<mgrwt>
<rscale>  2 0.18706943E+03</rscale>
<asrwt>0</asrwt>
<pdfrwt beam="1">  1       21 0.42773577E-02 0.18706943E+03</pdfrwt>
<pdfrwt beam="2">  1       21 0.24516124E+00 0.18706943E+03</pdfrwt>
<totfact> 0.24979384E+04</totfact>
</mgrwt>
</event>
<event>
 4    1  0.3976152E+000  0.1879732E+03  0.7546771E-02  0.1160302E+00
         21   -1    0    0  501  502  0.00000000000E+00  0.00000000000E+00  0.68391810094E+03  0.68391810094E+03  0.00000000000E+00 0.  1.
         21   -1    0    0  502  503 -0.00000000000E+00 -0.00000000000E+00 -0.53481343070E+02  0.53481343070E+02  0.00000000000E+00 0.  1.
          6    1    1    2  501    0 -0.72032090264E+02 -0.14707054605E+02  0.38318482079E+03  0.42680736447E+03  0.17300000000E+03 0.  1.
         -6    1    1    2    0  503  0.72032090264E+02  0.14707054605E+02  0.24725193708E+03  0.31059207954E+03  0.17300000000E+03 0.  1.
<mgrwt>
<rscale>  2 0.18797319E+03</rscale>
<asrwt>0</asrwt>
<pdfrwt beam="1">  1       21 0.10521816E+00 0.18797319E+03</pdfrwt>
<pdfrwt beam="2">  1       21 0.82278994E-02 0.18797319E+03</pdfrwt>
<totfact> 0.83243247E+04</totfact>
</mgrwt>
</event>
<event>
 4    1  0.3976152E+000  0.1919189E+03  0.7546771E-02  0.1156742E+00
         21   -1    0    0  503  502  0.00000000000E+00  0.00000000000E+00  0.23739166552E+03  0.23739166552E+03  0.00000000000E+00 0. -1.
         21   -1    0    0  501  503 -0.00000000000E+00 -0.00000000000E+00 -0.29822006467E+03  0.29822006467E+03  0.00000000000E+00 0. -1.
          6    1    1    2  501    0  0.82894040081E+02  0.56951548969E+01 -0.21590236082E+03  0.28887140059E+03  0.17300000000E+03 0. -1.
         -6    1    1    2    0  502 -0.82894040081E+02 -0.56951548969E+01  0.15507396167E+03  0.24674032961E+03  0.17300000000E+03 0. -1.
<mgrwt>
<rscale>  2 0.19191888E+03</rscale>
<asrwt>0</asrwt>
<pdfrwt beam="1">  1       21 0.36521795E-01 0.19191888E+03</pdfrwt>
<pdfrwt beam="2">  1       21 0.45880010E-01 0.19191888E+03</pdfrwt>
<totfact> 0.32938467E+04</totfact>
</mgrwt>
</event>
<event>
 4    1  0.3976152E+000  0.2279879E+03  0.7546771E-02  0.1128064E+00
         21   -1    0    0  503  502  0.00000000000E+00  0.00000000000E+00  0.41268964113E+03  0.41268964113E+03  0.00000000000E+00 0.  1.
         21   -1    0    0  501  503 -0.00000000000E+00 -0.00000000000E+00 -0.13023377207E+03  0.13023377207E+03  0.00000000000E+00 0. -1.
          6    1    1    2  501    0  0.67502450397E+02  0.13226069023E+03  0.91997455417E+02  0.24584955317E+03  0.17300000000E+03 0. -1.
         -6    1    1    2    0  502 -0.67502450397E+02 -0.13226069023E+03  0.19045841364E+03  0.29707386003E+03  0.17300000000E+03 0.  1.
<mgrwt>
<rscale>  2 0.22798787E+03</rscale>
<asrwt>0</asrwt>
<pdfrwt beam="1">  1       21 0.63490714E-01 0.22798787E+03</pdfrwt>
<pdfrwt beam="2">  1       21 0.20035965E-01 0.22798787E+03</pdfrwt>
<totfact> 0.51904028E+04</totfact>
</mgrwt>
</event>
<event>
 4    1  0.3976152E+000  0.1752206E+03  0.7546771E-02  0.1172510E+00
         21   -1    0    0  501  502  0.00000000000E+00  0.00000000000E+00  0.90912066554E+01  0.90912066554E+01  0.00000000000E+00 0.  1.
         21   -1    0    0  502  503 -0.00000000000E+00 -0.00000000000E+00 -0.34521206605E+04  0.34521206605E+04  0.00000000000E+00 0.  1.
          6    1    1    2  501    0 -0.24837763520E+02 -0.12504201748E+02 -0.14664605667E+04  0.14768916221E+04  0.17300000000E+03 0.  1.
         -6    1    1    2    0  503  0.24837763520E+02  0.12504201748E+02 -0.19765688871E+04  0.19843202451E+04  0.17300000000E+03 0.  1.
<mgrwt>
<rscale>  2 0.17522063E+03</rscale>
<asrwt>0</asrwt>
<pdfrwt beam="1">  1       21 0.13986485E-02 0.17522063E+03</pdfrwt>
<pdfrwt beam="2">  1       21 0.53109500E+00 0.17522063E+03</pdfrwt>
<totfact> 0.25547323E+03</totfact>
</mgrwt>
</event>
<event>
 4    1  0.3976152E+000  0.2313849E+03  0.7546771E-02  0.1125669E+00
         21   -1    0    0  503  502  0.00000000000E+00  0.00000000000E+00  0.87510493756E+03  0.87510493756E+03  0.00000000000E+00 0.  1.
         21   -1    0    0  501  503 -0.00000000000E+00 -0.00000000000E+00 -0.17790256750E+03  0.17790256750E+03  0.00000000000E+00 0.  1.
          6    1    1    2  501    0  0.15206036899E+03  0.22082182210E+02 -0.77867998318E+02  0.24413603534E+03  0.17300000000E+03 0.  1.
         -6    1    1    2    0  502 -0.15206036899E+03 -0.22082182210E+02  0.77507036838E+03  0.80887146972E+03  0.17300000000E+03 0.  1.
<mgrwt>
<rscale>  2 0.23138491E+03</rscale>
<asrwt>0</asrwt>
<pdfrwt beam="1">  1       21 0.13463153E+00 0.23138491E+03</pdfrwt>
<pdfrwt beam="2">  1       21 0.27369626E-01 0.23138491E+03</pdfrwt>
<totfact> 0.48869629E+03</totfact>
</mgrwt>
</event>
<event>
 4    1  0.3976152E+000  0.1792735E+03  0.7546771E-02  0.1168508E+00
         21   -1    0    0  501  502  0.00000000000E+00  0.00000000000E+00  0.19339863765E+03  0.19339863765E+03  0.00000000000E+00 0. -1.
         21   -1    0    0  502  503 -0.00000000000E+00 -0.00000000000E+00 -0.38660597536E+03  0.38660597536E+03  0.00000000000E+00 0.  1.
          6    1    1    2  501    0  0.41146860309E+02 -0.22736290356E+02  0.12237331413E+03  0.21705812821E+03  0.17300000000E+03 0. -1.
         -6    1    1    2    0  503 -0.41146860309E+02  0.22736290356E+02 -0.31558065183E+03  0.36294648479E+03  0.17300000000E+03 0.  1.
<mgrwt>
<rscale>  2 0.17927354E+03</rscale>
<asrwt>0</asrwt>
<pdfrwt beam="1">  1       21 0.29753637E-01 0.17927354E+03</pdfrwt>
<pdfrwt beam="2">  1       21 0.59477842E-01 0.17927354E+03</pdfrwt>
<totfact> 0.28801467E+04</totfact>
</mgrwt>
</event>
<event>
 4    1  0.3976152E+000  0.1827853E+03  0.7546771E-02  0.1165134E+00
         21   -1    0    0  501  502  0.00000000000E+00  0.00000000000E+00  0.26451538604E+03  0.26451538604E+03  0.00000000000E+00 0.  1.
         21   -1    0    0  502  503 -0.00000000000E+00 -0.00000000000E+00 -0.16888477763E+03  0.16888477763E+03  0.00000000000E+00 0. -1.
          6    1    1    2  501    0  0.58940947654E+02 -0.27262027521E+01  0.15662036509E+03  0.24070813500E+03  0.17300000000E+03 0.  1.
         -6    1    1    2    0  503 -0.58940947654E+02  0.27262027521E+01 -0.60989756681E+02  0.19269202867E+03  0.17300000000E+03 0. -1.
<mgrwt>
<rscale>  2 0.18278530E+03</rscale>
<asrwt>0</asrwt>
<pdfrwt beam="1">  1       21 0.40694675E-01 0.18278530E+03</pdfrwt>
<pdfrwt beam="2">  1       21 0.25982273E-01 0.18278530E+03</pdfrwt>
<totfact> 0.82175782E+04</totfact>
</mgrwt>
</event>
<event>
 4    1  0.3976152E+000  0.2155888E+03  0.7546771E-02  0.1137215E+00
         21   -1    0    0  501  502  0.00000000000E+00  0.00000000000E+00  0.86646790236E+02  0.86646790236E+02  0.00000000000E+00 0.  1.
         21   -1    0    0  502  503 -0.00000000000E+00 -0.00000000000E+00 -0.54442320853E+03  0.54442320853E+03  0.00000000000E+00 0. -1.
          6    1    1    2  501    0 -0.12627102033E+03 -0.24599898007E+02 -0.26716029128E+03  0.34329746110E+03  0.17300000000E+03 0.  1.
         -6    1    1    2    0  503  0.12627102033E+03  0.24599898007E+02 -0.19061612701E+03  0.28777253766E+03  0.17300000000E+03 0. -1.
<mgrwt>
<rscale>  2 0.21558879E+03</rscale>
<asrwt>0</asrwt>
<pdfrwt beam="1">  1       21 0.13330275E-01 0.21558879E+03</pdfrwt>
<pdfrwt beam="2">  1       21 0.83757416E-01 0.21558879E+03</pdfrwt>
<totfact> 0.59559404E+04</totfact>
</mgrwt>
</event>
<event>
 4    1  0.3976152E+000  0.2176515E+03  0.7546771E-02  0.1135646E+00
         21   -1    0    0  501  502  0.00000000000E+00  0.00000000000E+00  0.52777352326E+03  0.52777352326E+03  0.00000000000E+00 0. -1.
         21   -1    0    0  502  503 -0.00000000000E+00 -0.00000000000E+00 -0.23635957510E+03  0.23635957510E+03  0.00000000000E+00 0. -1.
          6    1    1    2  501    0 -0.65227190974E+02  0.11484159869E+03  0.44660610862E+03  0.49681907722E+03  0.17300000000E+03 0. -1.
         -6    1    1    2    0  503  0.65227190974E+02 -0.11484159869E+03 -0.15519216045E+03  0.26731402114E+03  0.17300000000E+03 0. -1.
<mgrwt>
<rscale>  2 0.21765151E+03</rscale>
<asrwt>0</asrwt>
<pdfrwt beam="1">  1       21 0.81195926E-01 0.21765151E+03</pdfrwt>
<pdfrwt beam="2">  1       21 0.36363012E-01 0.21765151E+03</pdfrwt>
<totfact> 0.95359966E+03</totfact>
</mgrwt>
</event>
<event>
 4    1  0.3976152E+000  0.1910040E+03  0.7546771E-02  0.1157559E+00
         21   -1    0    0  501  502  0.00000000000E+00  0.00000000000E+00  0.24060244068E+03  0.24060244068E+03  0.00000000000E+00 0. -1.
         21   -1    0    0  502  503 -0.00000000000E+00 -0.00000000000E+00 -0.15649218675E+03  0.15649218675E+03  0.00000000000E+00 0. -1.
          6    1    1    2  501    0 -0.80943396532E+02 -0.12993076668E+01  0.77052738884E+02  0.20596030252E+03  0.17300000000E+03 0. -1.
         -6    1    1    2    0  503  0.80943396532E+02  0.12993076668E+01  0.70575150518E+01  0.19113432492E+03  0.17300000000E+03 0. -1.
<mgrwt>
<rscale>  2 0.19100398E+03</rscale>
<asrwt>0</asrwt>
<pdfrwt beam="1">  1       21 0.37015760E-01 0.19100398E+03</pdfrwt>
<pdfrwt beam="2">  1       21 0.24075721E-01 0.19100398E+03</pdfrwt>
<totfact> 0.11462263E+05</totfact>
</mgrwt>
</event>
<event>
 4    1  0.3976152E+000  0.2817598E+03  0.7546771E-02  0.1094732E+00
         21   -1    0    0  503  502  0.00000000000E+00  0.00000000000E+00  0.33610825685E+03  0.33610825685E+03  0.00000000000E+00 0. -1.
         21   -1    0    0  501  503 -0.00000000000E+00 -0.00000000000E+00 -0.96410750279E+03  0.96410750279E+03  0.00000000000E+00 0.  1.
          6    1    1    2  501    0 -0.21463043835E+03 -0.58252451158E+02 -0.87888583137E+03  0.92294576099E+03  0.17300000000E+03 0.  1.
         -6    1    1    2    0  502  0.21463043835E+03  0.58252451158E+02  0.25088658543E+03  0.37726999865E+03  0.17300000000E+03 0. -1.
<mgrwt>
<rscale>  2 0.28175978E+03</rscale>
<asrwt>0</asrwt>
<pdfrwt beam="1">  1       21 0.51708962E-01 0.28175978E+03</pdfrwt>
<pdfrwt beam="2">  1       21 0.14832423E+00 0.28175978E+03</pdfrwt>
<totfact> 0.10119366E+03</totfact>
</mgrwt>
</event>
<event>
 4    1  0.3976152E+000  0.1850447E+03  0.7546771E-02  0.1163008E+00
         21   -1    0    0  501  502  0.00000000000E+00  0.00000000000E+00  0.18364936659E+03  0.18364936659E+03  0.00000000000E+00 0.  1.
         21   -1    0    0  502  503 -0.00000000000E+00 -0.00000000000E+00 -0.21210377134E+03  0.21210377134E+03  0.00000000000E+00 0.  1.
          6    1    1    2  501    0 -0.49999802809E+02 -0.42574383619E+02  0.54588826671E+02  0.19292873922E+03  0.17300000000E+03 0.  1.
         -6    1    1    2    0  503  0.49999802809E+02  0.42574383619E+02 -0.83043231423E+02  0.20282439870E+03  0.17300000000E+03 0.  1.
<mgrwt>
<rscale>  2 0.18504475E+03</rscale>
<asrwt>0</asrwt>
<pdfrwt beam="1">  1       21 0.28253749E-01 0.18504475E+03</pdfrwt>
<pdfrwt beam="2">  1       21 0.32631349E-01 0.18504475E+03</pdfrwt>
<totfact> 0.10851270E+05</totfact>
</mgrwt>
</event>
<event>
 4    1  0.3976152E+000  0.2332089E+03  0.7546771E-02  0.1124401E+00
         21   -1    0    0  503  502  0.00000000000E+00  0.00000000000E+00  0.43285257889E+03  0.43285257889E+03  0.00000000000E+00 0.  1.
         21   -1    0    0  501  503 -0.00000000000E+00 -0.00000000000E+00 -0.14177488746E+03  0.14177488746E+03  0.00000000000E+00 0. -1.
          6    1    1    2  501    0 -0.15520314085E+03 -0.19219215580E+02  0.48632375438E+02  0.23822573563E+03  0.17300000000E+03 0. -1.
         -6    1    1    2    0  502  0.15520314085E+03  0.19219215580E+02  0.24244531599E+03  0.33640173071E+03  0.17300000000E+03 0.  1.
<mgrwt>
<rscale>  2 0.23320890E+03</rscale>
<asrwt>0</asrwt>
<pdfrwt beam="1">  1       21 0.66592704E-01 0.23320890E+03</pdfrwt>
<pdfrwt beam="2">  1       21 0.21811521E-01 0.23320890E+03</pdfrwt>
<totfact> 0.39758474E+04</totfact>
</mgrwt>
</event>
<event>
 4    1  0.3976152E+000  0.2384180E+03  0.7546771E-02  0.1120851E+00
         21   -1    0    0  503  502  0.00000000000E+00  0.00000000000E+00  0.55073987873E+03  0.55073987873E+03  0.00000000000E+00 0.  1.
         21   -1    0    0  501  503 -0.00000000000E+00 -0.00000000000E+00 -0.18796398824E+03  0.18796398824E+03  0.00000000000E+00 0.  1.
          6    1    1    2  501    0 -0.14393684407E+03 -0.78716638655E+02 -0.66626658986E+02  0.24755249134E+03  0.17300000000E+03 0.  1.
         -6    1    1    2    0  502  0.14393684407E+03  0.78716638655E+02  0.42940254948E+03  0.49115137563E+03  0.17300000000E+03 0.  1.
<mgrwt>
<rscale>  2 0.23841796E+03</rscale>
<asrwt>0</asrwt>
<pdfrwt beam="1">  1       21 0.84729212E-01 0.23841796E+03</pdfrwt>
<pdfrwt beam="2">  1       21 0.28917537E-01 0.23841796E+03</pdfrwt>
<totfact> 0.13432738E+04</totfact>
</mgrwt>
</event>
<event>
 4    1  0.3976152E+000  0.1803120E+03  0.7546771E-02  0.1167501E+00
         21   -1    0    0  503  502  0.00000000000E+00  0.00000000000E+00  0.29972023203E+02  0.29972023203E+02  0.00000000000E+00 0. -1.
         21   -1    0    0  501  503 -0.00000000000E+00 -0.00000000000E+00 -0.11202954204E+04  0.11202954204E+04  0.00000000000E+00 0. -1.
          6    1    1    2  501    0  0.23170153469E+02  0.45238795222E+02 -0.64759541293E+03  0.67222929381E+03  0.17300000000E+03 0. -1.
         -6    1    1    2    0  502 -0.23170153469E+02 -0.45238795222E+02 -0.44272798424E+03  0.47803814977E+03  0.17300000000E+03 0. -1.
<mgrwt>
<rscale>  2 0.18031196E+03</rscale>
<asrwt>0</asrwt>
<pdfrwt beam="1">  1       21 0.46110796E-02 0.18031196E+03</pdfrwt>
<pdfrwt beam="2">  1       21 0.17235317E+00 0.18031196E+03</pdfrwt>
<totfact> 0.63824973E+04</totfact>
</mgrwt>
</event>
<event>
 4    1  0.3976152E+000  0.3102617E+03  0.7546771E-02  0.1080220E+00
         21   -1    0    0  503  502  0.00000000000E+00  0.00000000000E+00  0.15527953306E+03  0.15527953306E+03  0.00000000000E+00 0. -1.
         21   -1    0    0  501  503 -0.00000000000E+00 -0.00000000000E+00 -0.13441508587E+04  0.13441508587E+04  0.00000000000E+00 0.  1.
          6    1    1    2  501    0 -0.80356106475E+02 -0.24469620129E+03 -0.11447464503E+04  0.11860466982E+04  0.17300000000E+03 0.  1.
         -6    1    1    2    0  502  0.80356106475E+02  0.24469620129E+03 -0.44124875316E+02  0.31338369357E+03  0.17300000000E+03 0. -1.
<mgrwt>
<rscale>  2 0.31026172E+03</rscale>
<asrwt>0</asrwt>
<pdfrwt beam="1">  1       21 0.23889159E-01 0.31026172E+03</pdfrwt>
<pdfrwt beam="2">  1       21 0.20679244E+00 0.31026172E+03</pdfrwt>
<totfact> 0.18196591E+03</totfact>
</mgrwt>
</event>
<event>
 4    1  0.3976152E+000  0.2381773E+03  0.7546771E-02  0.1121013E+00
         21   -1    0    0  501  502  0.00000000000E+00  0.00000000000E+00  0.39395838663E+03  0.39395838663E+03  0.00000000000E+00 0.  1.
         21   -1    0    0  502  503 -0.00000000000E+00 -0.00000000000E+00 -0.19853612000E+03  0.19853612000E+03  0.00000000000E+00 0.  1.
          6    1    1    2  501    0  0.53173247335E+02  0.15482899400E+03  0.25298301508E+03  0.34746052658E+03  0.17300000000E+03 0.  1.
         -6    1    1    2    0  503 -0.53173247335E+02 -0.15482899400E+03 -0.57560748447E+02  0.24503398005E+03  0.17300000000E+03 0.  1.
<mgrwt>
<rscale>  2 0.23817727E+03</rscale>
<asrwt>0</asrwt>
<pdfrwt beam="1">  1       21 0.60608983E-01 0.23817727E+03</pdfrwt>
<pdfrwt beam="2">  1       21 0.30544018E-01 0.23817727E+03</pdfrwt>
<totfact> 0.25462020E+04</totfact>
</mgrwt>
</event>
<event>
 4    1  0.3976152E+000  0.1753727E+03  0.7546771E-02  0.1172358E+00
         21   -1    0    0  501  502  0.00000000000E+00  0.00000000000E+00  0.34692280173E+02  0.34692280173E+02  0.00000000000E+00 0.  1.
         21   -1    0    0  502  503 -0.00000000000E+00 -0.00000000000E+00 -0.89010381738E+03  0.89010381738E+03  0.00000000000E+00 0.  1.
          6    1    1    2  501    0  0.13729058356E+02  0.25260643272E+02 -0.39838725929E+03  0.43527921557E+03  0.17300000000E+03 0.  1.
         -6    1    1    2    0  503 -0.13729058356E+02 -0.25260643272E+02 -0.45702427791E+03  0.48951688198E+03  0.17300000000E+03 0.  1.
<mgrwt>
<rscale>  2 0.17537271E+03</rscale>
<asrwt>0</asrwt>
<pdfrwt beam="1">  1       21 0.53372749E-02 0.17537271E+03</pdfrwt>
<pdfrwt beam="2">  1       21 0.13693902E+00 0.17537271E+03</pdfrwt>
<totfact> 0.91947232E+04</totfact>
</mgrwt>
</event>
