<event>
 4    1  0.4438654E+006  0.3199699E+02  0.7546771E-02  0.1577009E+00
         21   -1    0    0  503  501  0.00000000000E+00  0.00000000000E+00  0.15869397084E+03  0.15869397084E+03  0.00000000000E+00 0. -1.
         21   -1    0    0  501  502 -0.00000000000E+00 -0.00000000000E+00 -0.66761955079E+01  0.66761955079E+01  0.00000000000E+00 0. -1.
         21    1    1    2  503  504  0.29062744464E+02 -0.13385213323E+02  0.91179498972E+02  0.96630782281E+02  0.00000000000E+00 0. -1.
         21    1    1    2  504  502 -0.29062744464E+02  0.13385213323E+02  0.60838276362E+02  0.68739384069E+02  0.00000000000E+00 0. -1.
<mgrwt>
<rscale>  2 0.31996985E+02</rscale>
<asrwt>0</asrwt>
<pdfrwt beam="1">  1       21 0.24414454E-01 0.31996985E+02</pdfrwt>
<pdfrwt beam="2">  1       21 0.10271071E-02 0.31996985E+02</pdfrwt>
<totfact> 0.44783854E+07</totfact>
</mgrwt>
</event>
<event>
 4    1  0.4438654E+006  0.3479694E+02  0.7546771E-02  0.1550411E+00
         21   -1    0    0  503  501  0.00000000000E+00  0.00000000000E+00  0.10048908034E+03  0.10048908034E+03  0.00000000000E+00 0.  1.
         21   -1    0    0  504  502 -0.00000000000E+00 -0.00000000000E+00 -0.18047975740E+02  0.18047975740E+02  0.00000000000E+00 0. -1.
         21    1    1    2  503  502  0.30628363496E+02 -0.16514560684E+02  0.75389849039E+02  0.83032865199E+02  0.00000000000E+00 0.  1.
         21    1    1    2  504  501 -0.30628363496E+02  0.16514560684E+02  0.70512555612E+01  0.35504190880E+02  0.00000000000E+00 0. -1.
<mgrwt>
<rscale>  2 0.34796945E+02</rscale>
<asrwt>0</asrwt>
<pdfrwt beam="1">  1       21 0.15459858E-01 0.34796945E+02</pdfrwt>
<pdfrwt beam="2">  1       21 0.27766117E-02 0.34796945E+02</pdfrwt>
<totfact> 0.21924713E+07</totfact>
</mgrwt>
</event>
<event>
 4    1  0.4438654E+006  0.2629955E+02  0.7546771E-02  0.1643008E+00
         21   -1    0    0  504  501  0.00000000000E+00  0.00000000000E+00  0.15834040800E+02  0.15834040800E+02  0.00000000000E+00 0. -1.
         21   -1    0    0  501  502 -0.00000000000E+00 -0.00000000000E+00 -0.12421237839E+03  0.12421237839E+03  0.00000000000E+00 0. -1.
         21    1    1    2  503  502  0.26269641442E+02 -0.12538609500E+01 -0.11057095382E+03  0.11365562923E+03  0.00000000000E+00 0. -1.
         21    1    1    2  504  503 -0.26269641442E+02  0.12538609500E+01  0.21926162227E+01  0.26390789959E+02  0.00000000000E+00 0. -1.
<mgrwt>
<rscale>  2 0.26299548E+02</rscale>
<asrwt>0</asrwt>
<pdfrwt beam="1">  1       21 0.24360062E-02 0.26299548E+02</pdfrwt>
<pdfrwt beam="2">  1       21 0.19109597E-01 0.26299548E+02</pdfrwt>
<totfact> 0.17663706E+07</totfact>
</mgrwt>
</event>
<event>
 4    1  0.4438654E+006  0.2713459E+02  0.7546771E-02  0.1632109E+00
         21   -1    0    0  504  501  0.00000000000E+00  0.00000000000E+00  0.33575312430E+02  0.33575312430E+02  0.00000000000E+00 0.  1.
         21   -1    0    0  501  502 -0.00000000000E+00 -0.00000000000E+00 -0.22001462298E+02  0.22001462298E+02  0.00000000000E+00 0.  1.
         21    1    1    2  503  502  0.21586031032E+02 -0.16441688246E+02  0.41963791545E+01  0.27457156556E+02  0.00000000000E+00 0.  1.
         21    1    1    2  504  503 -0.21586031032E+02  0.16441688246E+02  0.73774709777E+01  0.28119618172E+02  0.00000000000E+00 0.  1.
<mgrwt>
<rscale>  2 0.27134588E+02</rscale>
<asrwt>0</asrwt>
<pdfrwt beam="1">  1       21 0.51654327E-02 0.27134588E+02</pdfrwt>
<pdfrwt beam="2">  1       21 0.33848404E-02 0.27134588E+02</pdfrwt>
<totfact> 0.94247496E+07</totfact>
</mgrwt>
</event>
<event>
 4    1  0.4438654E+006  0.2543257E+02  0.7546771E-02  0.1654865E+00
         21   -1    0    0  503  501  0.00000000000E+00  0.00000000000E+00  0.14078370072E+02  0.14078370072E+02  0.00000000000E+00 0.  1.
         21   -1    0    0  504  502 -0.00000000000E+00 -0.00000000000E+00 -0.29379494592E+03  0.29379494592E+03  0.00000000000E+00 0. -1.
         21    1    1    2  503  502  0.16127757166E+02  0.19664971510E+02  0.15305889728E+01  0.25478586270E+02  0.00000000000E+00 0.  1.
         21    1    1    2  504  501 -0.16127757166E+02 -0.19664971510E+02 -0.28124716482E+03  0.28239472972E+03  0.00000000000E+00 0. -1.
<mgrwt>
<rscale>  2 0.25432571E+02</rscale>
<asrwt>0</asrwt>
<pdfrwt beam="1">  1       21 0.21659033E-02 0.25432571E+02</pdfrwt>
<pdfrwt beam="2">  1       21 0.45199219E-01 0.25432571E+02</pdfrwt>
<totfact> 0.43689531E+06</totfact>
</mgrwt>
</event>
<event>
 4    1  0.4438654E+006  0.2303218E+02  0.7546771E-02  0.1690989E+00
         21   -1    0    0  503  501  0.00000000000E+00  0.00000000000E+00  0.31059340375E+03  0.31059340375E+03  0.00000000000E+00 0. -1.
         21   -1    0    0  504  502 -0.00000000000E+00 -0.00000000000E+00 -0.17884821105E+01  0.17884821105E+01  0.00000000000E+00 0. -1.
         21    1    1    2  503  502  0.22391787225E+02 -0.53934254552E+01  0.18754383948E+03  0.18895283247E+03  0.00000000000E+00 0. -1.
         21    1    1    2  504  501 -0.22391787225E+02  0.53934254552E+01  0.12126108217E+03  0.12342905339E+03  0.00000000000E+00 0. -1.
<mgrwt>
<rscale>  2 0.23032177E+02</rscale>
<asrwt>0</asrwt>
<pdfrwt beam="1">  1       21 0.47783558E-01 0.23032177E+02</pdfrwt>
<pdfrwt beam="2">  1       21 0.27515134E-03 0.23032177E+02</pdfrwt>
<totfact> 0.84251083E+07</totfact>
</mgrwt>
</event>
<event>
 4    1  0.4438654E+006  0.2184928E+02  0.7546771E-02  0.1710872E+00
         21   -1    0    0  503  501  0.00000000000E+00  0.00000000000E+00  0.10116911276E+02  0.10116911276E+02  0.00000000000E+00 0. -1.
         21   -1    0    0  504  502 -0.00000000000E+00 -0.00000000000E+00 -0.47561026569E+02  0.47561026569E+02  0.00000000000E+00 0. -1.
         21    1    1    2  503  502  0.13392220922E+02  0.17263820491E+02 -0.21278014158E+02  0.30498278077E+02  0.00000000000E+00 0. -1.
         21    1    1    2  504  501 -0.13392220922E+02 -0.17263820491E+02 -0.16166101135E+02  0.27179659768E+02  0.00000000000E+00 0. -1.
<mgrwt>
<rscale>  2 0.21849281E+02</rscale>
<asrwt>0</asrwt>
<pdfrwt beam="1">  1       21 0.15564479E-02 0.21849281E+02</pdfrwt>
<pdfrwt beam="2">  1       21 0.73170809E-02 0.21849281E+02</pdfrwt>
<totfact> 0.16793420E+08</totfact>
</mgrwt>
</event>
<event>
 4    1  0.4438654E+006  0.2308645E+02  0.7546771E-02  0.1690113E+00
         21   -1    0    0  503  501  0.00000000000E+00  0.00000000000E+00  0.80969756971E+01  0.80969756971E+01  0.00000000000E+00 0.  1.
         21   -1    0    0  504  502 -0.00000000000E+00 -0.00000000000E+00 -0.65860267853E+02  0.65860267853E+02  0.00000000000E+00 0.  1.
         21    1    1    2  503  502  0.22451342579E+02 -0.53778775925E+01 -0.28027320505E+02  0.36311362487E+02  0.00000000000E+00 0.  1.
         21    1    1    2  504  501 -0.22451342579E+02  0.53778775925E+01 -0.29735971650E+02  0.37645881062E+02  0.00000000000E+00 0.  1.
<mgrwt>
<rscale>  2 0.23086454E+02</rscale>
<asrwt>0</asrwt>
<pdfrwt beam="1">  1       21 0.12456886E-02 0.23086454E+02</pdfrwt>
<pdfrwt beam="2">  1       21 0.10132349E-01 0.23086454E+02</pdfrwt>
<totfact> 0.14043517E+08</totfact>
</mgrwt>
</event>
<event>
 4    1  0.4438654E+006  0.2132096E+02  0.7546771E-02  0.1720267E+00
         21   -1    0    0  503  501  0.00000000000E+00  0.00000000000E+00  0.40660511598E+03  0.40660511598E+03  0.00000000000E+00 0.  1.
         21   -1    0    0  504  502 -0.00000000000E+00 -0.00000000000E+00 -0.54094463488E+01  0.54094463488E+01  0.00000000000E+00 0. -1.
         21    1    1    2  503  502  0.15092816756E+02 -0.15059557093E+02  0.17109631829E+02  0.27337206858E+02  0.00000000000E+00 0. -1.
         21    1    1    2  504  501 -0.15092816756E+02  0.15059557093E+02  0.38408603780E+03  0.38467735547E+03  0.00000000000E+00 0.  1.
<mgrwt>
<rscale>  2 0.21320961E+02</rscale>
<asrwt>0</asrwt>
<pdfrwt beam="1">  1       21 0.62554609E-01 0.21320961E+02</pdfrwt>
<pdfrwt beam="2">  1       21 0.83222284E-03 0.21320961E+02</pdfrwt>
<totfact> 0.95659253E+06</totfact>
</mgrwt>
</event>
<event>
 4    1  0.4438654E+006  0.2449776E+02  0.7546771E-02  0.1668322E+00
         21   -1    0    0  503  501  0.00000000000E+00  0.00000000000E+00  0.97547805205E+02  0.97547805205E+02  0.00000000000E+00 0.  1.
         21   -1    0    0  501  502 -0.00000000000E+00 -0.00000000000E+00 -0.17600201398E+02  0.17600201398E+02  0.00000000000E+00 0. -1.
         21    1    1    2  503  504  0.11367203472E+02 -0.21700855502E+02  0.86407269455E+02  0.89812898066E+02  0.00000000000E+00 0.  1.
         21    1    1    2  504  502 -0.11367203472E+02  0.21700855502E+02 -0.64596656493E+01  0.25335108537E+02  0.00000000000E+00 0. -1.
<mgrwt>
<rscale>  2 0.24497764E+02</rscale>
<asrwt>0</asrwt>
<pdfrwt beam="1">  1       21 0.15007354E-01 0.24497764E+02</pdfrwt>
<pdfrwt beam="2">  1       21 0.27077234E-02 0.24497764E+02</pdfrwt>
<totfact> 0.22427184E+07</totfact>
</mgrwt>
</event>
<event>
 4    1  0.4438654E+006  0.2128554E+02  0.7546771E-02  0.1720909E+00
         21   -1    0    0  502  501  0.00000000000E+00  0.00000000000E+00  0.53908189890E+01  0.53908189890E+01  0.00000000000E+00 0. -1.
         21   -1    0    0  503  502 -0.00000000000E+00 -0.00000000000E+00 -0.21544359694E+03  0.21544359694E+03  0.00000000000E+00 0. -1.
         21    1    1    2  503  504  0.62217780551E+01 -0.20355925308E+02 -0.19125759505E+03  0.19243841062E+03  0.00000000000E+00 0. -1.
         21    1    1    2  504  501 -0.62217780551E+01  0.20355925308E+02 -0.18795182902E+02  0.28396005311E+02  0.00000000000E+00 0. -1.
<mgrwt>
<rscale>  2 0.21285540E+02</rscale>
<asrwt>0</asrwt>
<pdfrwt beam="1">  1       21 0.82935662E-03 0.21285540E+02</pdfrwt>
<pdfrwt beam="2">  1       21 0.33145175E-01 0.21285540E+02</pdfrwt>
<totfact> 0.32418316E+07</totfact>
</mgrwt>
</event>
<event>
 4    1  0.4438654E+006  0.2043206E+02  0.7546771E-02  0.1736870E+00
         21   -1    0    0  503  501  0.00000000000E+00  0.00000000000E+00  0.10858577443E+02  0.10858577443E+02  0.00000000000E+00 0.  1.
         21   -1    0    0  504  502 -0.00000000000E+00 -0.00000000000E+00 -0.63522934983E+02  0.63522934983E+02  0.00000000000E+00 0. -1.
         21    1    1    2  503  502 -0.12934756921E+02  0.15816480308E+02 -0.49699388926E+02  0.53735446826E+02  0.00000000000E+00 0. -1.
         21    1    1    2  504  501  0.12934756921E+02 -0.15816480308E+02 -0.29649686138E+01  0.20646065601E+02  0.00000000000E+00 0.  1.
<mgrwt>
<rscale>  2 0.20432058E+02</rscale>
<asrwt>0</asrwt>
<pdfrwt beam="1">  1       21 0.16705504E-02 0.20432058E+02</pdfrwt>
<pdfrwt beam="2">  1       21 0.97727593E-02 0.20432058E+02</pdfrwt>
<totfact> 0.92198722E+07</totfact>
</mgrwt>
</event>
<event>
 4    1  0.4438654E+006  0.2082867E+02  0.7546771E-02  0.1729334E+00
         21   -1    0    0  503  501  0.00000000000E+00  0.00000000000E+00  0.53710061220E+01  0.53710061220E+01  0.00000000000E+00 0.  1.
         21   -1    0    0  501  502 -0.00000000000E+00 -0.00000000000E+00 -0.14134659976E+03  0.14134659976E+03  0.00000000000E+00 0.  1.
         21    1    1    2  503  504  0.20553954642E+02  0.33717219488E+01 -0.19964674983E+02  0.28851721049E+02  0.00000000000E+00 0.  1.
         21    1    1    2  504  502 -0.20553954642E+02 -0.33717219488E+01 -0.11601091866E+03  0.11786588484E+03  0.00000000000E+00 0.  1.
<mgrwt>
<rscale>  2 0.20828672E+02</rscale>
<asrwt>0</asrwt>
<pdfrwt beam="1">  1       21 0.82630875E-03 0.20828672E+02</pdfrwt>
<pdfrwt beam="2">  1       21 0.21745628E-01 0.20828672E+02</pdfrwt>
<totfact> 0.68952809E+07</totfact>
</mgrwt>
</event>
<event>
 4    1  0.4438654E+006  0.1000469E+03  0.7546771E-02  0.1280197E+00
         21   -1    0    0  504  501  0.00000000000E+00  0.00000000000E+00  0.15569232388E+02  0.15569232388E+02  0.00000000000E+00 0. -1.
         21   -1    0    0  503  502 -0.00000000000E+00 -0.00000000000E+00 -0.66576403407E+03  0.66576403407E+03  0.00000000000E+00 0.  1.
         21    1    1    2  503  501 -0.77031485762E+01  0.99749913966E+02 -0.38823557457E+03  0.40091925022E+03  0.00000000000E+00 0. -1.
         21    1    1    2  504  502  0.77031485762E+01 -0.99749913966E+02 -0.26195922711E+03  0.28041401624E+03  0.00000000000E+00 0.  1.
<mgrwt>
<rscale>  2 0.10004691E+03</rscale>
<asrwt>0</asrwt>
<pdfrwt beam="1">  1       21 0.23952671E-02 0.10004691E+03</pdfrwt>
<pdfrwt beam="2">  1       21 0.10242521E+00 0.10004691E+03</pdfrwt>
<totfact> 0.71859466E+05</totfact>
</mgrwt>
</event>
<event>
 4    1  0.4438654E+006  0.2725750E+02  0.7546771E-02  0.1630545E+00
         21   -1    0    0  504  501  0.00000000000E+00  0.00000000000E+00  0.21026210605E+02  0.21026210605E+02  0.00000000000E+00 0. -1.
         21   -1    0    0  501  502 -0.00000000000E+00 -0.00000000000E+00 -0.36409394473E+02  0.36409394473E+02  0.00000000000E+00 0. -1.
         21    1    1    2  503  502  0.98700563134E+01 -0.25407739182E+02 -0.12623665428E+02  0.30038777452E+02  0.00000000000E+00 0. -1.
         21    1    1    2  504  503 -0.98700563134E+01  0.25407739182E+02 -0.27595184407E+01  0.27396827626E+02  0.00000000000E+00 0. -1.
<mgrwt>
<rscale>  2 0.27257498E+02</rscale>
<asrwt>0</asrwt>
<pdfrwt beam="1">  1       21 0.32348017E-02 0.27257498E+02</pdfrwt>
<pdfrwt beam="2">  1       21 0.56014452E-02 0.27257498E+02</pdfrwt>
<totfact> 0.88954339E+07</totfact>
</mgrwt>
</event>
<event>
 4    1  0.4438654E+006  0.3053876E+02  0.7546771E-02  0.1592209E+00
         21   -1    0    0  502  501  0.00000000000E+00  0.00000000000E+00  0.52203433636E+03  0.52203433636E+03  0.00000000000E+00 0. -1.
         21   -1    0    0  503  502 -0.00000000000E+00 -0.00000000000E+00 -0.23724773549E+01  0.23724773549E+01  0.00000000000E+00 0. -1.
         21    1    1    2  503  504  0.10972756871E+02  0.28499375847E+02  0.12952125447E+03  0.13307280404E+03  0.00000000000E+00 0. -1.
         21    1    1    2  504  501 -0.10972756871E+02 -0.28499375847E+02  0.39014060454E+03  0.39133400967E+03  0.00000000000E+00 0. -1.
<mgrwt>
<rscale>  2 0.30538759E+02</rscale>
<asrwt>0</asrwt>
<pdfrwt beam="1">  1       21 0.80312884E-01 0.30538759E+02</pdfrwt>
<pdfrwt beam="2">  1       21 0.36499693E-03 0.30538759E+02</pdfrwt>
<totfact> 0.20640374E+07</totfact>
</mgrwt>
</event>
<event>
 4    1  0.4438654E+006  0.2004556E+02  0.7546771E-02  0.1744424E+00
         21   -1    0    0  504  501  0.00000000000E+00  0.00000000000E+00  0.36332228778E+03  0.36332228778E+03  0.00000000000E+00 0.  1.
         21   -1    0    0  503  502 -0.00000000000E+00 -0.00000000000E+00 -0.14140204656E+02  0.14140204656E+02  0.00000000000E+00 0. -1.
         21    1    1    2  503  501  0.18600382182E+02 -0.74733127030E+01 -0.66091609263E+01  0.21107004246E+02  0.00000000000E+00 0. -1.
         21    1    1    2  504  502 -0.18600382182E+02  0.74733127030E+01  0.35579124405E+03  0.35635548819E+03  0.00000000000E+00 0.  1.
<mgrwt>
<rscale>  2 0.20045564E+02</rscale>
<asrwt>0</asrwt>
<pdfrwt beam="1">  1       21 0.55895729E-01 0.20045564E+02</pdfrwt>
<pdfrwt beam="2">  1       21 0.21754164E-02 0.20045564E+02</pdfrwt>
<totfact> 0.27765336E+06</totfact>
</mgrwt>
</event>
<event>
 4    1  0.4438654E+006  0.2215330E+02  0.7546771E-02  0.1705614E+00
         21   -1    0    0  502  501  0.00000000000E+00  0.00000000000E+00  0.44290209304E+02  0.44290209304E+02  0.00000000000E+00 0. -1.
         21   -1    0    0  503  502 -0.00000000000E+00 -0.00000000000E+00 -0.10179453546E+03  0.10179453546E+03  0.00000000000E+00 0. -1.
         21    1    1    2  503  504 -0.19142489146E+02 -0.11150511706E+02 -0.97704546017E+02  0.10018456525E+03  0.00000000000E+00 0. -1.
         21    1    1    2  504  501  0.19142489146E+02  0.11150511706E+02  0.40200219863E+02  0.45900179511E+02  0.00000000000E+00 0. -1.
<mgrwt>
<rscale>  2 0.22153302E+02</rscale>
<asrwt>0</asrwt>
<pdfrwt beam="1">  1       21 0.68138785E-02 0.22153302E+02</pdfrwt>
<pdfrwt beam="2">  1       21 0.15660697E-01 0.22153302E+02</pdfrwt>
<totfact> 0.47467526E+06</totfact>
</mgrwt>
</event>
<event>
 4    1  0.4438654E+006  0.2849213E+02  0.7546771E-02  0.1615380E+00
         21   -1    0    0  503  501  0.00000000000E+00  0.00000000000E+00  0.16232469923E+04  0.16232469923E+04  0.00000000000E+00 0.  1.
         21   -1    0    0  504  502 -0.00000000000E+00 -0.00000000000E+00 -0.13151843527E+01  0.13151843527E+01  0.00000000000E+00 0. -1.
         21    1    1    2  503  502 -0.24565205504E+01 -0.28386037519E+02  0.14504234410E+04  0.14507032638E+04  0.00000000000E+00 0.  1.
         21    1    1    2  504  501  0.24565205504E+01  0.28386037519E+02  0.17150836702E+03  0.17385891285E+03  0.00000000000E+00 0. -1.
<mgrwt>
<rscale>  2 0.28492133E+02</rscale>
<asrwt>0</asrwt>
<pdfrwt beam="1">  1       21 0.24972870E+00 0.28492133E+02</pdfrwt>
<pdfrwt beam="2">  1       21 0.20233735E-03 0.28492133E+02</pdfrwt>
<totfact> 0.31295491E+06</totfact>
</mgrwt>
</event>
<event>
 4    1  0.4438654E+006  0.3877355E+02  0.7546771E-02  0.1517436E+00
         21   -1    0    0  502  501  0.00000000000E+00  0.00000000000E+00  0.18696265150E+03  0.18696265150E+03  0.00000000000E+00 0. -1.
         21   -1    0    0  503  502 -0.00000000000E+00 -0.00000000000E+00 -0.11565100397E+02  0.11565100397E+02  0.00000000000E+00 0. -1.
         21    1    1    2  503  504 -0.38680179535E+02  0.26892735728E+01  0.32904716090E+02  0.50853798503E+02  0.00000000000E+00 0. -1.
         21    1    1    2  504  501  0.38680179535E+02 -0.26892735728E+01  0.14249283501E+03  0.14767395340E+03  0.00000000000E+00 0. -1.
<mgrwt>
<rscale>  2 0.38773554E+02</rscale>
<asrwt>0</asrwt>
<pdfrwt beam="1">  1       21 0.28763483E-01 0.38773554E+02</pdfrwt>
<pdfrwt beam="2">  1       21 0.17792464E-02 0.38773554E+02</pdfrwt>
<totfact> 0.14751174E+07</totfact>
</mgrwt>
</event>
<event>
 4    1  0.4438654E+006  0.2429462E+02  0.7546771E-02  0.1671345E+00
         21   -1    0    0  503  501  0.00000000000E+00  0.00000000000E+00  0.13959796152E+03  0.13959796152E+03  0.00000000000E+00 0.  1.
         21   -1    0    0  504  502 -0.00000000000E+00 -0.00000000000E+00 -0.12139955343E+03  0.12139955343E+03  0.00000000000E+00 0. -1.
         21    1    1    2  503  502 -0.15605056120E+02 -0.18620172876E+02  0.13730534086E+03  0.13943810542E+03  0.00000000000E+00 0.  1.
         21    1    1    2  504  501  0.15605056120E+02  0.18620172876E+02 -0.11910693276E+03  0.12155940953E+03  0.00000000000E+00 0. -1.
<mgrwt>
<rscale>  2 0.24294621E+02</rscale>
<asrwt>0</asrwt>
<pdfrwt beam="1">  1       21 0.21476609E-01 0.24294621E+02</pdfrwt>
<pdfrwt beam="2">  1       21 0.18676854E-01 0.24294621E+02</pdfrwt>
<totfact> 0.51511417E+05</totfact>
</mgrwt>
</event>
<event>
 4    1  0.4438654E+006  0.2227876E+02  0.7546771E-02  0.1703475E+00
         21   -1    0    0  503  501  0.00000000000E+00  0.00000000000E+00  0.35966982444E+01  0.35966982444E+01  0.00000000000E+00 0.  1.
         21   -1    0    0  501  502 -0.00000000000E+00 -0.00000000000E+00 -0.11500436406E+04  0.11500436406E+04  0.00000000000E+00 0. -1.
         21    1    1    2  503  504  0.22275368040E+02 -0.38893678842E+00 -0.32116709409E+02  0.39087418902E+02  0.00000000000E+00 0.  1.
         21    1    1    2  504  502 -0.22275368040E+02  0.38893678842E+00 -0.11143302330E+04  0.11145529199E+04  0.00000000000E+00 0. -1.
<mgrwt>
<rscale>  2 0.22278763E+02</rscale>
<asrwt>0</asrwt>
<pdfrwt beam="1">  1       21 0.55333709E-03 0.22278763E+02</pdfrwt>
<pdfrwt beam="2">  1       21 0.17693014E+00 0.22278763E+02</pdfrwt>
<totfact> 0.17693621E+06</totfact>
</mgrwt>
</event>
<event>
 4    1  0.4438654E+006  0.3413553E+02  0.7546771E-02  0.1556414E+00
         21   -1    0    0  503  501  0.00000000000E+00  0.00000000000E+00  0.64429807438E+03  0.64429807438E+03  0.00000000000E+00 0. -1.
         21   -1    0    0  504  502 -0.00000000000E+00 -0.00000000000E+00 -0.39270265485E+01  0.39270265485E+01  0.00000000000E+00 0. -1.
         21    1    1    2  503  502  0.11805249041E+02  0.32029211665E+02  0.82130414916E+02  0.88941775106E+02  0.00000000000E+00 0. -1.
         21    1    1    2  504  501 -0.11805249041E+02 -0.32029211665E+02  0.55824063292E+03  0.55928332583E+03  0.00000000000E+00 0. -1.
<mgrwt>
<rscale>  2 0.34135528E+02</rscale>
<asrwt>0</asrwt>
<pdfrwt beam="1">  1       21 0.99122697E-01 0.34135528E+02</pdfrwt>
<pdfrwt beam="2">  1       21 0.60415844E-03 0.34135528E+02</pdfrwt>
<totfact> 0.62669713E+06</totfact>
</mgrwt>
</event>
<event>
 4    1  0.4438654E+006  0.2799104E+02  0.7546771E-02  0.1621419E+00
         21   -1    0    0  502  501  0.00000000000E+00  0.00000000000E+00  0.24926525430E+02  0.24926525430E+02  0.00000000000E+00 0.  1.
         21   -1    0    0  503  502 -0.00000000000E+00 -0.00000000000E+00 -0.14233267741E+03  0.14233267741E+03  0.00000000000E+00 0.  1.
         21    1    1    2  503  504  0.27678535958E+02 -0.41709448671E+01 -0.13252310661E+03  0.13544693396E+03  0.00000000000E+00 0.  1.
         21    1    1    2  504  501 -0.27678535958E+02  0.41709448671E+01  0.15116954630E+02  0.31812268878E+02  0.00000000000E+00 0.  1.
<mgrwt>
<rscale>  2 0.27991037E+02</rscale>
<asrwt>0</asrwt>
<pdfrwt beam="1">  1       21 0.38348500E-02 0.27991037E+02</pdfrwt>
<pdfrwt beam="2">  1       21 0.21897335E-01 0.27991037E+02</pdfrwt>
<totfact> 0.68964922E+06</totfact>
</mgrwt>
</event>
<event>
 4    1  0.4438654E+006  0.2467970E+02  0.7546771E-02  0.1665646E+00
         21   -1    0    0  503  501  0.00000000000E+00  0.00000000000E+00  0.29103891665E+01  0.29103891665E+01  0.00000000000E+00 0.  1.
         21   -1    0    0  504  502 -0.00000000000E+00 -0.00000000000E+00 -0.26815949281E+03  0.26815949281E+03  0.00000000000E+00 0.  1.
         21    1    1    2  503  502 -0.74704821791E+01 -0.23521895417E+02 -0.19613349851E+03  0.19768013786E+03  0.00000000000E+00 0.  1.
         21    1    1    2  504  501  0.74704821791E+01  0.23521895417E+02 -0.69115605136E+02  0.73389744115E+02  0.00000000000E+00 0.  1.
<mgrwt>
<rscale>  2 0.24679702E+02</rscale>
<asrwt>0</asrwt>
<pdfrwt beam="1">  1       21 0.44775204E-03 0.24679702E+02</pdfrwt>
<pdfrwt beam="2">  1       21 0.41255320E-01 0.24679702E+02</pdfrwt>
<totfact> 0.55643982E+07</totfact>
</mgrwt>
</event>
<event>
 4    1  0.4438654E+006  0.2043772E+02  0.7546771E-02  0.1736761E+00
         21   -1    0    0  503  501  0.00000000000E+00  0.00000000000E+00  0.24519559312E+02  0.24519559312E+02  0.00000000000E+00 0.  1.
         21   -1    0    0  504  502 -0.00000000000E+00 -0.00000000000E+00 -0.18196082358E+02  0.18196082358E+02  0.00000000000E+00 0.  1.
         21    1    1    2  503  502  0.72743802098E-01 -0.20437587785E+02  0.85559294879E+01  0.22156358355E+02  0.00000000000E+00 0.  1.
         21    1    1    2  504  501 -0.72743802098E-01  0.20437587785E+02 -0.22324525343E+01  0.20559283316E+02  0.00000000000E+00 0.  1.
<mgrwt>
<rscale>  2 0.20437717E+02</rscale>
<asrwt>0</asrwt>
<pdfrwt beam="1">  1       21 0.37722399E-02 0.20437717E+02</pdfrwt>
<pdfrwt beam="2">  1       21 0.27993973E-02 0.20437717E+02</pdfrwt>
<totfact> 0.19195635E+08</totfact>
</mgrwt>
</event>
<event>
 4    1  0.4438654E+006  0.2479443E+02  0.7546771E-02  0.1663972E+00
         21   -1    0    0  503  501  0.00000000000E+00  0.00000000000E+00  0.22224765797E+01  0.22224765797E+01  0.00000000000E+00 0.  1.
         21   -1    0    0  504  502 -0.00000000000E+00 -0.00000000000E+00 -0.29050217456E+03  0.29050217456E+03  0.00000000000E+00 0.  1.
         21    1    1    2  503  502  0.11549582931E+02  0.21940160732E+02 -0.11213545005E+03  0.11484390570E+03  0.00000000000E+00 0.  1.
         21    1    1    2  504  501 -0.11549582931E+02 -0.21940160732E+02 -0.17614424793E+03  0.17788074544E+03  0.00000000000E+00 0.  1.
<mgrwt>
<rscale>  2 0.24794425E+02</rscale>
<asrwt>0</asrwt>
<pdfrwt beam="1">  1       21 0.34191935E-03 0.24794425E+02</pdfrwt>
<pdfrwt beam="2">  1       21 0.44692658E-01 0.24794425E+02</pdfrwt>
<totfact> 0.71067182E+07</totfact>
</mgrwt>
</event>
<event>
 4    1  0.4438654E+006  0.2132163E+02  0.7546771E-02  0.1720255E+00
         21   -1    0    0  503  501  0.00000000000E+00  0.00000000000E+00  0.42254724705E+03  0.42254724705E+03  0.00000000000E+00 0. -1.
         21   -1    0    0  504  502 -0.00000000000E+00 -0.00000000000E+00 -0.55732748500E+01  0.55732748500E+01  0.00000000000E+00 0. -1.
         21    1    1    2  503  502  0.17133917668E+01  0.21252672327E+02  0.40077895196E+03  0.40134571148E+03  0.00000000000E+00 0. -1.
         21    1    1    2  504  501 -0.17133917668E+01 -0.21252672327E+02  0.16195020246E+02  0.26774810422E+02  0.00000000000E+00 0. -1.
<mgrwt>
<rscale>  2 0.21321627E+02</rscale>
<asrwt>0</asrwt>
<pdfrwt beam="1">  1       21 0.65007243E-01 0.21321627E+02</pdfrwt>
<pdfrwt beam="2">  1       21 0.85742724E-03 0.21321627E+02</pdfrwt>
<totfact> 0.84684396E+06</totfact>
</mgrwt>
</event>
<event>
 4    1  0.4438654E+006  0.5130581E+02  0.7546771E-02  0.1438423E+00
         21   -1    0    0  504  501  0.00000000000E+00  0.00000000000E+00  0.35001773561E+03  0.35001773561E+03  0.00000000000E+00 0.  1.
         21   -1    0    0  501  502 -0.00000000000E+00 -0.00000000000E+00 -0.55609371745E+02  0.55609371745E+02  0.00000000000E+00 0.  1.
         21    1    1    2  503  502 -0.82439775619E+01  0.50639140439E+02 -0.41397502363E+02  0.65924494024E+02  0.00000000000E+00 0.  1.
         21    1    1    2  504  503  0.82439775619E+01 -0.50639140439E+02  0.33580586623E+03  0.33970261333E+03  0.00000000000E+00 0.  1.
<mgrwt>
<rscale>  2 0.51305806E+02</rscale>
<asrwt>0</asrwt>
<pdfrwt beam="1">  1       21 0.53848881E-01 0.51305806E+02</pdfrwt>
<pdfrwt beam="2">  1       21 0.85552882E-02 0.51305806E+02</pdfrwt>
<totfact> 0.35538585E+05</totfact>
</mgrwt>
</event>
<event>
 4    1  0.4438654E+006  0.2002154E+02  0.7546771E-02  0.1744900E+00
         21   -1    0    0  502  501  0.00000000000E+00  0.00000000000E+00  0.27044761249E+01  0.27044761249E+01  0.00000000000E+00 0. -1.
         21   -1    0    0  504  502 -0.00000000000E+00 -0.00000000000E+00 -0.71663605695E+03  0.71663605695E+03  0.00000000000E+00 0. -1.
         21    1    1    2  503  501 -0.10368230204E+02 -0.17127808655E+02 -0.36643079365E+02  0.41756164721E+02  0.00000000000E+00 0. -1.
         21    1    1    2  504  503  0.10368230204E+02  0.17127808655E+02 -0.67728850146E+03  0.67758436835E+03  0.00000000000E+00 0. -1.
<mgrwt>
<rscale>  2 0.20021539E+02</rscale>
<asrwt>0</asrwt>
<pdfrwt beam="1">  1       21 0.41607287E-03 0.20021539E+02</pdfrwt>
<pdfrwt beam="2">  1       21 0.11025180E+00 0.20021539E+02</pdfrwt>
<totfact> 0.79838102E+06</totfact>
</mgrwt>
</event>
<event>
 4    1  0.4438654E+006  0.2190995E+02  0.7546771E-02  0.1709814E+00
         21   -1    0    0  503  501  0.00000000000E+00  0.00000000000E+00  0.38143558814E+02  0.38143558814E+02  0.00000000000E+00 0.  1.
         21   -1    0    0  504  502 -0.00000000000E+00 -0.00000000000E+00 -0.93558947422E+03  0.93558947422E+03  0.00000000000E+00 0. -1.
         21    1    1    2  503  502 -0.20964027225E+02  0.63683078745E+01  0.34857888741E+02  0.41171813054E+02  0.00000000000E+00 0.  1.
         21    1    1    2  504  501  0.20964027225E+02 -0.63683078745E+01 -0.93230380415E+03  0.93256121998E+03  0.00000000000E+00 0. -1.
<mgrwt>
<rscale>  2 0.21909947E+02</rscale>
<asrwt>0</asrwt>
<pdfrwt beam="1">  1       21 0.58682401E-02 0.21909947E+02</pdfrwt>
<pdfrwt beam="2">  1       21 0.14393684E+00 0.21909947E+02</pdfrwt>
<totfact> 0.78167009E+04</totfact>
</mgrwt>
</event>
<event>
 4    1  0.4438654E+006  0.2197185E+02  0.7546771E-02  0.1708739E+00
         21   -1    0    0  502  501  0.00000000000E+00  0.00000000000E+00  0.33219240150E+03  0.33219240150E+03  0.00000000000E+00 0.  1.
         21   -1    0    0  503  502 -0.00000000000E+00 -0.00000000000E+00 -0.61562247437E+02  0.61562247437E+02  0.00000000000E+00 0. -1.
         21    1    1    2  503  504 -0.54081995341E+01  0.21295858643E+02 -0.59224590181E+02  0.63168934609E+02  0.00000000000E+00 0. -1.
         21    1    1    2  504  501  0.54081995341E+01 -0.21295858643E+02  0.32985474424E+03  0.33058571433E+03  0.00000000000E+00 0.  1.
<mgrwt>
<rscale>  2 0.21971851E+02</rscale>
<asrwt>0</asrwt>
<pdfrwt beam="1">  1       21 0.51106522E-01 0.21971851E+02</pdfrwt>
<pdfrwt beam="2">  1       21 0.94711152E-02 0.21971851E+02</pdfrwt>
<totfact> 0.32565008E+05</totfact>
</mgrwt>
</event>
<event>
 4    1  0.4438654E+006  0.2710424E+02  0.7546771E-02  0.1632496E+00
         21   -1    0    0  503  501  0.00000000000E+00  0.00000000000E+00  0.94437854921E+01  0.94437854921E+01  0.00000000000E+00 0. -1.
         21   -1    0    0  504  502 -0.00000000000E+00 -0.00000000000E+00 -0.85709314353E+02  0.85709314353E+02  0.00000000000E+00 0. -1.
         21    1    1    2  503  502  0.15452410304E+02  0.22267980969E+02 -0.52593814324E+02  0.59167129944E+02  0.00000000000E+00 0. -1.
         21    1    1    2  504  501 -0.15452410304E+02 -0.22267980969E+02 -0.23671714537E+02  0.35985969901E+02  0.00000000000E+00 0. -1.
<mgrwt>
<rscale>  2 0.27104242E+02</rscale>
<asrwt>0</asrwt>
<pdfrwt beam="1">  1       21 0.14528901E-02 0.27104242E+02</pdfrwt>
<pdfrwt beam="2">  1       21 0.13186048E-01 0.27104242E+02</pdfrwt>
<totfact> 0.74631478E+07</totfact>
</mgrwt>
</event>
<event>
 4    1  0.4438654E+006  0.2361658E+02  0.7546771E-02  0.1681706E+00
         21   -1    0    0  502  501  0.00000000000E+00  0.00000000000E+00  0.22776320578E+02  0.22776320578E+02  0.00000000000E+00 0. -1.
         21   -1    0    0  503  502 -0.00000000000E+00 -0.00000000000E+00 -0.98431117988E+02  0.98431117988E+02  0.00000000000E+00 0. -1.
         21    1    1    2  503  504  0.16861302846E+02  0.16535994809E+02 -0.90354380761E+02  0.93389810904E+02  0.00000000000E+00 0. -1.
         21    1    1    2  504  501 -0.16861302846E+02 -0.16535994809E+02  0.14699583351E+02  0.27817627661E+02  0.00000000000E+00 0. -1.
<mgrwt>
<rscale>  2 0.23616576E+02</rscale>
<asrwt>0</asrwt>
<pdfrwt beam="1">  1       21 0.35040493E-02 0.23616576E+02</pdfrwt>
<pdfrwt beam="2">  1       21 0.15143249E-01 0.23616576E+02</pdfrwt>
<totfact> 0.14649955E+07</totfact>
</mgrwt>
</event>
<event>
 4    1  0.4438654E+006  0.2883950E+02  0.7546771E-02  0.1611282E+00
         21   -1    0    0  502  501  0.00000000000E+00  0.00000000000E+00  0.37187714323E+03  0.37187714323E+03  0.00000000000E+00 0. -1.
         21   -1    0    0  503  502 -0.00000000000E+00 -0.00000000000E+00 -0.44231207656E+01  0.44231207656E+01  0.00000000000E+00 0.  1.
         21    1    1    2  503  504  0.14320648662E+02 -0.25032696479E+02  0.51438167589E+02  0.58971195986E+02  0.00000000000E+00 0.  1.
         21    1    1    2  504  501 -0.14320648662E+02  0.25032696479E+02  0.31601585488E+03  0.31732906801E+03  0.00000000000E+00 0. -1.
<mgrwt>
<rscale>  2 0.28839502E+02</rscale>
<asrwt>0</asrwt>
<pdfrwt beam="1">  1       21 0.57211844E-01 0.28839502E+02</pdfrwt>
<pdfrwt beam="2">  1       21 0.68048041E-03 0.28839502E+02</pdfrwt>
<totfact> 0.16296202E+07</totfact>
</mgrwt>
</event>
<event>
 4    1  0.4438654E+006  0.2501619E+02  0.7546771E-02  0.1660769E+00
         21   -1    0    0  504  501  0.00000000000E+00  0.00000000000E+00  0.29901103263E+03  0.29901103263E+03  0.00000000000E+00 0. -1.
         21   -1    0    0  503  502 -0.00000000000E+00 -0.00000000000E+00 -0.32135495176E+01  0.32135495176E+01  0.00000000000E+00 0. -1.
         21    1    1    2  503  501  0.20218184045E+02 -0.14732101537E+02  0.58663586938E+02  0.63774808617E+02  0.00000000000E+00 0. -1.
         21    1    1    2  504  502 -0.20218184045E+02  0.14732101537E+02  0.23713389618E+03  0.23844977353E+03  0.00000000000E+00 0. -1.
<mgrwt>
<rscale>  2 0.25016190E+02</rscale>
<asrwt>0</asrwt>
<pdfrwt beam="1">  1       21 0.46001676E-01 0.25016190E+02</pdfrwt>
<pdfrwt beam="2">  1       21 0.49439247E-03 0.25016190E+02</pdfrwt>
<totfact> 0.39148305E+07</totfact>
</mgrwt>
</event>
<event>
 4    1  0.4438654E+006  0.4622119E+02  0.7546771E-02  0.1466859E+00
         21   -1    0    0  504  501  0.00000000000E+00  0.00000000000E+00  0.10654139102E+03  0.10654139102E+03  0.00000000000E+00 0.  1.
         21   -1    0    0  503  502 -0.00000000000E+00 -0.00000000000E+00 -0.45643548144E+02  0.45643548144E+02  0.00000000000E+00 0. -1.
         21    1    1    2  503  501  0.40524921608E+02 -0.22229009279E+02 -0.26527852929E+02  0.53292824150E+02  0.00000000000E+00 0. -1.
         21    1    1    2  504  502 -0.40524921608E+02  0.22229009279E+02  0.87425695807E+02  0.98892115016E+02  0.00000000000E+00 0.  1.
<mgrwt>
<rscale>  2 0.46221187E+02</rscale>
<asrwt>0</asrwt>
<pdfrwt beam="1">  1       21 0.16390983E-01 0.46221187E+02</pdfrwt>
<pdfrwt beam="2">  1       21 0.70220843E-02 0.46221187E+02</pdfrwt>
<totfact> 0.45922785E+06</totfact>
</mgrwt>
</event>
<event>
 4    1  0.4438654E+006  0.2305821E+02  0.7546771E-02  0.1690568E+00
         21   -1    0    0  503  501  0.00000000000E+00  0.00000000000E+00  0.13053465745E+03  0.13053465745E+03  0.00000000000E+00 0. -1.
         21   -1    0    0  504  502 -0.00000000000E+00 -0.00000000000E+00 -0.52790942684E+01  0.52790942684E+01  0.00000000000E+00 0.  1.
         21    1    1    2  503  502 -0.22960300081E+02 -0.21226173927E+01  0.30170927146E+02  0.37973223846E+02  0.00000000000E+00 0.  1.
         21    1    1    2  504  501  0.22960300081E+02  0.21226173927E+01  0.95084636033E+02  0.97840527870E+02  0.00000000000E+00 0. -1.
<mgrwt>
<rscale>  2 0.23058206E+02</rscale>
<asrwt>0</asrwt>
<pdfrwt beam="1">  1       21 0.20082253E-01 0.23058206E+02</pdfrwt>
<pdfrwt beam="2">  1       21 0.81216845E-03 0.23058206E+02</pdfrwt>
<totfact> 0.83569596E+07</totfact>
</mgrwt>
</event>
<event>
 4    1  0.4438654E+006  0.2617242E+02  0.7546771E-02  0.1644711E+00
         21   -1    0    0  504  501  0.00000000000E+00  0.00000000000E+00  0.19878212940E+02  0.19878212940E+02  0.00000000000E+00 0.  1.
         21   -1    0    0  503  502 -0.00000000000E+00 -0.00000000000E+00 -0.38515479984E+02  0.38515479984E+02  0.00000000000E+00 0.  1.
         21    1    1    2  503  501 -0.25892705909E+02  0.38161964582E+01 -0.18793214387E+02  0.32220808210E+02  0.00000000000E+00 0.  1.
         21    1    1    2  504  502  0.25892705909E+02 -0.38161964582E+01  0.15594734362E+00  0.26172884714E+02  0.00000000000E+00 0.  1.
<mgrwt>
<rscale>  2 0.26172420E+02</rscale>
<asrwt>0</asrwt>
<pdfrwt beam="1">  1       21 0.30581866E-02 0.26172420E+02</pdfrwt>
<pdfrwt beam="2">  1       21 0.59254585E-02 0.26172420E+02</pdfrwt>
<totfact> 0.87800338E+07</totfact>
</mgrwt>
</event>
<event>
 4    1  0.4438654E+006  0.2389493E+02  0.7546771E-02  0.1677401E+00
         21   -1    0    0  503  501  0.00000000000E+00  0.00000000000E+00  0.57388490548E+01  0.57388490548E+01  0.00000000000E+00 0. -1.
         21   -1    0    0  504  502 -0.00000000000E+00 -0.00000000000E+00 -0.10320358747E+03  0.10320358747E+03  0.00000000000E+00 0. -1.
         21    1    1    2  503  502  0.18971200905E+02  0.14527946143E+02 -0.38401930142E+02  0.45229149025E+02  0.00000000000E+00 0. -1.
         21    1    1    2  504  501 -0.18971200905E+02 -0.14527946143E+02 -0.59062808273E+02  0.63713287500E+02  0.00000000000E+00 0. -1.
<mgrwt>
<rscale>  2 0.23894930E+02</rscale>
<asrwt>0</asrwt>
<pdfrwt beam="1">  1       21 0.88289992E-03 0.23894930E+02</pdfrwt>
<pdfrwt beam="2">  1       21 0.15877474E-01 0.23894930E+02</pdfrwt>
<totfact> 0.11180412E+08</totfact>
</mgrwt>
</event>
<event>
 4    1  0.4438654E+006  0.2211465E+02  0.7546771E-02  0.1706277E+00
         21   -1    0    0  503  501  0.00000000000E+00  0.00000000000E+00  0.66238583056E+01  0.66238583056E+01  0.00000000000E+00 0. -1.
         21   -1    0    0  504  502 -0.00000000000E+00 -0.00000000000E+00 -0.79257997756E+02  0.79257997756E+02  0.00000000000E+00 0. -1.
         21    1    1    2  503  502  0.54267766302E+01  0.21438464215E+02 -0.47551726206E+02  0.52442581150E+02  0.00000000000E+00 0. -1.
         21    1    1    2  504  501 -0.54267766302E+01 -0.21438464215E+02 -0.25082413244E+02  0.33439274912E+02  0.00000000000E+00 0. -1.
<mgrwt>
<rscale>  2 0.22114648E+02</rscale>
<asrwt>0</asrwt>
<pdfrwt beam="1">  1       21 0.10190551E-02 0.22114648E+02</pdfrwt>
<pdfrwt beam="2">  1       21 0.12193538E-01 0.22114648E+02</pdfrwt>
<totfact> 0.13785554E+08</totfact>
</mgrwt>
</event>
<event>
 4    1  0.4438654E+006  0.2309506E+02  0.7546771E-02  0.1689974E+00
         21   -1    0    0  503  501  0.00000000000E+00  0.00000000000E+00  0.68629899699E+01  0.68629899699E+01  0.00000000000E+00 0.  1.
         21   -1    0    0  504  502 -0.00000000000E+00 -0.00000000000E+00 -0.11619657894E+03  0.11619657894E+03  0.00000000000E+00 0. -1.
         21    1    1    2  503  502 -0.61840222353E+01 -0.22251738248E+02 -0.90074259754E+02  0.92987925325E+02  0.00000000000E+00 0. -1.
         21    1    1    2  504  501  0.61840222353E+01  0.22251738248E+02 -0.19259329217E+02  0.30071643585E+02  0.00000000000E+00 0.  1.
<mgrwt>
<rscale>  2 0.23095064E+02</rscale>
<asrwt>0</asrwt>
<pdfrwt beam="1">  1       21 0.10558447E-02 0.23095064E+02</pdfrwt>
<pdfrwt beam="2">  1       21 0.17876395E-01 0.23095064E+02</pdfrwt>
<totfact> 0.69052469E+07</totfact>
</mgrwt>
</event>
<event>
 4    1  0.4438654E+006  0.2330635E+02  0.7546771E-02  0.1686592E+00
         21   -1    0    0  503  501  0.00000000000E+00  0.00000000000E+00  0.10114865422E+03  0.10114865422E+03  0.00000000000E+00 0. -1.
         21   -1    0    0  504  502 -0.00000000000E+00 -0.00000000000E+00 -0.18964601996E+02  0.18964601996E+02  0.00000000000E+00 0. -1.
         21    1    1    2  503  502  0.23299041276E+02 -0.58353144598E+00 -0.97554679517E+01  0.25265687963E+02  0.00000000000E+00 0. -1.
         21    1    1    2  504  501 -0.23299041276E+02  0.58353144598E+00  0.91939520178E+02  0.94847568255E+02  0.00000000000E+00 0. -1.
<mgrwt>
<rscale>  2 0.23306347E+02</rscale>
<asrwt>0</asrwt>
<pdfrwt beam="1">  1       21 0.15561331E-01 0.23306347E+02</pdfrwt>
<pdfrwt beam="2">  1       21 0.29176311E-02 0.23306347E+02</pdfrwt>
<totfact> 0.18565235E+07</totfact>
</mgrwt>
</event>
<event>
 4    1  0.4438654E+006  0.3879036E+02  0.7546771E-02  0.1517307E+00
         21   -1    0    0  503  501  0.00000000000E+00  0.00000000000E+00  0.31467422049E+01  0.31467422049E+01  0.00000000000E+00 0.  1.
         21   -1    0    0  504  502 -0.00000000000E+00 -0.00000000000E+00 -0.53784522167E+03  0.53784522167E+03  0.00000000000E+00 0.  1.
         21    1    1    2  503  502 -0.28629275725E+01 -0.38684570699E+02 -0.35744663724E+03  0.35954525562E+03  0.00000000000E+00 0.  1.
         21    1    1    2  504  501  0.28629275725E+01  0.38684570699E+02 -0.17725184222E+03  0.18144670825E+03  0.00000000000E+00 0.  1.
<mgrwt>
<rscale>  2 0.38790364E+02</rscale>
<asrwt>0</asrwt>
<pdfrwt beam="1">  1       21 0.48411386E-03 0.38790364E+02</pdfrwt>
<pdfrwt beam="2">  1       21 0.82745474E-01 0.38790364E+02</pdfrwt>
<totfact> 0.13167926E+07</totfact>
</mgrwt>
</event>
<event>
 4    1  0.4438654E+006  0.2039352E+02  0.7546771E-02  0.1737614E+00
         21   -1    0    0  504  501  0.00000000000E+00  0.00000000000E+00  0.35181801258E+02  0.35181801258E+02  0.00000000000E+00 0. -1.
         21   -1    0    0  503  502 -0.00000000000E+00 -0.00000000000E+00 -0.46157130517E+03  0.46157130517E+03  0.00000000000E+00 0.  1.
         21    1    1    2  503  501  0.84754369964E+01 -0.18548926868E+02  0.31980578048E+02  0.37929580706E+02  0.00000000000E+00 0. -1.
         21    1    1    2  504  502 -0.84754369964E+01  0.18548926868E+02 -0.45837008196E+03  0.45882352572E+03  0.00000000000E+00 0.  1.
<mgrwt>
<rscale>  2 0.20393522E+02</rscale>
<asrwt>0</asrwt>
<pdfrwt beam="1">  1       21 0.54125852E-02 0.20393522E+02</pdfrwt>
<pdfrwt beam="2">  1       21 0.71010965E-01 0.20393522E+02</pdfrwt>
<totfact> 0.41593319E+05</totfact>
</mgrwt>
</event>
<event>
 4    1  0.4438654E+006  0.3332438E+02  0.7546771E-02  0.1564005E+00
         21   -1    0    0  504  501  0.00000000000E+00  0.00000000000E+00  0.15044672671E+03  0.15044672671E+03  0.00000000000E+00 0. -1.
         21   -1    0    0  501  502 -0.00000000000E+00 -0.00000000000E+00 -0.80273758894E+02  0.80273758894E+02  0.00000000000E+00 0.  1.
         21    1    1    2  503  502  0.32396206478E+02  0.78102633891E+01 -0.74841997013E+02  0.81925813547E+02  0.00000000000E+00 0.  1.
         21    1    1    2  504  503 -0.32396206478E+02 -0.78102633891E+01  0.14501496483E+03  0.14879467206E+03  0.00000000000E+00 0. -1.
<mgrwt>
<rscale>  2 0.33324382E+02</rscale>
<asrwt>0</asrwt>
<pdfrwt beam="1">  1       21 0.23145650E-01 0.33324382E+02</pdfrwt>
<pdfrwt beam="2">  1       21 0.12349809E-01 0.33324382E+02</pdfrwt>
<totfact> 0.93687384E+05</totfact>
</mgrwt>
</event>
<event>
 4    1  0.4438654E+006  0.2014738E+02  0.7546771E-02  0.1742413E+00
         21   -1    0    0  504  501  0.00000000000E+00  0.00000000000E+00  0.54927368422E+02  0.54927368422E+02  0.00000000000E+00 0. -1.
         21   -1    0    0  503  502 -0.00000000000E+00 -0.00000000000E+00 -0.90561822862E+01  0.90561822862E+01  0.00000000000E+00 0. -1.
         21    1    1    2  503  501  0.20016947664E+02 -0.22888202536E+01  0.92135624152E+01  0.22154155915E+02  0.00000000000E+00 0. -1.
         21    1    1    2  504  502 -0.20016947664E+02  0.22888202536E+01  0.36657623720E+02  0.41829394793E+02  0.00000000000E+00 0. -1.
<mgrwt>
<rscale>  2 0.20147379E+02</rscale>
<asrwt>0</asrwt>
<pdfrwt beam="1">  1       21 0.84503642E-02 0.20147379E+02</pdfrwt>
<pdfrwt beam="2">  1       21 0.13932588E-02 0.20147379E+02</pdfrwt>
<totfact> 0.15327241E+08</totfact>
</mgrwt>
</event>
<event>
 4    1  0.4438654E+006  0.2076544E+02  0.7546771E-02  0.1730521E+00
         21   -1    0    0  504  501  0.00000000000E+00  0.00000000000E+00  0.13909170537E+03  0.13909170537E+03  0.00000000000E+00 0. -1.
         21   -1    0    0  501  502 -0.00000000000E+00 -0.00000000000E+00 -0.13723981437E+03  0.13723981437E+03  0.00000000000E+00 0. -1.
         21    1    1    2  503  502  0.63646884381E+01  0.19765989564E+02 -0.13567037301E+03  0.13725033229E+03  0.00000000000E+00 0. -1.
         21    1    1    2  504  503 -0.63646884381E+01 -0.19765989564E+02  0.13752226401E+03  0.13908118745E+03  0.00000000000E+00 0. -1.
<mgrwt>
<rscale>  2 0.20765443E+02</rscale>
<asrwt>0</asrwt>
<pdfrwt beam="1">  1       21 0.21398724E-01 0.20765443E+02</pdfrwt>
<pdfrwt beam="2">  1       21 0.21113818E-01 0.20765443E+02</pdfrwt>
<totfact> 0.41441754E+05</totfact>
</mgrwt>
</event>
<event>
 4    1  0.4438654E+006  0.2318191E+02  0.7546771E-02  0.1688578E+00
         21   -1    0    0  503  501  0.00000000000E+00  0.00000000000E+00  0.15596821786E+03  0.15596821786E+03  0.00000000000E+00 0. -1.
         21   -1    0    0  504  502 -0.00000000000E+00 -0.00000000000E+00 -0.43921197951E+01  0.43921197951E+01  0.00000000000E+00 0. -1.
         21    1    1    2  503  502  0.19988342938E+02 -0.11741687070E+02  0.38566094469E+02  0.44997163369E+02  0.00000000000E+00 0. -1.
         21    1    1    2  504  501 -0.19988342938E+02  0.11741687070E+02  0.11301000360E+03  0.11536317429E+03  0.00000000000E+00 0. -1.
<mgrwt>
<rscale>  2 0.23181913E+02</rscale>
<asrwt>0</asrwt>
<pdfrwt beam="1">  1       21 0.23995106E-01 0.23181913E+02</pdfrwt>
<pdfrwt beam="2">  1       21 0.67571086E-03 0.23181913E+02</pdfrwt>
<totfact> 0.80460633E+07</totfact>
</mgrwt>
</event>
<event>
 4    1  0.4438654E+006  0.2104072E+02  0.7546771E-02  0.1725390E+00
         21   -1    0    0  504  501  0.00000000000E+00  0.00000000000E+00  0.48109017084E+03  0.48109017084E+03  0.00000000000E+00 0.  1.
         21   -1    0    0  503  502 -0.00000000000E+00 -0.00000000000E+00 -0.50756318338E+02  0.50756318338E+02  0.00000000000E+00 0.  1.
         21    1    1    2  503  501  0.14970155233E+02 -0.14785348505E+02  0.47866851139E+03  0.47913072942E+03  0.00000000000E+00 0.  1.
         21    1    1    2  504  502 -0.14970155233E+02  0.14785348505E+02 -0.48334658882E+02  0.52715759763E+02  0.00000000000E+00 0.  1.
<mgrwt>
<rscale>  2 0.21040724E+02</rscale>
<asrwt>0</asrwt>
<pdfrwt beam="1">  1       21 0.74013869E-01 0.21040724E+02</pdfrwt>
<pdfrwt beam="2">  1       21 0.78086647E-02 0.21040724E+02</pdfrwt>
<totfact> 0.21233343E+05</totfact>
</mgrwt>
</event>
<event>
 4    1  0.4438654E+006  0.2973703E+02  0.7546771E-02  0.1601014E+00
         21   -1    0    0  504  501  0.00000000000E+00  0.00000000000E+00  0.12486797993E+02  0.12486797993E+02  0.00000000000E+00 0. -1.
         21   -1    0    0  503  502 -0.00000000000E+00 -0.00000000000E+00 -0.71459814657E+02  0.71459814657E+02  0.00000000000E+00 0. -1.
         21    1    1    2  503  501  0.25505253665E+02 -0.15289629703E+02 -0.33464177044E+02  0.44767643295E+02  0.00000000000E+00 0. -1.
         21    1    1    2  504  502 -0.25505253665E+02  0.15289629703E+02 -0.25508839620E+02  0.39178969355E+02  0.00000000000E+00 0. -1.
<mgrwt>
<rscale>  2 0.29737026E+02</rscale>
<asrwt>0</asrwt>
<pdfrwt beam="1">  1       21 0.19210458E-02 0.29737026E+02</pdfrwt>
<pdfrwt beam="2">  1       21 0.10993818E-01 0.29737026E+02</pdfrwt>
<totfact> 0.67553491E+07</totfact>
</mgrwt>
</event>
<event>
 4    1  0.4438654E+006  0.2210604E+02  0.7546771E-02  0.1706425E+00
         21   -1    0    0  504  501  0.00000000000E+00  0.00000000000E+00  0.21331627310E+01  0.21331627310E+01  0.00000000000E+00 0. -1.
         21   -1    0    0  501  502 -0.00000000000E+00 -0.00000000000E+00 -0.22915865372E+03  0.22915865372E+03  0.00000000000E+00 0. -1.
         21    1    1    2  503  502  0.21409567585E+02  0.55052194487E+01 -0.11144898878E+03  0.11362021882E+03  0.00000000000E+00 0. -1.
         21    1    1    2  504  503 -0.21409567585E+02 -0.55052194487E+01 -0.11557650221E+03  0.11767159763E+03  0.00000000000E+00 0. -1.
<mgrwt>
<rscale>  2 0.22106040E+02</rscale>
<asrwt>0</asrwt>
<pdfrwt beam="1">  1       21 0.32817887E-03 0.22106040E+02</pdfrwt>
<pdfrwt beam="2">  1       21 0.35255179E-01 0.22106040E+02</pdfrwt>
<totfact> 0.11453851E+08</totfact>
</mgrwt>
</event>
<event>
 4    1  0.4438654E+006  0.2012630E+02  0.7546771E-02  0.1742828E+00
         21   -1    0    0  503  501  0.00000000000E+00  0.00000000000E+00  0.12680927709E+02  0.12680927709E+02  0.00000000000E+00 0. -1.
         21   -1    0    0  504  502 -0.00000000000E+00 -0.00000000000E+00 -0.31966448843E+02  0.31966448843E+02  0.00000000000E+00 0. -1.
         21    1    1    2  503  502  0.18796831190E+02  0.71935421797E+01 -0.10246320020E+02  0.22584396955E+02  0.00000000000E+00 0. -1.
         21    1    1    2  504  501 -0.18796831190E+02 -0.71935421797E+01 -0.90392011145E+01  0.22062979596E+02  0.00000000000E+00 0. -1.
<mgrwt>
<rscale>  2 0.20126299E+02</rscale>
<asrwt>0</asrwt>
<pdfrwt beam="1">  1       21 0.19509120E-02 0.20126299E+02</pdfrwt>
<pdfrwt beam="2">  1       21 0.49179151E-02 0.20126299E+02</pdfrwt>
<totfact> 0.21907118E+08</totfact>
</mgrwt>
</event>
<event>
 4    1  0.4438654E+006  0.2159012E+02  0.7546771E-02  0.1715439E+00
         21   -1    0    0  503  501  0.00000000000E+00  0.00000000000E+00  0.46210180379E+01  0.46210180379E+01  0.00000000000E+00 0.  1.
         21   -1    0    0  501  502 -0.00000000000E+00 -0.00000000000E+00 -0.40133156345E+03  0.40133156345E+03  0.00000000000E+00 0.  1.
         21    1    1    2  503  504 -0.21068324857E+02  0.47179390231E+01 -0.22730260462E+02  0.31349609273E+02  0.00000000000E+00 0.  1.
         21    1    1    2  504  502  0.21068324857E+02 -0.47179390231E+01 -0.37398028495E+03  0.37460297221E+03  0.00000000000E+00 0.  1.
<mgrwt>
<rscale>  2 0.21590120E+02</rscale>
<asrwt>0</asrwt>
<pdfrwt beam="1">  1       21 0.71092571E-03 0.21590120E+02</pdfrwt>
<pdfrwt beam="2">  1       21 0.61743330E-01 0.21590120E+02</pdfrwt>
<totfact> 0.12441391E+07</totfact>
</mgrwt>
</event>
<event>
 4    1  0.4438654E+006  0.2150147E+02  0.7546771E-02  0.1717019E+00
         21   -1    0    0  504  501  0.00000000000E+00  0.00000000000E+00  0.19422201104E+03  0.19422201104E+03  0.00000000000E+00 0. -1.
         21   -1    0    0  503  502 -0.00000000000E+00 -0.00000000000E+00 -0.26282956636E+01  0.26282956636E+01  0.00000000000E+00 0. -1.
         21    1    1    2  503  501  0.21497707055E+02 -0.40244337836E+00  0.65565284150E+02  0.69000868509E+02  0.00000000000E+00 0. -1.
         21    1    1    2  504  502 -0.21497707055E+02  0.40244337836E+00  0.12602843122E+03  0.12784943819E+03  0.00000000000E+00 0. -1.
<mgrwt>
<rscale>  2 0.21501474E+02</rscale>
<asrwt>0</asrwt>
<pdfrwt beam="1">  1       21 0.29880298E-01 0.21501474E+02</pdfrwt>
<pdfrwt beam="2">  1       21 0.40435333E-03 0.21501474E+02</pdfrwt>
<totfact> 0.11343178E+08</totfact>
</mgrwt>
</event>
<event>
 4    1  0.4438654E+006  0.2178461E+02  0.7546771E-02  0.1712004E+00
         21   -1    0    0  504  501  0.00000000000E+00  0.00000000000E+00  0.15985628098E+01  0.15985628098E+01  0.00000000000E+00 0. -1.
         21   -1    0    0  503  502 -0.00000000000E+00 -0.00000000000E+00 -0.38259430254E+03  0.38259430254E+03  0.00000000000E+00 0. -1.
         21    1    1    2  503  501 -0.21780838383E+02  0.40559367713E+00 -0.28142543398E+03  0.28226732775E+03  0.00000000000E+00 0. -1.
         21    1    1    2  504  502  0.21780838383E+02 -0.40559367713E+00 -0.99570305755E+02  0.10192553760E+03  0.00000000000E+00 0. -1.
<mgrwt>
<rscale>  2 0.21784614E+02</rscale>
<asrwt>0</asrwt>
<pdfrwt beam="1">  1       21 0.24593272E-03 0.21784614E+02</pdfrwt>
<pdfrwt beam="2">  1       21 0.58860666E-01 0.21784614E+02</pdfrwt>
<totfact> 0.64999483E+07</totfact>
</mgrwt>
</event>
<event>
 4    1  0.4438654E+006  0.3242376E+02  0.7546771E-02  0.1572745E+00
         21   -1    0    0  503  501  0.00000000000E+00  0.00000000000E+00  0.29378599285E+02  0.29378599285E+02  0.00000000000E+00 0. -1.
         21   -1    0    0  501  502 -0.00000000000E+00 -0.00000000000E+00 -0.12193843315E+03  0.12193843315E+03  0.00000000000E+00 0.  1.
         21    1    1    2  503  504 -0.31591789930E+02 -0.72978750954E+01  0.17315369035E+02  0.36757613861E+02  0.00000000000E+00 0. -1.
         21    1    1    2  504  502  0.31591789930E+02  0.72978750954E+01 -0.10987520290E+03  0.11455941858E+03  0.00000000000E+00 0.  1.
<mgrwt>
<rscale>  2 0.32423759E+02</rscale>
<asrwt>0</asrwt>
<pdfrwt beam="1">  1       21 0.45197844E-02 0.32423759E+02</pdfrwt>
<pdfrwt beam="2">  1       21 0.18759759E-01 0.32423759E+02</pdfrwt>
<totfact> 0.71259095E+06</totfact>
</mgrwt>
</event>
<event>
 4    1  0.4438654E+006  0.4609350E+02  0.7546771E-02  0.1467628E+00
         21   -1    0    0  503  501  0.00000000000E+00  0.00000000000E+00  0.18556565535E+02  0.18556565535E+02  0.00000000000E+00 0. -1.
         21   -1    0    0  504  502 -0.00000000000E+00 -0.00000000000E+00 -0.11499402039E+03  0.11499402039E+03  0.00000000000E+00 0. -1.
         21    1    1    2  503  502  0.19109681653E+02  0.41945567080E+02 -0.43814332071E+02  0.63594860055E+02  0.00000000000E+00 0. -1.
         21    1    1    2  504  501 -0.19109681653E+02 -0.41945567080E+02 -0.52623122787E+02  0.69955725873E+02  0.00000000000E+00 0. -1.
<mgrwt>
<rscale>  2 0.46093498E+02</rscale>
<asrwt>0</asrwt>
<pdfrwt beam="1">  1       21 0.28548562E-02 0.46093498E+02</pdfrwt>
<pdfrwt beam="2">  1       21 0.17691388E-01 0.46093498E+02</pdfrwt>
<totfact> 0.17309029E+07</totfact>
</mgrwt>
</event>
<event>
 4    1  0.4438654E+006  0.2293946E+02  0.7546771E-02  0.1692493E+00
         21   -1    0    0  504  501  0.00000000000E+00  0.00000000000E+00  0.15329818566E+02  0.15329818566E+02  0.00000000000E+00 0. -1.
         21   -1    0    0  503  502 -0.00000000000E+00 -0.00000000000E+00 -0.31974607465E+03  0.31974607465E+03  0.00000000000E+00 0.  1.
         21    1    1    2  503  501  0.46987343026E+01  0.22453074901E+02  0.60815047887E+01  0.23731906309E+02  0.00000000000E+00 0. -1.
         21    1    1    2  504  502 -0.46987343026E+01 -0.22453074901E+02 -0.31049776087E+03  0.31134398690E+03  0.00000000000E+00 0.  1.
<mgrwt>
<rscale>  2 0.22939457E+02</rscale>
<asrwt>0</asrwt>
<pdfrwt beam="1">  1       21 0.23584338E-02 0.22939457E+02</pdfrwt>
<pdfrwt beam="2">  1       21 0.49191700E-01 0.22939457E+02</pdfrwt>
<totfact> 0.32065720E+06</totfact>
</mgrwt>
</event>
<event>
 4    1  0.4438654E+006  0.2335964E+02  0.7546771E-02  0.1685746E+00
         21   -1    0    0  503  501  0.00000000000E+00  0.00000000000E+00  0.20804514852E+03  0.20804514852E+03  0.00000000000E+00 0. -1.
         21   -1    0    0  504  502 -0.00000000000E+00 -0.00000000000E+00 -0.75156548986E+01  0.75156548986E+01  0.00000000000E+00 0. -1.
         21    1    1    2  503  502 -0.15763312626E+02 -0.17239218743E+02  0.18722784796E+03  0.18867946295E+03  0.00000000000E+00 0. -1.
         21    1    1    2  504  501  0.15763312626E+02  0.17239218743E+02  0.13301645654E+02  0.26881340460E+02  0.00000000000E+00 0. -1.
<mgrwt>
<rscale>  2 0.23359638E+02</rscale>
<asrwt>0</asrwt>
<pdfrwt beam="1">  1       21 0.32006942E-01 0.23359638E+02</pdfrwt>
<pdfrwt beam="2">  1       21 0.11562548E-02 0.23359638E+02</pdfrwt>
<totfact> 0.21442757E+07</totfact>
</mgrwt>
</event>
<event>
 4    1  0.4438654E+006  0.2237517E+02  0.7546771E-02  0.1701843E+00
         21   -1    0    0  504  501  0.00000000000E+00  0.00000000000E+00  0.71447804479E+01  0.71447804479E+01  0.00000000000E+00 0.  1.
         21   -1    0    0  503  502 -0.00000000000E+00 -0.00000000000E+00 -0.21497126258E+03  0.21497126258E+03  0.00000000000E+00 0. -1.
         21    1    1    2  503  501 -0.21159506840E+02  0.72748501096E+01 -0.19509185822E+03  0.19637077511E+03  0.00000000000E+00 0. -1.
         21    1    1    2  504  502  0.21159506840E+02 -0.72748501096E+01 -0.12734623907E+02  0.25745267912E+02  0.00000000000E+00 0.  1.
<mgrwt>
<rscale>  2 0.22375169E+02</rscale>
<asrwt>0</asrwt>
<pdfrwt beam="1">  1       21 0.10991969E-02 0.22375169E+02</pdfrwt>
<pdfrwt beam="2">  1       21 0.33072504E-01 0.22375169E+02</pdfrwt>
<totfact> 0.21590455E+07</totfact>
</mgrwt>
</event>
<event>
 4    1  0.4438654E+006  0.3058144E+02  0.7546771E-02  0.1591749E+00
         21   -1    0    0  504  501  0.00000000000E+00  0.00000000000E+00  0.16478523895E+03  0.16478523895E+03  0.00000000000E+00 0. -1.
         21   -1    0    0  501  502 -0.00000000000E+00 -0.00000000000E+00 -0.12527914907E+02  0.12527914907E+02  0.00000000000E+00 0. -1.
         21    1    1    2  503  502 -0.63983106748E+01  0.29904614717E+02  0.10560028944E+02  0.32353339428E+02  0.00000000000E+00 0. -1.
         21    1    1    2  504  503  0.63983106748E+01 -0.29904614717E+02  0.14169729510E+03  0.14495981443E+03  0.00000000000E+00 0. -1.
<mgrwt>
<rscale>  2 0.30581438E+02</rscale>
<asrwt>0</asrwt>
<pdfrwt beam="1">  1       21 0.25351574E-01 0.30581438E+02</pdfrwt>
<pdfrwt beam="2">  1       21 0.19273716E-02 0.30581438E+02</pdfrwt>
<totfact> 0.15804941E+07</totfact>
</mgrwt>
</event>
<event>
 4    1  0.4438654E+006  0.2791450E+02  0.7546771E-02  0.1622355E+00
         21   -1    0    0  504  501  0.00000000000E+00  0.00000000000E+00  0.84945766055E+03  0.84945766055E+03  0.00000000000E+00 0. -1.
         21   -1    0    0  501  502 -0.00000000000E+00 -0.00000000000E+00 -0.77669322830E+01  0.77669322830E+01  0.00000000000E+00 0.  1.
         21    1    1    2  503  502  0.26841283358E+02  0.76658125287E+01  0.18338713701E+02  0.33399514880E+02  0.00000000000E+00 0.  1.
         21    1    1    2  504  503 -0.26841283358E+02 -0.76658125287E+01  0.82335201456E+03  0.82382507795E+03  0.00000000000E+00 0. -1.
<mgrwt>
<rscale>  2 0.27914498E+02</rscale>
<asrwt>0</asrwt>
<pdfrwt beam="1">  1       21 0.13068572E+00 0.27914498E+02</pdfrwt>
<pdfrwt beam="2">  1       21 0.11949133E-02 0.27914498E+02</pdfrwt>
<totfact> 0.11719983E+06</totfact>
</mgrwt>
</event>
<event>
 4    1  0.4438654E+006  0.2382297E+02  0.7546771E-02  0.1678507E+00
         21   -1    0    0  502  501  0.00000000000E+00  0.00000000000E+00  0.40426287060E+03  0.40426287060E+03  0.00000000000E+00 0.  1.
         21   -1    0    0  503  502 -0.00000000000E+00 -0.00000000000E+00 -0.28436214628E+01  0.28436214628E+01  0.00000000000E+00 0.  1.
         21    1    1    2  503  504 -0.23386769715E+02  0.45379446438E+01  0.55870672514E+02  0.60737681768E+02  0.00000000000E+00 0.  1.
         21    1    1    2  504  501  0.23386769715E+02 -0.45379446438E+01  0.34554857662E+03  0.34636881030E+03  0.00000000000E+00 0.  1.
<mgrwt>
<rscale>  2 0.23822971E+02</rscale>
<asrwt>0</asrwt>
<pdfrwt beam="1">  1       21 0.62194242E-01 0.23822971E+02</pdfrwt>
<pdfrwt beam="2">  1       21 0.43748055E-03 0.23822971E+02</pdfrwt>
<totfact> 0.25626335E+07</totfact>
</mgrwt>
</event>
<event>
 4    1  0.4438654E+006  0.2253293E+02  0.7546771E-02  0.1699195E+00
         21   -1    0    0  503  501  0.00000000000E+00  0.00000000000E+00  0.87249873814E+02  0.87249873814E+02  0.00000000000E+00 0.  1.
         21   -1    0    0  504  502 -0.00000000000E+00 -0.00000000000E+00 -0.22734663938E+02  0.22734663938E+02  0.00000000000E+00 0. -1.
         21    1    1    2  503  502 -0.19073265696E+02  0.11997644587E+02 -0.15177304826E+02  0.27167692609E+02  0.00000000000E+00 0. -1.
         21    1    1    2  504  501  0.19073265696E+02 -0.11997644587E+02  0.79692514702E+02  0.82816845143E+02  0.00000000000E+00 0.  1.
<mgrwt>
<rscale>  2 0.22532930E+02</rscale>
<asrwt>0</asrwt>
<pdfrwt beam="1">  1       21 0.13423057E-01 0.22532930E+02</pdfrwt>
<pdfrwt beam="2">  1       21 0.34976407E-02 0.22532930E+02</pdfrwt>
<totfact> 0.17846678E+07</totfact>
</mgrwt>
</event>
<event>
 4    1  0.4438654E+006  0.2706551E+02  0.7546771E-02  0.1632992E+00
         21   -1    0    0  502  501  0.00000000000E+00  0.00000000000E+00  0.12314385450E+02  0.12314385450E+02  0.00000000000E+00 0. -1.
         21   -1    0    0  503  502 -0.00000000000E+00 -0.00000000000E+00 -0.59888811545E+02  0.59888811545E+02  0.00000000000E+00 0. -1.
         21    1    1    2  503  504  0.15451629435E+02 -0.22221367172E+02 -0.20828975320E+02  0.34152426328E+02  0.00000000000E+00 0. -1.
         21    1    1    2  504  501 -0.15451629435E+02  0.22221367172E+02 -0.26745450775E+02  0.38050770667E+02  0.00000000000E+00 0. -1.
<mgrwt>
<rscale>  2 0.27065513E+02</rscale>
<asrwt>0</asrwt>
<pdfrwt beam="1">  1       21 0.18945208E-02 0.27065513E+02</pdfrwt>
<pdfrwt beam="2">  1       21 0.92136634E-02 0.27065513E+02</pdfrwt>
<totfact> 0.90554794E+07</totfact>
</mgrwt>
</event>
<event>
 4    1  0.4438654E+006  0.2923668E+02  0.7546771E-02  0.1606683E+00
         21   -1    0    0  503  501  0.00000000000E+00  0.00000000000E+00  0.17996210650E+01  0.17996210650E+01  0.00000000000E+00 0.  1.
         21   -1    0    0  501  502 -0.00000000000E+00 -0.00000000000E+00 -0.65444089810E+03  0.65444089810E+03  0.00000000000E+00 0. -1.
         21    1    1    2  503  504  0.77873278670E+01  0.28180510021E+02 -0.15449695972E+03  0.15723897158E+03  0.00000000000E+00 0.  1.
         21    1    1    2  504  502 -0.77873278670E+01 -0.28180510021E+02 -0.49814431731E+03  0.49900154758E+03  0.00000000000E+00 0. -1.
<mgrwt>
<rscale>  2 0.29236683E+02</rscale>
<asrwt>0</asrwt>
<pdfrwt beam="1">  1       21 0.27686448E-03 0.29236683E+02</pdfrwt>
<pdfrwt beam="2">  1       21 0.10068332E+00 0.29236683E+02</pdfrwt>
<totfact> 0.18857715E+07</totfact>
</mgrwt>
</event>
<event>
 4    1  0.4438654E+006  0.2012455E+02  0.7546771E-02  0.1742862E+00
         21   -1    0    0  502  501  0.00000000000E+00  0.00000000000E+00  0.33474535983E+02  0.33474535983E+02  0.00000000000E+00 0.  1.
         21   -1    0    0  504  502 -0.00000000000E+00 -0.00000000000E+00 -0.14654580358E+02  0.14654580358E+02  0.00000000000E+00 0. -1.
         21    1    1    2  503  501 -0.14155284744E+02  0.14304740364E+02  0.19459911564E+02  0.27994389458E+02  0.00000000000E+00 0.  1.
         21    1    1    2  504  503  0.14155284744E+02 -0.14304740364E+02 -0.63995593940E+00  0.20134726883E+02  0.00000000000E+00 0. -1.
<mgrwt>
<rscale>  2 0.20124554E+02</rscale>
<asrwt>0</asrwt>
<pdfrwt beam="1">  1       21 0.51499286E-02 0.20124554E+02</pdfrwt>
<pdfrwt beam="2">  1       21 0.22545508E-02 0.20124554E+02</pdfrwt>
<totfact> 0.16323173E+08</totfact>
</mgrwt>
</event>
<event>
 4    1  0.4438654E+006  0.2543965E+02  0.7546771E-02  0.1654766E+00
         21   -1    0    0  504  501  0.00000000000E+00  0.00000000000E+00  0.84184389696E+03  0.84184389696E+03  0.00000000000E+00 0.  1.
         21   -1    0    0  503  502 -0.00000000000E+00 -0.00000000000E+00 -0.29309346689E+01  0.29309346689E+01  0.00000000000E+00 0. -1.
         21    1    1    2  503  501  0.90174530710E+01  0.23787844762E+02  0.56668177515E+02  0.62116490251E+02  0.00000000000E+00 0. -1.
         21    1    1    2  504  502 -0.90174530710E+01 -0.23787844762E+02  0.78224478477E+03  0.78265834137E+03  0.00000000000E+00 0.  1.
<mgrwt>
<rscale>  2 0.25439654E+02</rscale>
<asrwt>0</asrwt>
<pdfrwt beam="1">  1       21 0.12951425E+00 0.25439654E+02</pdfrwt>
<pdfrwt beam="2">  1       21 0.45091370E-03 0.25439654E+02</pdfrwt>
<totfact> 0.51041735E+06</totfact>
</mgrwt>
</event>
<event>
 4    1  0.4438654E+006  0.2352993E+02  0.7546771E-02  0.1683061E+00
         21   -1    0    0  504  501  0.00000000000E+00  0.00000000000E+00  0.18523926922E+03  0.18523926922E+03  0.00000000000E+00 0.  1.
         21   -1    0    0  503  502 -0.00000000000E+00 -0.00000000000E+00 -0.52158404305E+02  0.52158404305E+02  0.00000000000E+00 0. -1.
         21    1    1    2  503  501  0.18898372335E+02 -0.14018175676E+02 -0.48707282506E+02  0.54093041098E+02  0.00000000000E+00 0. -1.
         21    1    1    2  504  502 -0.18898372335E+02  0.14018175676E+02  0.18178814742E+03  0.18330463243E+03  0.00000000000E+00 0.  1.
<mgrwt>
<rscale>  2 0.23529933E+02</rscale>
<asrwt>0</asrwt>
<pdfrwt beam="1">  1       21 0.28498349E-01 0.23529933E+02</pdfrwt>
<pdfrwt beam="2">  1       21 0.80243700E-02 0.23529933E+02</pdfrwt>
<totfact> 0.12835745E+06</totfact>
</mgrwt>
</event>
<event>
 4    1  0.4438654E+006  0.2088197E+02  0.7546771E-02  0.1728337E+00
         21   -1    0    0  502  501  0.00000000000E+00  0.00000000000E+00  0.66428454131E+01  0.66428454131E+01  0.00000000000E+00 0. -1.
         21   -1    0    0  504  502 -0.00000000000E+00 -0.00000000000E+00 -0.15201229349E+03  0.15201229349E+03  0.00000000000E+00 0.  1.
         21    1    1    2  503  501  0.20619022234E+02 -0.33034058964E+01 -0.12889792263E+02  0.24539831153E+02  0.00000000000E+00 0. -1.
         21    1    1    2  504  503 -0.20619022234E+02  0.33034058964E+01 -0.13247965581E+03  0.13411530775E+03  0.00000000000E+00 0.  1.
<mgrwt>
<rscale>  2 0.20881968E+02</rscale>
<asrwt>0</asrwt>
<pdfrwt beam="1">  1       21 0.10219763E-02 0.20881968E+02</pdfrwt>
<pdfrwt beam="2">  1       21 0.23386505E-01 0.20881968E+02</pdfrwt>
<totfact> 0.44209000E+07</totfact>
</mgrwt>
</event>
<event>
 4    1  0.4438654E+006  0.2209094E+02  0.7546771E-02  0.1706684E+00
         21   -1    0    0  503  501  0.00000000000E+00  0.00000000000E+00  0.26246433640E+02  0.26246433640E+02  0.00000000000E+00 0.  1.
         21   -1    0    0  501  502 -0.00000000000E+00 -0.00000000000E+00 -0.14117104859E+03  0.14117104859E+03  0.00000000000E+00 0. -1.
         21    1    1    2  503  504 -0.16245368962E+02 -0.14969895628E+02  0.20539322368E+02  0.30164110316E+02  0.00000000000E+00 0.  1.
         21    1    1    2  504  502  0.16245368962E+02  0.14969895628E+02 -0.13546393731E+03  0.13725337191E+03  0.00000000000E+00 0. -1.
<mgrwt>
<rscale>  2 0.22090944E+02</rscale>
<asrwt>0</asrwt>
<pdfrwt beam="1">  1       21 0.40379129E-02 0.22090944E+02</pdfrwt>
<pdfrwt beam="2">  1       21 0.21718623E-01 0.22090944E+02</pdfrwt>
<totfact> 0.62037855E+06</totfact>
</mgrwt>
</event>
<event>
 4    1  0.4438654E+006  0.2233607E+02  0.7546771E-02  0.1702504E+00
         21   -1    0    0  503  501  0.00000000000E+00  0.00000000000E+00  0.24282421168E+02  0.24282421168E+02  0.00000000000E+00 0. -1.
         21   -1    0    0  504  502 -0.00000000000E+00 -0.00000000000E+00 -0.21574018976E+02  0.21574018976E+02  0.00000000000E+00 0. -1.
         21    1    1    2  503  502  0.60605093286E+01 -0.21498147794E+02  0.63598669657E+01  0.23223867889E+02  0.00000000000E+00 0. -1.
         21    1    1    2  504  501 -0.60605093286E+01  0.21498147794E+02 -0.36514647739E+01  0.22632572255E+02  0.00000000000E+00 0. -1.
<mgrwt>
<rscale>  2 0.22336072E+02</rscale>
<asrwt>0</asrwt>
<pdfrwt beam="1">  1       21 0.37357571E-02 0.22336072E+02</pdfrwt>
<pdfrwt beam="2">  1       21 0.33190798E-02 0.22336072E+02</pdfrwt>
<totfact> 0.15383003E+08</totfact>
</mgrwt>
</event>
<event>
 4    1  0.4438654E+006  0.3372172E+02  0.7546771E-02  0.1560254E+00
         21   -1    0    0  504  501  0.00000000000E+00  0.00000000000E+00  0.18611930877E+02  0.18611930877E+02  0.00000000000E+00 0. -1.
         21   -1    0    0  503  502 -0.00000000000E+00 -0.00000000000E+00 -0.26287123873E+03  0.26287123873E+03  0.00000000000E+00 0. -1.
         21    1    1    2  503  501 -0.33673023298E+02 -0.18116607782E+01 -0.24543517374E+03  0.24774095164E+03  0.00000000000E+00 0. -1.
         21    1    1    2  504  502  0.33673023298E+02  0.18116607782E+01  0.11758658822E+01  0.33742217968E+02  0.00000000000E+00 0. -1.
<mgrwt>
<rscale>  2 0.33721723E+02</rscale>
<asrwt>0</asrwt>
<pdfrwt beam="1">  1       21 0.28633740E-02 0.33721723E+02</pdfrwt>
<pdfrwt beam="2">  1       21 0.40441729E-01 0.33721723E+02</pdfrwt>
<totfact> 0.36238766E+06</totfact>
</mgrwt>
</event>
<event>
 4    1  0.4438654E+006  0.2928218E+02  0.7546771E-02  0.1606161E+00
         21   -1    0    0  503  501  0.00000000000E+00  0.00000000000E+00  0.23831334208E+04  0.23831334208E+04  0.00000000000E+00 0. -1.
         21   -1    0    0  504  502 -0.00000000000E+00 -0.00000000000E+00 -0.74118708047E+00  0.74118708047E+00  0.00000000000E+00 0. -1.
         21    1    1    2  503  502  0.11897975877E+02  0.26756016814E+02  0.33618116750E+03  0.33745403190E+03  0.00000000000E+00 0. -1.
         21    1    1    2  504  501 -0.11897975877E+02 -0.26756016814E+02  0.20462110663E+04  0.20464205760E+04  0.00000000000E+00 0. -1.
<mgrwt>
<rscale>  2 0.29282183E+02</rscale>
<asrwt>0</asrwt>
<pdfrwt beam="1">  1       21 0.36662978E+00 0.29282183E+02</pdfrwt>
<pdfrwt beam="2">  1       21 0.11403069E-03 0.29282183E+02</pdfrwt>
<totfact> 0.18491697E+06</totfact>
</mgrwt>
</event>
<event>
 4    1  0.4438654E+006  0.2885053E+02  0.7546771E-02  0.1611153E+00
         21   -1    0    0  504  501  0.00000000000E+00  0.00000000000E+00  0.17217910737E+02  0.17217910737E+02  0.00000000000E+00 0. -1.
         21   -1    0    0  503  502 -0.00000000000E+00 -0.00000000000E+00 -0.56329259854E+02  0.56329259854E+02  0.00000000000E+00 0. -1.
         21    1    1    2  503  501  0.27530273081E+02 -0.86276902148E+01 -0.33402824165E+02  0.44137304364E+02  0.00000000000E+00 0. -1.
         21    1    1    2  504  502 -0.27530273081E+02  0.86276902148E+01 -0.57085249518E+01  0.29409866226E+02  0.00000000000E+00 0. -1.
<mgrwt>
<rscale>  2 0.28850528E+02</rscale>
<asrwt>0</asrwt>
<pdfrwt beam="1">  1       21 0.26489093E-02 0.28850528E+02</pdfrwt>
<pdfrwt beam="2">  1       21 0.86660400E-02 0.28850528E+02</pdfrwt>
<totfact> 0.60533583E+07</totfact>
</mgrwt>
</event>
<event>
 4    1  0.4438654E+006  0.2865403E+02  0.7546771E-02  0.1613461E+00
         21   -1    0    0  504  501  0.00000000000E+00  0.00000000000E+00  0.34653125223E+03  0.34653125223E+03  0.00000000000E+00 0. -1.
         21   -1    0    0  503  502 -0.00000000000E+00 -0.00000000000E+00 -0.56098039293E+01  0.56098039293E+01  0.00000000000E+00 0.  1.
         21    1    1    2  503  501  0.28468086345E+02 -0.32590652679E+01  0.30427912139E+03  0.30562532153E+03  0.00000000000E+00 0. -1.
         21    1    1    2  504  502 -0.28468086345E+02  0.32590652679E+01  0.36642326908E+02  0.46515734626E+02  0.00000000000E+00 0.  1.
<mgrwt>
<rscale>  2 0.28654030E+02</rscale>
<asrwt>0</asrwt>
<pdfrwt beam="1">  1       21 0.53312484E-01 0.28654030E+02</pdfrwt>
<pdfrwt beam="2">  1       21 0.86304703E-03 0.28654030E+02</pdfrwt>
<totfact> 0.13109864E+07</totfact>
</mgrwt>
</event>
<event>
 4    1  0.4438654E+006  0.3513810E+02  0.7546771E-02  0.1547378E+00
         21   -1    0    0  503  501  0.00000000000E+00  0.00000000000E+00  0.27126692560E+03  0.27126692560E+03  0.00000000000E+00 0. -1.
         21   -1    0    0  504  502 -0.00000000000E+00 -0.00000000000E+00 -0.57987205998E+01  0.57987205998E+01  0.00000000000E+00 0.  1.
         21    1    1    2  503  502  0.29898137043E+02 -0.18460425901E+02  0.19698052015E+03  0.20009000785E+03  0.00000000000E+00 0. -1.
         21    1    1    2  504  501 -0.29898137043E+02  0.18460425901E+02  0.68487684845E+02  0.76975638345E+02  0.00000000000E+00 0.  1.
<mgrwt>
<rscale>  2 0.35138098E+02</rscale>
<asrwt>0</asrwt>
<pdfrwt beam="1">  1       21 0.41733363E-01 0.35138098E+02</pdfrwt>
<pdfrwt beam="2">  1       21 0.89211107E-03 0.35138098E+02</pdfrwt>
<totfact> 0.20797178E+07</totfact>
</mgrwt>
</event>
<event>
 4    1  0.4438654E+006  0.3414293E+02  0.7546771E-02  0.1556346E+00
         21   -1    0    0  504  501  0.00000000000E+00  0.00000000000E+00  0.25250048707E+02  0.25250048707E+02  0.00000000000E+00 0.  1.
         21   -1    0    0  503  502 -0.00000000000E+00 -0.00000000000E+00 -0.57155251859E+02  0.57155251859E+02  0.00000000000E+00 0. -1.
         21    1    1    2  503  501 -0.33910573949E+02  0.39765468693E+01  0.21126903870E+01  0.34208236014E+02  0.00000000000E+00 0.  1.
         21    1    1    2  504  502  0.33910573949E+02 -0.39765468693E+01 -0.34017893539E+02  0.48197064551E+02  0.00000000000E+00 0. -1.
<mgrwt>
<rscale>  2 0.34142934E+02</rscale>
<asrwt>0</asrwt>
<pdfrwt beam="1">  1       21 0.38846229E-02 0.34142934E+02</pdfrwt>
<pdfrwt beam="2">  1       21 0.87931157E-02 0.34142934E+02</pdfrwt>
<totfact> 0.33451024E+07</totfact>
</mgrwt>
</event>
<event>
 4    1  0.4438654E+006  0.2045214E+02  0.7546771E-02  0.1736483E+00
         21   -1    0    0  503  501  0.00000000000E+00  0.00000000000E+00  0.48460402882E+01  0.48460402882E+01  0.00000000000E+00 0. -1.
         21   -1    0    0  504  502 -0.00000000000E+00 -0.00000000000E+00 -0.11523900384E+03  0.11523900384E+03  0.00000000000E+00 0.  1.
         21    1    1    2  503  502  0.20282953064E+02  0.26252046993E+01 -0.85276792301E+02  0.87695046552E+02  0.00000000000E+00 0.  1.
         21    1    1    2  504  501 -0.20282953064E+02 -0.26252046993E+01 -0.25116171254E+02  0.32389997579E+02  0.00000000000E+00 0. -1.
<mgrwt>
<rscale>  2 0.20452136E+02</rscale>
<asrwt>0</asrwt>
<pdfrwt beam="1">  1       21 0.74554472E-03 0.20452136E+02</pdfrwt>
<pdfrwt beam="2">  1       21 0.17729076E-01 0.20452136E+02</pdfrwt>
<totfact> 0.11389082E+08</totfact>
</mgrwt>
</event>
<event>
 4    1  0.4438654E+006  0.2248325E+02  0.7546771E-02  0.1700026E+00
         21   -1    0    0  503  501  0.00000000000E+00  0.00000000000E+00  0.12617025811E+01  0.12617025811E+01  0.00000000000E+00 0. -1.
         21   -1    0    0  504  502 -0.00000000000E+00 -0.00000000000E+00 -0.69467669842E+03  0.69467669842E+03  0.00000000000E+00 0.  1.
         21    1    1    2  503  502 -0.79527970171E+01 -0.21029729278E+02 -0.57309140044E+03  0.57353225694E+03  0.00000000000E+00 0.  1.
         21    1    1    2  504  501  0.79527970171E+01  0.21029729278E+02 -0.12032359540E+03  0.12240614406E+03  0.00000000000E+00 0. -1.
<mgrwt>
<rscale>  2 0.22483249E+02</rscale>
<asrwt>0</asrwt>
<pdfrwt beam="1">  1       21 0.19410806E-03 0.22483249E+02</pdfrwt>
<pdfrwt beam="2">  1       21 0.10687336E+00 0.22483249E+02</pdfrwt>
<totfact> 0.26421123E+07</totfact>
</mgrwt>
</event>
<event>
 4    1  0.4438654E+006  0.2451429E+02  0.7546771E-02  0.1668078E+00
         21   -1    0    0  504  501  0.00000000000E+00  0.00000000000E+00  0.32632457688E+01  0.32632457688E+01  0.00000000000E+00 0.  1.
         21   -1    0    0  503  502 -0.00000000000E+00 -0.00000000000E+00 -0.19645667764E+03  0.19645667764E+03  0.00000000000E+00 0.  1.
         21    1    1    2  503  501 -0.21742188145E+02  0.11323763656E+02 -0.71610502887E+02  0.75690253615E+02  0.00000000000E+00 0.  1.
         21    1    1    2  504  502  0.21742188145E+02 -0.11323763656E+02 -0.12158292899E+03  0.12402966979E+03  0.00000000000E+00 0.  1.
<mgrwt>
<rscale>  2 0.24514289E+02</rscale>
<asrwt>0</asrwt>
<pdfrwt beam="1">  1       21 0.50203774E-03 0.24514289E+02</pdfrwt>
<pdfrwt beam="2">  1       21 0.30224108E-01 0.24514289E+02</pdfrwt>
<totfact> 0.83702625E+07</totfact>
</mgrwt>
</event>
<event>
 4    1  0.4438654E+006  0.4039455E+02  0.7546771E-02  0.1505328E+00
         21   -1    0    0  504  501  0.00000000000E+00  0.00000000000E+00  0.95725267804E+01  0.95725267804E+01  0.00000000000E+00 0.  1.
         21   -1    0    0  503  502 -0.00000000000E+00 -0.00000000000E+00 -0.20508205443E+03  0.20508205443E+03  0.00000000000E+00 0.  1.
         21    1    1    2  503  501  0.40327446194E+02 -0.23274308496E+01 -0.14185402498E+03  0.14749333630E+03  0.00000000000E+00 0.  1.
         21    1    1    2  504  502 -0.40327446194E+02  0.23274308496E+01 -0.53655502678E+02  0.67161244915E+02  0.00000000000E+00 0.  1.
<mgrwt>
<rscale>  2 0.40394552E+02</rscale>
<asrwt>0</asrwt>
<pdfrwt beam="1">  1       21 0.14726965E-02 0.40394552E+02</pdfrwt>
<pdfrwt beam="2">  1       21 0.31551083E-01 0.40394552E+02</pdfrwt>
<totfact> 0.16756021E+07</totfact>
</mgrwt>
</event>
<event>
 4    1  0.4438654E+006  0.4007129E+02  0.7546771E-02  0.1507687E+00
         21   -1    0    0  502  501  0.00000000000E+00  0.00000000000E+00  0.16975581809E+01  0.16975581809E+01  0.00000000000E+00 0. -1.
         21   -1    0    0  503  502 -0.00000000000E+00 -0.00000000000E+00 -0.26073910270E+04  0.26073910270E+04  0.00000000000E+00 0.  1.
         21    1    1    2  503  504 -0.35027633350E+02  0.19462097986E+02 -0.23442181776E+04  0.23445606353E+04  0.00000000000E+00 0.  1.
         21    1    1    2  504  501  0.35027633350E+02 -0.19462097986E+02 -0.26147529125E+03  0.26452794993E+03  0.00000000000E+00 0. -1.
<mgrwt>
<rscale>  2 0.40071291E+02</rscale>
<asrwt>0</asrwt>
<pdfrwt beam="1">  1       21 0.26116229E-03 0.40071291E+02</pdfrwt>
<pdfrwt beam="2">  1       21 0.40113786E+00 0.40071291E+02</pdfrwt>
<totfact> 0.34285319E+05</totfact>
</mgrwt>
</event>
<event>
 4    1  0.4438654E+006  0.2267940E+02  0.7546771E-02  0.1696760E+00
         21   -1    0    0  503  501  0.00000000000E+00  0.00000000000E+00  0.11257112638E+01  0.11257112638E+01  0.00000000000E+00 0.  1.
         21   -1    0    0  504  502 -0.00000000000E+00 -0.00000000000E+00 -0.64400380437E+03  0.64400380437E+03  0.00000000000E+00 0.  1.
         21    1    1    2  503  502  0.33744804961E+01 -0.22426953791E+02 -0.49529739722E+03  0.49581636426E+03  0.00000000000E+00 0.  1.
         21    1    1    2  504  501 -0.33744804961E+01  0.22426953791E+02 -0.14758069589E+03  0.14931315138E+03  0.00000000000E+00 0.  1.
<mgrwt>
<rscale>  2 0.22679404E+02</rscale>
<asrwt>0</asrwt>
<pdfrwt beam="1">  1       21 0.17318575E-03 0.22679404E+02</pdfrwt>
<pdfrwt beam="2">  1       21 0.99077850E-01 0.22679404E+02</pdfrwt>
<totfact> 0.36850745E+07</totfact>
</mgrwt>
</event>
<event>
 4    1  0.4438654E+006  0.2254771E+02  0.7546771E-02  0.1698948E+00
         21   -1    0    0  502  501  0.00000000000E+00  0.00000000000E+00  0.24602480316E+00  0.24602480316E+00  0.00000000000E+00 0. -1.
         21   -1    0    0  503  502 -0.00000000000E+00 -0.00000000000E+00 -0.23446850528E+04  0.23446850528E+04  0.00000000000E+00 0. -1.
         21    1    1    2  503  504 -0.22307845858E+02  0.32801442659E+01 -0.15761060511E+04  0.15762673262E+04  0.00000000000E+00 0. -1.
         21    1    1    2  504  501  0.22307845858E+02 -0.32801442659E+01 -0.76833297691E+03  0.76866375141E+03  0.00000000000E+00 0. -1.
<mgrwt>
<rscale>  2 0.22547712E+02</rscale>
<asrwt>0</asrwt>
<pdfrwt beam="1">  1       21 0.37851798E-04 0.22547712E+02</pdfrwt>
<pdfrwt beam="2">  1       21 0.36070336E+00 0.22547712E+02</pdfrwt>
<totfact> 0.96559631E+06</totfact>
</mgrwt>
</event>
<event>
 4    1  0.4438654E+006  0.2287142E+02  0.7546771E-02  0.1693603E+00
         21   -1    0    0  502  501  0.00000000000E+00  0.00000000000E+00  0.88271054069E+02  0.88271054069E+02  0.00000000000E+00 0. -1.
         21   -1    0    0  504  502 -0.00000000000E+00 -0.00000000000E+00 -0.24724482542E+02  0.24724482542E+02  0.00000000000E+00 0. -1.
         21    1    1    2  503  501 -0.12802577139E+02  0.18952460985E+02  0.81037107947E+02  0.84202818381E+02  0.00000000000E+00 0. -1.
         21    1    1    2  504  503  0.12802577139E+02 -0.18952460985E+02 -0.17490536420E+02  0.28792718230E+02  0.00000000000E+00 0. -1.
<mgrwt>
<rscale>  2 0.22871418E+02</rscale>
<asrwt>0</asrwt>
<pdfrwt beam="1">  1       21 0.13580162E-01 0.22871418E+02</pdfrwt>
<pdfrwt beam="2">  1       21 0.38037666E-02 0.22871418E+02</pdfrwt>
<totfact> 0.15390591E+07</totfact>
</mgrwt>
</event>
<event>
 4    1  0.4438654E+006  0.4292578E+02  0.7546771E-02  0.1487722E+00
         21   -1    0    0  504  501  0.00000000000E+00  0.00000000000E+00  0.59551167383E+02  0.59551167383E+02  0.00000000000E+00 0. -1.
         21   -1    0    0  503  502 -0.00000000000E+00 -0.00000000000E+00 -0.33449350181E+02  0.33449350181E+02  0.00000000000E+00 0. -1.
         21    1    1    2  503  501 -0.42157111096E+02 -0.80870720270E+01  0.31931412974E+00  0.42926969511E+02  0.00000000000E+00 0. -1.
         21    1    1    2  504  502  0.42157111096E+02  0.80870720270E+01  0.25782503072E+02  0.50073548053E+02  0.00000000000E+00 0. -1.
<mgrwt>
<rscale>  2 0.42925782E+02</rscale>
<asrwt>0</asrwt>
<pdfrwt beam="1">  1       21 0.91617180E-02 0.42925782E+02</pdfrwt>
<pdfrwt beam="2">  1       21 0.51460539E-02 0.42925782E+02</pdfrwt>
<totfact> 0.20647638E+07</totfact>
</mgrwt>
</event>
<event>
 4    1  0.4438654E+006  0.2325271E+02  0.7546771E-02  0.1687446E+00
         21   -1    0    0  504  501  0.00000000000E+00  0.00000000000E+00  0.13405526923E+03  0.13405526923E+03  0.00000000000E+00 0. -1.
         21   -1    0    0  503  502 -0.00000000000E+00 -0.00000000000E+00 -0.41054958579E+01  0.41054958579E+01  0.00000000000E+00 0. -1.
         21    1    1    2  503  501 -0.73112063308E+01  0.22073393734E+02  0.74133997297E+02  0.77695160751E+02  0.00000000000E+00 0. -1.
         21    1    1    2  504  502  0.73112063308E+01 -0.22073393734E+02  0.55815776078E+02  0.60465604340E+02  0.00000000000E+00 0. -1.
<mgrwt>
<rscale>  2 0.23252708E+02</rscale>
<asrwt>0</asrwt>
<pdfrwt beam="1">  1       21 0.20623884E-01 0.23252708E+02</pdfrwt>
<pdfrwt beam="2">  1       21 0.63161485E-03 0.23252708E+02</pdfrwt>
<totfact> 0.11625497E+08</totfact>
</mgrwt>
</event>
<event>
 4    1  0.4438654E+006  0.2001417E+02  0.7546771E-02  0.1745046E+00
         21   -1    0    0  502  501  0.00000000000E+00  0.00000000000E+00  0.13911647966E+02  0.13911647966E+02  0.00000000000E+00 0. -1.
         21   -1    0    0  504  502 -0.00000000000E+00 -0.00000000000E+00 -0.53311155463E+02  0.53311155463E+02  0.00000000000E+00 0.  1.
         21    1    1    2  503  501 -0.14793826444E+02 -0.13479972691E+02  0.30939981894E+01  0.20251908290E+02  0.00000000000E+00 0. -1.
         21    1    1    2  504  503  0.14793826444E+02  0.13479972691E+02 -0.42493505686E+02  0.46970895138E+02  0.00000000000E+00 0.  1.
<mgrwt>
<rscale>  2 0.20014169E+02</rscale>
<asrwt>0</asrwt>
<pdfrwt beam="1">  1       21 0.21402535E-02 0.20014169E+02</pdfrwt>
<pdfrwt beam="2">  1       21 0.82017162E-02 0.20014169E+02</pdfrwt>
<totfact> 0.83638751E+07</totfact>
</mgrwt>
</event>
<event>
 4    1  0.4438654E+006  0.2995113E+02  0.7546771E-02  0.1598629E+00
         21   -1    0    0  503  501  0.00000000000E+00  0.00000000000E+00  0.26443028279E+03  0.26443028279E+03  0.00000000000E+00 0. -1.
         21   -1    0    0  504  502 -0.00000000000E+00 -0.00000000000E+00 -0.92216787078E+01  0.92216787078E+01  0.00000000000E+00 0. -1.
         21    1    1    2  503  502 -0.11897352985E+02 -0.27486780397E+02  0.23638920229E+03  0.23827909070E+03  0.00000000000E+00 0. -1.
         21    1    1    2  504  501  0.11897352985E+02  0.27486780397E+02  0.18819401788E+02  0.35372870796E+02  0.00000000000E+00 0. -1.
<mgrwt>
<rscale>  2 0.29951129E+02</rscale>
<asrwt>0</asrwt>
<pdfrwt beam="1">  1       21 0.40681576E-01 0.29951129E+02</pdfrwt>
<pdfrwt beam="2">  1       21 0.14187200E-02 0.29951129E+02</pdfrwt>
<totfact> 0.10498023E+07</totfact>
</mgrwt>
</event>
<event>
 4    1  0.4438654E+006  0.2180502E+02  0.7546771E-02  0.1711646E+00
         21   -1    0    0  502  501  0.00000000000E+00  0.00000000000E+00  0.17883488414E+02  0.17883488414E+02  0.00000000000E+00 0. -1.
         21   -1    0    0  503  502 -0.00000000000E+00 -0.00000000000E+00 -0.34591321116E+02  0.34591321116E+02  0.00000000000E+00 0. -1.
         21    1    1    2  503  504 -0.89243276421E+01  0.19895111938E+02 -0.20975490222E+02  0.30256078612E+02  0.00000000000E+00 0. -1.
         21    1    1    2  504  501  0.89243276421E+01 -0.19895111938E+02  0.42676575206E+01  0.22218730918E+02  0.00000000000E+00 0. -1.
<mgrwt>
<rscale>  2 0.21805025E+02</rscale>
<asrwt>0</asrwt>
<pdfrwt beam="1">  1       21 0.27513059E-02 0.21805025E+02</pdfrwt>
<pdfrwt beam="2">  1       21 0.53217416E-02 0.21805025E+02</pdfrwt>
<totfact> 0.11685149E+08</totfact>
</mgrwt>
</event>
<event>
 4    1  0.4438654E+006  0.3892489E+02  0.7546771E-02  0.1516276E+00
         21   -1    0    0  502  501  0.00000000000E+00  0.00000000000E+00  0.30769003078E+03  0.30769003078E+03  0.00000000000E+00 0. -1.
         21   -1    0    0  503  502 -0.00000000000E+00 -0.00000000000E+00 -0.57089726354E+01  0.57089726354E+01  0.00000000000E+00 0. -1.
         21    1    1    2  503  504  0.10209601696E+01 -0.38911495575E+02  0.92894970002E+02  0.10072051578E+03  0.00000000000E+00 0. -1.
         21    1    1    2  504  501 -0.10209601696E+01  0.38911495575E+02  0.20908608815E+03  0.21267848764E+03  0.00000000000E+00 0. -1.
<mgrwt>
<rscale>  2 0.38924887E+02</rscale>
<asrwt>0</asrwt>
<pdfrwt beam="1">  1       21 0.47336915E-01 0.38924887E+02</pdfrwt>
<pdfrwt beam="2">  1       21 0.87830372E-03 0.38924887E+02</pdfrwt>
<totfact> 0.16919652E+07</totfact>
</mgrwt>
</event>
<event>
 4    1  0.4438654E+006  0.2638311E+02  0.7546771E-02  0.1641895E+00
         21   -1    0    0  503  501  0.00000000000E+00  0.00000000000E+00  0.16139247451E+02  0.16139247451E+02  0.00000000000E+00 0. -1.
         21   -1    0    0  504  502 -0.00000000000E+00 -0.00000000000E+00 -0.44274920029E+02  0.44274920029E+02  0.00000000000E+00 0. -1.
         21    1    1    2  503  502 -0.16615886402E+00 -0.26382589910E+02 -0.18927633499E+02  0.32470355234E+02  0.00000000000E+00 0. -1.
         21    1    1    2  504  501  0.16615886402E+00  0.26382589910E+02 -0.92080390795E+01  0.27943812246E+02  0.00000000000E+00 0. -1.
<mgrwt>
<rscale>  2 0.26383113E+02</rscale>
<asrwt>0</asrwt>
<pdfrwt beam="1">  1       21 0.24829612E-02 0.26383113E+02</pdfrwt>
<pdfrwt beam="2">  1       21 0.68115261E-02 0.26383113E+02</pdfrwt>
<totfact> 0.97170495E+07</totfact>
</mgrwt>
</event>
<event>
 4    1  0.4438654E+006  0.2009190E+02  0.7546771E-02  0.1743507E+00
         21   -1    0    0  503  501  0.00000000000E+00  0.00000000000E+00  0.94770050744E+03  0.94770050744E+03  0.00000000000E+00 0. -1.
         21   -1    0    0  504  502 -0.00000000000E+00 -0.00000000000E+00 -0.17227323499E+01  0.17227323499E+01  0.00000000000E+00 0. -1.
         21    1    1    2  503  502 -0.19607093660E+02 -0.43870452351E+01  0.88485163699E+03  0.88507971605E+03  0.00000000000E+00 0. -1.
         21    1    1    2  504  501  0.19607093660E+02  0.43870452351E+01  0.61126138106E+02  0.64343523741E+02  0.00000000000E+00 0. -1.
<mgrwt>
<rscale>  2 0.20091896E+02</rscale>
<asrwt>0</asrwt>
<pdfrwt beam="1">  1       21 0.14579966E+00 0.20091896E+02</pdfrwt>
<pdfrwt beam="2">  1       21 0.26503650E-03 0.20091896E+02</pdfrwt>
<totfact> 0.81531207E+06</totfact>
</mgrwt>
</event>
<event>
 4    1  0.4438654E+006  0.2063916E+02  0.7546771E-02  0.1732908E+00
         21   -1    0    0  503  501  0.00000000000E+00  0.00000000000E+00  0.67125850701E+02  0.67125850701E+02  0.00000000000E+00 0. -1.
         21   -1    0    0  504  502 -0.00000000000E+00 -0.00000000000E+00 -0.18301207234E+02  0.18301207234E+02  0.00000000000E+00 0. -1.
         21    1    1    2  503  502 -0.10030079581E+02  0.18038082833E+02  0.58935095855E+02  0.62444539009E+02  0.00000000000E+00 0. -1.
         21    1    1    2  504  501  0.10030079581E+02 -0.18038082833E+02 -0.10110452388E+02  0.22982518926E+02  0.00000000000E+00 0. -1.
<mgrwt>
<rscale>  2 0.20639160E+02</rscale>
<asrwt>0</asrwt>
<pdfrwt beam="1">  1       21 0.10327054E-01 0.20639160E+02</pdfrwt>
<pdfrwt beam="2">  1       21 0.28155704E-02 0.20639160E+02</pdfrwt>
<totfact> 0.37940070E+07</totfact>
</mgrwt>
</event>
<event>
 4    1  0.4438654E+006  0.2117609E+02  0.7546771E-02  0.1722903E+00
         21   -1    0    0  502  501  0.00000000000E+00  0.00000000000E+00  0.12205672500E+04  0.12205672500E+04  0.00000000000E+00 0. -1.
         21   -1    0    0  503  502 -0.00000000000E+00 -0.00000000000E+00 -0.55054515410E+00  0.55054515410E+00  0.00000000000E+00 0. -1.
         21    1    1    2  503  504 -0.51467211666E+01  0.20541126660E+02  0.25784974103E+03  0.25871783002E+03  0.00000000000E+00 0. -1.
         21    1    1    2  504  501  0.51467211666E+01 -0.20541126660E+02  0.96216696382E+03  0.96239996513E+03  0.00000000000E+00 0. -1.
<mgrwt>
<rscale>  2 0.21176086E+02</rscale>
<asrwt>0</asrwt>
<pdfrwt beam="1">  1       21 0.18777741E+00 0.21176086E+02</pdfrwt>
<pdfrwt beam="2">  1       21 0.84700231E-04 0.21176086E+02</pdfrwt>
<totfact> 0.22816034E+07</totfact>
</mgrwt>
</event>
<event>
 4    1  0.4438654E+006  0.2168250E+02  0.7546771E-02  0.1713802E+00
         21   -1    0    0  503  501  0.00000000000E+00  0.00000000000E+00  0.94733667972E+02  0.94733667972E+02  0.00000000000E+00 0. -1.
         21   -1    0    0  501  502 -0.00000000000E+00 -0.00000000000E+00 -0.72440411198E+01  0.72440411198E+01  0.00000000000E+00 0. -1.
         21    1    1    2  503  504 -0.21613002051E+02 -0.17346111205E+01  0.72359169448E+02  0.75537938393E+02  0.00000000000E+00 0. -1.
         21    1    1    2  504  502  0.21613002051E+02  0.17346111205E+01  0.15130457404E+02  0.26439770699E+02  0.00000000000E+00 0. -1.
<mgrwt>
<rscale>  2 0.21682498E+02</rscale>
<asrwt>0</asrwt>
<pdfrwt beam="1">  1       21 0.14574410E-01 0.21682498E+02</pdfrwt>
<pdfrwt beam="2">  1       21 0.11144679E-02 0.21682498E+02</pdfrwt>
<totfact> 0.88742356E+07</totfact>
</mgrwt>
</event>
<event>
 4    1  0.4438654E+006  0.2650244E+02  0.7546771E-02  0.1640315E+00
         21   -1    0    0  502  501  0.00000000000E+00  0.00000000000E+00  0.47124640301E+02  0.47124640301E+02  0.00000000000E+00 0. -1.
         21   -1    0    0  503  502 -0.00000000000E+00 -0.00000000000E+00 -0.52502257920E+02  0.52502257920E+02  0.00000000000E+00 0.  1.
         21    1    1    2  503  504 -0.14438422514E+02  0.22224120535E+02 -0.44842666481E+02  0.52088811806E+02  0.00000000000E+00 0.  1.
         21    1    1    2  504  501  0.14438422514E+02 -0.22224120535E+02  0.39465048862E+02  0.47538086415E+02  0.00000000000E+00 0. -1.
<mgrwt>
<rscale>  2 0.26502445E+02</rscale>
<asrwt>0</asrwt>
<pdfrwt beam="1">  1       21 0.72499447E-02 0.26502445E+02</pdfrwt>
<pdfrwt beam="2">  1       21 0.80772704E-02 0.26502445E+02</pdfrwt>
<totfact> 0.13401214E+07</totfact>
</mgrwt>
</event>
<event>
 4    1  0.4438654E+006  0.2215159E+02  0.7546771E-02  0.1705643E+00
         21   -1    0    0  503  501  0.00000000000E+00  0.00000000000E+00  0.68173572728E+02  0.68173572728E+02  0.00000000000E+00 0. -1.
         21   -1    0    0  501  502 -0.00000000000E+00 -0.00000000000E+00 -0.41432927095E+02  0.41432927095E+02  0.00000000000E+00 0. -1.
         21    1    1    2  503  504  0.11088412545E+02  0.19176553340E+02  0.63186465507E+02  0.66956870551E+02  0.00000000000E+00 0. -1.
         21    1    1    2  504  502 -0.11088412545E+02 -0.19176553340E+02 -0.36445819874E+02  0.42649629272E+02  0.00000000000E+00 0. -1.
<mgrwt>
<rscale>  2 0.22151593E+02</rscale>
<asrwt>0</asrwt>
<pdfrwt beam="1">  1       21 0.10488242E-01 0.22151593E+02</pdfrwt>
<pdfrwt beam="2">  1       21 0.63742965E-02 0.22151593E+02</pdfrwt>
<totfact> 0.10365949E+07</totfact>
</mgrwt>
</event>
<event>
 4    1  0.4438654E+006  0.3349510E+02  0.7546771E-02  0.1562385E+00
         21   -1    0    0  502  501  0.00000000000E+00  0.00000000000E+00  0.51228593072E+03  0.51228593072E+03  0.00000000000E+00 0. -1.
         21   -1    0    0  504  502 -0.00000000000E+00 -0.00000000000E+00 -0.45179628870E+01  0.45179628870E+01  0.00000000000E+00 0.  1.
         21    1    1    2  503  501 -0.31047496350E+02 -0.12568791866E+02  0.43936936187E+03  0.44064425300E+03  0.00000000000E+00 0. -1.
         21    1    1    2  504  503  0.31047496350E+02  0.12568791866E+02  0.68398605964E+02  0.76159640601E+02  0.00000000000E+00 0.  1.
<mgrwt>
<rscale>  2 0.33495098E+02</rscale>
<asrwt>0</asrwt>
<pdfrwt beam="1">  1       21 0.78813174E-01 0.33495098E+02</pdfrwt>
<pdfrwt beam="2">  1       21 0.69507162E-03 0.33495098E+02</pdfrwt>
<totfact> 0.83330842E+06</totfact>
</mgrwt>
</event>
<event>
 4    1  0.4438654E+006  0.3039603E+02  0.7546771E-02  0.1593752E+00
         21   -1    0    0  504  501  0.00000000000E+00  0.00000000000E+00  0.25532452605E+02  0.25532452605E+02  0.00000000000E+00 0.  1.
         21   -1    0    0  501  502 -0.00000000000E+00 -0.00000000000E+00 -0.18043010805E+03  0.18043010805E+03  0.00000000000E+00 0.  1.
         21    1    1    2  503  502  0.10692209314E+02  0.28453390663E+02 -0.16952616211E+03  0.17222960959E+03  0.00000000000E+00 0.  1.
         21    1    1    2  504  503 -0.10692209314E+02 -0.28453390663E+02  0.14628506665E+02  0.33732951064E+02  0.00000000000E+00 0.  1.
<mgrwt>
<rscale>  2 0.30396032E+02</rscale>
<asrwt>0</asrwt>
<pdfrwt beam="1">  1       21 0.39280699E-02 0.30396032E+02</pdfrwt>
<pdfrwt beam="2">  1       21 0.27758476E-01 0.30396032E+02</pdfrwt>
<totfact> 0.43840950E+06</totfact>
</mgrwt>
</event>
<event>
 4    1  0.4438654E+006  0.3666646E+02  0.7546771E-02  0.1534281E+00
         21   -1    0    0  503  501  0.00000000000E+00  0.00000000000E+00  0.30453866267E+01  0.30453866267E+01  0.00000000000E+00 0. -1.
         21   -1    0    0  504  502 -0.00000000000E+00 -0.00000000000E+00 -0.44239054048E+03  0.44239054048E+03  0.00000000000E+00 0. -1.
         21    1    1    2  503  502  0.35762240077E+02 -0.80926674219E+01 -0.22986422789E+03  0.23277025657E+03  0.00000000000E+00 0. -1.
         21    1    1    2  504  501 -0.35762240077E+02  0.80926674219E+01 -0.20948092596E+03  0.21266567053E+03  0.00000000000E+00 0. -1.
<mgrwt>
<rscale>  2 0.36666457E+02</rscale>
<asrwt>0</asrwt>
<pdfrwt beam="1">  1       21 0.46852138E-03 0.36666457E+02</pdfrwt>
<pdfrwt beam="2">  1       21 0.68060031E-01 0.36666457E+02</pdfrwt>
<totfact> 0.20756885E+07</totfact>
</mgrwt>
</event>
<event>
 4    1  0.4438654E+006  0.2018804E+02  0.7546771E-02  0.1741614E+00
         21   -1    0    0  504  501  0.00000000000E+00  0.00000000000E+00  0.50630067840E+02  0.50630067840E+02  0.00000000000E+00 0.  1.
         21   -1    0    0  503  502 -0.00000000000E+00 -0.00000000000E+00 -0.23794023346E+02  0.23794023346E+02  0.00000000000E+00 0.  1.
         21    1    1    2  503  501  0.37150411008E+01 -0.19843274611E+02 -0.16851916548E+02  0.26297227402E+02  0.00000000000E+00 0.  1.
         21    1    1    2  504  502 -0.37150411008E+01  0.19843274611E+02  0.43687961042E+02  0.48126863784E+02  0.00000000000E+00 0.  1.
<mgrwt>
<rscale>  2 0.20188043E+02</rscale>
<asrwt>0</asrwt>
<pdfrwt beam="1">  1       21 0.77892412E-02 0.20188043E+02</pdfrwt>
<pdfrwt beam="2">  1       21 0.36606190E-02 0.20188043E+02</pdfrwt>
<totfact> 0.39783066E+07</totfact>
</mgrwt>
</event>
<event>
 4    1  0.4438654E+006  0.2046069E+02  0.7546771E-02  0.1736319E+00
         21   -1    0    0  503  501  0.00000000000E+00  0.00000000000E+00  0.13443953193E+03  0.13443953193E+03  0.00000000000E+00 0. -1.
         21   -1    0    0  501  502 -0.00000000000E+00 -0.00000000000E+00 -0.18276819698E+02  0.18276819698E+02  0.00000000000E+00 0.  1.
         21    1    1    2  503  504  0.20189101376E+02  0.33226598127E+01  0.12763113117E+03  0.12926076561E+03  0.00000000000E+00 0. -1.
         21    1    1    2  504  502 -0.20189101376E+02 -0.33226598127E+01 -0.11468418936E+02  0.23455586019E+02  0.00000000000E+00 0.  1.
<mgrwt>
<rscale>  2 0.20460691E+02</rscale>
<asrwt>0</asrwt>
<pdfrwt beam="1">  1       21 0.20683004E-01 0.20460691E+02</pdfrwt>
<pdfrwt beam="2">  1       21 0.28118185E-02 0.20460691E+02</pdfrwt>
<totfact> 0.11712177E+07</totfact>
</mgrwt>
</event>
<event>
 4    1  0.4438654E+006  0.2523256E+02  0.7546771E-02  0.1657684E+00
         21   -1    0    0  504  501  0.00000000000E+00  0.00000000000E+00  0.33487852673E+02  0.33487852673E+02  0.00000000000E+00 0. -1.
         21   -1    0    0  503  502 -0.00000000000E+00 -0.00000000000E+00 -0.19628982702E+02  0.19628982702E+02  0.00000000000E+00 0. -1.
         21    1    1    2  503  501 -0.21941218291E+02  0.12460537893E+02  0.22221113776E+01  0.25330216020E+02  0.00000000000E+00 0. -1.
         21    1    1    2  504  502  0.21941218291E+02 -0.12460537893E+02  0.11636758593E+02  0.27786619355E+02  0.00000000000E+00 0. -1.
<mgrwt>
<rscale>  2 0.25232560E+02</rscale>
<asrwt>0</asrwt>
<pdfrwt beam="1">  1       21 0.51519773E-02 0.25232560E+02</pdfrwt>
<pdfrwt beam="2">  1       21 0.30198435E-02 0.25232560E+02</pdfrwt>
<totfact> 0.11103859E+08</totfact>
</mgrwt>
</event>
<event>
 4    1  0.4438654E+006  0.2742070E+02  0.7546771E-02  0.1628484E+00
         21   -1    0    0  502  501  0.00000000000E+00  0.00000000000E+00  0.19624169490E+01  0.19624169490E+01  0.00000000000E+00 0. -1.
         21   -1    0    0  503  502 -0.00000000000E+00 -0.00000000000E+00 -0.47864696409E+03  0.47864696409E+03  0.00000000000E+00 0. -1.
         21    1    1    2  503  504  0.27357362697E+02  0.18626660948E+01 -0.34568075388E+03  0.34676660512E+03  0.00000000000E+00 0. -1.
         21    1    1    2  504  501 -0.27357362697E+02 -0.18626660948E+01 -0.13100379326E+03  0.13384277592E+03  0.00000000000E+00 0. -1.
<mgrwt>
<rscale>  2 0.27420701E+02</rscale>
<asrwt>0</asrwt>
<pdfrwt beam="1">  1       21 0.30191027E-03 0.27420701E+02</pdfrwt>
<pdfrwt beam="2">  1       21 0.73638001E-01 0.27420701E+02</pdfrwt>
<totfact> 0.32136332E+07</totfact>
</mgrwt>
</event>
<event>
 4    1  0.4438654E+006  0.2953612E+02  0.7546771E-02  0.1603274E+00
         21   -1    0    0  504  501  0.00000000000E+00  0.00000000000E+00  0.15369092737E+04  0.15369092737E+04  0.00000000000E+00 0.  1.
         21   -1    0    0  503  502 -0.00000000000E+00 -0.00000000000E+00 -0.82854268796E+00  0.82854268796E+00  0.00000000000E+00 0.  1.
         21    1    1    2  503  501 -0.26767851684E+02 -0.12484559351E+02  0.33657108998E+03  0.33786458932E+03  0.00000000000E+00 0.  1.
         21    1    1    2  504  502  0.26767851684E+02  0.12484559351E+02  0.11995096410E+04  0.11998732271E+04  0.00000000000E+00 0.  1.
<mgrwt>
<rscale>  2 0.29536115E+02</rscale>
<asrwt>0</asrwt>
<pdfrwt beam="1">  1       21 0.23644530E+00 0.29536115E+02</pdfrwt>
<pdfrwt beam="2">  1       21 0.12746934E-03 0.29536115E+02</pdfrwt>
<totfact> 0.71592621E+06</totfact>
</mgrwt>
</event>
<event>
 4    1  0.4438654E+006  0.2062766E+02  0.7546771E-02  0.1733127E+00
         21   -1    0    0  504  501  0.00000000000E+00  0.00000000000E+00  0.24212076384E+03  0.24212076384E+03  0.00000000000E+00 0. -1.
         21   -1    0    0  501  502 -0.00000000000E+00 -0.00000000000E+00 -0.51540104226E+01  0.51540104226E+01  0.00000000000E+00 0.  1.
         21    1    1    2  503  502  0.20322107119E+02  0.35372738085E+01  0.18114110165E+02  0.27452164411E+02  0.00000000000E+00 0.  1.
         21    1    1    2  504  503 -0.20322107119E+02 -0.35372738085E+01  0.21885264325E+03  0.21982260985E+03  0.00000000000E+00 0. -1.
<mgrwt>
<rscale>  2 0.20627660E+02</rscale>
<asrwt>0</asrwt>
<pdfrwt beam="1">  1       21 0.37249339E-01 0.20627660E+02</pdfrwt>
<pdfrwt beam="2">  1       21 0.79292487E-03 0.20627660E+02</pdfrwt>
<totfact> 0.27739878E+07</totfact>
</mgrwt>
</event>
<event>
 4    1  0.4438654E+006  0.2601931E+02  0.7546771E-02  0.1646779E+00
         21   -1    0    0  504  501  0.00000000000E+00  0.00000000000E+00  0.32907356324E+02  0.32907356324E+02  0.00000000000E+00 0. -1.
         21   -1    0    0  503  502 -0.00000000000E+00 -0.00000000000E+00 -0.23833390368E+02  0.23833390368E+02  0.00000000000E+00 0. -1.
         21    1    1    2  503  501  0.25987171697E+02 -0.12928148911E+01 -0.59561230578E+01  0.26692318465E+02  0.00000000000E+00 0. -1.
         21    1    1    2  504  502 -0.25987171697E+02  0.12928148911E+01  0.15030089013E+02  0.30048428227E+02  0.00000000000E+00 0. -1.
<mgrwt>
<rscale>  2 0.26019309E+02</rscale>
<asrwt>0</asrwt>
<pdfrwt beam="1">  1       21 0.50626702E-02 0.26019309E+02</pdfrwt>
<pdfrwt beam="2">  1       21 0.36666755E-02 0.26019309E+02</pdfrwt>
<totfact> 0.84877723E+07</totfact>
</mgrwt>
</event>
<event>
 4    1  0.4438654E+006  0.2836097E+02  0.7546771E-02  0.1616946E+00
         21   -1    0    0  503  501  0.00000000000E+00  0.00000000000E+00  0.28927472269E+01  0.28927472269E+01  0.00000000000E+00 0.  1.
         21   -1    0    0  504  502 -0.00000000000E+00 -0.00000000000E+00 -0.19182464344E+04  0.19182464344E+04  0.00000000000E+00 0. -1.
         21    1    1    2  503  502  0.65330814211E+01 -0.27598255157E+02 -0.18459035190E+04  0.18461213790E+04  0.00000000000E+00 0. -1.
         21    1    1    2  504  501 -0.65330814211E+01  0.27598255157E+02 -0.69450168256E+02  0.75017802629E+02  0.00000000000E+00 0.  1.
<mgrwt>
<rscale>  2 0.28360974E+02</rscale>
<asrwt>0</asrwt>
<pdfrwt beam="1">  1       21 0.44503618E-03 0.28360974E+02</pdfrwt>
<pdfrwt beam="2">  1       21 0.29511606E+00 0.28360974E+02</pdfrwt>
<totfact> 0.58466856E+05</totfact>
</mgrwt>
</event>
<event>
 4    1  0.4438654E+006  0.2408516E+02  0.7546771E-02  0.1674501E+00
         21   -1    0    0  504  501  0.00000000000E+00  0.00000000000E+00  0.32858536255E+01  0.32858536255E+01  0.00000000000E+00 0.  1.
         21   -1    0    0  503  502 -0.00000000000E+00 -0.00000000000E+00 -0.24144649833E+03  0.24144649833E+03  0.00000000000E+00 0.  1.
         21    1    1    2  503  501 -0.10874143452E+02  0.21490643504E+02 -0.55637180390E+02  0.60626649221E+02  0.00000000000E+00 0.  1.
         21    1    1    2  504  502  0.10874143452E+02 -0.21490643504E+02 -0.18252346432E+03  0.18410570274E+03  0.00000000000E+00 0.  1.
<mgrwt>
<rscale>  2 0.24085156E+02</rscale>
<asrwt>0</asrwt>
<pdfrwt beam="1">  1       21 0.50551597E-03 0.24085156E+02</pdfrwt>
<pdfrwt beam="2">  1       21 0.37145613E-01 0.24085156E+02</pdfrwt>
<totfact> 0.56361856E+07</totfact>
</mgrwt>
</event>
<event>
 4    1  0.4438654E+006  0.2216128E+02  0.7546771E-02  0.1705478E+00
         21   -1    0    0  502  501  0.00000000000E+00  0.00000000000E+00  0.54618629202E+02  0.54618629202E+02  0.00000000000E+00 0.  1.
         21   -1    0    0  504  502 -0.00000000000E+00 -0.00000000000E+00 -0.29657207567E+02  0.29657207567E+02  0.00000000000E+00 0. -1.
         21    1    1    2  503  501 -0.15439551348E+02  0.15897880798E+02  0.47655333087E+02  0.52556190229E+02  0.00000000000E+00 0.  1.
         21    1    1    2  504  503  0.15439551348E+02 -0.15897880798E+02 -0.22693911452E+02  0.31719646541E+02  0.00000000000E+00 0. -1.
<mgrwt>
<rscale>  2 0.22161281E+02</rscale>
<asrwt>0</asrwt>
<pdfrwt beam="1">  1       21 0.84028660E-02 0.22161281E+02</pdfrwt>
<pdfrwt beam="2">  1       21 0.45626473E-02 0.22161281E+02</pdfrwt>
<totfact> 0.25451914E+07</totfact>
</mgrwt>
</event>
<event>
 4    1  0.4438654E+006  0.2460492E+02  0.7546771E-02  0.1666742E+00
         21   -1    0    0  502  501  0.00000000000E+00  0.00000000000E+00  0.38541450420E+02  0.38541450420E+02  0.00000000000E+00 0.  1.
         21   -1    0    0  504  502 -0.00000000000E+00 -0.00000000000E+00 -0.32411939299E+02  0.32411939299E+02  0.00000000000E+00 0.  1.
         21    1    1    2  503  501 -0.14235930609E+01  0.24563703875E+02  0.28533200928E+02  0.37676859217E+02  0.00000000000E+00 0.  1.
         21    1    1    2  504  503  0.14235930609E+01 -0.24563703875E+02 -0.22403689807E+02  0.33276530502E+02  0.00000000000E+00 0.  1.
<mgrwt>
<rscale>  2 0.24604922E+02</rscale>
<asrwt>0</asrwt>
<pdfrwt beam="1">  1       21 0.59294539E-02 0.24604922E+02</pdfrwt>
<pdfrwt beam="2">  1       21 0.49864522E-02 0.24604922E+02</pdfrwt>
<totfact> 0.39890480E+07</totfact>
</mgrwt>
</event>
<event>
 4    1  0.4438654E+006  0.2041406E+02  0.7546771E-02  0.1737217E+00
         21   -1    0    0  504  501  0.00000000000E+00  0.00000000000E+00  0.66959434272E+02  0.66959434272E+02  0.00000000000E+00 0.  1.
         21   -1    0    0  503  502 -0.00000000000E+00 -0.00000000000E+00 -0.72063124830E+02  0.72063124830E+02  0.00000000000E+00 0. -1.
         21    1    1    2  503  501  0.74997762349E+00 -0.20400275998E+02  0.63890023007E+02  0.67072116166E+02  0.00000000000E+00 0.  1.
         21    1    1    2  504  502 -0.74997762349E+00  0.20400275998E+02 -0.68993713565E+02  0.71950442936E+02  0.00000000000E+00 0. -1.
<mgrwt>
<rscale>  2 0.20414057E+02</rscale>
<asrwt>0</asrwt>
<pdfrwt beam="1">  1       21 0.10301452E-01 0.20414057E+02</pdfrwt>
<pdfrwt beam="2">  1       21 0.11086634E-01 0.20414057E+02</pdfrwt>
<totfact> 0.42646237E+06</totfact>
</mgrwt>
</event>
<event>
 4    1  0.4438654E+006  0.2346434E+02  0.7546771E-02  0.1684092E+00
         21   -1    0    0  502  501  0.00000000000E+00  0.00000000000E+00  0.16267689063E+02  0.16267689063E+02  0.00000000000E+00 0.  1.
         21   -1    0    0  504  502 -0.00000000000E+00 -0.00000000000E+00 -0.20188602603E+03  0.20188602603E+03  0.00000000000E+00 0. -1.
         21    1    1    2  503  501 -0.76081924252E+01 -0.22196641020E+02  0.67055927781E+01  0.24403697242E+02  0.00000000000E+00 0.  1.
         21    1    1    2  504  503  0.76081924252E+01  0.22196641020E+02 -0.19232392974E+03  0.19375001785E+03  0.00000000000E+00 0. -1.
<mgrwt>
<rscale>  2 0.23464345E+02</rscale>
<asrwt>0</asrwt>
<pdfrwt beam="1">  1       21 0.25027214E-02 0.23464345E+02</pdfrwt>
<pdfrwt beam="2">  1       21 0.31059388E-01 0.23464345E+02</pdfrwt>
<totfact> 0.69706926E+06</totfact>
</mgrwt>
</event>
<event>
 4    1  0.4438654E+006  0.2310604E+02  0.7546771E-02  0.1689797E+00
         21   -1    0    0  503  501  0.00000000000E+00  0.00000000000E+00  0.42429564454E+01  0.42429564454E+01  0.00000000000E+00 0. -1.
         21   -1    0    0  501  502 -0.00000000000E+00 -0.00000000000E+00 -0.12585687980E+03  0.12585687980E+03  0.00000000000E+00 0. -1.
         21    1    1    2  503  504  0.12483606521E+02 -0.19443473383E+02 -0.61766410255E+02  0.65946785553E+02  0.00000000000E+00 0. -1.
         21    1    1    2  504  502 -0.12483606521E+02  0.19443473383E+02 -0.59847513097E+02  0.64153050690E+02  0.00000000000E+00 0. -1.
<mgrwt>
<rscale>  2 0.23106040E+02</rscale>
<asrwt>0</asrwt>
<pdfrwt beam="1">  1       21 0.65276255E-03 0.23106040E+02</pdfrwt>
<pdfrwt beam="2">  1       21 0.19362596E-01 0.23106040E+02</pdfrwt>
<totfact> 0.12337871E+08</totfact>
</mgrwt>
</event>
<event>
 4    1  0.4438654E+006  0.2491441E+02  0.7546771E-02  0.1662234E+00
         21   -1    0    0  503  501  0.00000000000E+00  0.00000000000E+00  0.30989500030E+03  0.30989500030E+03  0.00000000000E+00 0.  1.
         21   -1    0    0  504  502 -0.00000000000E+00 -0.00000000000E+00 -0.22322806558E+01  0.22322806558E+01  0.00000000000E+00 0. -1.
         21    1    1    2  503  502  0.23770890892E+02 -0.74614113273E+01  0.20384470439E+03  0.20536161136E+03  0.00000000000E+00 0.  1.
         21    1    1    2  504  501 -0.23770890892E+02  0.74614113273E+01  0.10381801525E+03  0.10676566959E+03  0.00000000000E+00 0. -1.
<mgrwt>
<rscale>  2 0.24914412E+02</rscale>
<asrwt>0</asrwt>
<pdfrwt beam="1">  1       21 0.47676120E-01 0.24914412E+02</pdfrwt>
<pdfrwt beam="2">  1       21 0.34342804E-03 0.24914412E+02</pdfrwt>
<totfact> 0.62408053E+07</totfact>
</mgrwt>
</event>
<event>
 4    1  0.4438654E+006  0.2415605E+02  0.7546771E-02  0.1673428E+00
         21   -1    0    0  503  501  0.00000000000E+00  0.00000000000E+00  0.60925871567E+02  0.60925871567E+02  0.00000000000E+00 0.  1.
         21   -1    0    0  504  502 -0.00000000000E+00 -0.00000000000E+00 -0.16773887498E+03  0.16773887498E+03  0.00000000000E+00 0. -1.
         21    1    1    2  503  502  0.36659274715E+01 -0.23876260275E+02 -0.16442686202E+03  0.16619178013E+03  0.00000000000E+00 0. -1.
         21    1    1    2  504  501 -0.36659274715E+01  0.23876260275E+02  0.57613858609E+02  0.62472966416E+02  0.00000000000E+00 0.  1.
<mgrwt>
<rscale>  2 0.24156052E+02</rscale>
<asrwt>0</asrwt>
<pdfrwt beam="1">  1       21 0.93732110E-02 0.24156052E+02</pdfrwt>
<pdfrwt beam="2">  1       21 0.25805981E-01 0.24156052E+02</pdfrwt>
<totfact> 0.11925392E+06</totfact>
</mgrwt>
</event>
<event>
 4    1  0.4438654E+006  0.2339615E+02  0.7546771E-02  0.1685168E+00
         21   -1    0    0  502  501  0.00000000000E+00  0.00000000000E+00  0.12147751258E+01  0.12147751258E+01  0.00000000000E+00 0.  1.
         21   -1    0    0  504  502 -0.00000000000E+00 -0.00000000000E+00 -0.47934443452E+03  0.47934443452E+03  0.00000000000E+00 0.  1.
         21    1    1    2  503  501  0.15722139295E+00  0.23395626450E+02 -0.18022720610E+03  0.18173944502E+03  0.00000000000E+00 0.  1.
         21    1    1    2  504  503 -0.15722139295E+00 -0.23395626450E+02 -0.29790245329E+03  0.29881976462E+03  0.00000000000E+00 0.  1.
<mgrwt>
<rscale>  2 0.23396155E+02</rscale>
<asrwt>0</asrwt>
<pdfrwt beam="1">  1       21 0.18688852E-03 0.23396155E+02</pdfrwt>
<pdfrwt beam="2">  1       21 0.73745284E-01 0.23396155E+02</pdfrwt>
<totfact> 0.62238303E+07</totfact>
</mgrwt>
</event>
<event>
 4    1  0.4438654E+006  0.2901228E+02  0.7546771E-02  0.1609270E+00
         21   -1    0    0  503  501  0.00000000000E+00  0.00000000000E+00  0.18440575826E+03  0.18440575826E+03  0.00000000000E+00 0.  1.
         21   -1    0    0  504  502 -0.00000000000E+00 -0.00000000000E+00 -0.17993302716E+02  0.17993302716E+02  0.00000000000E+00 0.  1.
         21    1    1    2  503  502 -0.25974857329E+02 -0.12923583231E+02 -0.42201310384E+01  0.29317600904E+02  0.00000000000E+00 0.  1.
         21    1    1    2  504  501  0.25974857329E+02  0.12923583231E+02  0.17063258658E+03  0.17308146007E+03  0.00000000000E+00 0.  1.
<mgrwt>
<rscale>  2 0.29012277E+02</rscale>
<asrwt>0</asrwt>
<pdfrwt beam="1">  1       21 0.28370115E-01 0.29012277E+02</pdfrwt>
<pdfrwt beam="2">  1       21 0.27682006E-02 0.29012277E+02</pdfrwt>
<totfact> 0.72725100E+06</totfact>
</mgrwt>
</event>
<event>
 4    1  0.4438654E+006  0.2538070E+02  0.7546771E-02  0.1655593E+00
         21   -1    0    0  504  501  0.00000000000E+00  0.00000000000E+00  0.61574413528E+02  0.61574413528E+02  0.00000000000E+00 0. -1.
         21   -1    0    0  503  502 -0.00000000000E+00 -0.00000000000E+00 -0.15143150193E+02  0.15143150193E+02  0.00000000000E+00 0. -1.
         21    1    1    2  503  501  0.20196620276E+02  0.15371289692E+02  0.18880486517E+01  0.25450829948E+02  0.00000000000E+00 0. -1.
         21    1    1    2  504  502 -0.20196620276E+02 -0.15371289692E+02  0.44543214684E+02  0.51266733773E+02  0.00000000000E+00 0. -1.
<mgrwt>
<rscale>  2 0.25380702E+02</rscale>
<asrwt>0</asrwt>
<pdfrwt beam="1">  1       21 0.94729866E-02 0.25380702E+02</pdfrwt>
<pdfrwt beam="2">  1       21 0.23297154E-02 0.25380702E+02</pdfrwt>
<totfact> 0.61838266E+07</totfact>
</mgrwt>
</event>
<event>
 4    1  0.4438654E+006  0.2616874E+02  0.7546771E-02  0.1644761E+00
         21   -1    0    0  503  501  0.00000000000E+00  0.00000000000E+00  0.46138731382E+03  0.46138731382E+03  0.00000000000E+00 0. -1.
         21   -1    0    0  504  502 -0.00000000000E+00 -0.00000000000E+00 -0.82681275216E+01  0.82681275216E+01  0.00000000000E+00 0. -1.
         21    1    1    2  503  502  0.25157143188E+02 -0.72056119654E+01  0.13850737429E+02  0.29608201980E+02  0.00000000000E+00 0. -1.
         21    1    1    2  504  501 -0.25157143188E+02  0.72056119654E+01  0.43926844887E+03  0.44004723936E+03  0.00000000000E+00 0. -1.
<mgrwt>
<rscale>  2 0.26168735E+02</rscale>
<asrwt>0</asrwt>
<pdfrwt beam="1">  1       21 0.70982644E-01 0.26168735E+02</pdfrwt>
<pdfrwt beam="2">  1       21 0.12720200E-02 0.26168735E+02</pdfrwt>
<totfact> 0.40315932E+06</totfact>
</mgrwt>
</event>
<event>
 4    1  0.4438654E+006  0.2685114E+02  0.7546771E-02  0.1635754E+00
         21   -1    0    0  503  501  0.00000000000E+00  0.00000000000E+00  0.38285781069E+02  0.38285781069E+02  0.00000000000E+00 0. -1.
         21   -1    0    0  504  502 -0.00000000000E+00 -0.00000000000E+00 -0.23180195900E+03  0.23180195900E+03  0.00000000000E+00 0. -1.
         21    1    1    2  503  502  0.44444824869E+01 -0.26480753778E+02  0.32684107293E+02  0.42299345323E+02  0.00000000000E+00 0. -1.
         21    1    1    2  504  501 -0.44444824869E+01  0.26480753778E+02 -0.22620028522E+03  0.22778839474E+03  0.00000000000E+00 0. -1.
<mgrwt>
<rscale>  2 0.26851140E+02</rscale>
<asrwt>0</asrwt>
<pdfrwt beam="1">  1       21 0.58901203E-02 0.26851140E+02</pdfrwt>
<pdfrwt beam="2">  1       21 0.35661839E-01 0.26851140E+02</pdfrwt>
<totfact> 0.14223996E+06</totfact>
</mgrwt>
</event>
<event>
 4    1  0.4438654E+006  0.2854443E+02  0.7546771E-02  0.1614759E+00
         21   -1    0    0  504  501  0.00000000000E+00  0.00000000000E+00  0.75964378426E+02  0.75964378426E+02  0.00000000000E+00 0. -1.
         21   -1    0    0  501  502 -0.00000000000E+00 -0.00000000000E+00 -0.25825576755E+03  0.25825576755E+03  0.00000000000E+00 0. -1.
         21    1    1    2  503  502 -0.18821711772E+02 -0.21459913401E+02 -0.25474876029E+03  0.25634296477E+03  0.00000000000E+00 0. -1.
         21    1    1    2  504  503  0.18821711772E+02  0.21459913401E+02  0.72457371164E+02  0.77877181209E+02  0.00000000000E+00 0. -1.
<mgrwt>
<rscale>  2 0.28544434E+02</rscale>
<asrwt>0</asrwt>
<pdfrwt beam="1">  1       21 0.11686828E-01 0.28544434E+02</pdfrwt>
<pdfrwt beam="2">  1       21 0.39731656E-01 0.28544434E+02</pdfrwt>
<totfact> 0.37663829E+05</totfact>
</mgrwt>
</event>
<event>
 4    1  0.4438654E+006  0.2238095E+02  0.7546771E-02  0.1701746E+00
         21   -1    0    0  503  501  0.00000000000E+00  0.00000000000E+00  0.98921930240E+03  0.98921930240E+03  0.00000000000E+00 0.  1.
         21   -1    0    0  504  502 -0.00000000000E+00 -0.00000000000E+00 -0.23796516765E+02  0.23796516765E+02  0.00000000000E+00 0. -1.
         21    1    1    2  503  502  0.12167846341E+01 -0.22347847746E+02  0.98380133686E+03  0.98405588117E+03  0.00000000000E+00 0.  1.
         21    1    1    2  504  501 -0.12167846341E+01  0.22347847746E+02 -0.18378551221E+02  0.28959937996E+02  0.00000000000E+00 0. -1.
<mgrwt>
<rscale>  2 0.22380949E+02</rscale>
<asrwt>0</asrwt>
<pdfrwt beam="1">  1       21 0.15218755E+00 0.22380949E+02</pdfrwt>
<pdfrwt beam="2">  1       21 0.36610033E-02 0.22380949E+02</pdfrwt>
<totfact> 0.14469174E+05</totfact>
</mgrwt>
</event>
<event>
 4    1  0.4438654E+006  0.3232413E+02  0.7546771E-02  0.1573733E+00
         21   -1    0    0  504  501  0.00000000000E+00  0.00000000000E+00  0.11450945942E+03  0.11450945942E+03  0.00000000000E+00 0.  1.
         21   -1    0    0  503  502 -0.00000000000E+00 -0.00000000000E+00 -0.19765280791E+02  0.19765280791E+02  0.00000000000E+00 0.  1.
         21    1    1    2  503  501  0.16378230734E+02 -0.27867598453E+02 -0.18883371277E+01  0.32379241847E+02  0.00000000000E+00 0.  1.
         21    1    1    2  504  502 -0.16378230734E+02  0.27867598453E+02  0.96632515755E+02  0.10189549836E+03  0.00000000000E+00 0.  1.
<mgrwt>
<rscale>  2 0.32324132E+02</rscale>
<asrwt>0</asrwt>
<pdfrwt beam="1">  1       21 0.17616840E-01 0.32324132E+02</pdfrwt>
<pdfrwt beam="2">  1       21 0.30408125E-02 0.32324132E+02</pdfrwt>
<totfact> 0.14939549E+07</totfact>
</mgrwt>
</event>
<event>
 4    1  0.4438654E+006  0.2912343E+02  0.7546771E-02  0.1607985E+00
         21   -1    0    0  503  501  0.00000000000E+00  0.00000000000E+00  0.28227300240E+02  0.28227300240E+02  0.00000000000E+00 0.  1.
         21   -1    0    0  501  502 -0.00000000000E+00 -0.00000000000E+00 -0.10797640706E+03  0.10797640706E+03  0.00000000000E+00 0.  1.
         21    1    1    2  503  504 -0.51227224682E+01 -0.28669352289E+02  0.17980644525E+02  0.34226855299E+02  0.00000000000E+00 0.  1.
         21    1    1    2  504  502  0.51227224682E+01  0.28669352289E+02 -0.97729751343E+02  0.10197685200E+03  0.00000000000E+00 0.  1.
<mgrwt>
<rscale>  2 0.29123428E+02</rscale>
<asrwt>0</asrwt>
<pdfrwt beam="1">  1       21 0.43426615E-02 0.29123428E+02</pdfrwt>
<pdfrwt beam="2">  1       21 0.16611755E-01 0.29123428E+02</pdfrwt>
<totfact> 0.92445701E+06</totfact>
</mgrwt>
</event>
<event>
 4    1  0.4438654E+006  0.2933889E+02  0.7546771E-02  0.1605513E+00
         21   -1    0    0  504  501  0.00000000000E+00  0.00000000000E+00  0.20136576506E+03  0.20136576506E+03  0.00000000000E+00 0. -1.
         21   -1    0    0  503  502 -0.00000000000E+00 -0.00000000000E+00 -0.52784507423E+01  0.52784507423E+01  0.00000000000E+00 0. -1.
         21    1    1    2  503  501  0.29220743610E+02  0.26303748510E+01  0.52986786451E+02  0.60567072469E+02  0.00000000000E+00 0. -1.
         21    1    1    2  504  502 -0.29220743610E+02 -0.26303748510E+01  0.14310052787E+03  0.14607714333E+03  0.00000000000E+00 0. -1.
<mgrwt>
<rscale>  2 0.29338894E+02</rscale>
<asrwt>0</asrwt>
<pdfrwt beam="1">  1       21 0.30979343E-01 0.29338894E+02</pdfrwt>
<pdfrwt beam="2">  1       21 0.81206950E-03 0.29338894E+02</pdfrwt>
<totfact> 0.40675032E+07</totfact>
</mgrwt>
</event>
<event>
 4    1  0.4438654E+006  0.3434295E+02  0.7546771E-02  0.1554514E+00
         21   -1    0    0  504  501  0.00000000000E+00  0.00000000000E+00  0.11487016167E+03  0.11487016167E+03  0.00000000000E+00 0. -1.
         21   -1    0    0  503  502 -0.00000000000E+00 -0.00000000000E+00 -0.20757893172E+02  0.20757893172E+02  0.00000000000E+00 0.  1.
         21    1    1    2  503  501  0.43422392630E+01 -0.34067333795E+02 -0.11522063022E+01  0.34362273689E+02  0.00000000000E+00 0.  1.
         21    1    1    2  504  502 -0.43422392630E+01  0.34067333795E+02  0.95264474801E+02  0.10126578115E+03  0.00000000000E+00 0. -1.
<mgrwt>
<rscale>  2 0.34342951E+02</rscale>
<asrwt>0</asrwt>
<pdfrwt beam="1">  1       21 0.17672332E-01 0.34342951E+02</pdfrwt>
<pdfrwt beam="2">  1       21 0.31935221E-02 0.34342951E+02</pdfrwt>
<totfact> 0.13888732E+07</totfact>
</mgrwt>
</event>
<event>
 4    1  0.4438654E+006  0.3379686E+02  0.7546771E-02  0.1559552E+00
         21   -1    0    0  504  501  0.00000000000E+00  0.00000000000E+00  0.63264571964E+02  0.63264571964E+02  0.00000000000E+00 0. -1.
         21   -1    0    0  503  502 -0.00000000000E+00 -0.00000000000E+00 -0.18192766926E+02  0.18192766926E+02  0.00000000000E+00 0. -1.
         21    1    1    2  503  501 -0.32114728957E+02  0.10529584369E+02  0.18988839047E+02  0.38766015675E+02  0.00000000000E+00 0. -1.
         21    1    1    2  504  502  0.32114728957E+02 -0.10529584369E+02  0.26082965991E+02  0.42691323215E+02  0.00000000000E+00 0. -1.
<mgrwt>
<rscale>  2 0.33796863E+02</rscale>
<asrwt>0</asrwt>
<pdfrwt beam="1">  1       21 0.97330110E-02 0.33796863E+02</pdfrwt>
<pdfrwt beam="2">  1       21 0.27988872E-02 0.33796863E+02</pdfrwt>
<totfact> 0.47371777E+07</totfact>
</mgrwt>
</event>
<event>
 4    1  0.4438654E+006  0.2858187E+02  0.7546771E-02  0.1614315E+00
         21   -1    0    0  502  501  0.00000000000E+00  0.00000000000E+00  0.56425432649E+02  0.56425432649E+02  0.00000000000E+00 0.  1.
         21   -1    0    0  504  502 -0.00000000000E+00 -0.00000000000E+00 -0.35702832238E+02  0.35702832238E+02  0.00000000000E+00 0. -1.
         21    1    1    2  503  501 -0.28498329602E+02 -0.21837323594E+01  0.45878147540E+02  0.54053010081E+02  0.00000000000E+00 0.  1.
         21    1    1    2  504  503  0.28498329602E+02  0.21837323594E+01 -0.25155547129E+02  0.38075254806E+02  0.00000000000E+00 0. -1.
<mgrwt>
<rscale>  2 0.28581873E+02</rscale>
<asrwt>0</asrwt>
<pdfrwt beam="1">  1       21 0.86808358E-02 0.28581873E+02</pdfrwt>
<pdfrwt beam="2">  1       21 0.54927434E-02 0.28581873E+02</pdfrwt>
<totfact> 0.18941401E+07</totfact>
</mgrwt>
</event>
<event>
 4    1  0.4438654E+006  0.2021944E+02  0.7546771E-02  0.1740999E+00
         21   -1    0    0  504  501  0.00000000000E+00  0.00000000000E+00  0.82294920782E+02  0.82294920782E+02  0.00000000000E+00 0.  1.
         21   -1    0    0  503  502 -0.00000000000E+00 -0.00000000000E+00 -0.21448500610E+02  0.21448500610E+02  0.00000000000E+00 0.  1.
         21    1    1    2  503  501  0.17078161480E+02 -0.10824144549E+02 -0.15046247928E+02  0.25203477567E+02  0.00000000000E+00 0.  1.
         21    1    1    2  504  502 -0.17078161480E+02  0.10824144549E+02  0.75892668100E+02  0.78539943826E+02  0.00000000000E+00 0.  1.
<mgrwt>
<rscale>  2 0.20219439E+02</rscale>
<asrwt>0</asrwt>
<pdfrwt beam="1">  1       21 0.12660757E-01 0.20219439E+02</pdfrwt>
<pdfrwt beam="2">  1       21 0.32997694E-02 0.20219439E+02</pdfrwt>
<totfact> 0.21043506E+07</totfact>
</mgrwt>
</event>
<event>
 4    1  0.4438654E+006  0.4568492E+02  0.7546771E-02  0.1470111E+00
         21   -1    0    0  503  501  0.00000000000E+00  0.00000000000E+00  0.68715372349E+03  0.68715372349E+03  0.00000000000E+00 0. -1.
         21   -1    0    0  504  502 -0.00000000000E+00 -0.00000000000E+00 -0.68409288179E+02  0.68409288179E+02  0.00000000000E+00 0.  1.
         21    1    1    2  503  502 -0.43616307574E+02  0.13591536239E+02 -0.59927441677E+02  0.75355228151E+02  0.00000000000E+00 0.  1.
         21    1    1    2  504  501  0.43616307574E+02 -0.13591536239E+02  0.67867187699E+03  0.68020778352E+03  0.00000000000E+00 0. -1.
<mgrwt>
<rscale>  2 0.45684922E+02</rscale>
<asrwt>0</asrwt>
<pdfrwt beam="1">  1       21 0.10571595E+00 0.45684922E+02</pdfrwt>
<pdfrwt beam="2">  1       21 0.10524506E-01 0.45684922E+02</pdfrwt>
<totfact> 0.59032554E+04</totfact>
</mgrwt>
</event>
<event>
 4    1  0.4438654E+006  0.2224977E+02  0.7546771E-02  0.1703968E+00
         21   -1    0    0  504  501  0.00000000000E+00  0.00000000000E+00  0.48795480091E+01  0.48795480091E+01  0.00000000000E+00 0.  1.
         21   -1    0    0  503  502 -0.00000000000E+00 -0.00000000000E+00 -0.10377240719E+03  0.10377240719E+03  0.00000000000E+00 0.  1.
         21    1    1    2  503  501  0.20660277495E+02  0.82586327304E+01 -0.57565663660E+02  0.61715943754E+02  0.00000000000E+00 0.  1.
         21    1    1    2  504  502 -0.20660277495E+02 -0.82586327304E+01 -0.41327195517E+02  0.46936011442E+02  0.00000000000E+00 0.  1.
<mgrwt>
<rscale>  2 0.22249766E+02</rscale>
<asrwt>0</asrwt>
<pdfrwt beam="1">  1       21 0.75069972E-03 0.22249766E+02</pdfrwt>
<pdfrwt beam="2">  1       21 0.15964985E-01 0.22249766E+02</pdfrwt>
<totfact> 0.13825893E+08</totfact>
</mgrwt>
</event>
<event>
 4    1  0.4438654E+006  0.3610554E+02  0.7546771E-02  0.1538997E+00
         21   -1    0    0  503  501  0.00000000000E+00  0.00000000000E+00  0.12120735148E+04  0.12120735148E+04  0.00000000000E+00 0. -1.
         21   -1    0    0  504  502 -0.00000000000E+00 -0.00000000000E+00 -0.20820528880E+01  0.20820528880E+01  0.00000000000E+00 0. -1.
         21    1    1    2  503  502  0.32308216762E+02  0.16117973084E+02  0.18289866240E+03  0.18642835255E+03  0.00000000000E+00 0. -1.
         21    1    1    2  504  501 -0.32308216762E+02 -0.16117973084E+02  0.10270927995E+04  0.10277272151E+04  0.00000000000E+00 0. -1.
<mgrwt>
<rscale>  2 0.36105539E+02</rscale>
<asrwt>0</asrwt>
<pdfrwt beam="1">  1       21 0.18647228E+00 0.36105539E+02</pdfrwt>
<pdfrwt beam="2">  1       21 0.32031680E-03 0.36105539E+02</pdfrwt>
<totfact> 0.35861317E+06</totfact>
</mgrwt>
</event>
<event>
 4    1  0.4438654E+006  0.2013871E+02  0.7546771E-02  0.1742584E+00
         21   -1    0    0  504  501  0.00000000000E+00  0.00000000000E+00  0.30324798606E+02  0.30324798606E+02  0.00000000000E+00 0. -1.
         21   -1    0    0  501  502 -0.00000000000E+00 -0.00000000000E+00 -0.20068879597E+02  0.20068879597E+02  0.00000000000E+00 0. -1.
         21    1    1    2  503  502 -0.17367526309E+01 -0.20063684639E+02 -0.94250133418E+01  0.22235076512E+02  0.00000000000E+00 0. -1.
         21    1    1    2  504  503  0.17367526309E+01  0.20063684639E+02  0.19680932351E+02  0.28158601691E+02  0.00000000000E+00 0. -1.
<mgrwt>
<rscale>  2 0.20138713E+02</rscale>
<asrwt>0</asrwt>
<pdfrwt beam="1">  1       21 0.46653536E-02 0.20138713E+02</pdfrwt>
<pdfrwt beam="2">  1       21 0.30875199E-02 0.20138713E+02</pdfrwt>
<totfact> 0.11756637E+08</totfact>
</mgrwt>
</event>
<event>
 4    1  0.4438654E+006  0.2022572E+02  0.7546771E-02  0.1740876E+00
         21   -1    0    0  504  501  0.00000000000E+00  0.00000000000E+00  0.29511258768E+00  0.29511258768E+00  0.00000000000E+00 0. -1.
         21   -1    0    0  501  502 -0.00000000000E+00 -0.00000000000E+00 -0.17438104206E+04  0.17438104206E+04  0.00000000000E+00 0. -1.
         21    1    1    2  503  502  0.19273906235E+02 -0.61315712082E+01 -0.12666779099E+04  0.12668393769E+04  0.00000000000E+00 0. -1.
         21    1    1    2  504  503 -0.19273906235E+02  0.61315712082E+01 -0.47683739812E+03  0.47726615622E+03  0.00000000000E+00 0. -1.
<mgrwt>
<rscale>  2 0.20225717E+02</rscale>
<asrwt>0</asrwt>
<pdfrwt beam="1">  1       21 0.45401540E-04 0.20225717E+02</pdfrwt>
<pdfrwt beam="2">  1       21 0.26828087E+00 0.20225717E+02</pdfrwt>
<totfact> 0.20889049E+07</totfact>
</mgrwt>
</event>
<event>
 4    1  0.4438654E+006  0.2188782E+02  0.7546771E-02  0.1710199E+00
         21   -1    0    0  504  501  0.00000000000E+00  0.00000000000E+00  0.12825249194E+03  0.12825249194E+03  0.00000000000E+00 0. -1.
         21   -1    0    0  501  502 -0.00000000000E+00 -0.00000000000E+00 -0.32492604615E+03  0.32492604615E+03  0.00000000000E+00 0. -1.
         21    1    1    2  503  502  0.21473145330E+02 -0.42403552453E+01 -0.32361982249E+03  0.32435916218E+03  0.00000000000E+00 0. -1.
         21    1    1    2  504  503 -0.21473145330E+02  0.42403552453E+01  0.12694626828E+03  0.12881937592E+03  0.00000000000E+00 0. -1.
<mgrwt>
<rscale>  2 0.21887818E+02</rscale>
<asrwt>0</asrwt>
<pdfrwt beam="1">  1       21 0.19731153E-01 0.21887818E+02</pdfrwt>
<pdfrwt beam="2">  1       21 0.49988622E-01 0.21887818E+02</pdfrwt>
<totfact> 0.98425592E+04</totfact>
</mgrwt>
</event>
<event>
 4    1  0.4438654E+006  0.2379510E+02  0.7546771E-02  0.1678937E+00
         21   -1    0    0  503  501  0.00000000000E+00  0.00000000000E+00  0.71490426570E+03  0.71490426570E+03  0.00000000000E+00 0. -1.
         21   -1    0    0  504  502 -0.00000000000E+00 -0.00000000000E+00 -0.17751812501E+01  0.17751812501E+01  0.00000000000E+00 0. -1.
         21    1    1    2  503  502 -0.76062922028E+01  0.22546638298E+02  0.62324405635E+03  0.62369813239E+03  0.00000000000E+00 0. -1.
         21    1    1    2  504  501  0.76062922028E+01 -0.22546638298E+02  0.89885028106E+02  0.92981314559E+02  0.00000000000E+00 0. -1.
<mgrwt>
<rscale>  2 0.23795096E+02</rscale>
<asrwt>0</asrwt>
<pdfrwt beam="1">  1       21 0.10998504E+00 0.23795096E+02</pdfrwt>
<pdfrwt beam="2">  1       21 0.27310538E-03 0.23795096E+02</pdfrwt>
<totfact> 0.15275270E+07</totfact>
</mgrwt>
</event>
<event>
 4    1  0.4438654E+006  0.2222427E+02  0.7546771E-02  0.1704402E+00
         21   -1    0    0  502  501  0.00000000000E+00  0.00000000000E+00  0.29736034422E+02  0.29736034422E+02  0.00000000000E+00 0. -1.
         21   -1    0    0  504  502 -0.00000000000E+00 -0.00000000000E+00 -0.79334514194E+02  0.79334514194E+02  0.00000000000E+00 0.  1.
         21    1    1    2  503  501 -0.29702429493E+01  0.22024895263E+02  0.23692162379E+02  0.32484410303E+02  0.00000000000E+00 0. -1.
         21    1    1    2  504  503  0.29702429493E+01 -0.22024895263E+02 -0.73290642152E+02  0.76586138312E+02  0.00000000000E+00 0.  1.
<mgrwt>
<rscale>  2 0.22224274E+02</rscale>
<asrwt>0</asrwt>
<pdfrwt beam="1">  1       21 0.45747746E-02 0.22224274E+02</pdfrwt>
<pdfrwt beam="2">  1       21 0.12205310E-01 0.22224274E+02</pdfrwt>
<totfact> 0.13681491E+07</totfact>
</mgrwt>
</event>
<event>
 4    1  0.4438654E+006  0.3574401E+02  0.7546771E-02  0.1542091E+00
         21   -1    0    0  503  501  0.00000000000E+00  0.00000000000E+00  0.31325670143E+03  0.31325670143E+03  0.00000000000E+00 0.  1.
         21   -1    0    0  504  502 -0.00000000000E+00 -0.00000000000E+00 -0.45118233152E+01  0.45118233152E+01  0.00000000000E+00 0.  1.
         21    1    1    2  503  502 -0.30969734812E+02 -0.17846836538E+02  0.20360861609E+03  0.20672228374E+03  0.00000000000E+00 0.  1.
         21    1    1    2  504  501  0.30969734812E+02  0.17846836538E+02  0.10513626202E+03  0.11104624100E+03  0.00000000000E+00 0.  1.
<mgrwt>
<rscale>  2 0.35744007E+02</rscale>
<asrwt>0</asrwt>
<pdfrwt beam="1">  1       21 0.48193322E-01 0.35744007E+02</pdfrwt>
<pdfrwt beam="2">  1       21 0.69412691E-03 0.35744007E+02</pdfrwt>
<totfact> 0.23033846E+07</totfact>
</mgrwt>
</event>
<event>
 4    1  0.4438654E+006  0.2375661E+02  0.7546771E-02  0.1679531E+00
         21   -1    0    0  504  501  0.00000000000E+00  0.00000000000E+00  0.98014526129E+02  0.98014526129E+02  0.00000000000E+00 0.  1.
         21   -1    0    0  503  502 -0.00000000000E+00 -0.00000000000E+00 -0.58673555228E+01  0.58673555228E+01  0.00000000000E+00 0.  1.
         21    1    1    2  503  501 -0.10083693310E+02 -0.21510358732E+02  0.38985460034E+02  0.45653504768E+02  0.00000000000E+00 0.  1.
         21    1    1    2  504  502  0.10083693310E+02  0.21510358732E+02  0.53161710573E+02  0.58228376884E+02  0.00000000000E+00 0.  1.
<mgrwt>
<rscale>  2 0.23756608E+02</rscale>
<asrwt>0</asrwt>
<pdfrwt beam="1">  1       21 0.15079157E-01 0.23756608E+02</pdfrwt>
<pdfrwt beam="2">  1       21 0.90267015E-03 0.23756608E+02</pdfrwt>
<totfact> 0.11793037E+08</totfact>
</mgrwt>
</event>
<event>
 4    1  0.4438654E+006  0.2679129E+02  0.7546771E-02  0.1636530E+00
         21   -1    0    0  504  501  0.00000000000E+00  0.00000000000E+00  0.21621010301E+01  0.21621010301E+01  0.00000000000E+00 0. -1.
         21   -1    0    0  503  502 -0.00000000000E+00 -0.00000000000E+00 -0.44708368100E+03  0.44708368100E+03  0.00000000000E+00 0. -1.
         21    1    1    2  503  501 -0.17268186973E+02 -0.20483727361E+02 -0.33643458860E+03  0.33749963818E+03  0.00000000000E+00 0. -1.
         21    1    1    2  504  502  0.17268186973E+02  0.20483727361E+02 -0.10848699137E+03  0.11174614385E+03  0.00000000000E+00 0. -1.
<mgrwt>
<rscale>  2 0.26791293E+02</rscale>
<asrwt>0</asrwt>
<pdfrwt beam="1">  1       21 0.33263096E-03 0.26791293E+02</pdfrwt>
<pdfrwt beam="2">  1       21 0.68782097E-01 0.26791293E+02</pdfrwt>
<totfact> 0.31964721E+07</totfact>
</mgrwt>
</event>
<event>
 4    1  0.4438654E+006  0.2019331E+02  0.7546771E-02  0.1741511E+00
         21   -1    0    0  503  501  0.00000000000E+00  0.00000000000E+00  0.24685388505E+03  0.24685388505E+03  0.00000000000E+00 0. -1.
         21   -1    0    0  504  502 -0.00000000000E+00 -0.00000000000E+00 -0.53785845487E+01  0.53785845487E+01  0.00000000000E+00 0.  1.
         21    1    1    2  503  502 -0.32724281616E+00 -0.20190656389E+02  0.22571612480E+03  0.22661760454E+03  0.00000000000E+00 0. -1.
         21    1    1    2  504  501  0.32724281616E+00  0.20190656389E+02  0.15759175710E+02  0.25614865066E+02  0.00000000000E+00 0.  1.
<mgrwt>
<rscale>  2 0.20193308E+02</rscale>
<asrwt>0</asrwt>
<pdfrwt beam="1">  1       21 0.37977512E-01 0.20193308E+02</pdfrwt>
<pdfrwt beam="2">  1       21 0.82747474E-03 0.20193308E+02</pdfrwt>
<totfact> 0.24992968E+07</totfact>
</mgrwt>
</event>
<event>
 4    1  0.4438654E+006  0.4139362E+02  0.7546771E-02  0.1498199E+00
         21   -1    0    0  503  501  0.00000000000E+00  0.00000000000E+00  0.33134710151E+02  0.33134710151E+02  0.00000000000E+00 0. -1.
         21   -1    0    0  504  502 -0.00000000000E+00 -0.00000000000E+00 -0.17760477077E+03  0.17760477077E+03  0.00000000000E+00 0.  1.
         21    1    1    2  503  502 -0.33726283525E+02 -0.23999363640E+02  0.16478646445E+02  0.44553085687E+02  0.00000000000E+00 0. -1.
         21    1    1    2  504  501  0.33726283525E+02  0.23999363640E+02 -0.16094870707E+03  0.16618639524E+03  0.00000000000E+00 0.  1.
<mgrwt>
<rscale>  2 0.41393619E+02</rscale>
<asrwt>0</asrwt>
<pdfrwt beam="1">  1       21 0.50976478E-02 0.41393619E+02</pdfrwt>
<pdfrwt beam="2">  1       21 0.27323811E-01 0.41393619E+02</pdfrwt>
<totfact> 0.30680002E+06</totfact>
</mgrwt>
</event>
<event>
 4    1  0.4438654E+006  0.2013766E+02  0.7546771E-02  0.1742604E+00
         21   -1    0    0  504  501  0.00000000000E+00  0.00000000000E+00  0.13858716475E+02  0.13858716475E+02  0.00000000000E+00 0. -1.
         21   -1    0    0  503  502 -0.00000000000E+00 -0.00000000000E+00 -0.48483265790E+02  0.48483265790E+02  0.00000000000E+00 0. -1.
         21    1    1    2  503  501 -0.17542030502E+02 -0.98895180789E+01  0.23146603829E+01  0.20270250483E+02  0.00000000000E+00 0. -1.
         21    1    1    2  504  502  0.17542030502E+02  0.98895180789E+01 -0.36939209698E+02  0.42071731781E+02  0.00000000000E+00 0. -1.
<mgrwt>
<rscale>  2 0.20137661E+02</rscale>
<asrwt>0</asrwt>
<pdfrwt beam="1">  1       21 0.21321102E-02 0.20137661E+02</pdfrwt>
<pdfrwt beam="2">  1       21 0.74589640E-02 0.20137661E+02</pdfrwt>
<totfact> 0.98303246E+07</totfact>
</mgrwt>
</event>
<event>
 4    1  0.4438654E+006  0.2711463E+02  0.7546771E-02  0.1632363E+00
         21   -1    0    0  504  501  0.00000000000E+00  0.00000000000E+00  0.14139920501E+03  0.14139920501E+03  0.00000000000E+00 0. -1.
         21   -1    0    0  503  502 -0.00000000000E+00 -0.00000000000E+00 -0.10069024568E+02  0.10069024568E+02  0.00000000000E+00 0.  1.
         21    1    1    2  503  501 -0.10358999436E+02 -0.25057824348E+02  0.11833246623E+03  0.12139924215E+03  0.00000000000E+00 0. -1.
         21    1    1    2  504  502  0.10358999436E+02  0.25057824348E+02  0.12997714216E+02  0.30068987432E+02  0.00000000000E+00 0.  1.
<mgrwt>
<rscale>  2 0.27114635E+02</rscale>
<asrwt>0</asrwt>
<pdfrwt beam="1">  1       21 0.21753722E-01 0.27114635E+02</pdfrwt>
<pdfrwt beam="2">  1       21 0.15490808E-02 0.27114635E+02</pdfrwt>
<totfact> 0.28429693E+07</totfact>
</mgrwt>
</event>
<event>
 4    1  0.4438654E+006  0.2176700E+02  0.7546771E-02  0.1712313E+00
         21   -1    0    0  503  501  0.00000000000E+00  0.00000000000E+00  0.15303569555E+01  0.15303569555E+01  0.00000000000E+00 0.  1.
         21   -1    0    0  501  502 -0.00000000000E+00 -0.00000000000E+00 -0.42709823281E+03  0.42709823281E+03  0.00000000000E+00 0.  1.
         21    1    1    2  503  504 -0.42335637869E+01  0.21351331045E+02 -0.10037567758E+03  0.10270870971E+03  0.00000000000E+00 0.  1.
         21    1    1    2  504  502  0.42335637869E+01 -0.21351331045E+02 -0.32519219827E+03  0.32591988006E+03  0.00000000000E+00 0.  1.
<mgrwt>
<rscale>  2 0.21767003E+02</rscale>
<asrwt>0</asrwt>
<pdfrwt beam="1">  1       21 0.23543974E-03 0.21767003E+02</pdfrwt>
<pdfrwt beam="2">  1       21 0.65707362E-01 0.21767003E+02</pdfrwt>
<totfact> 0.55509602E+07</totfact>
</mgrwt>
</event>
<event>
 4    1  0.4438654E+006  0.2464830E+02  0.7546771E-02  0.1666105E+00
         21   -1    0    0  504  501  0.00000000000E+00  0.00000000000E+00  0.18468079256E+03  0.18468079256E+03  0.00000000000E+00 0. -1.
         21   -1    0    0  503  502 -0.00000000000E+00 -0.00000000000E+00 -0.90605553162E+01  0.90605553162E+01  0.00000000000E+00 0. -1.
         21    1    1    2  503  501  0.24505018676E+02  0.26538346430E+01  0.16512020386E+03  0.16694975442E+03  0.00000000000E+00 0. -1.
         21    1    1    2  504  502 -0.24505018676E+02 -0.26538346430E+01  0.10500033379E+02  0.26791593450E+02  0.00000000000E+00 0. -1.
<mgrwt>
<rscale>  2 0.24648302E+02</rscale>
<asrwt>0</asrwt>
<pdfrwt beam="1">  1       21 0.28412427E-01 0.24648302E+02</pdfrwt>
<pdfrwt beam="2">  1       21 0.13939317E-02 0.24648302E+02</pdfrwt>
<totfact> 0.20303168E+07</totfact>
</mgrwt>
</event>
<event>
 4    1  0.4438654E+006  0.3289751E+02  0.7546771E-02  0.1568105E+00
         21   -1    0    0  502  501  0.00000000000E+00  0.00000000000E+00  0.93098505608E+03  0.93098505608E+03  0.00000000000E+00 0.  1.
         21   -1    0    0  503  502 -0.00000000000E+00 -0.00000000000E+00 -0.31374383015E+01  0.31374383015E+01  0.00000000000E+00 0.  1.
         21    1    1    2  503  504  0.25930583594E+02  0.20244782005E+02  0.93357603416E+02  0.98984284003E+02  0.00000000000E+00 0.  1.
         21    1    1    2  504  501 -0.25930583594E+02 -0.20244782005E+02  0.83449001436E+03  0.83513821038E+03  0.00000000000E+00 0.  1.
<mgrwt>
<rscale>  2 0.32897513E+02</rscale>
<asrwt>0</asrwt>
<pdfrwt beam="1">  1       21 0.14322825E+00 0.32897513E+02</pdfrwt>
<pdfrwt beam="2">  1       21 0.48268356E-03 0.32897513E+02</pdfrwt>
<totfact> 0.37382269E+06</totfact>
</mgrwt>
</event>
<event>
 4    1  0.4438654E+006  0.2067210E+02  0.7546771E-02  0.1732284E+00
         21   -1    0    0  503  501  0.00000000000E+00  0.00000000000E+00  0.14954165195E+01  0.14954165195E+01  0.00000000000E+00 0. -1.
         21   -1    0    0  504  502 -0.00000000000E+00 -0.00000000000E+00 -0.28882936876E+03  0.28882936876E+03  0.00000000000E+00 0. -1.
         21    1    1    2  503  502  0.69431024604E+01  0.19471238631E+02 -0.15862222981E+03  0.15996358209E+03  0.00000000000E+00 0. -1.
         21    1    1    2  504  501 -0.69431024604E+01 -0.19471238631E+02 -0.12871172243E+03  0.13036120318E+03  0.00000000000E+00 0. -1.
<mgrwt>
<rscale>  2 0.20672102E+02</rscale>
<asrwt>0</asrwt>
<pdfrwt beam="1">  1       21 0.23006415E-03 0.20672102E+02</pdfrwt>
<pdfrwt beam="2">  1       21 0.44435274E-01 0.20672102E+02</pdfrwt>
<totfact> 0.12193796E+08</totfact>
</mgrwt>
</event>
<event>
 4    1  0.4438654E+006  0.2004268E+02  0.7546771E-02  0.1744481E+00
         21   -1    0    0  504  501  0.00000000000E+00  0.00000000000E+00  0.49607430830E+03  0.49607430830E+03  0.00000000000E+00 0.  1.
         21   -1    0    0  503  502 -0.00000000000E+00 -0.00000000000E+00 -0.81426035533E+00  0.81426035533E+00  0.00000000000E+00 0.  1.
         21    1    1    2  503  501  0.18989019932E+02  0.64129818731E+01  0.26606672363E+03  0.26682055888E+03  0.00000000000E+00 0.  1.
         21    1    1    2  504  502 -0.18989019932E+02 -0.64129818731E+01  0.22919332431E+03  0.23006800977E+03  0.00000000000E+00 0.  1.
<mgrwt>
<rscale>  2 0.20042685E+02</rscale>
<asrwt>0</asrwt>
<pdfrwt beam="1">  1       21 0.76318883E-01 0.20042685E+02</pdfrwt>
<pdfrwt beam="2">  1       21 0.12527122E-03 0.20042685E+02</pdfrwt>
<totfact> 0.98951913E+07</totfact>
</mgrwt>
</event>
<event>
 4    1  0.4438654E+006  0.2033235E+02  0.7546771E-02  0.1738798E+00
         21   -1    0    0  503  501  0.00000000000E+00  0.00000000000E+00  0.22209520649E+03  0.22209520649E+03  0.00000000000E+00 0. -1.
         21   -1    0    0  504  502 -0.00000000000E+00 -0.00000000000E+00 -0.78313273834E+01  0.78313273834E+01  0.00000000000E+00 0. -1.
         21    1    1    2  503  502 -0.12376875657E+02  0.16131258794E+02  0.67567225608E+01  0.21425635604E+02  0.00000000000E+00 0. -1.
         21    1    1    2  504  501  0.12376875657E+02 -0.16131258794E+02  0.20750715654E+03  0.20850089827E+03  0.00000000000E+00 0. -1.
<mgrwt>
<rscale>  2 0.20332353E+02</rscale>
<asrwt>0</asrwt>
<pdfrwt beam="1">  1       21 0.34168489E-01 0.20332353E+02</pdfrwt>
<pdfrwt beam="2">  1       21 0.12048198E-02 0.20332353E+02</pdfrwt>
<totfact> 0.17353712E+07</totfact>
</mgrwt>
</event>
<event>
 4    1  0.4438654E+006  0.2504580E+02  0.7546771E-02  0.1660345E+00
         21   -1    0    0  504  501  0.00000000000E+00  0.00000000000E+00  0.88358698779E+02  0.88358698779E+02  0.00000000000E+00 0. -1.
         21   -1    0    0  503  502 -0.00000000000E+00 -0.00000000000E+00 -0.81640596063E+01  0.81640596063E+01  0.00000000000E+00 0. -1.
         21    1    1    2  503  501  0.72978548763E+01 -0.23958996258E+02  0.57525643853E+02  0.62741468649E+02  0.00000000000E+00 0. -1.
         21    1    1    2  504  502 -0.72978548763E+01  0.23958996258E+02  0.22668995319E+02  0.33781289736E+02  0.00000000000E+00 0. -1.
<mgrwt>
<rscale>  2 0.25045802E+02</rscale>
<asrwt>0</asrwt>
<pdfrwt beam="1">  1       21 0.13593645E-01 0.25045802E+02</pdfrwt>
<pdfrwt beam="2">  1       21 0.12560092E-02 0.25045802E+02</pdfrwt>
<totfact> 0.86720636E+07</totfact>
</mgrwt>
</event>
<event>
 4    1  0.4438654E+006  0.2191560E+02  0.7546771E-02  0.1709716E+00
         21   -1    0    0  503  501  0.00000000000E+00  0.00000000000E+00  0.53304164047E+03  0.53304164047E+03  0.00000000000E+00 0.  1.
         21   -1    0    0  504  502 -0.00000000000E+00 -0.00000000000E+00 -0.11243059238E+01  0.11243059238E+01  0.00000000000E+00 0.  1.
         21    1    1    2  503  502  0.16802592431E+02  0.14070058726E+02  0.14694088757E+03  0.14856620782E+03  0.00000000000E+00 0.  1.
         21    1    1    2  504  501 -0.16802592431E+02 -0.14070058726E+02  0.38497644698E+03  0.38559973858E+03  0.00000000000E+00 0.  1.
<mgrwt>
<rscale>  2 0.21915603E+02</rscale>
<asrwt>0</asrwt>
<pdfrwt beam="1">  1       21 0.82006205E-01 0.21915603E+02</pdfrwt>
<pdfrwt beam="2">  1       21 0.17297057E-03 0.21915603E+02</pdfrwt>
<totfact> 0.54910838E+07</totfact>
</mgrwt>
</event>
<event>
 4    1  0.4438654E+006  0.2048170E+02  0.7546771E-02  0.1735915E+00
         21   -1    0    0  503  501  0.00000000000E+00  0.00000000000E+00  0.39561791213E+03  0.39561791213E+03  0.00000000000E+00 0.  1.
         21   -1    0    0  504  502 -0.00000000000E+00 -0.00000000000E+00 -0.11900077538E+02  0.11900077538E+02  0.00000000000E+00 0. -1.
         21    1    1    2  503  502  0.20311009123E+02  0.26387425270E+01  0.38632807931E+03  0.38687063072E+03  0.00000000000E+00 0.  1.
         21    1    1    2  504  501 -0.20311009123E+02 -0.26387425270E+01 -0.26102447212E+01  0.20647358941E+02  0.00000000000E+00 0. -1.
<mgrwt>
<rscale>  2 0.20481700E+02</rscale>
<asrwt>0</asrwt>
<pdfrwt beam="1">  1       21 0.60864284E-01 0.20481700E+02</pdfrwt>
<pdfrwt beam="2">  1       21 0.18307815E-02 0.20481700E+02</pdfrwt>
<totfact> 0.30622122E+06</totfact>
</mgrwt>
</event>
<event>
 4    1  0.4438654E+006  0.2386469E+02  0.7546771E-02  0.1677865E+00
         21   -1    0    0  504  501  0.00000000000E+00  0.00000000000E+00  0.25847580741E+02  0.25847580741E+02  0.00000000000E+00 0.  1.
         21   -1    0    0  503  502 -0.00000000000E+00 -0.00000000000E+00 -0.32850091818E+02  0.32850091818E+02  0.00000000000E+00 0.  1.
         21    1    1    2  503  501  0.20155343624E+02 -0.12778320784E+02 -0.20341931156E+02  0.31357894091E+02  0.00000000000E+00 0.  1.
         21    1    1    2  504  502 -0.20155343624E+02  0.12778320784E+02  0.13339420078E+02  0.27339778468E+02  0.00000000000E+00 0.  1.
<mgrwt>
<rscale>  2 0.23864689E+02</rscale>
<asrwt>0</asrwt>
<pdfrwt beam="1">  1       21 0.39765509E-02 0.23864689E+02</pdfrwt>
<pdfrwt beam="2">  1       21 0.50538602E-02 0.23864689E+02</pdfrwt>
<totfact> 0.73212311E+07</totfact>
</mgrwt>
</event>
<event>
 4    1  0.4438654E+006  0.2551453E+02  0.7546771E-02  0.1653720E+00
         21   -1    0    0  503  501  0.00000000000E+00  0.00000000000E+00  0.34434239516E+01  0.34434239516E+01  0.00000000000E+00 0.  1.
         21   -1    0    0  504  502 -0.00000000000E+00 -0.00000000000E+00 -0.27218637605E+03  0.27218637605E+03  0.00000000000E+00 0.  1.
         21    1    1    2  503  502 -0.79920817424E+01 -0.24230517000E+02 -0.21053541648E+03  0.21207581879E+03  0.00000000000E+00 0.  1.
         21    1    1    2  504  501  0.79920817424E+01  0.24230517000E+02 -0.58207535625E+02  0.63553981214E+02  0.00000000000E+00 0.  1.
<mgrwt>
<rscale>  2 0.25514532E+02</rscale>
<asrwt>0</asrwt>
<pdfrwt beam="1">  1       21 0.52975756E-03 0.25514532E+02</pdfrwt>
<pdfrwt beam="2">  1       21 0.41874825E-01 0.25514532E+02</pdfrwt>
<totfact> 0.42495457E+07</totfact>
</mgrwt>
</event>
<event>
 4    1  0.4438654E+006  0.2844563E+02  0.7546771E-02  0.1615934E+00
         21   -1    0    0  503  501  0.00000000000E+00  0.00000000000E+00  0.85403707017E+01  0.85403707017E+01  0.00000000000E+00 0.  1.
         21   -1    0    0  504  502 -0.00000000000E+00 -0.00000000000E+00 -0.79831832501E+03  0.79831832501E+03  0.00000000000E+00 0. -1.
         21    1    1    2  503  502 -0.26612534325E+02 -0.10046224866E+02 -0.16155008092E+02  0.32712962319E+02  0.00000000000E+00 0.  1.
         21    1    1    2  504  501  0.26612534325E+02  0.10046224866E+02 -0.77362294621E+03  0.77414573339E+03  0.00000000000E+00 0. -1.
<mgrwt>
<rscale>  2 0.28445626E+02</rscale>
<asrwt>0</asrwt>
<pdfrwt beam="1">  1       21 0.13139032E-02 0.28445626E+02</pdfrwt>
<pdfrwt beam="2">  1       21 0.12281821E+00 0.28445626E+02</pdfrwt>
<totfact> 0.11725151E+06</totfact>
</mgrwt>
</event>
<event>
 4    1  0.4438654E+006  0.2004721E+02  0.7546771E-02  0.1744391E+00
         21   -1    0    0  503  501  0.00000000000E+00  0.00000000000E+00  0.54172020425E+02  0.54172020425E+02  0.00000000000E+00 0. -1.
         21   -1    0    0  504  502 -0.00000000000E+00 -0.00000000000E+00 -0.34334378649E+02  0.34334378649E+02  0.00000000000E+00 0.  1.
         21    1    1    2  503  502  0.13620242803E+02  0.14709849197E+02  0.49100409975E+02  0.53035280117E+02  0.00000000000E+00 0. -1.
         21    1    1    2  504  501 -0.13620242803E+02 -0.14709849197E+02 -0.29262768198E+02  0.35471118957E+02  0.00000000000E+00 0.  1.
<mgrwt>
<rscale>  2 0.20047211E+02</rscale>
<asrwt>0</asrwt>
<pdfrwt beam="1">  1       21 0.83341570E-02 0.20047211E+02</pdfrwt>
<pdfrwt beam="2">  1       21 0.52822121E-02 0.20047211E+02</pdfrwt>
<totfact> 0.19977365E+07</totfact>
</mgrwt>
</event>
<event>
 4    1  0.4438654E+006  0.2465714E+02  0.7546771E-02  0.1665976E+00
         21   -1    0    0  502  501  0.00000000000E+00  0.00000000000E+00  0.15797049249E+03  0.15797049249E+03  0.00000000000E+00 0.  1.
         21   -1    0    0  504  502 -0.00000000000E+00 -0.00000000000E+00 -0.22189385885E+02  0.22189385885E+02  0.00000000000E+00 0.  1.
         21    1    1    2  503  501 -0.24654505299E+02 -0.36078541328E+00  0.14978674310E+03  0.15180264558E+03  0.00000000000E+00 0.  1.
         21    1    1    2  504  503  0.24654505299E+02  0.36078541328E+00 -0.14005636499E+02  0.28357232788E+02  0.00000000000E+00 0.  1.
<mgrwt>
<rscale>  2 0.24657145E+02</rscale>
<asrwt>0</asrwt>
<pdfrwt beam="1">  1       21 0.24303152E-01 0.24657145E+02</pdfrwt>
<pdfrwt beam="2">  1       21 0.34137518E-02 0.24657145E+02</pdfrwt>
<totfact> 0.67471150E+06</totfact>
</mgrwt>
</event>
<event>
 4    1  0.4438654E+006  0.2506607E+02  0.7546771E-02  0.1660055E+00
         21   -1    0    0  503  501  0.00000000000E+00  0.00000000000E+00  0.67023110201E+00  0.67023110201E+00  0.00000000000E+00 0. -1.
         21   -1    0    0  501  502 -0.00000000000E+00 -0.00000000000E+00 -0.11149931263E+04  0.11149931263E+04  0.00000000000E+00 0. -1.
         21    1    1    2  503  504 -0.22602780599E+02  0.10836143298E+02 -0.33456417482E+03  0.33550185509E+03  0.00000000000E+00 0. -1.
         21    1    1    2  504  502  0.22602780599E+02 -0.10836143298E+02 -0.77975872041E+03  0.78016150235E+03  0.00000000000E+00 0. -1.
<mgrwt>
<rscale>  2 0.25066067E+02</rscale>
<asrwt>0</asrwt>
<pdfrwt beam="1">  1       21 0.10311333E-03 0.25066067E+02</pdfrwt>
<pdfrwt beam="2">  1       21 0.17153599E+00 0.25066067E+02</pdfrwt>
<totfact> 0.22181338E+07</totfact>
</mgrwt>
</event>
<event>
 4    1  0.4438654E+006  0.2142047E+02  0.7546771E-02  0.1718472E+00
         21   -1    0    0  502  501  0.00000000000E+00  0.00000000000E+00  0.45629880076E+02  0.45629880076E+02  0.00000000000E+00 0. -1.
         21   -1    0    0  503  502 -0.00000000000E+00 -0.00000000000E+00 -0.10061432528E+02  0.10061432528E+02  0.00000000000E+00 0. -1.
         21    1    1    2  503  504 -0.14243597129E+02 -0.15998642221E+02  0.17114785662E+02  0.27418105339E+02  0.00000000000E+00 0. -1.
         21    1    1    2  504  501  0.14243597129E+02  0.15998642221E+02  0.18453661886E+02  0.28273207265E+02  0.00000000000E+00 0. -1.
<mgrwt>
<rscale>  2 0.21420472E+02</rscale>
<asrwt>0</asrwt>
<pdfrwt beam="1">  1       21 0.70199814E-02 0.21420472E+02</pdfrwt>
<pdfrwt beam="2">  1       21 0.15479127E-02 0.21420472E+02</pdfrwt>
<totfact> 0.17996994E+08</totfact>
</mgrwt>
</event>
<event>
 4    1  0.4438654E+006  0.2331570E+02  0.7546771E-02  0.1686443E+00
         21   -1    0    0  504  501  0.00000000000E+00  0.00000000000E+00  0.23061547494E+03  0.23061547494E+03  0.00000000000E+00 0. -1.
         21   -1    0    0  501  502 -0.00000000000E+00 -0.00000000000E+00 -0.98512991018E+01  0.98512991018E+01  0.00000000000E+00 0.  1.
         21    1    1    2  503  502 -0.16298975939E+02 -0.16672287276E+02  0.55157354282E+01  0.23959238656E+02  0.00000000000E+00 0.  1.
         21    1    1    2  504  503  0.16298975939E+02  0.16672287276E+02  0.21524844041E+03  0.21650753538E+03  0.00000000000E+00 0. -1.
<mgrwt>
<rscale>  2 0.23315698E+02</rscale>
<asrwt>0</asrwt>
<pdfrwt beam="1">  1       21 0.35479300E-01 0.23315698E+02</pdfrwt>
<pdfrwt beam="2">  1       21 0.15155847E-02 0.23315698E+02</pdfrwt>
<totfact> 0.11763274E+07</totfact>
</mgrwt>
</event>
<event>
 4    1  0.4438654E+006  0.3138788E+02  0.7546771E-02  0.1583235E+00
         21   -1    0    0  504  501  0.00000000000E+00  0.00000000000E+00  0.37893894749E+03  0.37893894749E+03  0.00000000000E+00 0. -1.
         21   -1    0    0  503  502 -0.00000000000E+00 -0.00000000000E+00 -0.12837763432E+03  0.12837763432E+03  0.00000000000E+00 0. -1.
         21    1    1    2  503  501  0.10015581969E+02  0.29747055758E+02  0.37635728053E+03  0.37766387412E+03  0.00000000000E+00 0. -1.
         21    1    1    2  504  502 -0.10015581969E+02 -0.29747055758E+02 -0.12579596736E+03  0.12965270769E+03  0.00000000000E+00 0. -1.
<mgrwt>
<rscale>  2 0.31387883E+02</rscale>
<asrwt>0</asrwt>
<pdfrwt beam="1">  1       21 0.58298299E-01 0.31387883E+02</pdfrwt>
<pdfrwt beam="2">  1       21 0.19750405E-01 0.31387883E+02</pdfrwt>
<totfact> 0.72048811E+04</totfact>
</mgrwt>
</event>
<event>
 4    1  0.4438654E+006  0.4007769E+02  0.7546771E-02  0.1507641E+00
         21   -1    0    0  504  501  0.00000000000E+00  0.00000000000E+00  0.12723499550E+02  0.12723499550E+02  0.00000000000E+00 0. -1.
         21   -1    0    0  503  502 -0.00000000000E+00 -0.00000000000E+00 -0.34544197643E+03  0.34544197643E+03  0.00000000000E+00 0. -1.
         21    1    1    2  503  501  0.38650240559E+02  0.10600959508E+02 -0.30901452481E+03  0.31160262833E+03  0.00000000000E+00 0. -1.
         21    1    1    2  504  502 -0.38650240559E+02 -0.10600959508E+02 -0.23703952071E+02  0.46562847653E+02  0.00000000000E+00 0. -1.
<mgrwt>
<rscale>  2 0.40077693E+02</rscale>
<asrwt>0</asrwt>
<pdfrwt beam="1">  1       21 0.19574619E-02 0.40077693E+02</pdfrwt>
<pdfrwt beam="2">  1       21 0.53144907E-01 0.40077693E+02</pdfrwt>
<totfact> 0.39218316E+06</totfact>
</mgrwt>
</event>
<event>
 4    1  0.4438654E+006  0.4885561E+02  0.7546771E-02  0.1451614E+00
         21   -1    0    0  503  501  0.00000000000E+00  0.00000000000E+00  0.56939671226E+03  0.56939671226E+03  0.00000000000E+00 0. -1.
         21   -1    0    0  501  502 -0.00000000000E+00 -0.00000000000E+00 -0.14982767613E+02  0.14982767613E+02  0.00000000000E+00 0.  1.
         21    1    1    2  503  504 -0.46268357392E+02  0.15687879331E+02  0.52517548870E+03  0.52744304374E+03  0.00000000000E+00 0. -1.
         21    1    1    2  504  502  0.46268357392E+02 -0.15687879331E+02  0.29238455941E+02  0.56936436132E+02  0.00000000000E+00 0.  1.
<mgrwt>
<rscale>  2 0.48855608E+02</rscale>
<asrwt>0</asrwt>
<pdfrwt beam="1">  1       21 0.87599478E-01 0.48855608E+02</pdfrwt>
<pdfrwt beam="2">  1       21 0.23050416E-02 0.48855608E+02</pdfrwt>
<totfact> 0.10770808E+06</totfact>
</mgrwt>
</event>
<event>
 4    1  0.4438654E+006  0.2105640E+02  0.7546771E-02  0.1725101E+00
         21   -1    0    0  503  501  0.00000000000E+00  0.00000000000E+00  0.94518217279E+00  0.94518217279E+00  0.00000000000E+00 0. -1.
         21   -1    0    0  504  502 -0.00000000000E+00 -0.00000000000E+00 -0.10166581789E+04  0.10166581789E+04  0.00000000000E+00 0. -1.
         21    1    1    2  503  502 -0.21032019772E+02 -0.10129126681E+01 -0.88126284329E+03  0.88151436223E+03  0.00000000000E+00 0. -1.
         21    1    1    2  504  501  0.21032019772E+02  0.10129126681E+01 -0.13445015345E+03  0.13608899886E+03  0.00000000000E+00 0. -1.
<mgrwt>
<rscale>  2 0.21056397E+02</rscale>
<asrwt>0</asrwt>
<pdfrwt beam="1">  1       21 0.14541211E-03 0.21056397E+02</pdfrwt>
<pdfrwt beam="2">  1       21 0.15640952E+00 0.21056397E+02</pdfrwt>
<totfact> 0.16506594E+07</totfact>
</mgrwt>
</event>
<event>
 4    1  0.4438654E+006  0.2751693E+02  0.7546771E-02  0.1627278E+00
         21   -1    0    0  504  501  0.00000000000E+00  0.00000000000E+00  0.15174851950E+04  0.15174851950E+04  0.00000000000E+00 0.  1.
         21   -1    0    0  501  502 -0.00000000000E+00 -0.00000000000E+00 -0.58555928717E+00  0.58555928717E+00  0.00000000000E+00 0.  1.
         21    1    1    2  503  502 -0.26227384010E+02  0.83250236683E+01  0.46656924664E+03  0.46737997775E+03  0.00000000000E+00 0.  1.
         21    1    1    2  504  503  0.26227384010E+02 -0.83250236683E+01  0.10503303891E+04  0.10506907766E+04  0.00000000000E+00 0.  1.
<mgrwt>
<rscale>  2 0.27516935E+02</rscale>
<asrwt>0</asrwt>
<pdfrwt beam="1">  1       21 0.23345611E+00 0.27516935E+02</pdfrwt>
<pdfrwt beam="2">  1       21 0.90087259E-04 0.27516935E+02</pdfrwt>
<totfact> 0.12155546E+07</totfact>
</mgrwt>
</event>
<event>
 4    1  0.4438654E+006  0.3131860E+02  0.7546771E-02  0.1583954E+00
         21   -1    0    0  504  501  0.00000000000E+00  0.00000000000E+00  0.31023175074E+02  0.31023175074E+02  0.00000000000E+00 0.  1.
         21   -1    0    0  503  502 -0.00000000000E+00 -0.00000000000E+00 -0.36527401991E+02  0.36527401991E+02  0.00000000000E+00 0.  1.
         21    1    1    2  503  501 -0.27811269491E+02  0.14400978117E+02  0.96317200714E+01  0.32766216030E+02  0.00000000000E+00 0.  1.
         21    1    1    2  504  502  0.27811269491E+02 -0.14400978117E+02 -0.15135946989E+02  0.34784361036E+02  0.00000000000E+00 0.  1.
<mgrwt>
<rscale>  2 0.31318603E+02</rscale>
<asrwt>0</asrwt>
<pdfrwt beam="1">  1       21 0.47727962E-02 0.31318603E+02</pdfrwt>
<pdfrwt beam="2">  1       21 0.56196003E-02 0.31318603E+02</pdfrwt>
<totfact> 0.49289209E+07</totfact>
</mgrwt>
</event>
<event>
 4    1  0.4438654E+006  0.2085604E+02  0.7546771E-02  0.1728822E+00
         21   -1    0    0  504  501  0.00000000000E+00  0.00000000000E+00  0.22937669368E+03  0.22937669368E+03  0.00000000000E+00 0. -1.
         21   -1    0    0  503  502 -0.00000000000E+00 -0.00000000000E+00 -0.27112667658E+01  0.27112667658E+01  0.00000000000E+00 0. -1.
         21    1    1    2  503  501 -0.19939122449E+02  0.61160403269E+01  0.49712123173E+02  0.53909829750E+02  0.00000000000E+00 0. -1.
         21    1    1    2  504  502  0.19939122449E+02 -0.61160403269E+01  0.17695330374E+03  0.17817813069E+03  0.00000000000E+00 0. -1.
<mgrwt>
<rscale>  2 0.20856044E+02</rscale>
<asrwt>0</asrwt>
<pdfrwt beam="1">  1       21 0.35288707E-01 0.20856044E+02</pdfrwt>
<pdfrwt beam="2">  1       21 0.41711814E-03 0.20856044E+02</pdfrwt>
<totfact> 0.79288009E+07</totfact>
</mgrwt>
</event>
<event>
 4    1  0.4438654E+006  0.2671021E+02  0.7546771E-02  0.1637587E+00
         21   -1    0    0  504  501  0.00000000000E+00  0.00000000000E+00  0.19308388563E+03  0.19308388563E+03  0.00000000000E+00 0. -1.
         21   -1    0    0  503  502 -0.00000000000E+00 -0.00000000000E+00 -0.15485823842E+02  0.15485823842E+02  0.00000000000E+00 0.  1.
         21    1    1    2  503  501  0.24224322603E+02 -0.11252453850E+02 -0.21979657167E+01  0.26800495826E+02  0.00000000000E+00 0.  1.
         21    1    1    2  504  502 -0.24224322603E+02  0.11252453850E+02  0.17979602750E+03  0.18176921365E+03  0.00000000000E+00 0. -1.
<mgrwt>
<rscale>  2 0.26710214E+02</rscale>
<asrwt>0</asrwt>
<pdfrwt beam="1">  1       21 0.29705211E-01 0.26710214E+02</pdfrwt>
<pdfrwt beam="2">  1       21 0.23824346E-02 0.26710214E+02</pdfrwt>
<totfact> 0.83389834E+06</totfact>
</mgrwt>
</event>
<event>
 4    1  0.4438654E+006  0.3582967E+02  0.7546771E-02  0.1541354E+00
         21   -1    0    0  503  501  0.00000000000E+00  0.00000000000E+00  0.40326718697E+02  0.40326718697E+02  0.00000000000E+00 0. -1.
         21   -1    0    0  504  502 -0.00000000000E+00 -0.00000000000E+00 -0.39816471096E+02  0.39816471096E+02  0.00000000000E+00 0.  1.
         21    1    1    2  503  502  0.14573307344E+02  0.32732005684E+02  0.18197119096E+02  0.40185826188E+02  0.00000000000E+00 0. -1.
         21    1    1    2  504  501 -0.14573307344E+02 -0.32732005684E+02 -0.17686871494E+02  0.39957363605E+02  0.00000000000E+00 0.  1.
<mgrwt>
<rscale>  2 0.35829673E+02</rscale>
<asrwt>0</asrwt>
<pdfrwt beam="1">  1       21 0.62041106E-02 0.35829673E+02</pdfrwt>
<pdfrwt beam="2">  1       21 0.61256109E-02 0.35829673E+02</pdfrwt>
<totfact> 0.28771170E+07</totfact>
</mgrwt>
</event>
<event>
 4    1  0.4438654E+006  0.2223151E+02  0.7546771E-02  0.1704279E+00
         21   -1    0    0  504  501  0.00000000000E+00  0.00000000000E+00  0.17628298676E+02  0.17628298676E+02  0.00000000000E+00 0.  1.
         21   -1    0    0  503  502 -0.00000000000E+00 -0.00000000000E+00 -0.29740012500E+03  0.29740012500E+03  0.00000000000E+00 0. -1.
         21    1    1    2  503  501  0.20226682194E+02 -0.92261274668E+01  0.10019890902E+02  0.24385206874E+02  0.00000000000E+00 0.  1.
         21    1    1    2  504  502 -0.20226682194E+02  0.92261274668E+01 -0.28979171723E+03  0.29064321681E+03  0.00000000000E+00 0. -1.
<mgrwt>
<rscale>  2 0.22231511E+02</rscale>
<asrwt>0</asrwt>
<pdfrwt beam="1">  1       21 0.27120460E-02 0.22231511E+02</pdfrwt>
<pdfrwt beam="2">  1       21 0.45753864E-01 0.22231511E+02</pdfrwt>
<totfact> 0.29579364E+06</totfact>
</mgrwt>
</event>
<event>
 4    1  0.4438654E+006  0.2158633E+02  0.7546771E-02  0.1715506E+00
         21   -1    0    0  502  501  0.00000000000E+00  0.00000000000E+00  0.28627977682E+01  0.28627977682E+01  0.00000000000E+00 0. -1.
         21   -1    0    0  503  502 -0.00000000000E+00 -0.00000000000E+00 -0.16813219762E+03  0.16813219762E+03  0.00000000000E+00 0.  1.
         21    1    1    2  503  504  0.14407024583E+02  0.16075046442E+02 -0.97907341524E+02  0.10025875024E+03  0.00000000000E+00 0.  1.
         21    1    1    2  504  501 -0.14407024583E+02 -0.16075046442E+02 -0.67362058323E+02  0.70736245143E+02  0.00000000000E+00 0. -1.
<mgrwt>
<rscale>  2 0.21586326E+02</rscale>
<asrwt>0</asrwt>
<pdfrwt beam="1">  1       21 0.44043037E-03 0.21586326E+02</pdfrwt>
<pdfrwt beam="2">  1       21 0.25866495E-01 0.21586326E+02</pdfrwt>
<totfact> 0.12986364E+08</totfact>
</mgrwt>
</event>
<event>
 4    1  0.4438654E+006  0.2508184E+02  0.7546771E-02  0.1659829E+00
         21   -1    0    0  502  501  0.00000000000E+00  0.00000000000E+00  0.37156811963E+03  0.37156811963E+03  0.00000000000E+00 0. -1.
         21   -1    0    0  503  502 -0.00000000000E+00 -0.00000000000E+00 -0.20927628529E+01  0.20927628529E+01  0.00000000000E+00 0. -1.
         21    1    1    2  503  504 -0.12294000207E+02  0.21862214335E+02  0.10309089221E+03  0.10609821353E+03  0.00000000000E+00 0. -1.
         21    1    1    2  504  501  0.12294000207E+02 -0.21862214335E+02  0.26638446457E+03  0.26756266896E+03  0.00000000000E+00 0. -1.
<mgrwt>
<rscale>  2 0.25081843E+02</rscale>
<asrwt>0</asrwt>
<pdfrwt beam="1">  1       21 0.57164274E-01 0.25081843E+02</pdfrwt>
<pdfrwt beam="2">  1       21 0.32196381E-03 0.25081843E+02</pdfrwt>
<totfact> 0.48103935E+07</totfact>
</mgrwt>
</event>
<event>
 4    1  0.4438654E+006  0.2422129E+02  0.7546771E-02  0.1672445E+00
         21   -1    0    0  503  501  0.00000000000E+00  0.00000000000E+00  0.47297733814E+02  0.47297733814E+02  0.00000000000E+00 0. -1.
         21   -1    0    0  504  502 -0.00000000000E+00 -0.00000000000E+00 -0.43104484655E+03  0.43104484655E+03  0.00000000000E+00 0. -1.
         21    1    1    2  503  502 -0.30962156774E+01  0.24022575314E+02  0.43831409217E+02  0.50078569371E+02  0.00000000000E+00 0. -1.
         21    1    1    2  504  501  0.30962156774E+01 -0.24022575314E+02 -0.42757852196E+03  0.42826401100E+03  0.00000000000E+00 0. -1.
<mgrwt>
<rscale>  2 0.24221286E+02</rscale>
<asrwt>0</asrwt>
<pdfrwt beam="1">  1       21 0.72765746E-02 0.24221286E+02</pdfrwt>
<pdfrwt beam="2">  1       21 0.66314590E-01 0.24221286E+02</pdfrwt>
<totfact> 0.29975059E+05</totfact>
</mgrwt>
</event>
<event>
 4    1  0.4438654E+006  0.2024285E+02  0.7546771E-02  0.1740541E+00
         21   -1    0    0  502  501  0.00000000000E+00  0.00000000000E+00  0.23249790856E+01  0.23249790856E+01  0.00000000000E+00 0. -1.
         21   -1    0    0  503  502 -0.00000000000E+00 -0.00000000000E+00 -0.25830939624E+03  0.25830939624E+03  0.00000000000E+00 0. -1.
         21    1    1    2  503  504 -0.17214679466E+02  0.10650248882E+02 -0.20144375789E+03  0.20245829345E+03  0.00000000000E+00 0. -1.
         21    1    1    2  504  501  0.17214679466E+02 -0.10650248882E+02 -0.54540659259E+02  0.58176081879E+02  0.00000000000E+00 0. -1.
<mgrwt>
<rscale>  2 0.20242850E+02</rscale>
<asrwt>0</asrwt>
<pdfrwt beam="1">  1       21 0.35768898E-03 0.20242850E+02</pdfrwt>
<pdfrwt beam="2">  1       21 0.39739919E-01 0.20242850E+02</pdfrwt>
<totfact> 0.78943671E+07</totfact>
</mgrwt>
</event>
<event>
 4    1  0.4438654E+006  0.2176525E+02  0.7546771E-02  0.1712344E+00
         21   -1    0    0  504  501  0.00000000000E+00  0.00000000000E+00  0.10194246968E+03  0.10194246968E+03  0.00000000000E+00 0.  1.
         21   -1    0    0  503  502 -0.00000000000E+00 -0.00000000000E+00 -0.88452020401E+01  0.88452020401E+01  0.00000000000E+00 0.  1.
         21    1    1    2  503  501 -0.21310996863E+02 -0.44235348523E+01  0.83859036963E+01  0.23324871461E+02  0.00000000000E+00 0.  1.
         21    1    1    2  504  502  0.21310996863E+02  0.44235348523E+01  0.84711363943E+02  0.87462800258E+02  0.00000000000E+00 0.  1.
<mgrwt>
<rscale>  2 0.21765253E+02</rscale>
<asrwt>0</asrwt>
<pdfrwt beam="1">  1       21 0.15683456E-01 0.21765253E+02</pdfrwt>
<pdfrwt beam="2">  1       21 0.13608004E-02 0.21765253E+02</pdfrwt>
<totfact> 0.58033873E+07</totfact>
</mgrwt>
</event>
<event>
 4    1  0.4438654E+006  0.2925885E+02  0.7546771E-02  0.1606429E+00
         21   -1    0    0  504  501  0.00000000000E+00  0.00000000000E+00  0.14586364327E+02  0.14586364327E+02  0.00000000000E+00 0.  1.
         21   -1    0    0  503  502 -0.00000000000E+00 -0.00000000000E+00 -0.58797988746E+02  0.58797988746E+02  0.00000000000E+00 0.  1.
         21    1    1    2  503  501 -0.28715123651E+02 -0.56144244370E+01 -0.20536526020E+02  0.35746733963E+02  0.00000000000E+00 0.  1.
         21    1    1    2  504  502  0.28715123651E+02  0.56144244370E+01 -0.23675098399E+02  0.37637619110E+02  0.00000000000E+00 0.  1.
<mgrwt>
<rscale>  2 0.29258846E+02</rscale>
<asrwt>0</asrwt>
<pdfrwt beam="1">  1       21 0.22440560E-02 0.29258846E+02</pdfrwt>
<pdfrwt beam="2">  1       21 0.90458445E-02 0.29258846E+02</pdfrwt>
<totfact> 0.73259443E+07</totfact>
</mgrwt>
</event>
<event>
 4    1  0.4438654E+006  0.2306563E+02  0.7546771E-02  0.1690448E+00
         21   -1    0    0  504  501  0.00000000000E+00  0.00000000000E+00  0.12792639999E+02  0.12792639999E+02  0.00000000000E+00 0. -1.
         21   -1    0    0  503  502 -0.00000000000E+00 -0.00000000000E+00 -0.37385062077E+03  0.37385062077E+03  0.00000000000E+00 0.  1.
         21    1    1    2  503  501  0.14167941586E+02 -0.18201451590E+02  0.17228745453E+01  0.23129887710E+02  0.00000000000E+00 0. -1.
         21    1    1    2  504  502 -0.14167941586E+02  0.18201451590E+02 -0.36278085531E+03  0.36351337306E+03  0.00000000000E+00 0.  1.
<mgrwt>
<rscale>  2 0.23065633E+02</rscale>
<asrwt>0</asrwt>
<pdfrwt beam="1">  1       21 0.19680990E-02 0.23065633E+02</pdfrwt>
<pdfrwt beam="2">  1       21 0.57515465E-01 0.23065633E+02</pdfrwt>
<totfact> 0.31193672E+06</totfact>
</mgrwt>
</event>
<event>
 4    1  0.4438654E+006  0.5653886E+02  0.7546771E-02  0.1412959E+00
         21   -1    0    0  503  501  0.00000000000E+00  0.00000000000E+00  0.58841010850E+01  0.58841010850E+01  0.00000000000E+00 0. -1.
         21   -1    0    0  504  502 -0.00000000000E+00 -0.00000000000E+00 -0.55158390116E+03  0.55158390116E+03  0.00000000000E+00 0. -1.
         21    1    1    2  503  502  0.44569575604E+02  0.34787870253E+02 -0.23862497118E+03  0.24523156375E+03  0.00000000000E+00 0. -1.
         21    1    1    2  504  501 -0.44569575604E+02 -0.34787870253E+02 -0.30707482890E+03  0.31223643850E+03  0.00000000000E+00 0. -1.
<mgrwt>
<rscale>  2 0.56538863E+02</rscale>
<asrwt>0</asrwt>
<pdfrwt beam="1">  1       21 0.90524620E-03 0.56538863E+02</pdfrwt>
<pdfrwt beam="2">  1       21 0.84859073E-01 0.56538863E+02</pdfrwt>
<totfact> 0.50024998E+06</totfact>
</mgrwt>
</event>
<event>
 4    1  0.4438654E+006  0.2512245E+02  0.7546771E-02  0.1659249E+00
         21   -1    0    0  503  501  0.00000000000E+00  0.00000000000E+00  0.50621032975E+02  0.50621032975E+02  0.00000000000E+00 0. -1.
         21   -1    0    0  504  502 -0.00000000000E+00 -0.00000000000E+00 -0.12804776908E+02  0.12804776908E+02  0.00000000000E+00 0. -1.
         21    1    1    2  503  502  0.22128126919E+02 -0.11894685067E+02  0.24052013417E+02  0.34779834433E+02  0.00000000000E+00 0. -1.
         21    1    1    2  504  501 -0.22128126919E+02  0.11894685067E+02  0.13764242650E+02  0.28645975450E+02  0.00000000000E+00 0. -1.
<mgrwt>
<rscale>  2 0.25122451E+02</rscale>
<asrwt>0</asrwt>
<pdfrwt beam="1">  1       21 0.77878511E-02 0.25122451E+02</pdfrwt>
<pdfrwt beam="2">  1       21 0.19699657E-02 0.25122451E+02</pdfrwt>
<totfact> 0.11027313E+08</totfact>
</mgrwt>
</event>
<event>
 4    1  0.4438654E+006  0.2374757E+02  0.7546771E-02  0.1679671E+00
         21   -1    0    0  503  501  0.00000000000E+00  0.00000000000E+00  0.52147890034E+02  0.52147890034E+02  0.00000000000E+00 0. -1.
         21   -1    0    0  504  502 -0.00000000000E+00 -0.00000000000E+00 -0.80569131330E+02  0.80569131330E+02  0.00000000000E+00 0. -1.
         21    1    1    2  503  502  0.22158868738E+02  0.85400059699E+01  0.47534008028E+02  0.53135949082E+02  0.00000000000E+00 0. -1.
         21    1    1    2  504  501 -0.22158868738E+02 -0.85400059699E+01 -0.75955249323E+02  0.79581072281E+02  0.00000000000E+00 0. -1.
<mgrwt>
<rscale>  2 0.23747572E+02</rscale>
<asrwt>0</asrwt>
<pdfrwt beam="1">  1       21 0.80227524E-02 0.23747572E+02</pdfrwt>
<pdfrwt beam="2">  1       21 0.12395251E-01 0.23747572E+02</pdfrwt>
<totfact> 0.54722714E+06</totfact>
</mgrwt>
</event>
<event>
 4    1  0.4438654E+006  0.2321731E+02  0.7546771E-02  0.1688012E+00
         21   -1    0    0  503  501  0.00000000000E+00  0.00000000000E+00  0.67135295367E+01  0.67135295367E+01  0.00000000000E+00 0.  1.
         21   -1    0    0  504  502 -0.00000000000E+00 -0.00000000000E+00 -0.23866742560E+03  0.23866742560E+03  0.00000000000E+00 0. -1.
         21    1    1    2  503  502  0.91694931103E+01 -0.21329886233E+02 -0.21592123841E+03  0.21716589246E+03  0.00000000000E+00 0. -1.
         21    1    1    2  504  501 -0.91694931103E+01  0.21329886233E+02 -0.16032657656E+02  0.28215062682E+02  0.00000000000E+00 0.  1.
<mgrwt>
<rscale>  2 0.23217314E+02</rscale>
<asrwt>0</asrwt>
<pdfrwt beam="1">  1       21 0.10328508E-02 0.23217314E+02</pdfrwt>
<pdfrwt beam="2">  1       21 0.36718062E-01 0.23217314E+02</pdfrwt>
<totfact> 0.19692972E+07</totfact>
</mgrwt>
</event>
<event>
 4    1  0.4438654E+006  0.2782036E+02  0.7546771E-02  0.1623512E+00
         21   -1    0    0  502  501  0.00000000000E+00  0.00000000000E+00  0.23094131667E+03  0.23094131667E+03  0.00000000000E+00 0.  1.
         21   -1    0    0  504  502 -0.00000000000E+00 -0.00000000000E+00 -0.43221246961E+01  0.43221246961E+01  0.00000000000E+00 0.  1.
         21    1    1    2  503  501 -0.27449849853E+02 -0.45252837797E+01  0.16905742857E+03  0.17133121900E+03  0.00000000000E+00 0.  1.
         21    1    1    2  504  503  0.27449849853E+02  0.45252837797E+01  0.57561763409E+02  0.63932222369E+02  0.00000000000E+00 0.  1.
<mgrwt>
<rscale>  2 0.27820360E+02</rscale>
<asrwt>0</asrwt>
<pdfrwt beam="1">  1       21 0.35529424E-01 0.27820360E+02</pdfrwt>
<pdfrwt beam="2">  1       21 0.66494244E-03 0.27820360E+02</pdfrwt>
<totfact> 0.42086147E+07</totfact>
</mgrwt>
</event>
<event>
 4    1  0.4438654E+006  0.3733383E+02  0.7546771E-02  0.1528801E+00
         21   -1    0    0  504  501  0.00000000000E+00  0.00000000000E+00  0.59486709550E+02  0.59486709550E+02  0.00000000000E+00 0. -1.
         21   -1    0    0  503  502 -0.00000000000E+00 -0.00000000000E+00 -0.87247148385E+02  0.87247148385E+02  0.00000000000E+00 0.  1.
         21    1    1    2  503  501 -0.36849591786E+02 -0.59935313207E+01  0.48866504943E+02  0.61495935945E+02  0.00000000000E+00 0. -1.
         21    1    1    2  504  502  0.36849591786E+02  0.59935313207E+01 -0.76626943777E+02  0.85237921989E+02  0.00000000000E+00 0.  1.
<mgrwt>
<rscale>  2 0.37333830E+02</rscale>
<asrwt>0</asrwt>
<pdfrwt beam="1">  1       21 0.91518015E-02 0.37333830E+02</pdfrwt>
<pdfrwt beam="2">  1       21 0.13422638E-01 0.37333830E+02</pdfrwt>
<totfact> 0.40871615E+06</totfact>
</mgrwt>
</event>
<event>
 4    1  0.4438654E+006  0.2112633E+02  0.7546771E-02  0.1723815E+00
         21   -1    0    0  503  501  0.00000000000E+00  0.00000000000E+00  0.28203268850E+02  0.28203268850E+02  0.00000000000E+00 0. -1.
         21   -1    0    0  504  502 -0.00000000000E+00 -0.00000000000E+00 -0.25379844152E+02  0.25379844152E+02  0.00000000000E+00 0. -1.
         21    1    1    2  503  502 -0.19362350874E+02 -0.84511084963E+01  0.17850172555E+02  0.27657738996E+02  0.00000000000E+00 0. -1.
         21    1    1    2  504  501  0.19362350874E+02  0.84511084963E+01 -0.15026747857E+02  0.25925374005E+02  0.00000000000E+00 0. -1.
<mgrwt>
<rscale>  2 0.21126331E+02</rscale>
<asrwt>0</asrwt>
<pdfrwt beam="1">  1       21 0.43389644E-02 0.21126331E+02</pdfrwt>
<pdfrwt beam="2">  1       21 0.39045914E-02 0.21126331E+02</pdfrwt>
<totfact> 0.92711650E+07</totfact>
</mgrwt>
</event>
<event>
 4    1  0.4438654E+006  0.2171711E+02  0.7546771E-02  0.1713191E+00
         21   -1    0    0  503  501  0.00000000000E+00  0.00000000000E+00  0.14599886864E+02  0.14599886864E+02  0.00000000000E+00 0.  1.
         21   -1    0    0  504  502 -0.00000000000E+00 -0.00000000000E+00 -0.33080047473E+03  0.33080047473E+03  0.00000000000E+00 0.  1.
         21    1    1    2  503  502 -0.17360254860E+02 -0.13048151141E+02  0.59509151057E+01  0.22517683886E+02  0.00000000000E+00 0.  1.
         21    1    1    2  504  501  0.17360254860E+02  0.13048151141E+02 -0.32215150298E+03  0.32288267771E+03  0.00000000000E+00 0.  1.
<mgrwt>
<rscale>  2 0.21717106E+02</rscale>
<asrwt>0</asrwt>
<pdfrwt beam="1">  1       21 0.22461362E-02 0.21717106E+02</pdfrwt>
<pdfrwt beam="2">  1       21 0.50892387E-01 0.21717106E+02</pdfrwt>
<totfact> 0.32112760E+06</totfact>
</mgrwt>
</event>
<event>
 4    1  0.4438654E+006  0.2216171E+02  0.7546771E-02  0.1705470E+00
         21   -1    0    0  503  501  0.00000000000E+00  0.00000000000E+00  0.51482941748E+02  0.51482941748E+02  0.00000000000E+00 0.  1.
         21   -1    0    0  501  502 -0.00000000000E+00 -0.00000000000E+00 -0.19201460585E+02  0.19201460585E+02  0.00000000000E+00 0.  1.
         21    1    1    2  503  504  0.64121041916E+01 -0.21213820557E+02  0.41210517833E+02  0.46791538155E+02  0.00000000000E+00 0.  1.
         21    1    1    2  504  502 -0.64121041916E+01  0.21213820557E+02 -0.89290366701E+01  0.23892864179E+02  0.00000000000E+00 0.  1.
<mgrwt>
<rscale>  2 0.22161707E+02</rscale>
<asrwt>0</asrwt>
<pdfrwt beam="1">  1       21 0.79204525E-02 0.22161707E+02</pdfrwt>
<pdfrwt beam="2">  1       21 0.29540709E-02 0.22161707E+02</pdfrwt>
<totfact> 0.55415834E+07</totfact>
</mgrwt>
</event>
<event>
 4    1  0.4438654E+006  0.2707592E+02  0.7546771E-02  0.1632859E+00
         21   -1    0    0  504  501  0.00000000000E+00  0.00000000000E+00  0.92227102104E+02  0.92227102104E+02  0.00000000000E+00 0. -1.
         21   -1    0    0  503  502 -0.00000000000E+00 -0.00000000000E+00 -0.79503431859E+01  0.79503431859E+01  0.00000000000E+00 0. -1.
         21    1    1    2  503  501  0.19235140720E+02  0.19055573717E+02  0.41467382995E+02  0.49524230238E+02  0.00000000000E+00 0. -1.
         21    1    1    2  504  502 -0.19235140720E+02 -0.19055573717E+02  0.42809375923E+02  0.50653215052E+02  0.00000000000E+00 0. -1.
<mgrwt>
<rscale>  2 0.27075922E+02</rscale>
<asrwt>0</asrwt>
<pdfrwt beam="1">  1       21 0.14188784E-01 0.27075922E+02</pdfrwt>
<pdfrwt beam="2">  1       21 0.12231298E-02 0.27075922E+02</pdfrwt>
<totfact> 0.85607084E+07</totfact>
</mgrwt>
</event>
<event>
 4    1  0.4438654E+006  0.2416776E+02  0.7546771E-02  0.1673252E+00
         21   -1    0    0  503  501  0.00000000000E+00  0.00000000000E+00  0.14018526118E+03  0.14018526118E+03  0.00000000000E+00 0.  1.
         21   -1    0    0  504  502 -0.00000000000E+00 -0.00000000000E+00 -0.59294123565E+02  0.59294123565E+02  0.00000000000E+00 0. -1.
         21    1    1    2  503  502 -0.21778989072E+02  0.10476472765E+02  0.13661717344E+03  0.13873836141E+03  0.00000000000E+00 0.  1.
         21    1    1    2  504  501  0.21778989072E+02 -0.10476472765E+02 -0.55726035830E+02  0.60741023336E+02  0.00000000000E+00 0. -1.
<mgrwt>
<rscale>  2 0.24167765E+02</rscale>
<asrwt>0</asrwt>
<pdfrwt beam="1">  1       21 0.21566963E-01 0.24167765E+02</pdfrwt>
<pdfrwt beam="2">  1       21 0.91221729E-02 0.24167765E+02</pdfrwt>
<totfact> 0.17154762E+06</totfact>
</mgrwt>
</event>
<event>
 4    1  0.4438654E+006  0.2440770E+02  0.7546771E-02  0.1669658E+00
         21   -1    0    0  503  501  0.00000000000E+00  0.00000000000E+00  0.56538917994E+00  0.56538917994E+00  0.00000000000E+00 0.  1.
         21   -1    0    0  504  502 -0.00000000000E+00 -0.00000000000E+00 -0.12895066455E+04  0.12895066455E+04  0.00000000000E+00 0.  1.
         21    1    1    2  503  502  0.23001755694E+02  0.81642574534E+01 -0.36861988571E+03  0.36942706452E+03  0.00000000000E+00 0.  1.
         21    1    1    2  504  501 -0.23001755694E+02 -0.81642574534E+01 -0.92032137057E+03  0.92064497012E+03  0.00000000000E+00 0.  1.
<mgrwt>
<rscale>  2 0.24407701E+02</rscale>
<asrwt>0</asrwt>
<pdfrwt beam="1">  1       21 0.86984030E-04 0.24407701E+02</pdfrwt>
<pdfrwt beam="2">  1       21 0.19838318E+00 0.24407701E+02</pdfrwt>
<totfact> 0.19509102E+07</totfact>
</mgrwt>
</event>
<event>
 4    1  0.4438654E+006  0.2001349E+02  0.7546771E-02  0.1745060E+00
         21   -1    0    0  504  501  0.00000000000E+00  0.00000000000E+00  0.19056533626E+02  0.19056533626E+02  0.00000000000E+00 0. -1.
         21   -1    0    0  503  502 -0.00000000000E+00 -0.00000000000E+00 -0.20938679602E+03  0.20938679602E+03  0.00000000000E+00 0. -1.
         21    1    1    2  503  501 -0.18302537493E+02  0.80967121659E+01 -0.20350236746E+03  0.20448411476E+03  0.00000000000E+00 0. -1.
         21    1    1    2  504  502  0.18302537493E+02 -0.80967121659E+01  0.13172105060E+02  0.23959214893E+02  0.00000000000E+00 0. -1.
<mgrwt>
<rscale>  2 0.20013486E+02</rscale>
<asrwt>0</asrwt>
<pdfrwt beam="1">  1       21 0.29317744E-02 0.20013486E+02</pdfrwt>
<pdfrwt beam="2">  1       21 0.32213354E-01 0.20013486E+02</pdfrwt>
<totfact> 0.49684323E+06</totfact>
</mgrwt>
</event>
<event>
 4    1  0.4438654E+006  0.2099025E+02  0.7546771E-02  0.1726324E+00
         21   -1    0    0  503  501  0.00000000000E+00  0.00000000000E+00  0.51091758132E+02  0.51091758132E+02  0.00000000000E+00 0. -1.
         21   -1    0    0  504  502 -0.00000000000E+00 -0.00000000000E+00 -0.69137944907E+03  0.69137944907E+03  0.00000000000E+00 0. -1.
         21    1    1    2  503  502 -0.20989901786E+02  0.12022132367E+00  0.48769299545E+02  0.53094585489E+02  0.00000000000E+00 0. -1.
         21    1    1    2  504  501  0.20989901786E+02 -0.12022132367E+00 -0.68905699049E+03  0.68937662172E+03  0.00000000000E+00 0. -1.
<mgrwt>
<rscale>  2 0.20990246E+02</rscale>
<asrwt>0</asrwt>
<pdfrwt beam="1">  1       21 0.78602707E-02 0.20990246E+02</pdfrwt>
<pdfrwt beam="2">  1       21 0.10636607E+00 0.20990246E+02</pdfrwt>
<totfact> 0.97034190E+04</totfact>
</mgrwt>
</event>
<event>
 4    1  0.4438654E+006  0.2055181E+02  0.7546771E-02  0.1734572E+00
         21   -1    0    0  503  501  0.00000000000E+00  0.00000000000E+00  0.35007760833E+02  0.35007760833E+02  0.00000000000E+00 0.  1.
         21   -1    0    0  504  502 -0.00000000000E+00 -0.00000000000E+00 -0.18479220151E+02  0.18479220151E+02  0.00000000000E+00 0. -1.
         21    1    1    2  503  502  0.40106243530E+01  0.20156685767E+02 -0.74915138995E+01  0.21874639867E+02  0.00000000000E+00 0. -1.
         21    1    1    2  504  501 -0.40106243530E+01 -0.20156685767E+02  0.24020054581E+02  0.31612341117E+02  0.00000000000E+00 0.  1.
<mgrwt>
<rscale>  2 0.20551815E+02</rscale>
<asrwt>0</asrwt>
<pdfrwt beam="1">  1       21 0.53858093E-02 0.20551815E+02</pdfrwt>
<pdfrwt beam="2">  1       21 0.28429570E-02 0.20551815E+02</pdfrwt>
<totfact> 0.10707438E+08</totfact>
</mgrwt>
</event>
<event>
 4    1  0.4438654E+006  0.2842346E+02  0.7546771E-02  0.1616199E+00
         21   -1    0    0  503  501  0.00000000000E+00  0.00000000000E+00  0.18544197906E+03  0.18544197906E+03  0.00000000000E+00 0. -1.
         21   -1    0    0  504  502 -0.00000000000E+00 -0.00000000000E+00 -0.22108846106E+03  0.22108846106E+03  0.00000000000E+00 0.  1.
         21    1    1    2  503  502  0.21930603701E+02 -0.18081524630E+02  0.18342932937E+03  0.18561845755E+03  0.00000000000E+00 0. -1.
         21    1    1    2  504  501 -0.21930603701E+02  0.18081524630E+02 -0.21907581137E+03  0.22091198256E+03  0.00000000000E+00 0.  1.
<mgrwt>
<rscale>  2 0.28423457E+02</rscale>
<asrwt>0</asrwt>
<pdfrwt beam="1">  1       21 0.28529535E-01 0.28423457E+02</pdfrwt>
<pdfrwt beam="2">  1       21 0.34013609E-01 0.28423457E+02</pdfrwt>
<totfact> 0.10588920E+05</totfact>
</mgrwt>
</event>
<event>
 4    1  0.4438654E+006  0.2372514E+02  0.7546771E-02  0.1680018E+00
         21   -1    0    0  503  501  0.00000000000E+00  0.00000000000E+00  0.20379396129E+02  0.20379396129E+02  0.00000000000E+00 0. -1.
         21   -1    0    0  504  502 -0.00000000000E+00 -0.00000000000E+00 -0.62721666413E+03  0.62721666413E+03  0.00000000000E+00 0.  1.
         21    1    1    2  503  502  0.19741074231E+02  0.13159488737E+02  0.13169734425E+02  0.27135291788E+02  0.00000000000E+00 0. -1.
         21    1    1    2  504  501 -0.19741074231E+02 -0.13159488737E+02 -0.62000700242E+03  0.62046076847E+03  0.00000000000E+00 0.  1.
<mgrwt>
<rscale>  2 0.23725138E+02</rscale>
<asrwt>0</asrwt>
<pdfrwt beam="1">  1       21 0.31352920E-02 0.23725138E+02</pdfrwt>
<pdfrwt beam="2">  1       21 0.96494862E-01 0.23725138E+02</pdfrwt>
<totfact> 0.51994866E+05</totfact>
</mgrwt>
</event>
<event>
 4    1  0.4438654E+006  0.3300136E+02  0.7546771E-02  0.1567101E+00
         21   -1    0    0  503  501  0.00000000000E+00  0.00000000000E+00  0.10385340602E+03  0.10385340602E+03  0.00000000000E+00 0.  1.
         21   -1    0    0  504  502 -0.00000000000E+00 -0.00000000000E+00 -0.11276752592E+02  0.11276752592E+02  0.00000000000E+00 0.  1.
         21    1    1    2  503  502 -0.30415175080E+01  0.32860904053E+02  0.61524213589E+02  0.69816321169E+02  0.00000000000E+00 0.  1.
         21    1    1    2  504  501  0.30415175080E+01 -0.32860904053E+02  0.31052439844E+02  0.45313837447E+02  0.00000000000E+00 0.  1.
<mgrwt>
<rscale>  2 0.33001361E+02</rscale>
<asrwt>0</asrwt>
<pdfrwt beam="1">  1       21 0.15977446E-01 0.33001361E+02</pdfrwt>
<pdfrwt beam="2">  1       21 0.17348851E-02 0.33001361E+02</pdfrwt>
<totfact> 0.42703625E+07</totfact>
</mgrwt>
</event>
<event>
 4    1  0.4438654E+006  0.2093111E+02  0.7546771E-02  0.1727422E+00
         21   -1    0    0  504  501  0.00000000000E+00  0.00000000000E+00  0.29111044081E+03  0.29111044081E+03  0.00000000000E+00 0. -1.
         21   -1    0    0  503  502 -0.00000000000E+00 -0.00000000000E+00 -0.15324106755E+01  0.15324106755E+01  0.00000000000E+00 0. -1.
         21    1    1    2  503  501  0.14487996842E+02  0.15106591452E+02  0.16437086328E+03  0.16569819508E+03  0.00000000000E+00 0. -1.
         21    1    1    2  504  502 -0.14487996842E+02 -0.15106591452E+02  0.12520716685E+03  0.12694465640E+03  0.00000000000E+00 0. -1.
<mgrwt>
<rscale>  2 0.20931105E+02</rscale>
<asrwt>0</asrwt>
<pdfrwt beam="1">  1       21 0.44786178E-01 0.20931105E+02</pdfrwt>
<pdfrwt beam="2">  1       21 0.23575572E-03 0.20931105E+02</pdfrwt>
<totfact> 0.11636173E+08</totfact>
</mgrwt>
</event>
<event>
 4    1  0.4438654E+006  0.2307746E+02  0.7546771E-02  0.1690258E+00
         21   -1    0    0  503  501  0.00000000000E+00  0.00000000000E+00  0.14433908788E+01  0.14433908788E+01  0.00000000000E+00 0. -1.
         21   -1    0    0  501  502 -0.00000000000E+00 -0.00000000000E+00 -0.70618984715E+03  0.70618984715E+03  0.00000000000E+00 0. -1.
         21    1    1    2  503  504  0.19700087242E+02  0.12019802824E+02 -0.10787622657E+03  0.11031704018E+03  0.00000000000E+00 0. -1.
         21    1    1    2  504  502 -0.19700087242E+02 -0.12019802824E+02 -0.59687022970E+03  0.59731619784E+03  0.00000000000E+00 0. -1.
<mgrwt>
<rscale>  2 0.23077459E+02</rscale>
<asrwt>0</asrwt>
<pdfrwt beam="1">  1       21 0.22205975E-03 0.23077459E+02</pdfrwt>
<pdfrwt beam="2">  1       21 0.10864478E+00 0.23077459E+02</pdfrwt>
<totfact> 0.21080832E+07</totfact>
</mgrwt>
</event>
<event>
 4    1  0.4438654E+006  0.2084638E+02  0.7546771E-02  0.1729002E+00
         21   -1    0    0  504  501  0.00000000000E+00  0.00000000000E+00  0.21676906899E+01  0.21676906899E+01  0.00000000000E+00 0.  1.
         21   -1    0    0  503  502 -0.00000000000E+00 -0.00000000000E+00 -0.20129478712E+03  0.20129478712E+03  0.00000000000E+00 0.  1.
         21    1    1    2  503  501  0.14373566843E+02  0.15098742231E+02 -0.93078067381E+02  0.95383950789E+02  0.00000000000E+00 0.  1.
         21    1    1    2  504  502 -0.14373566843E+02 -0.15098742231E+02 -0.10604902905E+03  0.10807852703E+03  0.00000000000E+00 0.  1.
<mgrwt>
<rscale>  2 0.20846377E+02</rscale>
<asrwt>0</asrwt>
<pdfrwt beam="1">  1       21 0.33349084E-03 0.20846377E+02</pdfrwt>
<pdfrwt beam="2">  1       21 0.30968432E-01 0.20846377E+02</pdfrwt>
<totfact> 0.13959659E+08</totfact>
</mgrwt>
</event>
<event>
 4    1  0.4438654E+006  0.3034391E+02  0.7546771E-02  0.1594318E+00
         21   -1    0    0  504  501  0.00000000000E+00  0.00000000000E+00  0.53934404964E+01  0.53934404964E+01  0.00000000000E+00 0.  1.
         21   -1    0    0  503  502 -0.00000000000E+00 -0.00000000000E+00 -0.18054662739E+03  0.18054662739E+03  0.00000000000E+00 0.  1.
         21    1    1    2  503  501  0.23295543022E+02  0.19444042232E+02 -0.65883962271E+02  0.72535850361E+02  0.00000000000E+00 0.  1.
         21    1    1    2  504  502 -0.23295543022E+02 -0.19444042232E+02 -0.10926922462E+03  0.11340421752E+03  0.00000000000E+00 0.  1.
<mgrwt>
<rscale>  2 0.30343914E+02</rscale>
<asrwt>0</asrwt>
<pdfrwt beam="1">  1       21 0.82975992E-03 0.30343914E+02</pdfrwt>
<pdfrwt beam="2">  1       21 0.27776409E-01 0.30343914E+02</pdfrwt>
<totfact> 0.48433173E+07</totfact>
</mgrwt>
</event>
<event>
 4    1  0.4438654E+006  0.2415347E+02  0.7546771E-02  0.1673467E+00
         21   -1    0    0  504  501  0.00000000000E+00  0.00000000000E+00  0.88606862954E+01  0.88606862954E+01  0.00000000000E+00 0. -1.
         21   -1    0    0  503  502 -0.00000000000E+00 -0.00000000000E+00 -0.73567389369E+02  0.73567389369E+02  0.00000000000E+00 0. -1.
         21    1    1    2  503  501  0.24129103790E+02  0.10846290196E+01 -0.18996287361E+02  0.30728634908E+02  0.00000000000E+00 0. -1.
         21    1    1    2  504  502 -0.24129103790E+02 -0.10846290196E+01 -0.45710415713E+02  0.51699440756E+02  0.00000000000E+00 0. -1.
<mgrwt>
<rscale>  2 0.24153469E+02</rscale>
<asrwt>0</asrwt>
<pdfrwt beam="1">  1       21 0.13631825E-02 0.24153469E+02</pdfrwt>
<pdfrwt beam="2">  1       21 0.11318060E-01 0.24153469E+02</pdfrwt>
<totfact> 0.10325472E+08</totfact>
</mgrwt>
</event>
<event>
 4    1  0.4438654E+006  0.2448675E+02  0.7546771E-02  0.1668485E+00
         21   -1    0    0  502  501  0.00000000000E+00  0.00000000000E+00  0.17044174945E+03  0.17044174945E+03  0.00000000000E+00 0.  1.
         21   -1    0    0  503  502 -0.00000000000E+00 -0.00000000000E+00 -0.41171672820E+01  0.41171672820E+01  0.00000000000E+00 0.  1.
         21    1    1    2  503  504  0.24423016712E+02 -0.17656137766E+01  0.49864583254E+02  0.55552477896E+02  0.00000000000E+00 0.  1.
         21    1    1    2  504  501 -0.24423016712E+02  0.17656137766E+01  0.11645999891E+03  0.11900643883E+03  0.00000000000E+00 0.  1.
<mgrwt>
<rscale>  2 0.24486754E+02</rscale>
<asrwt>0</asrwt>
<pdfrwt beam="1">  1       21 0.26221802E-01 0.24486754E+02</pdfrwt>
<pdfrwt beam="2">  1       21 0.63341048E-03 0.24486754E+02</pdfrwt>
<totfact> 0.76682359E+07</totfact>
</mgrwt>
</event>
<event>
 4    1  0.4438654E+006  0.2076731E+02  0.7546771E-02  0.1730486E+00
         21   -1    0    0  502  501  0.00000000000E+00  0.00000000000E+00  0.18895289140E+03  0.18895289140E+03  0.00000000000E+00 0.  1.
         21   -1    0    0  504  502 -0.00000000000E+00 -0.00000000000E+00 -0.14729350774E+02  0.14729350774E+02  0.00000000000E+00 0. -1.
         21    1    1    2  503  501 -0.97295694214E+01  0.18347118458E+02  0.18073022149E+03  0.18191947184E+03  0.00000000000E+00 0.  1.
         21    1    1    2  504  503  0.97295694214E+01 -0.18347118458E+02 -0.65066808581E+01  0.21762770334E+02  0.00000000000E+00 0. -1.
<mgrwt>
<rscale>  2 0.20767313E+02</rscale>
<asrwt>0</asrwt>
<pdfrwt beam="1">  1       21 0.29069674E-01 0.20767313E+02</pdfrwt>
<pdfrwt beam="2">  1       21 0.22660541E-02 0.20767313E+02</pdfrwt>
<totfact> 0.89617845E+06</totfact>
</mgrwt>
</event>
<event>
 4    1  0.4438654E+006  0.2394325E+02  0.7546771E-02  0.1676661E+00
         21   -1    0    0  503  501  0.00000000000E+00  0.00000000000E+00  0.26903541070E+02  0.26903541070E+02  0.00000000000E+00 0. -1.
         21   -1    0    0  504  502 -0.00000000000E+00 -0.00000000000E+00 -0.71077880160E+02  0.71077880160E+02  0.00000000000E+00 0. -1.
         21    1    1    2  503  502 -0.17643945182E+02  0.16185504215E+02 -0.63081780684E+02  0.67472886425E+02  0.00000000000E+00 0. -1.
         21    1    1    2  504  501  0.17643945182E+02 -0.16185504215E+02  0.18907441595E+02  0.30508534805E+02  0.00000000000E+00 0. -1.
<mgrwt>
<rscale>  2 0.23943253E+02</rscale>
<asrwt>0</asrwt>
<pdfrwt beam="1">  1       21 0.41390063E-02 0.23943253E+02</pdfrwt>
<pdfrwt beam="2">  1       21 0.10935058E-01 0.23943253E+02</pdfrwt>
<totfact> 0.19569532E+07</totfact>
</mgrwt>
</event>
<event>
 4    1  0.4438654E+006  0.2284586E+02  0.7546771E-02  0.1694021E+00
         21   -1    0    0  502  501  0.00000000000E+00  0.00000000000E+00  0.10863693371E+02  0.10863693371E+02  0.00000000000E+00 0. -1.
         21   -1    0    0  504  502 -0.00000000000E+00 -0.00000000000E+00 -0.78869174882E+02  0.78869174882E+02  0.00000000000E+00 0. -1.
         21    1    1    2  503  501 -0.20703926777E+02 -0.96582061481E+01 -0.59534542985E+01  0.23608836228E+02  0.00000000000E+00 0. -1.
         21    1    1    2  504  503  0.20703926777E+02  0.96582061481E+01 -0.62052027212E+02  0.66124032024E+02  0.00000000000E+00 0. -1.
<mgrwt>
<rscale>  2 0.22845865E+02</rscale>
<asrwt>0</asrwt>
<pdfrwt beam="1">  1       21 0.16713374E-02 0.22845865E+02</pdfrwt>
<pdfrwt beam="2">  1       21 0.12133720E-01 0.22845865E+02</pdfrwt>
<totfact> 0.66376581E+07</totfact>
</mgrwt>
</event>
<event>
 4    1  0.4438654E+006  0.4252675E+02  0.7546771E-02  0.1490400E+00
         21   -1    0    0  503  501  0.00000000000E+00  0.00000000000E+00  0.21864831777E+02  0.21864831777E+02  0.00000000000E+00 0. -1.
         21   -1    0    0  504  502 -0.00000000000E+00 -0.00000000000E+00 -0.89652982978E+02  0.89652982978E+02  0.00000000000E+00 0. -1.
         21    1    1    2  503  502  0.40285001454E+02 -0.13625076668E+02 -0.49406690186E+02  0.65188534970E+02  0.00000000000E+00 0. -1.
         21    1    1    2  504  501 -0.40285001454E+02  0.13625076668E+02 -0.18381461015E+02  0.46329279785E+02  0.00000000000E+00 0. -1.
<mgrwt>
<rscale>  2 0.42526745E+02</rscale>
<asrwt>0</asrwt>
<pdfrwt beam="1">  1       21 0.33638203E-02 0.42526745E+02</pdfrwt>
<pdfrwt beam="2">  1       21 0.13792766E-01 0.42526745E+02</pdfrwt>
<totfact> 0.20367109E+07</totfact>
</mgrwt>
</event>
<event>
 4    1  0.4438654E+006  0.5534781E+02  0.7546771E-02  0.1418461E+00
         21   -1    0    0  503  501  0.00000000000E+00  0.00000000000E+00  0.14256788321E+02  0.14256788321E+02  0.00000000000E+00 0.  1.
         21   -1    0    0  504  502 -0.00000000000E+00 -0.00000000000E+00 -0.24151202204E+03  0.24151202204E+03  0.00000000000E+00 0.  1.
         21    1    1    2  503  502 -0.55081816544E+02  0.54197847941E+01 -0.15610109337E+03  0.16562286054E+03  0.00000000000E+00 0.  1.
         21    1    1    2  504  501  0.55081816544E+02 -0.54197847941E+01 -0.71154140350E+02  0.90145949826E+02  0.00000000000E+00 0.  1.
<mgrwt>
<rscale>  2 0.55347815E+02</rscale>
<asrwt>0</asrwt>
<pdfrwt beam="1">  1       21 0.21933519E-02 0.55347815E+02</pdfrwt>
<pdfrwt beam="2">  1       21 0.37155698E-01 0.55347815E+02</pdfrwt>
<totfact> 0.68349926E+06</totfact>
</mgrwt>
</event>
<event>
 4    1  0.4438654E+006  0.3368124E+02  0.7546771E-02  0.1560633E+00
         21   -1    0    0  504  501  0.00000000000E+00  0.00000000000E+00  0.40709274276E+03  0.40709274276E+03  0.00000000000E+00 0.  1.
         21   -1    0    0  503  502 -0.00000000000E+00 -0.00000000000E+00 -0.34746400758E+01  0.34746400758E+01  0.00000000000E+00 0.  1.
         21    1    1    2  503  501 -0.74487018467E+01 -0.32847263793E+02  0.29315513252E+03  0.29508364513E+03  0.00000000000E+00 0.  1.
         21    1    1    2  504  502  0.74487018467E+01  0.32847263793E+02  0.11046297016E+03  0.11548373770E+03  0.00000000000E+00 0.  1.
<mgrwt>
<rscale>  2 0.33681240E+02</rscale>
<asrwt>0</asrwt>
<pdfrwt beam="1">  1       21 0.62629615E-01 0.33681240E+02</pdfrwt>
<pdfrwt beam="2">  1       21 0.53456033E-03 0.33681240E+02</pdfrwt>
<totfact> 0.19969097E+07</totfact>
</mgrwt>
</event>
<event>
 4    1  0.4438654E+006  0.2051190E+02  0.7546771E-02  0.1735336E+00
         21   -1    0    0  503  501  0.00000000000E+00  0.00000000000E+00  0.28707417443E+02  0.28707417443E+02  0.00000000000E+00 0. -1.
         21   -1    0    0  504  502 -0.00000000000E+00 -0.00000000000E+00 -0.12147263654E+03  0.12147263654E+03  0.00000000000E+00 0. -1.
         21    1    1    2  503  502 -0.18114027716E+02 -0.96239367625E+01  0.24031926416E+02  0.31595437110E+02  0.00000000000E+00 0. -1.
         21    1    1    2  504  501  0.18114027716E+02  0.96239367625E+01 -0.11679714551E+03  0.11858461687E+03  0.00000000000E+00 0. -1.
<mgrwt>
<rscale>  2 0.20511903E+02</rscale>
<asrwt>0</asrwt>
<pdfrwt beam="1">  1       21 0.44165257E-02 0.20511903E+02</pdfrwt>
<pdfrwt beam="2">  1       21 0.18688098E-01 0.20511903E+02</pdfrwt>
<totfact> 0.69058382E+06</totfact>
</mgrwt>
</event>
<event>
 4    1  0.4438654E+006  0.2872164E+02  0.7546771E-02  0.1612665E+00
         21   -1    0    0  504  501  0.00000000000E+00  0.00000000000E+00  0.10973622151E+02  0.10973622151E+02  0.00000000000E+00 0. -1.
         21   -1    0    0  503  502 -0.00000000000E+00 -0.00000000000E+00 -0.18390847034E+03  0.18390847034E+03  0.00000000000E+00 0. -1.
         21    1    1    2  503  501 -0.19003164478E+01  0.28658709171E+02 -0.11542833781E+02  0.30954318368E+02  0.00000000000E+00 0. -1.
         21    1    1    2  504  502  0.19003164478E+01 -0.28658709171E+02 -0.16139201441E+03  0.16392777412E+03  0.00000000000E+00 0. -1.
<mgrwt>
<rscale>  2 0.28721644E+02</rscale>
<asrwt>0</asrwt>
<pdfrwt beam="1">  1       21 0.16882496E-02 0.28721644E+02</pdfrwt>
<pdfrwt beam="2">  1       21 0.28293611E-01 0.28721644E+02</pdfrwt>
<totfact> 0.15712901E+07</totfact>
</mgrwt>
</event>
<event>
 4    1  0.4438654E+006  0.2574802E+02  0.7546771E-02  0.1650485E+00
         21   -1    0    0  504  501  0.00000000000E+00  0.00000000000E+00  0.12876690543E+02  0.12876690543E+02  0.00000000000E+00 0.  1.
         21   -1    0    0  503  502 -0.00000000000E+00 -0.00000000000E+00 -0.86825779765E+02  0.86825779765E+02  0.00000000000E+00 0. -1.
         21    1    1    2  503  501  0.42551300615E+01 -0.25393985972E+02 -0.51701146267E+01  0.26261963762E+02  0.00000000000E+00 0.  1.
         21    1    1    2  504  502 -0.42551300615E+01  0.25393985972E+02 -0.68778974595E+02  0.73440506546E+02  0.00000000000E+00 0. -1.
<mgrwt>
<rscale>  2 0.25748022E+02</rscale>
<asrwt>0</asrwt>
<pdfrwt beam="1">  1       21 0.19810293E-02 0.25748022E+02</pdfrwt>
<pdfrwt beam="2">  1       21 0.13357812E-01 0.25748022E+02</pdfrwt>
<totfact> 0.44827131E+07</totfact>
</mgrwt>
</event>
<event>
 4    1  0.4438654E+006  0.2743272E+02  0.7546771E-02  0.1628333E+00
         21   -1    0    0  503  501  0.00000000000E+00  0.00000000000E+00  0.79238205801E+02  0.79238205801E+02  0.00000000000E+00 0.  1.
         21   -1    0    0  504  502 -0.00000000000E+00 -0.00000000000E+00 -0.10003795029E+02  0.10003795029E+02  0.00000000000E+00 0. -1.
         21    1    1    2  503  502 -0.74815212737E+01 -0.26392815883E+02  0.44656844583E+02  0.52409804989E+02  0.00000000000E+00 0.  1.
         21    1    1    2  504  501  0.74815212737E+01  0.26392815883E+02  0.24577566188E+02  0.36832195842E+02  0.00000000000E+00 0. -1.
<mgrwt>
<rscale>  2 0.27432716E+02</rscale>
<asrwt>0</asrwt>
<pdfrwt beam="1">  1       21 0.12190493E-01 0.27432716E+02</pdfrwt>
<pdfrwt beam="2">  1       21 0.15390454E-02 0.27432716E+02</pdfrwt>
<totfact> 0.78283646E+07</totfact>
</mgrwt>
</event>
<event>
 4    1  0.4438654E+006  0.3491282E+02  0.7546771E-02  0.1549376E+00
         21   -1    0    0  503  501  0.00000000000E+00  0.00000000000E+00  0.18591328903E+03  0.18591328903E+03  0.00000000000E+00 0.  1.
         21   -1    0    0  504  502 -0.00000000000E+00 -0.00000000000E+00 -0.89079322449E+01  0.89079322449E+01  0.00000000000E+00 0.  1.
         21    1    1    2  503  502 -0.19704732466E+01 -0.34857169405E+02  0.13855239915E+03  0.14288342218E+03  0.00000000000E+00 0.  1.
         21    1    1    2  504  501  0.19704732466E+01  0.34857169405E+02  0.38452957628E+02  0.51937799087E+02  0.00000000000E+00 0.  1.
<mgrwt>
<rscale>  2 0.34912820E+02</rscale>
<asrwt>0</asrwt>
<pdfrwt beam="1">  1       21 0.28602042E-01 0.34912820E+02</pdfrwt>
<pdfrwt beam="2">  1       21 0.13704512E-02 0.34912820E+02</pdfrwt>
<totfact> 0.21956871E+07</totfact>
</mgrwt>
</event>
<event>
 4    1  0.4438654E+006  0.2104017E+02  0.7546771E-02  0.1725401E+00
         21   -1    0    0  503  501  0.00000000000E+00  0.00000000000E+00  0.95663298986E+01  0.95663298986E+01  0.00000000000E+00 0. -1.
         21   -1    0    0  504  502 -0.00000000000E+00 -0.00000000000E+00 -0.17164302834E+03  0.17164302834E+03  0.00000000000E+00 0. -1.
         21    1    1    2  503  502  0.13664016213E+02 -0.15999482006E+02 -0.36047046719E+01  0.21346724791E+02  0.00000000000E+00 0. -1.
         21    1    1    2  504  501 -0.13664016213E+02  0.15999482006E+02 -0.15847199377E+03  0.15986263344E+03  0.00000000000E+00 0. -1.
<mgrwt>
<rscale>  2 0.21040170E+02</rscale>
<asrwt>0</asrwt>
<pdfrwt beam="1">  1       21 0.14717431E-02 0.21040170E+02</pdfrwt>
<pdfrwt beam="2">  1       21 0.26406618E-01 0.21040170E+02</pdfrwt>
<totfact> 0.20615104E+07</totfact>
</mgrwt>
</event>
<event>
 4    1  0.4438654E+006  0.2162088E+02  0.7546771E-02  0.1714892E+00
         21   -1    0    0  504  501  0.00000000000E+00  0.00000000000E+00  0.32571371063E+00  0.32571371063E+00  0.00000000000E+00 0.  1.
         21   -1    0    0  503  502 -0.00000000000E+00 -0.00000000000E+00 -0.14997659096E+04  0.14997659096E+04  0.00000000000E+00 0.  1.
         21    1    1    2  503  501  0.11980081030E+02  0.17998333626E+02 -0.90535175919E+03  0.90560988854E+03  0.00000000000E+00 0.  1.
         21    1    1    2  504  502 -0.11980081030E+02 -0.17998333626E+02 -0.59408843666E+03  0.59448173474E+03  0.00000000000E+00 0.  1.
<mgrwt>
<rscale>  2 0.21620878E+02</rscale>
<asrwt>0</asrwt>
<pdfrwt beam="1">  1       21 0.50109885E-04 0.21620878E+02</pdfrwt>
<pdfrwt beam="2">  1       21 0.23073283E+00 0.21620878E+02</pdfrwt>
<totfact> 0.28088374E+07</totfact>
</mgrwt>
</event>
<event>
 4    1  0.4438654E+006  0.2411773E+02  0.7546771E-02  0.1674007E+00
         21   -1    0    0  503  501  0.00000000000E+00  0.00000000000E+00  0.24621855385E+02  0.24621855385E+02  0.00000000000E+00 0.  1.
         21   -1    0    0  501  502 -0.00000000000E+00 -0.00000000000E+00 -0.53607889631E+02  0.53607889631E+02  0.00000000000E+00 0.  1.
         21    1    1    2  503  504 -0.22383169145E+02  0.89810284436E+01  0.14760090794E+02  0.28275880413E+02  0.00000000000E+00 0.  1.
         21    1    1    2  504  502  0.22383169145E+02 -0.89810284436E+01 -0.43746125040E+02  0.49953864604E+02  0.00000000000E+00 0.  1.
<mgrwt>
<rscale>  2 0.24117735E+02</rscale>
<asrwt>0</asrwt>
<pdfrwt beam="1">  1       21 0.37879778E-02 0.24117735E+02</pdfrwt>
<pdfrwt beam="2">  1       21 0.82473676E-02 0.24117735E+02</pdfrwt>
<totfact> 0.35925948E+07</totfact>
</mgrwt>
</event>
<event>
 4    1  0.4438654E+006  0.2116847E+02  0.7546771E-02  0.1723043E+00
         21   -1    0    0  503  501  0.00000000000E+00  0.00000000000E+00  0.20905971699E+02  0.20905971699E+02  0.00000000000E+00 0.  1.
         21   -1    0    0  504  502 -0.00000000000E+00 -0.00000000000E+00 -0.24810906175E+02  0.24810906175E+02  0.00000000000E+00 0.  1.
         21    1    1    2  503  502 -0.99063786191E+01  0.18707421845E+02 -0.10385197867E+02  0.23578725669E+02  0.00000000000E+00 0.  1.
         21    1    1    2  504  501  0.99063786191E+01 -0.18707421845E+02  0.64802633902E+01  0.22138152205E+02  0.00000000000E+00 0.  1.
<mgrwt>
<rscale>  2 0.21168466E+02</rscale>
<asrwt>0</asrwt>
<pdfrwt beam="1">  1       21 0.32163033E-02 0.21168466E+02</pdfrwt>
<pdfrwt beam="2">  1       21 0.38170625E-02 0.21168466E+02</pdfrwt>
<totfact> 0.15362738E+08</totfact>
</mgrwt>
</event>
<event>
 4    1  0.4438654E+006  0.2036068E+02  0.7546771E-02  0.1738249E+00
         21   -1    0    0  504  501  0.00000000000E+00  0.00000000000E+00  0.54325030351E+02  0.54325030351E+02  0.00000000000E+00 0.  1.
         21   -1    0    0  503  502 -0.00000000000E+00 -0.00000000000E+00 -0.30858526577E+02  0.30858526577E+02  0.00000000000E+00 0.  1.
         21    1    1    2  503  501 -0.19990525044E+02 -0.38647480305E+01  0.48685353023E+02  0.52771402937E+02  0.00000000000E+00 0.  1.
         21    1    1    2  504  502  0.19990525044E+02  0.38647480305E+01 -0.25218849249E+02  0.32412153991E+02  0.00000000000E+00 0.  1.
<mgrwt>
<rscale>  2 0.20360682E+02</rscale>
<asrwt>0</asrwt>
<pdfrwt beam="1">  1       21 0.83576970E-02 0.20360682E+02</pdfrwt>
<pdfrwt beam="2">  1       21 0.47474656E-02 0.20360682E+02</pdfrwt>
<totfact> 0.23637529E+07</totfact>
</mgrwt>
</event>
<event>
 4    1  0.4438654E+006  0.2001550E+02  0.7546771E-02  0.1745020E+00
         21   -1    0    0  502  501  0.00000000000E+00  0.00000000000E+00  0.62163347938E+03  0.62163347938E+03  0.00000000000E+00 0.  1.
         21   -1    0    0  503  502 -0.00000000000E+00 -0.00000000000E+00 -0.94135044227E+00  0.94135044227E+00  0.00000000000E+00 0.  1.
         21    1    1    2  503  504  0.19611313179E+02  0.40020848850E+01  0.13553005183E+03  0.13700005561E+03  0.00000000000E+00 0.  1.
         21    1    1    2  504  501 -0.19611313179E+02 -0.40020848850E+01  0.48516207711E+03  0.48557477421E+03  0.00000000000E+00 0.  1.
<mgrwt>
<rscale>  2 0.20015501E+02</rscale>
<asrwt>0</asrwt>
<pdfrwt beam="1">  1       21 0.95635592E-01 0.20015501E+02</pdfrwt>
<pdfrwt beam="2">  1       21 0.14482364E-03 0.20015501E+02</pdfrwt>
<totfact> 0.49988905E+07</totfact>
</mgrwt>
</event>
<event>
 4    1  0.4438654E+006  0.2544689E+02  0.7546771E-02  0.1654665E+00
         21   -1    0    0  503  501  0.00000000000E+00  0.00000000000E+00  0.54214745947E+02  0.54214745947E+02  0.00000000000E+00 0.  1.
         21   -1    0    0  504  502 -0.00000000000E+00 -0.00000000000E+00 -0.33812882296E+02  0.33812882296E+02  0.00000000000E+00 0. -1.
         21    1    1    2  503  502  0.23245067840E+02 -0.10354273934E+02 -0.25195591587E+02  0.35810082421E+02  0.00000000000E+00 0. -1.
         21    1    1    2  504  501 -0.23245067840E+02  0.10354273934E+02  0.45597455238E+02  0.52217545823E+02  0.00000000000E+00 0.  1.
<mgrwt>
<rscale>  2 0.25446889E+02</rscale>
<asrwt>0</asrwt>
<pdfrwt beam="1">  1       21 0.83407302E-02 0.25446889E+02</pdfrwt>
<pdfrwt beam="2">  1       21 0.52019819E-02 0.25446889E+02</pdfrwt>
<totfact> 0.21566851E+07</totfact>
</mgrwt>
</event>
<event>
 4    1  0.4438654E+006  0.2260713E+02  0.7546771E-02  0.1697959E+00
         21   -1    0    0  502  501  0.00000000000E+00  0.00000000000E+00  0.60715360019E+02  0.60715360019E+02  0.00000000000E+00 0.  1.
         21   -1    0    0  504  502 -0.00000000000E+00 -0.00000000000E+00 -0.66516991738E+03  0.66516991738E+03  0.00000000000E+00 0.  1.
         21    1    1    2  503  501  0.17155716128E+02  0.14722892153E+02  0.58411542416E+02  0.62633780316E+02  0.00000000000E+00 0.  1.
         21    1    1    2  504  503 -0.17155716128E+02 -0.14722892153E+02 -0.66286609978E+03  0.66325149709E+03  0.00000000000E+00 0.  1.
<mgrwt>
<rscale>  2 0.22607126E+02</rscale>
<asrwt>0</asrwt>
<pdfrwt beam="1">  1       21 0.93408245E-02 0.22607126E+02</pdfrwt>
<pdfrwt beam="2">  1       21 0.10233383E+00 0.22607126E+02</pdfrwt>
<totfact> 0.79621324E+04</totfact>
</mgrwt>
</event>
<event>
 4    1  0.4438654E+006  0.2176774E+02  0.7546771E-02  0.1712300E+00
         21   -1    0    0  504  501  0.00000000000E+00  0.00000000000E+00  0.11060841417E+03  0.11060841417E+03  0.00000000000E+00 0.  1.
         21   -1    0    0  503  502 -0.00000000000E+00 -0.00000000000E+00 -0.20093931786E+03  0.20093931786E+03  0.00000000000E+00 0. -1.
         21    1    1    2  503  501  0.21435629489E+02 -0.37879392198E+01 -0.19926987401E+03  0.20045527527E+03  0.00000000000E+00 0. -1.
         21    1    1    2  504  502 -0.21435629489E+02  0.37879392198E+01  0.10893897032E+03  0.11109245677E+03  0.00000000000E+00 0.  1.
<mgrwt>
<rscale>  2 0.21767744E+02</rscale>
<asrwt>0</asrwt>
<pdfrwt beam="1">  1       21 0.17016679E-01 0.21767744E+02</pdfrwt>
<pdfrwt beam="2">  1       21 0.30913741E-01 0.21767744E+02</pdfrwt>
<totfact> 0.31322196E+05</totfact>
</mgrwt>
</event>
<event>
 4    1  0.4438654E+006  0.3592574E+02  0.7546771E-02  0.1540530E+00
         21   -1    0    0  502  501  0.00000000000E+00  0.00000000000E+00  0.14359568827E+02  0.14359568827E+02  0.00000000000E+00 0.  1.
         21   -1    0    0  504  502 -0.00000000000E+00 -0.00000000000E+00 -0.94608281205E+02  0.94608281205E+02  0.00000000000E+00 0.  1.
         21    1    1    2  503  501  0.19631881424E+02 -0.30087334830E+02 -0.27945960525E+02  0.45515219378E+02  0.00000000000E+00 0.  1.
         21    1    1    2  504  503 -0.19631881424E+02  0.30087334830E+02 -0.52302751853E+02  0.63452630653E+02  0.00000000000E+00 0.  1.
<mgrwt>
<rscale>  2 0.35925736E+02</rscale>
<asrwt>0</asrwt>
<pdfrwt beam="1">  1       21 0.22091644E-02 0.35925736E+02</pdfrwt>
<pdfrwt beam="2">  1       21 0.14555120E-01 0.35925736E+02</pdfrwt>
<totfact> 0.35049203E+07</totfact>
</mgrwt>
</event>
<event>
 4    1  0.4438654E+006  0.3194510E+02  0.7546771E-02  0.1577532E+00
         21   -1    0    0  504  501  0.00000000000E+00  0.00000000000E+00  0.11074866858E+03  0.11074866858E+03  0.00000000000E+00 0. -1.
         21   -1    0    0  503  502 -0.00000000000E+00 -0.00000000000E+00 -0.52658559933E+02  0.52658559933E+02  0.00000000000E+00 0. -1.
         21    1    1    2  503  501  0.31942886617E+02  0.37646041205E+00 -0.45166607444E+02  0.55321895809E+02  0.00000000000E+00 0. -1.
         21    1    1    2  504  502 -0.31942886617E+02 -0.37646041205E+00  0.10325671609E+03  0.10808533270E+03  0.00000000000E+00 0. -1.
<mgrwt>
<rscale>  2 0.31945105E+02</rscale>
<asrwt>0</asrwt>
<pdfrwt beam="1">  1       21 0.17038257E-01 0.31945105E+02</pdfrwt>
<pdfrwt beam="2">  1       21 0.81013169E-02 0.31945105E+02</pdfrwt>
<totfact> 0.32548066E+06</totfact>
</mgrwt>
</event>
<event>
 4    1  0.4438654E+006  0.4874221E+02  0.7546771E-02  0.1452246E+00
         21   -1    0    0  504  501  0.00000000000E+00  0.00000000000E+00  0.14258836150E+03  0.14258836150E+03  0.00000000000E+00 0.  1.
         21   -1    0    0  503  502 -0.00000000000E+00 -0.00000000000E+00 -0.18858441632E+03  0.18858441632E+03  0.00000000000E+00 0. -1.
         21    1    1    2  503  501  0.35039775118E+02  0.33882398481E+02  0.13510421416E+03  0.14362782269E+03  0.00000000000E+00 0.  1.
         21    1    1    2  504  502 -0.35039775118E+02 -0.33882398481E+02 -0.18110026899E+03  0.18754495513E+03  0.00000000000E+00 0. -1.
<mgrwt>
<rscale>  2 0.48742207E+02</rscale>
<asrwt>0</asrwt>
<pdfrwt beam="1">  1       21 0.21936671E-01 0.48742207E+02</pdfrwt>
<pdfrwt beam="2">  1       21 0.29012987E-01 0.48742207E+02</pdfrwt>
<totfact> 0.22859497E+05</totfact>
</mgrwt>
</event>
<event>
 4    1  0.4438654E+006  0.2269824E+02  0.7546771E-02  0.1696449E+00
         21   -1    0    0  504  501  0.00000000000E+00  0.00000000000E+00  0.13344606528E+02  0.13344606528E+02  0.00000000000E+00 0. -1.
         21   -1    0    0  503  502 -0.00000000000E+00 -0.00000000000E+00 -0.65546797784E+02  0.65546797784E+02  0.00000000000E+00 0.  1.
         21    1    1    2  503  501 -0.99756697961E+01 -0.20388629479E+02 -0.51388955207E+02  0.56178598392E+02  0.00000000000E+00 0.  1.
         21    1    1    2  504  502  0.99756697961E+01  0.20388629479E+02 -0.81323604795E+00  0.22712805921E+02  0.00000000000E+00 0. -1.
<mgrwt>
<rscale>  2 0.22698242E+02</rscale>
<asrwt>0</asrwt>
<pdfrwt beam="1">  1       21 0.20530164E-02 0.22698242E+02</pdfrwt>
<pdfrwt beam="2">  1       21 0.10084123E-01 0.22698242E+02</pdfrwt>
<totfact> 0.65818962E+07</totfact>
</mgrwt>
</event>
<event>
 4    1  0.4438654E+006  0.3381183E+02  0.7546771E-02  0.1559412E+00
         21   -1    0    0  502  501  0.00000000000E+00  0.00000000000E+00  0.26598641928E+03  0.26598641928E+03  0.00000000000E+00 0.  1.
         21   -1    0    0  504  502 -0.00000000000E+00 -0.00000000000E+00 -0.20331435103E+02  0.20331435103E+02  0.00000000000E+00 0.  1.
         21    1    1    2  503  501  0.33466705879E+02  0.48186865551E+01  0.24995693779E+03  0.25223344523E+03  0.00000000000E+00 0.  1.
         21    1    1    2  504  503 -0.33466705879E+02 -0.48186865551E+01 -0.43019536130E+01  0.34084409154E+02  0.00000000000E+00 0.  1.
<mgrwt>
<rscale>  2 0.33811834E+02</rscale>
<asrwt>0</asrwt>
<pdfrwt beam="1">  1       21 0.40920985E-01 0.33811834E+02</pdfrwt>
<pdfrwt beam="2">  1       21 0.31279133E-02 0.33811834E+02</pdfrwt>
<totfact> 0.30823999E+06</totfact>
</mgrwt>
</event>
<event>
 4    1  0.4438654E+006  0.2695269E+02  0.7546771E-02  0.1634442E+00
         21   -1    0    0  504  501  0.00000000000E+00  0.00000000000E+00  0.14864775479E+02  0.14864775479E+02  0.00000000000E+00 0. -1.
         21   -1    0    0  503  502 -0.00000000000E+00 -0.00000000000E+00 -0.40322044373E+03  0.40322044373E+03  0.00000000000E+00 0.  1.
         21    1    1    2  503  501  0.25760101303E+02  0.79287095867E+01 -0.39014341679E+03  0.39107330888E+03  0.00000000000E+00 0.  1.
         21    1    1    2  504  502 -0.25760101303E+02 -0.79287095867E+01  0.17877485370E+01  0.27011910330E+02  0.00000000000E+00 0. -1.
<mgrwt>
<rscale>  2 0.26952685E+02</rscale>
<asrwt>0</asrwt>
<pdfrwt beam="1">  1       21 0.22868890E-02 0.26952685E+02</pdfrwt>
<pdfrwt beam="2">  1       21 0.62033903E-01 0.26952685E+02</pdfrwt>
<totfact> 0.21663861E+06</totfact>
</mgrwt>
</event>
<event>
 4    1  0.4438654E+006  0.2392702E+02  0.7546771E-02  0.1676910E+00
         21   -1    0    0  504  501  0.00000000000E+00  0.00000000000E+00  0.71317982895E+03  0.71317982895E+03  0.00000000000E+00 0. -1.
         21   -1    0    0  503  502 -0.00000000000E+00 -0.00000000000E+00 -0.31658703732E+01  0.31658703732E+01  0.00000000000E+00 0. -1.
         21    1    1    2  503  501 -0.11303058715E+02  0.21088928938E+02  0.45557744741E+02  0.51458820098E+02  0.00000000000E+00 0. -1.
         21    1    1    2  504  502  0.11303058715E+02 -0.21088928938E+02  0.66445621384E+03  0.66488687922E+03  0.00000000000E+00 0. -1.
<mgrwt>
<rscale>  2 0.23927015E+02</rscale>
<asrwt>0</asrwt>
<pdfrwt beam="1">  1       21 0.10971985E+00 0.23927015E+02</pdfrwt>
<pdfrwt beam="2">  1       21 0.48705755E-03 0.23927015E+02</pdfrwt>
<totfact> 0.65838748E+06</totfact>
</mgrwt>
</event>
<event>
 4    1  0.4438654E+006  0.2086648E+02  0.7546771E-02  0.1728627E+00
         21   -1    0    0  504  501  0.00000000000E+00  0.00000000000E+00  0.34733081064E+01  0.34733081064E+01  0.00000000000E+00 0.  1.
         21   -1    0    0  503  502 -0.00000000000E+00 -0.00000000000E+00 -0.76696590263E+03  0.76696590263E+03  0.00000000000E+00 0.  1.
         21    1    1    2  503  501  0.30777703800E+01  0.20638244057E+02 -0.73408060207E+03  0.73437711029E+03  0.00000000000E+00 0.  1.
         21    1    1    2  504  502 -0.30777703800E+01 -0.20638244057E+02 -0.29411992456E+02  0.36062100445E+02  0.00000000000E+00 0.  1.
<mgrwt>
<rscale>  2 0.20866475E+02</rscale>
<asrwt>0</asrwt>
<pdfrwt beam="1">  1       21 0.53435498E-03 0.20866475E+02</pdfrwt>
<pdfrwt beam="2">  1       21 0.11799478E+00 0.20866475E+02</pdfrwt>
<totfact> 0.47870104E+06</totfact>
</mgrwt>
</event>
<event>
 4    1  0.4438654E+006  0.2556916E+02  0.7546771E-02  0.1652959E+00
         21   -1    0    0  504  501  0.00000000000E+00  0.00000000000E+00  0.80912252821E+02  0.80912252821E+02  0.00000000000E+00 0.  1.
         21   -1    0    0  501  502 -0.00000000000E+00 -0.00000000000E+00 -0.44693938886E+02  0.44693938886E+02  0.00000000000E+00 0.  1.
         21    1    1    2  503  502  0.21765959094E+02  0.13417346302E+02 -0.38734125118E+02  0.46412440205E+02  0.00000000000E+00 0.  1.
         21    1    1    2  504  503 -0.21765959094E+02 -0.13417346302E+02  0.74952439053E+02  0.79193751503E+02  0.00000000000E+00 0.  1.
<mgrwt>
<rscale>  2 0.25569164E+02</rscale>
<asrwt>0</asrwt>
<pdfrwt beam="1">  1       21 0.12448039E-01 0.25569164E+02</pdfrwt>
<pdfrwt beam="2">  1       21 0.68759906E-02 0.25569164E+02</pdfrwt>
<totfact> 0.70708494E+06</totfact>
</mgrwt>
</event>
<event>
 4    1  0.4438654E+006  0.2214788E+02  0.7546771E-02  0.1705707E+00
         21   -1    0    0  504  501  0.00000000000E+00  0.00000000000E+00  0.22395432605E+01  0.22395432605E+01  0.00000000000E+00 0. -1.
         21   -1    0    0  501  502 -0.00000000000E+00 -0.00000000000E+00 -0.27118747974E+03  0.27118747974E+03  0.00000000000E+00 0. -1.
         21    1    1    2  503  502  0.12345185370E+02 -0.18388176087E+02 -0.19442990644E+03  0.19568729427E+03  0.00000000000E+00 0. -1.
         21    1    1    2  504  503 -0.12345185370E+02  0.18388176087E+02 -0.74518030036E+02  0.77739728724E+02  0.00000000000E+00 0. -1.
<mgrwt>
<rscale>  2 0.22147881E+02</rscale>
<asrwt>0</asrwt>
<pdfrwt beam="1">  1       21 0.34454502E-03 0.22147881E+02</pdfrwt>
<pdfrwt beam="2">  1       21 0.41721162E-01 0.22147881E+02</pdfrwt>
<totfact> 0.77896423E+07</totfact>
</mgrwt>
</event>
<event>
 4    1  0.4438654E+006  0.3021634E+02  0.7546771E-02  0.1595710E+00
         21   -1    0    0  504  501  0.00000000000E+00  0.00000000000E+00  0.30025350844E+03  0.30025350844E+03  0.00000000000E+00 0.  1.
         21   -1    0    0  503  502 -0.00000000000E+00 -0.00000000000E+00 -0.21772942384E+03  0.21772942384E+03  0.00000000000E+00 0.  1.
         21    1    1    2  503  501  0.13132258005E+02 -0.27213431517E+02  0.29843858522E+03  0.29996435822E+03  0.00000000000E+00 0.  1.
         21    1    1    2  504  502 -0.13132258005E+02  0.27213431517E+02 -0.21591450062E+03  0.21801857406E+03  0.00000000000E+00 0.  1.
<mgrwt>
<rscale>  2 0.30216338E+02</rscale>
<asrwt>0</asrwt>
<pdfrwt beam="1">  1       21 0.46192847E-01 0.30216338E+02</pdfrwt>
<pdfrwt beam="2">  1       21 0.33496835E-01 0.30216338E+02</pdfrwt>
<totfact> 0.43925758E+04</totfact>
</mgrwt>
</event>
<event>
 4    1  0.4438654E+006  0.2285167E+02  0.7546771E-02  0.1693926E+00
         21   -1    0    0  503  501  0.00000000000E+00  0.00000000000E+00  0.13270463407E+03  0.13270463407E+03  0.00000000000E+00 0.  1.
         21   -1    0    0  504  502 -0.00000000000E+00 -0.00000000000E+00 -0.59305924895E+01  0.59305924895E+01  0.00000000000E+00 0. -1.
         21    1    1    2  503  502  0.17700357861E+02 -0.14453243574E+02  0.23177821989E+02  0.32548584460E+02  0.00000000000E+00 0. -1.
         21    1    1    2  504  501 -0.17700357861E+02  0.14453243574E+02  0.10359621959E+03  0.10608664210E+03  0.00000000000E+00 0.  1.
<mgrwt>
<rscale>  2 0.22851672E+02</rscale>
<asrwt>0</asrwt>
<pdfrwt beam="1">  1       21 0.20416095E-01 0.22851672E+02</pdfrwt>
<pdfrwt beam="2">  1       21 0.91239894E-03 0.22851672E+02</pdfrwt>
<totfact> 0.68063544E+07</totfact>
</mgrwt>
</event>
<event>
 4    1  0.4438654E+006  0.2195508E+02  0.7546771E-02  0.1709030E+00
         21   -1    0    0  504  501  0.00000000000E+00  0.00000000000E+00  0.11852918335E+02  0.11852918335E+02  0.00000000000E+00 0. -1.
         21   -1    0    0  501  502 -0.00000000000E+00 -0.00000000000E+00 -0.55961332804E+02  0.55961332804E+02  0.00000000000E+00 0. -1.
         21    1    1    2  503  502 -0.15733326094E+00  0.21954512105E+02 -0.39780134103E+02  0.45436597857E+02  0.00000000000E+00 0. -1.
         21    1    1    2  504  503  0.15733326094E+00 -0.21954512105E+02 -0.43282803659E+01  0.22377653283E+02  0.00000000000E+00 0. -1.
<mgrwt>
<rscale>  2 0.21955076E+02</rscale>
<asrwt>0</asrwt>
<pdfrwt beam="1">  1       21 0.18235259E-02 0.21955076E+02</pdfrwt>
<pdfrwt beam="2">  1       21 0.86094359E-02 0.21955076E+02</pdfrwt>
<totfact> 0.10140414E+08</totfact>
</mgrwt>
</event>
<event>
 4    1  0.4438654E+006  0.2101701E+02  0.7546771E-02  0.1725828E+00
         21   -1    0    0  504  501  0.00000000000E+00  0.00000000000E+00  0.51100911333E+02  0.51100911333E+02  0.00000000000E+00 0. -1.
         21   -1    0    0  503  502 -0.00000000000E+00 -0.00000000000E+00 -0.91299721885E+01  0.91299721885E+01  0.00000000000E+00 0. -1.
         21    1    1    2  503  501 -0.10361245013E+02 -0.18285494847E+02  0.27933694001E+02  0.34957202127E+02  0.00000000000E+00 0. -1.
         21    1    1    2  504  502  0.10361245013E+02  0.18285494847E+02  0.14037245143E+02  0.25273681394E+02  0.00000000000E+00 0. -1.
<mgrwt>
<rscale>  2 0.21017010E+02</rscale>
<asrwt>0</asrwt>
<pdfrwt beam="1">  1       21 0.78616785E-02 0.21017010E+02</pdfrwt>
<pdfrwt beam="2">  1       21 0.14046111E-02 0.21017010E+02</pdfrwt>
<totfact> 0.17253636E+08</totfact>
</mgrwt>
</event>
<event>
 4    1  0.4438654E+006  0.2022871E+02  0.7546771E-02  0.1740818E+00
         21   -1    0    0  503  501  0.00000000000E+00  0.00000000000E+00  0.38314619397E+01  0.38314619397E+01  0.00000000000E+00 0. -1.
         21   -1    0    0  504  502 -0.00000000000E+00 -0.00000000000E+00 -0.10719491430E+03  0.10719491430E+03  0.00000000000E+00 0. -1.
         21    1    1    2  503  502  0.94360138967E+01  0.17893077404E+02 -0.48312756843E+02  0.52376741508E+02  0.00000000000E+00 0. -1.
         21    1    1    2  504  501 -0.94360138967E+01 -0.17893077404E+02 -0.55050695522E+02  0.58649634736E+02  0.00000000000E+00 0. -1.
<mgrwt>
<rscale>  2 0.20228707E+02</rscale>
<asrwt>0</asrwt>
<pdfrwt beam="1">  1       21 0.58945563E-03 0.20228707E+02</pdfrwt>
<pdfrwt beam="2">  1       21 0.16491527E-01 0.20228707E+02</pdfrwt>
<totfact> 0.18185502E+08</totfact>
</mgrwt>
</event>
<event>
 4    1  0.4438654E+006  0.2121073E+02  0.7546771E-02  0.1722271E+00
         21   -1    0    0  502  501  0.00000000000E+00  0.00000000000E+00  0.32461729912E+02  0.32461729912E+02  0.00000000000E+00 0.  1.
         21   -1    0    0  503  502 -0.00000000000E+00 -0.00000000000E+00 -0.33143392434E+03  0.33143392434E+03  0.00000000000E+00 0.  1.
         21    1    1    2  503  504  0.19919602597E+02 -0.72872769757E+01 -0.32758913624E+03  0.32827509372E+03  0.00000000000E+00 0.  1.
         21    1    1    2  504  501 -0.19919602597E+02  0.72872769757E+01  0.28616941817E+02  0.35620560528E+02  0.00000000000E+00 0.  1.
<mgrwt>
<rscale>  2 0.21210728E+02</rscale>
<asrwt>0</asrwt>
<pdfrwt beam="1">  1       21 0.49941122E-02 0.21210728E+02</pdfrwt>
<pdfrwt beam="2">  1       21 0.50989835E-01 0.21210728E+02</pdfrwt>
<totfact> 0.91689146E+05</totfact>
</mgrwt>
</event>
<event>
 4    1  0.4438654E+006  0.2537598E+02  0.7546771E-02  0.1655660E+00
         21   -1    0    0  503  501  0.00000000000E+00  0.00000000000E+00  0.78441175597E+01  0.78441175597E+01  0.00000000000E+00 0.  1.
         21   -1    0    0  501  502 -0.00000000000E+00 -0.00000000000E+00 -0.89858512648E+02  0.89858512648E+02  0.00000000000E+00 0.  1.
         21    1    1    2  503  504 -0.10629629814E+02 -0.23042382320E+02 -0.26645502454E+02  0.36795695590E+02  0.00000000000E+00 0.  1.
         21    1    1    2  504  502  0.10629629814E+02  0.23042382320E+02 -0.55368892635E+02  0.60906934618E+02  0.00000000000E+00 0.  1.
<mgrwt>
<rscale>  2 0.25375981E+02</rscale>
<asrwt>0</asrwt>
<pdfrwt beam="1">  1       21 0.12067873E-02 0.25375981E+02</pdfrwt>
<pdfrwt beam="2">  1       21 0.13824386E-01 0.25375981E+02</pdfrwt>
<totfact> 0.89843291E+07</totfact>
</mgrwt>
</event>
<event>
 4    1  0.4438654E+006  0.2011085E+02  0.7546771E-02  0.1743133E+00
         21   -1    0    0  502  501  0.00000000000E+00  0.00000000000E+00  0.32933054115E+01  0.32933054115E+01  0.00000000000E+00 0. -1.
         21   -1    0    0  503  502 -0.00000000000E+00 -0.00000000000E+00 -0.31893526111E+03  0.31893526111E+03  0.00000000000E+00 0. -1.
         21    1    1    2  503  504  0.14098791976E+02  0.14341214674E+02 -0.28416393664E+03  0.28487469045E+03  0.00000000000E+00 0. -1.
         21    1    1    2  504  501 -0.14098791976E+02 -0.14341214674E+02 -0.31478019056E+02  0.37353876066E+02  0.00000000000E+00 0. -1.
<mgrwt>
<rscale>  2 0.20110852E+02</rscale>
<asrwt>0</asrwt>
<pdfrwt beam="1">  1       21 0.50666228E-03 0.20110852E+02</pdfrwt>
<pdfrwt beam="2">  1       21 0.49066972E-01 0.20110852E+02</pdfrwt>
<totfact> 0.31735949E+07</totfact>
</mgrwt>
</event>
<event>
 4    1  0.4438654E+006  0.2128872E+02  0.7546771E-02  0.1720852E+00
         21   -1    0    0  504  501  0.00000000000E+00  0.00000000000E+00  0.23674820315E+02  0.23674820315E+02  0.00000000000E+00 0.  1.
         21   -1    0    0  503  502 -0.00000000000E+00 -0.00000000000E+00 -0.23123304464E+02  0.23123304464E+02  0.00000000000E+00 0.  1.
         21    1    1    2  503  501  0.62982507107E+01  0.20335728044E+02 -0.94321445391E+01  0.23284654769E+02  0.00000000000E+00 0.  1.
         21    1    1    2  504  502 -0.62982507107E+01 -0.20335728044E+02  0.99836603904E+01  0.23513470010E+02  0.00000000000E+00 0.  1.
<mgrwt>
<rscale>  2 0.21288725E+02</rscale>
<asrwt>0</asrwt>
<pdfrwt beam="1">  1       21 0.36422800E-02 0.21288725E+02</pdfrwt>
<pdfrwt beam="2">  1       21 0.35574315E-02 0.21288725E+02</pdfrwt>
<totfact> 0.14151989E+08</totfact>
</mgrwt>
</event>
<event>
 4    1  0.4438654E+006  0.2600737E+02  0.7546771E-02  0.1646940E+00
         21   -1    0    0  504  501  0.00000000000E+00  0.00000000000E+00  0.18132311739E+02  0.18132311739E+02  0.00000000000E+00 0.  1.
         21   -1    0    0  503  502 -0.00000000000E+00 -0.00000000000E+00 -0.14503407221E+03  0.14503407221E+03  0.00000000000E+00 0. -1.
         21    1    1    2  503  501  0.10078932908E+02  0.23974951981E+02 -0.13376408241E+03  0.13626889944E+03  0.00000000000E+00 0. -1.
         21    1    1    2  504  502 -0.10078932908E+02 -0.23974951981E+02  0.68623219333E+01  0.26897484517E+02  0.00000000000E+00 0.  1.
<mgrwt>
<rscale>  2 0.26007368E+02</rscale>
<asrwt>0</asrwt>
<pdfrwt beam="1">  1       21 0.27895864E-02 0.26007368E+02</pdfrwt>
<pdfrwt beam="2">  1       21 0.22312934E-01 0.26007368E+02</pdfrwt>
<totfact> 0.10867934E+07</totfact>
</mgrwt>
</event>
<event>
 4    1  0.4438654E+006  0.2193541E+02  0.7546771E-02  0.1709371E+00
         21   -1    0    0  504  501  0.00000000000E+00  0.00000000000E+00  0.65930820463E+02  0.65930820463E+02  0.00000000000E+00 0. -1.
         21   -1    0    0  501  502 -0.00000000000E+00 -0.00000000000E+00 -0.10768749581E+02  0.10768749581E+02  0.00000000000E+00 0. -1.
         21    1    1    2  503  502 -0.78277881708E+01 -0.20491172546E+02  0.58093221556E+01  0.22691642599E+02  0.00000000000E+00 0. -1.
         21    1    1    2  504  503  0.78277881708E+01  0.20491172546E+02  0.49352748727E+02  0.54007927444E+02  0.00000000000E+00 0. -1.
<mgrwt>
<rscale>  2 0.21935415E+02</rscale>
<asrwt>0</asrwt>
<pdfrwt beam="1">  1       21 0.10143203E-01 0.21935415E+02</pdfrwt>
<pdfrwt beam="2">  1       21 0.16567307E-02 0.21935415E+02</pdfrwt>
<totfact> 0.89620687E+07</totfact>
</mgrwt>
</event>
<event>
 4    1  0.4438654E+006  0.6023513E+02  0.7546771E-02  0.1396848E+00
         21   -1    0    0  502  501  0.00000000000E+00  0.00000000000E+00  0.77225852460E+03  0.77225852460E+03  0.00000000000E+00 0. -1.
         21   -1    0    0  503  502 -0.00000000000E+00 -0.00000000000E+00 -0.91817289203E+02  0.91817289203E+02  0.00000000000E+00 0.  1.
         21    1    1    2  503  504 -0.18055514409E+02 -0.57465376170E+02 -0.80618532173E+02  0.10063607101E+03  0.00000000000E+00 0.  1.
         21    1    1    2  504  501  0.18055514409E+02  0.57465376170E+02  0.76105976757E+03  0.76343974279E+03  0.00000000000E+00 0. -1.
<mgrwt>
<rscale>  2 0.60235131E+02</rscale>
<asrwt>0</asrwt>
<pdfrwt beam="1">  1       21 0.11880900E+00 0.60235131E+02</pdfrwt>
<pdfrwt beam="2">  1       21 0.14125737E-01 0.60235131E+02</pdfrwt>
<totfact> 0.26542898E+04</totfact>
</mgrwt>
</event>
<event>
 4    1  0.4438654E+006  0.2580081E+02  0.7546771E-02  0.1649759E+00
         21   -1    0    0  502  501  0.00000000000E+00  0.00000000000E+00  0.35002217791E+02  0.35002217791E+02  0.00000000000E+00 0. -1.
         21   -1    0    0  504  502 -0.00000000000E+00 -0.00000000000E+00 -0.22670209025E+02  0.22670209025E+02  0.00000000000E+00 0. -1.
         21    1    1    2  503  501 -0.17209844294E+02  0.19222458920E+02  0.17739702795E+02  0.31311000029E+02  0.00000000000E+00 0. -1.
         21    1    1    2  504  503  0.17209844294E+02 -0.19222458920E+02 -0.54076940300E+01  0.26361426787E+02  0.00000000000E+00 0. -1.
<mgrwt>
<rscale>  2 0.25800807E+02</rscale>
<asrwt>0</asrwt>
<pdfrwt beam="1">  1       21 0.53849566E-02 0.25800807E+02</pdfrwt>
<pdfrwt beam="2">  1       21 0.34877245E-02 0.25800807E+02</pdfrwt>
<totfact> 0.83009706E+07</totfact>
</mgrwt>
</event>
<event>
 4    1  0.4438654E+006  0.2131122E+02  0.7546771E-02  0.1720444E+00
         21   -1    0    0  504  501  0.00000000000E+00  0.00000000000E+00  0.69918896208E+01  0.69918896208E+01  0.00000000000E+00 0.  1.
         21   -1    0    0  501  502 -0.00000000000E+00 -0.00000000000E+00 -0.30195172464E+03  0.30195172464E+03  0.00000000000E+00 0.  1.
         21    1    1    2  503  502 -0.19078632384E+02 -0.94959953827E+01 -0.28433166202E+03  0.28512920259E+03  0.00000000000E+00 0.  1.
         21    1    1    2  504  503  0.19078632384E+02  0.94959953827E+01 -0.10628172998E+02  0.23814411670E+02  0.00000000000E+00 0.  1.
<mgrwt>
<rscale>  2 0.21311221E+02</rscale>
<asrwt>0</asrwt>
<pdfrwt beam="1">  1       21 0.10756755E-02 0.21311221E+02</pdfrwt>
<pdfrwt beam="2">  1       21 0.46454104E-01 0.21311221E+02</pdfrwt>
<totfact> 0.11676083E+07</totfact>
</mgrwt>
</event>
<event>
 4    1  0.4438654E+006  0.2125635E+02  0.7546771E-02  0.1721440E+00
         21   -1    0    0  503  501  0.00000000000E+00  0.00000000000E+00  0.42153426697E+02  0.42153426697E+02  0.00000000000E+00 0. -1.
         21   -1    0    0  501  502 -0.00000000000E+00 -0.00000000000E+00 -0.36081434965E+02  0.36081434965E+02  0.00000000000E+00 0. -1.
         21    1    1    2  503  504 -0.20704940035E+02 -0.48102063508E+01  0.35832376457E+02  0.41662835112E+02  0.00000000000E+00 0. -1.
         21    1    1    2  504  502  0.20704940035E+02  0.48102063508E+01 -0.29760384725E+02  0.36572026550E+02  0.00000000000E+00 0. -1.
<mgrwt>
<rscale>  2 0.21256355E+02</rscale>
<asrwt>0</asrwt>
<pdfrwt beam="1">  1       21 0.64851426E-02 0.21256355E+02</pdfrwt>
<pdfrwt beam="2">  1       21 0.55509900E-02 0.21256355E+02</pdfrwt>
<totfact> 0.28082439E+07</totfact>
</mgrwt>
</event>
<event>
 4    1  0.4438654E+006  0.2013951E+02  0.7546771E-02  0.1742568E+00
         21   -1    0    0  504  501  0.00000000000E+00  0.00000000000E+00  0.33975444367E+02  0.33975444367E+02  0.00000000000E+00 0.  1.
         21   -1    0    0  503  502 -0.00000000000E+00 -0.00000000000E+00 -0.13021204264E+02  0.13021204264E+02  0.00000000000E+00 0. -1.
         21    1    1    2  503  501 -0.10182114297E+02 -0.17375971550E+02  0.17254482188E+02  0.26520124329E+02  0.00000000000E+00 0.  1.
         21    1    1    2  504  502  0.10182114297E+02  0.17375971550E+02  0.36997579148E+01  0.20476524302E+02  0.00000000000E+00 0. -1.
<mgrwt>
<rscale>  2 0.20139509E+02</rscale>
<asrwt>0</asrwt>
<pdfrwt beam="1">  1       21 0.52269914E-02 0.20139509E+02</pdfrwt>
<pdfrwt beam="2">  1       21 0.20032622E-02 0.20139509E+02</pdfrwt>
<totfact> 0.19107171E+08</totfact>
</mgrwt>
</event>
<event>
 4    1  0.4438654E+006  0.2731974E+02  0.7546771E-02  0.1629757E+00
         21   -1    0    0  504  501  0.00000000000E+00  0.00000000000E+00  0.51660470060E+01  0.51660470060E+01  0.00000000000E+00 0.  1.
         21   -1    0    0  503  502 -0.00000000000E+00 -0.00000000000E+00 -0.14502857004E+03  0.14502857004E+03  0.00000000000E+00 0.  1.
         21    1    1    2  503  501 -0.13424709742E+02  0.23793812319E+02 -0.65294624277E+02  0.70779631928E+02  0.00000000000E+00 0.  1.
         21    1    1    2  504  502  0.13424709742E+02 -0.23793812319E+02 -0.74567898757E+02  0.79414985118E+02  0.00000000000E+00 0.  1.
<mgrwt>
<rscale>  2 0.27319743E+02</rscale>
<asrwt>0</asrwt>
<pdfrwt beam="1">  1       21 0.79477656E-03 0.27319743E+02</pdfrwt>
<pdfrwt beam="2">  1       21 0.22312085E-01 0.27319743E+02</pdfrwt>
<totfact> 0.74852186E+07</totfact>
</mgrwt>
</event>
<event>
 4    1  0.4438654E+006  0.2364904E+02  0.7546771E-02  0.1681200E+00
         21   -1    0    0  504  501  0.00000000000E+00  0.00000000000E+00  0.26744023372E+02  0.26744023372E+02  0.00000000000E+00 0.  1.
         21   -1    0    0  503  502 -0.00000000000E+00 -0.00000000000E+00 -0.34030020061E+02  0.34030020061E+02  0.00000000000E+00 0. -1.
         21    1    1    2  503  501 -0.10463399955E+02 -0.21208354282E+02 -0.22509329668E+02  0.32648843043E+02  0.00000000000E+00 0. -1.
         21    1    1    2  504  502  0.10463399955E+02  0.21208354282E+02  0.15223332979E+02  0.28125200389E+02  0.00000000000E+00 0.  1.
<mgrwt>
<rscale>  2 0.23649039E+02</rscale>
<asrwt>0</asrwt>
<pdfrwt beam="1">  1       21 0.41144651E-02 0.23649039E+02</pdfrwt>
<pdfrwt beam="2">  1       21 0.52353877E-02 0.23649039E+02</pdfrwt>
<totfact> 0.65414623E+07</totfact>
</mgrwt>
</event>
<event>
 4    1  0.4438654E+006  0.2498871E+02  0.7546771E-02  0.1661164E+00
         21   -1    0    0  504  501  0.00000000000E+00  0.00000000000E+00  0.10423427403E+03  0.10423427403E+03  0.00000000000E+00 0.  1.
         21   -1    0    0  501  502 -0.00000000000E+00 -0.00000000000E+00 -0.62520688926E+01  0.62520688926E+01  0.00000000000E+00 0.  1.
         21    1    1    2  503  502  0.12635650589E+02 -0.21558661050E+02  0.60286448075E+02  0.65260181991E+02  0.00000000000E+00 0.  1.
         21    1    1    2  504  503 -0.12635650589E+02  0.21558661050E+02  0.37695757063E+02  0.45226160931E+02  0.00000000000E+00 0.  1.
<mgrwt>
<rscale>  2 0.24988708E+02</rscale>
<asrwt>0</asrwt>
<pdfrwt beam="1">  1       21 0.16036041E-01 0.24988708E+02</pdfrwt>
<pdfrwt beam="2">  1       21 0.96185683E-03 0.24988708E+02</pdfrwt>
<totfact> 0.97821245E+07</totfact>
</mgrwt>
</event>
<event>
 4    1  0.4438654E+006  0.2385087E+02  0.7546771E-02  0.1678078E+00
         21   -1    0    0  503  501  0.00000000000E+00  0.00000000000E+00  0.11446760351E+04  0.11446760351E+04  0.00000000000E+00 0.  1.
         21   -1    0    0  504  502 -0.00000000000E+00 -0.00000000000E+00 -0.96849433034E+00  0.96849433034E+00  0.00000000000E+00 0.  1.
         21    1    1    2  503  502  0.18376628261E+02  0.15204058141E+02  0.97154602754E+03  0.97183874562E+03  0.00000000000E+00 0.  1.
         21    1    1    2  504  501 -0.18376628261E+02 -0.15204058141E+02  0.17216151326E+03  0.17380578385E+03  0.00000000000E+00 0.  1.
<mgrwt>
<rscale>  2 0.23850867E+02</rscale>
<asrwt>0</asrwt>
<pdfrwt beam="1">  1       21 0.17610292E+00 0.23850867E+02</pdfrwt>
<pdfrwt beam="2">  1       21 0.14900004E-03 0.23850867E+02</pdfrwt>
<totfact> 0.12180591E+07</totfact>
</mgrwt>
</event>
<event>
 4    1  0.4438654E+006  0.2296396E+02  0.7546771E-02  0.1692095E+00
         21   -1    0    0  504  501  0.00000000000E+00  0.00000000000E+00  0.11489661814E+03  0.11489661814E+03  0.00000000000E+00 0. -1.
         21   -1    0    0  503  502 -0.00000000000E+00 -0.00000000000E+00 -0.49570659991E+01  0.49570659991E+01  0.00000000000E+00 0. -1.
         21    1    1    2  503  501 -0.44873979420E+01 -0.22521254608E+02  0.71283192904E+02  0.74890835487E+02  0.00000000000E+00 0. -1.
         21    1    1    2  504  502  0.44873979420E+01  0.22521254608E+02  0.38656359237E+02  0.44962848651E+02  0.00000000000E+00 0. -1.
<mgrwt>
<rscale>  2 0.22963964E+02</rscale>
<asrwt>0</asrwt>
<pdfrwt beam="1">  1       21 0.17676401E-01 0.22963964E+02</pdfrwt>
<pdfrwt beam="2">  1       21 0.76262563E-03 0.22963964E+02</pdfrwt>
<totfact> 0.11442490E+08</totfact>
</mgrwt>
</event>
<event>
 4    1  0.4438654E+006  0.2006744E+02  0.7546771E-02  0.1743990E+00
         21   -1    0    0  502  501  0.00000000000E+00  0.00000000000E+00  0.30579779215E+03  0.30579779215E+03  0.00000000000E+00 0. -1.
         21   -1    0    0  504  502 -0.00000000000E+00 -0.00000000000E+00 -0.14278962073E+01  0.14278962073E+01  0.00000000000E+00 0. -1.
         21    1    1    2  503  501  0.14946781472E+02 -0.13390139796E+02  0.19501537680E+03  0.19604514610E+03  0.00000000000E+00 0. -1.
         21    1    1    2  504  503 -0.14946781472E+02  0.13390139796E+02  0.10935451914E+03  0.11118054225E+03  0.00000000000E+00 0. -1.
<mgrwt>
<rscale>  2 0.20067439E+02</rscale>
<asrwt>0</asrwt>
<pdfrwt beam="1">  1       21 0.47045762E-01 0.20067439E+02</pdfrwt>
<pdfrwt beam="2">  1       21 0.21967658E-03 0.20067439E+02</pdfrwt>
<totfact> 0.11590728E+08</totfact>
</mgrwt>
</event>
<event>
 4    1  0.4438654E+006  0.5555499E+02  0.7546771E-02  0.1417492E+00
         21   -1    0    0  503  501  0.00000000000E+00  0.00000000000E+00  0.13344276698E+02  0.13344276698E+02  0.00000000000E+00 0.  1.
         21   -1    0    0  501  502 -0.00000000000E+00 -0.00000000000E+00 -0.81149629322E+03  0.81149629322E+03  0.00000000000E+00 0. -1.
         21    1    1    2  503  504  0.45793061024E+02 -0.31453982737E+02 -0.50346180493E+02  0.74973964536E+02  0.00000000000E+00 0.  1.
         21    1    1    2  504  502 -0.45793061024E+02  0.31453982737E+02 -0.74780583603E+03  0.74986660538E+03  0.00000000000E+00 0. -1.
<mgrwt>
<rscale>  2 0.55554995E+02</rscale>
<asrwt>0</asrwt>
<pdfrwt beam="1">  1       21 0.20529650E-02 0.55554995E+02</pdfrwt>
<pdfrwt beam="2">  1       21 0.12484562E+00 0.55554995E+02</pdfrwt>
<totfact> 0.57673913E+05</totfact>
</mgrwt>
</event>
<event>
 4    1  0.4438654E+006  0.2236505E+02  0.7546771E-02  0.1702014E+00
         21   -1    0    0  504  501  0.00000000000E+00  0.00000000000E+00  0.39572121620E+00  0.39572121620E+00  0.00000000000E+00 0.  1.
         21   -1    0    0  503  502 -0.00000000000E+00 -0.00000000000E+00 -0.14813972396E+04  0.14813972396E+04  0.00000000000E+00 0.  1.
         21    1    1    2  503  501  0.15836111025E+02  0.15792812740E+02 -0.45668313179E+03  0.45723044322E+03  0.00000000000E+00 0.  1.
         21    1    1    2  504  502 -0.15836111025E+02 -0.15792812740E+02 -0.10243183866E+04  0.10245625176E+04  0.00000000000E+00 0.  1.
<mgrwt>
<rscale>  2 0.22365047E+02</rscale>
<asrwt>0</asrwt>
<pdfrwt beam="1">  1       21 0.60879059E-04 0.22365047E+02</pdfrwt>
<pdfrwt beam="2">  1       21 0.22791149E+00 0.22365047E+02</pdfrwt>
<totfact> 0.22175636E+07</totfact>
</mgrwt>
</event>
<event>
 4    1  0.4438654E+006  0.2153653E+02  0.7546771E-02  0.1716393E+00
         21   -1    0    0  502  501  0.00000000000E+00  0.00000000000E+00  0.60324198415E+01  0.60324198415E+01  0.00000000000E+00 0.  1.
         21   -1    0    0  504  502 -0.00000000000E+00 -0.00000000000E+00 -0.16310351026E+03  0.16310351026E+03  0.00000000000E+00 0.  1.
         21    1    1    2  503  501  0.87636269436E+01 -0.19672847445E+02 -0.17050945673E+02  0.27469197880E+02  0.00000000000E+00 0.  1.
         21    1    1    2  504  503 -0.87636269436E+01  0.19672847445E+02 -0.14002014474E+03  0.14166673222E+03  0.00000000000E+00 0.  1.
<mgrwt>
<rscale>  2 0.21536529E+02</rscale>
<asrwt>0</asrwt>
<pdfrwt beam="1">  1       21 0.92806461E-03 0.21536529E+02</pdfrwt>
<pdfrwt beam="2">  1       21 0.25092847E-01 0.21536529E+02</pdfrwt>
<totfact> 0.45431009E+07</totfact>
</mgrwt>
</event>
<event>
 4    1  0.4438654E+006  0.2786971E+02  0.7546771E-02  0.1622905E+00
         21   -1    0    0  504  501  0.00000000000E+00  0.00000000000E+00  0.12145423877E+04  0.12145423877E+04  0.00000000000E+00 0.  1.
         21   -1    0    0  503  502 -0.00000000000E+00 -0.00000000000E+00 -0.20732719288E+01  0.20732719288E+01  0.00000000000E+00 0.  1.
         21    1    1    2  503  501  0.12699533162E+02  0.24808120754E+02  0.11120972758E+04  0.11124464355E+04  0.00000000000E+00 0.  1.
         21    1    1    2  504  502 -0.12699533162E+02 -0.24808120754E+02  0.10037183996E+03  0.10416922413E+03  0.00000000000E+00 0.  1.
<mgrwt>
<rscale>  2 0.27869715E+02</rscale>
<asrwt>0</asrwt>
<pdfrwt beam="1">  1       21 0.18685211E+00 0.27869715E+02</pdfrwt>
<pdfrwt beam="2">  1       21 0.31896588E-03 0.27869715E+02</pdfrwt>
<totfact> 0.35311687E+06</totfact>
</mgrwt>
</event>
<event>
 4    1  0.4438654E+006  0.3379581E+02  0.7546771E-02  0.1559562E+00
         21   -1    0    0  502  501  0.00000000000E+00  0.00000000000E+00  0.46823872946E+01  0.46823872946E+01  0.00000000000E+00 0. -1.
         21   -1    0    0  503  502 -0.00000000000E+00 -0.00000000000E+00 -0.26471039790E+03  0.26471039790E+03  0.00000000000E+00 0. -1.
         21    1    1    2  503  504 -0.33775222727E+02 -0.11793251079E+01 -0.16775715408E+03  0.17112749406E+03  0.00000000000E+00 0. -1.
         21    1    1    2  504  501  0.33775222727E+02  0.11793251079E+01 -0.92270856528E+02  0.98265291138E+02  0.00000000000E+00 0. -1.
<mgrwt>
<rscale>  2 0.33795806E+02</rscale>
<asrwt>0</asrwt>
<pdfrwt beam="1">  1       21 0.72036712E-03 0.33795806E+02</pdfrwt>
<pdfrwt beam="2">  1       21 0.40724685E-01 0.33795806E+02</pdfrwt>
<totfact> 0.29923573E+07</totfact>
</mgrwt>
</event>
<event>
 4    1  0.4438654E+006  0.4555679E+02  0.7546771E-02  0.1470895E+00
         21   -1    0    0  502  501  0.00000000000E+00  0.00000000000E+00  0.18172967529E+04  0.18172967529E+04  0.00000000000E+00 0. -1.
         21   -1    0    0  503  502 -0.00000000000E+00 -0.00000000000E+00 -0.11768936466E+02  0.11768936466E+02  0.00000000000E+00 0.  1.
         21    1    1    2  503  504  0.43348814751E+02  0.14010765502E+02  0.33735504749E+02  0.56687790316E+02  0.00000000000E+00 0.  1.
         21    1    1    2  504  501 -0.43348814751E+02 -0.14010765502E+02  0.17717923117E+04  0.17723778991E+04  0.00000000000E+00 0. -1.
<mgrwt>
<rscale>  2 0.45556792E+02</rscale>
<asrwt>0</asrwt>
<pdfrwt beam="1">  1       21 0.27958389E+00 0.45556792E+02</pdfrwt>
<pdfrwt beam="2">  1       21 0.18106070E-02 0.45556792E+02</pdfrwt>
<totfact> 0.79130810E+04</totfact>
</mgrwt>
</event>
<event>
 4    1  0.4438654E+006  0.3578859E+02  0.7546771E-02  0.1541707E+00
         21   -1    0    0  503  501  0.00000000000E+00  0.00000000000E+00  0.93630632519E+02  0.93630632519E+02  0.00000000000E+00 0.  1.
         21   -1    0    0  504  502 -0.00000000000E+00 -0.00000000000E+00 -0.13776185460E+02  0.13776185460E+02  0.00000000000E+00 0.  1.
         21    1    1    2  503  502  0.33180317893E+02 -0.13412302027E+02  0.35428974559E+02  0.50359066507E+02  0.00000000000E+00 0.  1.
         21    1    1    2  504  501 -0.33180317893E+02  0.13412302027E+02  0.44425472501E+02  0.57047751472E+02  0.00000000000E+00 0.  1.
<mgrwt>
<rscale>  2 0.35788592E+02</rscale>
<asrwt>0</asrwt>
<pdfrwt beam="1">  1       21 0.14404712E-01 0.35788592E+02</pdfrwt>
<pdfrwt beam="2">  1       21 0.21194132E-02 0.35788592E+02</pdfrwt>
<totfact> 0.38046817E+07</totfact>
</mgrwt>
</event>
<event>
 4    1  0.4438654E+006  0.2933209E+02  0.7546771E-02  0.1605591E+00
         21   -1    0    0  502  501  0.00000000000E+00  0.00000000000E+00  0.18921434997E+02  0.18921434997E+02  0.00000000000E+00 0.  1.
         21   -1    0    0  503  502 -0.00000000000E+00 -0.00000000000E+00 -0.87056711620E+02  0.87056711620E+02  0.00000000000E+00 0.  1.
         21    1    1    2  503  504  0.28532767830E+02  0.68009156459E+01 -0.70691043364E+02  0.76534926050E+02  0.00000000000E+00 0.  1.
         21    1    1    2  504  501 -0.28532767830E+02 -0.68009156459E+01  0.25557667409E+01  0.29443220566E+02  0.00000000000E+00 0.  1.
<mgrwt>
<rscale>  2 0.29332086E+02</rscale>
<asrwt>0</asrwt>
<pdfrwt beam="1">  1       21 0.29109900E-02 0.29332086E+02</pdfrwt>
<pdfrwt beam="2">  1       21 0.13393340E-01 0.29332086E+02</pdfrwt>
<totfact> 0.25239712E+07</totfact>
</mgrwt>
</event>
<event>
 4    1  0.4438654E+006  0.2478573E+02  0.7546771E-02  0.1664099E+00
         21   -1    0    0  504  501  0.00000000000E+00  0.00000000000E+00  0.14985995446E+02  0.14985995446E+02  0.00000000000E+00 0.  1.
         21   -1    0    0  501  502 -0.00000000000E+00 -0.00000000000E+00 -0.51062214332E+02  0.51062214332E+02  0.00000000000E+00 0.  1.
         21    1    1    2  503  502  0.12982941602E+02  0.21113402401E+02 -0.32702441966E+02  0.41033915779E+02  0.00000000000E+00 0.  1.
         21    1    1    2  504  503 -0.12982941602E+02 -0.21113402401E+02 -0.33737769199E+01  0.25014294000E+02  0.00000000000E+00 0.  1.
<mgrwt>
<rscale>  2 0.24785732E+02</rscale>
<asrwt>0</asrwt>
<pdfrwt beam="1">  1       21 0.23055378E-02 0.24785732E+02</pdfrwt>
<pdfrwt beam="2">  1       21 0.78557251E-02 0.24785732E+02</pdfrwt>
<totfact> 0.84995391E+07</totfact>
</mgrwt>
</event>
<event>
 4    1  0.4438654E+006  0.2516600E+02  0.7546771E-02  0.1658629E+00
         21   -1    0    0  504  501  0.00000000000E+00  0.00000000000E+00  0.26105252402E+02  0.26105252402E+02  0.00000000000E+00 0.  1.
         21   -1    0    0  503  502 -0.00000000000E+00 -0.00000000000E+00 -0.24405375290E+02  0.24405375290E+02  0.00000000000E+00 0.  1.
         21    1    1    2  503  501 -0.25141261883E+02 -0.11156073061E+01 -0.10956051146E+01  0.25189838810E+02  0.00000000000E+00 0.  1.
         21    1    1    2  504  502  0.25141261883E+02  0.11156073061E+01  0.27954822259E+01  0.25320788882E+02  0.00000000000E+00 0.  1.
<mgrwt>
<rscale>  2 0.25166001E+02</rscale>
<asrwt>0</asrwt>
<pdfrwt beam="1">  1       21 0.40161927E-02 0.25166001E+02</pdfrwt>
<pdfrwt beam="2">  1       21 0.37546731E-02 0.25166001E+02</pdfrwt>
<totfact> 0.11714128E+08</totfact>
</mgrwt>
</event>
<event>
 4    1  0.4438654E+006  0.2649507E+02  0.7546771E-02  0.1640412E+00
         21   -1    0    0  503  501  0.00000000000E+00  0.00000000000E+00  0.77783596645E+02  0.77783596645E+02  0.00000000000E+00 0.  1.
         21   -1    0    0  504  502 -0.00000000000E+00 -0.00000000000E+00 -0.90250575635E+01  0.90250575635E+01  0.00000000000E+00 0.  1.
         21    1    1    2  503  502 -0.15559680669E+02  0.21444929721E+02  0.34194190847E+02  0.43257731805E+02  0.00000000000E+00 0.  1.
         21    1    1    2  504  501  0.15559680669E+02 -0.21444929721E+02  0.34564348235E+02  0.43550922403E+02  0.00000000000E+00 0.  1.
<mgrwt>
<rscale>  2 0.26495069E+02</rscale>
<asrwt>0</asrwt>
<pdfrwt beam="1">  1       21 0.11966707E-01 0.26495069E+02</pdfrwt>
<pdfrwt beam="2">  1       21 0.13884704E-02 0.26495069E+02</pdfrwt>
<totfact> 0.93697502E+07</totfact>
</mgrwt>
</event>
<event>
 4    1  0.4438654E+006  0.2390572E+02  0.7546771E-02  0.1677236E+00
         21   -1    0    0  503  501  0.00000000000E+00  0.00000000000E+00  0.52228356558E+03  0.52228356558E+03  0.00000000000E+00 0.  1.
         21   -1    0    0  501  502 -0.00000000000E+00 -0.00000000000E+00 -0.89349986809E+01  0.89349986809E+01  0.00000000000E+00 0. -1.
         21    1    1    2  503  504 -0.23791643243E+02 -0.23326532334E+01  0.50548902444E+03  0.50605398663E+03  0.00000000000E+00 0.  1.
         21    1    1    2  504  502  0.23791643243E+02  0.23326532334E+01  0.78595424555E+01  0.25164577623E+02  0.00000000000E+00 0. -1.
<mgrwt>
<rscale>  2 0.23905722E+02</rscale>
<asrwt>0</asrwt>
<pdfrwt beam="1">  1       21 0.80351294E-01 0.23905722E+02</pdfrwt>
<pdfrwt beam="2">  1       21 0.13746156E-02 0.23905722E+02</pdfrwt>
<totfact> 0.27368336E+06</totfact>
</mgrwt>
</event>
<event>
 4    1  0.4438654E+006  0.3379213E+02  0.7546771E-02  0.1559596E+00
         21   -1    0    0  502  501  0.00000000000E+00  0.00000000000E+00  0.13697433794E+03  0.13697433794E+03  0.00000000000E+00 0.  1.
         21   -1    0    0  504  502 -0.00000000000E+00 -0.00000000000E+00 -0.18156054552E+03  0.18156054552E+03  0.00000000000E+00 0. -1.
         21    1    1    2  503  501 -0.19586420237E+02 -0.27536882085E+02  0.13327485720E+03  0.13749216448E+03  0.00000000000E+00 0.  1.
         21    1    1    2  504  503  0.19586420237E+02  0.27536882085E+02 -0.17786106477E+03  0.18104271898E+03  0.00000000000E+00 0. -1.
<mgrwt>
<rscale>  2 0.33792125E+02</rscale>
<asrwt>0</asrwt>
<pdfrwt beam="1">  1       21 0.21072975E-01 0.33792125E+02</pdfrwt>
<pdfrwt beam="2">  1       21 0.27932392E-01 0.33792125E+02</pdfrwt>
<totfact> 0.26309829E+05</totfact>
</mgrwt>
</event>
<event>
 4    1  0.4438654E+006  0.3341395E+02  0.7546771E-02  0.1563154E+00
         21   -1    0    0  504  501  0.00000000000E+00  0.00000000000E+00  0.28576265968E+02  0.28576265968E+02  0.00000000000E+00 0.  1.
         21   -1    0    0  503  502 -0.00000000000E+00 -0.00000000000E+00 -0.69583314796E+02  0.69583314796E+02  0.00000000000E+00 0.  1.
         21    1    1    2  503  501 -0.30757683163E+02 -0.13055927983E+02 -0.53004054891E+02  0.62657179668E+02  0.00000000000E+00 0.  1.
         21    1    1    2  504  502  0.30757683163E+02  0.13055927983E+02  0.11997006063E+02  0.35502401095E+02  0.00000000000E+00 0.  1.
<mgrwt>
<rscale>  2 0.33413954E+02</rscale>
<asrwt>0</asrwt>
<pdfrwt beam="1">  1       21 0.43963486E-02 0.33413954E+02</pdfrwt>
<pdfrwt beam="2">  1       21 0.10705125E-01 0.33413954E+02</pdfrwt>
<totfact> 0.19651906E+07</totfact>
</mgrwt>
</event>
<event>
 4    1  0.4438654E+006  0.2625931E+02  0.7546771E-02  0.1643546E+00
         21   -1    0    0  503  501  0.00000000000E+00  0.00000000000E+00  0.22919344549E+03  0.22919344549E+03  0.00000000000E+00 0. -1.
         21   -1    0    0  501  502 -0.00000000000E+00 -0.00000000000E+00 -0.43721596000E+01  0.43721596000E+01  0.00000000000E+00 0.  1.
         21    1    1    2  503  504  0.21949326645E+02  0.14414529413E+02  0.17762869373E+03  0.17955919479E+03  0.00000000000E+00 0. -1.
         21    1    1    2  504  502 -0.21949326645E+02 -0.14414529413E+02  0.47192592157E+02  0.54006410294E+02  0.00000000000E+00 0.  1.
<mgrwt>
<rscale>  2 0.26259315E+02</rscale>
<asrwt>0</asrwt>
<pdfrwt beam="1">  1       21 0.35260521E-01 0.26259315E+02</pdfrwt>
<pdfrwt beam="2">  1       21 0.67264012E-03 0.26259315E+02</pdfrwt>
<totfact> 0.41443513E+07</totfact>
</mgrwt>
</event>
<event>
 4    1  0.4438654E+006  0.2431787E+02  0.7546771E-02  0.1670997E+00
         21   -1    0    0  503  501  0.00000000000E+00  0.00000000000E+00  0.12926966537E+02  0.12926966537E+02  0.00000000000E+00 0.  1.
         21   -1    0    0  504  502 -0.00000000000E+00 -0.00000000000E+00 -0.10892086024E+04  0.10892086024E+04  0.00000000000E+00 0. -1.
         21    1    1    2  503  502 -0.37220682178E+00 -0.24315018471E+02 -0.10775122115E+04  0.10777865859E+04  0.00000000000E+00 0. -1.
         21    1    1    2  504  501  0.37220682178E+00  0.24315018471E+02  0.12305756533E+01  0.24348983092E+02  0.00000000000E+00 0.  1.
<mgrwt>
<rscale>  2 0.24317867E+02</rscale>
<asrwt>0</asrwt>
<pdfrwt beam="1">  1       21 0.19887636E-02 0.24317867E+02</pdfrwt>
<pdfrwt beam="2">  1       21 0.16757059E+00 0.24317867E+02</pdfrwt>
<totfact> 0.29589966E+05</totfact>
</mgrwt>
</event>
<event>
 4    1  0.4438654E+006  0.2017091E+02  0.7546771E-02  0.1741951E+00
         21   -1    0    0  504  501  0.00000000000E+00  0.00000000000E+00  0.89357039356E+01  0.89357039356E+01  0.00000000000E+00 0. -1.
         21   -1    0    0  503  502 -0.00000000000E+00 -0.00000000000E+00 -0.60603170469E+02  0.60603170469E+02  0.00000000000E+00 0. -1.
         21    1    1    2  503  501 -0.17406249303E+02 -0.10192547347E+02 -0.43172384590E+02  0.47652075793E+02  0.00000000000E+00 0. -1.
         21    1    1    2  504  502  0.17406249303E+02  0.10192547347E+02 -0.84950819434E+01  0.21886798611E+02  0.00000000000E+00 0. -1.
<mgrwt>
<rscale>  2 0.20170908E+02</rscale>
<asrwt>0</asrwt>
<pdfrwt beam="1">  1       21 0.13747237E-02 0.20170908E+02</pdfrwt>
<pdfrwt beam="2">  1       21 0.93235647E-02 0.20170908E+02</pdfrwt>
<totfact> 0.13325344E+08</totfact>
</mgrwt>
</event>
<event>
 4    1  0.4438654E+006  0.3227897E+02  0.7546771E-02  0.1574183E+00
         21   -1    0    0  503  501  0.00000000000E+00  0.00000000000E+00  0.38181215000E+01  0.38181215000E+01  0.00000000000E+00 0. -1.
         21   -1    0    0  504  502 -0.00000000000E+00 -0.00000000000E+00 -0.27310903319E+03  0.27310903319E+03  0.00000000000E+00 0. -1.
         21    1    1    2  503  502 -0.98109149087E+01  0.30751874942E+02 -0.13855568205E+03  0.14226597939E+03  0.00000000000E+00 0. -1.
         21    1    1    2  504  501  0.98109149087E+01 -0.30751874942E+02 -0.13073522964E+03  0.13466117530E+03  0.00000000000E+00 0. -1.
<mgrwt>
<rscale>  2 0.32278969E+02</rscale>
<asrwt>0</asrwt>
<pdfrwt beam="1">  1       21 0.58740315E-03 0.32278969E+02</pdfrwt>
<pdfrwt beam="2">  1       21 0.42016786E-01 0.32278969E+02</pdfrwt>
<totfact> 0.37968238E+07</totfact>
</mgrwt>
</event>
<event>
 4    1  0.4438654E+006  0.2266425E+02  0.7546771E-02  0.1697011E+00
         21   -1    0    0  503  501  0.00000000000E+00  0.00000000000E+00  0.39464000739E+01  0.39464000739E+01  0.00000000000E+00 0.  1.
         21   -1    0    0  504  502 -0.00000000000E+00 -0.00000000000E+00 -0.24739369982E+03  0.24739369982E+03  0.00000000000E+00 0. -1.
         21    1    1    2  503  502  0.14715748821E+02 -0.17237017641E+02 -0.35214599792E+02  0.41877632205E+02  0.00000000000E+00 0.  1.
         21    1    1    2  504  501 -0.14715748821E+02  0.17237017641E+02 -0.20823269996E+03  0.20946246769E+03  0.00000000000E+00 0. -1.
<mgrwt>
<rscale>  2 0.22664246E+02</rscale>
<asrwt>0</asrwt>
<pdfrwt beam="1">  1       21 0.60713839E-03 0.22664246E+02</pdfrwt>
<pdfrwt beam="2">  1       21 0.38060574E-01 0.22664246E+02</pdfrwt>
<totfact> 0.40477905E+07</totfact>
</mgrwt>
</event>
<event>
 4    1  0.4438654E+006  0.3669018E+02  0.7546771E-02  0.1534084E+00
         21   -1    0    0  504  501  0.00000000000E+00  0.00000000000E+00  0.48956715310E+02  0.48956715310E+02  0.00000000000E+00 0. -1.
         21   -1    0    0  503  502 -0.00000000000E+00 -0.00000000000E+00 -0.23413998543E+03  0.23413998543E+03  0.00000000000E+00 0.  1.
         21    1    1    2  503  501  0.36687921486E+02  0.40679639481E+00  0.40385575379E+02  0.54563392169E+02  0.00000000000E+00 0. -1.
         21    1    1    2  504  502 -0.36687921486E+02 -0.40679639481E+00 -0.22556884550E+03  0.22853330857E+03  0.00000000000E+00 0.  1.
<mgrwt>
<rscale>  2 0.36690177E+02</rscale>
<asrwt>0</asrwt>
<pdfrwt beam="1">  1       21 0.75318025E-02 0.36690177E+02</pdfrwt>
<pdfrwt beam="2">  1       21 0.36021536E-01 0.36690177E+02</pdfrwt>
<totfact> 0.95628793E+05</totfact>
</mgrwt>
</event>
<event>
 4    1  0.4438654E+006  0.2582277E+02  0.7546771E-02  0.1649458E+00
         21   -1    0    0  504  501  0.00000000000E+00  0.00000000000E+00  0.13275154108E+03  0.13275154108E+03  0.00000000000E+00 0. -1.
         21   -1    0    0  503  502 -0.00000000000E+00 -0.00000000000E+00 -0.22659082423E+02  0.22659082423E+02  0.00000000000E+00 0. -1.
         21    1    1    2  503  501 -0.25131251632E+02 -0.59359573240E+01  0.12359981869E+03  0.12626848609E+03  0.00000000000E+00 0. -1.
         21    1    1    2  504  502  0.25131251632E+02  0.59359573240E+01 -0.13507360036E+02  0.29142137415E+02  0.00000000000E+00 0. -1.
<mgrwt>
<rscale>  2 0.25822769E+02</rscale>
<asrwt>0</asrwt>
<pdfrwt beam="1">  1       21 0.20423314E-01 0.25822769E+02</pdfrwt>
<pdfrwt beam="2">  1       21 0.34860128E-02 0.25822769E+02</pdfrwt>
<totfact> 0.89490843E+06</totfact>
</mgrwt>
</event>
<event>
 4    1  0.4438654E+006  0.3619376E+02  0.7546771E-02  0.1538248E+00
         21   -1    0    0  503  501  0.00000000000E+00  0.00000000000E+00  0.10290070417E+03  0.10290070417E+03  0.00000000000E+00 0.  1.
         21   -1    0    0  504  502 -0.00000000000E+00 -0.00000000000E+00 -0.15212223814E+02  0.15212223814E+02  0.00000000000E+00 0.  1.
         21    1    1    2  503  502  0.32444010342E+02  0.16042883837E+02  0.67697012890E+02  0.76765053789E+02  0.00000000000E+00 0.  1.
         21    1    1    2  504  501 -0.32444010342E+02 -0.16042883837E+02  0.19991467464E+02  0.41347874193E+02  0.00000000000E+00 0.  1.
<mgrwt>
<rscale>  2 0.36193755E+02</rscale>
<asrwt>0</asrwt>
<pdfrwt beam="1">  1       21 0.15830877E-01 0.36193755E+02</pdfrwt>
<pdfrwt beam="2">  1       21 0.23403422E-02 0.36193755E+02</pdfrwt>
<totfact> 0.27715435E+07</totfact>
</mgrwt>
</event>
<event>
 4    1  0.4438654E+006  0.3167609E+02  0.7546771E-02  0.1580268E+00
         21   -1    0    0  503  501  0.00000000000E+00  0.00000000000E+00  0.29939668847E+02  0.29939668847E+02  0.00000000000E+00 0.  1.
         21   -1    0    0  504  502 -0.00000000000E+00 -0.00000000000E+00 -0.32614092058E+03  0.32614092058E+03  0.00000000000E+00 0.  1.
         21    1    1    2  503  502  0.24818401697E+02  0.19683024131E+02 -0.31674559127E+03  0.31832553163E+03  0.00000000000E+00 0.  1.
         21    1    1    2  504  501 -0.24818401697E+02 -0.19683024131E+02  0.20544339538E+02  0.37755057791E+02  0.00000000000E+00 0.  1.
<mgrwt>
<rscale>  2 0.31676087E+02</rscale>
<asrwt>0</asrwt>
<pdfrwt beam="1">  1       21 0.46061030E-02 0.31676087E+02</pdfrwt>
<pdfrwt beam="2">  1       21 0.50175526E-01 0.31676087E+02</pdfrwt>
<totfact> 0.11128223E+06</totfact>
</mgrwt>
</event>
<event>
 4    1  0.4438654E+006  0.4501651E+02  0.7546771E-02  0.1474239E+00
         21   -1    0    0  502  501  0.00000000000E+00  0.00000000000E+00  0.62810924927E+01  0.62810924927E+01  0.00000000000E+00 0.  1.
         21   -1    0    0  503  502 -0.00000000000E+00 -0.00000000000E+00 -0.79394572219E+03  0.79394572219E+03  0.00000000000E+00 0. -1.
         21    1    1    2  503  504 -0.19281748351E+02 -0.40678011228E+02 -0.70211020243E+03  0.70355186217E+03  0.00000000000E+00 0. -1.
         21    1    1    2  504  501  0.19281748351E+02  0.40678011228E+02 -0.85554427268E+02  0.96674952506E+02  0.00000000000E+00 0.  1.
<mgrwt>
<rscale>  2 0.45016513E+02</rscale>
<asrwt>0</asrwt>
<pdfrwt beam="1">  1       21 0.96632172E-03 0.45016513E+02</pdfrwt>
<pdfrwt beam="2">  1       21 0.12214552E+00 0.45016513E+02</pdfrwt>
<totfact> 0.19506624E+06</totfact>
</mgrwt>
</event>
<event>
 4    1  0.4438654E+006  0.2214619E+02  0.7546771E-02  0.1705736E+00
         21   -1    0    0  504  501  0.00000000000E+00  0.00000000000E+00  0.50320258903E+01  0.50320258903E+01  0.00000000000E+00 0. -1.
         21   -1    0    0  501  502 -0.00000000000E+00 -0.00000000000E+00 -0.15176388517E+04  0.15176388517E+04  0.00000000000E+00 0.  1.
         21    1    1    2  503  502  0.10039478563E+02 -0.19739870344E+02 -0.14927857996E+04  0.14929500652E+04  0.00000000000E+00 0.  1.
         21    1    1    2  504  503 -0.10039478563E+02  0.19739870344E+02 -0.19821026223E+02  0.29720812431E+02  0.00000000000E+00 0. -1.
<mgrwt>
<rscale>  2 0.22146187E+02</rscale>
<asrwt>0</asrwt>
<pdfrwt beam="1">  1       21 0.77415782E-03 0.22146187E+02</pdfrwt>
<pdfrwt beam="2">  1       21 0.23348290E+00 0.22146187E+02</pdfrwt>
<totfact> 0.52425644E+05</totfact>
</mgrwt>
</event>
<event>
 4    1  0.4438654E+006  0.2149380E+02  0.7546771E-02  0.1717156E+00
         21   -1    0    0  504  501  0.00000000000E+00  0.00000000000E+00  0.84337728881E+02  0.84337728881E+02  0.00000000000E+00 0.  1.
         21   -1    0    0  501  502 -0.00000000000E+00 -0.00000000000E+00 -0.21618739213E+02  0.21618739213E+02  0.00000000000E+00 0.  1.
         21    1    1    2  503  502 -0.21032459852E+02 -0.44293419337E+01 -0.14417468536E+02  0.25881399429E+02  0.00000000000E+00 0.  1.
         21    1    1    2  504  503  0.21032459852E+02  0.44293419337E+01  0.77136458204E+02  0.80075068665E+02  0.00000000000E+00 0.  1.
<mgrwt>
<rscale>  2 0.21493800E+02</rscale>
<asrwt>0</asrwt>
<pdfrwt beam="1">  1       21 0.12975035E-01 0.21493800E+02</pdfrwt>
<pdfrwt beam="2">  1       21 0.33259599E-02 0.21493800E+02</pdfrwt>
<totfact> 0.20229056E+07</totfact>
</mgrwt>
</event>
<event>
 4    1  0.4438654E+006  0.2101566E+02  0.7546771E-02  0.1725853E+00
         21   -1    0    0  502  501  0.00000000000E+00  0.00000000000E+00  0.10262038161E+03  0.10262038161E+03  0.00000000000E+00 0. -1.
         21   -1    0    0  503  502 -0.00000000000E+00 -0.00000000000E+00 -0.91650754797E+02  0.91650754797E+02  0.00000000000E+00 0. -1.
         21    1    1    2  503  504 -0.42621031203E+01  0.20578935365E+02 -0.89342650115E+02  0.91781083200E+02  0.00000000000E+00 0. -1.
         21    1    1    2  504  501  0.42621031203E+01 -0.20578935365E+02  0.10031227693E+03  0.10249005321E+03  0.00000000000E+00 0. -1.
<mgrwt>
<rscale>  2 0.21015663E+02</rscale>
<asrwt>0</asrwt>
<pdfrwt beam="1">  1       21 0.15787751E-01 0.21015663E+02</pdfrwt>
<pdfrwt beam="2">  1       21 0.14100116E-01 0.21015663E+02</pdfrwt>
<totfact> 0.14011477E+06</totfact>
</mgrwt>
</event>
<event>
 4    1  0.4438654E+006  0.2197381E+02  0.7546771E-02  0.1708705E+00
         21   -1    0    0  503  501  0.00000000000E+00  0.00000000000E+00  0.16836021620E+03  0.16836021620E+03  0.00000000000E+00 0.  1.
         21   -1    0    0  504  502 -0.00000000000E+00 -0.00000000000E+00 -0.29041249501E+01  0.29041249501E+01  0.00000000000E+00 0. -1.
         21    1    1    2  503  502 -0.89976287437E+01 -0.20047222539E+02  0.73170609911E+02  0.76398865236E+02  0.00000000000E+00 0. -1.
         21    1    1    2  504  501  0.89976287437E+01  0.20047222539E+02  0.92285481338E+02  0.94865475914E+02  0.00000000000E+00 0.  1.
<mgrwt>
<rscale>  2 0.21973813E+02</rscale>
<asrwt>0</asrwt>
<pdfrwt beam="1">  1       21 0.25901564E-01 0.21973813E+02</pdfrwt>
<pdfrwt beam="2">  1       21 0.44678859E-03 0.21973813E+02</pdfrwt>
<totfact> 0.12749792E+08</totfact>
</mgrwt>
</event>
<event>
 4    1  0.4438654E+006  0.2302232E+02  0.7546771E-02  0.1691149E+00
         21   -1    0    0  503  501  0.00000000000E+00  0.00000000000E+00  0.25736998172E+02  0.25736998172E+02  0.00000000000E+00 0. -1.
         21   -1    0    0  501  502 -0.00000000000E+00 -0.00000000000E+00 -0.38602634069E+02  0.38602634069E+02  0.00000000000E+00 0. -1.
         21    1    1    2  503  504 -0.10913638522E+02  0.20271153409E+02  0.15539747370E+02  0.27776085301E+02  0.00000000000E+00 0. -1.
         21    1    1    2  504  502  0.10913638522E+02 -0.20271153409E+02 -0.28405383267E+02  0.36563546940E+02  0.00000000000E+00 0. -1.
<mgrwt>
<rscale>  2 0.23022319E+02</rscale>
<asrwt>0</asrwt>
<pdfrwt beam="1">  1       21 0.39595382E-02 0.23022319E+02</pdfrwt>
<pdfrwt beam="2">  1       21 0.59388668E-02 0.23022319E+02</pdfrwt>
<totfact> 0.56384427E+07</totfact>
</mgrwt>
</event>
<event>
 4    1  0.4438654E+006  0.2304594E+02  0.7546771E-02  0.1690767E+00
         21   -1    0    0  503  501  0.00000000000E+00  0.00000000000E+00  0.13172964424E+04  0.13172964424E+04  0.00000000000E+00 0. -1.
         21   -1    0    0  501  502 -0.00000000000E+00 -0.00000000000E+00 -0.50525266329E+00  0.50525266329E+00  0.00000000000E+00 0.  1.
         21    1    1    2  503  504 -0.16296052423E+02 -0.16295827661E+02  0.95454303089E+03  0.95482119433E+03  0.00000000000E+00 0. -1.
         21    1    1    2  504  502  0.16296052423E+02  0.16295827661E+02  0.36224815883E+03  0.36298050072E+03  0.00000000000E+00 0.  1.
<mgrwt>
<rscale>  2 0.23045939E+02</rscale>
<asrwt>0</asrwt>
<pdfrwt beam="1">  1       21 0.20265824E+00 0.23045939E+02</pdfrwt>
<pdfrwt beam="2">  1       21 0.77732234E-04 0.23045939E+02</pdfrwt>
<totfact> 0.21493884E+07</totfact>
</mgrwt>
</event>
<event>
 4    1  0.4438654E+006  0.3165540E+02  0.7546771E-02  0.1580480E+00
         21   -1    0    0  503  501  0.00000000000E+00  0.00000000000E+00  0.40093862510E+02  0.40093862510E+02  0.00000000000E+00 0. -1.
         21   -1    0    0  504  502 -0.00000000000E+00 -0.00000000000E+00 -0.26101892931E+02  0.26101892931E+02  0.00000000000E+00 0. -1.
         21    1    1    2  503  502 -0.31525047479E+02  0.28698112207E+01  0.13818054233E+02  0.34539876343E+02  0.00000000000E+00 0. -1.
         21    1    1    2  504  501  0.31525047479E+02 -0.28698112207E+01  0.17391534598E+00  0.31655879099E+02  0.00000000000E+00 0. -1.
<mgrwt>
<rscale>  2 0.31655401E+02</rscale>
<asrwt>0</asrwt>
<pdfrwt beam="1">  1       21 0.61682865E-02 0.31655401E+02</pdfrwt>
<pdfrwt beam="2">  1       21 0.40156759E-02 0.31655401E+02</pdfrwt>
<totfact> 0.55994830E+07</totfact>
</mgrwt>
</event>
<event>
 4    1  0.4438654E+006  0.2128026E+02  0.7546771E-02  0.1721005E+00
         21   -1    0    0  504  501  0.00000000000E+00  0.00000000000E+00  0.52172066337E+02  0.52172066337E+02  0.00000000000E+00 0.  1.
         21   -1    0    0  503  502 -0.00000000000E+00 -0.00000000000E+00 -0.87703314863E+01  0.87703314863E+01  0.00000000000E+00 0.  1.
         21    1    1    2  503  501  0.56655913940E+01  0.20512204957E+02  0.18607097587E+02  0.28267889179E+02  0.00000000000E+00 0.  1.
         21    1    1    2  504  502 -0.56655913940E+01 -0.20512204957E+02  0.24794637264E+02  0.32674508644E+02  0.00000000000E+00 0.  1.
<mgrwt>
<rscale>  2 0.21280260E+02</rscale>
<asrwt>0</asrwt>
<pdfrwt beam="1">  1       21 0.80264715E-02 0.21280260E+02</pdfrwt>
<pdfrwt beam="2">  1       21 0.13492818E-02 0.21280260E+02</pdfrwt>
<totfact> 0.17795365E+08</totfact>
</mgrwt>
</event>
<event>
 4    1  0.4438654E+006  0.3670612E+02  0.7546771E-02  0.1533952E+00
         21   -1    0    0  504  501  0.00000000000E+00  0.00000000000E+00  0.12628952401E+03  0.12628952401E+03  0.00000000000E+00 0. -1.
         21   -1    0    0  503  502 -0.00000000000E+00 -0.00000000000E+00 -0.39753136055E+02  0.39753136055E+02  0.00000000000E+00 0. -1.
         21    1    1    2  503  501 -0.23312051152E+02  0.28352905688E+02 -0.27744284510E+02  0.46011784499E+02  0.00000000000E+00 0. -1.
         21    1    1    2  504  502  0.23312051152E+02 -0.28352905688E+02  0.11428067247E+03  0.12003087557E+03  0.00000000000E+00 0. -1.
<mgrwt>
<rscale>  2 0.36706117E+02</rscale>
<asrwt>0</asrwt>
<pdfrwt beam="1">  1       21 0.19429157E-01 0.36706117E+02</pdfrwt>
<pdfrwt beam="2">  1       21 0.61158671E-02 0.36706117E+02</pdfrwt>
<totfact> 0.41688038E+06</totfact>
</mgrwt>
</event>
<event>
 4    1  0.4438654E+006  0.2318577E+02  0.7546771E-02  0.1688516E+00
         21   -1    0    0  504  501  0.00000000000E+00  0.00000000000E+00  0.76616023992E+02  0.76616023992E+02  0.00000000000E+00 0.  1.
         21   -1    0    0  501  502 -0.00000000000E+00 -0.00000000000E+00 -0.32860499387E+02  0.32860499387E+02  0.00000000000E+00 0.  1.
         21    1    1    2  503  502  0.10273547741E+02  0.20785435363E+02 -0.26665992900E+02  0.35336316782E+02  0.00000000000E+00 0.  1.
         21    1    1    2  504  503 -0.10273547741E+02 -0.20785435363E+02  0.70421517506E+02  0.74140206597E+02  0.00000000000E+00 0.  1.
<mgrwt>
<rscale>  2 0.23185774E+02</rscale>
<asrwt>0</asrwt>
<pdfrwt beam="1">  1       21 0.11787081E-01 0.23185774E+02</pdfrwt>
<pdfrwt beam="2">  1       21 0.50554615E-02 0.23185774E+02</pdfrwt>
<totfact> 0.12484013E+07</totfact>
</mgrwt>
</event>
<event>
 4    1  0.4438654E+006  0.2126006E+02  0.7546771E-02  0.1721372E+00
         21   -1    0    0  504  501  0.00000000000E+00  0.00000000000E+00  0.11585813247E+03  0.11585813247E+03  0.00000000000E+00 0. -1.
         21   -1    0    0  501  502 -0.00000000000E+00 -0.00000000000E+00 -0.46684010317E+01  0.46684010317E+01  0.00000000000E+00 0.  1.
         21    1    1    2  503  502 -0.81814649812E+00 -0.21244313513E+02  0.31165496626E+02  0.37726362139E+02  0.00000000000E+00 0.  1.
         21    1    1    2  504  503  0.81814649812E+00  0.21244313513E+02  0.80024234815E+02  0.82800171365E+02  0.00000000000E+00 0. -1.
<mgrwt>
<rscale>  2 0.21260062E+02</rscale>
<asrwt>0</asrwt>
<pdfrwt beam="1">  1       21 0.17824326E-01 0.21260062E+02</pdfrwt>
<pdfrwt beam="2">  1       21 0.71821563E-03 0.21260062E+02</pdfrwt>
<totfact> 0.12062851E+08</totfact>
</mgrwt>
</event>
<event>
 4    1  0.4438654E+006  0.2091955E+02  0.7546771E-02  0.1727637E+00
         21   -1    0    0  504  501  0.00000000000E+00  0.00000000000E+00  0.27058651278E+02  0.27058651278E+02  0.00000000000E+00 0. -1.
         21   -1    0    0  503  502 -0.00000000000E+00 -0.00000000000E+00 -0.96442072660E+02  0.96442072660E+02  0.00000000000E+00 0.  1.
         21    1    1    2  503  501  0.16409767206E+02  0.12974863235E+02 -0.91026875109E+02  0.93399783339E+02  0.00000000000E+00 0.  1.
         21    1    1    2  504  502 -0.16409767206E+02 -0.12974863235E+02  0.21643453727E+02  0.30100940599E+02  0.00000000000E+00 0. -1.
<mgrwt>
<rscale>  2 0.20919549E+02</rscale>
<asrwt>0</asrwt>
<pdfrwt beam="1">  1       21 0.41628694E-02 0.20919549E+02</pdfrwt>
<pdfrwt beam="2">  1       21 0.14837242E-01 0.20919549E+02</pdfrwt>
<totfact> 0.11287161E+07</totfact>
</mgrwt>
</event>
<event>
 4    1  0.4438654E+006  0.3665491E+02  0.7546771E-02  0.1534377E+00
         21   -1    0    0  503  501  0.00000000000E+00  0.00000000000E+00  0.29447149124E+02  0.29447149124E+02  0.00000000000E+00 0. -1.
         21   -1    0    0  504  502 -0.00000000000E+00 -0.00000000000E+00 -0.18600508744E+03  0.18600508744E+03  0.00000000000E+00 0. -1.
         21    1    1    2  503  502 -0.95806361002E+01 -0.35380698118E+02 -0.17186443390E+03  0.17572980972E+03  0.00000000000E+00 0. -1.
         21    1    1    2  504  501  0.95806361002E+01  0.35380698118E+02  0.15306495577E+02  0.39722426842E+02  0.00000000000E+00 0. -1.
<mgrwt>
<rscale>  2 0.36654909E+02</rscale>
<asrwt>0</asrwt>
<pdfrwt beam="1">  1       21 0.45303305E-02 0.36654909E+02</pdfrwt>
<pdfrwt beam="2">  1       21 0.28616168E-01 0.36654909E+02</pdfrwt>
<totfact> 0.33710265E+06</totfact>
</mgrwt>
</event>
<event>
 4    1  0.4438654E+006  0.2366285E+02  0.7546771E-02  0.1680985E+00
         21   -1    0    0  503  501  0.00000000000E+00  0.00000000000E+00  0.84576149664E+01  0.84576149664E+01  0.00000000000E+00 0. -1.
         21   -1    0    0  501  502 -0.00000000000E+00 -0.00000000000E+00 -0.40788458719E+03  0.40788458719E+03  0.00000000000E+00 0.  1.
         21    1    1    2  503  504  0.20386566665E+02  0.12013258370E+02 -0.91841940703E+01  0.25382669240E+02  0.00000000000E+00 0. -1.
         21    1    1    2  504  502 -0.20386566665E+02 -0.12013258370E+02 -0.39024277816E+03  0.39095953292E+03  0.00000000000E+00 0.  1.
<mgrwt>
<rscale>  2 0.23662850E+02</rscale>
<asrwt>0</asrwt>
<pdfrwt beam="1">  1       21 0.13011714E-02 0.23662850E+02</pdfrwt>
<pdfrwt beam="2">  1       21 0.62751482E-01 0.23662850E+02</pdfrwt>
<totfact> 0.49412968E+06</totfact>
</mgrwt>
</event>
<event>
 4    1  0.4438654E+006  0.2500707E+02  0.7546771E-02  0.1660900E+00
         21   -1    0    0  504  501  0.00000000000E+00  0.00000000000E+00  0.24541490451E+03  0.24541490451E+03  0.00000000000E+00 0.  1.
         21   -1    0    0  503  502 -0.00000000000E+00 -0.00000000000E+00 -0.25606859352E+01  0.25606859352E+01  0.00000000000E+00 0. -1.
         21    1    1    2  503  501  0.16626538354E+02  0.18679185930E+02  0.11275160001E+03  0.11549145886E+03  0.00000000000E+00 0. -1.
         21    1    1    2  504  502 -0.16626538354E+02 -0.18679185930E+02  0.13010261857E+03  0.13248413159E+03  0.00000000000E+00 0.  1.
<mgrwt>
<rscale>  2 0.25007074E+02</rscale>
<asrwt>0</asrwt>
<pdfrwt beam="1">  1       21 0.37756120E-01 0.25007074E+02</pdfrwt>
<pdfrwt beam="2">  1       21 0.39395188E-03 0.25007074E+02</pdfrwt>
<totfact> 0.79662480E+07</totfact>
</mgrwt>
</event>
<event>
 4    1  0.4438654E+006  0.3407978E+02  0.7546771E-02  0.1556928E+00
         21   -1    0    0  503  501  0.00000000000E+00  0.00000000000E+00  0.38747342370E+02  0.38747342370E+02  0.00000000000E+00 0. -1.
         21   -1    0    0  501  502 -0.00000000000E+00 -0.00000000000E+00 -0.23095846433E+03  0.23095846433E+03  0.00000000000E+00 0.  1.
         21    1    1    2  503  504  0.32702412357E+02 -0.95908093348E+01  0.29692540372E+02  0.45200424239E+02  0.00000000000E+00 0. -1.
         21    1    1    2  504  502 -0.32702412357E+02  0.95908093348E+01 -0.22190366233E+03  0.22450538246E+03  0.00000000000E+00 0.  1.
<mgrwt>
<rscale>  2 0.34079780E+02</rscale>
<asrwt>0</asrwt>
<pdfrwt beam="1">  1       21 0.59611295E-02 0.34079780E+02</pdfrwt>
<pdfrwt beam="2">  1       21 0.35532072E-01 0.34079780E+02</pdfrwt>
<totfact> 0.14336863E+06</totfact>
</mgrwt>
</event>
<event>
 4    1  0.4438654E+006  0.2062528E+02  0.7546771E-02  0.1733172E+00
         21   -1    0    0  504  501  0.00000000000E+00  0.00000000000E+00  0.12853957089E+02  0.12853957089E+02  0.00000000000E+00 0.  1.
         21   -1    0    0  501  502 -0.00000000000E+00 -0.00000000000E+00 -0.33791762624E+03  0.33791762624E+03  0.00000000000E+00 0. -1.
         21    1    1    2  503  502 -0.13771518096E+02  0.15354072186E+02 -0.32910788295E+03  0.32975354564E+03  0.00000000000E+00 0. -1.
         21    1    1    2  504  503  0.13771518096E+02 -0.15354072186E+02  0.40442137922E+01  0.21018037695E+02  0.00000000000E+00 0.  1.
<mgrwt>
<rscale>  2 0.20625282E+02</rscale>
<asrwt>0</asrwt>
<pdfrwt beam="1">  1       21 0.19775319E-02 0.20625282E+02</pdfrwt>
<pdfrwt beam="2">  1       21 0.51987326E-01 0.20625282E+02</pdfrwt>
<totfact> 0.37171181E+06</totfact>
</mgrwt>
</event>
<event>
 4    1  0.4438654E+006  0.2917799E+02  0.7546771E-02  0.1607357E+00
         21   -1    0    0  503  501  0.00000000000E+00  0.00000000000E+00  0.46094200213E+03  0.46094200213E+03  0.00000000000E+00 0.  1.
         21   -1    0    0  504  502 -0.00000000000E+00 -0.00000000000E+00 -0.38794551781E+01  0.38794551781E+01  0.00000000000E+00 0.  1.
         21    1    1    2  503  502 -0.27082354194E+02  0.10858240326E+02  0.60309442958E+02  0.66996896955E+02  0.00000000000E+00 0.  1.
         21    1    1    2  504  501  0.27082354194E+02 -0.10858240326E+02  0.39675310400E+03  0.39782456035E+03  0.00000000000E+00 0.  1.
<mgrwt>
<rscale>  2 0.29177993E+02</rscale>
<asrwt>0</asrwt>
<pdfrwt beam="1">  1       21 0.70914111E-01 0.29177993E+02</pdfrwt>
<pdfrwt beam="2">  1       21 0.59683962E-03 0.29177993E+02</pdfrwt>
<totfact> 0.12822324E+07</totfact>
</mgrwt>
</event>
<event>
 4    1  0.4438654E+006  0.2216100E+02  0.7546771E-02  0.1705482E+00
         21   -1    0    0  503  501  0.00000000000E+00  0.00000000000E+00  0.15960517940E+02  0.15960517940E+02  0.00000000000E+00 0.  1.
         21   -1    0    0  504  502 -0.00000000000E+00 -0.00000000000E+00 -0.21025764965E+03  0.21025764965E+03  0.00000000000E+00 0.  1.
         21    1    1    2  503  502 -0.21169309503E+01 -0.22059654280E+02  0.73567826716E+01  0.23350203316E+02  0.00000000000E+00 0.  1.
         21    1    1    2  504  501  0.21169309503E+01  0.22059654280E+02 -0.20165391438E+03  0.20286796428E+03  0.00000000000E+00 0.  1.
<mgrwt>
<rscale>  2 0.22160996E+02</rscale>
<asrwt>0</asrwt>
<pdfrwt beam="1">  1       21 0.24554643E-02 0.22160996E+02</pdfrwt>
<pdfrwt beam="2">  1       21 0.32347330E-01 0.22160996E+02</pdfrwt>
<totfact> 0.65990537E+06</totfact>
</mgrwt>
</event>
<event>
 4    1  0.4438654E+006  0.3389887E+02  0.7546771E-02  0.1558602E+00
         21   -1    0    0  504  501  0.00000000000E+00  0.00000000000E+00  0.39953792192E+02  0.39953792192E+02  0.00000000000E+00 0. -1.
         21   -1    0    0  503  502 -0.00000000000E+00 -0.00000000000E+00 -0.71589878215E+02  0.71589878215E+02  0.00000000000E+00 0. -1.
         21    1    1    2  503  501 -0.61347036724E+01 -0.33339149756E+02  0.27319422076E+02  0.43537160198E+02  0.00000000000E+00 0. -1.
         21    1    1    2  504  502  0.61347036724E+01  0.33339149756E+02 -0.58955508099E+02  0.68006510208E+02  0.00000000000E+00 0. -1.
<mgrwt>
<rscale>  2 0.33898872E+02</rscale>
<asrwt>0</asrwt>
<pdfrwt beam="1">  1       21 0.61467373E-02 0.33898872E+02</pdfrwt>
<pdfrwt beam="2">  1       21 0.11013827E-01 0.33898872E+02</pdfrwt>
<totfact> 0.10917213E+07</totfact>
</mgrwt>
</event>
<event>
 4    1  0.4438654E+006  0.2335837E+02  0.7546771E-02  0.1685766E+00
         21   -1    0    0  502  501  0.00000000000E+00  0.00000000000E+00  0.20240592783E+02  0.20240592783E+02  0.00000000000E+00 0.  1.
         21   -1    0    0  503  502 -0.00000000000E+00 -0.00000000000E+00 -0.28146540057E+02  0.28146540057E+02  0.00000000000E+00 0. -1.
         21    1    1    2  503  504  0.14740575619E+02  0.18119849154E+02  0.10219513028E+01  0.23380716144E+02  0.00000000000E+00 0.  1.
         21    1    1    2  504  501 -0.14740575619E+02 -0.18119849154E+02 -0.89278985774E+01  0.25006416696E+02  0.00000000000E+00 0. -1.
<mgrwt>
<rscale>  2 0.23358371E+02</rscale>
<asrwt>0</asrwt>
<pdfrwt beam="1">  1       21 0.31139373E-02 0.23358371E+02</pdfrwt>
<pdfrwt beam="2">  1       21 0.43302369E-02 0.23358371E+02</pdfrwt>
<totfact> 0.13650395E+08</totfact>
</mgrwt>
</event>
<event>
 4    1  0.4438654E+006  0.2064251E+02  0.7546771E-02  0.1732845E+00
         21   -1    0    0  504  501  0.00000000000E+00  0.00000000000E+00  0.21113695352E+02  0.21113695352E+02  0.00000000000E+00 0. -1.
         21   -1    0    0  503  502 -0.00000000000E+00 -0.00000000000E+00 -0.22418694352E+03  0.22418694352E+03  0.00000000000E+00 0. -1.
         21    1    1    2  503  501 -0.14821796887E+02 -0.14367587494E+02 -0.21853613360E+03  0.21950889486E+03  0.00000000000E+00 0. -1.
         21    1    1    2  504  502  0.14821796887E+02  0.14367587494E+02  0.15462885432E+02  0.25791744013E+02  0.00000000000E+00 0. -1.
<mgrwt>
<rscale>  2 0.20642510E+02</rscale>
<asrwt>0</asrwt>
<pdfrwt beam="1">  1       21 0.32482607E-02 0.20642510E+02</pdfrwt>
<pdfrwt beam="2">  1       21 0.34490300E-01 0.20642510E+02</pdfrwt>
<totfact> 0.37587480E+06</totfact>
</mgrwt>
</event>
<event>
 4    1  0.4438654E+006  0.2844305E+02  0.7546771E-02  0.1615965E+00
         21   -1    0    0  504  501  0.00000000000E+00  0.00000000000E+00  0.12574252925E+03  0.12574252925E+03  0.00000000000E+00 0. -1.
         21   -1    0    0  501  502 -0.00000000000E+00 -0.00000000000E+00 -0.42239753604E+02  0.42239753604E+02  0.00000000000E+00 0.  1.
         21    1    1    2  503  502  0.26079513753E+02 -0.11351913382E+02 -0.35579000543E+02  0.45550765688E+02  0.00000000000E+00 0.  1.
         21    1    1    2  504  503 -0.26079513753E+02  0.11351913382E+02  0.11908177619E+03  0.12243151717E+03  0.00000000000E+00 0. -1.
<mgrwt>
<rscale>  2 0.28443048E+02</rscale>
<asrwt>0</asrwt>
<pdfrwt beam="1">  1       21 0.19345004E-01 0.28443048E+02</pdfrwt>
<pdfrwt beam="2">  1       21 0.64984237E-02 0.28443048E+02</pdfrwt>
<totfact> 0.36899548E+06</totfact>
</mgrwt>
</event>
<event>
 4    1  0.4438654E+006  0.2415187E+02  0.7546771E-02  0.1673491E+00
         21   -1    0    0  504  501  0.00000000000E+00  0.00000000000E+00  0.14142833471E+03  0.14142833471E+03  0.00000000000E+00 0.  1.
         21   -1    0    0  503  502 -0.00000000000E+00 -0.00000000000E+00 -0.25862227807E+02  0.25862227807E+02  0.00000000000E+00 0. -1.
         21    1    1    2  503  501 -0.20056383685E+02 -0.13455634384E+02 -0.18902959045E+02  0.30669764979E+02  0.00000000000E+00 0. -1.
         21    1    1    2  504  502  0.20056383685E+02  0.13455634384E+02  0.13446906595E+03  0.13662079754E+03  0.00000000000E+00 0.  1.
<mgrwt>
<rscale>  2 0.24151866E+02</rscale>
<asrwt>0</asrwt>
<pdfrwt beam="1">  1       21 0.21758205E-01 0.24151866E+02</pdfrwt>
<pdfrwt beam="2">  1       21 0.39788044E-02 0.24151866E+02</pdfrwt>
<totfact> 0.64281446E+06</totfact>
</mgrwt>
</event>
<event>
 4    1  0.4438654E+006  0.2082296E+02  0.7546771E-02  0.1729441E+00
         21   -1    0    0  504  501  0.00000000000E+00  0.00000000000E+00  0.89171836273E+01  0.89171836273E+01  0.00000000000E+00 0. -1.
         21   -1    0    0  503  502 -0.00000000000E+00 -0.00000000000E+00 -0.52403190411E+02  0.52403190411E+02  0.00000000000E+00 0. -1.
         21    1    1    2  503  501 -0.18718375855E+02  0.91223957962E+01 -0.13510099817E+02  0.24821734363E+02  0.00000000000E+00 0. -1.
         21    1    1    2  504  502  0.18718375855E+02 -0.91223957962E+01 -0.29975906967E+02  0.36498639676E+02  0.00000000000E+00 0. -1.
<mgrwt>
<rscale>  2 0.20822961E+02</rscale>
<asrwt>0</asrwt>
<pdfrwt beam="1">  1       21 0.13718744E-02 0.20822961E+02</pdfrwt>
<pdfrwt beam="2">  1       21 0.80620292E-02 0.20822961E+02</pdfrwt>
<totfact> 0.17113567E+08</totfact>
</mgrwt>
</event>
<event>
 4    1  0.4438654E+006  0.2653511E+02  0.7546771E-02  0.1639884E+00
         21   -1    0    0  502  501  0.00000000000E+00  0.00000000000E+00  0.23799086523E+02  0.23799086523E+02  0.00000000000E+00 0.  1.
         21   -1    0    0  503  502 -0.00000000000E+00 -0.00000000000E+00 -0.20696700206E+03  0.20696700206E+03  0.00000000000E+00 0.  1.
         21    1    1    2  503  504 -0.26521453011E+02  0.85116222287E+00 -0.19840219173E+03  0.20016878285E+03  0.00000000000E+00 0.  1.
         21    1    1    2  504  501  0.26521453011E+02 -0.85116222287E+00  0.15234276190E+02  0.30597305731E+02  0.00000000000E+00 0.  1.
<mgrwt>
<rscale>  2 0.26535108E+02</rscale>
<asrwt>0</asrwt>
<pdfrwt beam="1">  1       21 0.36613981E-02 0.26535108E+02</pdfrwt>
<pdfrwt beam="2">  1       21 0.31841076E-01 0.26535108E+02</pdfrwt>
<totfact> 0.37434198E+06</totfact>
</mgrwt>
</event>
<event>
 4    1  0.4438654E+006  0.3758537E+02  0.7546771E-02  0.1526772E+00
         21   -1    0    0  504  501  0.00000000000E+00  0.00000000000E+00  0.35910400601E+02  0.35910400601E+02  0.00000000000E+00 0. -1.
         21   -1    0    0  503  502 -0.00000000000E+00 -0.00000000000E+00 -0.41558041792E+02  0.41558041792E+02  0.00000000000E+00 0. -1.
         21    1    1    2  503  501 -0.26969965013E+02  0.26177869662E+02  0.61278238905E+01  0.38081624157E+02  0.00000000000E+00 0. -1.
         21    1    1    2  504  502  0.26969965013E+02 -0.26177869662E+02 -0.11775465082E+02  0.39386818235E+02  0.00000000000E+00 0. -1.
<mgrwt>
<rscale>  2 0.37585368E+02</rscale>
<asrwt>0</asrwt>
<pdfrwt beam="1">  1       21 0.55246770E-02 0.37585368E+02</pdfrwt>
<pdfrwt beam="2">  1       21 0.63935449E-02 0.37585368E+02</pdfrwt>
<totfact> 0.32691743E+07</totfact>
</mgrwt>
</event>
<event>
 4    1  0.4438654E+006  0.2032983E+02  0.7546771E-02  0.1738847E+00
         21   -1    0    0  504  501  0.00000000000E+00  0.00000000000E+00  0.16236372123E+02  0.16236372123E+02  0.00000000000E+00 0.  1.
         21   -1    0    0  501  502 -0.00000000000E+00 -0.00000000000E+00 -0.26211538753E+02  0.26211538753E+02  0.00000000000E+00 0.  1.
         21    1    1    2  503  502  0.17993893415E+02  0.94616021498E+01 -0.85925611224E+01  0.22071117373E+02  0.00000000000E+00 0.  1.
         21    1    1    2  504  503 -0.17993893415E+02 -0.94616021498E+01 -0.13826055070E+01  0.20376793503E+02  0.00000000000E+00 0.  1.
<mgrwt>
<rscale>  2 0.20329833E+02</rscale>
<asrwt>0</asrwt>
<pdfrwt beam="1">  1       21 0.24979034E-02 0.20329833E+02</pdfrwt>
<pdfrwt beam="2">  1       21 0.40325444E-02 0.20329833E+02</pdfrwt>
<totfact> 0.20577675E+08</totfact>
</mgrwt>
</event>
<event>
 4    1  0.4438654E+006  0.2461749E+02  0.7546771E-02  0.1666558E+00
         21   -1    0    0  502  501  0.00000000000E+00  0.00000000000E+00  0.19989307749E+01  0.19989307749E+01  0.00000000000E+00 0.  1.
         21   -1    0    0  504  502 -0.00000000000E+00 -0.00000000000E+00 -0.39967674235E+03  0.39967674235E+03  0.00000000000E+00 0.  1.
         21    1    1    2  503  501 -0.37055587622E+00 -0.24614698372E+02 -0.10015087783E+03  0.10313204651E+03  0.00000000000E+00 0.  1.
         21    1    1    2  504  503  0.37055587622E+00  0.24614698372E+02 -0.29752693374E+03  0.29854362661E+03  0.00000000000E+00 0.  1.
<mgrwt>
<rscale>  2 0.24617487E+02</rscale>
<asrwt>0</asrwt>
<pdfrwt beam="1">  1       21 0.30752743E-03 0.24617487E+02</pdfrwt>
<pdfrwt beam="2">  1       21 0.61488805E-01 0.24617487E+02</pdfrwt>
<totfact> 0.44274792E+07</totfact>
</mgrwt>
</event>
<event>
 4    1  0.4438654E+006  0.2341305E+02  0.7546771E-02  0.1684901E+00
         21   -1    0    0  502  501  0.00000000000E+00  0.00000000000E+00  0.93819060807E+02  0.93819060807E+02  0.00000000000E+00 0. -1.
         21   -1    0    0  504  502 -0.00000000000E+00 -0.00000000000E+00 -0.11860497336E+03  0.11860497336E+03  0.00000000000E+00 0.  1.
         21    1    1    2  503  501  0.17699277795E+02  0.15326654952E+02  0.91169854096E+02  0.94128173691E+02  0.00000000000E+00 0. -1.
         21    1    1    2  504  503 -0.17699277795E+02 -0.15326654952E+02 -0.11595576665E+03  0.11829586048E+03  0.00000000000E+00 0.  1.
<mgrwt>
<rscale>  2 0.23413047E+02</rscale>
<asrwt>0</asrwt>
<pdfrwt beam="1">  1       21 0.14433702E-01 0.23413047E+02</pdfrwt>
<pdfrwt beam="2">  1       21 0.18246919E-01 0.23413047E+02</pdfrwt>
<totfact> 0.10626368E+06</totfact>
</mgrwt>
</event>
<event>
 4    1  0.4438654E+006  0.2238321E+02  0.7546771E-02  0.1701708E+00
         21   -1    0    0  503  501  0.00000000000E+00  0.00000000000E+00  0.59927342611E+01  0.59927342611E+01  0.00000000000E+00 0. -1.
         21   -1    0    0  504  502 -0.00000000000E+00 -0.00000000000E+00 -0.13874976679E+03  0.13874976679E+03  0.00000000000E+00 0. -1.
         21    1    1    2  503  502 -0.20726858484E+01 -0.22287039796E+02 -0.20752605578E+02  0.30523414091E+02  0.00000000000E+00 0. -1.
         21    1    1    2  504  501  0.20726858484E+01  0.22287039796E+02 -0.11200442695E+03  0.11421908696E+03  0.00000000000E+00 0. -1.
<mgrwt>
<rscale>  2 0.22383212E+02</rscale>
<asrwt>0</asrwt>
<pdfrwt beam="1">  1       21 0.92195913E-03 0.22383212E+02</pdfrwt>
<pdfrwt beam="2">  1       21 0.21346118E-01 0.22383212E+02</pdfrwt>
<totfact> 0.61647437E+07</totfact>
</mgrwt>
</event>
<event>
 4    1  0.4438654E+006  0.2183816E+02  0.7546771E-02  0.1711066E+00
         21   -1    0    0  503  501  0.00000000000E+00  0.00000000000E+00  0.31523500923E+02  0.31523500923E+02  0.00000000000E+00 0.  1.
         21   -1    0    0  501  502 -0.00000000000E+00 -0.00000000000E+00 -0.12720334728E+03  0.12720334728E+03  0.00000000000E+00 0.  1.
         21    1    1    2  503  504  0.13797154413E+02 -0.16927603163E+02  0.26654727177E+02  0.34458376335E+02  0.00000000000E+00 0.  1.
         21    1    1    2  504  502 -0.13797154413E+02  0.16927603163E+02 -0.12233457354E+03  0.12426847187E+03  0.00000000000E+00 0.  1.
<mgrwt>
<rscale>  2 0.21838160E+02</rscale>
<asrwt>0</asrwt>
<pdfrwt beam="1">  1       21 0.48497694E-02 0.21838160E+02</pdfrwt>
<pdfrwt beam="2">  1       21 0.19569746E-01 0.21838160E+02</pdfrwt>
<totfact> 0.55602129E+06</totfact>
</mgrwt>
</event>
<event>
 4    1  0.4438654E+006  0.2011821E+02  0.7546771E-02  0.1742987E+00
         21   -1    0    0  504  501  0.00000000000E+00  0.00000000000E+00  0.14570179407E+02  0.14570179407E+02  0.00000000000E+00 0.  1.
         21   -1    0    0  503  502 -0.00000000000E+00 -0.00000000000E+00 -0.10677607356E+04  0.10677607356E+04  0.00000000000E+00 0. -1.
         21    1    1    2  503  501  0.75493880178E+01 -0.18648035898E+02  0.74843180826E+01  0.21465263088E+02  0.00000000000E+00 0.  1.
         21    1    1    2  504  502 -0.75493880178E+01  0.18648035898E+02 -0.10606748742E+04  0.10608656519E+04  0.00000000000E+00 0. -1.
<mgrwt>
<rscale>  2 0.20118213E+02</rscale>
<asrwt>0</asrwt>
<pdfrwt beam="1">  1       21 0.22415656E-02 0.20118213E+02</pdfrwt>
<pdfrwt beam="2">  1       21 0.16427092E+00 0.20118213E+02</pdfrwt>
<totfact> 0.25761445E+05</totfact>
</mgrwt>
</event>
<event>
 4    1  0.4438654E+006  0.2163872E+02  0.7546771E-02  0.1714576E+00
         21   -1    0    0  503  501  0.00000000000E+00  0.00000000000E+00  0.42272378081E+02  0.42272378081E+02  0.00000000000E+00 0.  1.
         21   -1    0    0  504  502 -0.00000000000E+00 -0.00000000000E+00 -0.12302164852E+02  0.12302164852E+02  0.00000000000E+00 0. -1.
         21    1    1    2  503  502  0.19391233456E+02 -0.96028336060E+01  0.63724533284E+01  0.22557537756E+02  0.00000000000E+00 0. -1.
         21    1    1    2  504  501 -0.19391233456E+02  0.96028336060E+01  0.23597759901E+02  0.32017005177E+02  0.00000000000E+00 0.  1.
<mgrwt>
<rscale>  2 0.21638723E+02</rscale>
<asrwt>0</asrwt>
<pdfrwt beam="1">  1       21 0.65034427E-02 0.21638723E+02</pdfrwt>
<pdfrwt beam="2">  1       21 0.18926408E-02 0.21638723E+02</pdfrwt>
<totfact> 0.15035254E+08</totfact>
</mgrwt>
</event>
<event>
 4    1  0.4438654E+006  0.2145088E+02  0.7546771E-02  0.1717925E+00
         21   -1    0    0  502  501  0.00000000000E+00  0.00000000000E+00  0.95321410677E+02  0.95321410677E+02  0.00000000000E+00 0. -1.
         21   -1    0    0  503  502 -0.00000000000E+00 -0.00000000000E+00 -0.41809152137E+03  0.41809152137E+03  0.00000000000E+00 0. -1.
         21    1    1    2  503  504 -0.19514855046E+02 -0.89056654983E+01 -0.41660526255E+03  0.41715714692E+03  0.00000000000E+00 0. -1.
         21    1    1    2  504  501  0.19514855046E+02  0.89056654983E+01  0.93835151858E+02  0.96255785123E+02  0.00000000000E+00 0. -1.
<mgrwt>
<rscale>  2 0.21450884E+02</rscale>
<asrwt>0</asrwt>
<pdfrwt beam="1">  1       21 0.14664833E-01 0.21450884E+02</pdfrwt>
<pdfrwt beam="2">  1       21 0.64321772E-01 0.21450884E+02</pdfrwt>
<totfact> 0.99513318E+04</totfact>
</mgrwt>
</event>
<event>
 4    1  0.4438654E+006  0.3241633E+02  0.7546771E-02  0.1572819E+00
         21   -1    0    0  502  501  0.00000000000E+00  0.00000000000E+00  0.87024753723E+02  0.87024753723E+02  0.00000000000E+00 0.  1.
         21   -1    0    0  504  502 -0.00000000000E+00 -0.00000000000E+00 -0.32205739209E+02  0.32205739209E+02  0.00000000000E+00 0. -1.
         21    1    1    2  503  501  0.20068816894E+02  0.25457039707E+02  0.74542092937E+02  0.81285557768E+02  0.00000000000E+00 0.  1.
         21    1    1    2  504  503 -0.20068816894E+02 -0.25457039707E+02 -0.19723078424E+02  0.37944935165E+02  0.00000000000E+00 0. -1.
<mgrwt>
<rscale>  2 0.32416327E+02</rscale>
<asrwt>0</asrwt>
<pdfrwt beam="1">  1       21 0.13388424E-01 0.32416327E+02</pdfrwt>
<pdfrwt beam="2">  1       21 0.49547291E-02 0.32416327E+02</pdfrwt>
<totfact> 0.11033257E+07</totfact>
</mgrwt>
</event>
<event>
 4    1  0.4438654E+006  0.2117364E+02  0.7546771E-02  0.1722948E+00
         21   -1    0    0  503  501  0.00000000000E+00  0.00000000000E+00  0.10438130796E+02  0.10438130796E+02  0.00000000000E+00 0. -1.
         21   -1    0    0  504  502 -0.00000000000E+00 -0.00000000000E+00 -0.79831424582E+02  0.79831424582E+02  0.00000000000E+00 0. -1.
         21    1    1    2  503  502  0.79995349366E+00 -0.21158521068E+02 -0.40187723863E+01  0.21551646593E+02  0.00000000000E+00 0. -1.
         21    1    1    2  504  501 -0.79995349366E+00  0.21158521068E+02 -0.65374521400E+02  0.68717908785E+02  0.00000000000E+00 0. -1.
<mgrwt>
<rscale>  2 0.21173638E+02</rscale>
<asrwt>0</asrwt>
<pdfrwt beam="1">  1       21 0.16058663E-02 0.21173638E+02</pdfrwt>
<pdfrwt beam="2">  1       21 0.12281758E-01 0.21173638E+02</pdfrwt>
<totfact> 0.67712581E+07</totfact>
</mgrwt>
</event>
<event>
 4    1  0.4438654E+006  0.2118851E+02  0.7546771E-02  0.1722676E+00
         21   -1    0    0  502  501  0.00000000000E+00  0.00000000000E+00  0.12057322855E+02  0.12057322855E+02  0.00000000000E+00 0.  1.
         21   -1    0    0  503  502 -0.00000000000E+00 -0.00000000000E+00 -0.83379873415E+02  0.83379873415E+02  0.00000000000E+00 0. -1.
         21    1    1    2  503  504  0.24751353133E+01 -0.21043445594E+02 -0.71160542083E+02  0.74248068303E+02  0.00000000000E+00 0. -1.
         21    1    1    2  504  501 -0.24751353133E+01  0.21043445594E+02 -0.16200847721E+00  0.21189127967E+02  0.00000000000E+00 0.  1.
<mgrwt>
<rscale>  2 0.21188509E+02</rscale>
<asrwt>0</asrwt>
<pdfrwt beam="1">  1       21 0.18549728E-02 0.21188509E+02</pdfrwt>
<pdfrwt beam="2">  1       21 0.12827673E-01 0.21188509E+02</pdfrwt>
<totfact> 0.50560183E+07</totfact>
</mgrwt>
</event>
<event>
 4    1  0.4438654E+006  0.2507502E+02  0.7546771E-02  0.1659927E+00
         21   -1    0    0  504  501  0.00000000000E+00  0.00000000000E+00  0.10796226232E+02  0.10796226232E+02  0.00000000000E+00 0.  1.
         21   -1    0    0  501  502 -0.00000000000E+00 -0.00000000000E+00 -0.11441740252E+03  0.11441740252E+03  0.00000000000E+00 0. -1.
         21    1    1    2  503  502  0.11198414935E+02 -0.22435513763E+02 -0.95680010875E+02  0.98911178620E+02  0.00000000000E+00 0. -1.
         21    1    1    2  504  503 -0.11198414935E+02  0.22435513763E+02 -0.79411654132E+01  0.26302450132E+02  0.00000000000E+00 0.  1.
<mgrwt>
<rscale>  2 0.25075023E+02</rscale>
<asrwt>0</asrwt>
<pdfrwt beam="1">  1       21 0.16609579E-02 0.25075023E+02</pdfrwt>
<pdfrwt beam="2">  1       21 0.17602677E-01 0.25075023E+02</pdfrwt>
<totfact> 0.36401271E+07</totfact>
</mgrwt>
</event>
<event>
 4    1  0.4438654E+006  0.2306938E+02  0.7546771E-02  0.1690388E+00
         21   -1    0    0  503  501  0.00000000000E+00  0.00000000000E+00  0.31240227139E+03  0.31240227139E+03  0.00000000000E+00 0.  1.
         21   -1    0    0  504  502 -0.00000000000E+00 -0.00000000000E+00 -0.47067560377E+01  0.47067560377E+01  0.00000000000E+00 0. -1.
         21    1    1    2  503  502  0.22150358907E+02  0.64465543559E+01  0.28049901423E+03  0.28144607556E+03  0.00000000000E+00 0.  1.
         21    1    1    2  504  501 -0.22150358907E+02 -0.64465543559E+01  0.27196501120E+02  0.35662951868E+02  0.00000000000E+00 0. -1.
<mgrwt>
<rscale>  2 0.23069384E+02</rscale>
<asrwt>0</asrwt>
<pdfrwt beam="1">  1       21 0.48061872E-01 0.23069384E+02</pdfrwt>
<pdfrwt beam="2">  1       21 0.72411656E-03 0.23069384E+02</pdfrwt>
<totfact> 0.20073921E+07</totfact>
</mgrwt>
</event>
<event>
 4    1  0.4438654E+006  0.2128471E+02  0.7546771E-02  0.1720924E+00
         21   -1    0    0  502  501  0.00000000000E+00  0.00000000000E+00  0.18542505646E+03  0.18542505646E+03  0.00000000000E+00 0. -1.
         21   -1    0    0  503  502 -0.00000000000E+00 -0.00000000000E+00 -0.54960054225E+01  0.54960054225E+01  0.00000000000E+00 0.  1.
         21    1    1    2  503  504  0.21280294607E+02  0.43341500401E+00  0.18819153986E+02  0.28411253825E+02  0.00000000000E+00 0.  1.
         21    1    1    2  504  501 -0.21280294607E+02 -0.43341500401E+00  0.16110989705E+03  0.16250980805E+03  0.00000000000E+00 0. -1.
<mgrwt>
<rscale>  2 0.21284708E+02</rscale>
<asrwt>0</asrwt>
<pdfrwt beam="1">  1       21 0.28526927E-01 0.21284708E+02</pdfrwt>
<pdfrwt beam="2">  1       21 0.84553944E-03 0.21284708E+02</pdfrwt>
<totfact> 0.41376029E+07</totfact>
</mgrwt>
</event>
<event>
 4    1  0.4438654E+006  0.2673632E+02  0.7546771E-02  0.1637246E+00
         21   -1    0    0  503  501  0.00000000000E+00  0.00000000000E+00  0.15757500925E+02  0.15757500925E+02  0.00000000000E+00 0. -1.
         21   -1    0    0  504  502 -0.00000000000E+00 -0.00000000000E+00 -0.99327681451E+02  0.99327681451E+02  0.00000000000E+00 0. -1.
         21    1    1    2  503  502 -0.45269703784E+01 -0.26350285964E+02 -0.84198488382E+02  0.88341476538E+02  0.00000000000E+00 0. -1.
         21    1    1    2  504  501  0.45269703784E+01  0.26350285964E+02  0.62830785540E+00  0.26743705838E+02  0.00000000000E+00 0. -1.
<mgrwt>
<rscale>  2 0.26736324E+02</rscale>
<asrwt>0</asrwt>
<pdfrwt beam="1">  1       21 0.24242309E-02 0.26736324E+02</pdfrwt>
<pdfrwt beam="2">  1       21 0.15281182E-01 0.26736324E+02</pdfrwt>
<totfact> 0.26294637E+07</totfact>
</mgrwt>
</event>
<event>
 4    1  0.4438654E+006  0.2093053E+02  0.7546771E-02  0.1727432E+00
         21   -1    0    0  504  501  0.00000000000E+00  0.00000000000E+00  0.70155764697E+01  0.70155764697E+01  0.00000000000E+00 0. -1.
         21   -1    0    0  503  502 -0.00000000000E+00 -0.00000000000E+00 -0.81751469796E+02  0.81751469796E+02  0.00000000000E+00 0. -1.
         21    1    1    2  503  501  0.20916968726E+02  0.75344742369E+00 -0.58936751413E+02  0.62543008649E+02  0.00000000000E+00 0. -1.
         21    1    1    2  504  502 -0.20916968726E+02 -0.75344742369E+00 -0.15799141913E+02  0.26224037616E+02  0.00000000000E+00 0. -1.
<mgrwt>
<rscale>  2 0.20930534E+02</rscale>
<asrwt>0</asrwt>
<pdfrwt beam="1">  1       21 0.10793194E-02 0.20930534E+02</pdfrwt>
<pdfrwt beam="2">  1       21 0.12577150E-01 0.20930534E+02</pdfrwt>
<totfact> 0.11814222E+08</totfact>
</mgrwt>
</event>
<event>
 4    1  0.4438654E+006  0.4362426E+02  0.7546771E-02  0.1483117E+00
         21   -1    0    0  503  501  0.00000000000E+00  0.00000000000E+00  0.13261600828E+02  0.13261600828E+02  0.00000000000E+00 0. -1.
         21   -1    0    0  504  502 -0.00000000000E+00 -0.00000000000E+00 -0.38083746890E+03  0.38083746890E+03  0.00000000000E+00 0. -1.
         21    1    1    2  503  502 -0.23013447072E+02 -0.37060188767E+02 -0.33934373302E+03  0.34213629664E+03  0.00000000000E+00 0. -1.
         21    1    1    2  504  501  0.23013447072E+02  0.37060188767E+02 -0.28232135054E+02  0.51962773091E+02  0.00000000000E+00 0. -1.
<mgrwt>
<rscale>  2 0.43624263E+02</rscale>
<asrwt>0</asrwt>
<pdfrwt beam="1">  1       21 0.20402466E-02 0.43624263E+02</pdfrwt>
<pdfrwt beam="2">  1       21 0.58590371E-01 0.43624263E+02</pdfrwt>
<totfact> 0.30400591E+06</totfact>
</mgrwt>
</event>
<event>
 4    1  0.4438654E+006  0.4696152E+02  0.7546771E-02  0.1462455E+00
         21   -1    0    0  503  501  0.00000000000E+00  0.00000000000E+00  0.20458307311E+02  0.20458307311E+02  0.00000000000E+00 0. -1.
         21   -1    0    0  504  502 -0.00000000000E+00 -0.00000000000E+00 -0.15931003000E+03  0.15931003000E+03  0.00000000000E+00 0. -1.
         21    1    1    2  503  502 -0.76393019976E+00  0.46955307124E+02 -0.18315154207E+02  0.50406639742E+02  0.00000000000E+00 0. -1.
         21    1    1    2  504  501  0.76393019976E+00 -0.46955307124E+02 -0.12053656848E+03  0.12936169756E+03  0.00000000000E+00 0. -1.
<mgrwt>
<rscale>  2 0.46961521E+02</rscale>
<asrwt>0</asrwt>
<pdfrwt beam="1">  1       21 0.31474318E-02 0.46961521E+02</pdfrwt>
<pdfrwt beam="2">  1       21 0.24509236E-01 0.46961521E+02</pdfrwt>
<totfact> 0.82581645E+06</totfact>
</mgrwt>
</event>
<event>
 4    1  0.4438654E+006  0.2887753E+02  0.7546771E-02  0.1610838E+00
         21   -1    0    0  502  501  0.00000000000E+00  0.00000000000E+00  0.32486361322E+02  0.32486361322E+02  0.00000000000E+00 0. -1.
         21   -1    0    0  504  502 -0.00000000000E+00 -0.00000000000E+00 -0.27163376372E+02  0.27163376372E+02  0.00000000000E+00 0. -1.
         21    1    1    2  503  501 -0.28866060201E+02 -0.81387728500E+00  0.96555594342E+01  0.30449000899E+02  0.00000000000E+00 0. -1.
         21    1    1    2  504  503  0.28866060201E+02  0.81387728500E+00 -0.43325744839E+01  0.29200736796E+02  0.00000000000E+00 0. -1.
<mgrwt>
<rscale>  2 0.28877532E+02</rscale>
<asrwt>0</asrwt>
<pdfrwt beam="1">  1       21 0.49979017E-02 0.28877532E+02</pdfrwt>
<pdfrwt beam="2">  1       21 0.41789810E-02 0.28877532E+02</pdfrwt>
<totfact> 0.72308921E+07</totfact>
</mgrwt>
</event>
<event>
 4    1  0.4438654E+006  0.3376862E+02  0.7546771E-02  0.1559815E+00
         21   -1    0    0  503  501  0.00000000000E+00  0.00000000000E+00  0.49422490975E+03  0.49422490975E+03  0.00000000000E+00 0.  1.
         21   -1    0    0  504  502 -0.00000000000E+00 -0.00000000000E+00 -0.23879566075E+01  0.23879566075E+01  0.00000000000E+00 0.  1.
         21    1    1    2  503  502 -0.18940254583E+02  0.27956865771E+02  0.20028065087E+03  0.20310750528E+03  0.00000000000E+00 0.  1.
         21    1    1    2  504  501  0.18940254583E+02 -0.27956865771E+02  0.29155630227E+03  0.29350536108E+03  0.00000000000E+00 0.  1.
<mgrwt>
<rscale>  2 0.33768618E+02</rscale>
<asrwt>0</asrwt>
<pdfrwt beam="1">  1       21 0.76034520E-01 0.33768618E+02</pdfrwt>
<pdfrwt beam="2">  1       21 0.36737833E-03 0.33768618E+02</pdfrwt>
<totfact> 0.23330200E+07</totfact>
</mgrwt>
</event>
<event>
 4    1  0.4438654E+006  0.3149254E+02  0.7546771E-02  0.1582153E+00
         21   -1    0    0  504  501  0.00000000000E+00  0.00000000000E+00  0.11039012588E+04  0.11039012588E+04  0.00000000000E+00 0.  1.
         21   -1    0    0  503  502 -0.00000000000E+00 -0.00000000000E+00 -0.91278693962E+00  0.91278693962E+00  0.00000000000E+00 0.  1.
         21    1    1    2  503  501 -0.31000754504E+02 -0.55437649873E+01  0.62076924883E+03  0.62156756705E+03  0.00000000000E+00 0.  1.
         21    1    1    2  504  502  0.31000754504E+02  0.55437649873E+01  0.48221922299E+03  0.48324647865E+03  0.00000000000E+00 0.  1.
<mgrwt>
<rscale>  2 0.31492541E+02</rscale>
<asrwt>0</asrwt>
<pdfrwt beam="1">  1       21 0.16982989E+00 0.31492541E+02</pdfrwt>
<pdfrwt beam="2">  1       21 0.14042964E-03 0.31492541E+02</pdfrwt>
<totfact> 0.15035658E+07</totfact>
</mgrwt>
</event>
<event>
 4    1  0.4438654E+006  0.3645661E+02  0.7546771E-02  0.1536033E+00
         21   -1    0    0  502  501  0.00000000000E+00  0.00000000000E+00  0.15613111061E+03  0.15613111061E+03  0.00000000000E+00 0. -1.
         21   -1    0    0  504  502 -0.00000000000E+00 -0.00000000000E+00 -0.19314154924E+02  0.19314154924E+02  0.00000000000E+00 0. -1.
         21    1    1    2  503  501 -0.33498566323E+02  0.14385087222E+02  0.13401039879E+03  0.13888078219E+03  0.00000000000E+00 0. -1.
         21    1    1    2  504  503  0.33498566323E+02 -0.14385087222E+02  0.28065568978E+01  0.36564483337E+02  0.00000000000E+00 0. -1.
<mgrwt>
<rscale>  2 0.36456614E+02</rscale>
<asrwt>0</asrwt>
<pdfrwt beam="1">  1       21 0.24020170E-01 0.36456614E+02</pdfrwt>
<pdfrwt beam="2">  1       21 0.29714085E-02 0.36456614E+02</pdfrwt>
<totfact> 0.90947545E+06</totfact>
</mgrwt>
</event>
<event>
 4    1  0.4438654E+006  0.3552274E+02  0.7546771E-02  0.1544007E+00
         21   -1    0    0  503  501  0.00000000000E+00  0.00000000000E+00  0.17575542266E+03  0.17575542266E+03  0.00000000000E+00 0. -1.
         21   -1    0    0  504  502 -0.00000000000E+00 -0.00000000000E+00 -0.96669948987E+02  0.96669948987E+02  0.00000000000E+00 0.  1.
         21    1    1    2  503  502  0.32538967937E+02 -0.14250641770E+02 -0.91514121360E+02  0.98166693096E+02  0.00000000000E+00 0.  1.
         21    1    1    2  504  501 -0.32538967937E+02  0.14250641770E+02  0.17059959504E+03  0.17425867856E+03  0.00000000000E+00 0. -1.
<mgrwt>
<rscale>  2 0.35522742E+02</rscale>
<asrwt>0</asrwt>
<pdfrwt beam="1">  1       21 0.27039296E-01 0.35522742E+02</pdfrwt>
<pdfrwt beam="2">  1       21 0.14872300E-01 0.35522742E+02</pdfrwt>
<totfact> 0.51551636E+05</totfact>
</mgrwt>
</event>
<event>
 4    1  0.4438654E+006  0.2669400E+02  0.7546771E-02  0.1637798E+00
         21   -1    0    0  503  501  0.00000000000E+00  0.00000000000E+00  0.10457352008E+04  0.10457352008E+04  0.00000000000E+00 0. -1.
         21   -1    0    0  504  502 -0.00000000000E+00 -0.00000000000E+00 -0.95385629184E+00  0.95385629184E+00  0.00000000000E+00 0. -1.
         21    1    1    2  503  502 -0.26391853654E+02 -0.40049798154E+01  0.80208920360E+03  0.80253327677E+03  0.00000000000E+00 0. -1.
         21    1    1    2  504  501  0.26391853654E+02  0.40049798154E+01  0.24269214091E+03  0.24415578032E+03  0.00000000000E+00 0. -1.
<mgrwt>
<rscale>  2 0.26694003E+02</rscale>
<asrwt>0</asrwt>
<pdfrwt beam="1">  1       21 0.16088142E+00 0.26694003E+02</pdfrwt>
<pdfrwt beam="2">  1       21 0.14674796E-03 0.26694003E+02</pdfrwt>
<totfact> 0.15789122E+07</totfact>
</mgrwt>
</event>
<event>
 4    1  0.4438654E+006  0.3820537E+02  0.7546771E-02  0.1521849E+00
         21   -1    0    0  502  501  0.00000000000E+00  0.00000000000E+00  0.25926937401E+02  0.25926937401E+02  0.00000000000E+00 0.  1.
         21   -1    0    0  504  502 -0.00000000000E+00 -0.00000000000E+00 -0.32856997676E+03  0.32856997676E+03  0.00000000000E+00 0. -1.
         21    1    1    2  503  501 -0.34844141563E+02 -0.15669583063E+02  0.10028687009E+02  0.39499678451E+02  0.00000000000E+00 0.  1.
         21    1    1    2  504  503  0.34844141563E+02  0.15669583063E+02 -0.31267172636E+03  0.31499723570E+03  0.00000000000E+00 0. -1.
<mgrwt>
<rscale>  2 0.38205367E+02</rscale>
<asrwt>0</asrwt>
<pdfrwt beam="1">  1       21 0.39887594E-02 0.38205367E+02</pdfrwt>
<pdfrwt beam="2">  1       21 0.50549230E-01 0.38205367E+02</pdfrwt>
<totfact> 0.13993524E+06</totfact>
</mgrwt>
</event>
<event>
 4    1  0.4438654E+006  0.3409784E+02  0.7546771E-02  0.1556761E+00
         21   -1    0    0  503  501  0.00000000000E+00  0.00000000000E+00  0.23943978048E+02  0.23943978048E+02  0.00000000000E+00 0. -1.
         21   -1    0    0  501  502 -0.00000000000E+00 -0.00000000000E+00 -0.78518412859E+02  0.78518412859E+02  0.00000000000E+00 0. -1.
         21    1    1    2  503  504  0.75980164481E+01  0.33240530049E+02  0.43592583855E+01  0.34375366552E+02  0.00000000000E+00 0. -1.
         21    1    1    2  504  502 -0.75980164481E+01 -0.33240530049E+02 -0.58933693196E+02  0.68087024356E+02  0.00000000000E+00 0. -1.
<mgrwt>
<rscale>  2 0.34097840E+02</rscale>
<asrwt>0</asrwt>
<pdfrwt beam="1">  1       21 0.36836890E-02 0.34097840E+02</pdfrwt>
<pdfrwt beam="2">  1       21 0.12079756E-01 0.34097840E+02</pdfrwt>
<totfact> 0.21326621E+07</totfact>
</mgrwt>
</event>
<event>
 4    1  0.4438654E+006  0.2305865E+02  0.7546771E-02  0.1690561E+00
         21   -1    0    0  502  501  0.00000000000E+00  0.00000000000E+00  0.76875060635E+01  0.76875060635E+01  0.00000000000E+00 0.  1.
         21   -1    0    0  504  502 -0.00000000000E+00 -0.00000000000E+00 -0.89326176811E+03  0.89326176811E+03  0.00000000000E+00 0. -1.
         21    1    1    2  503  501 -0.18338956037E+02  0.13977990440E+02 -0.10103722823E+02  0.25175121453E+02  0.00000000000E+00 0.  1.
         21    1    1    2  504  503  0.18338956037E+02 -0.13977990440E+02 -0.87547053922E+03  0.87577415272E+03  0.00000000000E+00 0. -1.
<mgrwt>
<rscale>  2 0.23058654E+02</rscale>
<asrwt>0</asrwt>
<pdfrwt beam="1">  1       21 0.11826929E-02 0.23058654E+02</pdfrwt>
<pdfrwt beam="2">  1       21 0.13742492E+00 0.23058654E+02</pdfrwt>
<totfact> 0.10452470E+06</totfact>
</mgrwt>
</event>
<event>
 4    1  0.4438654E+006  0.2636748E+02  0.7546771E-02  0.1642103E+00
         21   -1    0    0  502  501  0.00000000000E+00  0.00000000000E+00  0.13580121856E+03  0.13580121856E+03  0.00000000000E+00 0. -1.
         21   -1    0    0  504  502 -0.00000000000E+00 -0.00000000000E+00 -0.75106299344E+01  0.75106299344E+01  0.00000000000E+00 0.  1.
         21    1    1    2  503  501 -0.68125771755E+01 -0.25472198289E+02  0.10457578245E+03  0.10784868274E+03  0.00000000000E+00 0. -1.
         21    1    1    2  504  503  0.68125771755E+01  0.25472198289E+02  0.23714806176E+02  0.35463165756E+02  0.00000000000E+00 0.  1.
<mgrwt>
<rscale>  2 0.26367482E+02</rscale>
<asrwt>0</asrwt>
<pdfrwt beam="1">  1       21 0.20892493E-01 0.26367482E+02</pdfrwt>
<pdfrwt beam="2">  1       21 0.11554816E-02 0.26367482E+02</pdfrwt>
<totfact> 0.47423541E+07</totfact>
</mgrwt>
</event>
<event>
 4    1  0.4438654E+006  0.3271651E+02  0.7546771E-02  0.1569867E+00
         21   -1    0    0  503  501  0.00000000000E+00  0.00000000000E+00  0.80676558908E+03  0.80676558908E+03  0.00000000000E+00 0. -1.
         21   -1    0    0  504  502 -0.00000000000E+00 -0.00000000000E+00 -0.37910046286E+01  0.37910046286E+01  0.00000000000E+00 0.  1.
         21    1    1    2  503  502 -0.27383585684E+01 -0.32601712567E+02  0.72824032949E+03  0.72897486086E+03  0.00000000000E+00 0. -1.
         21    1    1    2  504  501  0.27383585684E+01  0.32601712567E+02  0.74734254961E+02  0.81581732848E+02  0.00000000000E+00 0.  1.
<mgrwt>
<rscale>  2 0.32716514E+02</rscale>
<asrwt>0</asrwt>
<pdfrwt beam="1">  1       21 0.12411765E+00 0.32716514E+02</pdfrwt>
<pdfrwt beam="2">  1       21 0.58323212E-03 0.32716514E+02</pdfrwt>
<totfact> 0.39470614E+06</totfact>
</mgrwt>
</event>
<event>
 4    1  0.4438654E+006  0.2557020E+02  0.7546771E-02  0.1652944E+00
         21   -1    0    0  503  501  0.00000000000E+00  0.00000000000E+00  0.34490727200E+01  0.34490727200E+01  0.00000000000E+00 0. -1.
         21   -1    0    0  501  502 -0.00000000000E+00 -0.00000000000E+00 -0.91026602230E+03  0.91026602230E+03  0.00000000000E+00 0. -1.
         21    1    1    2  503  504  0.13990593256E+02  0.21403235148E+02 -0.46896648512E+02  0.53414705991E+02  0.00000000000E+00 0. -1.
         21    1    1    2  504  502 -0.13990593256E+02 -0.21403235148E+02 -0.85992030107E+03  0.86030038903E+03  0.00000000000E+00 0. -1.
<mgrwt>
<rscale>  2 0.25570201E+02</rscale>
<asrwt>0</asrwt>
<pdfrwt beam="1">  1       21 0.53062630E-03 0.25570201E+02</pdfrwt>
<pdfrwt beam="2">  1       21 0.14004100E+00 0.25570201E+02</pdfrwt>
<totfact> 0.33462024E+06</totfact>
</mgrwt>
</event>
<event>
 4    1  0.4438654E+006  0.2186542E+02  0.7546771E-02  0.1710590E+00
         21   -1    0    0  503  501  0.00000000000E+00  0.00000000000E+00  0.52686589754E+02  0.52686589754E+02  0.00000000000E+00 0. -1.
         21   -1    0    0  504  502 -0.00000000000E+00 -0.00000000000E+00 -0.17460250171E+03  0.17460250171E+03  0.00000000000E+00 0. -1.
         21    1    1    2  503  502 -0.14448558589E+02 -0.16411457058E+02  0.49694050519E+02  0.54291762037E+02  0.00000000000E+00 0. -1.
         21    1    1    2  504  501  0.14448558589E+02  0.16411457058E+02 -0.17160996248E+03  0.17299732943E+03  0.00000000000E+00 0. -1.
<mgrwt>
<rscale>  2 0.21865424E+02</rscale>
<asrwt>0</asrwt>
<pdfrwt beam="1">  1       21 0.81056291E-02 0.21865424E+02</pdfrwt>
<pdfrwt beam="2">  1       21 0.26861924E-01 0.21865424E+02</pdfrwt>
<totfact> 0.13933111E+06</totfact>
</mgrwt>
</event>
<event>
 4    1  0.4438654E+006  0.2195374E+02  0.7546771E-02  0.1709053E+00
         21   -1    0    0  504  501  0.00000000000E+00  0.00000000000E+00  0.13954043521E+03  0.13954043521E+03  0.00000000000E+00 0. -1.
         21   -1    0    0  503  502 -0.00000000000E+00 -0.00000000000E+00 -0.44683649854E+01  0.44683649854E+01  0.00000000000E+00 0.  1.
         21    1    1    2  503  501  0.10225650404E+02  0.19426855689E+02  0.10184369285E+03  0.10418303327E+03  0.00000000000E+00 0. -1.
         21    1    1    2  504  502 -0.10225650404E+02 -0.19426855689E+02  0.33228377371E+02  0.39825766921E+02  0.00000000000E+00 0.  1.
<mgrwt>
<rscale>  2 0.21953739E+02</rscale>
<asrwt>0</asrwt>
<pdfrwt beam="1">  1       21 0.21467756E-01 0.21953739E+02</pdfrwt>
<pdfrwt beam="2">  1       21 0.68744087E-03 0.21953739E+02</pdfrwt>
<totfact> 0.94049519E+07</totfact>
</mgrwt>
</event>
<event>
 4    1  0.4438654E+006  0.3182542E+02  0.7546771E-02  0.1578745E+00
         21   -1    0    0  504  501  0.00000000000E+00  0.00000000000E+00  0.44376918263E+02  0.44376918263E+02  0.00000000000E+00 0.  1.
         21   -1    0    0  503  502 -0.00000000000E+00 -0.00000000000E+00 -0.43036339967E+02  0.43036339967E+02  0.00000000000E+00 0. -1.
         21    1    1    2  503  501 -0.28883779798E+02 -0.13363559911E+02  0.30623146836E+02  0.44165989076E+02  0.00000000000E+00 0.  1.
         21    1    1    2  504  502  0.28883779798E+02  0.13363559911E+02 -0.29282568540E+02  0.43247269154E+02  0.00000000000E+00 0. -1.
<mgrwt>
<rscale>  2 0.31825422E+02</rscale>
<asrwt>0</asrwt>
<pdfrwt beam="1">  1       21 0.68272182E-02 0.31825422E+02</pdfrwt>
<pdfrwt beam="2">  1       21 0.66209754E-02 0.31825422E+02</pdfrwt>
<totfact> 0.21187555E+07</totfact>
</mgrwt>
</event>
<event>
 4    1  0.4438654E+006  0.4319790E+02  0.7546771E-02  0.1485916E+00
         21   -1    0    0  504  501  0.00000000000E+00  0.00000000000E+00  0.11603648158E+02  0.11603648158E+02  0.00000000000E+00 0.  1.
         21   -1    0    0  501  502 -0.00000000000E+00 -0.00000000000E+00 -0.18594822132E+03  0.18594822132E+03  0.00000000000E+00 0.  1.
         21    1    1    2  503  502 -0.13224712916E+02  0.41123778010E+02 -0.12348562716E+03  0.13082338577E+03  0.00000000000E+00 0.  1.
         21    1    1    2  504  503  0.13224712916E+02 -0.41123778010E+02 -0.50858946001E+02  0.66728483707E+02  0.00000000000E+00 0.  1.
<mgrwt>
<rscale>  2 0.43197895E+02</rscale>
<asrwt>0</asrwt>
<pdfrwt beam="1">  1       21 0.17851766E-02 0.43197895E+02</pdfrwt>
<pdfrwt beam="2">  1       21 0.28607419E-01 0.43197895E+02</pdfrwt>
<totfact> 0.15056197E+07</totfact>
</mgrwt>
</event>
<event>
 4    1  0.4438654E+006  0.2018101E+02  0.7546771E-02  0.1741752E+00
         21   -1    0    0  504  501  0.00000000000E+00  0.00000000000E+00  0.94914961395E+02  0.94914961395E+02  0.00000000000E+00 0. -1.
         21   -1    0    0  503  502 -0.00000000000E+00 -0.00000000000E+00 -0.74184464120E+01  0.74184464120E+01  0.00000000000E+00 0.  1.
         21    1    1    2  503  501  0.17118877402E+02  0.10687250854E+02  0.10525867222E+02  0.22761089058E+02  0.00000000000E+00 0.  1.
         21    1    1    2  504  502 -0.17118877402E+02 -0.10687250854E+02  0.76970647761E+02  0.79572318749E+02  0.00000000000E+00 0. -1.
<mgrwt>
<rscale>  2 0.20181013E+02</rscale>
<asrwt>0</asrwt>
<pdfrwt beam="1">  1       21 0.14602301E-01 0.20181013E+02</pdfrwt>
<pdfrwt beam="2">  1       21 0.11412995E-02 0.20181013E+02</pdfrwt>
<totfact> 0.83640213E+07</totfact>
</mgrwt>
</event>
<event>
 4    1  0.4438654E+006  0.2172013E+02  0.7546771E-02  0.1713138E+00
         21   -1    0    0  503  501  0.00000000000E+00  0.00000000000E+00  0.43494492209E+02  0.43494492209E+02  0.00000000000E+00 0. -1.
         21   -1    0    0  504  502 -0.00000000000E+00 -0.00000000000E+00 -0.25972387981E+02  0.25972387981E+02  0.00000000000E+00 0. -1.
         21    1    1    2  503  502 -0.18513900774E+02  0.11357793453E+02  0.35267526927E+02  0.41419348734E+02  0.00000000000E+00 0. -1.
         21    1    1    2  504  501  0.18513900774E+02 -0.11357793453E+02 -0.17745422699E+02  0.28047531456E+02  0.00000000000E+00 0. -1.
<mgrwt>
<rscale>  2 0.21720129E+02</rscale>
<asrwt>0</asrwt>
<pdfrwt beam="1">  1       21 0.66914603E-02 0.21720129E+02</pdfrwt>
<pdfrwt beam="2">  1       21 0.39957520E-02 0.21720129E+02</pdfrwt>
<totfact> 0.45178847E+07</totfact>
</mgrwt>
</event>
<event>
 4    1  0.4438654E+006  0.2241128E+02  0.7546771E-02  0.1701235E+00
         21   -1    0    0  504  501  0.00000000000E+00  0.00000000000E+00  0.23111883173E+02  0.23111883173E+02  0.00000000000E+00 0.  1.
         21   -1    0    0  503  502 -0.00000000000E+00 -0.00000000000E+00 -0.21750857220E+02  0.21750857220E+02  0.00000000000E+00 0.  1.
         21    1    1    2  503  501  0.20892179085E+02 -0.81106191865E+01  0.13426186856E+01  0.22451456867E+02  0.00000000000E+00 0.  1.
         21    1    1    2  504  502 -0.20892179085E+02  0.81106191865E+01  0.18407267237E-01  0.22411283527E+02  0.00000000000E+00 0.  1.
<mgrwt>
<rscale>  2 0.22411276E+02</rscale>
<asrwt>0</asrwt>
<pdfrwt beam="1">  1       21 0.35556744E-02 0.22411276E+02</pdfrwt>
<pdfrwt beam="2">  1       21 0.33462857E-02 0.22411276E+02</pdfrwt>
<totfact> 0.16428359E+08</totfact>
</mgrwt>
</event>
<event>
 4    1  0.4438654E+006  0.3629030E+02  0.7546771E-02  0.1537432E+00
         21   -1    0    0  502  501  0.00000000000E+00  0.00000000000E+00  0.42367720224E+02  0.42367720224E+02  0.00000000000E+00 0.  1.
         21   -1    0    0  504  502 -0.00000000000E+00 -0.00000000000E+00 -0.36616652391E+02  0.36616652391E+02  0.00000000000E+00 0.  1.
         21    1    1    2  503  501  0.50640993364E+01 -0.35935235239E+02  0.18225682870E+02  0.40609872566E+02  0.00000000000E+00 0.  1.
         21    1    1    2  504  503 -0.50640993364E+01  0.35935235239E+02 -0.12474615036E+02  0.38374500049E+02  0.00000000000E+00 0.  1.
<mgrwt>
<rscale>  2 0.36290305E+02</rscale>
<asrwt>0</asrwt>
<pdfrwt beam="1">  1       21 0.65181108E-02 0.36290305E+02</pdfrwt>
<pdfrwt beam="2">  1       21 0.56333311E-02 0.36290305E+02</pdfrwt>
<totfact> 0.30490934E+07</totfact>
</mgrwt>
</event>
<event>
 4    1  0.4438654E+006  0.2133046E+02  0.7546771E-02  0.1720095E+00
         21   -1    0    0  504  501  0.00000000000E+00  0.00000000000E+00  0.34083159160E+01  0.34083159160E+01  0.00000000000E+00 0. -1.
         21   -1    0    0  503  502 -0.00000000000E+00 -0.00000000000E+00 -0.13110229459E+04  0.13110229459E+04  0.00000000000E+00 0. -1.
         21    1    1    2  503  501  0.19313618417E+02  0.90538797082E+01 -0.12766646662E+04  0.12768428480E+04  0.00000000000E+00 0. -1.
         21    1    1    2  504  502 -0.19313618417E+02 -0.90538797082E+01 -0.30949963786E+02  0.37588413806E+02  0.00000000000E+00 0. -1.
<mgrwt>
<rscale>  2 0.21330462E+02</rscale>
<asrwt>0</asrwt>
<pdfrwt beam="1">  1       21 0.52435581E-03 0.21330462E+02</pdfrwt>
<pdfrwt beam="2">  1       21 0.20169603E+00 0.21330462E+02</pdfrwt>
<totfact> 0.13732489E+06</totfact>
</mgrwt>
</event>
<event>
 4    1  0.4438654E+006  0.2525299E+02  0.7546771E-02  0.1657394E+00
         21   -1    0    0  502  501  0.00000000000E+00  0.00000000000E+00  0.39308052555E+03  0.39308052555E+03  0.00000000000E+00 0. -1.
         21   -1    0    0  504  502 -0.00000000000E+00 -0.00000000000E+00 -0.24084124374E+01  0.24084124374E+01  0.00000000000E+00 0.  1.
         21    1    1    2  503  501  0.49059647738E+01  0.24771860825E+02  0.30830728881E+03  0.30933977744E+03  0.00000000000E+00 0. -1.
         21    1    1    2  504  503 -0.49059647738E+01 -0.24771860825E+02  0.82364824312E+02  0.86149160547E+02  0.00000000000E+00 0.  1.
<mgrwt>
<rscale>  2 0.25252991E+02</rscale>
<asrwt>0</asrwt>
<pdfrwt beam="1">  1       21 0.60473876E-01 0.25252991E+02</pdfrwt>
<pdfrwt beam="2">  1       21 0.37052530E-03 0.25252991E+02</pdfrwt>
<totfact> 0.35030233E+07</totfact>
</mgrwt>
</event>
<event>
 4    1  0.4438654E+006  0.2526445E+02  0.7546771E-02  0.1657232E+00
         21   -1    0    0  504  501  0.00000000000E+00  0.00000000000E+00  0.74054089997E+02  0.74054089997E+02  0.00000000000E+00 0.  1.
         21   -1    0    0  503  502 -0.00000000000E+00 -0.00000000000E+00 -0.90848815076E+01  0.90848815076E+01  0.00000000000E+00 0.  1.
         21    1    1    2  503  501 -0.18711875648E+02 -0.16975223074E+02  0.41895371436E+02  0.48923559115E+02  0.00000000000E+00 0.  1.
         21    1    1    2  504  502  0.18711875648E+02  0.16975223074E+02  0.23073837053E+02  0.34215412389E+02  0.00000000000E+00 0.  1.
<mgrwt>
<rscale>  2 0.25264451E+02</rscale>
<asrwt>0</asrwt>
<pdfrwt beam="1">  1       21 0.11392937E-01 0.25264451E+02</pdfrwt>
<pdfrwt beam="2">  1       21 0.13976741E-02 0.25264451E+02</pdfrwt>
<totfact> 0.99505191E+07</totfact>
</mgrwt>
</event>
<event>
 4    1  0.4438654E+006  0.5162555E+02  0.7546771E-02  0.1436766E+00
         21   -1    0    0  502  501  0.00000000000E+00  0.00000000000E+00  0.20695391183E+02  0.20695391183E+02  0.00000000000E+00 0.  1.
         21   -1    0    0  503  502 -0.00000000000E+00 -0.00000000000E+00 -0.13713581816E+03  0.13713581816E+03  0.00000000000E+00 0.  1.
         21    1    1    2  503  504  0.15729480414E+02 -0.49170940072E+02 -0.77697339727E+02  0.93284910368E+02  0.00000000000E+00 0.  1.
         21    1    1    2  504  501 -0.15729480414E+02  0.49170940072E+02 -0.38743087251E+02  0.64546298975E+02  0.00000000000E+00 0.  1.
<mgrwt>
<rscale>  2 0.51625555E+02</rscale>
<asrwt>0</asrwt>
<pdfrwt beam="1">  1       21 0.31839064E-02 0.51625555E+02</pdfrwt>
<pdfrwt beam="2">  1       21 0.21097818E-01 0.51625555E+02</pdfrwt>
<totfact> 0.10767079E+07</totfact>
</mgrwt>
</event>
<event>
 4    1  0.4438654E+006  0.2128771E+02  0.7546771E-02  0.1720870E+00
         21   -1    0    0  504  501  0.00000000000E+00  0.00000000000E+00  0.51848676375E+02  0.51848676375E+02  0.00000000000E+00 0.  1.
         21   -1    0    0  503  502 -0.00000000000E+00 -0.00000000000E+00 -0.12530250589E+02  0.12530250589E+02  0.00000000000E+00 0. -1.
         21    1    1    2  503  501  0.19481808059E+02 -0.85805547843E+01  0.19557792388E+01  0.21377367426E+02  0.00000000000E+00 0. -1.
         21    1    1    2  504  502 -0.19481808059E+02  0.85805547843E+01  0.37362646548E+02  0.43001559538E+02  0.00000000000E+00 0.  1.
<mgrwt>
<rscale>  2 0.21287714E+02</rscale>
<asrwt>0</asrwt>
<pdfrwt beam="1">  1       21 0.79767193E-02 0.21287714E+02</pdfrwt>
<pdfrwt beam="2">  1       21 0.19277309E-02 0.21287714E+02</pdfrwt>
<totfact> 0.10455633E+08</totfact>
</mgrwt>
</event>
<event>
 4    1  0.4438654E+006  0.2139879E+02  0.7546771E-02  0.1718862E+00
         21   -1    0    0  504  501  0.00000000000E+00  0.00000000000E+00  0.12335330227E+03  0.12335330227E+03  0.00000000000E+00 0. -1.
         21   -1    0    0  503  502 -0.00000000000E+00 -0.00000000000E+00 -0.47148150145E+01  0.47148150145E+01  0.00000000000E+00 0.  1.
         21    1    1    2  503  501  0.18951018927E+02 -0.99381668895E+01  0.88848503418E+02  0.91389084902E+02  0.00000000000E+00 0. -1.
         21    1    1    2  504  502 -0.18951018927E+02  0.99381668895E+01  0.29789983837E+02  0.36679032382E+02  0.00000000000E+00 0.  1.
<mgrwt>
<rscale>  2 0.21398792E+02</rscale>
<asrwt>0</asrwt>
<pdfrwt beam="1">  1       21 0.18977429E-01 0.21398792E+02</pdfrwt>
<pdfrwt beam="2">  1       21 0.72535625E-03 0.21398792E+02</pdfrwt>
<totfact> 0.10688039E+08</totfact>
</mgrwt>
</event>
<event>
 4    1  0.4438654E+006  0.2925024E+02  0.7546771E-02  0.1606527E+00
         21   -1    0    0  504  501  0.00000000000E+00  0.00000000000E+00  0.61176827429E+02  0.61176827429E+02  0.00000000000E+00 0.  1.
         21   -1    0    0  503  502 -0.00000000000E+00 -0.00000000000E+00 -0.15034886676E+02  0.15034886676E+02  0.00000000000E+00 0.  1.
         21    1    1    2  503  501  0.40571870211E+01 -0.28967496090E+02  0.13002818574E+02  0.32010152876E+02  0.00000000000E+00 0.  1.
         21    1    1    2  504  502 -0.40571870211E+01  0.28967496090E+02  0.33139122179E+02  0.44201561229E+02  0.00000000000E+00 0.  1.
<mgrwt>
<rscale>  2 0.29250241E+02</rscale>
<asrwt>0</asrwt>
<pdfrwt beam="1">  1       21 0.94118195E-02 0.29250241E+02</pdfrwt>
<pdfrwt beam="2">  1       21 0.23130595E-02 0.29250241E+02</pdfrwt>
<totfact> 0.65427121E+07</totfact>
</mgrwt>
</event>
<event>
 4    1  0.4438654E+006  0.2452223E+02  0.7546771E-02  0.1667961E+00
         21   -1    0    0  504  501  0.00000000000E+00  0.00000000000E+00  0.13787259457E+01  0.13787259457E+01  0.00000000000E+00 0.  1.
         21   -1    0    0  501  502 -0.00000000000E+00 -0.00000000000E+00 -0.78916743600E+03  0.78916743600E+03  0.00000000000E+00 0.  1.
         21    1    1    2  503  502 -0.23657134333E+02 -0.64559722412E+01 -0.65826123959E+03  0.65871784485E+03  0.00000000000E+00 0.  1.
         21    1    1    2  504  503  0.23657134333E+02  0.64559722412E+01 -0.12952747047E+03  0.13182831709E+03  0.00000000000E+00 0.  1.
<mgrwt>
<rscale>  2 0.24522226E+02</rscale>
<asrwt>0</asrwt>
<pdfrwt beam="1">  1       21 0.21211190E-03 0.24522226E+02</pdfrwt>
<pdfrwt beam="2">  1       21 0.12141025E+00 0.24522226E+02</pdfrwt>
<totfact> 0.17740905E+07</totfact>
</mgrwt>
</event>
<event>
 4    1  0.4438654E+006  0.3355647E+02  0.7546771E-02  0.1561806E+00
         21   -1    0    0  504  501  0.00000000000E+00  0.00000000000E+00  0.24333010753E+02  0.24333010753E+02  0.00000000000E+00 0. -1.
         21   -1    0    0  503  502 -0.00000000000E+00 -0.00000000000E+00 -0.12025239095E+03  0.12025239095E+03  0.00000000000E+00 0. -1.
         21    1    1    2  503  501  0.17328964987E+02  0.28735761442E+02  0.87417181881E+01  0.34676427873E+02  0.00000000000E+00 0. -1.
         21    1    1    2  504  502 -0.17328964987E+02 -0.28735761442E+02 -0.10466109839E+03  0.10990897383E+03  0.00000000000E+00 0. -1.
<mgrwt>
<rscale>  2 0.33556475E+02</rscale>
<asrwt>0</asrwt>
<pdfrwt beam="1">  1       21 0.37435400E-02 0.33556475E+02</pdfrwt>
<pdfrwt beam="2">  1       21 0.18500368E-01 0.33556475E+02</pdfrwt>
<totfact> 0.99201899E+06</totfact>
</mgrwt>
</event>
<event>
 4    1  0.4438654E+006  0.5309839E+02  0.7546771E-02  0.1429312E+00
         21   -1    0    0  503  501  0.00000000000E+00  0.00000000000E+00  0.88841778942E+02  0.88841778942E+02  0.00000000000E+00 0. -1.
         21   -1    0    0  504  502 -0.00000000000E+00 -0.00000000000E+00 -0.30747776961E+03  0.30747776961E+03  0.00000000000E+00 0.  1.
         21    1    1    2  503  502 -0.57751084796E+01 -0.52783402876E+02 -0.29697306422E+03  0.30168268159E+03  0.00000000000E+00 0.  1.
         21    1    1    2  504  501  0.57751084796E+01  0.52783402876E+02  0.78337073549E+02  0.94636866968E+02  0.00000000000E+00 0. -1.
<mgrwt>
<rscale>  2 0.53098394E+02</rscale>
<asrwt>0</asrwt>
<pdfrwt beam="1">  1       21 0.13667966E-01 0.53098394E+02</pdfrwt>
<pdfrwt beam="2">  1       21 0.47304272E-01 0.53098394E+02</pdfrwt>
<totfact> 0.20651467E+05</totfact>
</mgrwt>
</event>
<event>
 4    1  0.4438654E+006  0.2387737E+02  0.7546771E-02  0.1677671E+00
         21   -1    0    0  503  501  0.00000000000E+00  0.00000000000E+00  0.38785596599E+03  0.38785596599E+03  0.00000000000E+00 0.  1.
         21   -1    0    0  501  502 -0.00000000000E+00 -0.00000000000E+00 -0.29174251070E+01  0.29174251070E+01  0.00000000000E+00 0.  1.
         21    1    1    2  503  504 -0.23237174720E+02 -0.54920405715E+01  0.33009534161E+03  0.33095779694E+03  0.00000000000E+00 0.  1.
         21    1    1    2  504  502  0.23237174720E+02  0.54920405715E+01  0.54843199273E+02  0.59815594163E+02  0.00000000000E+00 0.  1.
<mgrwt>
<rscale>  2 0.23877370E+02</rscale>
<asrwt>0</asrwt>
<pdfrwt beam="1">  1       21 0.59670108E-01 0.23877370E+02</pdfrwt>
<pdfrwt beam="2">  1       21 0.44883494E-03 0.23877370E+02</pdfrwt>
<totfact> 0.26830428E+07</totfact>
</mgrwt>
</event>
<event>
 4    1  0.4438654E+006  0.3351384E+02  0.7546771E-02  0.1562208E+00
         21   -1    0    0  503  501  0.00000000000E+00  0.00000000000E+00  0.22867089985E+02  0.22867089985E+02  0.00000000000E+00 0. -1.
         21   -1    0    0  504  502 -0.00000000000E+00 -0.00000000000E+00 -0.12981217894E+03  0.12981217894E+03  0.00000000000E+00 0.  1.
         21    1    1    2  503  502 -0.25073021671E+02 -0.22237822288E+02  0.67160869238E+01  0.34180154760E+02  0.00000000000E+00 0. -1.
         21    1    1    2  504  501  0.25073021671E+02  0.22237822288E+02 -0.11366117588E+03  0.11849911416E+03  0.00000000000E+00 0.  1.
<mgrwt>
<rscale>  2 0.33513835E+02</rscale>
<asrwt>0</asrwt>
<pdfrwt beam="1">  1       21 0.35180138E-02 0.33513835E+02</pdfrwt>
<pdfrwt beam="2">  1       21 0.19971105E-01 0.33513835E+02</pdfrwt>
<totfact> 0.95658555E+06</totfact>
</mgrwt>
</event>
<event>
 4    1  0.4438654E+006  0.2181123E+02  0.7546771E-02  0.1711537E+00
         21   -1    0    0  503  501  0.00000000000E+00  0.00000000000E+00  0.80937007804E+00  0.80937007804E+00  0.00000000000E+00 0.  1.
         21   -1    0    0  504  502 -0.00000000000E+00 -0.00000000000E+00 -0.68765469329E+03  0.68765469329E+03  0.00000000000E+00 0.  1.
         21    1    1    2  503  502  0.97099637157E+01  0.19530646953E+02 -0.21223314886E+03  0.21335097619E+03  0.00000000000E+00 0.  1.
         21    1    1    2  504  501 -0.97099637157E+01 -0.19530646953E+02 -0.47461217435E+03  0.47511308718E+03  0.00000000000E+00 0.  1.
<mgrwt>
<rscale>  2 0.21811226E+02</rscale>
<asrwt>0</asrwt>
<pdfrwt beam="1">  1       21 0.12451838E-03 0.21811226E+02</pdfrwt>
<pdfrwt beam="2">  1       21 0.10579311E+00 0.21811226E+02</pdfrwt>
<totfact> 0.50756414E+07</totfact>
</mgrwt>
</event>
<event>
 4    1  0.4438654E+006  0.2987061E+02  0.7546771E-02  0.1599523E+00
         21   -1    0    0  504  501  0.00000000000E+00  0.00000000000E+00  0.15703619255E+02  0.15703619255E+02  0.00000000000E+00 0. -1.
         21   -1    0    0  503  502 -0.00000000000E+00 -0.00000000000E+00 -0.12168614527E+03  0.12168614527E+03  0.00000000000E+00 0.  1.
         21    1    1    2  503  501 -0.29774404829E+02  0.23955041248E+01 -0.28357809174E+01  0.30004920869E+02  0.00000000000E+00 0. -1.
         21    1    1    2  504  502  0.29774404829E+02 -0.23955041248E+01 -0.10314674510E+03  0.10738484366E+03  0.00000000000E+00 0.  1.
<mgrwt>
<rscale>  2 0.29870615E+02</rscale>
<asrwt>0</asrwt>
<pdfrwt beam="1">  1       21 0.24159415E-02 0.29870615E+02</pdfrwt>
<pdfrwt beam="2">  1       21 0.18720945E-01 0.29870615E+02</pdfrwt>
<totfact> 0.19005019E+07</totfact>
</mgrwt>
</event>
<event>
 4    1  0.4438654E+006  0.2068923E+02  0.7546771E-02  0.1731959E+00
         21   -1    0    0  504  501  0.00000000000E+00  0.00000000000E+00  0.45859873769E+00  0.45859873769E+00  0.00000000000E+00 0.  1.
         21   -1    0    0  501  502 -0.00000000000E+00 -0.00000000000E+00 -0.10004208763E+04  0.10004208763E+04  0.00000000000E+00 0. -1.
         21    1    1    2  503  502 -0.19077387239E+02 -0.80061003038E+01 -0.62953436180E+03  0.62987423906E+03  0.00000000000E+00 0. -1.
         21    1    1    2  504  503  0.19077387239E+02  0.80061003038E+01 -0.37042791572E+03  0.37100523594E+03  0.00000000000E+00 0.  1.
<mgrwt>
<rscale>  2 0.20689233E+02</rscale>
<asrwt>0</asrwt>
<pdfrwt beam="1">  1       21 0.70553260E-04 0.20689233E+02</pdfrwt>
<pdfrwt beam="2">  1       21 0.15391176E+00 0.20689233E+02</pdfrwt>
<totfact> 0.47721023E+07</totfact>
</mgrwt>
</event>
<event>
 4    1  0.4438654E+006  0.2331691E+02  0.7546771E-02  0.1686424E+00
         21   -1    0    0  503  501  0.00000000000E+00  0.00000000000E+00  0.10835928737E+03  0.10835928737E+03  0.00000000000E+00 0.  1.
         21   -1    0    0  504  502 -0.00000000000E+00 -0.00000000000E+00 -0.18201681010E+02  0.18201681010E+02  0.00000000000E+00 0. -1.
         21    1    1    2  503  502 -0.20796032990E+02 -0.10545288165E+02  0.98935888571E+02  0.10164638773E+03  0.00000000000E+00 0.  1.
         21    1    1    2  504  501  0.20796032990E+02  0.10545288165E+02 -0.87782822103E+01  0.24914580654E+02  0.00000000000E+00 0. -1.
<mgrwt>
<rscale>  2 0.23316906E+02</rscale>
<asrwt>0</asrwt>
<pdfrwt beam="1">  1       21 0.16670659E-01 0.23316906E+02</pdfrwt>
<pdfrwt beam="2">  1       21 0.28002587E-02 0.23316906E+02</pdfrwt>
<totfact> 0.17588766E+07</totfact>
</mgrwt>
</event>
<event>
 4    1  0.4438654E+006  0.2267125E+02  0.7546771E-02  0.1696895E+00
         21   -1    0    0  503  501  0.00000000000E+00  0.00000000000E+00  0.37553893000E+01  0.37553893000E+01  0.00000000000E+00 0. -1.
         21   -1    0    0  504  502 -0.00000000000E+00 -0.00000000000E+00 -0.10950977148E+04  0.10950977148E+04  0.00000000000E+00 0. -1.
         21    1    1    2  503  502  0.22394486136E+02 -0.35316561275E+01 -0.31724029483E+02  0.38992302458E+02  0.00000000000E+00 0. -1.
         21    1    1    2  504  501 -0.22394486136E+02  0.35316561275E+01 -0.10596182960E+04  0.10598608016E+04  0.00000000000E+00 0. -1.
<mgrwt>
<rscale>  2 0.22671251E+02</rscale>
<asrwt>0</asrwt>
<pdfrwt beam="1">  1       21 0.57775194E-03 0.22671251E+02</pdfrwt>
<pdfrwt beam="2">  1       21 0.16847665E+00 0.22671251E+02</pdfrwt>
<totfact> 0.18744582E+06</totfact>
</mgrwt>
</event>
<event>
 4    1  0.4438654E+006  0.2897598E+02  0.7546771E-02  0.1609692E+00
         21   -1    0    0  503  501  0.00000000000E+00  0.00000000000E+00  0.93167402697E+00  0.93167402697E+00  0.00000000000E+00 0. -1.
         21   -1    0    0  504  502 -0.00000000000E+00 -0.00000000000E+00 -0.97495510396E+03  0.97495510396E+03  0.00000000000E+00 0. -1.
         21    1    1    2  503  502 -0.19624212510E+02 -0.21318949173E+02 -0.62123501228E+03  0.62191040174E+03  0.00000000000E+00 0. -1.
         21    1    1    2  504  501  0.19624212510E+02  0.21318949173E+02 -0.35278841765E+03  0.35397637625E+03  0.00000000000E+00 0. -1.
<mgrwt>
<rscale>  2 0.28975978E+02</rscale>
<asrwt>0</asrwt>
<pdfrwt beam="1">  1       21 0.14333307E-03 0.28975978E+02</pdfrwt>
<pdfrwt beam="2">  1       21 0.14999456E+00 0.28975978E+02</pdfrwt>
<totfact> 0.19576607E+07</totfact>
</mgrwt>
</event>
<event>
 4    1  0.4438654E+006  0.2066742E+02  0.7546771E-02  0.1732372E+00
         21   -1    0    0  503  501  0.00000000000E+00  0.00000000000E+00  0.13868974103E+03  0.13868974103E+03  0.00000000000E+00 0. -1.
         21   -1    0    0  504  502 -0.00000000000E+00 -0.00000000000E+00 -0.34387198632E+02  0.34387198632E+02  0.00000000000E+00 0. -1.
         21    1    1    2  503  502  0.19278278702E+02  0.74491659449E+01  0.13472350482E+03  0.13629954092E+03  0.00000000000E+00 0. -1.
         21    1    1    2  504  501 -0.19278278702E+02 -0.74491659449E+01 -0.30420962428E+02  0.36777398740E+02  0.00000000000E+00 0. -1.
<mgrwt>
<rscale>  2 0.20667416E+02</rscale>
<asrwt>0</asrwt>
<pdfrwt beam="1">  1       21 0.21336883E-01 0.20667416E+02</pdfrwt>
<pdfrwt beam="2">  1       21 0.52903383E-02 0.20667416E+02</pdfrwt>
<totfact> 0.41282003E+06</totfact>
</mgrwt>
</event>
<event>
 4    1  0.4438654E+006  0.3401779E+02  0.7546771E-02  0.1557500E+00
         21   -1    0    0  502  501  0.00000000000E+00  0.00000000000E+00  0.21080446582E+03  0.21080446582E+03  0.00000000000E+00 0. -1.
         21   -1    0    0  504  502 -0.00000000000E+00 -0.00000000000E+00 -0.88173695021E+01  0.88173695021E+01  0.00000000000E+00 0. -1.
         21    1    1    2  503  501 -0.33598687187E+02 -0.53233458080E+01  0.16845560125E+03  0.17185604261E+03  0.00000000000E+00 0. -1.
         21    1    1    2  504  503  0.33598687187E+02  0.53233458080E+01  0.33531495067E+02  0.47765792705E+02  0.00000000000E+00 0. -1.
<mgrwt>
<rscale>  2 0.34017786E+02</rscale>
<asrwt>0</asrwt>
<pdfrwt beam="1">  1       21 0.32431453E-01 0.34017786E+02</pdfrwt>
<pdfrwt beam="2">  1       21 0.13565185E-02 0.34017786E+02</pdfrwt>
<totfact> 0.17595016E+07</totfact>
</mgrwt>
</event>
<event>
 4    1  0.4438654E+006  0.2473153E+02  0.7546771E-02  0.1664888E+00
         21   -1    0    0  503  501  0.00000000000E+00  0.00000000000E+00  0.45057512618E+03  0.45057512618E+03  0.00000000000E+00 0.  1.
         21   -1    0    0  504  502 -0.00000000000E+00 -0.00000000000E+00 -0.17324252741E+01  0.17324252741E+01  0.00000000000E+00 0. -1.
         21    1    1    2  503  502  0.18247928563E+02  0.16693159899E+02  0.32963165182E+03  0.33055812555E+03  0.00000000000E+00 0.  1.
         21    1    1    2  504  501 -0.18247928563E+02 -0.16693159899E+02  0.11921104908E+03  0.12174942590E+03  0.00000000000E+00 0. -1.
<mgrwt>
<rscale>  2 0.24731528E+02</rscale>
<asrwt>0</asrwt>
<pdfrwt beam="1">  1       21 0.69319157E-01 0.24731528E+02</pdfrwt>
<pdfrwt beam="2">  1       21 0.26652732E-03 0.24731528E+02</pdfrwt>
<totfact> 0.42795825E+07</totfact>
</mgrwt>
</event>
<event>
 4    1  0.4438654E+006  0.2519578E+02  0.7546771E-02  0.1658206E+00
         21   -1    0    0  503  501  0.00000000000E+00  0.00000000000E+00  0.64923393418E+02  0.64923393418E+02  0.00000000000E+00 0. -1.
         21   -1    0    0  504  502 -0.00000000000E+00 -0.00000000000E+00 -0.10801080901E+02  0.10801080901E+02  0.00000000000E+00 0.  1.
         21    1    1    2  503  502 -0.16692821790E+01 -0.25140420090E+02  0.38713334098E+02  0.46190361140E+02  0.00000000000E+00 0. -1.
         21    1    1    2  504  501  0.16692821790E+01  0.25140420090E+02  0.15408978419E+02  0.29534113178E+02  0.00000000000E+00 0.  1.
<mgrwt>
<rscale>  2 0.25195778E+02</rscale>
<asrwt>0</asrwt>
<pdfrwt beam="1">  1       21 0.99882142E-02 0.25195778E+02</pdfrwt>
<pdfrwt beam="2">  1       21 0.16617048E-02 0.25195778E+02</pdfrwt>
<totfact> 0.95095684E+07</totfact>
</mgrwt>
</event>
<event>
 4    1  0.4438654E+006  0.2529725E+02  0.7546771E-02  0.1656769E+00
         21   -1    0    0  502  501  0.00000000000E+00  0.00000000000E+00  0.80696197542E+03  0.80696197542E+03  0.00000000000E+00 0. -1.
         21   -1    0    0  504  502 -0.00000000000E+00 -0.00000000000E+00 -0.11223323860E+01  0.11223323860E+01  0.00000000000E+00 0. -1.
         21    1    1    2  503  501 -0.21054123272E+02 -0.14024071980E+02  0.62177597138E+03  0.62229037377E+03  0.00000000000E+00 0. -1.
         21    1    1    2  504  503  0.21054123272E+02  0.14024071980E+02  0.18406367165E+03  0.18579393403E+03  0.00000000000E+00 0. -1.
<mgrwt>
<rscale>  2 0.25297247E+02</rscale>
<asrwt>0</asrwt>
<pdfrwt beam="1">  1       21 0.12414753E+00 0.25297247E+02</pdfrwt>
<pdfrwt beam="2">  1       21 0.17266717E-03 0.25297247E+02</pdfrwt>
<totfact> 0.22821292E+07</totfact>
</mgrwt>
</event>
<event>
 4    1  0.4438654E+006  0.2088679E+02  0.7546771E-02  0.1728247E+00
         21   -1    0    0  503  501  0.00000000000E+00  0.00000000000E+00  0.54970905477E+03  0.54970905477E+03  0.00000000000E+00 0.  1.
         21   -1    0    0  501  502 -0.00000000000E+00 -0.00000000000E+00 -0.78112646593E+01  0.78112646593E+01  0.00000000000E+00 0.  1.
         21    1    1    2  503  504 -0.19393911185E+02  0.77546114595E+01  0.53516899059E+03  0.53557642431E+03  0.00000000000E+00 0.  1.
         21    1    1    2  504  502  0.19393911185E+02 -0.77546114595E+01  0.67287995212E+01  0.21943895118E+02  0.00000000000E+00 0.  1.
<mgrwt>
<rscale>  2 0.20886785E+02</rscale>
<asrwt>0</asrwt>
<pdfrwt beam="1">  1       21 0.84570593E-01 0.20886785E+02</pdfrwt>
<pdfrwt beam="2">  1       21 0.12017335E-02 0.20886785E+02</pdfrwt>
<totfact> 0.29588638E+06</totfact>
</mgrwt>
</event>
<event>
 4    1  0.4438654E+006  0.2172382E+02  0.7546771E-02  0.1713073E+00
         21   -1    0    0  504  501  0.00000000000E+00  0.00000000000E+00  0.14171577150E+03  0.14171577150E+03  0.00000000000E+00 0. -1.
         21   -1    0    0  501  502 -0.00000000000E+00 -0.00000000000E+00 -0.65959681304E+01  0.65959681304E+01  0.00000000000E+00 0.  1.
         21    1    1    2  503  502  0.20400324955E+02  0.74666741207E+01  0.15379539710E+02  0.26616812777E+02  0.00000000000E+00 0.  1.
         21    1    1    2  504  503 -0.20400324955E+02 -0.74666741207E+01  0.11974026366E+03  0.12169492686E+03  0.00000000000E+00 0. -1.
<mgrwt>
<rscale>  2 0.21723823E+02</rscale>
<asrwt>0</asrwt>
<pdfrwt beam="1">  1       21 0.21802424E-01 0.21723823E+02</pdfrwt>
<pdfrwt beam="2">  1       21 0.10147644E-02 0.21723823E+02</pdfrwt>
<totfact> 0.51055988E+07</totfact>
</mgrwt>
</event>
<event>
 4    1  0.4438654E+006  0.2865618E+02  0.7546771E-02  0.1613436E+00
         21   -1    0    0  502  501  0.00000000000E+00  0.00000000000E+00  0.24287184495E+03  0.24287184495E+03  0.00000000000E+00 0.  1.
         21   -1    0    0  503  502 -0.00000000000E+00 -0.00000000000E+00 -0.58427292411E+01  0.58427292411E+01  0.00000000000E+00 0. -1.
         21    1    1    2  503  504  0.28429347655E+02  0.35984203298E+01  0.37795925897E+02  0.47431091611E+02  0.00000000000E+00 0. -1.
         21    1    1    2  504  501 -0.28429347655E+02 -0.35984203298E+01  0.19923318981E+03  0.20128348258E+03  0.00000000000E+00 0.  1.
<mgrwt>
<rscale>  2 0.28656176E+02</rscale>
<asrwt>0</asrwt>
<pdfrwt beam="1">  1       21 0.37364891E-01 0.28656176E+02</pdfrwt>
<pdfrwt beam="2">  1       21 0.89888161E-03 0.28656176E+02</pdfrwt>
<totfact> 0.24494178E+07</totfact>
</mgrwt>
</event>
<event>
 4    1  0.4438654E+006  0.2011674E+02  0.7546771E-02  0.1743016E+00
         21   -1    0    0  504  501  0.00000000000E+00  0.00000000000E+00  0.11439468375E+03  0.11439468375E+03  0.00000000000E+00 0.  1.
         21   -1    0    0  501  502 -0.00000000000E+00 -0.00000000000E+00 -0.53422857086E+02  0.53422857086E+02  0.00000000000E+00 0.  1.
         21    1    1    2  503  502  0.88860907025E+00  0.20097106167E+02 -0.50597100637E+02  0.54449516943E+02  0.00000000000E+00 0.  1.
         21    1    1    2  504  503 -0.88860907025E+00 -0.20097106167E+02  0.11156892730E+03  0.11336802389E+03  0.00000000000E+00 0.  1.
<mgrwt>
<rscale>  2 0.20116742E+02</rscale>
<asrwt>0</asrwt>
<pdfrwt beam="1">  1       21 0.17599182E-01 0.20116742E+02</pdfrwt>
<pdfrwt beam="2">  1       21 0.82189011E-02 0.20116742E+02</pdfrwt>
<totfact> 0.28268951E+06</totfact>
</mgrwt>
</event>
<event>
 4    1  0.4438654E+006  0.3718569E+02  0.7546771E-02  0.1530006E+00
         21   -1    0    0  502  501  0.00000000000E+00  0.00000000000E+00  0.23022274048E+03  0.23022274048E+03  0.00000000000E+00 0. -1.
         21   -1    0    0  503  502 -0.00000000000E+00 -0.00000000000E+00 -0.16642810678E+02  0.16642810678E+02  0.00000000000E+00 0. -1.
         21    1    1    2  503  504  0.24776909484E+02  0.27728694707E+02  0.81125570977E+01  0.38060338102E+02  0.00000000000E+00 0. -1.
         21    1    1    2  504  501 -0.24776909484E+02 -0.27728694707E+02  0.20546737271E+03  0.20880521306E+03  0.00000000000E+00 0. -1.
<mgrwt>
<rscale>  2 0.37185693E+02</rscale>
<asrwt>0</asrwt>
<pdfrwt beam="1">  1       21 0.35418881E-01 0.37185693E+02</pdfrwt>
<pdfrwt beam="2">  1       21 0.25604326E-02 0.37185693E+02</pdfrwt>
<totfact> 0.56249280E+06</totfact>
</mgrwt>
</event>
<event>
 4    1  0.4438654E+006  0.2228776E+02  0.7546771E-02  0.1703322E+00
         21   -1    0    0  502  501  0.00000000000E+00  0.00000000000E+00  0.19152842429E+02  0.19152842429E+02  0.00000000000E+00 0.  1.
         21   -1    0    0  504  502 -0.00000000000E+00 -0.00000000000E+00 -0.26274986084E+02  0.26274986084E+02  0.00000000000E+00 0. -1.
         21    1    1    2  503  501 -0.22125543605E+02  0.26841089519E+01 -0.98032483575E+00  0.22309306521E+02  0.00000000000E+00 0. -1.
         21    1    1    2  504  503  0.22125543605E+02 -0.26841089519E+01 -0.61418188186E+01  0.23118521992E+02  0.00000000000E+00 0.  1.
<mgrwt>
<rscale>  2 0.22287757E+02</rscale>
<asrwt>0</asrwt>
<pdfrwt beam="1">  1       21 0.29465912E-02 0.22287757E+02</pdfrwt>
<pdfrwt beam="2">  1       21 0.40423055E-02 0.22287757E+02</pdfrwt>
<totfact> 0.16347864E+08</totfact>
</mgrwt>
</event>
<event>
 4    1  0.4438654E+006  0.2209229E+02  0.7546771E-02  0.1706661E+00
         21   -1    0    0  504  501  0.00000000000E+00  0.00000000000E+00  0.15596136360E+03  0.15596136360E+03  0.00000000000E+00 0. -1.
         21   -1    0    0  501  502 -0.00000000000E+00 -0.00000000000E+00 -0.26674719810E+02  0.26674719810E+02  0.00000000000E+00 0. -1.
         21    1    1    2  503  502  0.40862550611E+00 -0.22088510486E+02 -0.21151036313E+02  0.30584891816E+02  0.00000000000E+00 0. -1.
         21    1    1    2  504  503 -0.40862550611E+00  0.22088510486E+02  0.15043768010E+03  0.15205119159E+03  0.00000000000E+00 0. -1.
<mgrwt>
<rscale>  2 0.22092290E+02</rscale>
<asrwt>0</asrwt>
<pdfrwt beam="1">  1       21 0.23994055E-01 0.22092290E+02</pdfrwt>
<pdfrwt beam="2">  1       21 0.41038031E-02 0.22092290E+02</pdfrwt>
<totfact> 0.50731251E+06</totfact>
</mgrwt>
</event>
<event>
 4    1  0.4438654E+006  0.2897805E+02  0.7546771E-02  0.1609668E+00
         21   -1    0    0  503  501  0.00000000000E+00  0.00000000000E+00  0.35059927788E+03  0.35059927788E+03  0.00000000000E+00 0.  1.
         21   -1    0    0  501  502 -0.00000000000E+00 -0.00000000000E+00 -0.28348559492E+01  0.28348559492E+01  0.00000000000E+00 0.  1.
         21    1    1    2  503  504  0.22879045431E+02 -0.17784176840E+02  0.24348209681E+03  0.24520044684E+03  0.00000000000E+00 0.  1.
         21    1    1    2  504  502 -0.22879045431E+02  0.17784176840E+02  0.10428232512E+03  0.10823368699E+03  0.00000000000E+00 0.  1.
<mgrwt>
<rscale>  2 0.28978055E+02</rscale>
<asrwt>0</asrwt>
<pdfrwt beam="1">  1       21 0.53938316E-01 0.28978055E+02</pdfrwt>
<pdfrwt beam="2">  1       21 0.43613196E-03 0.28978055E+02</pdfrwt>
<totfact> 0.35579559E+07</totfact>
</mgrwt>
</event>
<event>
 4    1  0.4438654E+006  0.2279436E+02  0.7546771E-02  0.1694865E+00
         21   -1    0    0  503  501  0.00000000000E+00  0.00000000000E+00  0.12090944342E+03  0.12090944342E+03  0.00000000000E+00 0. -1.
         21   -1    0    0  504  502 -0.00000000000E+00 -0.00000000000E+00 -0.44032207151E+01  0.44032207151E+01  0.00000000000E+00 0. -1.
         21    1    1    2  503  502 -0.23065410347E+01  0.22677361600E+02  0.48534771721E+02  0.53620956041E+02  0.00000000000E+00 0. -1.
         21    1    1    2  504  501  0.23065410347E+01 -0.22677361600E+02  0.67971450984E+02  0.71691708095E+02  0.00000000000E+00 0. -1.
<mgrwt>
<rscale>  2 0.22794360E+02</rscale>
<asrwt>0</asrwt>
<pdfrwt beam="1">  1       21 0.18601450E-01 0.22794360E+02</pdfrwt>
<pdfrwt beam="2">  1       21 0.67741866E-03 0.22794360E+02</pdfrwt>
<totfact> 0.12470554E+08</totfact>
</mgrwt>
</event>
<event>
 4    1  0.4438654E+006  0.2274093E+02  0.7546771E-02  0.1695744E+00
         21   -1    0    0  504  501  0.00000000000E+00  0.00000000000E+00  0.19495049434E+02  0.19495049434E+02  0.00000000000E+00 0. -1.
         21   -1    0    0  503  502 -0.00000000000E+00 -0.00000000000E+00 -0.83875917578E+03  0.83875917578E+03  0.00000000000E+00 0. -1.
         21    1    1    2  503  501 -0.93441014387E+01  0.20732522008E+02  0.12654580122E+02  0.26024759338E+02  0.00000000000E+00 0. -1.
         21    1    1    2  504  502  0.93441014387E+01 -0.20732522008E+02 -0.83191870647E+03  0.83222946587E+03  0.00000000000E+00 0. -1.
<mgrwt>
<rscale>  2 0.22740926E+02</rscale>
<asrwt>0</asrwt>
<pdfrwt beam="1">  1       21 0.29992392E-02 0.22740926E+02</pdfrwt>
<pdfrwt beam="2">  1       21 0.12903984E+00 0.22740926E+02</pdfrwt>
<totfact> 0.29041754E+05</totfact>
</mgrwt>
</event>
<event>
 4    1  0.4438654E+006  0.4136591E+02  0.7546771E-02  0.1498394E+00
         21   -1    0    0  504  501  0.00000000000E+00  0.00000000000E+00  0.31970425185E+02  0.31970425185E+02  0.00000000000E+00 0.  1.
         21   -1    0    0  503  502 -0.00000000000E+00 -0.00000000000E+00 -0.54310409261E+02  0.54310409261E+02  0.00000000000E+00 0.  1.
         21    1    1    2  503  501  0.13752202850E+02 -0.39013014277E+02 -0.16366000319E+02  0.44485776746E+02  0.00000000000E+00 0.  1.
         21    1    1    2  504  502 -0.13752202850E+02  0.39013014277E+02 -0.59739837570E+01  0.41795057700E+02  0.00000000000E+00 0.  1.
<mgrwt>
<rscale>  2 0.41365908E+02</rscale>
<asrwt>0</asrwt>
<pdfrwt beam="1">  1       21 0.49185270E-02 0.41365908E+02</pdfrwt>
<pdfrwt beam="2">  1       21 0.83554474E-02 0.41365908E+02</pdfrwt>
<totfact> 0.25781141E+07</totfact>
</mgrwt>
</event>
<event>
 4    1  0.4438654E+006  0.2210812E+02  0.7546771E-02  0.1706389E+00
         21   -1    0    0  502  501  0.00000000000E+00  0.00000000000E+00  0.20897479390E+01  0.20897479390E+01  0.00000000000E+00 0.  1.
         21   -1    0    0  503  502 -0.00000000000E+00 -0.00000000000E+00 -0.24950560281E+03  0.24950560281E+03  0.00000000000E+00 0.  1.
         21    1    1    2  503  504 -0.20929237947E+02 -0.71229241633E+01 -0.15518003209E+03  0.15674696619E+03  0.00000000000E+00 0.  1.
         21    1    1    2  504  501  0.20929237947E+02  0.71229241633E+01 -0.92235822774E+02  0.94848384554E+02  0.00000000000E+00 0.  1.
<mgrwt>
<rscale>  2 0.22108122E+02</rscale>
<asrwt>0</asrwt>
<pdfrwt beam="1">  1       21 0.32149981E-03 0.22108122E+02</pdfrwt>
<pdfrwt beam="2">  1       21 0.38385462E-01 0.22108122E+02</pdfrwt>
<totfact> 0.10075131E+08</totfact>
</mgrwt>
</event>
<event>
 4    1  0.4438654E+006  0.3369403E+02  0.7546771E-02  0.1560513E+00
         21   -1    0    0  503  501  0.00000000000E+00  0.00000000000E+00  0.13245567095E+01  0.13245567095E+01  0.00000000000E+00 0.  1.
         21   -1    0    0  504  502 -0.00000000000E+00 -0.00000000000E+00 -0.10975433568E+04  0.10975433568E+04  0.00000000000E+00 0.  1.
         21    1    1    2  503  502 -0.30698565542E+02 -0.13888334432E+02 -0.80526979722E+03  0.80597440039E+03  0.00000000000E+00 0.  1.
         21    1    1    2  504  501  0.30698565542E+02  0.13888334432E+02 -0.29094900286E+03  0.29289351311E+03  0.00000000000E+00 0.  1.
<mgrwt>
<rscale>  2 0.33694032E+02</rscale>
<asrwt>0</asrwt>
<pdfrwt beam="1">  1       21 0.20377730E-03 0.33694032E+02</pdfrwt>
<pdfrwt beam="2">  1       21 0.16885336E+00 0.33694032E+02</pdfrwt>
<totfact> 0.89397274E+06</totfact>
</mgrwt>
</event>
<event>
 4    1  0.4438654E+006  0.2372452E+02  0.7546771E-02  0.1680028E+00
         21   -1    0    0  504  501  0.00000000000E+00  0.00000000000E+00  0.66200281927E+01  0.66200281927E+01  0.00000000000E+00 0. -1.
         21   -1    0    0  503  502 -0.00000000000E+00 -0.00000000000E+00 -0.18834102803E+03  0.18834102803E+03  0.00000000000E+00 0. -1.
         21    1    1    2  503  501  0.22323940230E+02  0.80308637801E+01 -0.16305996165E+03  0.16477683142E+03  0.00000000000E+00 0. -1.
         21    1    1    2  504  502 -0.22323940230E+02 -0.80308637801E+01 -0.18661038183E+02  0.30184224796E+02  0.00000000000E+00 0. -1.
<mgrwt>
<rscale>  2 0.23724525E+02</rscale>
<asrwt>0</asrwt>
<pdfrwt beam="1">  1       21 0.10184661E-02 0.23724525E+02</pdfrwt>
<pdfrwt beam="2">  1       21 0.28975536E-01 0.23724525E+02</pdfrwt>
<totfact> 0.31233419E+07</totfact>
</mgrwt>
</event>
<event>
 4    1  0.4438654E+006  0.4721317E+02  0.7546771E-02  0.1460980E+00
         21   -1    0    0  502  501  0.00000000000E+00  0.00000000000E+00  0.32557887813E+03  0.32557887813E+03  0.00000000000E+00 0. -1.
         21   -1    0    0  503  502 -0.00000000000E+00 -0.00000000000E+00 -0.98586215868E+01  0.98586215868E+01  0.00000000000E+00 0. -1.
         21    1    1    2  503  504 -0.12835611427E+02  0.45434908075E+02  0.65154095757E+02  0.80462040655E+02  0.00000000000E+00 0. -1.
         21    1    1    2  504  501  0.12835611427E+02 -0.45434908075E+02  0.25056616079E+03  0.25497545906E+03  0.00000000000E+00 0. -1.
<mgrwt>
<rscale>  2 0.47213174E+02</rscale>
<asrwt>0</asrwt>
<pdfrwt beam="1">  1       21 0.50089050E-01 0.47213174E+02</pdfrwt>
<pdfrwt beam="2">  1       21 0.15167113E-02 0.47213174E+02</pdfrwt>
<totfact> 0.66801681E+06</totfact>
</mgrwt>
</event>
<event>
 4    1  0.4438654E+006  0.3069502E+02  0.7546771E-02  0.1590531E+00
         21   -1    0    0  503  501  0.00000000000E+00  0.00000000000E+00  0.35986411091E+03  0.35986411091E+03  0.00000000000E+00 0.  1.
         21   -1    0    0  504  502 -0.00000000000E+00 -0.00000000000E+00 -0.28831838772E+01  0.28831838772E+01  0.00000000000E+00 0.  1.
         21    1    1    2  503  502 -0.12480553208E+02  0.28043186585E+02  0.12350164776E+03  0.12725895458E+03  0.00000000000E+00 0.  1.
         21    1    1    2  504  501  0.12480553208E+02 -0.28043186585E+02  0.23347927927E+03  0.23548834020E+03  0.00000000000E+00 0.  1.
<mgrwt>
<rscale>  2 0.30695024E+02</rscale>
<asrwt>0</asrwt>
<pdfrwt beam="1">  1       21 0.55363674E-01 0.30695024E+02</pdfrwt>
<pdfrwt beam="2">  1       21 0.44356704E-03 0.30695024E+02</pdfrwt>
<totfact> 0.33301368E+07</totfact>
</mgrwt>
</event>
<event>
 4    1  0.4438654E+006  0.3429433E+02  0.7546771E-02  0.1554958E+00
         21   -1    0    0  504  501  0.00000000000E+00  0.00000000000E+00  0.55381276731E+02  0.55381276731E+02  0.00000000000E+00 0.  1.
         21   -1    0    0  503  502 -0.00000000000E+00 -0.00000000000E+00 -0.12807325554E+03  0.12807325554E+03  0.00000000000E+00 0. -1.
         21    1    1    2  503  501 -0.24870435867E+02  0.23612767954E+02  0.47431951905E+02  0.58531115248E+02  0.00000000000E+00 0.  1.
         21    1    1    2  504  502  0.24870435867E+02 -0.23612767954E+02 -0.12012393071E+03  0.12492341702E+03  0.00000000000E+00 0. -1.
<mgrwt>
<rscale>  2 0.34294335E+02</rscale>
<asrwt>0</asrwt>
<pdfrwt beam="1">  1       21 0.85201964E-02 0.34294335E+02</pdfrwt>
<pdfrwt beam="2">  1       21 0.19703578E-01 0.34294335E+02</pdfrwt>
<totfact> 0.23368301E+06</totfact>
</mgrwt>
</event>
<event>
 4    1  0.4438654E+006  0.2313660E+02  0.7546771E-02  0.1689305E+00
         21   -1    0    0  502  501  0.00000000000E+00  0.00000000000E+00  0.17964353653E+02  0.17964353653E+02  0.00000000000E+00 0. -1.
         21   -1    0    0  504  502 -0.00000000000E+00 -0.00000000000E+00 -0.33955914642E+02  0.33955914642E+02  0.00000000000E+00 0. -1.
         21    1    1    2  503  501  0.22445016611E+02 -0.56145659183E+01  0.10884071477E+01  0.23162183646E+02  0.00000000000E+00 0. -1.
         21    1    1    2  504  503 -0.22445016611E+02  0.56145659183E+01 -0.17079968137E+02  0.28758084649E+02  0.00000000000E+00 0. -1.
<mgrwt>
<rscale>  2 0.23136597E+02</rscale>
<asrwt>0</asrwt>
<pdfrwt beam="1">  1       21 0.27637467E-02 0.23136597E+02</pdfrwt>
<pdfrwt beam="2">  1       21 0.52239868E-02 0.23136597E+02</pdfrwt>
<totfact> 0.12163846E+08</totfact>
</mgrwt>
</event>
<event>
 4    1  0.4438654E+006  0.3627122E+02  0.7546771E-02  0.1537593E+00
         21   -1    0    0  504  501  0.00000000000E+00  0.00000000000E+00  0.21560835312E+02  0.21560835312E+02  0.00000000000E+00 0.  1.
         21   -1    0    0  501  502 -0.00000000000E+00 -0.00000000000E+00 -0.10724321047E+03  0.10724321047E+03  0.00000000000E+00 0. -1.
         21    1    1    2  503  502  0.29494738841E+02  0.21110695768E+02 -0.85123001285E+02  0.92528516917E+02  0.00000000000E+00 0. -1.
         21    1    1    2  504  503 -0.29494738841E+02 -0.21110695768E+02 -0.55937387091E+00  0.36275528863E+02  0.00000000000E+00 0.  1.
<mgrwt>
<rscale>  2 0.36271216E+02</rscale>
<asrwt>0</asrwt>
<pdfrwt beam="1">  1       21 0.33170516E-02 0.36271216E+02</pdfrwt>
<pdfrwt beam="2">  1       21 0.16498956E-01 0.36271216E+02</pdfrwt>
<totfact> 0.14877019E+07</totfact>
</mgrwt>
</event>
<event>
 4    1  0.4438654E+006  0.2028543E+02  0.7546771E-02  0.1739711E+00
         21   -1    0    0  503  501  0.00000000000E+00  0.00000000000E+00  0.58780260036E+01  0.58780260036E+01  0.00000000000E+00 0.  1.
         21   -1    0    0  504  502 -0.00000000000E+00 -0.00000000000E+00 -0.73625600859E+02  0.73625600859E+02  0.00000000000E+00 0.  1.
         21    1    1    2  503  502  0.19092626859E+02 -0.68534856124E+01 -0.42687457010E+02  0.47262222243E+02  0.00000000000E+00 0.  1.
         21    1    1    2  504  501 -0.19092626859E+02  0.68534856124E+01 -0.25060117846E+02  0.32241404619E+02  0.00000000000E+00 0.  1.
<mgrwt>
<rscale>  2 0.20285430E+02</rscale>
<asrwt>0</asrwt>
<pdfrwt beam="1">  1       21 0.90431167E-03 0.20285430E+02</pdfrwt>
<pdfrwt beam="2">  1       21 0.11327016E-01 0.20285430E+02</pdfrwt>
<totfact> 0.18151508E+08</totfact>
</mgrwt>
</event>
<event>
 4    1  0.4438654E+006  0.2577272E+02  0.7546771E-02  0.1650145E+00
         21   -1    0    0  504  501  0.00000000000E+00  0.00000000000E+00  0.98444083395E+02  0.98444083395E+02  0.00000000000E+00 0.  1.
         21   -1    0    0  501  502 -0.00000000000E+00 -0.00000000000E+00 -0.89226837642E+01  0.89226837642E+01  0.00000000000E+00 0. -1.
         21    1    1    2  503  502 -0.92750686375E+01  0.24045923412E+02  0.18253827698E+02  0.31582203162E+02  0.00000000000E+00 0. -1.
         21    1    1    2  504  503  0.92750686375E+01 -0.24045923412E+02  0.71267571933E+02  0.75784563997E+02  0.00000000000E+00 0.  1.
<mgrwt>
<rscale>  2 0.25772725E+02</rscale>
<asrwt>0</asrwt>
<pdfrwt beam="1">  1       21 0.15145243E-01 0.25772725E+02</pdfrwt>
<pdfrwt beam="2">  1       21 0.13727206E-02 0.25772725E+02</pdfrwt>
<totfact> 0.63475621E+07</totfact>
</mgrwt>
</event>
<event>
 4    1  0.4438654E+006  0.4592455E+02  0.7546771E-02  0.1468651E+00
         21   -1    0    0  504  501  0.00000000000E+00  0.00000000000E+00  0.90155729631E+03  0.90155729631E+03  0.00000000000E+00 0. -1.
         21   -1    0    0  503  502 -0.00000000000E+00 -0.00000000000E+00 -0.18626772494E+02  0.18626772494E+02  0.00000000000E+00 0. -1.
         21    1    1    2  503  501 -0.23643899789E+02  0.39370418899E+02  0.87169656334E+03  0.87290547164E+03  0.00000000000E+00 0. -1.
         21    1    1    2  504  502  0.23643899789E+02 -0.39370418899E+02  0.11233960474E+02  0.47278597160E+02  0.00000000000E+00 0. -1.
<mgrwt>
<rscale>  2 0.45924546E+02</rscale>
<asrwt>0</asrwt>
<pdfrwt beam="1">  1       21 0.13870109E+00 0.45924546E+02</pdfrwt>
<pdfrwt beam="2">  1       21 0.28656580E-02 0.45924546E+02</pdfrwt>
<totfact> 0.26427468E+05</totfact>
</mgrwt>
</event>
<event>
 4    1  0.4438654E+006  0.2292471E+02  0.7546771E-02  0.1692734E+00
         21   -1    0    0  503  501  0.00000000000E+00  0.00000000000E+00  0.24477968887E+01  0.24477968887E+01  0.00000000000E+00 0. -1.
         21   -1    0    0  504  502 -0.00000000000E+00 -0.00000000000E+00 -0.30975936055E+03  0.30975936055E+03  0.00000000000E+00 0. -1.
         21    1    1    2  503  502  0.22094312071E+02  0.61142029907E+01 -0.67179306579E+02  0.70983105994E+02  0.00000000000E+00 0. -1.
         21    1    1    2  504  501 -0.22094312071E+02 -0.61142029907E+01 -0.24013225708E+03  0.24122405144E+03  0.00000000000E+00 0. -1.
<mgrwt>
<rscale>  2 0.22924705E+02</rscale>
<asrwt>0</asrwt>
<pdfrwt beam="1">  1       21 0.37658415E-03 0.22924705E+02</pdfrwt>
<pdfrwt beam="2">  1       21 0.47655284E-01 0.22924705E+02</pdfrwt>
<totfact> 0.53508090E+07</totfact>
</mgrwt>
</event>
<event>
 4    1  0.4438654E+006  0.2034490E+02  0.7546771E-02  0.1738555E+00
         21   -1    0    0  503  501  0.00000000000E+00  0.00000000000E+00  0.15439781024E+03  0.15439781024E+03  0.00000000000E+00 0. -1.
         21   -1    0    0  504  502 -0.00000000000E+00 -0.00000000000E+00 -0.81545530285E+01  0.81545530285E+01  0.00000000000E+00 0.  1.
         21    1    1    2  503  502 -0.20027804751E+02  0.35779864950E+01  0.65323287114E+01  0.21367879373E+02  0.00000000000E+00 0.  1.
         21    1    1    2  504  501  0.20027804751E+02 -0.35779864950E+01  0.13971092850E+03  0.14118448389E+03  0.00000000000E+00 0. -1.
<mgrwt>
<rscale>  2 0.20344900E+02</rscale>
<asrwt>0</asrwt>
<pdfrwt beam="1">  1       21 0.23753507E-01 0.20344900E+02</pdfrwt>
<pdfrwt beam="2">  1       21 0.12545467E-02 0.20344900E+02</pdfrwt>
<totfact> 0.31413887E+07</totfact>
</mgrwt>
</event>
<event>
 4    1  0.4438654E+006  0.2277587E+02  0.7546771E-02  0.1695169E+00
         21   -1    0    0  504  501  0.00000000000E+00  0.00000000000E+00  0.68081741718E+03  0.68081741718E+03  0.00000000000E+00 0. -1.
         21   -1    0    0  503  502 -0.00000000000E+00 -0.00000000000E+00 -0.12202324412E+01  0.12202324412E+01  0.00000000000E+00 0.  1.
         21    1    1    2  503  501 -0.20096664098E+02 -0.10717478777E+02  0.13080660081E+03  0.13277464771E+03  0.00000000000E+00 0.  1.
         21    1    1    2  504  502  0.20096664098E+02  0.10717478777E+02  0.54879058392E+03  0.54926300191E+03  0.00000000000E+00 0. -1.
<mgrwt>
<rscale>  2 0.22775870E+02</rscale>
<asrwt>0</asrwt>
<pdfrwt beam="1">  1       21 0.10474084E+00 0.22775870E+02</pdfrwt>
<pdfrwt beam="2">  1       21 0.18772861E-03 0.22775870E+02</pdfrwt>
<totfact> 0.29063753E+07</totfact>
</mgrwt>
</event>
<event>
 4    1  0.4438654E+006  0.2309622E+02  0.7546771E-02  0.1689955E+00
         21   -1    0    0  502  501  0.00000000000E+00  0.00000000000E+00  0.20334129632E+03  0.20334129632E+03  0.00000000000E+00 0.  1.
         21   -1    0    0  503  502 -0.00000000000E+00 -0.00000000000E+00 -0.26371045741E+01  0.26371045741E+01  0.00000000000E+00 0.  1.
         21    1    1    2  503  504  0.36152355220E+01  0.22811515324E+02  0.92913868103E+02  0.95741433273E+02  0.00000000000E+00 0.  1.
         21    1    1    2  504  501 -0.36152355220E+01 -0.22811515324E+02  0.10779032364E+03  0.11023696762E+03  0.00000000000E+00 0.  1.
<mgrwt>
<rscale>  2 0.23096215E+02</rscale>
<asrwt>0</asrwt>
<pdfrwt beam="1">  1       21 0.31283264E-01 0.23096215E+02</pdfrwt>
<pdfrwt beam="2">  1       21 0.40570855E-03 0.23096215E+02</pdfrwt>
<totfact> 0.10589288E+08</totfact>
</mgrwt>
</event>
<event>
 4    1  0.4438654E+006  0.3446739E+02  0.7546771E-02  0.1553382E+00
         21   -1    0    0  504  501  0.00000000000E+00  0.00000000000E+00  0.63292957682E+03  0.63292957682E+03  0.00000000000E+00 0. -1.
         21   -1    0    0  503  502 -0.00000000000E+00 -0.00000000000E+00 -0.45223661952E+01  0.45223661952E+01  0.00000000000E+00 0.  1.
         21    1    1    2  503  501  0.33893580088E+02 -0.62630919438E+01  0.55797261440E+03  0.55903617013E+03  0.00000000000E+00 0. -1.
         21    1    1    2  504  502 -0.33893580088E+02  0.62630919438E+01  0.70434596216E+02  0.78415772878E+02  0.00000000000E+00 0.  1.
<mgrwt>
<rscale>  2 0.34467392E+02</rscale>
<asrwt>0</asrwt>
<pdfrwt beam="1">  1       21 0.97373711E-01 0.34467392E+02</pdfrwt>
<pdfrwt beam="2">  1       21 0.69574915E-03 0.34467392E+02</pdfrwt>
<totfact> 0.52779952E+06</totfact>
</mgrwt>
</event>
<event>
 4    1  0.4438654E+006  0.5126080E+02  0.7546771E-02  0.1438657E+00
         21   -1    0    0  504  501  0.00000000000E+00  0.00000000000E+00  0.10447978387E+02  0.10447978387E+02  0.00000000000E+00 0.  1.
         21   -1    0    0  503  502 -0.00000000000E+00 -0.00000000000E+00 -0.26887585048E+03  0.26887585048E+03  0.00000000000E+00 0.  1.
         21    1    1    2  503  501 -0.46592592682E+02 -0.21372882896E+02 -0.16471744173E+03  0.17250943576E+03  0.00000000000E+00 0.  1.
         21    1    1    2  504  502  0.46592592682E+02  0.21372882896E+02 -0.93710430370E+02  0.10681439311E+03  0.00000000000E+00 0.  1.
<mgrwt>
<rscale>  2 0.51260802E+02</rscale>
<asrwt>0</asrwt>
<pdfrwt beam="1">  1       21 0.16073812E-02 0.51260802E+02</pdfrwt>
<pdfrwt beam="2">  1       21 0.41365517E-01 0.51260802E+02</pdfrwt>
<totfact> 0.89827333E+06</totfact>
</mgrwt>
</event>
<event>
 4    1  0.4438654E+006  0.2714176E+02  0.7546771E-02  0.1632017E+00
         21   -1    0    0  503  501  0.00000000000E+00  0.00000000000E+00  0.12061978177E+04  0.12061978177E+04  0.00000000000E+00 0. -1.
         21   -1    0    0  504  502 -0.00000000000E+00 -0.00000000000E+00 -0.45663862092E+01  0.45663862092E+01  0.00000000000E+00 0.  1.
         21    1    1    2  503  502 -0.26007574560E+02 -0.77641111209E+01  0.37370257900E+02  0.46186702973E+02  0.00000000000E+00 0.  1.
         21    1    1    2  504  501  0.26007574560E+02  0.77641111209E+01  0.11642611736E+04  0.11645775010E+04  0.00000000000E+00 0. -1.
<mgrwt>
<rscale>  2 0.27141764E+02</rscale>
<asrwt>0</asrwt>
<pdfrwt beam="1">  1       21 0.18556864E+00 0.27141764E+02</pdfrwt>
<pdfrwt beam="2">  1       21 0.70252192E-03 0.27141764E+02</pdfrwt>
<totfact> 0.11137057E+06</totfact>
</mgrwt>
</event>
<event>
 4    1  0.4438654E+006  0.2870243E+02  0.7546771E-02  0.1612891E+00
         21   -1    0    0  503  501  0.00000000000E+00  0.00000000000E+00  0.13180179140E+02  0.13180179140E+02  0.00000000000E+00 0.  1.
         21   -1    0    0  501  502 -0.00000000000E+00 -0.00000000000E+00 -0.19217786059E+03  0.19217786059E+03  0.00000000000E+00 0.  1.
         21    1    1    2  503  504 -0.10363476092E+02  0.26766165674E+02 -0.51548184888E+01  0.29161642877E+02  0.00000000000E+00 0.  1.
         21    1    1    2  504  502  0.10363476092E+02 -0.26766165674E+02 -0.17384286296E+03  0.17619639685E+03  0.00000000000E+00 0.  1.
<mgrwt>
<rscale>  2 0.28702426E+02</rscale>
<asrwt>0</asrwt>
<pdfrwt beam="1">  1       21 0.20277199E-02 0.28702426E+02</pdfrwt>
<pdfrwt beam="2">  1       21 0.29565824E-01 0.28702426E+02</pdfrwt>
<totfact> 0.10927974E+07</totfact>
</mgrwt>
</event>
<event>
 4    1  0.4438654E+006  0.2260161E+02  0.7546771E-02  0.1698050E+00
         21   -1    0    0  504  501  0.00000000000E+00  0.00000000000E+00  0.11687526169E+04  0.11687526169E+04  0.00000000000E+00 0. -1.
         21   -1    0    0  503  502 -0.00000000000E+00 -0.00000000000E+00 -0.83454138323E+01  0.83454138323E+01  0.00000000000E+00 0.  1.
         21    1    1    2  503  501 -0.17654053154E+02 -0.14112665412E+02  0.72739171075E+01  0.23743268265E+02  0.00000000000E+00 0.  1.
         21    1    1    2  504  502  0.17654053154E+02  0.14112665412E+02  0.11531332859E+04  0.11533547624E+04  0.00000000000E+00 0. -1.
<mgrwt>
<rscale>  2 0.22601613E+02</rscale>
<asrwt>0</asrwt>
<pdfrwt beam="1">  1       21 0.17980797E+00 0.22601613E+02</pdfrwt>
<pdfrwt beam="2">  1       21 0.12839107E-02 0.22601613E+02</pdfrwt>
<totfact> 0.48383698E+05</totfact>
</mgrwt>
</event>
<event>
 4    1  0.4438654E+006  0.2209325E+02  0.7546771E-02  0.1706644E+00
         21   -1    0    0  503  501  0.00000000000E+00  0.00000000000E+00  0.81653490685E+02  0.81653490685E+02  0.00000000000E+00 0.  1.
         21   -1    0    0  501  502 -0.00000000000E+00 -0.00000000000E+00 -0.37536114478E+03  0.37536114478E+03  0.00000000000E+00 0. -1.
         21    1    1    2  503  504 -0.22087190758E+02 -0.51720387561E+00  0.79826633500E+02  0.82827549230E+02  0.00000000000E+00 0.  1.
         21    1    1    2  504  502  0.22087190758E+02  0.51720387561E+00 -0.37353428760E+03  0.37418708624E+03  0.00000000000E+00 0. -1.
<mgrwt>
<rscale>  2 0.22093245E+02</rscale>
<asrwt>0</asrwt>
<pdfrwt beam="1">  1       21 0.12562075E-01 0.22093245E+02</pdfrwt>
<pdfrwt beam="2">  1       21 0.57747869E-01 0.22093245E+02</pdfrwt>
<totfact> 0.16029025E+05</totfact>
</mgrwt>
</event>
<event>
 4    1  0.4438654E+006  0.2050060E+02  0.7546771E-02  0.1735552E+00
         21   -1    0    0  503  501  0.00000000000E+00  0.00000000000E+00  0.12083136807E+03  0.12083136807E+03  0.00000000000E+00 0. -1.
         21   -1    0    0  501  502 -0.00000000000E+00 -0.00000000000E+00 -0.39765920689E+01  0.39765920689E+01  0.00000000000E+00 0. -1.
         21    1    1    2  503  504  0.13176561231E+02  0.15705189071E+02  0.80519930572E+02  0.83088711321E+02  0.00000000000E+00 0. -1.
         21    1    1    2  504  502 -0.13176561231E+02 -0.15705189071E+02  0.36334845433E+02  0.41719248822E+02  0.00000000000E+00 0. -1.
<mgrwt>
<rscale>  2 0.20500603E+02</rscale>
<asrwt>0</asrwt>
<pdfrwt beam="1">  1       21 0.18589438E-01 0.20500603E+02</pdfrwt>
<pdfrwt beam="2">  1       21 0.61178349E-03 0.20500603E+02</pdfrwt>
<totfact> 0.14075997E+08</totfact>
</mgrwt>
</event>
<event>
 4    1  0.4438654E+006  0.2396861E+02  0.7546771E-02  0.1676274E+00
         21   -1    0    0  503  501  0.00000000000E+00  0.00000000000E+00  0.71047000731E+02  0.71047000731E+02  0.00000000000E+00 0.  1.
         21   -1    0    0  501  502 -0.00000000000E+00 -0.00000000000E+00 -0.17042585018E+03  0.17042585018E+03  0.00000000000E+00 0.  1.
         21    1    1    2  503  504  0.15492997671E+02  0.18288287295E+02  0.68147931972E+02  0.72240120855E+02  0.00000000000E+00 0.  1.
         21    1    1    2  504  502 -0.15492997671E+02 -0.18288287295E+02 -0.16752678142E+03  0.16923273006E+03  0.00000000000E+00 0.  1.
<mgrwt>
<rscale>  2 0.23968613E+02</rscale>
<asrwt>0</asrwt>
<pdfrwt beam="1">  1       21 0.10930308E-01 0.23968613E+02</pdfrwt>
<pdfrwt beam="2">  1       21 0.26219361E-01 0.23968613E+02</pdfrwt>
<totfact> 0.89753952E+05</totfact>
</mgrwt>
</event>
<event>
 4    1  0.4438654E+006  0.2072203E+02  0.7546771E-02  0.1731339E+00
         21   -1    0    0  503  501  0.00000000000E+00  0.00000000000E+00  0.12564368265E+02  0.12564368265E+02  0.00000000000E+00 0. -1.
         21   -1    0    0  504  502 -0.00000000000E+00 -0.00000000000E+00 -0.34245420635E+02  0.34245420635E+02  0.00000000000E+00 0. -1.
         21    1    1    2  503  502  0.13955667634E+02  0.15318020913E+02 -0.97883027577E+01  0.22917532474E+02  0.00000000000E+00 0. -1.
         21    1    1    2  504  501 -0.13955667634E+02 -0.15318020913E+02 -0.11892749612E+02  0.23892256426E+02  0.00000000000E+00 0. -1.
<mgrwt>
<rscale>  2 0.20722028E+02</rscale>
<asrwt>0</asrwt>
<pdfrwt beam="1">  1       21 0.19329798E-02 0.20722028E+02</pdfrwt>
<pdfrwt beam="2">  1       21 0.52685262E-02 0.20722028E+02</pdfrwt>
<totfact> 0.20111364E+08</totfact>
</mgrwt>
</event>
<event>
 4    1  0.4438654E+006  0.2751780E+02  0.7546771E-02  0.1627267E+00
         21   -1    0    0  503  501  0.00000000000E+00  0.00000000000E+00  0.10420138555E+03  0.10420138555E+03  0.00000000000E+00 0. -1.
         21   -1    0    0  504  502 -0.00000000000E+00 -0.00000000000E+00 -0.98564117337E+01  0.98564117337E+01  0.00000000000E+00 0. -1.
         21    1    1    2  503  502  0.25385521386E+02  0.10620953766E+02  0.17941880649E+02  0.32850272999E+02  0.00000000000E+00 0. -1.
         21    1    1    2  504  501 -0.25385521386E+02 -0.10620953766E+02  0.76403093170E+02  0.81207524287E+02  0.00000000000E+00 0. -1.
<mgrwt>
<rscale>  2 0.27517801E+02</rscale>
<asrwt>0</asrwt>
<pdfrwt beam="1">  1       21 0.16030982E-01 0.27517801E+02</pdfrwt>
<pdfrwt beam="2">  1       21 0.15163711E-02 0.27517801E+02</pdfrwt>
<totfact> 0.50228037E+07</totfact>
</mgrwt>
</event>
<event>
 4    1  0.4438654E+006  0.2859228E+02  0.7546771E-02  0.1614191E+00
         21   -1    0    0  502  501  0.00000000000E+00  0.00000000000E+00  0.56640299091E+03  0.56640299091E+03  0.00000000000E+00 0. -1.
         21   -1    0    0  503  502 -0.00000000000E+00 -0.00000000000E+00 -0.31122109319E+01  0.31122109319E+01  0.00000000000E+00 0. -1.
         21    1    1    2  503  504 -0.18008919478E+02 -0.22208044625E+02  0.73123941304E+02  0.78515152796E+02  0.00000000000E+00 0. -1.
         21    1    1    2  504  501  0.18008919478E+02  0.22208044625E+02  0.49016683868E+03  0.49100004905E+03  0.00000000000E+00 0. -1.
<mgrwt>
<rscale>  2 0.28592279E+02</rscale>
<asrwt>0</asrwt>
<pdfrwt beam="1">  1       21 0.87138839E-01 0.28592279E+02</pdfrwt>
<pdfrwt beam="2">  1       21 0.47880213E-03 0.28592279E+02</pdfrwt>
<totfact> 0.11482578E+07</totfact>
</mgrwt>
</event>
<event>
 4    1  0.4438654E+006  0.3356795E+02  0.7546771E-02  0.1561698E+00
         21   -1    0    0  504  501  0.00000000000E+00  0.00000000000E+00  0.42399233984E+02  0.42399233984E+02  0.00000000000E+00 0.  1.
         21   -1    0    0  501  502 -0.00000000000E+00 -0.00000000000E+00 -0.56761562095E+02  0.56761562095E+02  0.00000000000E+00 0. -1.
         21    1    1    2  503  502  0.32310551141E+02 -0.91014184412E+01 -0.43337260966E+02  0.54817202781E+02  0.00000000000E+00 0. -1.
         21    1    1    2  504  503 -0.32310551141E+02  0.91014184412E+01  0.28974932855E+02  0.44343593299E+02  0.00000000000E+00 0.  1.
<mgrwt>
<rscale>  2 0.33567954E+02</rscale>
<asrwt>0</asrwt>
<pdfrwt beam="1">  1       21 0.65229591E-02 0.33567954E+02</pdfrwt>
<pdfrwt beam="2">  1       21 0.87325480E-02 0.33567954E+02</pdfrwt>
<totfact> 0.14598115E+07</totfact>
</mgrwt>
</event>
<event>
 4    1  0.4438654E+006  0.2282726E+02  0.7546771E-02  0.1694326E+00
         21   -1    0    0  502  501  0.00000000000E+00  0.00000000000E+00  0.63796111200E+01  0.63796111200E+01  0.00000000000E+00 0. -1.
         21   -1    0    0  504  502 -0.00000000000E+00 -0.00000000000E+00 -0.18569946026E+03  0.18569946026E+03  0.00000000000E+00 0. -1.
         21    1    1    2  503  501 -0.17576023715E+02 -0.14565954131E+02 -0.17780761299E+02  0.28935084271E+02  0.00000000000E+00 0. -1.
         21    1    1    2  504  503  0.17576023715E+02  0.14565954131E+02 -0.16153908784E+03  0.16314398711E+03  0.00000000000E+00 0. -1.
<mgrwt>
<rscale>  2 0.22827256E+02</rscale>
<asrwt>0</asrwt>
<pdfrwt beam="1">  1       21 0.98147862E-03 0.22827256E+02</pdfrwt>
<pdfrwt beam="2">  1       21 0.28569148E-01 0.22827256E+02</pdfrwt>
<totfact> 0.33574430E+07</totfact>
</mgrwt>
</event>
<event>
 4    1  0.4438654E+006  0.2097266E+02  0.7546771E-02  0.1726650E+00
         21   -1    0    0  503  501  0.00000000000E+00  0.00000000000E+00  0.11628708257E+02  0.11628708257E+02  0.00000000000E+00 0. -1.
         21   -1    0    0  504  502 -0.00000000000E+00 -0.00000000000E+00 -0.39156886133E+02  0.39156886133E+02  0.00000000000E+00 0. -1.
         21    1    1    2  503  502  0.20617001677E+02  0.38459838702E+01 -0.90803827768E+01  0.22854008433E+02  0.00000000000E+00 0. -1.
         21    1    1    2  504  501 -0.20617001677E+02 -0.38459838702E+01 -0.18447795099E+02  0.27931585957E+02  0.00000000000E+00 0. -1.
<mgrwt>
<rscale>  2 0.20972657E+02</rscale>
<asrwt>0</asrwt>
<pdfrwt beam="1">  1       21 0.17890321E-02 0.20972657E+02</pdfrwt>
<pdfrwt beam="2">  1       21 0.60241362E-02 0.20972657E+02</pdfrwt>
<totfact> 0.18345815E+08</totfact>
</mgrwt>
</event>
<event>
 4    1  0.4438654E+006  0.4468953E+02  0.7546771E-02  0.1476289E+00
         21   -1    0    0  504  501  0.00000000000E+00  0.00000000000E+00  0.40083514603E+02  0.40083514603E+02  0.00000000000E+00 0.  1.
         21   -1    0    0  503  502 -0.00000000000E+00 -0.00000000000E+00 -0.53617655173E+02  0.53617655173E+02  0.00000000000E+00 0.  1.
         21    1    1    2  503  501 -0.31316444060E+02 -0.31881575713E+02 -0.19227762858E+02  0.48650399824E+02  0.00000000000E+00 0.  1.
         21    1    1    2  504  502  0.31316444060E+02  0.31881575713E+02  0.56936222875E+01  0.45050769952E+02  0.00000000000E+00 0.  1.
<mgrwt>
<rscale>  2 0.44689535E+02</rscale>
<asrwt>0</asrwt>
<pdfrwt beam="1">  1       21 0.61666946E-02 0.44689535E+02</pdfrwt>
<pdfrwt beam="2">  1       21 0.82488700E-02 0.44689535E+02</pdfrwt>
<totfact> 0.18416519E+07</totfact>
</mgrwt>
</event>
<event>
 4    1  0.4438654E+006  0.2207841E+02  0.7546771E-02  0.1706900E+00
         21   -1    0    0  504  501  0.00000000000E+00  0.00000000000E+00  0.33086037372E+03  0.33086037372E+03  0.00000000000E+00 0.  1.
         21   -1    0    0  501  502 -0.00000000000E+00 -0.00000000000E+00 -0.19996740990E+02  0.19996740990E+02  0.00000000000E+00 0.  1.
         21    1    1    2  503  502 -0.17693123539E+02  0.13206415879E+02 -0.13410590228E+02  0.25832149953E+02  0.00000000000E+00 0.  1.
         21    1    1    2  504  503  0.17693123539E+02 -0.13206415879E+02  0.32427422295E+03  0.32502496475E+03  0.00000000000E+00 0.  1.
<mgrwt>
<rscale>  2 0.22078407E+02</rscale>
<asrwt>0</asrwt>
<pdfrwt beam="1">  1       21 0.50901592E-01 0.22078407E+02</pdfrwt>
<pdfrwt beam="2">  1       21 0.30764219E-02 0.22078407E+02</pdfrwt>
<totfact> 0.19778602E+06</totfact>
</mgrwt>
</event>
<event>
 4    1  0.4438654E+006  0.2137824E+02  0.7546771E-02  0.1719232E+00
         21   -1    0    0  502  501  0.00000000000E+00  0.00000000000E+00  0.99284799336E+00  0.99284799336E+00  0.00000000000E+00 0.  1.
         21   -1    0    0  503  502 -0.00000000000E+00 -0.00000000000E+00 -0.49651611523E+03  0.49651611523E+03  0.00000000000E+00 0. -1.
         21    1    1    2  503  504 -0.16388414237E+01  0.21315330601E+02 -0.31492418328E+03  0.31564896694E+03  0.00000000000E+00 0. -1.
         21    1    1    2  504  501  0.16388414237E+01 -0.21315330601E+02 -0.18059908396E+03  0.18185999628E+03  0.00000000000E+00 0.  1.
<mgrwt>
<rscale>  2 0.21378239E+02</rscale>
<asrwt>0</asrwt>
<pdfrwt beam="1">  1       21 0.15274622E-03 0.21378239E+02</pdfrwt>
<pdfrwt beam="2">  1       21 0.76386905E-01 0.21378239E+02</pdfrwt>
<totfact> 0.75666448E+07</totfact>
</mgrwt>
</event>
<event>
 4    1  0.4438654E+006  0.4372182E+02  0.7546771E-02  0.1482483E+00
         21   -1    0    0  503  501  0.00000000000E+00  0.00000000000E+00  0.75293513466E+01  0.75293513466E+01  0.00000000000E+00 0. -1.
         21   -1    0    0  504  502 -0.00000000000E+00 -0.00000000000E+00 -0.39791706193E+03  0.39791706193E+03  0.00000000000E+00 0. -1.
         21    1    1    2  503  502 -0.37095635976E+02 -0.23141114386E+02 -0.31715884130E+03  0.32015828585E+03  0.00000000000E+00 0. -1.
         21    1    1    2  504  501  0.37095635976E+02  0.23141114386E+02 -0.73228869287E+02  0.85288127430E+02  0.00000000000E+00 0. -1.
<mgrwt>
<rscale>  2 0.43721818E+02</rscale>
<asrwt>0</asrwt>
<pdfrwt beam="1">  1       21 0.11583616E-02 0.43721818E+02</pdfrwt>
<pdfrwt beam="2">  1       21 0.61218016E-01 0.43721818E+02</pdfrwt>
<totfact> 0.66977465E+06</totfact>
</mgrwt>
</event>
<event>
 4    1  0.4438654E+006  0.2362111E+02  0.7546771E-02  0.1681635E+00
         21   -1    0    0  503  501  0.00000000000E+00  0.00000000000E+00  0.35962114399E+03  0.35962114399E+03  0.00000000000E+00 0. -1.
         21   -1    0    0  504  502 -0.00000000000E+00 -0.00000000000E+00 -0.28641569513E+01  0.28641569513E+01  0.00000000000E+00 0.  1.
         21    1    1    2  503  502 -0.19592475052E+02  0.13194390675E+02  0.55681081432E+02  0.60484211604E+02  0.00000000000E+00 0.  1.
         21    1    1    2  504  501  0.19592475052E+02 -0.13194390675E+02  0.30107590561E+03  0.30200108934E+03  0.00000000000E+00 0. -1.
<mgrwt>
<rscale>  2 0.23621114E+02</rscale>
<asrwt>0</asrwt>
<pdfrwt beam="1">  1       21 0.55326294E-01 0.23621114E+02</pdfrwt>
<pdfrwt beam="2">  1       21 0.44063982E-03 0.23621114E+02</pdfrwt>
<totfact> 0.31964871E+07</totfact>
</mgrwt>
</event>
<event>
 4    1  0.4438654E+006  0.2079910E+02  0.7546771E-02  0.1729888E+00
         21   -1    0    0  503  501  0.00000000000E+00  0.00000000000E+00  0.52034736686E+01  0.52034736686E+01  0.00000000000E+00 0. -1.
         21   -1    0    0  504  502 -0.00000000000E+00 -0.00000000000E+00 -0.13699470336E+03  0.13699470336E+03  0.00000000000E+00 0. -1.
         21    1    1    2  503  502  0.20546015568E+02  0.32347977257E+01 -0.11047508598E+03  0.11241595658E+03  0.00000000000E+00 0. -1.
         21    1    1    2  504  501 -0.20546015568E+02 -0.32347977257E+01 -0.21316143716E+02  0.29782220451E+02  0.00000000000E+00 0. -1.
<mgrwt>
<rscale>  2 0.20799103E+02</rscale>
<asrwt>0</asrwt>
<pdfrwt beam="1">  1       21 0.80053452E-03 0.20799103E+02</pdfrwt>
<pdfrwt beam="2">  1       21 0.21076105E-01 0.20799103E+02</pdfrwt>
<totfact> 0.76314925E+07</totfact>
</mgrwt>
</event>
<event>
 4    1  0.4438654E+006  0.2042768E+02  0.7546771E-02  0.1736955E+00
         21   -1    0    0  502  501  0.00000000000E+00  0.00000000000E+00  0.86780864090E+02  0.86780864090E+02  0.00000000000E+00 0.  1.
         21   -1    0    0  503  502 -0.00000000000E+00 -0.00000000000E+00 -0.12535169463E+02  0.12535169463E+02  0.00000000000E+00 0.  1.
         21    1    1    2  503  504 -0.15517198717E+02 -0.13285575161E+02 -0.18640864269E+01  0.20512551805E+02  0.00000000000E+00 0.  1.
         21    1    1    2  504  501  0.15517198717E+02  0.13285575161E+02  0.76109781054E+02  0.78803481747E+02  0.00000000000E+00 0.  1.
<mgrwt>
<rscale>  2 0.20427676E+02</rscale>
<asrwt>0</asrwt>
<pdfrwt beam="1">  1       21 0.13350902E-01 0.20427676E+02</pdfrwt>
<pdfrwt beam="2">  1       21 0.19284877E-02 0.20427676E+02</pdfrwt>
<totfact> 0.44136325E+07</totfact>
</mgrwt>
</event>
<event>
 4    1  0.4438654E+006  0.2347781E+02  0.7546771E-02  0.1683880E+00
         21   -1    0    0  502  501  0.00000000000E+00  0.00000000000E+00  0.16884116574E+02  0.16884116574E+02  0.00000000000E+00 0.  1.
         21   -1    0    0  504  502 -0.00000000000E+00 -0.00000000000E+00 -0.33038617500E+02  0.33038617500E+02  0.00000000000E+00 0.  1.
         21    1    1    2  503  501  0.63465241033E+00 -0.23469226031E+02 -0.53579064443E+01  0.24081414320E+02  0.00000000000E+00 0.  1.
         21    1    1    2  504  503 -0.63465241033E+00  0.23469226031E+02 -0.10796594482E+02  0.25841319753E+02  0.00000000000E+00 0.  1.
<mgrwt>
<rscale>  2 0.23477806E+02</rscale>
<asrwt>0</asrwt>
<pdfrwt beam="1">  1       21 0.25975564E-02 0.23477806E+02</pdfrwt>
<pdfrwt beam="2">  1       21 0.50828642E-02 0.23477806E+02</pdfrwt>
<totfact> 0.14051295E+08</totfact>
</mgrwt>
</event>
<event>
 4    1  0.4438654E+006  0.2319141E+02  0.7546771E-02  0.1688426E+00
         21   -1    0    0  504  501  0.00000000000E+00  0.00000000000E+00  0.12867840848E+01  0.12867840848E+01  0.00000000000E+00 0.  1.
         21   -1    0    0  503  502 -0.00000000000E+00 -0.00000000000E+00 -0.63939610339E+03  0.63939610339E+03  0.00000000000E+00 0.  1.
         21    1    1    2  503  501  0.11046582183E+02  0.20391534205E+02 -0.13054261054E+03  0.13258663135E+03  0.00000000000E+00 0.  1.
         21    1    1    2  504  502 -0.11046582183E+02 -0.20391534205E+02 -0.50756670876E+03  0.50809625613E+03  0.00000000000E+00 0.  1.
<mgrwt>
<rscale>  2 0.23191413E+02</rscale>
<asrwt>0</asrwt>
<pdfrwt beam="1">  1       21 0.19796633E-03 0.23191413E+02</pdfrwt>
<pdfrwt beam="2">  1       21 0.98368857E-01 0.23191413E+02</pdfrwt>
<totfact> 0.31012288E+07</totfact>
</mgrwt>
</event>
<event>
 4    1  0.4438654E+006  0.2063714E+02  0.7546771E-02  0.1732947E+00
         21   -1    0    0  504  501  0.00000000000E+00  0.00000000000E+00  0.10499802088E+03  0.10499802088E+03  0.00000000000E+00 0. -1.
         21   -1    0    0  503  502 -0.00000000000E+00 -0.00000000000E+00 -0.40816799048E+01  0.40816799048E+01  0.00000000000E+00 0.  1.
         21    1    1    2  503  501  0.10882438073E+02  0.17534658538E+02  0.46147985300E+02  0.50552232944E+02  0.00000000000E+00 0.  1.
         21    1    1    2  504  502 -0.10882438073E+02 -0.17534658538E+02  0.54768355678E+02  0.58527467843E+02  0.00000000000E+00 0. -1.
<mgrwt>
<rscale>  2 0.20637144E+02</rscale>
<asrwt>0</asrwt>
<pdfrwt beam="1">  1       21 0.16153540E-01 0.20637144E+02</pdfrwt>
<pdfrwt beam="2">  1       21 0.62795083E-03 0.20637144E+02</pdfrwt>
<totfact> 0.17265939E+08</totfact>
</mgrwt>
</event>
<event>
 4    1  0.4438654E+006  0.2335720E+02  0.7546771E-02  0.1685785E+00
         21   -1    0    0  504  501  0.00000000000E+00  0.00000000000E+00  0.10359123798E+04  0.10359123798E+04  0.00000000000E+00 0. -1.
         21   -1    0    0  503  502 -0.00000000000E+00 -0.00000000000E+00 -0.54709356278E+00  0.54709356278E+00  0.00000000000E+00 0. -1.
         21    1    1    2  503  501  0.81535962227E+01 -0.21887837692E+02  0.41749414920E+03  0.41814701146E+03  0.00000000000E+00 0. -1.
         21    1    1    2  504  502 -0.81535962227E+01  0.21887837692E+02  0.61787113704E+03  0.61831246191E+03  0.00000000000E+00 0. -1.
<mgrwt>
<rscale>  2 0.23357195E+02</rscale>
<asrwt>0</asrwt>
<pdfrwt beam="1">  1       21 0.15936957E+00 0.23357195E+02</pdfrwt>
<pdfrwt beam="2">  1       21 0.84169069E-04 0.23357195E+02</pdfrwt>
<totfact> 0.35023633E+07</totfact>
</mgrwt>
</event>
<event>
 4    1  0.4438654E+006  0.2113922E+02  0.7546771E-02  0.1723579E+00
         21   -1    0    0  504  501  0.00000000000E+00  0.00000000000E+00  0.28368607553E+02  0.28368607553E+02  0.00000000000E+00 0.  1.
         21   -1    0    0  503  502 -0.00000000000E+00 -0.00000000000E+00 -0.29680035364E+03  0.29680035364E+03  0.00000000000E+00 0.  1.
         21    1    1    2  503  501  0.14385059215E+02  0.15489883381E+02  0.23995351422E+02  0.31978794624E+02  0.00000000000E+00 0.  1.
         21    1    1    2  504  502 -0.14385059215E+02 -0.15489883381E+02 -0.29242709751E+03  0.29319016657E+03  0.00000000000E+00 0.  1.
<mgrwt>
<rscale>  2 0.21139215E+02</rscale>
<asrwt>0</asrwt>
<pdfrwt beam="1">  1       21 0.43644012E-02 0.21139215E+02</pdfrwt>
<pdfrwt beam="2">  1       21 0.45661593E-01 0.21139215E+02</pdfrwt>
<totfact> 0.14031430E+06</totfact>
</mgrwt>
</event>
<event>
 4    1  0.4438654E+006  0.3096629E+02  0.7546771E-02  0.1587647E+00
         21   -1    0    0  502  501  0.00000000000E+00  0.00000000000E+00  0.10070598548E+01  0.10070598548E+01  0.00000000000E+00 0.  1.
         21   -1    0    0  503  502 -0.00000000000E+00 -0.00000000000E+00 -0.17844455966E+04  0.17844455966E+04  0.00000000000E+00 0. -1.
         21    1    1    2  503  504  0.13745595669E+02 -0.27748329714E+02 -0.15013899907E+04  0.15017092978E+04  0.00000000000E+00 0. -1.
         21    1    1    2  504  501 -0.13745595669E+02  0.27748329714E+02 -0.28204854607E+03  0.28374335859E+03  0.00000000000E+00 0.  1.
<mgrwt>
<rscale>  2 0.30966291E+02</rscale>
<asrwt>0</asrwt>
<pdfrwt beam="1">  1       21 0.15493245E-03 0.30966291E+02</pdfrwt>
<pdfrwt beam="2">  1       21 0.27452979E+00 0.30966291E+02</pdfrwt>
<totfact> 0.34609393E+06</totfact>
</mgrwt>
</event>
<event>
 4    1  0.4438654E+006  0.2119232E+02  0.7546771E-02  0.1722607E+00
         21   -1    0    0  502  501  0.00000000000E+00  0.00000000000E+00  0.83692619041E+01  0.83692619041E+01  0.00000000000E+00 0.  1.
         21   -1    0    0  503  502 -0.00000000000E+00 -0.00000000000E+00 -0.19232549402E+03  0.19232549402E+03  0.00000000000E+00 0.  1.
         21    1    1    2  503  504 -0.13480297217E+02 -0.16352253740E+02 -0.17718369977E+03  0.17844656926E+03  0.00000000000E+00 0.  1.
         21    1    1    2  504  501  0.13480297217E+02  0.16352253740E+02 -0.67725323408E+01  0.22248186662E+02  0.00000000000E+00 0.  1.
<mgrwt>
<rscale>  2 0.21192324E+02</rscale>
<asrwt>0</asrwt>
<pdfrwt beam="1">  1       21 0.12875787E-02 0.21192324E+02</pdfrwt>
<pdfrwt beam="2">  1       21 0.29588538E-01 0.21192324E+02</pdfrwt>
<totfact> 0.20595952E+07</totfact>
</mgrwt>
</event>
<event>
 4    1  0.4438654E+006  0.2027654E+02  0.7546771E-02  0.1739884E+00
         21   -1    0    0  504  501  0.00000000000E+00  0.00000000000E+00  0.14650821991E+03  0.14650821991E+03  0.00000000000E+00 0. -1.
         21   -1    0    0  503  502 -0.00000000000E+00 -0.00000000000E+00 -0.18020907099E+02  0.18020907099E+02  0.00000000000E+00 0.  1.
         21    1    1    2  503  501  0.19788292648E+02 -0.44228505377E+01  0.13983213648E+03  0.14129460190E+03  0.00000000000E+00 0. -1.
         21    1    1    2  504  502 -0.19788292648E+02  0.44228505377E+01 -0.11344823673E+02  0.23234525108E+02  0.00000000000E+00 0.  1.
<mgrwt>
<rscale>  2 0.20276541E+02</rscale>
<asrwt>0</asrwt>
<pdfrwt beam="1">  1       21 0.22539725E-01 0.20276541E+02</pdfrwt>
<pdfrwt beam="2">  1       21 0.27724473E-02 0.20276541E+02</pdfrwt>
<totfact> 0.10281425E+07</totfact>
</mgrwt>
</event>
<event>
 4    1  0.4438654E+006  0.4466101E+02  0.7546771E-02  0.1476469E+00
         21   -1    0    0  504  501  0.00000000000E+00  0.00000000000E+00  0.69459009238E+03  0.69459009238E+03  0.00000000000E+00 0. -1.
         21   -1    0    0  501  502 -0.00000000000E+00 -0.00000000000E+00 -0.65000678967E+01  0.65000678967E+01  0.00000000000E+00 0. -1.
         21    1    1    2  503  502  0.67884694630E+01  0.44142068513E+02  0.82139405641E+02  0.93495922314E+02  0.00000000000E+00 0. -1.
         21    1    1    2  504  503 -0.67884694630E+01 -0.44142068513E+02  0.60595061884E+03  0.60759423796E+03  0.00000000000E+00 0. -1.
<mgrwt>
<rscale>  2 0.44661007E+02</rscale>
<asrwt>0</asrwt>
<pdfrwt beam="1">  1       21 0.10685996E+00 0.44661007E+02</pdfrwt>
<pdfrwt beam="2">  1       21 0.10000110E-02 0.44661007E+02</pdfrwt>
<totfact> 0.25202087E+06</totfact>
</mgrwt>
</event>
<event>
 4    1  0.4438654E+006  0.2216305E+02  0.7546771E-02  0.1705447E+00
         21   -1    0    0  503  501  0.00000000000E+00  0.00000000000E+00  0.10420431553E+02  0.10420431553E+02  0.00000000000E+00 0.  1.
         21   -1    0    0  504  502 -0.00000000000E+00 -0.00000000000E+00 -0.57267421147E+02  0.57267421147E+02  0.00000000000E+00 0. -1.
         21    1    1    2  503  502 -0.18505038712E+02 -0.12196904079E+02 -0.37657064849E+02  0.43695027863E+02  0.00000000000E+00 0. -1.
         21    1    1    2  504  501  0.18505038712E+02  0.12196904079E+02 -0.91899247452E+01  0.23992824837E+02  0.00000000000E+00 0.  1.
<mgrwt>
<rscale>  2 0.22163053E+02</rscale>
<asrwt>0</asrwt>
<pdfrwt beam="1">  1       21 0.16031433E-02 0.22163053E+02</pdfrwt>
<pdfrwt beam="2">  1       21 0.88103726E-02 0.22163053E+02</pdfrwt>
<totfact> 0.11915265E+08</totfact>
</mgrwt>
</event>
<event>
 4    1  0.4438654E+006  0.4276907E+02  0.7546771E-02  0.1488770E+00
         21   -1    0    0  504  501  0.00000000000E+00  0.00000000000E+00  0.12279347676E+02  0.12279347676E+02  0.00000000000E+00 0.  1.
         21   -1    0    0  503  502 -0.00000000000E+00 -0.00000000000E+00 -0.38858344790E+03  0.38858344790E+03  0.00000000000E+00 0.  1.
         21    1    1    2  503  501  0.42752042482E+02  0.12068728353E+01 -0.34554442329E+03  0.34818119154E+03  0.00000000000E+00 0.  1.
         21    1    1    2  504  502 -0.42752042482E+02 -0.12068728353E+01 -0.30759676935E+02  0.52681604034E+02  0.00000000000E+00 0.  1.
<mgrwt>
<rscale>  2 0.42769074E+02</rscale>
<asrwt>0</asrwt>
<pdfrwt beam="1">  1       21 0.18891306E-02 0.42769074E+02</pdfrwt>
<pdfrwt beam="2">  1       21 0.59782063E-01 0.42769074E+02</pdfrwt>
<totfact> 0.32858057E+06</totfact>
</mgrwt>
</event>
<event>
 4    1  0.4438654E+006  0.2448186E+02  0.7546771E-02  0.1668558E+00
         21   -1    0    0  503  501  0.00000000000E+00  0.00000000000E+00  0.13701302050E+02  0.13701302050E+02  0.00000000000E+00 0. -1.
         21   -1    0    0  504  502 -0.00000000000E+00 -0.00000000000E+00 -0.62420566051E+02  0.62420566051E+02  0.00000000000E+00 0. -1.
         21    1    1    2  503  502  0.94852955412E+01  0.22569680733E+02 -0.35408991469E+01  0.24736598122E+02  0.00000000000E+00 0. -1.
         21    1    1    2  504  501 -0.94852955412E+01 -0.22569680733E+02 -0.45178364854E+02  0.51385269979E+02  0.00000000000E+00 0. -1.
<mgrwt>
<rscale>  2 0.24481857E+02</rscale>
<asrwt>0</asrwt>
<pdfrwt beam="1">  1       21 0.21078926E-02 0.24481857E+02</pdfrwt>
<pdfrwt beam="2">  1       21 0.96031640E-02 0.24481857E+02</pdfrwt>
<totfact> 0.69932008E+07</totfact>
</mgrwt>
</event>
<event>
 4    1  0.4438654E+006  0.2180723E+02  0.7546771E-02  0.1711607E+00
         21   -1    0    0  502  501  0.00000000000E+00  0.00000000000E+00  0.81678136575E+02  0.81678136575E+02  0.00000000000E+00 0.  1.
         21   -1    0    0  504  502 -0.00000000000E+00 -0.00000000000E+00 -0.79247256551E+01  0.79247256551E+01  0.00000000000E+00 0.  1.
         21    1    1    2  503  501  0.15631339454E+02  0.15205800752E+02  0.59952646255E+02  0.63795571497E+02  0.00000000000E+00 0.  1.
         21    1    1    2  504  503 -0.15631339454E+02 -0.15205800752E+02  0.13800764664E+02  0.25807290732E+02  0.00000000000E+00 0.  1.
<mgrwt>
<rscale>  2 0.21807227E+02</rscale>
<asrwt>0</asrwt>
<pdfrwt beam="1">  1       21 0.12565867E-01 0.21807227E+02</pdfrwt>
<pdfrwt beam="2">  1       21 0.12191886E-02 0.21807227E+02</pdfrwt>
<totfact> 0.99688921E+07</totfact>
</mgrwt>
</event>
<event>
 4    1  0.4438654E+006  0.2406252E+02  0.7546771E-02  0.1674844E+00
         21   -1    0    0  504  501  0.00000000000E+00  0.00000000000E+00  0.34545013227E+01  0.34545013227E+01  0.00000000000E+00 0.  1.
         21   -1    0    0  503  502 -0.00000000000E+00 -0.00000000000E+00 -0.17002030124E+03  0.17002030124E+03  0.00000000000E+00 0.  1.
         21    1    1    2  503  501  0.37014544836E+01 -0.23776123544E+02 -0.72952910076E+02  0.76818825197E+02  0.00000000000E+00 0.  1.
         21    1    1    2  504  502 -0.37014544836E+01  0.23776123544E+02 -0.93612889842E+02  0.96655977367E+02  0.00000000000E+00 0.  1.
<mgrwt>
<rscale>  2 0.24062519E+02</rscale>
<asrwt>0</asrwt>
<pdfrwt beam="1">  1       21 0.53146180E-03 0.24062519E+02</pdfrwt>
<pdfrwt beam="2">  1       21 0.26156967E-01 0.24062519E+02</pdfrwt>
<totfact> 0.99464638E+07</totfact>
</mgrwt>
</event>
<event>
 4    1  0.4438654E+006  0.2315908E+02  0.7546771E-02  0.1688944E+00
         21   -1    0    0  504  501  0.00000000000E+00  0.00000000000E+00  0.19469834254E+03  0.19469834254E+03  0.00000000000E+00 0.  1.
         21   -1    0    0  503  502 -0.00000000000E+00 -0.00000000000E+00 -0.19258798221E+02  0.19258798221E+02  0.00000000000E+00 0. -1.
         21    1    1    2  503  501 -0.81487793635E+01 -0.21678103204E+02 -0.11312697357E+02  0.25774403681E+02  0.00000000000E+00 0. -1.
         21    1    1    2  504  502  0.81487793635E+01  0.21678103204E+02  0.18675224168E+03  0.18818273708E+03  0.00000000000E+00 0.  1.
<mgrwt>
<rscale>  2 0.23159075E+02</rscale>
<asrwt>0</asrwt>
<pdfrwt beam="1">  1       21 0.29953590E-01 0.23159075E+02</pdfrwt>
<pdfrwt beam="2">  1       21 0.29628922E-02 0.23159075E+02</pdfrwt>
<totfact> 0.57178955E+06</totfact>
</mgrwt>
</event>
<event>
 4    1  0.4438654E+006  0.2052327E+02  0.7546771E-02  0.1735118E+00
         21   -1    0    0  503  501  0.00000000000E+00  0.00000000000E+00  0.27358875731E+01  0.27358875731E+01  0.00000000000E+00 0.  1.
         21   -1    0    0  501  502 -0.00000000000E+00 -0.00000000000E+00 -0.15642400208E+03  0.15642400208E+03  0.00000000000E+00 0.  1.
         21    1    1    2  503  504  0.19428467826E+02 -0.66135718223E+01 -0.66846899122E+02  0.69926480081E+02  0.00000000000E+00 0.  1.
         21    1    1    2  504  502 -0.19428467826E+02  0.66135718223E+01 -0.86841215384E+02  0.89233409571E+02  0.00000000000E+00 0.  1.
<mgrwt>
<rscale>  2 0.20523272E+02</rscale>
<asrwt>0</asrwt>
<pdfrwt beam="1">  1       21 0.42090581E-03 0.20523272E+02</pdfrwt>
<pdfrwt beam="2">  1       21 0.24065229E-01 0.20523272E+02</pdfrwt>
<totfact> 0.15545071E+08</totfact>
</mgrwt>
</event>
<event>
 4    1  0.4438654E+006  0.4089433E+02  0.7546771E-02  0.1501731E+00
         21   -1    0    0  503  501  0.00000000000E+00  0.00000000000E+00  0.12016628846E+03  0.12016628846E+03  0.00000000000E+00 0. -1.
         21   -1    0    0  501  502 -0.00000000000E+00 -0.00000000000E+00 -0.18450722342E+03  0.18450722342E+03  0.00000000000E+00 0.  1.
         21    1    1    2  503  504  0.22410032957E+02  0.34207257535E+02  0.11430846694E+03  0.12140334287E+03  0.00000000000E+00 0. -1.
         21    1    1    2  504  502 -0.22410032957E+02 -0.34207257535E+02 -0.17864940191E+03  0.18327016901E+03  0.00000000000E+00 0.  1.
<mgrwt>
<rscale>  2 0.40894328E+02</rscale>
<asrwt>0</asrwt>
<pdfrwt beam="1">  1       21 0.18487121E-01 0.40894328E+02</pdfrwt>
<pdfrwt beam="2">  1       21 0.28385727E-01 0.40894328E+02</pdfrwt>
<totfact> 0.32321256E+05</totfact>
</mgrwt>
</event>
<event>
 4    1  0.4438654E+006  0.2685711E+02  0.7546771E-02  0.1635676E+00
         21   -1    0    0  504  501  0.00000000000E+00  0.00000000000E+00  0.66753995453E+02  0.66753995453E+02  0.00000000000E+00 0. -1.
         21   -1    0    0  503  502 -0.00000000000E+00 -0.00000000000E+00 -0.10956096250E+02  0.10956096250E+02  0.00000000000E+00 0. -1.
         21    1    1    2  503  501 -0.12826881567E+02  0.23596085762E+02  0.32455742120E+02  0.42126943285E+02  0.00000000000E+00 0. -1.
         21    1    1    2  504  502  0.12826881567E+02 -0.23596085762E+02  0.23342157083E+02  0.35583148418E+02  0.00000000000E+00 0. -1.
<mgrwt>
<rscale>  2 0.26857106E+02</rscale>
<asrwt>0</asrwt>
<pdfrwt beam="1">  1       21 0.10269845E-01 0.26857106E+02</pdfrwt>
<pdfrwt beam="2">  1       21 0.16855533E-02 0.26857106E+02</pdfrwt>
<totfact> 0.90312731E+07</totfact>
</mgrwt>
</event>
<event>
 4    1  0.4438654E+006  0.2589270E+02  0.7546771E-02  0.1648501E+00
         21   -1    0    0  503  501  0.00000000000E+00  0.00000000000E+00  0.87286836846E+01  0.87286836846E+01  0.00000000000E+00 0.  1.
         21   -1    0    0  504  502 -0.00000000000E+00 -0.00000000000E+00 -0.81411370167E+02  0.81411370167E+02  0.00000000000E+00 0.  1.
         21    1    1    2  503  502  0.12941595142E+02  0.22426478118E+02 -0.25623972224E+02  0.36428282393E+02  0.00000000000E+00 0.  1.
         21    1    1    2  504  501 -0.12941595142E+02 -0.22426478118E+02 -0.47058714258E+02  0.53711771458E+02  0.00000000000E+00 0.  1.
<mgrwt>
<rscale>  2 0.25892698E+02</rscale>
<asrwt>0</asrwt>
<pdfrwt beam="1">  1       21 0.13428744E-02 0.25892698E+02</pdfrwt>
<pdfrwt beam="2">  1       21 0.12524826E-01 0.25892698E+02</pdfrwt>
<totfact> 0.90756137E+07</totfact>
</mgrwt>
</event>
<event>
 4    1  0.4438654E+006  0.3683950E+02  0.7546771E-02  0.1532847E+00
         21   -1    0    0  503  501  0.00000000000E+00  0.00000000000E+00  0.29168619759E+03  0.29168619759E+03  0.00000000000E+00 0. -1.
         21   -1    0    0  504  502 -0.00000000000E+00 -0.00000000000E+00 -0.22718587336E+02  0.22718587336E+02  0.00000000000E+00 0. -1.
         21    1    1    2  503  502 -0.16480612825E+02 -0.32947504562E+02 -0.56998251867E+01  0.37277830719E+02  0.00000000000E+00 0. -1.
         21    1    1    2  504  501  0.16480612825E+02  0.32947504562E+02  0.27466743544E+03  0.27712695421E+03  0.00000000000E+00 0. -1.
<mgrwt>
<rscale>  2 0.36839499E+02</rscale>
<asrwt>0</asrwt>
<pdfrwt beam="1">  1       21 0.44874797E-01 0.36839499E+02</pdfrwt>
<pdfrwt beam="2">  1       21 0.34951675E-02 0.36839499E+02</pdfrwt>
<totfact> 0.21793136E+06</totfact>
</mgrwt>
</event>
<event>
 4    1  0.4438654E+006  0.3331465E+02  0.7546771E-02  0.1564097E+00
         21   -1    0    0  504  501  0.00000000000E+00  0.00000000000E+00  0.88566742883E+03  0.88566742883E+03  0.00000000000E+00 0.  1.
         21   -1    0    0  501  502 -0.00000000000E+00 -0.00000000000E+00 -0.10035712442E+02  0.10035712442E+02  0.00000000000E+00 0. -1.
         21    1    1    2  503  502 -0.29337182383E+02 -0.15785940951E+02  0.18857516465E+02  0.38281485461E+02  0.00000000000E+00 0. -1.
         21    1    1    2  504  503  0.29337182383E+02  0.15785940951E+02  0.85677419992E+03  0.85742165581E+03  0.00000000000E+00 0.  1.
<mgrwt>
<rscale>  2 0.33314654E+02</rscale>
<asrwt>0</asrwt>
<pdfrwt beam="1">  1       21 0.13625647E+00 0.33314654E+02</pdfrwt>
<pdfrwt beam="2">  1       21 0.15439565E-02 0.33314654E+02</pdfrwt>
<totfact> 0.72421049E+05</totfact>
</mgrwt>
</event>
<event>
 4    1  0.4438654E+006  0.2241608E+02  0.7546771E-02  0.1701154E+00
         21   -1    0    0  503  501  0.00000000000E+00  0.00000000000E+00  0.12601168349E+03  0.12601168349E+03  0.00000000000E+00 0.  1.
         21   -1    0    0  504  502 -0.00000000000E+00 -0.00000000000E+00 -0.78528351420E+01  0.78528351420E+01  0.00000000000E+00 0.  1.
         21    1    1    2  503  502  0.21185289617E+02 -0.73255961884E+01  0.10603765116E+03  0.10838110683E+03  0.00000000000E+00 0.  1.
         21    1    1    2  504  501 -0.21185289617E+02  0.73255961884E+01  0.12121197196E+02  0.25483411803E+02  0.00000000000E+00 0.  1.
<mgrwt>
<rscale>  2 0.22416085E+02</rscale>
<asrwt>0</asrwt>
<pdfrwt beam="1">  1       21 0.19386411E-01 0.22416085E+02</pdfrwt>
<pdfrwt beam="2">  1       21 0.12081286E-02 0.22416085E+02</pdfrwt>
<totfact> 0.48601366E+07</totfact>
</mgrwt>
</event>
<event>
 4    1  0.4438654E+006  0.2382645E+02  0.7546771E-02  0.1678454E+00
         21   -1    0    0  503  501  0.00000000000E+00  0.00000000000E+00  0.11701182404E+03  0.11701182404E+03  0.00000000000E+00 0. -1.
         21   -1    0    0  504  502 -0.00000000000E+00 -0.00000000000E+00 -0.54156871906E+01  0.54156871906E+01  0.00000000000E+00 0. -1.
         21    1    1    2  503  502 -0.16139922900E+02 -0.17527192211E+02  0.75553151819E+02  0.79221072499E+02  0.00000000000E+00 0. -1.
         21    1    1    2  504  501  0.16139922900E+02  0.17527192211E+02  0.36042985033E+02  0.43206438734E+02  0.00000000000E+00 0. -1.
<mgrwt>
<rscale>  2 0.23826447E+02</rscale>
<asrwt>0</asrwt>
<pdfrwt beam="1">  1       21 0.18001817E-01 0.23826447E+02</pdfrwt>
<pdfrwt beam="2">  1       21 0.83318273E-03 0.23826447E+02</pdfrwt>
<totfact> 0.98153203E+07</totfact>
</mgrwt>
</event>
<event>
 4    1  0.4438654E+006  0.2049272E+02  0.7546771E-02  0.1735704E+00
         21   -1    0    0  503  501  0.00000000000E+00  0.00000000000E+00  0.36730701835E+02  0.36730701835E+02  0.00000000000E+00 0. -1.
         21   -1    0    0  501  502 -0.00000000000E+00 -0.00000000000E+00 -0.14256521690E+03  0.14256521690E+03  0.00000000000E+00 0. -1.
         21    1    1    2  503  504 -0.11187556113E+02 -0.17169451593E+02  0.33060853275E+02  0.38896934315E+02  0.00000000000E+00 0. -1.
         21    1    1    2  504  502  0.11187556113E+02  0.17169451593E+02 -0.13889536834E+03  0.14039898442E+03  0.00000000000E+00 0. -1.
<mgrwt>
<rscale>  2 0.20492718E+02</rscale>
<asrwt>0</asrwt>
<pdfrwt beam="1">  1       21 0.56508772E-02 0.20492718E+02</pdfrwt>
<pdfrwt beam="2">  1       21 0.21933110E-01 0.20492718E+02</pdfrwt>
<totfact> 0.35373585E+06</totfact>
</mgrwt>
</event>
<event>
 4    1  0.4438654E+006  0.2281601E+02  0.7546771E-02  0.1694510E+00
         21   -1    0    0  503  501  0.00000000000E+00  0.00000000000E+00  0.10535703042E+02  0.10535703042E+02  0.00000000000E+00 0.  1.
         21   -1    0    0  504  502 -0.00000000000E+00 -0.00000000000E+00 -0.13236555940E+03  0.13236555940E+03  0.00000000000E+00 0.  1.
         21    1    1    2  503  502  0.19759362139E+02  0.11407805123E+02 -0.43508140719E+01  0.23227139147E+02  0.00000000000E+00 0.  1.
         21    1    1    2  504  501 -0.19759362139E+02 -0.11407805123E+02 -0.11747904229E+03  0.11967412330E+03  0.00000000000E+00 0.  1.
<mgrwt>
<rscale>  2 0.22816012E+02</rscale>
<asrwt>0</asrwt>
<pdfrwt beam="1">  1       21 0.16208773E-02 0.22816012E+02</pdfrwt>
<pdfrwt beam="2">  1       21 0.20363933E-01 0.22816012E+02</pdfrwt>
<totfact> 0.28694233E+07</totfact>
</mgrwt>
</event>
<event>
 4    1  0.4438654E+006  0.3878603E+02  0.7546771E-02  0.1517340E+00
         21   -1    0    0  504  501  0.00000000000E+00  0.00000000000E+00  0.31488575702E+02  0.31488575702E+02  0.00000000000E+00 0. -1.
         21   -1    0    0  503  502 -0.00000000000E+00 -0.00000000000E+00 -0.27307335621E+03  0.27307335621E+03  0.00000000000E+00 0. -1.
         21    1    1    2  503  501  0.38786015520E+02 -0.35506998499E-01  0.17527708448E+02  0.42562622383E+02  0.00000000000E+00 0. -1.
         21    1    1    2  504  502 -0.38786015520E+02  0.35506998499E-01 -0.25911248896E+03  0.26199930953E+03  0.00000000000E+00 0. -1.
<mgrwt>
<rscale>  2 0.38786032E+02</rscale>
<asrwt>0</asrwt>
<pdfrwt beam="1">  1       21 0.48443965E-02 0.38786032E+02</pdfrwt>
<pdfrwt beam="2">  1       21 0.42011284E-01 0.38786032E+02</pdfrwt>
<totfact> 0.14719238E+06</totfact>
</mgrwt>
</event>
<event>
 4    1  0.4438654E+006  0.3138402E+02  0.7546771E-02  0.1583275E+00
         21   -1    0    0  504  501  0.00000000000E+00  0.00000000000E+00  0.54091206932E+02  0.54091206932E+02  0.00000000000E+00 0.  1.
         21   -1    0    0  503  502 -0.00000000000E+00 -0.00000000000E+00 -0.47772712564E+02  0.47772712564E+02  0.00000000000E+00 0. -1.
         21    1    1    2  503  501 -0.30517131546E+02 -0.73254032104E+01 -0.36906989809E+02  0.48446700060E+02  0.00000000000E+00 0. -1.
         21    1    1    2  504  502  0.30517131546E+02  0.73254032104E+01  0.43225484176E+02  0.53417219436E+02  0.00000000000E+00 0.  1.
<mgrwt>
<rscale>  2 0.31384022E+02</rscale>
<asrwt>0</asrwt>
<pdfrwt beam="1">  1       21 0.83217242E-02 0.31384022E+02</pdfrwt>
<pdfrwt beam="2">  1       21 0.73496481E-02 0.31384022E+02</pdfrwt>
<totfact> 0.12857292E+07</totfact>
</mgrwt>
</event>
<event>
 4    1  0.4438654E+006  0.2200303E+02  0.7546771E-02  0.1708200E+00
         21   -1    0    0  503  501  0.00000000000E+00  0.00000000000E+00  0.10102591834E+04  0.10102591834E+04  0.00000000000E+00 0.  1.
         21   -1    0    0  504  502 -0.00000000000E+00 -0.00000000000E+00 -0.83886963991E+00  0.83886963991E+00  0.00000000000E+00 0.  1.
         21    1    1    2  503  502  0.13943662342E+02  0.17020794361E+02  0.83573287065E+03  0.83602246635E+03  0.00000000000E+00 0.  1.
         21    1    1    2  504  501 -0.13943662342E+02 -0.17020794361E+02  0.17368744316E+03  0.17507558674E+03  0.00000000000E+00 0.  1.
<mgrwt>
<rscale>  2 0.22003026E+02</rscale>
<asrwt>0</asrwt>
<pdfrwt beam="1">  1       21 0.15542352E+00 0.22003026E+02</pdfrwt>
<pdfrwt beam="2">  1       21 0.12905768E-03 0.22003026E+02</pdfrwt>
<totfact> 0.20023629E+07</totfact>
</mgrwt>
</event>
<event>
 4    1  0.4438654E+006  0.5457618E+02  0.7546771E-02  0.1422114E+00
         21   -1    0    0  503  501  0.00000000000E+00  0.00000000000E+00  0.19264498738E+03  0.19264498738E+03  0.00000000000E+00 0. -1.
         21   -1    0    0  501  502 -0.00000000000E+00 -0.00000000000E+00 -0.20536785660E+02  0.20536785660E+02  0.00000000000E+00 0.  1.
         21    1    1    2  503  504  0.37799373859E+02  0.39367081848E+02  0.13904346113E+03  0.14937082674E+03  0.00000000000E+00 0. -1.
         21    1    1    2  504  502 -0.37799373859E+02 -0.39367081848E+02  0.33064740585E+02  0.63810946297E+02  0.00000000000E+00 0.  1.
<mgrwt>
<rscale>  2 0.54576183E+02</rscale>
<asrwt>0</asrwt>
<pdfrwt beam="1">  1       21 0.29637689E-01 0.54576183E+02</pdfrwt>
<pdfrwt beam="2">  1       21 0.31595056E-02 0.54576183E+02</pdfrwt>
<totfact> 0.58632068E+06</totfact>
</mgrwt>
</event>
<event>
 4    1  0.4438654E+006  0.2139822E+02  0.7546771E-02  0.1718872E+00
         21   -1    0    0  503  501  0.00000000000E+00  0.00000000000E+00  0.82844236097E+01  0.82844236097E+01  0.00000000000E+00 0.  1.
         21   -1    0    0  504  502 -0.00000000000E+00 -0.00000000000E+00 -0.12792093839E+03  0.12792093839E+03  0.00000000000E+00 0.  1.
         21    1    1    2  503  502 -0.97381482103E+01 -0.19053929097E+02 -0.84951802170E+01  0.23022854548E+02  0.00000000000E+00 0.  1.
         21    1    1    2  504  501  0.97381482103E+01  0.19053929097E+02 -0.11114133457E+03  0.11318250746E+03  0.00000000000E+00 0.  1.
<mgrwt>
<rscale>  2 0.21398218E+02</rscale>
<asrwt>0</asrwt>
<pdfrwt beam="1">  1       21 0.12745268E-02 0.21398218E+02</pdfrwt>
<pdfrwt beam="2">  1       21 0.19680143E-01 0.21398218E+02</pdfrwt>
<totfact> 0.43167899E+07</totfact>
</mgrwt>
</event>
<event>
 4    1  0.4438654E+006  0.2085362E+02  0.7546771E-02  0.1728867E+00
         21   -1    0    0  503  501  0.00000000000E+00  0.00000000000E+00  0.90968907913E+03  0.90968907913E+03  0.00000000000E+00 0. -1.
         21   -1    0    0  504  502 -0.00000000000E+00 -0.00000000000E+00 -0.10475354242E+01  0.10475354242E+01  0.00000000000E+00 0.  1.
         21    1    1    2  503  502  0.15413899428E+02  0.14045828868E+02  0.79007470985E+03  0.79034987236E+03  0.00000000000E+00 0. -1.
         21    1    1    2  504  501 -0.15413899428E+02 -0.14045828868E+02  0.11856683386E+03  0.12038674219E+03  0.00000000000E+00 0.  1.
<mgrwt>
<rscale>  2 0.20853623E+02</rscale>
<asrwt>0</asrwt>
<pdfrwt beam="1">  1       21 0.13995153E+00 0.20853623E+02</pdfrwt>
<pdfrwt beam="2">  1       21 0.16116002E-03 0.20853623E+02</pdfrwt>
<totfact> 0.18470087E+07</totfact>
</mgrwt>
</event>
<event>
 4    1  0.4438654E+006  0.2473305E+02  0.7546771E-02  0.1664866E+00
         21   -1    0    0  502  501  0.00000000000E+00  0.00000000000E+00  0.12644938306E+03  0.12644938306E+03  0.00000000000E+00 0. -1.
         21   -1    0    0  503  502 -0.00000000000E+00 -0.00000000000E+00 -0.16435681679E+03  0.16435681679E+03  0.00000000000E+00 0.  1.
         21    1    1    2  503  504 -0.16931206954E+02  0.18029364238E+02 -0.16220092875E+03  0.16407579051E+03  0.00000000000E+00 0.  1.
         21    1    1    2  504  501  0.16931206954E+02 -0.18029364238E+02  0.12429349503E+03  0.12673040933E+03  0.00000000000E+00 0. -1.
<mgrwt>
<rscale>  2 0.24733050E+02</rscale>
<asrwt>0</asrwt>
<pdfrwt beam="1">  1       21 0.19453751E-01 0.24733050E+02</pdfrwt>
<pdfrwt beam="2">  1       21 0.25285664E-01 0.24733050E+02</pdfrwt>
<totfact> 0.35940863E+05</totfact>
</mgrwt>
</event>
<event>
 4    1  0.4438654E+006  0.2082427E+02  0.7546771E-02  0.1729416E+00
         21   -1    0    0  504  501  0.00000000000E+00  0.00000000000E+00  0.37147475789E+02  0.37147475789E+02  0.00000000000E+00 0. -1.
         21   -1    0    0  503  502 -0.00000000000E+00 -0.00000000000E+00 -0.39891678533E+02  0.39891678533E+02  0.00000000000E+00 0. -1.
         21    1    1    2  503  501 -0.90008067293E+01  0.18778596656E+02  0.31024760753E+02  0.37365572308E+02  0.00000000000E+00 0. -1.
         21    1    1    2  504  502  0.90008067293E+01 -0.18778596656E+02 -0.33768963497E+02  0.39673582014E+02  0.00000000000E+00 0. -1.
<mgrwt>
<rscale>  2 0.20824270E+02</rscale>
<asrwt>0</asrwt>
<pdfrwt beam="1">  1       21 0.57149963E-02 0.20824270E+02</pdfrwt>
<pdfrwt beam="2">  1       21 0.61371813E-02 0.20824270E+02</pdfrwt>
<totfact> 0.29143005E+07</totfact>
</mgrwt>
</event>
<event>
 4    1  0.4438654E+006  0.2005054E+02  0.7546771E-02  0.1744325E+00
         21   -1    0    0  504  501  0.00000000000E+00  0.00000000000E+00  0.36390624073E+02  0.36390624073E+02  0.00000000000E+00 0. -1.
         21   -1    0    0  503  502 -0.00000000000E+00 -0.00000000000E+00 -0.11347366996E+02  0.11347366996E+02  0.00000000000E+00 0. -1.
         21    1    1    2  503  501  0.12039625119E+02  0.16033446116E+02  0.16402058247E+02  0.25904661397E+02  0.00000000000E+00 0. -1.
         21    1    1    2  504  502 -0.12039625119E+02 -0.16033446116E+02  0.86411988306E+01  0.21833329672E+02  0.00000000000E+00 0. -1.
<mgrwt>
<rscale>  2 0.20050535E+02</rscale>
<asrwt>0</asrwt>
<pdfrwt beam="1">  1       21 0.55985575E-02 0.20050535E+02</pdfrwt>
<pdfrwt beam="2">  1       21 0.17457488E-02 0.20050535E+02</pdfrwt>
<totfact> 0.21093511E+08</totfact>
</mgrwt>
</event>
<event>
 4    1  0.4438654E+006  0.3102877E+02  0.7546771E-02  0.1586988E+00
         21   -1    0    0  504  501  0.00000000000E+00  0.00000000000E+00  0.75836124190E+02  0.75836124190E+02  0.00000000000E+00 0. -1.
         21   -1    0    0  503  502 -0.00000000000E+00 -0.00000000000E+00 -0.73035599394E+02  0.73035599394E+02  0.00000000000E+00 0.  1.
         21    1    1    2  503  501  0.27304374700E+02 -0.14739604126E+02 -0.66257493134E+02  0.73163106850E+02  0.00000000000E+00 0.  1.
         21    1    1    2  504  502 -0.27304374700E+02  0.14739604126E+02  0.69058017929E+02  0.75708616735E+02  0.00000000000E+00 0. -1.
<mgrwt>
<rscale>  2 0.31028774E+02</rscale>
<asrwt>0</asrwt>
<pdfrwt beam="1">  1       21 0.11667096E-01 0.31028774E+02</pdfrwt>
<pdfrwt beam="2">  1       21 0.11236246E-01 0.31028774E+02</pdfrwt>
<totfact> 0.35983277E+06</totfact>
</mgrwt>
</event>
<event>
 4    1  0.4438654E+006  0.2096004E+02  0.7546771E-02  0.1726884E+00
         21   -1    0    0  502  501  0.00000000000E+00  0.00000000000E+00  0.15572845001E+03  0.15572845001E+03  0.00000000000E+00 0. -1.
         21   -1    0    0  504  502 -0.00000000000E+00 -0.00000000000E+00 -0.11584710351E+02  0.11584710351E+02  0.00000000000E+00 0. -1.
         21    1    1    2  503  501 -0.20479927536E+02 -0.44604780227E+01  0.14483299434E+03  0.14634179016E+03  0.00000000000E+00 0. -1.
         21    1    1    2  504  503  0.20479927536E+02  0.44604780227E+01 -0.68925468662E+00  0.20971370201E+02  0.00000000000E+00 0. -1.
<mgrwt>
<rscale>  2 0.20960040E+02</rscale>
<asrwt>0</asrwt>
<pdfrwt beam="1">  1       21 0.23958222E-01 0.20960040E+02</pdfrwt>
<pdfrwt beam="2">  1       21 0.17822632E-02 0.20960040E+02</pdfrwt>
<totfact> 0.18308528E+07</totfact>
</mgrwt>
</event>
<event>
 4    1  0.4438654E+006  0.3069875E+02  0.7546771E-02  0.1590491E+00
         21   -1    0    0  503  501  0.00000000000E+00  0.00000000000E+00  0.79219143247E+01  0.79219143247E+01  0.00000000000E+00 0. -1.
         21   -1    0    0  504  502 -0.00000000000E+00 -0.00000000000E+00 -0.19820425082E+03  0.19820425082E+03  0.00000000000E+00 0.  1.
         21    1    1    2  503  502  0.53122908993E+01 -0.30235625692E+02 -0.29974919584E+02  0.42905818949E+02  0.00000000000E+00 0. -1.
         21    1    1    2  504  501 -0.53122908993E+01  0.30235625692E+02 -0.16030741691E+03  0.16322034619E+03  0.00000000000E+00 0.  1.
<mgrwt>
<rscale>  2 0.30698754E+02</rscale>
<asrwt>0</asrwt>
<pdfrwt beam="1">  1       21 0.12187561E-02 0.30698754E+02</pdfrwt>
<pdfrwt beam="2">  1       21 0.30492960E-01 0.30698754E+02</pdfrwt>
<totfact> 0.22832098E+07</totfact>
</mgrwt>
</event>
<event>
 4    1  0.4438654E+006  0.3106026E+02  0.7546771E-02  0.1586656E+00
         21   -1    0    0  504  501  0.00000000000E+00  0.00000000000E+00  0.14188944838E+01  0.14188944838E+01  0.00000000000E+00 0.  1.
         21   -1    0    0  503  502 -0.00000000000E+00 -0.00000000000E+00 -0.73259922670E+03  0.73259922670E+03  0.00000000000E+00 0.  1.
         21    1    1    2  503  501 -0.18638921589E+02  0.24846130463E+02 -0.46400241031E+03  0.46504083301E+03  0.00000000000E+00 0.  1.
         21    1    1    2  504  502  0.18638921589E+02 -0.24846130463E+02 -0.26717792190E+03  0.26897728816E+03  0.00000000000E+00 0.  1.
<mgrwt>
<rscale>  2 0.31060258E+02</rscale>
<asrwt>0</asrwt>
<pdfrwt beam="1">  1       21 0.21829145E-03 0.31060258E+02</pdfrwt>
<pdfrwt beam="2">  1       21 0.11270758E+00 0.31060258E+02</pdfrwt>
<totfact> 0.20923326E+07</totfact>
</mgrwt>
</event>
<event>
 4    1  0.4438654E+006  0.3057490E+02  0.7546771E-02  0.1591819E+00
         21   -1    0    0  503  501  0.00000000000E+00  0.00000000000E+00  0.82254127529E+02  0.82254127529E+02  0.00000000000E+00 0. -1.
         21   -1    0    0  504  502 -0.00000000000E+00 -0.00000000000E+00 -0.11638206422E+02  0.11638206422E+02  0.00000000000E+00 0. -1.
         21    1    1    2  503  502 -0.15363929006E+02 -0.26434337625E+02  0.42499818336E+02  0.52355124666E+02  0.00000000000E+00 0. -1.
         21    1    1    2  504  501  0.15363929006E+02  0.26434337625E+02  0.28116102771E+02  0.41537209285E+02  0.00000000000E+00 0. -1.
<mgrwt>
<rscale>  2 0.30574900E+02</rscale>
<asrwt>0</asrwt>
<pdfrwt beam="1">  1       21 0.12654481E-01 0.30574900E+02</pdfrwt>
<pdfrwt beam="2">  1       21 0.17904934E-02 0.30574900E+02</pdfrwt>
<totfact> 0.59739046E+07</totfact>
</mgrwt>
</event>
<event>
 4    1  0.4438654E+006  0.2646553E+02  0.7546771E-02  0.1640802E+00
         21   -1    0    0  502  501  0.00000000000E+00  0.00000000000E+00  0.31374514294E+03  0.31374514294E+03  0.00000000000E+00 0.  1.
         21   -1    0    0  503  502 -0.00000000000E+00 -0.00000000000E+00 -0.40039708788E+01  0.40039708788E+01  0.00000000000E+00 0.  1.
         21    1    1    2  503  504  0.22600949955E+02  0.13770309956E+02  0.49193589870E+02  0.55860841915E+02  0.00000000000E+00 0.  1.
         21    1    1    2  504  501 -0.22600949955E+02 -0.13770309956E+02  0.26054758219E+03  0.26188827190E+03  0.00000000000E+00 0.  1.
<mgrwt>
<rscale>  2 0.26465532E+02</rscale>
<asrwt>0</asrwt>
<pdfrwt beam="1">  1       21 0.48268464E-01 0.26465532E+02</pdfrwt>
<pdfrwt beam="2">  1       21 0.61599577E-03 0.26465532E+02</pdfrwt>
<totfact> 0.26032276E+07</totfact>
</mgrwt>
</event>
<event>
 4    1  0.4438654E+006  0.2361198E+02  0.7546771E-02  0.1681778E+00
         21   -1    0    0  502  501  0.00000000000E+00  0.00000000000E+00  0.74266737533E+02  0.74266737533E+02  0.00000000000E+00 0. -1.
         21   -1    0    0  504  502 -0.00000000000E+00 -0.00000000000E+00 -0.14099700280E+02  0.14099700280E+02  0.00000000000E+00 0. -1.
         21    1    1    2  503  501 -0.18346015392E+02 -0.14864356396E+02  0.60295685345E+02  0.64754112171E+02  0.00000000000E+00 0. -1.
         21    1    1    2  504  503  0.18346015392E+02  0.14864356396E+02 -0.12864809248E+00  0.23612325641E+02  0.00000000000E+00 0. -1.
<mgrwt>
<rscale>  2 0.23611975E+02</rscale>
<asrwt>0</asrwt>
<pdfrwt beam="1">  1       21 0.11425652E-01 0.23611975E+02</pdfrwt>
<pdfrwt beam="2">  1       21 0.21691847E-02 0.23611975E+02</pdfrwt>
<totfact> 0.49652555E+07</totfact>
</mgrwt>
</event>
<event>
 4    1  0.4438654E+006  0.3017490E+02  0.7546771E-02  0.1596163E+00
         21   -1    0    0  503  501  0.00000000000E+00  0.00000000000E+00  0.22520688155E+02  0.22520688155E+02  0.00000000000E+00 0. -1.
         21   -1    0    0  504  502 -0.00000000000E+00 -0.00000000000E+00 -0.54016647645E+02  0.54016647645E+02  0.00000000000E+00 0.  1.
         21    1    1    2  503  502  0.25122355498E+02  0.16715010161E+02 -0.34940258409E+02  0.46166502663E+02  0.00000000000E+00 0.  1.
         21    1    1    2  504  501 -0.25122355498E+02 -0.16715010161E+02  0.34442989193E+01  0.30370833138E+02  0.00000000000E+00 0. -1.
<mgrwt>
<rscale>  2 0.30174895E+02</rscale>
<asrwt>0</asrwt>
<pdfrwt beam="1">  1       21 0.34647213E-02 0.30174895E+02</pdfrwt>
<pdfrwt beam="2">  1       21 0.83102535E-02 0.30174895E+02</pdfrwt>
<totfact> 0.42967614E+07</totfact>
</mgrwt>
</event>
<event>
 4    1  0.4438654E+006  0.4618432E+02  0.7546771E-02  0.1467081E+00
         21   -1    0    0  502  501  0.00000000000E+00  0.00000000000E+00  0.15832165015E+03  0.15832165015E+03  0.00000000000E+00 0. -1.
         21   -1    0    0  503  502 -0.00000000000E+00 -0.00000000000E+00 -0.44183061915E+02  0.44183061915E+02  0.00000000000E+00 0. -1.
         21    1    1    2  503  504  0.45605887524E+02  0.72866045656E+01 -0.27345968036E+02  0.53673024424E+02  0.00000000000E+00 0. -1.
         21    1    1    2  504  501 -0.45605887524E+02 -0.72866045656E+01  0.14148455627E+03  0.14883168764E+03  0.00000000000E+00 0. -1.
<mgrwt>
<rscale>  2 0.46184322E+02</rscale>
<asrwt>0</asrwt>
<pdfrwt beam="1">  1       21 0.24357177E-01 0.46184322E+02</pdfrwt>
<pdfrwt beam="2">  1       21 0.67973942E-02 0.46184322E+02</pdfrwt>
<totfact> 0.23826205E+06</totfact>
</mgrwt>
</event>
<event>
 4    1  0.4438654E+006  0.2227224E+02  0.7546771E-02  0.1703586E+00
         21   -1    0    0  503  501  0.00000000000E+00  0.00000000000E+00  0.30487718740E+02  0.30487718740E+02  0.00000000000E+00 0.  1.
         21   -1    0    0  504  502 -0.00000000000E+00 -0.00000000000E+00 -0.50508601453E+03  0.50508601453E+03  0.00000000000E+00 0.  1.
         21    1    1    2  503  502  0.49791261899E+01 -0.21708546668E+02  0.26139239752E+02  0.34341120408E+02  0.00000000000E+00 0.  1.
         21    1    1    2  504  501 -0.49791261899E+01  0.21708546668E+02 -0.50073753554E+03  0.50123261286E+03  0.00000000000E+00 0.  1.
<mgrwt>
<rscale>  2 0.22272240E+02</rscale>
<asrwt>0</asrwt>
<pdfrwt beam="1">  1       21 0.46904179E-02 0.22272240E+02</pdfrwt>
<pdfrwt beam="2">  1       21 0.77705546E-01 0.22272240E+02</pdfrwt>
<totfact> 0.43575289E+05</totfact>
</mgrwt>
</event>
<event>
 4    1  0.4438654E+006  0.6209194E+02  0.7546771E-02  0.1389257E+00
         21   -1    0    0  504  501  0.00000000000E+00  0.00000000000E+00  0.33765913652E+01  0.33765913652E+01  0.00000000000E+00 0. -1.
         21   -1    0    0  503  502 -0.00000000000E+00 -0.00000000000E+00 -0.11710607732E+04  0.11710607732E+04  0.00000000000E+00 0. -1.
         21    1    1    2  503  501  0.48268657931E+02 -0.39058239512E+02 -0.49102780670E+03  0.49493809347E+03  0.00000000000E+00 0. -1.
         21    1    1    2  504  502 -0.48268657931E+02  0.39058239512E+02 -0.67665637512E+03  0.67949927108E+03  0.00000000000E+00 0. -1.
<mgrwt>
<rscale>  2 0.62091943E+02</rscale>
<asrwt>0</asrwt>
<pdfrwt beam="1">  1       21 0.51947586E-03 0.62091943E+02</pdfrwt>
<pdfrwt beam="2">  1       21 0.18016310E+00 0.62091943E+02</pdfrwt>
<totfact> 0.19332181E+06</totfact>
</mgrwt>
</event>
<event>
 4    1  0.4438654E+006  0.3116079E+02  0.7546771E-02  0.1585601E+00
         21   -1    0    0  503  501  0.00000000000E+00  0.00000000000E+00  0.68921545520E+02  0.68921545520E+02  0.00000000000E+00 0. -1.
         21   -1    0    0  504  502 -0.00000000000E+00 -0.00000000000E+00 -0.58468092454E+02  0.58468092454E+02  0.00000000000E+00 0.  1.
         21    1    1    2  503  502  0.11536394475E+01  0.31139425956E+02  0.60719541894E+02  0.68248498156E+02  0.00000000000E+00 0. -1.
         21    1    1    2  504  501 -0.11536394475E+01 -0.31139425956E+02 -0.50266088828E+02  0.59141139817E+02  0.00000000000E+00 0.  1.
<mgrwt>
<rscale>  2 0.31160788E+02</rscale>
<asrwt>0</asrwt>
<pdfrwt beam="1">  1       21 0.10603315E-01 0.31160788E+02</pdfrwt>
<pdfrwt beam="2">  1       21 0.89950911E-02 0.31160788E+02</pdfrwt>
<totfact> 0.61396994E+06</totfact>
</mgrwt>
</event>
<event>
 4    1  0.4438654E+006  0.2066152E+02  0.7546771E-02  0.1732484E+00
         21   -1    0    0  504  501  0.00000000000E+00  0.00000000000E+00  0.39687864294E+02  0.39687864294E+02  0.00000000000E+00 0.  1.
         21   -1    0    0  503  502 -0.00000000000E+00 -0.00000000000E+00 -0.20747445583E+02  0.20747445583E+02  0.00000000000E+00 0.  1.
         21    1    1    2  503  501  0.99707396535E+01  0.18096484075E+02  0.30439512465E+02  0.36789431964E+02  0.00000000000E+00 0.  1.
         21    1    1    2  504  502 -0.99707396535E+01 -0.18096484075E+02 -0.11499093754E+02  0.23645877913E+02  0.00000000000E+00 0.  1.
<mgrwt>
<rscale>  2 0.20661519E+02</rscale>
<asrwt>0</asrwt>
<pdfrwt beam="1">  1       21 0.61058253E-02 0.20661519E+02</pdfrwt>
<pdfrwt beam="2">  1       21 0.31919147E-02 0.20661519E+02</pdfrwt>
<totfact> 0.73356949E+07</totfact>
</mgrwt>
</event>
<event>
 4    1  0.4438654E+006  0.2263604E+02  0.7546771E-02  0.1697479E+00
         21   -1    0    0  504  501  0.00000000000E+00  0.00000000000E+00  0.55841889852E+01  0.55841889852E+01  0.00000000000E+00 0. -1.
         21   -1    0    0  503  502 -0.00000000000E+00 -0.00000000000E+00 -0.23845841068E+03  0.23845841068E+03  0.00000000000E+00 0. -1.
         21    1    1    2  503  501  0.14943207989E+02  0.17002669187E+02 -0.21214461557E+03  0.21334884143E+03  0.00000000000E+00 0. -1.
         21    1    1    2  504  502 -0.14943207989E+02 -0.17002669187E+02 -0.20729606126E+02  0.30693758236E+02  0.00000000000E+00 0. -1.
<mgrwt>
<rscale>  2 0.22636038E+02</rscale>
<asrwt>0</asrwt>
<pdfrwt beam="1">  1       21 0.85910598E-03 0.22636038E+02</pdfrwt>
<pdfrwt beam="2">  1       21 0.36685910E-01 0.22636038E+02</pdfrwt>
<totfact> 0.25857107E+07</totfact>
</mgrwt>
</event>
<event>
 4    1  0.4438654E+006  0.2258670E+02  0.7546771E-02  0.1698298E+00
         21   -1    0    0  504  501  0.00000000000E+00  0.00000000000E+00  0.55487402390E+01  0.55487402390E+01  0.00000000000E+00 0. -1.
         21   -1    0    0  503  502 -0.00000000000E+00 -0.00000000000E+00 -0.59467444724E+03  0.59467444724E+03  0.00000000000E+00 0.  1.
         21    1    1    2  503  501  0.20541774580E+02  0.93911982564E+01 -0.57050106119E+03  0.57094800107E+03  0.00000000000E+00 0.  1.
         21    1    1    2  504  502 -0.20541774580E+02 -0.93911982564E+01 -0.18624645808E+02  0.29275186405E+02  0.00000000000E+00 0. -1.
<mgrwt>
<rscale>  2 0.22586702E+02</rscale>
<asrwt>0</asrwt>
<pdfrwt beam="1">  1       21 0.85365206E-03 0.22586702E+02</pdfrwt>
<pdfrwt beam="2">  1       21 0.91488407E-01 0.22586702E+02</pdfrwt>
<totfact> 0.42251386E+06</totfact>
</mgrwt>
</event>
<event>
 4    1  0.4438654E+006  0.2116212E+02  0.7546771E-02  0.1723159E+00
         21   -1    0    0  503  501  0.00000000000E+00  0.00000000000E+00  0.34439123250E+02  0.34439123250E+02  0.00000000000E+00 0. -1.
         21   -1    0    0  501  502 -0.00000000000E+00 -0.00000000000E+00 -0.76296208208E+02  0.76296208208E+02  0.00000000000E+00 0.  1.
         21    1    1    2  503  504  0.20842487972E+02 -0.36641680009E+01  0.29500526403E+02  0.36305874044E+02  0.00000000000E+00 0. -1.
         21    1    1    2  504  502 -0.20842487972E+02  0.36641680009E+01 -0.71357611360E+02  0.74429457415E+02  0.00000000000E+00 0.  1.
<mgrwt>
<rscale>  2 0.21162123E+02</rscale>
<asrwt>0</asrwt>
<pdfrwt beam="1">  1       21 0.52983267E-02 0.21162123E+02</pdfrwt>
<pdfrwt beam="2">  1       21 0.11737878E-01 0.21162123E+02</pdfrwt>
<totfact> 0.11451526E+07</totfact>
</mgrwt>
</event>
<event>
 4    1  0.4438654E+006  0.2399148E+02  0.7546771E-02  0.1675925E+00
         21   -1    0    0  502  501  0.00000000000E+00  0.00000000000E+00  0.97767238289E+01  0.97767238289E+01  0.00000000000E+00 0.  1.
         21   -1    0    0  504  502 -0.00000000000E+00 -0.00000000000E+00 -0.11842927076E+03  0.11842927076E+03  0.00000000000E+00 0.  1.
         21    1    1    2  503  501 -0.20404001263E+02 -0.12620140855E+02 -0.88682802768E+01  0.25578069079E+02  0.00000000000E+00 0.  1.
         21    1    1    2  504  503  0.20404001263E+02  0.12620140855E+02 -0.99784266653E+02  0.10262792551E+03  0.00000000000E+00 0.  1.
<mgrwt>
<rscale>  2 0.23991482E+02</rscale>
<asrwt>0</asrwt>
<pdfrwt beam="1">  1       21 0.15041113E-02 0.23991482E+02</pdfrwt>
<pdfrwt beam="2">  1       21 0.18219889E-01 0.23991482E+02</pdfrwt>
<totfact> 0.39491798E+07</totfact>
</mgrwt>
</event>
<event>
 4    1  0.4438654E+006  0.2235185E+02  0.7546771E-02  0.1702237E+00
         21   -1    0    0  504  501  0.00000000000E+00  0.00000000000E+00  0.76204585405E+02  0.76204585405E+02  0.00000000000E+00 0.  1.
         21   -1    0    0  503  502 -0.00000000000E+00 -0.00000000000E+00 -0.79185022755E+01  0.79185022755E+01  0.00000000000E+00 0.  1.
         21    1    1    2  503  501 -0.21162571690E+02 -0.71937932397E+01  0.51589846587E+02  0.56223814994E+02  0.00000000000E+00 0.  1.
         21    1    1    2  504  502  0.21162571690E+02  0.71937932397E+01  0.16696236543E+02  0.27899272686E+02  0.00000000000E+00 0.  1.
<mgrwt>
<rscale>  2 0.22351848E+02</rscale>
<asrwt>0</asrwt>
<pdfrwt beam="1">  1       21 0.11723782E-01 0.22351848E+02</pdfrwt>
<pdfrwt beam="2">  1       21 0.12182312E-02 0.22351848E+02</pdfrwt>
<totfact> 0.11288483E+08</totfact>
</mgrwt>
</event>
<event>
 4    1  0.4438654E+006  0.3364272E+02  0.7546771E-02  0.1560995E+00
         21   -1    0    0  503  501  0.00000000000E+00  0.00000000000E+00  0.50000841272E+02  0.50000841272E+02  0.00000000000E+00 0. -1.
         21   -1    0    0  501  502 -0.00000000000E+00 -0.00000000000E+00 -0.97720295076E+02  0.97720295076E+02  0.00000000000E+00 0.  1.
         21    1    1    2  503  504  0.12042629072E+02  0.31413498448E+02  0.40883451697E+02  0.52946099218E+02  0.00000000000E+00 0. -1.
         21    1    1    2  504  502 -0.12042629072E+02 -0.31413498448E+02 -0.88602905501E+02  0.94775037130E+02  0.00000000000E+00 0.  1.
<mgrwt>
<rscale>  2 0.33642723E+02</rscale>
<asrwt>0</asrwt>
<pdfrwt beam="1">  1       21 0.76924371E-02 0.33642723E+02</pdfrwt>
<pdfrwt beam="2">  1       21 0.15033892E-01 0.33642723E+02</pdfrwt>
<totfact> 0.44334169E+06</totfact>
</mgrwt>
</event>
<event>
 4    1  0.4438654E+006  0.2010460E+02  0.7546771E-02  0.1743256E+00
         21   -1    0    0  504  501  0.00000000000E+00  0.00000000000E+00  0.47221462100E+02  0.47221462100E+02  0.00000000000E+00 0.  1.
         21   -1    0    0  501  502 -0.00000000000E+00 -0.00000000000E+00 -0.34856199978E+03  0.34856199978E+03  0.00000000000E+00 0.  1.
         21    1    1    2  503  502 -0.13185576118E+02 -0.15176812075E+02 -0.34611710442E+03  0.34670051199E+03  0.00000000000E+00 0.  1.
         21    1    1    2  504  503  0.13185576118E+02  0.15176812075E+02  0.44776566732E+02  0.49082949897E+02  0.00000000000E+00 0.  1.
<mgrwt>
<rscale>  2 0.20104603E+02</rscale>
<asrwt>0</asrwt>
<pdfrwt beam="1">  1       21 0.72648403E-02 0.20104603E+02</pdfrwt>
<pdfrwt beam="2">  1       21 0.53624923E-01 0.20104603E+02</pdfrwt>
<totfact> 0.45442604E+05</totfact>
</mgrwt>
</event>
<event>
 4    1  0.4438654E+006  0.3342469E+02  0.7546771E-02  0.1563052E+00
         21   -1    0    0  504  501  0.00000000000E+00  0.00000000000E+00  0.21707346379E+02  0.21707346379E+02  0.00000000000E+00 0.  1.
         21   -1    0    0  503  502 -0.00000000000E+00 -0.00000000000E+00 -0.54907390367E+03  0.54907390367E+03  0.00000000000E+00 0. -1.
         21    1    1    2  503  501  0.31754540240E+02 -0.10433547597E+02  0.80028997217E+01  0.34369407112E+02  0.00000000000E+00 0.  1.
         21    1    1    2  504  502 -0.31754540240E+02  0.10433547597E+02 -0.53536945701E+03  0.53641184293E+03  0.00000000000E+00 0. -1.
<mgrwt>
<rscale>  2 0.33424688E+02</rscale>
<asrwt>0</asrwt>
<pdfrwt beam="1">  1       21 0.33395915E-02 0.33424688E+02</pdfrwt>
<pdfrwt beam="2">  1       21 0.84472916E-01 0.33424688E+02</pdfrwt>
<totfact> 0.63836778E+05</totfact>
</mgrwt>
</event>
<event>
 4    1  0.4438654E+006  0.2163726E+02  0.7546771E-02  0.1714602E+00
         21   -1    0    0  502  501  0.00000000000E+00  0.00000000000E+00  0.17120514855E+01  0.17120514855E+01  0.00000000000E+00 0. -1.
         21   -1    0    0  504  502 -0.00000000000E+00 -0.00000000000E+00 -0.46255492569E+03  0.46255492569E+03  0.00000000000E+00 0. -1.
         21    1    1    2  503  501  0.24304127449E+01  0.21500325351E+02 -0.81998652089E+02  0.84805364458E+02  0.00000000000E+00 0. -1.
         21    1    1    2  504  503 -0.24304127449E+01 -0.21500325351E+02 -0.37884422211E+03  0.37946161271E+03  0.00000000000E+00 0. -1.
<mgrwt>
<rscale>  2 0.21637257E+02</rscale>
<asrwt>0</asrwt>
<pdfrwt beam="1">  1       21 0.26339246E-03 0.21637257E+02</pdfrwt>
<pdfrwt beam="2">  1       21 0.71162316E-01 0.21637257E+02</pdfrwt>
<totfact> 0.40054645E+07</totfact>
</mgrwt>
</event>
<event>
 4    1  0.4438654E+006  0.3138543E+02  0.7546771E-02  0.1583261E+00
         21   -1    0    0  504  501  0.00000000000E+00  0.00000000000E+00  0.53998121534E+02  0.53998121534E+02  0.00000000000E+00 0. -1.
         21   -1    0    0  501  502 -0.00000000000E+00 -0.00000000000E+00 -0.17720407867E+03  0.17720407867E+03  0.00000000000E+00 0.  1.
         21    1    1    2  503  502  0.22982745876E+02  0.21373788775E+02 -0.17109225361E+03  0.17394713191E+03  0.00000000000E+00 0.  1.
         21    1    1    2  504  503 -0.22982745876E+02 -0.21373788775E+02  0.47886296477E+02  0.57255068290E+02  0.00000000000E+00 0. -1.
<mgrwt>
<rscale>  2 0.31385434E+02</rscale>
<asrwt>0</asrwt>
<pdfrwt beam="1">  1       21 0.83074034E-02 0.31385434E+02</pdfrwt>
<pdfrwt beam="2">  1       21 0.27262166E-01 0.31385434E+02</pdfrwt>
<totfact> 0.13494665E+06</totfact>
</mgrwt>
</event>
<event>
 4    1  0.4438654E+006  0.2919112E+02  0.7546771E-02  0.1607206E+00
         21   -1    0    0  502  501  0.00000000000E+00  0.00000000000E+00  0.10405636138E+02  0.10405636138E+02  0.00000000000E+00 0. -1.
         21   -1    0    0  503  502 -0.00000000000E+00 -0.00000000000E+00 -0.25992531389E+03  0.25992531389E+03  0.00000000000E+00 0. -1.
         21    1    1    2  503  504 -0.29114867876E+02 -0.21085868048E+01 -0.23662480104E+03  0.23841857758E+03  0.00000000000E+00 0. -1.
         21    1    1    2  504  501  0.29114867876E+02  0.21085868048E+01 -0.12894876716E+02  0.31912372448E+02  0.00000000000E+00 0. -1.
<mgrwt>
<rscale>  2 0.29191123E+02</rscale>
<asrwt>0</asrwt>
<pdfrwt beam="1">  1       21 0.16008672E-02 0.29191123E+02</pdfrwt>
<pdfrwt beam="2">  1       21 0.39988507E-01 0.29191123E+02</pdfrwt>
<totfact> 0.89778371E+06</totfact>
</mgrwt>
</event>
<event>
 4    1  0.4438654E+006  0.2085142E+02  0.7546771E-02  0.1728908E+00
         21   -1    0    0  504  501  0.00000000000E+00  0.00000000000E+00  0.50977740006E+02  0.50977740006E+02  0.00000000000E+00 0. -1.
         21   -1    0    0  501  502 -0.00000000000E+00 -0.00000000000E+00 -0.77883128274E+02  0.77883128274E+02  0.00000000000E+00 0. -1.
         21    1    1    2  503  502  0.18731166089E+02  0.91610699534E+01 -0.74253029494E+02  0.77125185088E+02  0.00000000000E+00 0. -1.
         21    1    1    2  504  503 -0.18731166089E+02 -0.91610699534E+01  0.47347641226E+02  0.51735683192E+02  0.00000000000E+00 0. -1.
<mgrwt>
<rscale>  2 0.20851422E+02</rscale>
<asrwt>0</asrwt>
<pdfrwt beam="1">  1       21 0.78427293E-02 0.20851422E+02</pdfrwt>
<pdfrwt beam="2">  1       21 0.11982020E-01 0.20851422E+02</pdfrwt>
<totfact> 0.58762689E+06</totfact>
</mgrwt>
</event>
<event>
 4    1  0.4438654E+006  0.2772477E+02  0.7546771E-02  0.1624692E+00
         21   -1    0    0  504  501  0.00000000000E+00  0.00000000000E+00  0.65381991643E+01  0.65381991643E+01  0.00000000000E+00 0. -1.
         21   -1    0    0  503  502 -0.00000000000E+00 -0.00000000000E+00 -0.16764759085E+03  0.16764759085E+03  0.00000000000E+00 0.  1.
         21    1    1    2  503  501 -0.15568743492E+02 -0.22940724364E+02 -0.12815700024E+03  0.13112162034E+03  0.00000000000E+00 0.  1.
         21    1    1    2  504  502  0.15568743492E+02  0.22940724364E+02 -0.32952391443E+02  0.43064169678E+02  0.00000000000E+00 0. -1.
<mgrwt>
<rscale>  2 0.27724765E+02</rscale>
<asrwt>0</asrwt>
<pdfrwt beam="1">  1       21 0.10058768E-02 0.27724765E+02</pdfrwt>
<pdfrwt beam="2">  1       21 0.25791937E-01 0.27724765E+02</pdfrwt>
<totfact> 0.40639480E+07</totfact>
</mgrwt>
</event>
<event>
 4    1  0.4438654E+006  0.2895234E+02  0.7546771E-02  0.1609966E+00
         21   -1    0    0  504  501  0.00000000000E+00  0.00000000000E+00  0.10297501502E+04  0.10297501502E+04  0.00000000000E+00 0.  1.
         21   -1    0    0  503  502 -0.00000000000E+00 -0.00000000000E+00 -0.80555730540E+01  0.80555730540E+01  0.00000000000E+00 0. -1.
         21    1    1    2  503  501 -0.14145836750E+02  0.25261304629E+02  0.10028343425E+04  0.10032521900E+04  0.00000000000E+00 0.  1.
         21    1    1    2  504  502  0.14145836750E+02 -0.25261304629E+02  0.18860234592E+02  0.34553533217E+02  0.00000000000E+00 0. -1.
<mgrwt>
<rscale>  2 0.28952344E+02</rscale>
<asrwt>0</asrwt>
<pdfrwt beam="1">  1       21 0.15842300E+00 0.28952344E+02</pdfrwt>
<pdfrwt beam="2">  1       21 0.12393197E-02 0.28952344E+02</pdfrwt>
<totfact> 0.70261592E+05</totfact>
</mgrwt>
</event>
<event>
 4    1  0.4438654E+006  0.2954308E+02  0.7546771E-02  0.1603195E+00
         21   -1    0    0  502  501  0.00000000000E+00  0.00000000000E+00  0.15093085538E+04  0.15093085538E+04  0.00000000000E+00 0. -1.
         21   -1    0    0  504  502 -0.00000000000E+00 -0.00000000000E+00 -0.83814331600E+00  0.83814331600E+00  0.00000000000E+00 0. -1.
         21    1    1    2  503  501  0.82357558894E+01 -0.28371924249E+02  0.11746786390E+04  0.11750500835E+04  0.00000000000E+00 0. -1.
         21    1    1    2  504  503 -0.82357558894E+01  0.28371924249E+02  0.33379177149E+03  0.33509661364E+03  0.00000000000E+00 0. -1.
<mgrwt>
<rscale>  2 0.29543083E+02</rscale>
<asrwt>0</asrwt>
<pdfrwt beam="1">  1       21 0.23219914E+00 0.29543083E+02</pdfrwt>
<pdfrwt beam="2">  1       21 0.12894633E-03 0.29543083E+02</pdfrwt>
<totfact> 0.74110207E+06</totfact>
</mgrwt>
</event>
<event>
 4    1  0.4438654E+006  0.4122440E+02  0.7546771E-02  0.1499390E+00
         21   -1    0    0  502  501  0.00000000000E+00  0.00000000000E+00  0.28156382302E+03  0.28156382302E+03  0.00000000000E+00 0. -1.
         21   -1    0    0  504  502 -0.00000000000E+00 -0.00000000000E+00 -0.15342448119E+02  0.15342448119E+02  0.00000000000E+00 0.  1.
         21    1    1    2  503  501  0.36491143766E+02 -0.19179358361E+02  0.24873246672E+03  0.25212554683E+03  0.00000000000E+00 0. -1.
         21    1    1    2  504  503 -0.36491143766E+02  0.19179358361E+02  0.17488908174E+02  0.44780724309E+02  0.00000000000E+00 0.  1.
<mgrwt>
<rscale>  2 0.41224402E+02</rscale>
<asrwt>0</asrwt>
<pdfrwt beam="1">  1       21 0.43317507E-01 0.41224402E+02</pdfrwt>
<pdfrwt beam="2">  1       21 0.23603768E-02 0.41224402E+02</pdfrwt>
<totfact> 0.43929061E+06</totfact>
</mgrwt>
</event>
<event>
 4    1  0.4438654E+006  0.2194861E+02  0.7546771E-02  0.1709142E+00
         21   -1    0    0  503  501  0.00000000000E+00  0.00000000000E+00  0.19439708985E+03  0.19439708985E+03  0.00000000000E+00 0.  1.
         21   -1    0    0  501  502 -0.00000000000E+00 -0.00000000000E+00 -0.23221056280E+02  0.23221056280E+02  0.00000000000E+00 0.  1.
         21    1    1    2  503  504  0.16561400141E+02 -0.14403520791E+02  0.18842732114E+03  0.18970133562E+03  0.00000000000E+00 0.  1.
         21    1    1    2  504  502 -0.16561400141E+02  0.14403520791E+02 -0.17251287571E+02  0.27916810503E+02  0.00000000000E+00 0.  1.
<mgrwt>
<rscale>  2 0.21948608E+02</rscale>
<asrwt>0</asrwt>
<pdfrwt beam="1">  1       21 0.29907243E-01 0.21948608E+02</pdfrwt>
<pdfrwt beam="2">  1       21 0.35724703E-02 0.21948608E+02</pdfrwt>
<totfact> 0.42445822E+06</totfact>
</mgrwt>
</event>
<event>
 4    1  0.4438654E+006  0.2131526E+02  0.7546771E-02  0.1720371E+00
         21   -1    0    0  503  501  0.00000000000E+00  0.00000000000E+00  0.89665799137E+02  0.89665799137E+02  0.00000000000E+00 0. -1.
         21   -1    0    0  501  502 -0.00000000000E+00 -0.00000000000E+00 -0.38871849040E+02  0.38871849040E+02  0.00000000000E+00 0.  1.
         21    1    1    2  503  504 -0.16077637466E+01  0.21254534706E+02  0.85330800750E+02  0.87952747009E+02  0.00000000000E+00 0. -1.
         21    1    1    2  504  502  0.16077637466E+01 -0.21254534706E+02 -0.34536850653E+02  0.40584901169E+02  0.00000000000E+00 0.  1.
<mgrwt>
<rscale>  2 0.21315256E+02</rscale>
<asrwt>0</asrwt>
<pdfrwt beam="1">  1       21 0.13794738E-01 0.21315256E+02</pdfrwt>
<pdfrwt beam="2">  1       21 0.59802845E-02 0.21315256E+02</pdfrwt>
<totfact> 0.72116673E+06</totfact>
</mgrwt>
</event>
<event>
 4    1  0.4438654E+006  0.3456022E+02  0.7546771E-02  0.1552541E+00
         21   -1    0    0  502  501  0.00000000000E+00  0.00000000000E+00  0.47839505394E+02  0.47839505394E+02  0.00000000000E+00 0.  1.
         21   -1    0    0  503  502 -0.00000000000E+00 -0.00000000000E+00 -0.16067328957E+03  0.16067328957E+03  0.00000000000E+00 0.  1.
         21    1    1    2  503  504  0.28285700257E+01  0.34444269302E+02 -0.15223131189E+03  0.15610503136E+03  0.00000000000E+00 0.  1.
         21    1    1    2  504  501 -0.28285700257E+01 -0.34444269302E+02  0.39397527713E+02  0.52407763605E+02  0.00000000000E+00 0.  1.
<mgrwt>
<rscale>  2 0.34560216E+02</rscale>
<asrwt>0</asrwt>
<pdfrwt beam="1">  1       21 0.73599238E-02 0.34560216E+02</pdfrwt>
<pdfrwt beam="2">  1       21 0.24718968E-01 0.34560216E+02</pdfrwt>
<totfact> 0.19857900E+06</totfact>
</mgrwt>
</event>
<event>
 4    1  0.4438654E+006  0.2226510E+02  0.7546771E-02  0.1703707E+00
         21   -1    0    0  503  501  0.00000000000E+00  0.00000000000E+00  0.43652605228E+01  0.43652605228E+01  0.00000000000E+00 0. -1.
         21   -1    0    0  504  502 -0.00000000000E+00 -0.00000000000E+00 -0.42746756576E+03  0.42746756576E+03  0.00000000000E+00 0. -1.
         21    1    1    2  503  502  0.22264842460E+02  0.10746942909E+00 -0.39657702680E+03  0.39720155204E+03  0.00000000000E+00 0. -1.
         21    1    1    2  504  501 -0.22264842460E+02 -0.10746942909E+00 -0.26525278442E+02  0.34631274246E+02  0.00000000000E+00 0. -1.
<mgrwt>
<rscale>  2 0.22265102E+02</rscale>
<asrwt>0</asrwt>
<pdfrwt beam="1">  1       21 0.67157841E-03 0.22265102E+02</pdfrwt>
<pdfrwt beam="2">  1       21 0.65764254E-01 0.22265102E+02</pdfrwt>
<totfact> 0.11991705E+07</totfact>
</mgrwt>
</event>
<event>
 4    1  0.4438654E+006  0.2502511E+02  0.7546771E-02  0.1660641E+00
         21   -1    0    0  504  501  0.00000000000E+00  0.00000000000E+00  0.30202354256E+03  0.30202354256E+03  0.00000000000E+00 0.  1.
         21   -1    0    0  503  502 -0.00000000000E+00 -0.00000000000E+00 -0.31564078371E+01  0.31564078371E+01  0.00000000000E+00 0. -1.
         21    1    1    2  503  501  0.23085007706E+02 -0.96611993061E+01  0.60058126278E+02  0.65063314431E+02  0.00000000000E+00 0. -1.
         21    1    1    2  504  502 -0.23085007706E+02  0.96611993061E+01  0.23880900845E+03  0.24011663597E+03  0.00000000000E+00 0.  1.
<mgrwt>
<rscale>  2 0.25025114E+02</rscale>
<asrwt>0</asrwt>
<pdfrwt beam="1">  1       21 0.46465138E-01 0.25025114E+02</pdfrwt>
<pdfrwt beam="2">  1       21 0.48560144E-03 0.25025114E+02</pdfrwt>
<totfact> 0.39433637E+07</totfact>
</mgrwt>
</event>
<event>
 4    1  0.4438654E+006  0.2828477E+02  0.7546771E-02  0.1617861E+00
         21   -1    0    0  504  501  0.00000000000E+00  0.00000000000E+00  0.36568835601E+03  0.36568835601E+03  0.00000000000E+00 0.  1.
         21   -1    0    0  503  502 -0.00000000000E+00 -0.00000000000E+00 -0.22144365014E+01  0.22144365014E+01  0.00000000000E+00 0.  1.
         21    1    1    2  503  501  0.25265529548E+02  0.12715400473E+02  0.20193725028E+03  0.20390851243E+03  0.00000000000E+00 0.  1.
         21    1    1    2  504  502 -0.25265529548E+02 -0.12715400473E+02  0.16153666923E+03  0.16399428008E+03  0.00000000000E+00 0.  1.
<mgrwt>
<rscale>  2 0.28284773E+02</rscale>
<asrwt>0</asrwt>
<pdfrwt beam="1">  1       21 0.56259699E-01 0.28284773E+02</pdfrwt>
<pdfrwt beam="2">  1       21 0.34068283E-03 0.28284773E+02</pdfrwt>
<totfact> 0.46880892E+07</totfact>
</mgrwt>
</event>
<event>
 4    1  0.4438654E+006  0.5740617E+02  0.7546771E-02  0.1409051E+00
         21   -1    0    0  502  501  0.00000000000E+00  0.00000000000E+00  0.27532662373E+02  0.27532662373E+02  0.00000000000E+00 0. -1.
         21   -1    0    0  504  502 -0.00000000000E+00 -0.00000000000E+00 -0.15285018731E+03  0.15285018731E+03  0.00000000000E+00 0.  1.
         21    1    1    2  503  501  0.35483114759E+02 -0.45126674843E+02 -0.20651846070E+02  0.61007925399E+02  0.00000000000E+00 0. -1.
         21    1    1    2  504  503 -0.35483114759E+02  0.45126674843E+02 -0.10466567887E+03  0.11937492429E+03  0.00000000000E+00 0.  1.
<mgrwt>
<rscale>  2 0.57406169E+02</rscale>
<asrwt>0</asrwt>
<pdfrwt beam="1">  1       21 0.42357942E-02 0.57406169E+02</pdfrwt>
<pdfrwt beam="2">  1       21 0.23515413E-01 0.57406169E+02</pdfrwt>
<totfact> 0.56301638E+06</totfact>
</mgrwt>
</event>
<event>
 4    1  0.4438654E+006  0.2405784E+02  0.7546771E-02  0.1674915E+00
         21   -1    0    0  504  501  0.00000000000E+00  0.00000000000E+00  0.13416480248E+03  0.13416480248E+03  0.00000000000E+00 0. -1.
         21   -1    0    0  503  502 -0.00000000000E+00 -0.00000000000E+00 -0.16240466426E+02  0.16240466426E+02  0.00000000000E+00 0.  1.
         21    1    1    2  503  501  0.12916369442E+02 -0.20296485042E+02 -0.54830441590E+01  0.24674757909E+02  0.00000000000E+00 0.  1.
         21    1    1    2  504  502 -0.12916369442E+02  0.20296485042E+02  0.12340738021E+03  0.12573051099E+03  0.00000000000E+00 0. -1.
<mgrwt>
<rscale>  2 0.24057845E+02</rscale>
<asrwt>0</asrwt>
<pdfrwt beam="1">  1       21 0.20640738E-01 0.24057845E+02</pdfrwt>
<pdfrwt beam="2">  1       21 0.24985334E-02 0.24057845E+02</pdfrwt>
<totfact> 0.14585192E+07</totfact>
</mgrwt>
</event>
<event>
 4    1  0.4438654E+006  0.2695128E+02  0.7546771E-02  0.1634460E+00
         21   -1    0    0  504  501  0.00000000000E+00  0.00000000000E+00  0.33370453151E+03  0.33370453151E+03  0.00000000000E+00 0. -1.
         21   -1    0    0  503  502 -0.00000000000E+00 -0.00000000000E+00 -0.37295550068E+01  0.37295550068E+01  0.00000000000E+00 0.  1.
         21    1    1    2  503  501  0.11850874760E+02  0.24205959997E+02  0.56120270245E+02  0.62256376897E+02  0.00000000000E+00 0.  1.
         21    1    1    2  504  502 -0.11850874760E+02 -0.24205959997E+02  0.27385470626E+03  0.27517770962E+03  0.00000000000E+00 0. -1.
<mgrwt>
<rscale>  2 0.26951284E+02</rscale>
<asrwt>0</asrwt>
<pdfrwt beam="1">  1       21 0.51339135E-01 0.26951284E+02</pdfrwt>
<pdfrwt beam="2">  1       21 0.57377796E-03 0.26951284E+02</pdfrwt>
<totfact> 0.25738583E+07</totfact>
</mgrwt>
</event>
<event>
 4    1  0.4438654E+006  0.2203641E+02  0.7546771E-02  0.1707623E+00
         21   -1    0    0  503  501  0.00000000000E+00  0.00000000000E+00  0.10412538406E+04  0.10412538406E+04  0.00000000000E+00 0. -1.
         21   -1    0    0  501  502 -0.00000000000E+00 -0.00000000000E+00 -0.29891001875E+01  0.29891001875E+01  0.00000000000E+00 0.  1.
         21    1    1    2  503  504  0.22012461960E+02  0.10270942706E+01  0.99879648295E+03  0.99903954765E+03  0.00000000000E+00 0. -1.
         21    1    1    2  504  502 -0.22012461960E+02 -0.10270942706E+01  0.39468257433E+02  0.45203393114E+02  0.00000000000E+00 0.  1.
<mgrwt>
<rscale>  2 0.22036411E+02</rscale>
<asrwt>0</asrwt>
<pdfrwt beam="1">  1       21 0.16019261E+00 0.22036411E+02</pdfrwt>
<pdfrwt beam="2">  1       21 0.45986240E-03 0.22036411E+02</pdfrwt>
<totfact> 0.29571771E+06</totfact>
</mgrwt>
</event>
<event>
 4    1  0.4438654E+006  0.2246027E+02  0.7546771E-02  0.1700411E+00
         21   -1    0    0  502  501  0.00000000000E+00  0.00000000000E+00  0.36230117098E+01  0.36230117098E+01  0.00000000000E+00 0.  1.
         21   -1    0    0  503  502 -0.00000000000E+00 -0.00000000000E+00 -0.85478254901E+03  0.85478254901E+03  0.00000000000E+00 0.  1.
         21    1    1    2  503  504  0.16873983936E+02  0.14823369158E+02 -0.81827245737E+03  0.81858064850E+03  0.00000000000E+00 0.  1.
         21    1    1    2  504  501 -0.16873983936E+02 -0.14823369158E+02 -0.32887079931E+02  0.39824912222E+02  0.00000000000E+00 0.  1.
<mgrwt>
<rscale>  2 0.22460267E+02</rscale>
<asrwt>0</asrwt>
<pdfrwt beam="1">  1       21 0.55738667E-03 0.22460267E+02</pdfrwt>
<pdfrwt beam="2">  1       21 0.13150495E+00 0.22460267E+02</pdfrwt>
<totfact> 0.35489318E+06</totfact>
</mgrwt>
</event>
<event>
 4    1  0.4438654E+006  0.2368693E+02  0.7546771E-02  0.1680611E+00
         21   -1    0    0  502  501  0.00000000000E+00  0.00000000000E+00  0.11347163619E+02  0.11347163619E+02  0.00000000000E+00 0. -1.
         21   -1    0    0  504  502 -0.00000000000E+00 -0.00000000000E+00 -0.83378202482E+02  0.83378202482E+02  0.00000000000E+00 0. -1.
         21    1    1    2  503  501 -0.22277277661E+01 -0.23581941170E+02 -0.58009300829E+01  0.24386912682E+02  0.00000000000E+00 0. -1.
         21    1    1    2  504  503  0.22277277661E+01  0.23581941170E+02 -0.66230108781E+02  0.70338453419E+02  0.00000000000E+00 0. -1.
<mgrwt>
<rscale>  2 0.23686931E+02</rscale>
<asrwt>0</asrwt>
<pdfrwt beam="1">  1       21 0.17457175E-02 0.23686931E+02</pdfrwt>
<pdfrwt beam="2">  1       21 0.12827416E-01 0.23686931E+02</pdfrwt>
<totfact> 0.57113162E+07</totfact>
</mgrwt>
</event>
<event>
 4    1  0.4438654E+006  0.4764337E+02  0.7546771E-02  0.1458483E+00
         21   -1    0    0  502  501  0.00000000000E+00  0.00000000000E+00  0.47698398519E+03  0.47698398519E+03  0.00000000000E+00 0. -1.
         21   -1    0    0  504  502 -0.00000000000E+00 -0.00000000000E+00 -0.11525218907E+02  0.11525218907E+02  0.00000000000E+00 0.  1.
         21    1    1    2  503  501 -0.18180300865E+02  0.44038252328E+02  0.41988216387E+03  0.42257652862E+03  0.00000000000E+00 0. -1.
         21    1    1    2  504  503  0.18180300865E+02 -0.44038252328E+02  0.45576602417E+02  0.65932675477E+02  0.00000000000E+00 0.  1.
<mgrwt>
<rscale>  2 0.47643373E+02</rscale>
<asrwt>0</asrwt>
<pdfrwt beam="1">  1       21 0.73382136E-01 0.47643373E+02</pdfrwt>
<pdfrwt beam="2">  1       21 0.17731110E-02 0.47643373E+02</pdfrwt>
<totfact> 0.23840358E+06</totfact>
</mgrwt>
</event>
<event>
 4    1  0.4438654E+006  0.2019250E+02  0.7546771E-02  0.1741527E+00
         21   -1    0    0  504  501  0.00000000000E+00  0.00000000000E+00  0.12243025962E+01  0.12243025962E+01  0.00000000000E+00 0. -1.
         21   -1    0    0  503  502 -0.00000000000E+00 -0.00000000000E+00 -0.34207585948E+03  0.34207585948E+03  0.00000000000E+00 0. -1.
         21    1    1    2  503  501  0.10225113456E+02 -0.17412179270E+02 -0.19832948017E+03  0.19935475825E+03  0.00000000000E+00 0. -1.
         21    1    1    2  504  502 -0.10225113456E+02  0.17412179270E+02 -0.14252207671E+03  0.14394540382E+03  0.00000000000E+00 0. -1.
<mgrwt>
<rscale>  2 0.20192497E+02</rscale>
<asrwt>0</asrwt>
<pdfrwt beam="1">  1       21 0.18835461E-03 0.20192497E+02</pdfrwt>
<pdfrwt beam="2">  1       21 0.52626955E-01 0.20192497E+02</pdfrwt>
<totfact> 0.11666119E+08</totfact>
</mgrwt>
</event>
<event>
 4    1  0.4438654E+006  0.2471352E+02  0.7546771E-02  0.1665151E+00
         21   -1    0    0  502  501  0.00000000000E+00  0.00000000000E+00  0.97590984740E+01  0.97590984740E+01  0.00000000000E+00 0.  1.
         21   -1    0    0  504  502 -0.00000000000E+00 -0.00000000000E+00 -0.26757291446E+03  0.26757291446E+03  0.00000000000E+00 0.  1.
         21    1    1    2  503  501 -0.14896124389E+02  0.19719629678E+02 -0.75359792271E+01  0.25836975430E+02  0.00000000000E+00 0.  1.
         21    1    1    2  504  503  0.14896124389E+02 -0.19719629678E+02 -0.25027783676E+03  0.25149503751E+03  0.00000000000E+00 0.  1.
<mgrwt>
<rscale>  2 0.24713525E+02</rscale>
<asrwt>0</asrwt>
<pdfrwt beam="1">  1       21 0.15014001E-02 0.24713525E+02</pdfrwt>
<pdfrwt beam="2">  1       21 0.41165054E-01 0.24713525E+02</pdfrwt>
<totfact> 0.91244220E+06</totfact>
</mgrwt>
</event>
<event>
 4    1  0.4438654E+006  0.2463400E+02  0.7546771E-02  0.1666315E+00
         21   -1    0    0  503  501  0.00000000000E+00  0.00000000000E+00  0.13705960439E+03  0.13705960439E+03  0.00000000000E+00 0.  1.
         21   -1    0    0  501  502 -0.00000000000E+00 -0.00000000000E+00 -0.29240095129E+02  0.29240095129E+02  0.00000000000E+00 0.  1.
         21    1    1    2  503  504  0.14164979617E+02  0.20154086082E+02  0.13050609447E+03  0.13281067173E+03  0.00000000000E+00 0.  1.
         21    1    1    2  504  502 -0.14164979617E+02 -0.20154086082E+02 -0.22686585209E+02  0.33489027782E+02  0.00000000000E+00 0.  1.
<mgrwt>
<rscale>  2 0.24633998E+02</rscale>
<asrwt>0</asrwt>
<pdfrwt beam="1">  1       21 0.21086093E-01 0.24633998E+02</pdfrwt>
<pdfrwt beam="2">  1       21 0.44984763E-02 0.24633998E+02</pdfrwt>
<totfact> 0.56113098E+06</totfact>
</mgrwt>
</event>
<event>
 4    1  0.4438654E+006  0.2559903E+02  0.7546771E-02  0.1652544E+00
         21   -1    0    0  504  501  0.00000000000E+00  0.00000000000E+00  0.31299502510E+03  0.31299502510E+03  0.00000000000E+00 0. -1.
         21   -1    0    0  503  502 -0.00000000000E+00 -0.00000000000E+00 -0.21836671138E+01  0.21836671138E+01  0.00000000000E+00 0. -1.
         21    1    1    2  503  501 -0.46568892262E+01  0.25171879559E+02  0.12341424444E+03  0.12604120702E+03  0.00000000000E+00 0. -1.
         21    1    1    2  504  502  0.46568892262E+01 -0.25171879559E+02  0.18739711355E+03  0.18913748519E+03  0.00000000000E+00 0. -1.
<mgrwt>
<rscale>  2 0.25599026E+02</rscale>
<asrwt>0</asrwt>
<pdfrwt beam="1">  1       21 0.48153045E-01 0.25599026E+02</pdfrwt>
<pdfrwt beam="2">  1       21 0.33594904E-03 0.25599026E+02</pdfrwt>
<totfact> 0.63613938E+07</totfact>
</mgrwt>
</event>
<event>
 4    1  0.4438654E+006  0.2723199E+02  0.7546771E-02  0.1630869E+00
         21   -1    0    0  503  501  0.00000000000E+00  0.00000000000E+00  0.83123074449E+01  0.83123074449E+01  0.00000000000E+00 0. -1.
         21   -1    0    0  504  502 -0.00000000000E+00 -0.00000000000E+00 -0.96495180167E+03  0.96495180167E+03  0.00000000000E+00 0. -1.
         21    1    1    2  503  502 -0.27163523088E+02  0.19298112495E+01 -0.14729017740E+02  0.30960056874E+02  0.00000000000E+00 0. -1.
         21    1    1    2  504  501  0.27163523088E+02 -0.19298112495E+01 -0.94191047648E+03  0.94230405224E+03  0.00000000000E+00 0. -1.
<mgrwt>
<rscale>  2 0.27231988E+02</rscale>
<asrwt>0</asrwt>
<pdfrwt beam="1">  1       21 0.12788165E-02 0.27231988E+02</pdfrwt>
<pdfrwt beam="2">  1       21 0.14845412E+00 0.27231988E+02</pdfrwt>
<totfact> 0.78161706E+05</totfact>
</mgrwt>
</event>
<event>
 4    1  0.4438654E+006  0.2290285E+02  0.7546771E-02  0.1693090E+00
         21   -1    0    0  504  501  0.00000000000E+00  0.00000000000E+00  0.56472733525E+01  0.56472733525E+01  0.00000000000E+00 0. -1.
         21   -1    0    0  503  502 -0.00000000000E+00 -0.00000000000E+00 -0.26111446867E+03  0.26111446867E+03  0.00000000000E+00 0. -1.
         21    1    1    2  503  501  0.22517257424E+02  0.41849566744E+01 -0.20672783023E+02  0.30852952892E+02  0.00000000000E+00 0. -1.
         21    1    1    2  504  502 -0.22517257424E+02 -0.41849566744E+01 -0.23479441230E+03  0.23590878913E+03  0.00000000000E+00 0. -1.
<mgrwt>
<rscale>  2 0.22902855E+02</rscale>
<asrwt>0</asrwt>
<pdfrwt beam="1">  1       21 0.86881148E-03 0.22902855E+02</pdfrwt>
<pdfrwt beam="2">  1       21 0.40171448E-01 0.22902855E+02</pdfrwt>
<totfact> 0.21505584E+07</totfact>
</mgrwt>
</event>
<event>
 4    1  0.4438654E+006  0.2550554E+02  0.7546771E-02  0.1653845E+00
         21   -1    0    0  504  501  0.00000000000E+00  0.00000000000E+00  0.38546712450E+02  0.38546712450E+02  0.00000000000E+00 0. -1.
         21   -1    0    0  503  502 -0.00000000000E+00 -0.00000000000E+00 -0.39689813699E+03  0.39689813699E+03  0.00000000000E+00 0. -1.
         21    1    1    2  503  501 -0.25367938870E+02  0.26457744423E+01 -0.39221897828E+03  0.39304740092E+03  0.00000000000E+00 0. -1.
         21    1    1    2  504  502  0.25367938870E+02 -0.26457744423E+01  0.33867553740E+02  0.42397448522E+02  0.00000000000E+00 0. -1.
<mgrwt>
<rscale>  2 0.25505538E+02</rscale>
<asrwt>0</asrwt>
<pdfrwt beam="1">  1       21 0.59302632E-02 0.25505538E+02</pdfrwt>
<pdfrwt beam="2">  1       21 0.61061254E-01 0.25505538E+02</pdfrwt>
<totfact> 0.49452912E+05</totfact>
</mgrwt>
</event>
<event>
 4    1  0.4438654E+006  0.2027289E+02  0.7546771E-02  0.1739955E+00
         21   -1    0    0  502  501  0.00000000000E+00  0.00000000000E+00  0.32643513929E+01  0.32643513929E+01  0.00000000000E+00 0.  1.
         21   -1    0    0  503  502 -0.00000000000E+00 -0.00000000000E+00 -0.51804485345E+03  0.51804485345E+03  0.00000000000E+00 0.  1.
         21    1    1    2  503  504 -0.59955578346E+01 -0.19366039133E+02 -0.48416962923E+03  0.48459387125E+03  0.00000000000E+00 0.  1.
         21    1    1    2  504  501  0.59955578346E+01  0.19366039133E+02 -0.30610872823E+02  0.36715333587E+02  0.00000000000E+00 0.  1.
<mgrwt>
<rscale>  2 0.20272893E+02</rscale>
<asrwt>0</asrwt>
<pdfrwt beam="1">  1       21 0.50220770E-03 0.20272893E+02</pdfrwt>
<pdfrwt beam="2">  1       21 0.79699240E-01 0.20272893E+02</pdfrwt>
<totfact> 0.12193349E+07</totfact>
</mgrwt>
</event>
<event>
 4    1  0.4438654E+006  0.2048273E+02  0.7546771E-02  0.1735895E+00
         21   -1    0    0  504  501  0.00000000000E+00  0.00000000000E+00  0.11031335965E+02  0.11031335965E+02  0.00000000000E+00 0. -1.
         21   -1    0    0  503  502 -0.00000000000E+00 -0.00000000000E+00 -0.47170737256E+02  0.47170737256E+02  0.00000000000E+00 0. -1.
         21    1    1    2  503  501  0.17165735995E+02  0.11174967300E+02 -0.30878788425E+02  0.37054580837E+02  0.00000000000E+00 0. -1.
         21    1    1    2  504  502 -0.17165735995E+02 -0.11174967300E+02 -0.52606128659E+01  0.21147492384E+02  0.00000000000E+00 0. -1.
<mgrwt>
<rscale>  2 0.20482734E+02</rscale>
<asrwt>0</asrwt>
<pdfrwt beam="1">  1       21 0.16971286E-02 0.20482734E+02</pdfrwt>
<pdfrwt beam="2">  1       21 0.72570364E-02 0.20482734E+02</pdfrwt>
<totfact> 0.14627322E+08</totfact>
</mgrwt>
</event>
<event>
 4    1  0.4438654E+006  0.2009384E+02  0.7546771E-02  0.1743468E+00
         21   -1    0    0  503  501  0.00000000000E+00  0.00000000000E+00  0.58726866587E+02  0.58726866587E+02  0.00000000000E+00 0.  1.
         21   -1    0    0  501  502 -0.00000000000E+00 -0.00000000000E+00 -0.12076831767E+02  0.12076831767E+02  0.00000000000E+00 0.  1.
         21    1    1    2  503  504  0.21349116373E+01 -0.19980102314E+02  0.46558634987E+02  0.50709652218E+02  0.00000000000E+00 0.  1.
         21    1    1    2  504  502 -0.21349116373E+01  0.19980102314E+02  0.91399832976E-01  0.20094046136E+02  0.00000000000E+00 0.  1.
<mgrwt>
<rscale>  2 0.20093838E+02</rscale>
<asrwt>0</asrwt>
<pdfrwt beam="1">  1       21 0.90349024E-02 0.20093838E+02</pdfrwt>
<pdfrwt beam="2">  1       21 0.18579741E-02 0.20093838E+02</pdfrwt>
<totfact> 0.88762244E+07</totfact>
</mgrwt>
</event>
<event>
 4    1  0.4438654E+006  0.2628982E+02  0.7546771E-02  0.1643138E+00
         21   -1    0    0  503  501  0.00000000000E+00  0.00000000000E+00  0.61631116207E+03  0.61631116207E+03  0.00000000000E+00 0.  1.
         21   -1    0    0  504  502 -0.00000000000E+00 -0.00000000000E+00 -0.39681750469E+01  0.39681750469E+01  0.00000000000E+00 0.  1.
         21    1    1    2  503  502 -0.83087089497E-01  0.26289684527E+02  0.56885670654E+03  0.56946387681E+03  0.00000000000E+00 0.  1.
         21    1    1    2  504  501  0.83087089497E-01 -0.26289684527E+02  0.43486280486E+02  0.50815460310E+02  0.00000000000E+00 0.  1.
<mgrwt>
<rscale>  2 0.26289816E+02</rscale>
<asrwt>0</asrwt>
<pdfrwt beam="1">  1       21 0.94817026E-01 0.26289816E+02</pdfrwt>
<pdfrwt beam="2">  1       21 0.61048896E-03 0.26289816E+02</pdfrwt>
<totfact> 0.65858931E+06</totfact>
</mgrwt>
</event>
<event>
 4    1  0.4438654E+006  0.2160544E+02  0.7546771E-02  0.1715166E+00
         21   -1    0    0  502  501  0.00000000000E+00  0.00000000000E+00  0.10079402256E+03  0.10079402256E+03  0.00000000000E+00 0.  1.
         21   -1    0    0  503  502 -0.00000000000E+00 -0.00000000000E+00 -0.90661098921E+01  0.90661098921E+01  0.00000000000E+00 0. -1.
         21    1    1    2  503  504 -0.21399644837E+02 -0.29749572579E+01  0.74452216734E+01  0.22852275502E+02  0.00000000000E+00 0. -1.
         21    1    1    2  504  501  0.21399644837E+02  0.29749572579E+01  0.84282690999E+02  0.87007856955E+02  0.00000000000E+00 0.  1.
<mgrwt>
<rscale>  2 0.21605443E+02</rscale>
<asrwt>0</asrwt>
<pdfrwt beam="1">  1       21 0.15506772E-01 0.21605443E+02</pdfrwt>
<pdfrwt beam="2">  1       21 0.13947862E-02 0.21605443E+02</pdfrwt>
<totfact> 0.56887042E+07</totfact>
</mgrwt>
</event>
<event>
 4    1  0.4438654E+006  0.2145946E+02  0.7546771E-02  0.1717772E+00
         21   -1    0    0  502  501  0.00000000000E+00  0.00000000000E+00  0.11400378728E+03  0.11400378728E+03  0.00000000000E+00 0.  1.
         21   -1    0    0  504  502 -0.00000000000E+00 -0.00000000000E+00 -0.10107227282E+02  0.10107227282E+02  0.00000000000E+00 0.  1.
         21    1    1    2  503  501  0.21455464718E+02  0.41407530922E+00  0.10003004929E+03  0.10230600758E+03  0.00000000000E+00 0.  1.
         21    1    1    2  504  503 -0.21455464718E+02 -0.41407530922E+00  0.38665107056E+01  0.21805006986E+02  0.00000000000E+00 0.  1.
<mgrwt>
<rscale>  2 0.21459460E+02</rscale>
<asrwt>0</asrwt>
<pdfrwt beam="1">  1       21 0.17539043E-01 0.21459460E+02</pdfrwt>
<pdfrwt beam="2">  1       21 0.15549581E-02 0.21459460E+02</pdfrwt>
<totfact> 0.39013273E+07</totfact>
</mgrwt>
</event>
<event>
 4    1  0.4438654E+006  0.3582904E+02  0.7546771E-02  0.1541359E+00
         21   -1    0    0  503  501  0.00000000000E+00  0.00000000000E+00  0.73118012465E+02  0.73118012465E+02  0.00000000000E+00 0.  1.
         21   -1    0    0  504  502 -0.00000000000E+00 -0.00000000000E+00 -0.18770886124E+02  0.18770886124E+02  0.00000000000E+00 0.  1.
         21    1    1    2  503  502 -0.11147975413E+02  0.34050590739E+02  0.15489037286E+02  0.39033708017E+02  0.00000000000E+00 0.  1.
         21    1    1    2  504  501  0.11147975413E+02 -0.34050590739E+02  0.38858089055E+02  0.52855190573E+02  0.00000000000E+00 0.  1.
<mgrwt>
<rscale>  2 0.35829040E+02</rscale>
<asrwt>0</asrwt>
<pdfrwt beam="1">  1       21 0.11248925E-01 0.35829040E+02</pdfrwt>
<pdfrwt beam="2">  1       21 0.28878287E-02 0.35829040E+02</pdfrwt>
<totfact> 0.35744286E+07</totfact>
</mgrwt>
</event>
<event>
 4    1  0.4438654E+006  0.2818456E+02  0.7546771E-02  0.1619069E+00
         21   -1    0    0  504  501  0.00000000000E+00  0.00000000000E+00  0.22615177379E+02  0.22615177379E+02  0.00000000000E+00 0. -1.
         21   -1    0    0  503  502 -0.00000000000E+00 -0.00000000000E+00 -0.51808036103E+02  0.51808036103E+02  0.00000000000E+00 0.  1.
         21    1    1    2  503  501  0.97858062472E+01 -0.26431184774E+02  0.65195303980E+01  0.28928771303E+02  0.00000000000E+00 0. -1.
         21    1    1    2  504  502 -0.97858062472E+01  0.26431184774E+02 -0.35712389122E+02  0.45494442180E+02  0.00000000000E+00 0.  1.
<mgrwt>
<rscale>  2 0.28184562E+02</rscale>
<asrwt>0</asrwt>
<pdfrwt beam="1">  1       21 0.34792581E-02 0.28184562E+02</pdfrwt>
<pdfrwt beam="2">  1       21 0.79704670E-02 0.28184562E+02</pdfrwt>
<totfact> 0.45035912E+07</totfact>
</mgrwt>
</event>
<event>
 4    1  0.4438654E+006  0.2044016E+02  0.7546771E-02  0.1736714E+00
         21   -1    0    0  504  501  0.00000000000E+00  0.00000000000E+00  0.60814976170E+02  0.60814976170E+02  0.00000000000E+00 0.  1.
         21   -1    0    0  503  502 -0.00000000000E+00 -0.00000000000E+00 -0.11255943485E+02  0.11255943485E+02  0.00000000000E+00 0.  1.
         21    1    1    2  503  501  0.83591520037E+01 -0.18652741358E+02  0.47273665818E+02  0.51503394667E+02  0.00000000000E+00 0.  1.
         21    1    1    2  504  502 -0.83591520037E+01  0.18652741358E+02  0.22853668676E+01  0.20567524987E+02  0.00000000000E+00 0.  1.
<mgrwt>
<rscale>  2 0.20440161E+02</rscale>
<asrwt>0</asrwt>
<pdfrwt beam="1">  1       21 0.93561500E-02 0.20440161E+02</pdfrwt>
<pdfrwt beam="2">  1       21 0.17316836E-02 0.20440161E+02</pdfrwt>
<totfact> 0.93780586E+07</totfact>
</mgrwt>
</event>
<event>
 4    1  0.4438654E+006  0.2176653E+02  0.7546771E-02  0.1712321E+00
         21   -1    0    0  503  501  0.00000000000E+00  0.00000000000E+00  0.32655585501E+01  0.32655585501E+01  0.00000000000E+00 0.  1.
         21   -1    0    0  501  502 -0.00000000000E+00 -0.00000000000E+00 -0.15254744154E+03  0.15254744154E+03  0.00000000000E+00 0.  1.
         21    1    1    2  503  504  0.20599827133E+02 -0.70305670605E+01 -0.57409252842E+02  0.61397101422E+02  0.00000000000E+00 0.  1.
         21    1    1    2  504  502 -0.20599827133E+02  0.70305670605E+01 -0.91872630145E+02  0.94415898665E+02  0.00000000000E+00 0.  1.
<mgrwt>
<rscale>  2 0.21766528E+02</rscale>
<asrwt>0</asrwt>
<pdfrwt beam="1">  1       21 0.50239360E-03 0.21766528E+02</pdfrwt>
<pdfrwt beam="2">  1       21 0.23468838E-01 0.21766528E+02</pdfrwt>
<totfact> 0.12750151E+08</totfact>
</mgrwt>
</event>
<event>
 4    1  0.4438654E+006  0.3745679E+02  0.7546771E-02  0.1527807E+00
         21   -1    0    0  504  501  0.00000000000E+00  0.00000000000E+00  0.19856306364E+02  0.19856306364E+02  0.00000000000E+00 0.  1.
         21   -1    0    0  503  502 -0.00000000000E+00 -0.00000000000E+00 -0.10053855730E+03  0.10053855730E+03  0.00000000000E+00 0. -1.
         21    1    1    2  503  501 -0.30580867341E+02 -0.21629185624E+02 -0.73158545838E+02  0.82189926069E+02  0.00000000000E+00 0. -1.
         21    1    1    2  504  502  0.30580867341E+02  0.21629185624E+02 -0.75237050942E+01  0.38204937592E+02  0.00000000000E+00 0.  1.
<mgrwt>
<rscale>  2 0.37456790E+02</rscale>
<asrwt>0</asrwt>
<pdfrwt beam="1">  1       21 0.30548164E-02 0.37456790E+02</pdfrwt>
<pdfrwt beam="2">  1       21 0.15467470E-01 0.37456790E+02</pdfrwt>
<totfact> 0.19070101E+07</totfact>
</mgrwt>
</event>
<event>
 4    1  0.4438654E+006  0.6209733E+02  0.7546771E-02  0.1389235E+00
         21   -1    0    0  503  501  0.00000000000E+00  0.00000000000E+00  0.81646651400E+03  0.81646651400E+03  0.00000000000E+00 0.  1.
         21   -1    0    0  504  502 -0.00000000000E+00 -0.00000000000E+00 -0.10139150936E+03  0.10139150936E+03  0.00000000000E+00 0. -1.
         21    1    1    2  503  502  0.44881077996E+02 -0.42915817748E+02 -0.90575437579E+02  0.10981797880E+03  0.00000000000E+00 0. -1.
         21    1    1    2  504  501 -0.44881077996E+02  0.42915817748E+02  0.80565044222E+03  0.80804004456E+03  0.00000000000E+00 0.  1.
<mgrwt>
<rscale>  2 0.62097331E+02</rscale>
<asrwt>0</asrwt>
<pdfrwt beam="1">  1       21 0.12561023E+00 0.62097331E+02</pdfrwt>
<pdfrwt beam="2">  1       21 0.15598694E-01 0.62097331E+02</pdfrwt>
<totfact> 0.19457992E+04</totfact>
</mgrwt>
</event>
<event>
 4    1  0.4438654E+006  0.3192538E+02  0.7546771E-02  0.1577732E+00
         21   -1    0    0  504  501  0.00000000000E+00  0.00000000000E+00  0.31205424595E+02  0.31205424595E+02  0.00000000000E+00 0.  1.
         21   -1    0    0  503  502 -0.00000000000E+00 -0.00000000000E+00 -0.14532129213E+03  0.14532129213E+03  0.00000000000E+00 0.  1.
         21    1    1    2  503  501 -0.24134822730E+02  0.20898326764E+02  0.20656098958E+02  0.38025046402E+02  0.00000000000E+00 0.  1.
         21    1    1    2  504  502  0.24134822730E+02 -0.20898326764E+02 -0.13477196650E+03  0.13850167032E+03  0.00000000000E+00 0.  1.
<mgrwt>
<rscale>  2 0.31925378E+02</rscale>
<asrwt>0</asrwt>
<pdfrwt beam="1">  1       21 0.48008347E-02 0.31925378E+02</pdfrwt>
<pdfrwt beam="2">  1       21 0.22357121E-01 0.31925378E+02</pdfrwt>
<totfact> 0.47289202E+06</totfact>
</mgrwt>
</event>
<event>
 4    1  0.4438654E+006  0.2010987E+02  0.7546771E-02  0.1743152E+00
         21   -1    0    0  504  501  0.00000000000E+00  0.00000000000E+00  0.78002530961E+02  0.78002530961E+02  0.00000000000E+00 0.  1.
         21   -1    0    0  503  502 -0.00000000000E+00 -0.00000000000E+00 -0.71010666741E+01  0.71010666741E+01  0.00000000000E+00 0. -1.
         21    1    1    2  503  501 -0.19696011908E+02  0.40588374406E+01  0.57556919514E+02  0.60968893957E+02  0.00000000000E+00 0.  1.
         21    1    1    2  504  502  0.19696011908E+02 -0.40588374406E+01  0.13344544774E+02  0.24134703678E+02  0.00000000000E+00 0. -1.
<mgrwt>
<rscale>  2 0.20109874E+02</rscale>
<asrwt>0</asrwt>
<pdfrwt beam="1">  1       21 0.12000389E-01 0.20109874E+02</pdfrwt>
<pdfrwt beam="2">  1       21 0.10924719E-02 0.20109874E+02</pdfrwt>
<totfact> 0.12397416E+08</totfact>
</mgrwt>
</event>
<event>
 4    1  0.4438654E+006  0.3444712E+02  0.7546771E-02  0.1553566E+00
         21   -1    0    0  502  501  0.00000000000E+00  0.00000000000E+00  0.33157839390E+02  0.33157839390E+02  0.00000000000E+00 0.  1.
         21   -1    0    0  503  502 -0.00000000000E+00 -0.00000000000E+00 -0.47216786395E+02  0.47216786395E+02  0.00000000000E+00 0. -1.
         21    1    1    2  503  504 -0.34394419205E+02 -0.19048044883E+01 -0.26802290541E+02  0.43645929143E+02  0.00000000000E+00 0. -1.
         21    1    1    2  504  501  0.34394419205E+02  0.19048044883E+01  0.12743343536E+02  0.36728696642E+02  0.00000000000E+00 0.  1.
<mgrwt>
<rscale>  2 0.34447124E+02</rscale>
<asrwt>0</asrwt>
<pdfrwt beam="1">  1       21 0.51012060E-02 0.34447124E+02</pdfrwt>
<pdfrwt beam="2">  1       21 0.72641210E-02 0.34447124E+02</pdfrwt>
<totfact> 0.29679693E+07</totfact>
</mgrwt>
</event>
<event>
 4    1  0.4438654E+006  0.2126072E+02  0.7546771E-02  0.1721360E+00
         21   -1    0    0  504  501  0.00000000000E+00  0.00000000000E+00  0.28693743471E+03  0.28693743471E+03  0.00000000000E+00 0. -1.
         21   -1    0    0  503  502 -0.00000000000E+00 -0.00000000000E+00 -0.32472364833E+02  0.32472364833E+02  0.00000000000E+00 0.  1.
         21    1    1    2  503  501 -0.19019456984E+02  0.95014929889E+01 -0.28550355398E+02  0.35596922709E+02  0.00000000000E+00 0.  1.
         21    1    1    2  504  502  0.19019456984E+02 -0.95014929889E+01  0.28301542528E+03  0.28381287684E+03  0.00000000000E+00 0. -1.
<mgrwt>
<rscale>  2 0.21260718E+02</rscale>
<asrwt>0</asrwt>
<pdfrwt beam="1">  1       21 0.44144219E-01 0.21260718E+02</pdfrwt>
<pdfrwt beam="2">  1       21 0.49957486E-02 0.21260718E+02</pdfrwt>
<totfact> 0.12093537E+06</totfact>
</mgrwt>
</event>
<event>
 4    1  0.4438654E+006  0.2390128E+02  0.7546771E-02  0.1677304E+00
         21   -1    0    0  504  501  0.00000000000E+00  0.00000000000E+00  0.79598163960E+01  0.79598163960E+01  0.00000000000E+00 0. -1.
         21   -1    0    0  501  502 -0.00000000000E+00 -0.00000000000E+00 -0.73298595262E+02  0.73298595262E+02  0.00000000000E+00 0.  1.
         21    1    1    2  503  502  0.22402755484E+02  0.83299271563E+01 -0.38537845952E+02  0.45347951556E+02  0.00000000000E+00 0. -1.
         21    1    1    2  504  503 -0.22402755484E+02 -0.83299271563E+01 -0.26800932913E+02  0.35910460101E+02  0.00000000000E+00 0.  1.
<mgrwt>
<rscale>  2 0.23901279E+02</rscale>
<asrwt>0</asrwt>
<pdfrwt beam="1">  1       21 0.12245871E-02 0.23901279E+02</pdfrwt>
<pdfrwt beam="2">  1       21 0.11276708E-01 0.23901279E+02</pdfrwt>
<totfact> 0.12185112E+08</totfact>
</mgrwt>
</event>
<event>
 4    1  0.4438654E+006  0.3061588E+02  0.7546771E-02  0.1591379E+00
         21   -1    0    0  504  501  0.00000000000E+00  0.00000000000E+00  0.56671730972E+02  0.56671730972E+02  0.00000000000E+00 0.  1.
         21   -1    0    0  501  502 -0.00000000000E+00 -0.00000000000E+00 -0.43809033898E+02  0.43809033898E+02  0.00000000000E+00 0.  1.
         21    1    1    2  503  502 -0.30414227688E+02 -0.35081339436E+01 -0.33206359020E+02  0.45166298597E+02  0.00000000000E+00 0.  1.
         21    1    1    2  504  503  0.30414227688E+02  0.35081339436E+01  0.46069056094E+02  0.55314466272E+02  0.00000000000E+00 0.  1.
<mgrwt>
<rscale>  2 0.30615882E+02</rscale>
<asrwt>0</asrwt>
<pdfrwt beam="1">  1       21 0.87187279E-02 0.30615882E+02</pdfrwt>
<pdfrwt beam="2">  1       21 0.67398513E-02 0.30615882E+02</pdfrwt>
<totfact> 0.13660567E+07</totfact>
</mgrwt>
</event>
<event>
 4    1  0.4438654E+006  0.2444624E+02  0.7546771E-02  0.1669086E+00
         21   -1    0    0  502  501  0.00000000000E+00  0.00000000000E+00  0.80126794236E+02  0.80126794236E+02  0.00000000000E+00 0. -1.
         21   -1    0    0  503  502 -0.00000000000E+00 -0.00000000000E+00 -0.22267362095E+02  0.22267362095E+02  0.00000000000E+00 0.  1.
         21    1    1    2  503  504  0.22666492604E+02 -0.91568892876E+01 -0.12821867307E+02  0.27604687820E+02  0.00000000000E+00 0.  1.
         21    1    1    2  504  501 -0.22666492604E+02  0.91568892876E+01  0.70681299448E+02  0.74789468510E+02  0.00000000000E+00 0. -1.
<mgrwt>
<rscale>  2 0.24446237E+02</rscale>
<asrwt>0</asrwt>
<pdfrwt beam="1">  1       21 0.12327199E-01 0.24446237E+02</pdfrwt>
<pdfrwt beam="2">  1       21 0.34257480E-02 0.24446237E+02</pdfrwt>
<totfact> 0.21667412E+07</totfact>
</mgrwt>
</event>
<event>
 4    1  0.4438654E+006  0.2068293E+02  0.7546771E-02  0.1732078E+00
         21   -1    0    0  503  501  0.00000000000E+00  0.00000000000E+00  0.29350460875E+03  0.29350460875E+03  0.00000000000E+00 0. -1.
         21   -1    0    0  504  502 -0.00000000000E+00 -0.00000000000E+00 -0.12410894729E+02  0.12410894729E+02  0.00000000000E+00 0. -1.
         21    1    1    2  503  502 -0.66375914892E+01  0.19588929273E+02  0.28424271856E+03  0.28499422244E+03  0.00000000000E+00 0. -1.
         21    1    1    2  504  501  0.66375914892E+01 -0.19588929273E+02 -0.31490045353E+01  0.20921281042E+02  0.00000000000E+00 0. -1.
<mgrwt>
<rscale>  2 0.20682934E+02</rscale>
<asrwt>0</asrwt>
<pdfrwt beam="1">  1       21 0.45154550E-01 0.20682934E+02</pdfrwt>
<pdfrwt beam="2">  1       21 0.19093686E-02 0.20682934E+02</pdfrwt>
<totfact> 0.51463743E+06</totfact>
</mgrwt>
</event>
<event>
 4    1  0.4438654E+006  0.9894606E+02  0.7546771E-02  0.1282528E+00
         21   -1    0    0  504  501  0.00000000000E+00  0.00000000000E+00  0.97130195693E+02  0.97130195693E+02  0.00000000000E+00 0. -1.
         21   -1    0    0  503  502 -0.00000000000E+00 -0.00000000000E+00 -0.45233907199E+03  0.45233907199E+03  0.00000000000E+00 0. -1.
         21    1    1    2  503  501 -0.83940455511E+02  0.52386291201E+02  0.64593647233E+02  0.11816371203E+03  0.00000000000E+00 0. -1.
         21    1    1    2  504  502  0.83940455511E+02 -0.52386291201E+02 -0.41980252353E+03  0.43130555565E+03  0.00000000000E+00 0. -1.
<mgrwt>
<rscale>  2 0.98946064E+02</rscale>
<asrwt>0</asrwt>
<pdfrwt beam="1">  1       21 0.14943107E-01 0.98946064E+02</pdfrwt>
<pdfrwt beam="2">  1       21 0.69590627E-01 0.98946064E+02</pdfrwt>
<totfact> 0.77474137E+04</totfact>
</mgrwt>
</event>
<event>
 4    1  0.4438654E+006  0.2836312E+02  0.7546771E-02  0.1616920E+00
         21   -1    0    0  504  501  0.00000000000E+00  0.00000000000E+00  0.32815296085E+02  0.32815296085E+02  0.00000000000E+00 0. -1.
         21   -1    0    0  503  502 -0.00000000000E+00 -0.00000000000E+00 -0.89946887544E+02  0.89946887544E+02  0.00000000000E+00 0. -1.
         21    1    1    2  503  501 -0.27944305469E+02  0.48561846903E+01 -0.80918158664E+02  0.85745058979E+02  0.00000000000E+00 0. -1.
         21    1    1    2  504  502  0.27944305469E+02 -0.48561846903E+01  0.23786567205E+02  0.37017124649E+02  0.00000000000E+00 0. -1.
<mgrwt>
<rscale>  2 0.28363123E+02</rscale>
<asrwt>0</asrwt>
<pdfrwt beam="1">  1       21 0.50485071E-02 0.28363123E+02</pdfrwt>
<pdfrwt beam="2">  1       21 0.13837983E-01 0.28363123E+02</pdfrwt>
<totfact> 0.99012237E+06</totfact>
</mgrwt>
</event>
<event>
 4    1  0.4438654E+006  0.2677966E+02  0.7546771E-02  0.1636682E+00
         21   -1    0    0  502  501  0.00000000000E+00  0.00000000000E+00  0.58740258777E+02  0.58740258777E+02  0.00000000000E+00 0.  1.
         21   -1    0    0  504  502 -0.00000000000E+00 -0.00000000000E+00 -0.12452932248E+03  0.12452932248E+03  0.00000000000E+00 0. -1.
         21    1    1    2  503  501 -0.25779000085E+02  0.72521432871E+01  0.54132477457E+02  0.60394333702E+02  0.00000000000E+00 0.  1.
         21    1    1    2  504  503  0.25779000085E+02 -0.72521432871E+01 -0.11992154116E+03  0.12287524755E+03  0.00000000000E+00 0. -1.
<mgrwt>
<rscale>  2 0.26779664E+02</rscale>
<asrwt>0</asrwt>
<pdfrwt beam="1">  1       21 0.90369629E-02 0.26779664E+02</pdfrwt>
<pdfrwt beam="2">  1       21 0.19158357E-01 0.26779664E+02</pdfrwt>
<totfact> 0.21693683E+06</totfact>
</mgrwt>
</event>
<event>
 4    1  0.4438654E+006  0.2451428E+02  0.7546771E-02  0.1668078E+00
         21   -1    0    0  504  501  0.00000000000E+00  0.00000000000E+00  0.45862643658E+01  0.45862643658E+01  0.00000000000E+00 0. -1.
         21   -1    0    0  501  502 -0.00000000000E+00 -0.00000000000E+00 -0.41939854166E+03  0.41939854166E+03  0.00000000000E+00 0. -1.
         21    1    1    2  503  502 -0.23242552612E+02  0.77931909123E+01 -0.38318993257E+03  0.38397327316E+03  0.00000000000E+00 0. -1.
         21    1    1    2  504  503  0.23242552612E+02 -0.77931909123E+01 -0.31622344720E+02  0.40011532863E+02  0.00000000000E+00 0. -1.
<mgrwt>
<rscale>  2 0.24514283E+02</rscale>
<asrwt>0</asrwt>
<pdfrwt beam="1">  1       21 0.70557890E-03 0.24514283E+02</pdfrwt>
<pdfrwt beam="2">  1       21 0.64522874E-01 0.24514283E+02</pdfrwt>
<totfact> 0.11784090E+07</totfact>
</mgrwt>
</event>
<event>
 4    1  0.4438654E+006  0.2111609E+02  0.7546771E-02  0.1724003E+00
         21   -1    0    0  504  501  0.00000000000E+00  0.00000000000E+00  0.10321634869E+01  0.10321634869E+01  0.00000000000E+00 0.  1.
         21   -1    0    0  503  502 -0.00000000000E+00 -0.00000000000E+00 -0.43208222713E+03  0.43208222713E+03  0.00000000000E+00 0.  1.
         21    1    1    2  503  501 -0.10274608504E+02 -0.18447813642E+02 -0.21860292669E+03  0.21962042020E+03  0.00000000000E+00 0.  1.
         21    1    1    2  504  502  0.10274608504E+02  0.18447813642E+02 -0.21244713695E+03  0.21349397042E+03  0.00000000000E+00 0.  1.
<mgrwt>
<rscale>  2 0.21116094E+02</rscale>
<asrwt>0</asrwt>
<pdfrwt beam="1">  1       21 0.15879422E-03 0.21116094E+02</pdfrwt>
<pdfrwt beam="2">  1       21 0.66474258E-01 0.21116094E+02</pdfrwt>
<totfact> 0.94860230E+07</totfact>
</mgrwt>
</event>
<event>
 4    1  0.4438654E+006  0.2507746E+02  0.7546771E-02  0.1659892E+00
         21   -1    0    0  504  501  0.00000000000E+00  0.00000000000E+00  0.21352698825E+02  0.21352698825E+02  0.00000000000E+00 0.  1.
         21   -1    0    0  503  502 -0.00000000000E+00 -0.00000000000E+00 -0.31079762742E+02  0.31079762742E+02  0.00000000000E+00 0.  1.
         21    1    1    2  503  501 -0.22835713056E+02  0.10363847163E+02 -0.10863245263E+02  0.27329273983E+02  0.00000000000E+00 0.  1.
         21    1    1    2  504  502  0.22835713056E+02 -0.10363847163E+02  0.11361813468E+01  0.25103187584E+02  0.00000000000E+00 0.  1.
<mgrwt>
<rscale>  2 0.25077462E+02</rscale>
<asrwt>0</asrwt>
<pdfrwt beam="1">  1       21 0.32850306E-02 0.25077462E+02</pdfrwt>
<pdfrwt beam="2">  1       21 0.47815019E-02 0.25077462E+02</pdfrwt>
<totfact> 0.10946594E+08</totfact>
</mgrwt>
</event>
<event>
 4    1  0.4438654E+006  0.2182367E+02  0.7546771E-02  0.1711319E+00
         21   -1    0    0  504  501  0.00000000000E+00  0.00000000000E+00  0.69454419433E+01  0.69454419433E+01  0.00000000000E+00 0.  1.
         21   -1    0    0  501  502 -0.00000000000E+00 -0.00000000000E+00 -0.14241239149E+03  0.14241239149E+03  0.00000000000E+00 0.  1.
         21    1    1    2  503  502 -0.73236600611E+01 -0.20558130592E+02 -0.12150680451E+03  0.12345110883E+03  0.00000000000E+00 0.  1.
         21    1    1    2  504  503  0.73236600611E+01  0.20558130592E+02 -0.13960145042E+02  0.25906724604E+02  0.00000000000E+00 0.  1.
<mgrwt>
<rscale>  2 0.21823674E+02</rscale>
<asrwt>0</asrwt>
<pdfrwt beam="1">  1       21 0.10685296E-02 0.21823674E+02</pdfrwt>
<pdfrwt beam="2">  1       21 0.21909598E-01 0.21823674E+02</pdfrwt>
<totfact> 0.46899125E+07</totfact>
</mgrwt>
</event>
<event>
 4    1  0.4438654E+006  0.2443523E+02  0.7546771E-02  0.1669249E+00
         21   -1    0    0  504  501  0.00000000000E+00  0.00000000000E+00  0.40023459811E+03  0.40023459811E+03  0.00000000000E+00 0. -1.
         21   -1    0    0  503  502 -0.00000000000E+00 -0.00000000000E+00 -0.29560755567E+01  0.29560755567E+01  0.00000000000E+00 0.  1.
         21    1    1    2  503  501 -0.20969756257E+02 -0.12543912586E+02  0.34052222523E+03  0.34139781238E+03  0.00000000000E+00 0. -1.
         21    1    1    2  504  502  0.20969756257E+02  0.12543912586E+02  0.56756297319E+02  0.61792861285E+02  0.00000000000E+00 0.  1.
<mgrwt>
<rscale>  2 0.24435229E+02</rscale>
<asrwt>0</asrwt>
<pdfrwt beam="1">  1       21 0.61574511E-01 0.24435229E+02</pdfrwt>
<pdfrwt beam="2">  1       21 0.45478117E-03 0.24435229E+02</pdfrwt>
<totfact> 0.24824825E+07</totfact>
</mgrwt>
</event>
<event>
 4    1  0.4438654E+006  0.2098204E+02  0.7546771E-02  0.1726476E+00
         21   -1    0    0  504  501  0.00000000000E+00  0.00000000000E+00  0.22876345205E+01  0.22876345205E+01  0.00000000000E+00 0. -1.
         21   -1    0    0  503  502 -0.00000000000E+00 -0.00000000000E+00 -0.87803754844E+03  0.87803754844E+03  0.00000000000E+00 0.  1.
         21    1    1    2  503  501  0.18515750729E+02 -0.98698046118E+01 -0.48928947932E+02  0.53238031649E+02  0.00000000000E+00 0. -1.
         21    1    1    2  504  502 -0.18515750729E+02  0.98698046118E+01 -0.82682096599E+03  0.82708715131E+03  0.00000000000E+00 0.  1.
<mgrwt>
<rscale>  2 0.20982042E+02</rscale>
<asrwt>0</asrwt>
<pdfrwt beam="1">  1       21 0.35194365E-03 0.20982042E+02</pdfrwt>
<pdfrwt beam="2">  1       21 0.13508275E+00 0.20982042E+02</pdfrwt>
<totfact> 0.64917809E+06</totfact>
</mgrwt>
</event>
<event>
 4    1  0.4438654E+006  0.2375208E+02  0.7546771E-02  0.1679601E+00
         21   -1    0    0  502  501  0.00000000000E+00  0.00000000000E+00  0.55351287458E+03  0.55351287458E+03  0.00000000000E+00 0.  1.
         21   -1    0    0  503  502 -0.00000000000E+00 -0.00000000000E+00 -0.40783348450E+01  0.40783348450E+01  0.00000000000E+00 0.  1.
         21    1    1    2  503  504 -0.43994550366E+01 -0.23341086387E+02  0.33259561289E+02  0.40870037136E+02  0.00000000000E+00 0.  1.
         21    1    1    2  504  501  0.43994550366E+01  0.23341086387E+02  0.51617497845E+03  0.51672117229E+03  0.00000000000E+00 0.  1.
<mgrwt>
<rscale>  2 0.23752085E+02</rscale>
<asrwt>0</asrwt>
<pdfrwt beam="1">  1       21 0.85155767E-01 0.23752085E+02</pdfrwt>
<pdfrwt beam="2">  1       21 0.62743657E-03 0.23752085E+02</pdfrwt>
<totfact> 0.78486266E+06</totfact>
</mgrwt>
</event>
<event>
 4    1  0.4438654E+006  0.3321438E+02  0.7546771E-02  0.1565054E+00
         21   -1    0    0  503  501  0.00000000000E+00  0.00000000000E+00  0.44078433203E+03  0.44078433203E+03  0.00000000000E+00 0.  1.
         21   -1    0    0  504  502 -0.00000000000E+00 -0.00000000000E+00 -0.47248640575E+01  0.47248640575E+01  0.00000000000E+00 0. -1.
         21    1    1    2  503  502 -0.19075025249E+02  0.27190774298E+02  0.37078998281E+03  0.37227463807E+03  0.00000000000E+00 0.  1.
         21    1    1    2  504  501  0.19075025249E+02 -0.27190774298E+02  0.65269485159E+02  0.73234558018E+02  0.00000000000E+00 0. -1.
<mgrwt>
<rscale>  2 0.33214376E+02</rscale>
<asrwt>0</asrwt>
<pdfrwt beam="1">  1       21 0.67812942E-01 0.33214376E+02</pdfrwt>
<pdfrwt beam="2">  1       21 0.72690251E-03 0.33214376E+02</pdfrwt>
<totfact> 0.10666072E+07</totfact>
</mgrwt>
</event>
<event>
 4    1  0.4438654E+006  0.2233832E+02  0.7546771E-02  0.1702466E+00
         21   -1    0    0  504  501  0.00000000000E+00  0.00000000000E+00  0.79851946433E+01  0.79851946433E+01  0.00000000000E+00 0. -1.
         21   -1    0    0  503  502 -0.00000000000E+00 -0.00000000000E+00 -0.10103334617E+03  0.10103334617E+03  0.00000000000E+00 0. -1.
         21    1    1    2  503  501 -0.14963945542E+02  0.16585557449E+02 -0.80191413798E+02  0.83244598798E+02  0.00000000000E+00 0. -1.
         21    1    1    2  504  502  0.14963945542E+02 -0.16585557449E+02 -0.12856737732E+02  0.25773942019E+02  0.00000000000E+00 0. -1.
<mgrwt>
<rscale>  2 0.22338316E+02</rscale>
<asrwt>0</asrwt>
<pdfrwt beam="1">  1       21 0.12284915E-02 0.22338316E+02</pdfrwt>
<pdfrwt beam="2">  1       21 0.15543591E-01 0.22338316E+02</pdfrwt>
<totfact> 0.69251815E+07</totfact>
</mgrwt>
</event>
<event>
 4    1  0.4438654E+006  0.2652381E+02  0.7546771E-02  0.1640033E+00
         21   -1    0    0  504  501  0.00000000000E+00  0.00000000000E+00  0.40459959892E+01  0.40459959892E+01  0.00000000000E+00 0.  1.
         21   -1    0    0  503  502 -0.00000000000E+00 -0.00000000000E+00 -0.17599262927E+03  0.17599262927E+03  0.00000000000E+00 0.  1.
         21    1    1    2  503  501  0.22599355548E+02 -0.13884591583E+02 -0.95839014081E+02  0.99441587752E+02  0.00000000000E+00 0.  1.
         21    1    1    2  504  502 -0.22599355548E+02  0.13884591583E+02 -0.76107619197E+02  0.80597037504E+02  0.00000000000E+00 0.  1.
<mgrwt>
<rscale>  2 0.26523815E+02</rscale>
<asrwt>0</asrwt>
<pdfrwt beam="1">  1       21 0.62246082E-03 0.26523815E+02</pdfrwt>
<pdfrwt beam="2">  1       21 0.27075794E-01 0.26523815E+02</pdfrwt>
<totfact> 0.75732731E+07</totfact>
</mgrwt>
</event>
<event>
 4    1  0.4438654E+006  0.5071373E+02  0.7546771E-02  0.1441529E+00
         21   -1    0    0  504  501  0.00000000000E+00  0.00000000000E+00  0.20634929910E+03  0.20634929910E+03  0.00000000000E+00 0. -1.
         21   -1    0    0  503  502 -0.00000000000E+00 -0.00000000000E+00 -0.24210017062E+02  0.24210017062E+02  0.00000000000E+00 0. -1.
         21    1    1    2  503  501  0.16319874752E+02  0.48016083841E+02  0.17136776096E+03  0.17871427507E+03  0.00000000000E+00 0. -1.
         21    1    1    2  504  502 -0.16319874752E+02 -0.48016083841E+02  0.10771521084E+02  0.51845041092E+02  0.00000000000E+00 0. -1.
<mgrwt>
<rscale>  2 0.50713732E+02</rscale>
<asrwt>0</asrwt>
<pdfrwt beam="1">  1       21 0.31746045E-01 0.50713732E+02</pdfrwt>
<pdfrwt beam="2">  1       21 0.37246182E-02 0.50713732E+02</pdfrwt>
<totfact> 0.39270432E+06</totfact>
</mgrwt>
</event>
<event>
 4    1  0.4438654E+006  0.2124290E+02  0.7546771E-02  0.1721684E+00
         21   -1    0    0  504  501  0.00000000000E+00  0.00000000000E+00  0.37238632924E+02  0.37238632924E+02  0.00000000000E+00 0. -1.
         21   -1    0    0  501  502 -0.00000000000E+00 -0.00000000000E+00 -0.12749630067E+02  0.12749630067E+02  0.00000000000E+00 0. -1.
         21    1    1    2  503  502  0.19911189049E+02  0.74030492835E+01  0.66816880765E+01  0.22268936741E+02  0.00000000000E+00 0. -1.
         21    1    1    2  504  503 -0.19911189049E+02 -0.74030492835E+01  0.17807314781E+02  0.27719326250E+02  0.00000000000E+00 0. -1.
<mgrwt>
<rscale>  2 0.21242895E+02</rscale>
<asrwt>0</asrwt>
<pdfrwt beam="1">  1       21 0.57290204E-02 0.21242895E+02</pdfrwt>
<pdfrwt beam="2">  1       21 0.19614816E-02 0.21242895E+02</pdfrwt>
<totfact> 0.17345286E+08</totfact>
</mgrwt>
</event>
<event>
 4    1  0.4438654E+006  0.3745622E+02  0.7546771E-02  0.1527811E+00
         21   -1    0    0  503  501  0.00000000000E+00  0.00000000000E+00  0.10041965389E+02  0.10041965389E+02  0.00000000000E+00 0.  1.
         21   -1    0    0  504  502 -0.00000000000E+00 -0.00000000000E+00 -0.14309868797E+03  0.14309868797E+03  0.00000000000E+00 0.  1.
         21    1    1    2  503  502  0.57699360764E+00 -0.37451778534E+02 -0.78310452810E+02  0.86807232742E+02  0.00000000000E+00 0.  1.
         21    1    1    2  504  501 -0.57699360764E+00  0.37451778534E+02 -0.54746269771E+02  0.66333420618E+02  0.00000000000E+00 0.  1.
<mgrwt>
<rscale>  2 0.37456223E+02</rscale>
<asrwt>0</asrwt>
<pdfrwt beam="1">  1       21 0.15449179E-02 0.37456223E+02</pdfrwt>
<pdfrwt beam="2">  1       21 0.22015181E-01 0.37456223E+02</pdfrwt>
<totfact> 0.29718369E+07</totfact>
</mgrwt>
</event>
<event>
 4    1  0.4438654E+006  0.2504445E+02  0.7546771E-02  0.1660364E+00
         21   -1    0    0  503  501  0.00000000000E+00  0.00000000000E+00  0.94103632635E+02  0.94103632635E+02  0.00000000000E+00 0. -1.
         21   -1    0    0  504  502 -0.00000000000E+00 -0.00000000000E+00 -0.68045598018E+01  0.68045598018E+01  0.00000000000E+00 0. -1.
         21    1    1    2  503  502  0.24932218365E+02  0.23683558846E+01  0.50868600173E+02  0.56699551195E+02  0.00000000000E+00 0. -1.
         21    1    1    2  504  501 -0.24932218365E+02 -0.23683558846E+01  0.36430472661E+02  0.44208641242E+02  0.00000000000E+00 0. -1.
<mgrwt>
<rscale>  2 0.25044453E+02</rscale>
<asrwt>0</asrwt>
<pdfrwt beam="1">  1       21 0.14477481E-01 0.25044453E+02</pdfrwt>
<pdfrwt beam="2">  1       21 0.10468554E-02 0.25044453E+02</pdfrwt>
<totfact> 0.10262321E+08</totfact>
</mgrwt>
</event>
<event>
 4    1  0.4438654E+006  0.2044298E+02  0.7546771E-02  0.1736660E+00
         21   -1    0    0  503  501  0.00000000000E+00  0.00000000000E+00  0.13446835642E+03  0.13446835642E+03  0.00000000000E+00 0.  1.
         21   -1    0    0  504  502 -0.00000000000E+00 -0.00000000000E+00 -0.10298118721E+02  0.10298118721E+02  0.00000000000E+00 0.  1.
         21    1    1    2  503  502  0.19250936129E+02  0.68787188036E+01  0.12256763622E+03  0.12426077725E+03  0.00000000000E+00 0.  1.
         21    1    1    2  504  501 -0.19250936129E+02 -0.68787188036E+01  0.16026014722E+01  0.20505697884E+02  0.00000000000E+00 0.  1.
<mgrwt>
<rscale>  2 0.20442977E+02</rscale>
<asrwt>0</asrwt>
<pdfrwt beam="1">  1       21 0.20687438E-01 0.20442977E+02</pdfrwt>
<pdfrwt beam="2">  1       21 0.15843261E-02 0.20442977E+02</pdfrwt>
<totfact> 0.28165744E+07</totfact>
</mgrwt>
</event>
<event>
 4    1  0.4438654E+006  0.2414770E+02  0.7546771E-02  0.1673554E+00
         21   -1    0    0  504  501  0.00000000000E+00  0.00000000000E+00  0.10648399843E+04  0.10648399843E+04  0.00000000000E+00 0. -1.
         21   -1    0    0  501  502 -0.00000000000E+00 -0.00000000000E+00 -0.23218287905E+02  0.23218287905E+02  0.00000000000E+00 0. -1.
         21    1    1    2  503  502 -0.19453941222E+02 -0.14305791782E+02 -0.16764526600E+02  0.29396613065E+02  0.00000000000E+00 0. -1.
         21    1    1    2  504  503  0.19453941222E+02  0.14305791782E+02  0.10583862230E+04  0.10586616591E+04  0.00000000000E+00 0. -1.
<mgrwt>
<rscale>  2 0.24147702E+02</rscale>
<asrwt>0</asrwt>
<pdfrwt beam="1">  1       21 0.16382150E+00 0.24147702E+02</pdfrwt>
<pdfrwt beam="2">  1       21 0.35720451E-02 0.24147702E+02</pdfrwt>
<totfact> 0.12588992E+05</totfact>
</mgrwt>
</event>
<event>
 4    1  0.4438654E+006  0.4325308E+02  0.7546771E-02  0.1485552E+00
         21   -1    0    0  504  501  0.00000000000E+00  0.00000000000E+00  0.90822579251E+02  0.90822579251E+02  0.00000000000E+00 0. -1.
         21   -1    0    0  501  502 -0.00000000000E+00 -0.00000000000E+00 -0.21208769460E+02  0.21208769460E+02  0.00000000000E+00 0. -1.
         21    1    1    2  503  502  0.32502720500E+02  0.28537730634E+02  0.44307137513E+02  0.61918909424E+02  0.00000000000E+00 0. -1.
         21    1    1    2  504  503 -0.32502720500E+02 -0.28537730634E+02  0.25306672278E+02  0.50112439288E+02  0.00000000000E+00 0. -1.
<mgrwt>
<rscale>  2 0.43253080E+02</rscale>
<asrwt>0</asrwt>
<pdfrwt beam="1">  1       21 0.13972704E-01 0.43253080E+02</pdfrwt>
<pdfrwt beam="2">  1       21 0.32628876E-02 0.43253080E+02</pdfrwt>
<totfact> 0.20962806E+07</totfact>
</mgrwt>
</event>
<event>
 4    1  0.4438654E+006  0.3046039E+02  0.7546771E-02  0.1593055E+00
         21   -1    0    0  503  501  0.00000000000E+00  0.00000000000E+00  0.32555942647E+03  0.32555942647E+03  0.00000000000E+00 0. -1.
         21   -1    0    0  501  502 -0.00000000000E+00 -0.00000000000E+00 -0.11536539037E+02  0.11536539037E+02  0.00000000000E+00 0. -1.
         21    1    1    2  503  504 -0.75450590273E+01  0.29511141448E+02  0.30326615556E+03  0.30479205451E+03  0.00000000000E+00 0. -1.
         21    1    1    2  504  502  0.75450590273E+01 -0.29511141448E+02  0.10756731878E+02  0.32303911001E+02  0.00000000000E+00 0. -1.
<mgrwt>
<rscale>  2 0.30460390E+02</rscale>
<asrwt>0</asrwt>
<pdfrwt beam="1">  1       21 0.50086059E-01 0.30460390E+02</pdfrwt>
<pdfrwt beam="2">  1       21 0.17748524E-02 0.30460390E+02</pdfrwt>
<totfact> 0.49836268E+06</totfact>
</mgrwt>
</event>
<event>
 4    1  0.4438654E+006  0.3832988E+02  0.7546771E-02  0.1520874E+00
         21   -1    0    0  503  501  0.00000000000E+00  0.00000000000E+00  0.38887363587E+02  0.38887363587E+02  0.00000000000E+00 0. -1.
         21   -1    0    0  504  502 -0.00000000000E+00 -0.00000000000E+00 -0.41210242808E+02  0.41210242808E+02  0.00000000000E+00 0. -1.
         21    1    1    2  503  502  0.75564806256E+01 -0.37577646898E+02  0.10392348493E+02  0.39713736327E+02  0.00000000000E+00 0. -1.
         21    1    1    2  504  501 -0.75564806256E+01  0.37577646898E+02 -0.12715227713E+02  0.40383870068E+02  0.00000000000E+00 0. -1.
<mgrwt>
<rscale>  2 0.38329883E+02</rscale>
<asrwt>0</asrwt>
<pdfrwt beam="1">  1       21 0.59826713E-02 0.38329883E+02</pdfrwt>
<pdfrwt beam="2">  1       21 0.63400374E-02 0.38329883E+02</pdfrwt>
<totfact> 0.29206245E+07</totfact>
</mgrwt>
</event>
<event>
 4    1  0.4438654E+006  0.2287235E+02  0.7546771E-02  0.1693588E+00
         21   -1    0    0  502  501  0.00000000000E+00  0.00000000000E+00  0.23064597148E+03  0.23064597148E+03  0.00000000000E+00 0. -1.
         21   -1    0    0  503  502 -0.00000000000E+00 -0.00000000000E+00 -0.33824670886E+01  0.33824670886E+01  0.00000000000E+00 0. -1.
         21    1    1    2  503  504  0.12740740801E+02  0.18995213115E+02  0.46469991428E+02  0.51793867405E+02  0.00000000000E+00 0. -1.
         21    1    1    2  504  501 -0.12740740801E+02 -0.18995213115E+02  0.18079351296E+03  0.18223457116E+03  0.00000000000E+00 0. -1.
<mgrwt>
<rscale>  2 0.22872354E+02</rscale>
<asrwt>0</asrwt>
<pdfrwt beam="1">  1       21 0.35483983E-01 0.22872354E+02</pdfrwt>
<pdfrwt beam="2">  1       21 0.52037973E-03 0.22872354E+02</pdfrwt>
<totfact> 0.58063417E+07</totfact>
</mgrwt>
</event>
<event>
 4    1  0.4438654E+006  0.2657809E+02  0.7546771E-02  0.1639318E+00
         21   -1    0    0  503  501  0.00000000000E+00  0.00000000000E+00  0.16256745153E+02  0.16256745153E+02  0.00000000000E+00 0.  1.
         21   -1    0    0  504  502 -0.00000000000E+00 -0.00000000000E+00 -0.49679359475E+02  0.49679359475E+02  0.00000000000E+00 0.  1.
         21    1    1    2  503  502 -0.26429897243E+02 -0.28027924600E+01 -0.50393899274E+01  0.27051627765E+02  0.00000000000E+00 0.  1.
         21    1    1    2  504  501  0.26429897243E+02  0.28027924600E+01 -0.28383224395E+02  0.38884476863E+02  0.00000000000E+00 0.  1.
<mgrwt>
<rscale>  2 0.26578095E+02</rscale>
<asrwt>0</asrwt>
<pdfrwt beam="1">  1       21 0.25010377E-02 0.26578095E+02</pdfrwt>
<pdfrwt beam="2">  1       21 0.76429784E-02 0.26578095E+02</pdfrwt>
<totfact> 0.79774255E+07</totfact>
</mgrwt>
</event>
<event>
 4    1  0.4438654E+006  0.5474723E+02  0.7546771E-02  0.1421298E+00
         21   -1    0    0  504  501  0.00000000000E+00  0.00000000000E+00  0.44913867623E+03  0.44913867623E+03  0.00000000000E+00 0.  1.
         21   -1    0    0  501  502 -0.00000000000E+00 -0.00000000000E+00 -0.67529351724E+02  0.67529351724E+02  0.00000000000E+00 0.  1.
         21    1    1    2  503  502  0.73188027470E+00 -0.54742338942E+02 -0.54432911970E+02  0.77202339519E+02  0.00000000000E+00 0.  1.
         21    1    1    2  504  503 -0.73188027470E+00  0.54742338942E+02  0.43604223647E+03  0.43946568843E+03  0.00000000000E+00 0.  1.
<mgrwt>
<rscale>  2 0.54747231E+02</rscale>
<asrwt>0</asrwt>
<pdfrwt beam="1">  1       21 0.69098256E-01 0.54747231E+02</pdfrwt>
<pdfrwt beam="2">  1       21 0.10389131E-01 0.54747231E+02</pdfrwt>
<totfact> 0.15233811E+05</totfact>
</mgrwt>
</event>
<event>
 4    1  0.4438654E+006  0.2464629E+02  0.7546771E-02  0.1666135E+00
         21   -1    0    0  503  501  0.00000000000E+00  0.00000000000E+00  0.36017984523E+01  0.36017984523E+01  0.00000000000E+00 0. -1.
         21   -1    0    0  501  502 -0.00000000000E+00 -0.00000000000E+00 -0.91084631265E+03  0.91084631265E+03  0.00000000000E+00 0. -1.
         21    1    1    2  503  504  0.61481928202E+01 -0.23867119417E+02 -0.40892091727E+02  0.47745186459E+02  0.00000000000E+00 0. -1.
         21    1    1    2  504  502 -0.61481928202E+01  0.23867119417E+02 -0.86635242247E+03  0.86670292464E+03  0.00000000000E+00 0. -1.
<mgrwt>
<rscale>  2 0.24646291E+02</rscale>
<asrwt>0</asrwt>
<pdfrwt beam="1">  1       21 0.55412238E-03 0.24646291E+02</pdfrwt>
<pdfrwt beam="2">  1       21 0.14013032E+00 0.24646291E+02</pdfrwt>
<totfact> 0.31215009E+06</totfact>
</mgrwt>
</event>
<event>
 4    1  0.4438654E+006  0.5710415E+02  0.7546771E-02  0.1410402E+00
         21   -1    0    0  502  501  0.00000000000E+00  0.00000000000E+00  0.16923750895E+03  0.16923750895E+03  0.00000000000E+00 0. -1.
         21   -1    0    0  503  502 -0.00000000000E+00 -0.00000000000E+00 -0.14490143782E+03  0.14490143782E+03  0.00000000000E+00 0. -1.
         21    1    1    2  503  504  0.57026118602E+02 -0.29841919484E+01 -0.13408601608E+03  0.14573929914E+03  0.00000000000E+00 0. -1.
         21    1    1    2  504  501 -0.57026118602E+02  0.29841919484E+01  0.15842208722E+03  0.16839964763E+03  0.00000000000E+00 0. -1.
<mgrwt>
<rscale>  2 0.57104147E+02</rscale>
<asrwt>0</asrwt>
<pdfrwt beam="1">  1       21 0.26036540E-01 0.57104147E+02</pdfrwt>
<pdfrwt beam="2">  1       21 0.22292529E-01 0.57104147E+02</pdfrwt>
<totfact> 0.27127544E+05</totfact>
</mgrwt>
</event>
<event>
 4    1  0.4438654E+006  0.2042981E+02  0.7546771E-02  0.1736913E+00
         21   -1    0    0  504  501  0.00000000000E+00  0.00000000000E+00  0.65270607019E+02  0.65270607019E+02  0.00000000000E+00 0. -1.
         21   -1    0    0  503  502 -0.00000000000E+00 -0.00000000000E+00 -0.65356114385E+01  0.65356114385E+01  0.00000000000E+00 0.  1.
         21    1    1    2  503  501  0.40408572028E+01 -0.20026195954E+02  0.34641885891E+02  0.40217375715E+02  0.00000000000E+00 0. -1.
         21    1    1    2  504  502 -0.40408572028E+01  0.20026195954E+02  0.24093109689E+02  0.31588842742E+02  0.00000000000E+00 0.  1.
<mgrwt>
<rscale>  2 0.20429808E+02</rscale>
<asrwt>0</asrwt>
<pdfrwt beam="1">  1       21 0.10041631E-01 0.20429808E+02</pdfrwt>
<pdfrwt beam="2">  1       21 0.10054787E-02 0.20429808E+02</pdfrwt>
<totfact> 0.18947574E+08</totfact>
</mgrwt>
</event>
<event>
 4    1  0.4438654E+006  0.4146349E+02  0.7546771E-02  0.1497710E+00
         21   -1    0    0  503  501  0.00000000000E+00  0.00000000000E+00  0.26174942445E+02  0.26174942445E+02  0.00000000000E+00 0.  1.
         21   -1    0    0  504  502 -0.00000000000E+00 -0.00000000000E+00 -0.72400978322E+02  0.72400978322E+02  0.00000000000E+00 0.  1.
         21    1    1    2  503  502  0.31161547326E+02  0.27352855513E+02 -0.80981155638E+01  0.42246895888E+02  0.00000000000E+00 0.  1.
         21    1    1    2  504  501 -0.31161547326E+02 -0.27352855513E+02 -0.38127920313E+02  0.56329024879E+02  0.00000000000E+00 0.  1.
<mgrwt>
<rscale>  2 0.41463487E+02</rscale>
<asrwt>0</asrwt>
<pdfrwt beam="1">  1       21 0.40269142E-02 0.41463487E+02</pdfrwt>
<pdfrwt beam="2">  1       21 0.11138612E-01 0.41463487E+02</pdfrwt>
<totfact> 0.21939800E+07</totfact>
</mgrwt>
</event>
<event>
 4    1  0.4438654E+006  0.2631415E+02  0.7546771E-02  0.1642813E+00
         21   -1    0    0  503  501  0.00000000000E+00  0.00000000000E+00  0.10528662719E+04  0.10528662719E+04  0.00000000000E+00 0.  1.
         21   -1    0    0  501  502 -0.00000000000E+00 -0.00000000000E+00 -0.32834607989E+01  0.32834607989E+01  0.00000000000E+00 0.  1.
         21    1    1    2  503  504 -0.25338697554E+02 -0.70982442084E+01  0.99702833581E+03  0.99737552460E+03  0.00000000000E+00 0.  1.
         21    1    1    2  504  502  0.25338697554E+02  0.70982442084E+01  0.52554475304E+02  0.58774208111E+02  0.00000000000E+00 0.  1.
<mgrwt>
<rscale>  2 0.26314153E+02</rscale>
<asrwt>0</asrwt>
<pdfrwt beam="1">  1       21 0.16197916E+00 0.26314153E+02</pdfrwt>
<pdfrwt beam="2">  1       21 0.50514866E-03 0.26314153E+02</pdfrwt>
<totfact> 0.25478951E+06</totfact>
</mgrwt>
</event>
<event>
 4    1  0.4438654E+006  0.2499759E+02  0.7546771E-02  0.1661037E+00
         21   -1    0    0  503  501  0.00000000000E+00  0.00000000000E+00  0.15401236518E+03  0.15401236518E+03  0.00000000000E+00 0.  1.
         21   -1    0    0  504  502 -0.00000000000E+00 -0.00000000000E+00 -0.40683036803E+01  0.40683036803E+01  0.00000000000E+00 0.  1.
         21    1    1    2  503  502  0.17971075810E+02 -0.17375841050E+02  0.70867503003E+02  0.75147071798E+02  0.00000000000E+00 0.  1.
         21    1    1    2  504  501 -0.17971075810E+02  0.17375841050E+02  0.79076558494E+02  0.82933597059E+02  0.00000000000E+00 0.  1.
<mgrwt>
<rscale>  2 0.24997588E+02</rscale>
<asrwt>0</asrwt>
<pdfrwt beam="1">  1       21 0.23694206E-01 0.24997588E+02</pdfrwt>
<pdfrwt beam="2">  1       21 0.62589299E-03 0.24997588E+02</pdfrwt>
<totfact> 0.94046596E+07</totfact>
</mgrwt>
</event>
<event>
 4    1  0.4438654E+006  0.2235378E+02  0.7546771E-02  0.1702204E+00
         21   -1    0    0  502  501  0.00000000000E+00  0.00000000000E+00  0.13607625234E+03  0.13607625234E+03  0.00000000000E+00 0.  1.
         21   -1    0    0  504  502 -0.00000000000E+00 -0.00000000000E+00 -0.11825229185E+02  0.11825229185E+02  0.00000000000E+00 0. -1.
         21    1    1    2  503  501 -0.10293846577E+02  0.19842588693E+02  0.12352980431E+03  0.12553606716E+03  0.00000000000E+00 0.  1.
         21    1    1    2  504  503  0.10293846577E+02 -0.19842588693E+02  0.72121884485E+00  0.22365414371E+02  0.00000000000E+00 0. -1.
<mgrwt>
<rscale>  2 0.22353783E+02</rscale>
<asrwt>0</asrwt>
<pdfrwt beam="1">  1       21 0.20934807E-01 0.22353783E+02</pdfrwt>
<pdfrwt beam="2">  1       21 0.18192661E-02 0.22353783E+02</pdfrwt>
<totfact> 0.22817443E+07</totfact>
</mgrwt>
</event>
<event>
 4    1  0.4438654E+006  0.2138880E+02  0.7546771E-02  0.1719042E+00
         21   -1    0    0  504  501  0.00000000000E+00  0.00000000000E+00  0.22201270904E+02  0.22201270904E+02  0.00000000000E+00 0. -1.
         21   -1    0    0  501  502 -0.00000000000E+00 -0.00000000000E+00 -0.20608102160E+02  0.20608102160E+02  0.00000000000E+00 0. -1.
         21    1    1    2  503  502  0.15432851099E+02 -0.14809048064E+02  0.10094787580E+01  0.21412609485E+02  0.00000000000E+00 0. -1.
         21    1    1    2  504  503 -0.15432851099E+02  0.14809048064E+02  0.58368998605E+00  0.21396763578E+02  0.00000000000E+00 0. -1.
<mgrwt>
<rscale>  2 0.21388801E+02</rscale>
<asrwt>0</asrwt>
<pdfrwt beam="1">  1       21 0.34155801E-02 0.21388801E+02</pdfrwt>
<pdfrwt beam="2">  1       21 0.31704773E-02 0.21388801E+02</pdfrwt>
<totfact> 0.18753182E+08</totfact>
</mgrwt>
</event>
<event>
 4    1  0.4438654E+006  0.2297582E+02  0.7546771E-02  0.1691902E+00
         21   -1    0    0  502  501  0.00000000000E+00  0.00000000000E+00  0.37948145991E+01  0.37948145991E+01  0.00000000000E+00 0. -1.
         21   -1    0    0  504  502 -0.00000000000E+00 -0.00000000000E+00 -0.22520421788E+03  0.22520421788E+03  0.00000000000E+00 0. -1.
         21    1    1    2  503  501 -0.16023327510E+02 -0.16466365824E+02 -0.39908821107E+02  0.46049997070E+02  0.00000000000E+00 0. -1.
         21    1    1    2  504  503  0.16023327510E+02  0.16466365824E+02 -0.18150058217E+03  0.18294903541E+03  0.00000000000E+00 0. -1.
<mgrwt>
<rscale>  2 0.22975818E+02</rscale>
<asrwt>0</asrwt>
<pdfrwt beam="1">  1       21 0.58381753E-03 0.22975818E+02</pdfrwt>
<pdfrwt beam="2">  1       21 0.34646809E-01 0.22975818E+02</pdfrwt>
<totfact> 0.51255633E+07</totfact>
</mgrwt>
</event>
<event>
 4    1  0.4438654E+006  0.3029540E+02  0.7546771E-02  0.1594846E+00
         21   -1    0    0  502  501  0.00000000000E+00  0.00000000000E+00  0.19504131159E+03  0.19504131159E+03  0.00000000000E+00 0.  1.
         21   -1    0    0  504  502 -0.00000000000E+00 -0.00000000000E+00 -0.55034204548E+01  0.55034204548E+01  0.00000000000E+00 0.  1.
         21    1    1    2  503  501  0.18507036879E+02 -0.23985429240E+02  0.13294427918E+03  0.13635245724E+03  0.00000000000E+00 0.  1.
         21    1    1    2  504  503 -0.18507036879E+02  0.23985429240E+02  0.56593611953E+02  0.64192274799E+02  0.00000000000E+00 0.  1.
<mgrwt>
<rscale>  2 0.30295399E+02</rscale>
<asrwt>0</asrwt>
<pdfrwt beam="1">  1       21 0.30006350E-01 0.30295399E+02</pdfrwt>
<pdfrwt beam="2">  1       21 0.84668022E-03 0.30295399E+02</pdfrwt>
<totfact> 0.40769190E+07</totfact>
</mgrwt>
</event>
<event>
 4    1  0.4438654E+006  0.2685418E+02  0.7546771E-02  0.1635714E+00
         21   -1    0    0  503  501  0.00000000000E+00  0.00000000000E+00  0.35753344993E+03  0.35753344993E+03  0.00000000000E+00 0.  1.
         21   -1    0    0  501  502 -0.00000000000E+00 -0.00000000000E+00 -0.22538605605E+01  0.22538605605E+01  0.00000000000E+00 0. -1.
         21    1    1    2  503  504 -0.26853872823E+02  0.12754485463E+00  0.23595665365E+03  0.23747987105E+03  0.00000000000E+00 0.  1.
         21    1    1    2  504  502  0.26853872823E+02 -0.12754485463E+00  0.11932293572E+03  0.12230743944E+03  0.00000000000E+00 0. -1.
<mgrwt>
<rscale>  2 0.26854176E+02</rscale>
<asrwt>0</asrwt>
<pdfrwt beam="1">  1       21 0.55005101E-01 0.26854176E+02</pdfrwt>
<pdfrwt beam="2">  1       21 0.34674806E-03 0.26854176E+02</pdfrwt>
<totfact> 0.47262379E+07</totfact>
</mgrwt>
</event>
<event>
 4    1  0.4438654E+006  0.2724993E+02  0.7546771E-02  0.1630641E+00
         21   -1    0    0  503  501  0.00000000000E+00  0.00000000000E+00  0.55823675605E+03  0.55823675605E+03  0.00000000000E+00 0.  1.
         21   -1    0    0  504  502 -0.00000000000E+00 -0.00000000000E+00 -0.13356909040E+01  0.13356909040E+01  0.00000000000E+00 0.  1.
         21    1    1    2  503  502 -0.69996693478E+01  0.26335585511E+02  0.26048797500E+03  0.26190941860E+03  0.00000000000E+00 0.  1.
         21    1    1    2  504  501  0.69996693478E+01 -0.26335585511E+02  0.29641309015E+03  0.29766302835E+03  0.00000000000E+00 0.  1.
<mgrwt>
<rscale>  2 0.27249925E+02</rscale>
<asrwt>0</asrwt>
<pdfrwt beam="1">  1       21 0.85882392E-01 0.27249925E+02</pdfrwt>
<pdfrwt beam="2">  1       21 0.20549135E-03 0.27249925E+02</pdfrwt>
<totfact> 0.40664453E+07</totfact>
</mgrwt>
</event>
<event>
 4    1  0.4438654E+006  0.2043879E+02  0.7546771E-02  0.1736740E+00
         21   -1    0    0  503  501  0.00000000000E+00  0.00000000000E+00  0.38235229050E+01  0.38235229050E+01  0.00000000000E+00 0.  1.
         21   -1    0    0  504  502 -0.00000000000E+00 -0.00000000000E+00 -0.12175773263E+03  0.12175773263E+03  0.00000000000E+00 0.  1.
         21    1    1    2  503  502  0.20351313741E+02 -0.18890053010E+01 -0.79086960841E+02  0.81685321123E+02  0.00000000000E+00 0.  1.
         21    1    1    2  504  501 -0.20351313741E+02  0.18890053010E+01 -0.38847248884E+02  0.43895934411E+02  0.00000000000E+00 0.  1.
<mgrwt>
<rscale>  2 0.20438794E+02</rscale>
<asrwt>0</asrwt>
<pdfrwt beam="1">  1       21 0.58823425E-03 0.20438794E+02</pdfrwt>
<pdfrwt beam="2">  1       21 0.18731960E-01 0.20438794E+02</pdfrwt>
<totfact> 0.14706860E+08</totfact>
</mgrwt>
</event>
<event>
 4    1  0.4438654E+006  0.2607078E+02  0.7546771E-02  0.1646082E+00
         21   -1    0    0  504  501  0.00000000000E+00  0.00000000000E+00  0.30515599584E+02  0.30515599584E+02  0.00000000000E+00 0. -1.
         21   -1    0    0  503  502 -0.00000000000E+00 -0.00000000000E+00 -0.45375949372E+02  0.45375949372E+02  0.00000000000E+00 0. -1.
         21    1    1    2  503  501 -0.21406160062E+02 -0.14881590704E+02 -0.34505939883E+02  0.43247489149E+02  0.00000000000E+00 0. -1.
         21    1    1    2  504  502  0.21406160062E+02  0.14881590704E+02  0.19645590095E+02  0.32644059807E+02  0.00000000000E+00 0. -1.
<mgrwt>
<rscale>  2 0.26070777E+02</rscale>
<asrwt>0</asrwt>
<pdfrwt beam="1">  1       21 0.46947077E-02 0.26070777E+02</pdfrwt>
<pdfrwt beam="2">  1       21 0.69809152E-02 0.26070777E+02</pdfrwt>
<totfact> 0.34167275E+07</totfact>
</mgrwt>
</event>
<event>
 4    1  0.4438654E+006  0.2932377E+02  0.7546771E-02  0.1605686E+00
         21   -1    0    0  502  501  0.00000000000E+00  0.00000000000E+00  0.42299853677E+02  0.42299853677E+02  0.00000000000E+00 0.  1.
         21   -1    0    0  503  502 -0.00000000000E+00 -0.00000000000E+00 -0.47381457363E+02  0.47381457363E+02  0.00000000000E+00 0.  1.
         21    1    1    2  503  504 -0.12456929122E+02 -0.26546345352E+02 -0.36423410140E+02  0.46760542564E+02  0.00000000000E+00 0.  1.
         21    1    1    2  504  501  0.12456929122E+02  0.26546345352E+02  0.31341806454E+02  0.42920768475E+02  0.00000000000E+00 0.  1.
<mgrwt>
<rscale>  2 0.29323771E+02</rscale>
<asrwt>0</asrwt>
<pdfrwt beam="1">  1       21 0.65076699E-02 0.29323771E+02</pdfrwt>
<pdfrwt beam="2">  1       21 0.72894549E-02 0.29323771E+02</pdfrwt>
<totfact> 0.19282850E+07</totfact>
</mgrwt>
</event>
<event>
 4    1  0.4438654E+006  0.2024644E+02  0.7546771E-02  0.1740471E+00
         21   -1    0    0  504  501  0.00000000000E+00  0.00000000000E+00  0.33333931369E+02  0.33333931369E+02  0.00000000000E+00 0.  1.
         21   -1    0    0  503  502 -0.00000000000E+00 -0.00000000000E+00 -0.13084434282E+02  0.13084434282E+02  0.00000000000E+00 0.  1.
         21    1    1    2  503  501 -0.12289168127E+02 -0.16090203190E+02  0.15817195962E+02  0.25692449865E+02  0.00000000000E+00 0.  1.
         21    1    1    2  504  502  0.12289168127E+02  0.16090203190E+02  0.44323011246E+01  0.20725915787E+02  0.00000000000E+00 0.  1.
<mgrwt>
<rscale>  2 0.20246439E+02</rscale>
<asrwt>0</asrwt>
<pdfrwt beam="1">  1       21 0.51282971E-02 0.20246439E+02</pdfrwt>
<pdfrwt beam="2">  1       21 0.20129899E-02 0.20246439E+02</pdfrwt>
<totfact> 0.19583829E+08</totfact>
</mgrwt>
</event>
<event>
 4    1  0.4438654E+006  0.2632056E+02  0.7546771E-02  0.1642728E+00
         21   -1    0    0  503  501  0.00000000000E+00  0.00000000000E+00  0.61100590274E+03  0.61100590274E+03  0.00000000000E+00 0.  1.
         21   -1    0    0  504  502 -0.00000000000E+00 -0.00000000000E+00 -0.24078506720E+01  0.24078506720E+01  0.00000000000E+00 0.  1.
         21    1    1    2  503  502  0.25142724245E+02 -0.77855859813E+01  0.81199657824E+02  0.85358985246E+02  0.00000000000E+00 0.  1.
         21    1    1    2  504  501 -0.25142724245E+02  0.77855859813E+01  0.52739839424E+03  0.52805476816E+03  0.00000000000E+00 0.  1.
<mgrwt>
<rscale>  2 0.26320561E+02</rscale>
<asrwt>0</asrwt>
<pdfrwt beam="1">  1       21 0.94000785E-01 0.26320561E+02</pdfrwt>
<pdfrwt beam="2">  1       21 0.37043905E-03 0.26320561E+02</pdfrwt>
<totfact> 0.14057130E+07</totfact>
</mgrwt>
</event>
<event>
 4    1  0.4438654E+006  0.3682927E+02  0.7546771E-02  0.1532931E+00
         21   -1    0    0  503  501  0.00000000000E+00  0.00000000000E+00  0.11149392006E+04  0.11149392006E+04  0.00000000000E+00 0. -1.
         21   -1    0    0  504  502 -0.00000000000E+00 -0.00000000000E+00 -0.13112061960E+01  0.13112061960E+01  0.00000000000E+00 0.  1.
         21    1    1    2  503  502  0.30904909318E+02  0.20032021991E+02  0.70676095366E+03  0.70771988875E+03  0.00000000000E+00 0.  1.
         21    1    1    2  504  501 -0.30904909318E+02 -0.20032021991E+02  0.40686704079E+03  0.40853051808E+03  0.00000000000E+00 0. -1.
<mgrwt>
<rscale>  2 0.36829273E+02</rscale>
<asrwt>0</asrwt>
<pdfrwt beam="1">  1       21 0.17152835E+00 0.36829273E+02</pdfrwt>
<pdfrwt beam="2">  1       21 0.20172492E-03 0.36829273E+02</pdfrwt>
<totfact> 0.87919593E+06</totfact>
</mgrwt>
</event>
<event>
 4    1  0.4438654E+006  0.2845877E+02  0.7546771E-02  0.1615778E+00
         21   -1    0    0  503  501  0.00000000000E+00  0.00000000000E+00  0.12292419413E+03  0.12292419413E+03  0.00000000000E+00 0.  1.
         21   -1    0    0  501  502 -0.00000000000E+00 -0.00000000000E+00 -0.18973460803E+02  0.18973460803E+02  0.00000000000E+00 0. -1.
         21    1    1    2  503  504 -0.83755630525E+01  0.27198371531E+02  0.10929680303E+03  0.11294110245E+03  0.00000000000E+00 0.  1.
         21    1    1    2  504  502  0.83755630525E+01 -0.27198371531E+02 -0.53460697022E+01  0.28956552482E+02  0.00000000000E+00 0. -1.
<mgrwt>
<rscale>  2 0.28458768E+02</rscale>
<asrwt>0</asrwt>
<pdfrwt beam="1">  1       21 0.18911414E-01 0.28458768E+02</pdfrwt>
<pdfrwt beam="2">  1       21 0.29189940E-02 0.28458768E+02</pdfrwt>
<totfact> 0.13768323E+07</totfact>
</mgrwt>
</event>
<event>
 4    1  0.4438654E+006  0.2026595E+02  0.7546771E-02  0.1740090E+00
         21   -1    0    0  502  501  0.00000000000E+00  0.00000000000E+00  0.46468021006E+02  0.46468021006E+02  0.00000000000E+00 0.  1.
         21   -1    0    0  504  502 -0.00000000000E+00 -0.00000000000E+00 -0.20427857817E+03  0.20427857817E+03  0.00000000000E+00 0. -1.
         21    1    1    2  503  501  0.16010623179E+02  0.12424527045E+02  0.43725765205E+02  0.48193894526E+02  0.00000000000E+00 0.  1.
         21    1    1    2  504  503 -0.16010623179E+02 -0.12424527045E+02 -0.20153632237E+03  0.20255270465E+03  0.00000000000E+00 0. -1.
<mgrwt>
<rscale>  2 0.20265955E+02</rscale>
<asrwt>0</asrwt>
<pdfrwt beam="1">  1       21 0.71489264E-02 0.20265955E+02</pdfrwt>
<pdfrwt beam="2">  1       21 0.31427473E-01 0.20265955E+02</pdfrwt>
<totfact> 0.12756562E+06</totfact>
</mgrwt>
</event>
<event>
 4    1  0.4438654E+006  0.2255932E+02  0.7546771E-02  0.1698755E+00
         21   -1    0    0  502  501  0.00000000000E+00  0.00000000000E+00  0.76211641989E+01  0.76211641989E+01  0.00000000000E+00 0.  1.
         21   -1    0    0  503  502 -0.00000000000E+00 -0.00000000000E+00 -0.16270552455E+03  0.16270552455E+03  0.00000000000E+00 0.  1.
         21    1    1    2  503  504 -0.21632639179E+02  0.63993692142E+01 -0.14293410142E+03  0.14470342205E+03  0.00000000000E+00 0.  1.
         21    1    1    2  504  501  0.21632639179E+02 -0.63993692142E+01 -0.12150258928E+02  0.25623266696E+02  0.00000000000E+00 0.  1.
<mgrwt>
<rscale>  2 0.22559322E+02</rscale>
<asrwt>0</asrwt>
<pdfrwt beam="1">  1       21 0.11724867E-02 0.22559322E+02</pdfrwt>
<pdfrwt beam="2">  1       21 0.25031621E-01 0.22559322E+02</pdfrwt>
<totfact> 0.32484243E+07</totfact>
</mgrwt>
</event>
<event>
 4    1  0.4438654E+006  0.2750079E+02  0.7546771E-02  0.1627480E+00
         21   -1    0    0  504  501  0.00000000000E+00  0.00000000000E+00  0.39472067515E+03  0.39472067515E+03  0.00000000000E+00 0. -1.
         21   -1    0    0  501  502 -0.00000000000E+00 -0.00000000000E+00 -0.76761066885E+01  0.76761066885E+01  0.00000000000E+00 0. -1.
         21    1    1    2  503  502  0.15345221028E+02  0.22821424390E+02  0.19233892298E+02  0.33559437309E+02  0.00000000000E+00 0. -1.
         21    1    1    2  504  503 -0.15345221028E+02 -0.22821424390E+02  0.36781067617E+03  0.36883734453E+03  0.00000000000E+00 0. -1.
<mgrwt>
<rscale>  2 0.27500786E+02</rscale>
<asrwt>0</asrwt>
<pdfrwt beam="1">  1       21 0.60726242E-01 0.27500786E+02</pdfrwt>
<pdfrwt beam="2">  1       21 0.11809398E-02 0.27500786E+02</pdfrwt>
<totfact> 0.62486610E+06</totfact>
</mgrwt>
</event>
<event>
 4    1  0.4438654E+006  0.2520789E+02  0.7546771E-02  0.1658034E+00
         21   -1    0    0  502  501  0.00000000000E+00  0.00000000000E+00  0.13483357493E+03  0.13483357493E+03  0.00000000000E+00 0. -1.
         21   -1    0    0  504  502 -0.00000000000E+00 -0.00000000000E+00 -0.17800102713E+02  0.17800102713E+02  0.00000000000E+00 0. -1.
         21    1    1    2  503  501 -0.15020844932E+02  0.20243816475E+02  0.12395547246E+03  0.12649267584E+03  0.00000000000E+00 0. -1.
         21    1    1    2  504  503  0.15020844932E+02 -0.20243816475E+02 -0.69220002434E+01  0.26141001804E+02  0.00000000000E+00 0. -1.
<mgrwt>
<rscale>  2 0.25207893E+02</rscale>
<asrwt>0</asrwt>
<pdfrwt beam="1">  1       21 0.20743626E-01 0.25207893E+02</pdfrwt>
<pdfrwt beam="2">  1       21 0.27384774E-02 0.25207893E+02</pdfrwt>
<totfact> 0.12651379E+07</totfact>
</mgrwt>
</event>
<event>
 4    1  0.4438654E+006  0.2197665E+02  0.7546771E-02  0.1708656E+00
         21   -1    0    0  504  501  0.00000000000E+00  0.00000000000E+00  0.22237857434E+02  0.22237857434E+02  0.00000000000E+00 0.  1.
         21   -1    0    0  503  502 -0.00000000000E+00 -0.00000000000E+00 -0.22421712799E+02  0.22421712799E+02  0.00000000000E+00 0.  1.
         21    1    1    2  503  501 -0.14764119833E+02  0.16278639290E+02  0.38625363889E+01  0.22313505304E+02  0.00000000000E+00 0.  1.
         21    1    1    2  504  502  0.14764119833E+02 -0.16278639290E+02 -0.40463917539E+01  0.22346064929E+02  0.00000000000E+00 0.  1.
<mgrwt>
<rscale>  2 0.21976654E+02</rscale>
<asrwt>0</asrwt>
<pdfrwt beam="1">  1       21 0.34212088E-02 0.21976654E+02</pdfrwt>
<pdfrwt beam="2">  1       21 0.34494943E-02 0.21976654E+02</pdfrwt>
<totfact> 0.16539731E+08</totfact>
</mgrwt>
</event>
<event>
 4    1  0.4438654E+006  0.2431594E+02  0.7546771E-02  0.1671026E+00
         21   -1    0    0  503  501  0.00000000000E+00  0.00000000000E+00  0.50245529635E+01  0.50245529635E+01  0.00000000000E+00 0.  1.
         21   -1    0    0  501  502 -0.00000000000E+00 -0.00000000000E+00 -0.12009901539E+03  0.12009901539E+03  0.00000000000E+00 0.  1.
         21    1    1    2  503  504 -0.17055366148E+02 -0.17331459799E+02 -0.48649440128E+02  0.54387802290E+02  0.00000000000E+00 0.  1.
         21    1    1    2  504  502  0.17055366148E+02  0.17331459799E+02 -0.66425022298E+02  0.70735766063E+02  0.00000000000E+00 0.  1.
<mgrwt>
<rscale>  2 0.24315942E+02</rscale>
<asrwt>0</asrwt>
<pdfrwt beam="1">  1       21 0.77300820E-03 0.24315942E+02</pdfrwt>
<pdfrwt beam="2">  1       21 0.18476770E-01 0.24315942E+02</pdfrwt>
<totfact> 0.10553829E+08</totfact>
</mgrwt>
</event>
<event>
 4    1  0.4438654E+006  0.2222183E+02  0.7546771E-02  0.1704443E+00
         21   -1    0    0  503  501  0.00000000000E+00  0.00000000000E+00  0.44778998193E+02  0.44778998193E+02  0.00000000000E+00 0.  1.
         21   -1    0    0  504  502 -0.00000000000E+00 -0.00000000000E+00 -0.18566525035E+02  0.18566525035E+02  0.00000000000E+00 0.  1.
         21    1    1    2  503  502 -0.21045410943E+01 -0.22121953405E+02 -0.70761300811E+01  0.23321267817E+02  0.00000000000E+00 0.  1.
         21    1    1    2  504  501  0.21045410943E+01  0.22121953405E+02  0.33288603239E+02  0.40024255412E+02  0.00000000000E+00 0.  1.
<mgrwt>
<rscale>  2 0.22221834E+02</rscale>
<asrwt>0</asrwt>
<pdfrwt beam="1">  1       21 0.68890766E-02 0.22221834E+02</pdfrwt>
<pdfrwt beam="2">  1       21 0.28563885E-02 0.22221834E+02</pdfrwt>
<totfact> 0.73266775E+07</totfact>
</mgrwt>
</event>
<event>
 4    1  0.4438654E+006  0.3363918E+02  0.7546771E-02  0.1561028E+00
         21   -1    0    0  504  501  0.00000000000E+00  0.00000000000E+00  0.41285727082E+02  0.41285727082E+02  0.00000000000E+00 0. -1.
         21   -1    0    0  503  502 -0.00000000000E+00 -0.00000000000E+00 -0.29727497580E+02  0.29727497580E+02  0.00000000000E+00 0. -1.
         21    1    1    2  503  501  0.15888924355E+02  0.29650234557E+02  0.15695362658E+02  0.37120597186E+02  0.00000000000E+00 0. -1.
         21    1    1    2  504  502 -0.15888924355E+02 -0.29650234557E+02 -0.41371331560E+01  0.33892627476E+02  0.00000000000E+00 0. -1.
<mgrwt>
<rscale>  2 0.33639178E+02</rscale>
<asrwt>0</asrwt>
<pdfrwt beam="1">  1       21 0.63516504E-02 0.33639178E+02</pdfrwt>
<pdfrwt beam="2">  1       21 0.45734611E-02 0.33639178E+02</pdfrwt>
<totfact> 0.43910204E+07</totfact>
</mgrwt>
</event>
<event>
 4    1  0.4438654E+006  0.2198172E+02  0.7546771E-02  0.1708568E+00
         21   -1    0    0  504  501  0.00000000000E+00  0.00000000000E+00  0.64366256690E+03  0.64366256690E+03  0.00000000000E+00 0.  1.
         21   -1    0    0  503  502 -0.00000000000E+00 -0.00000000000E+00 -0.97929727495E+00  0.97929727495E+00  0.00000000000E+00 0.  1.
         21    1    1    2  503  501 -0.17418984718E+02 -0.13408019892E+02  0.47707042896E+03  0.47757658047E+03  0.00000000000E+00 0.  1.
         21    1    1    2  504  502  0.17418984718E+02  0.13408019892E+02  0.16561284066E+03  0.16706528370E+03  0.00000000000E+00 0.  1.
<mgrwt>
<rscale>  2 0.21981720E+02</rscale>
<asrwt>0</asrwt>
<pdfrwt beam="1">  1       21 0.99024672E-01 0.21981720E+02</pdfrwt>
<pdfrwt beam="2">  1       21 0.15066163E-03 0.21981720E+02</pdfrwt>
<totfact> 0.44762945E+07</totfact>
</mgrwt>
</event>
<event>
 4    1  0.4438654E+006  0.3345723E+02  0.7546771E-02  0.1562744E+00
         21   -1    0    0  504  501  0.00000000000E+00  0.00000000000E+00  0.18998022563E+03  0.18998022563E+03  0.00000000000E+00 0. -1.
         21   -1    0    0  503  502 -0.00000000000E+00 -0.00000000000E+00 -0.95195434392E+01  0.95195434392E+01  0.00000000000E+00 0.  1.
         21    1    1    2  503  501 -0.87075191129E+01  0.32304266952E+02  0.15180519435E+03  0.15544839525E+03  0.00000000000E+00 0. -1.
         21    1    1    2  504  502  0.87075191129E+01 -0.32304266952E+02  0.28655487838E+02  0.44051373822E+02  0.00000000000E+00 0.  1.
<mgrwt>
<rscale>  2 0.33457235E+02</rscale>
<asrwt>0</asrwt>
<pdfrwt beam="1">  1       21 0.29227724E-01 0.33457235E+02</pdfrwt>
<pdfrwt beam="2">  1       21 0.14645453E-02 0.33457235E+02</pdfrwt>
<totfact> 0.18912183E+07</totfact>
</mgrwt>
</event>
<event>
 4    1  0.4438654E+006  0.2760878E+02  0.7546771E-02  0.1626131E+00
         21   -1    0    0  503  501  0.00000000000E+00  0.00000000000E+00  0.54288421914E+02  0.54288421914E+02  0.00000000000E+00 0.  1.
         21   -1    0    0  504  502 -0.00000000000E+00 -0.00000000000E+00 -0.11078916678E+03  0.11078916678E+03  0.00000000000E+00 0. -1.
         21    1    1    2  503  502 -0.15172216123E+02  0.23066174033E+02 -0.10538184787E+03  0.10893841557E+03  0.00000000000E+00 0. -1.
         21    1    1    2  504  501  0.15172216123E+02 -0.23066174033E+02  0.48881103011E+02  0.56139173117E+02  0.00000000000E+00 0.  1.
<mgrwt>
<rscale>  2 0.27608776E+02</rscale>
<asrwt>0</asrwt>
<pdfrwt beam="1">  1       21 0.83520651E-02 0.27608776E+02</pdfrwt>
<pdfrwt beam="2">  1       21 0.17044487E-01 0.27608776E+02</pdfrwt>
<totfact> 0.30396528E+06</totfact>
</mgrwt>
</event>
<event>
 4    1  0.4438654E+006  0.2122389E+02  0.7546771E-02  0.1722031E+00
         21   -1    0    0  503  501  0.00000000000E+00  0.00000000000E+00  0.48219154684E+02  0.48219154684E+02  0.00000000000E+00 0.  1.
         21   -1    0    0  504  502 -0.00000000000E+00 -0.00000000000E+00 -0.93424515140E+01  0.93424515140E+01  0.00000000000E+00 0.  1.
         21    1    1    2  503  502  0.20100564625E+02 -0.68132895155E+01  0.19197674625E+02  0.28618251576E+02  0.00000000000E+00 0.  1.
         21    1    1    2  504  501 -0.20100564625E+02  0.68132895155E+01  0.19679028545E+02  0.28943354622E+02  0.00000000000E+00 0.  1.
<mgrwt>
<rscale>  2 0.21223892E+02</rscale>
<asrwt>0</asrwt>
<pdfrwt beam="1">  1       21 0.74183313E-02 0.21223892E+02</pdfrwt>
<pdfrwt beam="2">  1       21 0.14373003E-02 0.21223892E+02</pdfrwt>
<totfact> 0.18364477E+08</totfact>
</mgrwt>
</event>
<event>
 4    1  0.4438654E+006  0.2456888E+02  0.7546771E-02  0.1667273E+00
         21   -1    0    0  504  501  0.00000000000E+00  0.00000000000E+00  0.43357124453E+02  0.43357124453E+02  0.00000000000E+00 0. -1.
         21   -1    0    0  503  502 -0.00000000000E+00 -0.00000000000E+00 -0.15185733243E+02  0.15185733243E+02  0.00000000000E+00 0. -1.
         21    1    1    2  503  501 -0.20621948403E+02 -0.13355330984E+02  0.22528898620E+02  0.33334380070E+02  0.00000000000E+00 0. -1.
         21    1    1    2  504  502  0.20621948403E+02  0.13355330984E+02  0.56424925895E+01  0.25208477626E+02  0.00000000000E+00 0. -1.
<mgrwt>
<rscale>  2 0.24568875E+02</rscale>
<asrwt>0</asrwt>
<pdfrwt beam="1">  1       21 0.66703268E-02 0.24568875E+02</pdfrwt>
<pdfrwt beam="2">  1       21 0.23362667E-02 0.24568875E+02</pdfrwt>
<totfact> 0.10841505E+08</totfact>
</mgrwt>
</event>
<event>
 4    1  0.4438654E+006  0.2269620E+02  0.7546771E-02  0.1696482E+00
         21   -1    0    0  503  501  0.00000000000E+00  0.00000000000E+00  0.27384808895E+02  0.27384808895E+02  0.00000000000E+00 0. -1.
         21   -1    0    0  504  502 -0.00000000000E+00 -0.00000000000E+00 -0.20417821353E+02  0.20417821353E+02  0.00000000000E+00 0. -1.
         21    1    1    2  503  502  0.20978269837E+02  0.86619711539E+01 -0.32229170099E+01  0.22923890239E+02  0.00000000000E+00 0. -1.
         21    1    1    2  504  501 -0.20978269837E+02 -0.86619711539E+01  0.10189904552E+02  0.24878740008E+02  0.00000000000E+00 0. -1.
<mgrwt>
<rscale>  2 0.22696201E+02</rscale>
<asrwt>0</asrwt>
<pdfrwt beam="1">  1       21 0.42130475E-02 0.22696201E+02</pdfrwt>
<pdfrwt beam="2">  1       21 0.31412033E-02 0.22696201E+02</pdfrwt>
<totfact> 0.13941460E+08</totfact>
</mgrwt>
</event>
<event>
 4    1  0.4438654E+006  0.2241146E+02  0.7546771E-02  0.1701232E+00
         21   -1    0    0  503  501  0.00000000000E+00  0.00000000000E+00  0.51357581544E+01  0.51357581544E+01  0.00000000000E+00 0. -1.
         21   -1    0    0  504  502 -0.00000000000E+00 -0.00000000000E+00 -0.18600103833E+03  0.18600103833E+03  0.00000000000E+00 0. -1.
         21    1    1    2  503  502 -0.10006602315E+02 -0.20053461457E+02 -0.15624315142E+03  0.15784231300E+03  0.00000000000E+00 0. -1.
         21    1    1    2  504  501  0.10006602315E+02  0.20053461457E+02 -0.24622128755E+02  0.33294483487E+02  0.00000000000E+00 0. -1.
<mgrwt>
<rscale>  2 0.22411457E+02</rscale>
<asrwt>0</asrwt>
<pdfrwt beam="1">  1       21 0.79011677E-03 0.22411457E+02</pdfrwt>
<pdfrwt beam="2">  1       21 0.28615540E-01 0.22411457E+02</pdfrwt>
<totfact> 0.46100840E+07</totfact>
</mgrwt>
</event>
<event>
 4    1  0.4438654E+006  0.2384937E+02  0.7546771E-02  0.1678101E+00
         21   -1    0    0  503  501  0.00000000000E+00  0.00000000000E+00  0.20722388648E+01  0.20722388648E+01  0.00000000000E+00 0. -1.
         21   -1    0    0  504  502 -0.00000000000E+00 -0.00000000000E+00 -0.44232881541E+03  0.44232881541E+03  0.00000000000E+00 0. -1.
         21    1    1    2  503  502 -0.18912792436E+02 -0.14529235671E+02 -0.35700480195E+03  0.35780053245E+03  0.00000000000E+00 0. -1.
         21    1    1    2  504  501  0.18912792436E+02  0.14529235671E+02 -0.83251774595E+02  0.86600521824E+02  0.00000000000E+00 0. -1.
<mgrwt>
<rscale>  2 0.23849369E+02</rscale>
<asrwt>0</asrwt>
<pdfrwt beam="1">  1       21 0.31880610E-03 0.23849369E+02</pdfrwt>
<pdfrwt beam="2">  1       21 0.68050561E-01 0.23849369E+02</pdfrwt>
<totfact> 0.33963761E+07</totfact>
</mgrwt>
</event>
<event>
 4    1  0.4438654E+006  0.2126359E+02  0.7546771E-02  0.1721308E+00
         21   -1    0    0  504  501  0.00000000000E+00  0.00000000000E+00  0.10799498368E+02  0.10799498368E+02  0.00000000000E+00 0. -1.
         21   -1    0    0  503  502 -0.00000000000E+00 -0.00000000000E+00 -0.51401483402E+02  0.51401483402E+02  0.00000000000E+00 0. -1.
         21    1    1    2  503  501  0.17416969981E+02  0.12197932100E+02 -0.69063028512E+01  0.22357043854E+02  0.00000000000E+00 0. -1.
         21    1    1    2  504  502 -0.17416969981E+02 -0.12197932100E+02 -0.33695682183E+02  0.39843937915E+02  0.00000000000E+00 0. -1.
<mgrwt>
<rscale>  2 0.21263593E+02</rscale>
<asrwt>0</asrwt>
<pdfrwt beam="1">  1       21 0.16614613E-02 0.21263593E+02</pdfrwt>
<pdfrwt beam="2">  1       21 0.79079204E-02 0.21263593E+02</pdfrwt>
<totfact> 0.13295810E+08</totfact>
</mgrwt>
</event>
<event>
 4    1  0.4438654E+006  0.2255356E+02  0.7546771E-02  0.1698851E+00
         21   -1    0    0  502  501  0.00000000000E+00  0.00000000000E+00  0.32838831818E+01  0.32838831818E+01  0.00000000000E+00 0.  1.
         21   -1    0    0  503  502 -0.00000000000E+00 -0.00000000000E+00 -0.19718496057E+03  0.19718496057E+03  0.00000000000E+00 0.  1.
         21    1    1    2  503  504  0.16021825503E+02  0.15873373950E+02 -0.14336887333E+03  0.14513199762E+03  0.00000000000E+00 0.  1.
         21    1    1    2  504  501 -0.16021825503E+02 -0.15873373950E+02 -0.50532204063E+02  0.55336846138E+02  0.00000000000E+00 0.  1.
<mgrwt>
<rscale>  2 0.22553556E+02</rscale>
<asrwt>0</asrwt>
<pdfrwt beam="1">  1       21 0.50521264E-03 0.22553556E+02</pdfrwt>
<pdfrwt beam="2">  1       21 0.30336157E-01 0.22553556E+02</pdfrwt>
<totfact> 0.80601209E+07</totfact>
</mgrwt>
</event>
<event>
 4    1  0.4438654E+006  0.2131226E+02  0.7546771E-02  0.1720425E+00
         21   -1    0    0  504  501  0.00000000000E+00  0.00000000000E+00  0.12924015589E+03  0.12924015589E+03  0.00000000000E+00 0.  1.
         21   -1    0    0  503  502 -0.00000000000E+00 -0.00000000000E+00 -0.49905640857E+01  0.49905640857E+01  0.00000000000E+00 0.  1.
         21    1    1    2  503  501  0.16051063492E+02 -0.14020546932E+02  0.98625577341E+02  0.10090201624E+03  0.00000000000E+00 0.  1.
         21    1    1    2  504  502 -0.16051063492E+02  0.14020546932E+02  0.25624014464E+02  0.33328703736E+02  0.00000000000E+00 0.  1.
<mgrwt>
<rscale>  2 0.21312259E+02</rscale>
<asrwt>0</asrwt>
<pdfrwt beam="1">  1       21 0.19883098E-01 0.21312259E+02</pdfrwt>
<pdfrwt beam="2">  1       21 0.76777919E-03 0.21312259E+02</pdfrwt>
<totfact> 0.90488709E+07</totfact>
</mgrwt>
</event>
<event>
 4    1  0.4438654E+006  0.2622331E+02  0.7546771E-02  0.1644028E+00
         21   -1    0    0  503  501  0.00000000000E+00  0.00000000000E+00  0.23646175488E+03  0.23646175488E+03  0.00000000000E+00 0. -1.
         21   -1    0    0  504  502 -0.00000000000E+00 -0.00000000000E+00 -0.17591419344E+02  0.17591419344E+02  0.00000000000E+00 0. -1.
         21    1    1    2  503  502  0.14380444709E+02 -0.21928628375E+02  0.22548802626E+03  0.22700773537E+03  0.00000000000E+00 0. -1.
         21    1    1    2  504  501 -0.14380444709E+02  0.21928628375E+02 -0.66176907192E+01  0.27045438855E+02  0.00000000000E+00 0. -1.
<mgrwt>
<rscale>  2 0.26223309E+02</rscale>
<asrwt>0</asrwt>
<pdfrwt beam="1">  1       21 0.36378729E-01 0.26223309E+02</pdfrwt>
<pdfrwt beam="2">  1       21 0.27063724E-02 0.26223309E+02</pdfrwt>
<totfact> 0.46881569E+06</totfact>
</mgrwt>
</event>
<event>
 4    1  0.4438654E+006  0.2352952E+02  0.7546771E-02  0.1683068E+00
         21   -1    0    0  504  501  0.00000000000E+00  0.00000000000E+00  0.66288937094E+02  0.66288937094E+02  0.00000000000E+00 0.  1.
         21   -1    0    0  501  502 -0.00000000000E+00 -0.00000000000E+00 -0.11073073017E+02  0.11073073017E+02  0.00000000000E+00 0.  1.
         21    1    1    2  503  502  0.22591860515E+02  0.65761844183E+01  0.84326394421E+01  0.24994954911E+02  0.00000000000E+00 0.  1.
         21    1    1    2  504  503 -0.22591860515E+02 -0.65761844183E+01  0.46783224635E+02  0.52367055200E+02  0.00000000000E+00 0.  1.
<mgrwt>
<rscale>  2 0.23529521E+02</rscale>
<asrwt>0</asrwt>
<pdfrwt beam="1">  1       21 0.10198298E-01 0.23529521E+02</pdfrwt>
<pdfrwt beam="2">  1       21 0.17035497E-02 0.23529521E+02</pdfrwt>
<totfact> 0.86819694E+07</totfact>
</mgrwt>
</event>
<event>
 4    1  0.4438654E+006  0.2146941E+02  0.7546771E-02  0.1717593E+00
         21   -1    0    0  504  501  0.00000000000E+00  0.00000000000E+00  0.30231870029E+03  0.30231870029E+03  0.00000000000E+00 0. -1.
         21   -1    0    0  503  502 -0.00000000000E+00 -0.00000000000E+00 -0.17253103287E+01  0.17253103287E+01  0.00000000000E+00 0. -1.
         21    1    1    2  503  501  0.84282813197E+00  0.21452863030E+02  0.98454429622E+02  0.10076810211E+03  0.00000000000E+00 0. -1.
         21    1    1    2  504  502 -0.84282813197E+00 -0.21452863030E+02  0.20213896034E+03  0.20327590850E+03  0.00000000000E+00 0. -1.
<mgrwt>
<rscale>  2 0.21469413E+02</rscale>
<asrwt>0</asrwt>
<pdfrwt beam="1">  1       21 0.46510527E-01 0.21469413E+02</pdfrwt>
<pdfrwt beam="2">  1       21 0.26543260E-03 0.21469413E+02</pdfrwt>
<totfact> 0.91813939E+07</totfact>
</mgrwt>
</event>
<event>
 4    1  0.4438654E+006  0.4563813E+02  0.7546771E-02  0.1470397E+00
         21   -1    0    0  503  501  0.00000000000E+00  0.00000000000E+00  0.26034180856E+02  0.26034180856E+02  0.00000000000E+00 0.  1.
         21   -1    0    0  504  502 -0.00000000000E+00 -0.00000000000E+00 -0.14176825405E+03  0.14176825405E+03  0.00000000000E+00 0.  1.
         21    1    1    2  503  502 -0.41194208451E+02 -0.19643732961E+02 -0.24877563561E+01  0.45705885685E+02  0.00000000000E+00 0.  1.
         21    1    1    2  504  501  0.41194208451E+02  0.19643732961E+02 -0.11324631684E+03  0.12209654922E+03  0.00000000000E+00 0.  1.
<mgrwt>
<rscale>  2 0.45638132E+02</rscale>
<asrwt>0</asrwt>
<pdfrwt beam="1">  1       21 0.40052586E-02 0.45638132E+02</pdfrwt>
<pdfrwt beam="2">  1       21 0.21810501E-01 0.45638132E+02</pdfrwt>
<totfact> 0.69088879E+06</totfact>
</mgrwt>
</event>
<event>
 4    1  0.4438654E+006  0.3201419E+02  0.7546771E-02  0.1576835E+00
         21   -1    0    0  503  501  0.00000000000E+00  0.00000000000E+00  0.86919778728E+02  0.86919778728E+02  0.00000000000E+00 0.  1.
         21   -1    0    0  501  502 -0.00000000000E+00 -0.00000000000E+00 -0.71499325265E+02  0.71499325265E+02  0.00000000000E+00 0.  1.
         21    1    1    2  503  504  0.26240246567E+02 -0.18340059847E+02  0.80094209039E+02  0.86255380451E+02  0.00000000000E+00 0.  1.
         21    1    1    2  504  502 -0.26240246567E+02  0.18340059847E+02 -0.64673755577E+02  0.72163723542E+02  0.00000000000E+00 0.  1.
<mgrwt>
<rscale>  2 0.32014190E+02</rscale>
<asrwt>0</asrwt>
<pdfrwt beam="1">  1       21 0.13372274E-01 0.32014190E+02</pdfrwt>
<pdfrwt beam="2">  1       21 0.10999896E-01 0.32014190E+02</pdfrwt>
<totfact> 0.29681180E+06</totfact>
</mgrwt>
</event>
<event>
 4    1  0.4438654E+006  0.3434142E+02  0.7546771E-02  0.1554528E+00
         21   -1    0    0  503  501  0.00000000000E+00  0.00000000000E+00  0.79239940455E+02  0.79239940455E+02  0.00000000000E+00 0.  1.
         21   -1    0    0  504  502 -0.00000000000E+00 -0.00000000000E+00 -0.15144273422E+02  0.15144273422E+02  0.00000000000E+00 0.  1.
         21    1    1    2  503  502  0.75985728419E+01  0.33490221706E+02  0.38245639112E+02  0.51400993864E+02  0.00000000000E+00 0.  1.
         21    1    1    2  504  501 -0.75985728419E+01 -0.33490221706E+02  0.25850027921E+02  0.42983220013E+02  0.00000000000E+00 0.  1.
<mgrwt>
<rscale>  2 0.34341422E+02</rscale>
<asrwt>0</asrwt>
<pdfrwt beam="1">  1       21 0.12190760E-01 0.34341422E+02</pdfrwt>
<pdfrwt beam="2">  1       21 0.23298883E-02 0.34341422E+02</pdfrwt>
<totfact> 0.43328609E+07</totfact>
</mgrwt>
</event>
<event>
 4    1  0.4438654E+006  0.2481895E+02  0.7546771E-02  0.1663616E+00
         21   -1    0    0  504  501  0.00000000000E+00  0.00000000000E+00  0.23141538196E+03  0.23141538196E+03  0.00000000000E+00 0. -1.
         21   -1    0    0  503  502 -0.00000000000E+00 -0.00000000000E+00 -0.16541271067E+02  0.16541271067E+02  0.00000000000E+00 0.  1.
         21    1    1    2  503  501 -0.15539281249E-01 -0.24818947428E+02 -0.61288220343E+01  0.25564484201E+02  0.00000000000E+00 0.  1.
         21    1    1    2  504  502  0.15539281249E-01  0.24818947428E+02  0.22100293293E+03  0.22239216883E+03  0.00000000000E+00 0. -1.
<mgrwt>
<rscale>  2 0.24818952E+02</rscale>
<asrwt>0</asrwt>
<pdfrwt beam="1">  1       21 0.35602364E-01 0.24818952E+02</pdfrwt>
<pdfrwt beam="2">  1       21 0.25448111E-02 0.24818952E+02</pdfrwt>
<totfact> 0.53290197E+06</totfact>
</mgrwt>
</event>
<event>
 4    1  0.4438654E+006  0.2213387E+02  0.7546771E-02  0.1705947E+00
         21   -1    0    0  503  501  0.00000000000E+00  0.00000000000E+00  0.77338918795E+01  0.77338918795E+01  0.00000000000E+00 0.  1.
         21   -1    0    0  504  502 -0.00000000000E+00 -0.00000000000E+00 -0.63479282740E+02  0.63479282740E+02  0.00000000000E+00 0.  1.
         21    1    1    2  503  502  0.39043722143E+01 -0.21786784167E+02 -0.29506643690E+02  0.36885635532E+02  0.00000000000E+00 0.  1.
         21    1    1    2  504  501 -0.39043722143E+01  0.21786784167E+02 -0.26238747171E+02  0.34327539088E+02  0.00000000000E+00 0.  1.
<mgrwt>
<rscale>  2 0.22133867E+02</rscale>
<asrwt>0</asrwt>
<pdfrwt beam="1">  1       21 0.11898296E-02 0.22133867E+02</pdfrwt>
<pdfrwt beam="2">  1       21 0.97660431E-02 0.22133867E+02</pdfrwt>
<totfact> 0.15793473E+08</totfact>
</mgrwt>
</event>
<event>
 4    1  0.4438654E+006  0.2769765E+02  0.7546771E-02  0.1625028E+00
         21   -1    0    0  504  501  0.00000000000E+00  0.00000000000E+00  0.25537291549E+02  0.25537291549E+02  0.00000000000E+00 0.  1.
         21   -1    0    0  501  502 -0.00000000000E+00 -0.00000000000E+00 -0.46844874088E+03  0.46844874088E+03  0.00000000000E+00 0.  1.
         21    1    1    2  503  502 -0.17213394689E+02 -0.21699280544E+02 -0.46039792562E+03  0.46123032169E+03  0.00000000000E+00 0.  1.
         21    1    1    2  504  503  0.17213394689E+02  0.21699280544E+02  0.17486476289E+02  0.32755710737E+02  0.00000000000E+00 0.  1.
<mgrwt>
<rscale>  2 0.27697649E+02</rscale>
<asrwt>0</asrwt>
<pdfrwt beam="1">  1       21 0.39288143E-02 0.27697649E+02</pdfrwt>
<pdfrwt beam="2">  1       21 0.72069034E-01 0.27697649E+02</pdfrwt>
<totfact> 0.68365250E+05</totfact>
</mgrwt>
</event>
<event>
 4    1  0.4438654E+006  0.2124348E+02  0.7546771E-02  0.1721674E+00
         21   -1    0    0  504  501  0.00000000000E+00  0.00000000000E+00  0.26728747563E+02  0.26728747563E+02  0.00000000000E+00 0.  1.
         21   -1    0    0  503  502 -0.00000000000E+00 -0.00000000000E+00 -0.23925319771E+02  0.23925319771E+02  0.00000000000E+00 0.  1.
         21    1    1    2  503  501 -0.47644342457E-01 -0.21243427410E+02 -0.12338250149E+02  0.24566601207E+02  0.00000000000E+00 0.  1.
         21    1    1    2  504  502  0.47644342457E-01  0.21243427410E+02  0.15141677940E+02  0.26087466127E+02  0.00000000000E+00 0.  1.
<mgrwt>
<rscale>  2 0.21243481E+02</rscale>
<asrwt>0</asrwt>
<pdfrwt beam="1">  1       21 0.41121150E-02 0.21243481E+02</pdfrwt>
<pdfrwt beam="2">  1       21 0.36808184E-02 0.21243481E+02</pdfrwt>
<totfact> 0.11084638E+08</totfact>
</mgrwt>
</event>
<event>
 4    1  0.4438654E+006  0.2131286E+02  0.7546771E-02  0.1720414E+00
         21   -1    0    0  502  501  0.00000000000E+00  0.00000000000E+00  0.12146072940E+03  0.12146072940E+03  0.00000000000E+00 0.  1.
         21   -1    0    0  504  502 -0.00000000000E+00 -0.00000000000E+00 -0.20151375359E+02  0.20151375359E+02  0.00000000000E+00 0.  1.
         21    1    1    2  503  501  0.16144601423E+02 -0.13913658547E+02  0.11455355864E+03  0.11651933679E+03  0.00000000000E+00 0.  1.
         21    1    1    2  504  503 -0.16144601423E+02  0.13913658547E+02 -0.13244204592E+02  0.25092767973E+02  0.00000000000E+00 0.  1.
<mgrwt>
<rscale>  2 0.21312861E+02</rscale>
<asrwt>0</asrwt>
<pdfrwt beam="1">  1       21 0.18686266E-01 0.21312861E+02</pdfrwt>
<pdfrwt beam="2">  1       21 0.31002117E-02 0.21312861E+02</pdfrwt>
<totfact> 0.12105429E+07</totfact>
</mgrwt>
</event>
<event>
 4    1  0.4438654E+006  0.2219134E+02  0.7546771E-02  0.1704964E+00
         21   -1    0    0  504  501  0.00000000000E+00  0.00000000000E+00  0.12250846028E+02  0.12250846028E+02  0.00000000000E+00 0. -1.
         21   -1    0    0  503  502 -0.00000000000E+00 -0.00000000000E+00 -0.67562825332E+02  0.67562825332E+02  0.00000000000E+00 0. -1.
         21    1    1    2  503  501 -0.22127809974E+02  0.16779495947E+01 -0.53053569551E+02  0.57507710189E+02  0.00000000000E+00 0. -1.
         21    1    1    2  504  502  0.22127809974E+02 -0.16779495947E+01 -0.22584097525E+01  0.22305961170E+02  0.00000000000E+00 0. -1.
<mgrwt>
<rscale>  2 0.22191338E+02</rscale>
<asrwt>0</asrwt>
<pdfrwt beam="1">  1       21 0.18847455E-02 0.22191338E+02</pdfrwt>
<pdfrwt beam="2">  1       21 0.10394281E-01 0.22191338E+02</pdfrwt>
<totfact> 0.70926642E+07</totfact>
</mgrwt>
</event>
<event>
 4    1  0.4438654E+006  0.2060942E+02  0.7546771E-02  0.1733474E+00
         21   -1    0    0  503  501  0.00000000000E+00  0.00000000000E+00  0.12842013259E+02  0.12842013259E+02  0.00000000000E+00 0. -1.
         21   -1    0    0  504  502 -0.00000000000E+00 -0.00000000000E+00 -0.79274978096E+02  0.79274978096E+02  0.00000000000E+00 0. -1.
         21    1    1    2  503  502  0.13108506738E+02 -0.15903315486E+02 -0.68377627211E+02  0.71416022679E+02  0.00000000000E+00 0. -1.
         21    1    1    2  504  501 -0.13108506738E+02  0.15903315486E+02  0.19446623741E+01  0.20700968675E+02  0.00000000000E+00 0. -1.
<mgrwt>
<rscale>  2 0.20609425E+02</rscale>
<asrwt>0</asrwt>
<pdfrwt beam="1">  1       21 0.19756944E-02 0.20609425E+02</pdfrwt>
<pdfrwt beam="2">  1       21 0.12196150E-01 0.20609425E+02</pdfrwt>
<totfact> 0.49604384E+07</totfact>
</mgrwt>
</event>
<event>
 4    1  0.4438654E+006  0.2580970E+02  0.7546771E-02  0.1649637E+00
         21   -1    0    0  504  501  0.00000000000E+00  0.00000000000E+00  0.12138243010E+03  0.12138243010E+03  0.00000000000E+00 0. -1.
         21   -1    0    0  503  502 -0.00000000000E+00 -0.00000000000E+00 -0.54885762042E+01  0.54885762042E+01  0.00000000000E+00 0. -1.
         21    1    1    2  503  501  0.25468069383E+02 -0.41854612888E+01  0.57269066331E+02  0.62816292494E+02  0.00000000000E+00 0. -1.
         21    1    1    2  504  502 -0.25468069383E+02  0.41854612888E+01  0.58624787565E+02  0.64054713810E+02  0.00000000000E+00 0. -1.
<mgrwt>
<rscale>  2 0.25809701E+02</rscale>
<asrwt>0</asrwt>
<pdfrwt beam="1">  1       21 0.18674218E-01 0.25809701E+02</pdfrwt>
<pdfrwt beam="2">  1       21 0.84439643E-03 0.25809701E+02</pdfrwt>
<totfact> 0.92173381E+07</totfact>
</mgrwt>
</event>
<event>
 4    1  0.4438654E+006  0.2301429E+02  0.7546771E-02  0.1691279E+00
         21   -1    0    0  504  501  0.00000000000E+00  0.00000000000E+00  0.11873506450E+04  0.11873506450E+04  0.00000000000E+00 0. -1.
         21   -1    0    0  501  502 -0.00000000000E+00 -0.00000000000E+00 -0.82247340361E+01  0.82247340361E+01  0.00000000000E+00 0.  1.
         21    1    1    2  503  502  0.15415746311E+02 -0.17088365130E+02  0.82122981938E+01  0.24435615375E+02  0.00000000000E+00 0.  1.
         21    1    1    2  504  503 -0.15415746311E+02  0.17088365130E+02  0.11709136128E+04  0.11711397637E+04  0.00000000000E+00 0. -1.
<mgrwt>
<rscale>  2 0.23014288E+02</rscale>
<asrwt>0</asrwt>
<pdfrwt beam="1">  1       21 0.18266919E+00 0.23014288E+02</pdfrwt>
<pdfrwt beam="2">  1       21 0.12653446E-02 0.23014288E+02</pdfrwt>
<totfact> 0.47574429E+05</totfact>
</mgrwt>
</event>
<event>
 4    1  0.4438654E+006  0.2128185E+02  0.7546771E-02  0.1720976E+00
         21   -1    0    0  503  501  0.00000000000E+00  0.00000000000E+00  0.12780237829E+02  0.12780237829E+02  0.00000000000E+00 0. -1.
         21   -1    0    0  501  502 -0.00000000000E+00 -0.00000000000E+00 -0.17344791106E+03  0.17344791106E+03  0.00000000000E+00 0.  1.
         21    1    1    2  503  504 -0.21272310659E+02 -0.63709466907E+00  0.27247573263E+01  0.21455567876E+02  0.00000000000E+00 0. -1.
         21    1    1    2  504  502  0.21272310659E+02  0.63709466907E+00 -0.16339243056E+03  0.16477258102E+03  0.00000000000E+00 0.  1.
<mgrwt>
<rscale>  2 0.21281849E+02</rscale>
<asrwt>0</asrwt>
<pdfrwt beam="1">  1       21 0.19661907E-02 0.21281849E+02</pdfrwt>
<pdfrwt beam="2">  1       21 0.26684291E-01 0.21281849E+02</pdfrwt>
<totfact> 0.13053590E+07</totfact>
</mgrwt>
</event>
<event>
 4    1  0.4438654E+006  0.2092139E+02  0.7546771E-02  0.1727602E+00
         21   -1    0    0  504  501  0.00000000000E+00  0.00000000000E+00  0.59832693534E+01  0.59832693534E+01  0.00000000000E+00 0. -1.
         21   -1    0    0  503  502 -0.00000000000E+00 -0.00000000000E+00 -0.88706051451E+03  0.88706051451E+03  0.00000000000E+00 0.  1.
         21    1    1    2  503  501 -0.16060764482E+02  0.13407328205E+02 -0.86825235380E+03  0.86850437793E+03  0.00000000000E+00 0.  1.
         21    1    1    2  504  502  0.16060764482E+02 -0.13407328205E+02 -0.12824891361E+02  0.24539405938E+02  0.00000000000E+00 0. -1.
<mgrwt>
<rscale>  2 0.20921391E+02</rscale>
<asrwt>0</asrwt>
<pdfrwt beam="1">  1       21 0.92050349E-03 0.20921391E+02</pdfrwt>
<pdfrwt beam="2">  1       21 0.13647077E+00 0.20921391E+02</pdfrwt>
<totfact> 0.15347946E+06</totfact>
</mgrwt>
</event>
<event>
 4    1  0.4438654E+006  0.2925932E+02  0.7546771E-02  0.1606423E+00
         21   -1    0    0  504  501  0.00000000000E+00  0.00000000000E+00  0.65909304184E+03  0.65909304184E+03  0.00000000000E+00 0. -1.
         21   -1    0    0  503  502 -0.00000000000E+00 -0.00000000000E+00 -0.17906128690E+02  0.17906128690E+02  0.00000000000E+00 0. -1.
         21    1    1    2  503  501  0.12735003424E+02 -0.26342504058E+02 -0.53975640144E+01  0.29753008748E+02  0.00000000000E+00 0. -1.
         21    1    1    2  504  502 -0.12735003424E+02  0.26342504058E+02  0.64658447717E+03  0.64724616179E+03  0.00000000000E+00 0. -1.
<mgrwt>
<rscale>  2 0.29259320E+02</rscale>
<asrwt>0</asrwt>
<pdfrwt beam="1">  1       21 0.10139891E+00 0.29259320E+02</pdfrwt>
<pdfrwt beam="2">  1       21 0.27547895E-02 0.29259320E+02</pdfrwt>
<totfact> 0.57695168E+05</totfact>
</mgrwt>
</event>
<event>
 4    1  0.4438654E+006  0.2759933E+02  0.7546771E-02  0.1626249E+00
         21   -1    0    0  504  501  0.00000000000E+00  0.00000000000E+00  0.38800905102E+03  0.38800905102E+03  0.00000000000E+00 0.  1.
         21   -1    0    0  503  502 -0.00000000000E+00 -0.00000000000E+00 -0.20202790009E+01  0.20202790009E+01  0.00000000000E+00 0. -1.
         21    1    1    2  503  501 -0.11049890878E+02  0.25290772823E+02  0.22578559915E+03  0.22746617345E+03  0.00000000000E+00 0.  1.
         21    1    1    2  504  502  0.11049890878E+02 -0.25290772823E+02  0.16020317286E+03  0.16256315657E+03  0.00000000000E+00 0. -1.
<mgrwt>
<rscale>  2 0.27599335E+02</rscale>
<asrwt>0</asrwt>
<pdfrwt beam="1">  1       21 0.59693641E-01 0.27599335E+02</pdfrwt>
<pdfrwt beam="2">  1       21 0.31081246E-03 0.27599335E+02</pdfrwt>
<totfact> 0.47397973E+07</totfact>
</mgrwt>
</event>
<event>
 4    1  0.4438654E+006  0.2596655E+02  0.7546771E-02  0.1647495E+00
         21   -1    0    0  503  501  0.00000000000E+00  0.00000000000E+00  0.96169620630E+02  0.96169620630E+02  0.00000000000E+00 0.  1.
         21   -1    0    0  501  502 -0.00000000000E+00 -0.00000000000E+00 -0.11145958346E+02  0.11145958346E+02  0.00000000000E+00 0.  1.
         21    1    1    2  503  504 -0.11956706313E+02  0.23049924774E+02  0.75193223280E+02  0.79550503991E+02  0.00000000000E+00 0.  1.
         21    1    1    2  504  502  0.11956706313E+02 -0.23049924774E+02  0.98304390040E+01  0.27765074986E+02  0.00000000000E+00 0.  1.
<mgrwt>
<rscale>  2 0.25966553E+02</rscale>
<asrwt>0</asrwt>
<pdfrwt beam="1">  1       21 0.14795326E-01 0.25966553E+02</pdfrwt>
<pdfrwt beam="2">  1       21 0.17147629E-02 0.25966553E+02</pdfrwt>
<totfact> 0.47113192E+07</totfact>
</mgrwt>
</event>
<event>
 4    1  0.4438654E+006  0.2244803E+02  0.7546771E-02  0.1700617E+00
         21   -1    0    0  504  501  0.00000000000E+00  0.00000000000E+00  0.60073063402E+02  0.60073063402E+02  0.00000000000E+00 0.  1.
         21   -1    0    0  503  502 -0.00000000000E+00 -0.00000000000E+00 -0.10544391835E+02  0.10544391835E+02  0.00000000000E+00 0. -1.
         21    1    1    2  503  501  0.11973790819E+02 -0.18987958676E+02  0.87982194999E+01  0.24110638889E+02  0.00000000000E+00 0. -1.
         21    1    1    2  504  502 -0.11973790819E+02  0.18987958676E+02  0.40730452067E+02  0.46506816348E+02  0.00000000000E+00 0.  1.
<mgrwt>
<rscale>  2 0.22448034E+02</rscale>
<asrwt>0</asrwt>
<pdfrwt beam="1">  1       21 0.92420095E-02 0.22448034E+02</pdfrwt>
<pdfrwt beam="2">  1       21 0.16222142E-02 0.22448034E+02</pdfrwt>
<totfact> 0.10859590E+08</totfact>
</mgrwt>
</event>
<event>
 4    1  0.4438654E+006  0.2401040E+02  0.7546771E-02  0.1675637E+00
         21   -1    0    0  504  501  0.00000000000E+00  0.00000000000E+00  0.56045066659E+02  0.56045066659E+02  0.00000000000E+00 0. -1.
         21   -1    0    0  501  502 -0.00000000000E+00 -0.00000000000E+00 -0.52506588250E+02  0.52506588250E+02  0.00000000000E+00 0.  1.
         21    1    1    2  503  502 -0.23961652707E+02 -0.15292649057E+01 -0.46900595066E+02  0.52689327849E+02  0.00000000000E+00 0.  1.
         21    1    1    2  504  503  0.23961652707E+02  0.15292649057E+01  0.50439073475E+02  0.55862327060E+02  0.00000000000E+00 0. -1.
<mgrwt>
<rscale>  2 0.24010403E+02</rscale>
<asrwt>0</asrwt>
<pdfrwt beam="1">  1       21 0.86223180E-02 0.24010403E+02</pdfrwt>
<pdfrwt beam="2">  1       21 0.80779366E-02 0.24010403E+02</pdfrwt>
<totfact> 0.99068334E+06</totfact>
</mgrwt>
</event>
<event>
 4    1  0.4438654E+006  0.2097271E+02  0.7546771E-02  0.1726649E+00
         21   -1    0    0  503  501  0.00000000000E+00  0.00000000000E+00  0.22280805885E+02  0.22280805885E+02  0.00000000000E+00 0. -1.
         21   -1    0    0  504  502 -0.00000000000E+00 -0.00000000000E+00 -0.22824921110E+02  0.22824921110E+02  0.00000000000E+00 0. -1.
         21    1    1    2  503  502 -0.70674832414E+01 -0.19746020494E+02 -0.85613875565E+01  0.22652858574E+02  0.00000000000E+00 0. -1.
         21    1    1    2  504  501  0.70674832414E+01  0.19746020494E+02  0.80172723308E+01  0.22452868421E+02  0.00000000000E+00 0. -1.
<mgrwt>
<rscale>  2 0.20972712E+02</rscale>
<asrwt>0</asrwt>
<pdfrwt beam="1">  1       21 0.34278163E-02 0.20972712E+02</pdfrwt>
<pdfrwt beam="2">  1       21 0.35115263E-02 0.20972712E+02</pdfrwt>
<totfact> 0.15804987E+08</totfact>
</mgrwt>
</event>
<event>
 4    1  0.4438654E+006  0.2950559E+02  0.7546771E-02  0.1603619E+00
         21   -1    0    0  503  501  0.00000000000E+00  0.00000000000E+00  0.15566590188E+02  0.15566590188E+02  0.00000000000E+00 0.  1.
         21   -1    0    0  504  502 -0.00000000000E+00 -0.00000000000E+00 -0.79530590223E+02  0.79530590223E+02  0.00000000000E+00 0. -1.
         21    1    1    2  503  502  0.16120155793E+02 -0.24712759876E+02 -0.60779828200E+01  0.30125102466E+02  0.00000000000E+00 0.  1.
         21    1    1    2  504  501 -0.16120155793E+02  0.24712759876E+02 -0.57886017215E+02  0.64972077945E+02  0.00000000000E+00 0. -1.
<mgrwt>
<rscale>  2 0.29505591E+02</rscale>
<asrwt>0</asrwt>
<pdfrwt beam="1">  1       21 0.23948600E-02 0.29505591E+02</pdfrwt>
<pdfrwt beam="2">  1       21 0.12235476E-01 0.29505591E+02</pdfrwt>
<totfact> 0.39983274E+07</totfact>
</mgrwt>
</event>
<event>
 4    1  0.4438654E+006  0.2060778E+02  0.7546771E-02  0.1733505E+00
         21   -1    0    0  504  501  0.00000000000E+00  0.00000000000E+00  0.33437459524E+00  0.33437459524E+00  0.00000000000E+00 0.  1.
         21   -1    0    0  503  502 -0.00000000000E+00 -0.00000000000E+00 -0.12700829386E+04  0.12700829386E+04  0.00000000000E+00 0.  1.
         21    1    1    2  503  501  0.19734058267E+02  0.59369518622E+01 -0.63656689243E+03  0.63690037603E+03  0.00000000000E+00 0.  1.
         21    1    1    2  504  502 -0.19734058267E+02 -0.59369518622E+01 -0.63318167157E+03  0.63351693716E+03  0.00000000000E+00 0.  1.
<mgrwt>
<rscale>  2 0.20607777E+02</rscale>
<asrwt>0</asrwt>
<pdfrwt beam="1">  1       21 0.51442114E-04 0.20607777E+02</pdfrwt>
<pdfrwt beam="2">  1       21 0.19539787E+00 0.20607777E+02</pdfrwt>
<totfact> 0.41490003E+07</totfact>
</mgrwt>
</event>
<event>
 4    1  0.4438654E+006  0.2624768E+02  0.7546771E-02  0.1643702E+00
         21   -1    0    0  504  501  0.00000000000E+00  0.00000000000E+00  0.12300430664E+02  0.12300430664E+02  0.00000000000E+00 0. -1.
         21   -1    0    0  503  502 -0.00000000000E+00 -0.00000000000E+00 -0.95839068078E+02  0.95839068078E+02  0.00000000000E+00 0. -1.
         21    1    1    2  503  501 -0.12098191898E+02 -0.23293223633E+02 -0.69126349371E+01  0.27142679237E+02  0.00000000000E+00 0. -1.
         21    1    1    2  504  502  0.12098191898E+02  0.23293223633E+02 -0.76626002476E+02  0.80996819505E+02  0.00000000000E+00 0. -1.
<mgrwt>
<rscale>  2 0.26247676E+02</rscale>
<asrwt>0</asrwt>
<pdfrwt beam="1">  1       21 0.18923740E-02 0.26247676E+02</pdfrwt>
<pdfrwt beam="2">  1       21 0.14744472E-01 0.26247676E+02</pdfrwt>
<totfact> 0.40834153E+07</totfact>
</mgrwt>
</event>
<event>
 4    1  0.4438654E+006  0.2203726E+02  0.7546771E-02  0.1707608E+00
         21   -1    0    0  504  501  0.00000000000E+00  0.00000000000E+00  0.44847820884E+02  0.44847820884E+02  0.00000000000E+00 0.  1.
         21   -1    0    0  501  502 -0.00000000000E+00 -0.00000000000E+00 -0.12891281537E+02  0.12891281537E+02  0.00000000000E+00 0.  1.
         21    1    1    2  503  502 -0.42794755672E+01 -0.21617750393E+02  0.44303555290E+01  0.22478191504E+02  0.00000000000E+00 0.  1.
         21    1    1    2  504  503  0.42794755672E+01  0.21617750393E+02  0.27526183818E+02  0.35260910918E+02  0.00000000000E+00 0.  1.
<mgrwt>
<rscale>  2 0.22037265E+02</rscale>
<asrwt>0</asrwt>
<pdfrwt beam="1">  1       21 0.68996647E-02 0.22037265E+02</pdfrwt>
<pdfrwt beam="2">  1       21 0.19832741E-02 0.22037265E+02</pdfrwt>
<totfact> 0.12794633E+08</totfact>
</mgrwt>
</event>
<event>
 4    1  0.4438654E+006  0.2491869E+02  0.7546771E-02  0.1662173E+00
         21   -1    0    0  503  501  0.00000000000E+00  0.00000000000E+00  0.12832419487E+02  0.12832419487E+02  0.00000000000E+00 0. -1.
         21   -1    0    0  504  502 -0.00000000000E+00 -0.00000000000E+00 -0.87194168514E+02  0.87194168514E+02  0.00000000000E+00 0. -1.
         21    1    1    2  503  502  0.24689359927E+02 -0.33729327535E+01 -0.70545747910E+02  0.74817402502E+02  0.00000000000E+00 0. -1.
         21    1    1    2  504  501 -0.24689359927E+02  0.33729327535E+01 -0.38160011172E+01  0.25209185499E+02  0.00000000000E+00 0. -1.
<mgrwt>
<rscale>  2 0.24918691E+02</rscale>
<asrwt>0</asrwt>
<pdfrwt beam="1">  1       21 0.19742184E-02 0.24918691E+02</pdfrwt>
<pdfrwt beam="2">  1       21 0.13414488E-01 0.24918691E+02</pdfrwt>
<totfact> 0.44405635E+07</totfact>
</mgrwt>
</event>
<event>
 4    1  0.4438654E+006  0.3293856E+02  0.7546771E-02  0.1567707E+00
         21   -1    0    0  502  501  0.00000000000E+00  0.00000000000E+00  0.14217655763E+02  0.14217655763E+02  0.00000000000E+00 0. -1.
         21   -1    0    0  504  502 -0.00000000000E+00 -0.00000000000E+00 -0.77873394577E+02  0.77873394577E+02  0.00000000000E+00 0. -1.
         21    1    1    2  503  501  0.23478477009E+02  0.23102167151E+02 -0.25303626468E+02  0.41535798080E+02  0.00000000000E+00 0. -1.
         21    1    1    2  504  503 -0.23478477009E+02 -0.23102167151E+02 -0.38352112346E+02  0.50555252260E+02  0.00000000000E+00 0. -1.
<mgrwt>
<rscale>  2 0.32938564E+02</rscale>
<asrwt>0</asrwt>
<pdfrwt beam="1">  1       21 0.21873316E-02 0.32938564E+02</pdfrwt>
<pdfrwt beam="2">  1       21 0.11980522E-01 0.32938564E+02</pdfrwt>
<totfact> 0.48830875E+07</totfact>
</mgrwt>
</event>
<event>
 4    1  0.4438654E+006  0.2188427E+02  0.7546771E-02  0.1710261E+00
         21   -1    0    0  502  501  0.00000000000E+00  0.00000000000E+00  0.16083713613E+03  0.16083713613E+03  0.00000000000E+00 0. -1.
         21   -1    0    0  504  502 -0.00000000000E+00 -0.00000000000E+00 -0.30019952980E+01  0.30019952980E+01  0.00000000000E+00 0. -1.
         21    1    1    2  503  501  0.64104724789E+01  0.20924316790E+02  0.86290514236E+02  0.89022323255E+02  0.00000000000E+00 0. -1.
         21    1    1    2  504  503 -0.64104724789E+01 -0.20924316790E+02  0.71544626601E+02  0.74816808178E+02  0.00000000000E+00 0. -1.
<mgrwt>
<rscale>  2 0.21884268E+02</rscale>
<asrwt>0</asrwt>
<pdfrwt beam="1">  1       21 0.24744168E-01 0.21884268E+02</pdfrwt>
<pdfrwt beam="2">  1       21 0.46184556E-03 0.21884268E+02</pdfrwt>
<totfact> 0.13158850E+08</totfact>
</mgrwt>
</event>
<event>
 4    1  0.4438654E+006  0.2053709E+02  0.7546771E-02  0.1734853E+00
         21   -1    0    0  504  501  0.00000000000E+00  0.00000000000E+00  0.16076169977E+02  0.16076169977E+02  0.00000000000E+00 0.  1.
         21   -1    0    0  503  502 -0.00000000000E+00 -0.00000000000E+00 -0.36754653691E+02  0.36754653691E+02  0.00000000000E+00 0.  1.
         21    1    1    2  503  501 -0.16279683572E+02 -0.12519748893E+02 -0.24470606532E+02  0.31946561530E+02  0.00000000000E+00 0.  1.
         21    1    1    2  504  502  0.16279683572E+02  0.12519748893E+02  0.37921228182E+01  0.20884262137E+02  0.00000000000E+00 0.  1.
<mgrwt>
<rscale>  2 0.20537094E+02</rscale>
<asrwt>0</asrwt>
<pdfrwt beam="1">  1       21 0.24732570E-02 0.20537094E+02</pdfrwt>
<pdfrwt beam="2">  1       21 0.56545620E-02 0.20537094E+02</pdfrwt>
<totfact> 0.12282255E+08</totfact>
</mgrwt>
</event>
<event>
 4    1  0.4438654E+006  0.2099409E+02  0.7546771E-02  0.1726253E+00
         21   -1    0    0  504  501  0.00000000000E+00  0.00000000000E+00  0.10165279460E+02  0.10165279460E+02  0.00000000000E+00 0. -1.
         21   -1    0    0  503  502 -0.00000000000E+00 -0.00000000000E+00 -0.50030058233E+03  0.50030058233E+03  0.00000000000E+00 0. -1.
         21    1    1    2  503  501  0.21137391252E-01  0.20994078959E+02 -0.11452107425E+01  0.21025301562E+02  0.00000000000E+00 0. -1.
         21    1    1    2  504  502 -0.21137391252E-01 -0.20994078959E+02 -0.48899009213E+03  0.48944056023E+03  0.00000000000E+00 0. -1.
<mgrwt>
<rscale>  2 0.20994090E+02</rscale>
<asrwt>0</asrwt>
<pdfrwt beam="1">  1       21 0.15638894E-02 0.20994090E+02</pdfrwt>
<pdfrwt beam="2">  1       21 0.76969310E-01 0.20994090E+02</pdfrwt>
<totfact> 0.24219026E+06</totfact>
</mgrwt>
</event>
<event>
 4    1  0.4438654E+006  0.2371029E+02  0.7546771E-02  0.1680249E+00
         21   -1    0    0  503  501  0.00000000000E+00  0.00000000000E+00  0.22925856636E+02  0.22925856636E+02  0.00000000000E+00 0.  1.
         21   -1    0    0  504  502 -0.00000000000E+00 -0.00000000000E+00 -0.38860282332E+02  0.38860282332E+02  0.00000000000E+00 0.  1.
         21    1    1    2  503  502  0.23419197114E+02 -0.37038966472E+01  0.10798427799E+02  0.26053477441E+02  0.00000000000E+00 0.  1.
         21    1    1    2  504  501 -0.23419197114E+02  0.37038966472E+01 -0.26732853495E+02  0.35732661527E+02  0.00000000000E+00 0.  1.
<mgrwt>
<rscale>  2 0.23710286E+02</rscale>
<asrwt>0</asrwt>
<pdfrwt beam="1">  1       21 0.35270549E-02 0.23710286E+02</pdfrwt>
<pdfrwt beam="2">  1       21 0.59785049E-02 0.23710286E+02</pdfrwt>
<totfact> 0.67441607E+07</totfact>
</mgrwt>
</event>
<event>
 4    1  0.4438654E+006  0.2086901E+02  0.7546771E-02  0.1728579E+00
         21   -1    0    0  502  501  0.00000000000E+00  0.00000000000E+00  0.10337799403E+03  0.10337799403E+03  0.00000000000E+00 0.  1.
         21   -1    0    0  503  502 -0.00000000000E+00 -0.00000000000E+00 -0.30349172320E+02  0.30349172320E+02  0.00000000000E+00 0. -1.
         21    1    1    2  503  504 -0.18191519593E+02  0.10226631192E+02 -0.25535120894E+02  0.32978140786E+02  0.00000000000E+00 0. -1.
         21    1    1    2  504  501  0.18191519593E+02 -0.10226631192E+02  0.98563942604E+02  0.10074902556E+03  0.00000000000E+00 0.  1.
<mgrwt>
<rscale>  2 0.20869005E+02</rscale>
<asrwt>0</asrwt>
<pdfrwt beam="1">  1       21 0.15904307E-01 0.20869005E+02</pdfrwt>
<pdfrwt beam="2">  1       21 0.46691035E-02 0.20869005E+02</pdfrwt>
<totfact> 0.83668152E+06</totfact>
</mgrwt>
</event>
<event>
 4    1  0.4438654E+006  0.2074733E+02  0.7546771E-02  0.1730862E+00
         21   -1    0    0  503  501  0.00000000000E+00  0.00000000000E+00  0.49403336409E+03  0.49403336409E+03  0.00000000000E+00 0. -1.
         21   -1    0    0  504  502 -0.00000000000E+00 -0.00000000000E+00 -0.36507523900E+02  0.36507523900E+02  0.00000000000E+00 0. -1.
         21    1    1    2  503  502 -0.23240447983E+01 -0.20616753292E+02 -0.33322890856E+02  0.39253875675E+02  0.00000000000E+00 0. -1.
         21    1    1    2  504  501  0.23240447983E+01  0.20616753292E+02  0.49084873105E+03  0.49128701232E+03  0.00000000000E+00 0. -1.
<mgrwt>
<rscale>  2 0.20747330E+02</rscale>
<asrwt>0</asrwt>
<pdfrwt beam="1">  1       21 0.76005128E-01 0.20747330E+02</pdfrwt>
<pdfrwt beam="2">  1       21 0.56165425E-02 0.20747330E+02</pdfrwt>
<totfact> 0.34130512E+05</totfact>
</mgrwt>
</event>
<event>
 4    1  0.4438654E+006  0.4321310E+02  0.7546771E-02  0.1485815E+00
         21   -1    0    0  504  501  0.00000000000E+00  0.00000000000E+00  0.11714987924E+03  0.11714987924E+03  0.00000000000E+00 0. -1.
         21   -1    0    0  503  502 -0.00000000000E+00 -0.00000000000E+00 -0.72137545354E+02  0.72137545354E+02  0.00000000000E+00 0.  1.
         21    1    1    2  503  501 -0.38891343888E+02  0.18837073070E+02  0.10604139544E+03  0.11450829445E+03  0.00000000000E+00 0. -1.
         21    1    1    2  504  502  0.38891343888E+02 -0.18837073070E+02 -0.61029061553E+02  0.74779130145E+02  0.00000000000E+00 0.  1.
<mgrwt>
<rscale>  2 0.43213099E+02</rscale>
<asrwt>0</asrwt>
<pdfrwt beam="1">  1       21 0.18023058E-01 0.43213099E+02</pdfrwt>
<pdfrwt beam="2">  1       21 0.11098084E-01 0.43213099E+02</pdfrwt>
<totfact> 0.17877975E+06</totfact>
</mgrwt>
</event>
<event>
 4    1  0.4438654E+006  0.2403393E+02  0.7546771E-02  0.1675279E+00
         21   -1    0    0  502  501  0.00000000000E+00  0.00000000000E+00  0.10601784106E+03  0.10601784106E+03  0.00000000000E+00 0.  1.
         21   -1    0    0  503  502 -0.00000000000E+00 -0.00000000000E+00 -0.10312305374E+02  0.10312305374E+02  0.00000000000E+00 0. -1.
         21    1    1    2  503  504 -0.19135204544E+02  0.14542133611E+02  0.79065126764E+01  0.25301040406E+02  0.00000000000E+00 0. -1.
         21    1    1    2  504  501  0.19135204544E+02 -0.14542133611E+02  0.87799023014E+02  0.91029106033E+02  0.00000000000E+00 0.  1.
<mgrwt>
<rscale>  2 0.24033928E+02</rscale>
<asrwt>0</asrwt>
<pdfrwt beam="1">  1       21 0.16310436E-01 0.24033928E+02</pdfrwt>
<pdfrwt beam="2">  1       21 0.15865086E-02 0.24033928E+02</pdfrwt>
<totfact> 0.44089983E+07</totfact>
</mgrwt>
</event>
<event>
 4    1  0.4438654E+006  0.2117797E+02  0.7546771E-02  0.1722869E+00
         21   -1    0    0  504  501  0.00000000000E+00  0.00000000000E+00  0.28365309348E+03  0.28365309348E+03  0.00000000000E+00 0.  1.
         21   -1    0    0  501  502 -0.00000000000E+00 -0.00000000000E+00 -0.45856167181E+01  0.45856167181E+01  0.00000000000E+00 0.  1.
         21    1    1    2  503  502 -0.18087676036E+02  0.11015545461E+02  0.22878284119E+02  0.31175665998E+02  0.00000000000E+00 0.  1.
         21    1    1    2  504  503  0.18087676036E+02 -0.11015545461E+02  0.25618919264E+03  0.25706304420E+03  0.00000000000E+00 0.  1.
<mgrwt>
<rscale>  2 0.21177967E+02</rscale>
<asrwt>0</asrwt>
<pdfrwt beam="1">  1       21 0.43638924E-01 0.21177967E+02</pdfrwt>
<pdfrwt beam="2">  1       21 0.70547971E-03 0.21177967E+02</pdfrwt>
<totfact> 0.24653823E+07</totfact>
</mgrwt>
</event>
<event>
 4    1  0.4438654E+006  0.4810275E+02  0.7546771E-02  0.1455852E+00
         21   -1    0    0  504  501  0.00000000000E+00  0.00000000000E+00  0.54445346598E+01  0.54445346598E+01  0.00000000000E+00 0. -1.
         21   -1    0    0  503  502 -0.00000000000E+00 -0.00000000000E+00 -0.10400361739E+04  0.10400361739E+04  0.00000000000E+00 0. -1.
         21    1    1    2  503  501 -0.48102586236E+02  0.12434546077E+00 -0.91928611628E+03  0.92054377291E+03  0.00000000000E+00 0. -1.
         21    1    1    2  504  502  0.48102586236E+02 -0.12434546077E+00 -0.11530552300E+03  0.12493693569E+03  0.00000000000E+00 0. -1.
<mgrwt>
<rscale>  2 0.48102747E+02</rscale>
<asrwt>0</asrwt>
<pdfrwt beam="1">  1       21 0.83762054E-03 0.48102747E+02</pdfrwt>
<pdfrwt beam="2">  1       21 0.16000560E+00 0.48102747E+02</pdfrwt>
<totfact> 0.12634829E+06</totfact>
</mgrwt>
</event>
<event>
 4    1  0.4438654E+006  0.2341840E+02  0.7546771E-02  0.1684816E+00
         21   -1    0    0  502  501  0.00000000000E+00  0.00000000000E+00  0.11008273706E+03  0.11008273706E+03  0.00000000000E+00 0.  1.
         21   -1    0    0  503  502 -0.00000000000E+00 -0.00000000000E+00 -0.62763119156E+01  0.62763119156E+01  0.00000000000E+00 0.  1.
         21    1    1    2  503  504  0.15393910950E+02 -0.17647920888E+02  0.25481952757E+02  0.34608546955E+02  0.00000000000E+00 0.  1.
         21    1    1    2  504  501 -0.15393910950E+02  0.17647920888E+02  0.78324472387E+02  0.81750502021E+02  0.00000000000E+00 0.  1.
<mgrwt>
<rscale>  2 0.23418403E+02</rscale>
<asrwt>0</asrwt>
<pdfrwt beam="1">  1       21 0.16935804E-01 0.23418403E+02</pdfrwt>
<pdfrwt beam="2">  1       21 0.96558653E-03 0.23418403E+02</pdfrwt>
<totfact> 0.87016417E+07</totfact>
</mgrwt>
</event>
<event>
 4    1  0.4438654E+006  0.2941697E+02  0.7546771E-02  0.1604624E+00
         21   -1    0    0  502  501  0.00000000000E+00  0.00000000000E+00  0.16325481589E+03  0.16325481589E+03  0.00000000000E+00 0. -1.
         21   -1    0    0  504  502 -0.00000000000E+00 -0.00000000000E+00 -0.10772190842E+02  0.10772190842E+02  0.00000000000E+00 0. -1.
         21    1    1    2  503  501  0.19522706545E+02 -0.22005042808E+02  0.13825522504E+03  0.14135015115E+03  0.00000000000E+00 0. -1.
         21    1    1    2  504  503 -0.19522706545E+02  0.22005042808E+02  0.14227400013E+02  0.32676855585E+02  0.00000000000E+00 0. -1.
<mgrwt>
<rscale>  2 0.29416968E+02</rscale>
<asrwt>0</asrwt>
<pdfrwt beam="1">  1       21 0.25116124E-01 0.29416968E+02</pdfrwt>
<pdfrwt beam="2">  1       21 0.16572603E-02 0.29416968E+02</pdfrwt>
<totfact> 0.20153796E+07</totfact>
</mgrwt>
</event>
<event>
 4    1  0.4438654E+006  0.2444265E+02  0.7546771E-02  0.1669139E+00
         21   -1    0    0  504  501  0.00000000000E+00  0.00000000000E+00  0.42394674578E+01  0.42394674578E+01  0.00000000000E+00 0.  1.
         21   -1    0    0  503  502 -0.00000000000E+00 -0.00000000000E+00 -0.17905566442E+03  0.17905566442E+03  0.00000000000E+00 0.  1.
         21    1    1    2  503  501  0.24438292885E+02  0.46154767967E+00 -0.45115034620E+02  0.51310910478E+02  0.00000000000E+00 0.  1.
         21    1    1    2  504  502 -0.24438292885E+02 -0.46154767967E+00 -0.12970116234E+03  0.13198422140E+03  0.00000000000E+00 0.  1.
<mgrwt>
<rscale>  2 0.24442651E+02</rscale>
<asrwt>0</asrwt>
<pdfrwt beam="1">  1       21 0.65222588E-03 0.24442651E+02</pdfrwt>
<pdfrwt beam="2">  1       21 0.27547020E-01 0.24442651E+02</pdfrwt>
<totfact> 0.67146948E+07</totfact>
</mgrwt>
</event>
<event>
 4    1  0.4438654E+006  0.3112567E+02  0.7546771E-02  0.1585969E+00
         21   -1    0    0  504  501  0.00000000000E+00  0.00000000000E+00  0.48337877881E+03  0.48337877881E+03  0.00000000000E+00 0. -1.
         21   -1    0    0  503  502 -0.00000000000E+00 -0.00000000000E+00 -0.25113592591E+01  0.25113592591E+01  0.00000000000E+00 0. -1.
         21    1    1    2  503  501 -0.12373455628E+02  0.28560549063E+02  0.34960500620E+03  0.35098784555E+03  0.00000000000E+00 0. -1.
         21    1    1    2  504  502  0.12373455628E+02 -0.28560549063E+02  0.13126241335E+03  0.13490229252E+03  0.00000000000E+00 0. -1.
<mgrwt>
<rscale>  2 0.31125671E+02</rscale>
<asrwt>0</asrwt>
<pdfrwt beam="1">  1       21 0.74365892E-01 0.31125671E+02</pdfrwt>
<pdfrwt beam="2">  1       21 0.38636335E-03 0.31125671E+02</pdfrwt>
<totfact> 0.22391497E+07</totfact>
</mgrwt>
</event>
<event>
 4    1  0.4438654E+006  0.2195926E+02  0.7546771E-02  0.1708957E+00
         21   -1    0    0  502  501  0.00000000000E+00  0.00000000000E+00  0.20174951654E+03  0.20174951654E+03  0.00000000000E+00 0.  1.
         21   -1    0    0  504  502 -0.00000000000E+00 -0.00000000000E+00 -0.59675832969E+02  0.59675832969E+02  0.00000000000E+00 0.  1.
         21    1    1    2  503  501 -0.53341357352E+01 -0.21301555235E+02  0.19910511343E+03  0.20031239465E+03  0.00000000000E+00 0.  1.
         21    1    1    2  504  503  0.53341357352E+01  0.21301555235E+02 -0.57031429857E+02  0.61112954854E+02  0.00000000000E+00 0.  1.
<mgrwt>
<rscale>  2 0.21959264E+02</rscale>
<asrwt>0</asrwt>
<pdfrwt beam="1">  1       21 0.31038387E-01 0.21959264E+02</pdfrwt>
<pdfrwt beam="2">  1       21 0.91808974E-02 0.21959264E+02</pdfrwt>
<totfact> 0.87562025E+05</totfact>
</mgrwt>
</event>
<event>
 4    1  0.4438654E+006  0.2174760E+02  0.7546771E-02  0.1712654E+00
         21   -1    0    0  504  501  0.00000000000E+00  0.00000000000E+00  0.39489588828E+03  0.39489588828E+03  0.00000000000E+00 0.  1.
         21   -1    0    0  501  502 -0.00000000000E+00 -0.00000000000E+00 -0.17308320116E+01  0.17308320116E+01  0.00000000000E+00 0.  1.
         21    1    1    2  503  502  0.15809735143E+02  0.14933527695E+02  0.86517081103E+02  0.89208538253E+02  0.00000000000E+00 0.  1.
         21    1    1    2  504  503 -0.15809735143E+02 -0.14933527695E+02  0.30664797517E+03  0.30741818204E+03  0.00000000000E+00 0.  1.
<mgrwt>
<rscale>  2 0.21747597E+02</rscale>
<asrwt>0</asrwt>
<pdfrwt beam="1">  1       21 0.60753142E-01 0.21747597E+02</pdfrwt>
<pdfrwt beam="2">  1       21 0.26628216E-03 0.21747597E+02</pdfrwt>
<totfact> 0.54362767E+07</totfact>
</mgrwt>
</event>
<event>
 4    1  0.4438654E+006  0.2714503E+02  0.7546771E-02  0.1631975E+00
         21   -1    0    0  503  501  0.00000000000E+00  0.00000000000E+00  0.72985530806E+02  0.72985530806E+02  0.00000000000E+00 0. -1.
         21   -1    0    0  504  502 -0.00000000000E+00 -0.00000000000E+00 -0.88952185040E+02  0.88952185040E+02  0.00000000000E+00 0. -1.
         21    1    1    2  503  502  0.71546054760E+00  0.27135598166E+02 -0.84218947218E+02  0.88485499615E+02  0.00000000000E+00 0. -1.
         21    1    1    2  504  501 -0.71546054760E+00 -0.27135598166E+02  0.68252292984E+02  0.73452216231E+02  0.00000000000E+00 0. -1.
<mgrwt>
<rscale>  2 0.27145028E+02</rscale>
<asrwt>0</asrwt>
<pdfrwt beam="1">  1       21 0.11228543E-01 0.27145028E+02</pdfrwt>
<pdfrwt beam="2">  1       21 0.13684951E-01 0.27145028E+02</pdfrwt>
<totfact> 0.27037029E+06</totfact>
</mgrwt>
</event>
<event>
 4    1  0.4438654E+006  0.2529313E+02  0.7546771E-02  0.1656827E+00
         21   -1    0    0  503  501  0.00000000000E+00  0.00000000000E+00  0.43399028800E+03  0.43399028800E+03  0.00000000000E+00 0.  1.
         21   -1    0    0  504  502 -0.00000000000E+00 -0.00000000000E+00 -0.23700785209E+01  0.23700785209E+01  0.00000000000E+00 0. -1.
         21    1    1    2  503  502 -0.25130905257E+02 -0.28601121676E+01  0.34995807269E+03  0.35087090971E+03  0.00000000000E+00 0.  1.
         21    1    1    2  504  501  0.25130905257E+02  0.28601121676E+01  0.81662136789E+02  0.85489456810E+02  0.00000000000E+00 0. -1.
<mgrwt>
<rscale>  2 0.25293134E+02</rscale>
<asrwt>0</asrwt>
<pdfrwt beam="1">  1       21 0.66767674E-01 0.25293134E+02</pdfrwt>
<pdfrwt beam="2">  1       21 0.36462781E-03 0.25293134E+02</pdfrwt>
<totfact> 0.29355822E+07</totfact>
</mgrwt>
</event>
<event>
 4    1  0.4438654E+006  0.2676445E+02  0.7546771E-02  0.1636880E+00
         21   -1    0    0  504  501  0.00000000000E+00  0.00000000000E+00  0.23327873245E+02  0.23327873245E+02  0.00000000000E+00 0.  1.
         21   -1    0    0  503  502 -0.00000000000E+00 -0.00000000000E+00 -0.35077296904E+02  0.35077296904E+02  0.00000000000E+00 0.  1.
         21    1    1    2  503  501 -0.18570851756E+02  0.19273274230E+02  0.44326989924E+01  0.27129033431E+02  0.00000000000E+00 0.  1.
         21    1    1    2  504  502  0.18570851756E+02 -0.19273274230E+02 -0.16182122652E+02  0.31276136719E+02  0.00000000000E+00 0.  1.
<mgrwt>
<rscale>  2 0.26764447E+02</rscale>
<asrwt>0</asrwt>
<pdfrwt beam="1">  1       21 0.35889036E-02 0.26764447E+02</pdfrwt>
<pdfrwt beam="2">  1       21 0.53965072E-02 0.26764447E+02</pdfrwt>
<totfact> 0.79825650E+07</totfact>
</mgrwt>
</event>
<event>
 4    1  0.4438654E+006  0.3992591E+02  0.7546771E-02  0.1508757E+00
         21   -1    0    0  503  501  0.00000000000E+00  0.00000000000E+00  0.21873054945E+02  0.21873054945E+02  0.00000000000E+00 0.  1.
         21   -1    0    0  504  502 -0.00000000000E+00 -0.00000000000E+00 -0.75430200481E+02  0.75430200481E+02  0.00000000000E+00 0.  1.
         21    1    1    2  503  502 -0.46062221491E+01  0.39659308646E+02 -0.17830501448E+02  0.43726477410E+02  0.00000000000E+00 0.  1.
         21    1    1    2  504  501  0.46062221491E+01 -0.39659308646E+02 -0.35726644088E+02  0.53576778016E+02  0.00000000000E+00 0.  1.
<mgrwt>
<rscale>  2 0.39925907E+02</rscale>
<asrwt>0</asrwt>
<pdfrwt beam="1">  1       21 0.33650854E-02 0.39925907E+02</pdfrwt>
<pdfrwt beam="2">  1       21 0.11604646E-01 0.39925907E+02</pdfrwt>
<totfact> 0.27107222E+07</totfact>
</mgrwt>
</event>
<event>
 4    1  0.4438654E+006  0.2429752E+02  0.7546771E-02  0.1671302E+00
         21   -1    0    0  504  501  0.00000000000E+00  0.00000000000E+00  0.16411283146E+03  0.16411283146E+03  0.00000000000E+00 0.  1.
         21   -1    0    0  503  502 -0.00000000000E+00 -0.00000000000E+00 -0.10100137149E+03  0.10100137149E+03  0.00000000000E+00 0.  1.
         21    1    1    2  503  501 -0.23587468027E+02  0.58310198742E+01  0.16173080382E+03  0.16354578058E+03  0.00000000000E+00 0.  1.
         21    1    1    2  504  502  0.23587468027E+02 -0.58310198742E+01 -0.98619343851E+02  0.10156842237E+03  0.00000000000E+00 0.  1.
<mgrwt>
<rscale>  2 0.24297519E+02</rscale>
<asrwt>0</asrwt>
<pdfrwt beam="1">  1       21 0.25248128E-01 0.24297519E+02</pdfrwt>
<pdfrwt beam="2">  1       21 0.15538673E-01 0.24297519E+02</pdfrwt>
<totfact> 0.53085362E+05</totfact>
</mgrwt>
</event>
<event>
 4    1  0.4438654E+006  0.3672055E+02  0.7546771E-02  0.1533832E+00
         21   -1    0    0  503  501  0.00000000000E+00  0.00000000000E+00  0.36940057899E+02  0.36940057899E+02  0.00000000000E+00 0.  1.
         21   -1    0    0  504  502 -0.00000000000E+00 -0.00000000000E+00 -0.26689441551E+03  0.26689441551E+03  0.00000000000E+00 0.  1.
         21    1    1    2  503  502  0.15965040421E+02  0.33068359436E+02 -0.25612398913E+03  0.25874291627E+03  0.00000000000E+00 0.  1.
         21    1    1    2  504  501 -0.15965040421E+02 -0.33068359436E+02  0.26169631519E+02  0.45091557140E+02  0.00000000000E+00 0.  1.
<mgrwt>
<rscale>  2 0.36720552E+02</rscale>
<asrwt>0</asrwt>
<pdfrwt beam="1">  1       21 0.56830859E-02 0.36720552E+02</pdfrwt>
<pdfrwt beam="2">  1       21 0.41060679E-01 0.36720552E+02</pdfrwt>
<totfact> 0.11826808E+06</totfact>
</mgrwt>
</event>
<event>
 4    1  0.4438654E+006  0.2097154E+02  0.7546771E-02  0.1726671E+00
         21   -1    0    0  504  501  0.00000000000E+00  0.00000000000E+00  0.21633900052E+02  0.21633900052E+02  0.00000000000E+00 0. -1.
         21   -1    0    0  501  502 -0.00000000000E+00 -0.00000000000E+00 -0.48507982091E+02  0.48507982091E+02  0.00000000000E+00 0. -1.
         21    1    1    2  503  502 -0.17232340778E+01  0.20900619987E+02 -0.40167101437E+02  0.45312266434E+02  0.00000000000E+00 0. -1.
         21    1    1    2  504  503  0.17232340778E+01 -0.20900619987E+02  0.13293019399E+02  0.24829615709E+02  0.00000000000E+00 0. -1.
<mgrwt>
<rscale>  2 0.20971539E+02</rscale>
<asrwt>0</asrwt>
<pdfrwt beam="1">  1       21 0.33282924E-02 0.20971539E+02</pdfrwt>
<pdfrwt beam="2">  1       21 0.74627664E-02 0.20971539E+02</pdfrwt>
<totfact> 0.49960756E+07</totfact>
</mgrwt>
</event>
<event>
 4    1  0.4438654E+006  0.4957907E+02  0.7546771E-02  0.1447625E+00
         21   -1    0    0  503  501  0.00000000000E+00  0.00000000000E+00  0.19060434349E+03  0.19060434349E+03  0.00000000000E+00 0. -1.
         21   -1    0    0  504  502 -0.00000000000E+00 -0.00000000000E+00 -0.15250682287E+02  0.15250682287E+02  0.00000000000E+00 0.  1.
         21    1    1    2  503  502 -0.82219352810E+01 -0.48892571983E+02  0.12811846608E+03  0.13737694554E+03  0.00000000000E+00 0.  1.
         21    1    1    2  504  501  0.82219352810E+01  0.48892571983E+02  0.47235195122E+02  0.68478080238E+02  0.00000000000E+00 0. -1.
<mgrwt>
<rscale>  2 0.49579066E+02</rscale>
<asrwt>0</asrwt>
<pdfrwt beam="1">  1       21 0.29323743E-01 0.49579066E+02</pdfrwt>
<pdfrwt beam="2">  1       21 0.23462589E-02 0.49579066E+02</pdfrwt>
<totfact> 0.95190343E+06</totfact>
</mgrwt>
</event>
<event>
 4    1  0.4438654E+006  0.2518849E+02  0.7546771E-02  0.1658309E+00
         21   -1    0    0  504  501  0.00000000000E+00  0.00000000000E+00  0.68319310032E+03  0.68319310032E+03  0.00000000000E+00 0. -1.
         21   -1    0    0  501  502 -0.00000000000E+00 -0.00000000000E+00 -0.25541849277E+01  0.25541849277E+01  0.00000000000E+00 0. -1.
         21    1    1    2  503  502  0.22529324367E+02 -0.11264522470E+02  0.66790310351E+02  0.71382108961E+02  0.00000000000E+00 0. -1.
         21    1    1    2  504  503 -0.22529324367E+02  0.11264522470E+02  0.61384860504E+03  0.61436517629E+03  0.00000000000E+00 0. -1.
<mgrwt>
<rscale>  2 0.25188488E+02</rscale>
<asrwt>0</asrwt>
<pdfrwt beam="1">  1       21 0.10510649E+00 0.25188488E+02</pdfrwt>
<pdfrwt beam="2">  1       21 0.39295207E-03 0.25188488E+02</pdfrwt>
<totfact> 0.10015283E+07</totfact>
</mgrwt>
</event>
<event>
 4    1  0.4438654E+006  0.2005436E+02  0.7546771E-02  0.1744249E+00
         21   -1    0    0  503  501  0.00000000000E+00  0.00000000000E+00  0.81736296017E+01  0.81736296017E+01  0.00000000000E+00 0. -1.
         21   -1    0    0  504  502 -0.00000000000E+00 -0.00000000000E+00 -0.16837190637E+03  0.16837190637E+03  0.00000000000E+00 0. -1.
         21    1    1    2  503  502 -0.15698794460E+02  0.12478990607E+02 -0.15436190434E+03  0.15565916249E+03  0.00000000000E+00 0. -1.
         21    1    1    2  504  501  0.15698794460E+02 -0.12478990607E+02 -0.58363724206E+01  0.20886373479E+02  0.00000000000E+00 0. -1.
<mgrwt>
<rscale>  2 0.20054360E+02</rscale>
<asrwt>0</asrwt>
<pdfrwt beam="1">  1       21 0.12574816E-02 0.20054360E+02</pdfrwt>
<pdfrwt beam="2">  1       21 0.25903369E-01 0.20054360E+02</pdfrwt>
<totfact> 0.26754717E+07</totfact>
</mgrwt>
</event>
<event>
 4    1  0.4438654E+006  0.3879600E+02  0.7546771E-02  0.1517263E+00
         21   -1    0    0  502  501  0.00000000000E+00  0.00000000000E+00  0.13633365868E+03  0.13633365868E+03  0.00000000000E+00 0.  1.
         21   -1    0    0  503  502 -0.00000000000E+00 -0.00000000000E+00 -0.44904675400E+02  0.44904675400E+02  0.00000000000E+00 0.  1.
         21    1    1    2  503  504 -0.35843457985E+02  0.14845075685E+02 -0.32980565314E+02  0.50920010220E+02  0.00000000000E+00 0.  1.
         21    1    1    2  504  501  0.35843457985E+02 -0.14845075685E+02  0.12440954859E+03  0.13031832386E+03  0.00000000000E+00 0.  1.
<mgrwt>
<rscale>  2 0.38796002E+02</rscale>
<asrwt>0</asrwt>
<pdfrwt beam="1">  1       21 0.20974409E-01 0.38796002E+02</pdfrwt>
<pdfrwt beam="2">  1       21 0.69084117E-02 0.38796002E+02</pdfrwt>
<totfact> 0.29942695E+06</totfact>
</mgrwt>
</event>
<event>
 4    1  0.4438654E+006  0.2386204E+02  0.7546771E-02  0.1677906E+00
         21   -1    0    0  503  501  0.00000000000E+00  0.00000000000E+00  0.35617427936E+03  0.35617427936E+03  0.00000000000E+00 0. -1.
         21   -1    0    0  504  502 -0.00000000000E+00 -0.00000000000E+00 -0.16007262604E+01  0.16007262604E+01  0.00000000000E+00 0.  1.
         21    1    1    2  503  502 -0.22265375596E+02 -0.85819639921E+01  0.17083999859E+03  0.17249841209E+03  0.00000000000E+00 0.  1.
         21    1    1    2  504  501  0.22265375596E+02  0.85819639921E+01  0.18373355451E+03  0.18527659353E+03  0.00000000000E+00 0. -1.
<mgrwt>
<rscale>  2 0.23862042E+02</rscale>
<asrwt>0</asrwt>
<pdfrwt beam="1">  1       21 0.54795980E-01 0.23862042E+02</pdfrwt>
<pdfrwt beam="2">  1       21 0.24626586E-03 0.23862042E+02</pdfrwt>
<totfact> 0.76440903E+07</totfact>
</mgrwt>
</event>
<event>
 4    1  0.4438654E+006  0.4441964E+02  0.7546771E-02  0.1477998E+00
         21   -1    0    0  503  501  0.00000000000E+00  0.00000000000E+00  0.45906274715E+02  0.45906274715E+02  0.00000000000E+00 0. -1.
         21   -1    0    0  504  502 -0.00000000000E+00 -0.00000000000E+00 -0.44601382188E+02  0.44601382188E+02  0.00000000000E+00 0. -1.
         21    1    1    2  503  502 -0.43427173518E+02 -0.93373092586E+01 -0.79727507335E+01  0.45129474828E+02  0.00000000000E+00 0. -1.
         21    1    1    2  504  501  0.43427173518E+02  0.93373092586E+01  0.92776432610E+01  0.45378182075E+02  0.00000000000E+00 0. -1.
<mgrwt>
<rscale>  2 0.44419644E+02</rscale>
<asrwt>0</asrwt>
<pdfrwt beam="1">  1       21 0.70625039E-02 0.44419644E+02</pdfrwt>
<pdfrwt beam="2">  1       21 0.68617510E-02 0.44419644E+02</pdfrwt>
<totfact> 0.19980853E+07</totfact>
</mgrwt>
</event>
<event>
 4    1  0.4438654E+006  0.2701538E+02  0.7546771E-02  0.1633635E+00
         21   -1    0    0  504  501  0.00000000000E+00  0.00000000000E+00  0.69104819288E+02  0.69104819288E+02  0.00000000000E+00 0. -1.
         21   -1    0    0  501  502 -0.00000000000E+00 -0.00000000000E+00 -0.11174660922E+02  0.11174660922E+02  0.00000000000E+00 0. -1.
         21    1    1    2  503  502 -0.25666501722E+02 -0.84297851488E+01  0.19560337265E+02  0.33353221467E+02  0.00000000000E+00 0. -1.
         21    1    1    2  504  503  0.25666501722E+02  0.84297851488E+01  0.38369821101E+02  0.46926258743E+02  0.00000000000E+00 0. -1.
<mgrwt>
<rscale>  2 0.27015377E+02</rscale>
<asrwt>0</asrwt>
<pdfrwt beam="1">  1       21 0.10631510E-01 0.27015377E+02</pdfrwt>
<pdfrwt beam="2">  1       21 0.17191786E-02 0.27015377E+02</pdfrwt>
<totfact> 0.82819941E+07</totfact>
</mgrwt>
</event>
<event>
 4    1  0.4438654E+006  0.2190652E+02  0.7546771E-02  0.1709874E+00
         21   -1    0    0  503  501  0.00000000000E+00  0.00000000000E+00  0.96218381202E+00  0.96218381202E+00  0.00000000000E+00 0. -1.
         21   -1    0    0  504  502 -0.00000000000E+00 -0.00000000000E+00 -0.49947336999E+03  0.49947336999E+03  0.00000000000E+00 0. -1.
         21    1    1    2  503  502  0.20338495590E+02 -0.81388702449E+01 -0.23977740947E+03  0.24077604055E+03  0.00000000000E+00 0. -1.
         21    1    1    2  504  501 -0.20338495590E+02  0.81388702449E+01 -0.25873377671E+03  0.25965951325E+03  0.00000000000E+00 0. -1.
<mgrwt>
<rscale>  2 0.21906520E+02</rscale>
<asrwt>0</asrwt>
<pdfrwt beam="1">  1       21 0.14802777E-03 0.21906520E+02</pdfrwt>
<pdfrwt beam="2">  1       21 0.76842323E-01 0.21906520E+02</pdfrwt>
<totfact> 0.78647480E+07</totfact>
</mgrwt>
</event>
<event>
 4    1  0.4438654E+006  0.2441841E+02  0.7546771E-02  0.1669499E+00
         21   -1    0    0  503  501  0.00000000000E+00  0.00000000000E+00  0.79600025939E+01  0.79600025939E+01  0.00000000000E+00 0. -1.
         21   -1    0    0  504  502 -0.00000000000E+00 -0.00000000000E+00 -0.75667595381E+02  0.75667595381E+02  0.00000000000E+00 0. -1.
         21    1    1    2  503  502 -0.14713683318E+02  0.19487595285E+02 -0.29661231562E+02  0.38419363667E+02  0.00000000000E+00 0. -1.
         21    1    1    2  504  501  0.14713683318E+02 -0.19487595285E+02 -0.38046361225E+02  0.45208234308E+02  0.00000000000E+00 0. -1.
<mgrwt>
<rscale>  2 0.24418412E+02</rscale>
<asrwt>0</asrwt>
<pdfrwt beam="1">  1       21 0.12246158E-02 0.24418412E+02</pdfrwt>
<pdfrwt beam="2">  1       21 0.11641169E-01 0.24418412E+02</pdfrwt>
<totfact> 0.11624568E+08</totfact>
</mgrwt>
</event>
<event>
 4    1  0.4438654E+006  0.2013294E+02  0.7546771E-02  0.1742697E+00
         21   -1    0    0  503  501  0.00000000000E+00  0.00000000000E+00  0.28907966359E+02  0.28907966359E+02  0.00000000000E+00 0.  1.
         21   -1    0    0  501  502 -0.00000000000E+00 -0.00000000000E+00 -0.99744613651E+02  0.99744613651E+02  0.00000000000E+00 0.  1.
         21    1    1    2  503  504  0.91122189683E+00  0.20112308262E+02  0.24215485669E+02  0.31491665804E+02  0.00000000000E+00 0.  1.
         21    1    1    2  504  502 -0.91122189683E+00 -0.20112308262E+02 -0.95052132961E+02  0.97160914206E+02  0.00000000000E+00 0.  1.
<mgrwt>
<rscale>  2 0.20132940E+02</rscale>
<asrwt>0</asrwt>
<pdfrwt beam="1">  1       21 0.44473795E-02 0.20132940E+02</pdfrwt>
<pdfrwt beam="2">  1       21 0.15345325E-01 0.20132940E+02</pdfrwt>
<totfact> 0.95335639E+06</totfact>
</mgrwt>
</event>
<event>
 4    1  0.4438654E+006  0.2330249E+02  0.7546771E-02  0.1686653E+00
         21   -1    0    0  503  501  0.00000000000E+00  0.00000000000E+00  0.63572302347E+01  0.63572302347E+01  0.00000000000E+00 0. -1.
         21   -1    0    0  501  502 -0.00000000000E+00 -0.00000000000E+00 -0.42650268072E+03  0.42650268072E+03  0.00000000000E+00 0.  1.
         21    1    1    2  503  504  0.23268789319E+02 -0.12528734420E+01 -0.16524514322E+02  0.28566865803E+02  0.00000000000E+00 0. -1.
         21    1    1    2  504  502 -0.23268789319E+02  0.12528734420E+01 -0.40362093617E+03  0.40429304516E+03  0.00000000000E+00 0.  1.
<mgrwt>
<rscale>  2 0.23302494E+02</rscale>
<asrwt>0</asrwt>
<pdfrwt beam="1">  1       21 0.97803547E-03 0.23302494E+02</pdfrwt>
<pdfrwt beam="2">  1       21 0.65615794E-01 0.23302494E+02</pdfrwt>
<totfact> 0.69275686E+06</totfact>
</mgrwt>
</event>
<event>
 4    1  0.4438654E+006  0.2332385E+02  0.7546771E-02  0.1686314E+00
         21   -1    0    0  504  501  0.00000000000E+00  0.00000000000E+00  0.10509647489E+01  0.10509647489E+01  0.00000000000E+00 0.  1.
         21   -1    0    0  501  502 -0.00000000000E+00 -0.00000000000E+00 -0.86289854446E+03  0.86289854446E+03  0.00000000000E+00 0. -1.
         21    1    1    2  503  502 -0.71744044845E+01  0.22193014377E+02 -0.70417515537E+03  0.70456131841E+03  0.00000000000E+00 0. -1.
         21    1    1    2  504  503  0.71744044845E+01 -0.22193014377E+02 -0.15767242434E+03  0.15938819080E+03  0.00000000000E+00 0.  1.
<mgrwt>
<rscale>  2 0.23323850E+02</rscale>
<asrwt>0</asrwt>
<pdfrwt beam="1">  1       21 0.16168601E-03 0.23323850E+02</pdfrwt>
<pdfrwt beam="2">  1       21 0.13275434E+00 0.23323850E+02</pdfrwt>
<totfact> 0.21198057E+07</totfact>
</mgrwt>
</event>
<event>
 4    1  0.4438654E+006  0.2603424E+02  0.7546771E-02  0.1646576E+00
         21   -1    0    0  503  501  0.00000000000E+00  0.00000000000E+00  0.24098410817E+02  0.24098410817E+02  0.00000000000E+00 0. -1.
         21   -1    0    0  504  502 -0.00000000000E+00 -0.00000000000E+00 -0.49240917315E+02  0.49240917315E+02  0.00000000000E+00 0. -1.
         21    1    1    2  503  502 -0.23574093914E+02  0.11047341047E+02 -0.36584060376E+02  0.44901838734E+02  0.00000000000E+00 0. -1.
         21    1    1    2  504  501  0.23574093914E+02 -0.11047341047E+02  0.11441553878E+02  0.28437489397E+02  0.00000000000E+00 0. -1.
<mgrwt>
<rscale>  2 0.26034240E+02</rscale>
<asrwt>0</asrwt>
<pdfrwt beam="1">  1       21 0.37074479E-02 0.26034240E+02</pdfrwt>
<pdfrwt beam="2">  1       21 0.75755257E-02 0.26034240E+02</pdfrwt>
<totfact> 0.43474079E+07</totfact>
</mgrwt>
</event>
<event>
 4    1  0.4438654E+006  0.2620543E+02  0.7546771E-02  0.1644268E+00
         21   -1    0    0  503  501  0.00000000000E+00  0.00000000000E+00  0.21950570461E+01  0.21950570461E+01  0.00000000000E+00 0. -1.
         21   -1    0    0  504  502 -0.00000000000E+00 -0.00000000000E+00 -0.67434532290E+03  0.67434532290E+03  0.00000000000E+00 0. -1.
         21    1    1    2  503  502  0.21277701800E+02  0.15296528820E+02 -0.88404977118E+02  0.92207181754E+02  0.00000000000E+00 0. -1.
         21    1    1    2  504  501 -0.21277701800E+02 -0.15296528820E+02 -0.58374528873E+03  0.58433319819E+03  0.00000000000E+00 0. -1.
<mgrwt>
<rscale>  2 0.26205427E+02</rscale>
<asrwt>0</asrwt>
<pdfrwt beam="1">  1       21 0.33770053E-03 0.26205427E+02</pdfrwt>
<pdfrwt beam="2">  1       21 0.10374560E+00 0.26205427E+02</pdfrwt>
<totfact> 0.12958523E+07</totfact>
</mgrwt>
</event>
<event>
 4    1  0.4438654E+006  0.2074036E+02  0.7546771E-02  0.1730994E+00
         21   -1    0    0  503  501  0.00000000000E+00  0.00000000000E+00  0.23402688905E+03  0.23402688905E+03  0.00000000000E+00 0. -1.
         21   -1    0    0  504  502 -0.00000000000E+00 -0.00000000000E+00 -0.74500941396E+01  0.74500941396E+01  0.00000000000E+00 0.  1.
         21    1    1    2  503  502 -0.45116833865E+01  0.20243700621E+02  0.21807935794E+03  0.21906339050E+03  0.00000000000E+00 0. -1.
         21    1    1    2  504  501  0.45116833865E+01 -0.20243700621E+02  0.84974369720E+01  0.22413592682E+02  0.00000000000E+00 0.  1.
<mgrwt>
<rscale>  2 0.20740364E+02</rscale>
<asrwt>0</asrwt>
<pdfrwt beam="1">  1       21 0.36004131E-01 0.20740364E+02</pdfrwt>
<pdfrwt beam="2">  1       21 0.11461685E-02 0.20740364E+02</pdfrwt>
<totfact> 0.17056701E+07</totfact>
</mgrwt>
</event>
<event>
 4    1  0.4438654E+006  0.2191196E+02  0.7546771E-02  0.1709779E+00
         21   -1    0    0  504  501  0.00000000000E+00  0.00000000000E+00  0.72709517336E+03  0.72709517336E+03  0.00000000000E+00 0.  1.
         21   -1    0    0  503  502 -0.00000000000E+00 -0.00000000000E+00 -0.84058442726E+00  0.84058442726E+00  0.00000000000E+00 0.  1.
         21    1    1    2  503  501 -0.11844230071E+02  0.18434977297E+02  0.53166475245E+03  0.53211609934E+03  0.00000000000E+00 0.  1.
         21    1    1    2  504  502  0.11844230071E+02 -0.18434977297E+02  0.19458983648E+03  0.19581965845E+03  0.00000000000E+00 0.  1.
<mgrwt>
<rscale>  2 0.21911964E+02</rscale>
<asrwt>0</asrwt>
<pdfrwt beam="1">  1       21 0.11186029E+00 0.21911964E+02</pdfrwt>
<pdfrwt beam="2">  1       21 0.12932126E-03 0.21911964E+02</pdfrwt>
<totfact> 0.42536898E+07</totfact>
</mgrwt>
</event>
<event>
 4    1  0.4438654E+006  0.2924821E+02  0.7546771E-02  0.1606550E+00
         21   -1    0    0  503  501  0.00000000000E+00  0.00000000000E+00  0.19145513185E+02  0.19145513185E+02  0.00000000000E+00 0.  1.
         21   -1    0    0  504  502 -0.00000000000E+00 -0.00000000000E+00 -0.44954498239E+02  0.44954498239E+02  0.00000000000E+00 0.  1.
         21    1    1    2  503  502  0.80905920161E+01 -0.28106940027E+02 -0.10408695603E+02  0.31045107521E+02  0.00000000000E+00 0.  1.
         21    1    1    2  504  501 -0.80905920161E+01  0.28106940027E+02 -0.15400289450E+02  0.33054903902E+02  0.00000000000E+00 0.  1.
<mgrwt>
<rscale>  2 0.29248209E+02</rscale>
<asrwt>0</asrwt>
<pdfrwt beam="1">  1       21 0.29454636E-02 0.29248209E+02</pdfrwt>
<pdfrwt beam="2">  1       21 0.69160767E-02 0.29248209E+02</pdfrwt>
<totfact> 0.74522240E+07</totfact>
</mgrwt>
</event>
<event>
 4    1  0.4438654E+006  0.2504065E+02  0.7546771E-02  0.1660419E+00
         21   -1    0    0  503  501  0.00000000000E+00  0.00000000000E+00  0.17688141990E+04  0.17688141990E+04  0.00000000000E+00 0. -1.
         21   -1    0    0  501  502 -0.00000000000E+00 -0.00000000000E+00 -0.18154960045E+01  0.18154960045E+01  0.00000000000E+00 0. -1.
         21    1    1    2  503  504 -0.24757985891E+02 -0.37518125086E+01  0.16776913548E+04  0.16778782184E+04  0.00000000000E+00 0. -1.
         21    1    1    2  504  502  0.24757985891E+02  0.37518125086E+01  0.89307348232E+02  0.92751476596E+02  0.00000000000E+00 0. -1.
<mgrwt>
<rscale>  2 0.25040646E+02</rscale>
<asrwt>0</asrwt>
<pdfrwt beam="1">  1       21 0.27212388E+00 0.25040646E+02</pdfrwt>
<pdfrwt beam="2">  1       21 0.27930849E-03 0.25040646E+02</pdfrwt>
<totfact> 0.15114032E+06</totfact>
</mgrwt>
</event>
<event>
 4    1  0.4438654E+006  0.2489024E+02  0.7546771E-02  0.1662583E+00
         21   -1    0    0  503  501  0.00000000000E+00  0.00000000000E+00  0.15617351437E+01  0.15617351437E+01  0.00000000000E+00 0. -1.
         21   -1    0    0  504  502 -0.00000000000E+00 -0.00000000000E+00 -0.17080754425E+04  0.17080754425E+04  0.00000000000E+00 0. -1.
         21    1    1    2  503  502 -0.10966398990E+02  0.22344178753E+02 -0.16022634867E+04  0.16024568029E+04  0.00000000000E+00 0. -1.
         21    1    1    2  504  501  0.10966398990E+02 -0.22344178753E+02 -0.10425022062E+03  0.10718037474E+03  0.00000000000E+00 0. -1.
<mgrwt>
<rscale>  2 0.24890244E+02</rscale>
<asrwt>0</asrwt>
<pdfrwt beam="1">  1       21 0.24026598E-03 0.24890244E+02</pdfrwt>
<pdfrwt beam="2">  1       21 0.26278189E+00 0.24890244E+02</pdfrwt>
<totfact> 0.20920778E+06</totfact>
</mgrwt>
</event>
<event>
 4    1  0.4438654E+006  0.3862044E+02  0.7546771E-02  0.1518616E+00
         21   -1    0    0  503  501  0.00000000000E+00  0.00000000000E+00  0.77636490811E+02  0.77636490811E+02  0.00000000000E+00 0. -1.
         21   -1    0    0  504  502 -0.00000000000E+00 -0.00000000000E+00 -0.23777213398E+02  0.23777213398E+02  0.00000000000E+00 0. -1.
         21    1    1    2  503  502 -0.28960156574E+02 -0.25550878064E+02  0.49148685715E+02  0.62507050372E+02  0.00000000000E+00 0. -1.
         21    1    1    2  504  501  0.28960156574E+02  0.25550878064E+02  0.47105916975E+01  0.38906653837E+02  0.00000000000E+00 0. -1.
<mgrwt>
<rscale>  2 0.38620436E+02</rscale>
<asrwt>0</asrwt>
<pdfrwt beam="1">  1       21 0.11944075E-01 0.38620436E+02</pdfrwt>
<pdfrwt beam="2">  1       21 0.36580329E-02 0.38620436E+02</pdfrwt>
<totfact> 0.22458242E+07</totfact>
</mgrwt>
</event>
<event>
 4    1  0.4438654E+006  0.3642634E+02  0.7546771E-02  0.1536287E+00
         21   -1    0    0  503  501  0.00000000000E+00  0.00000000000E+00  0.43155120898E+02  0.43155120898E+02  0.00000000000E+00 0. -1.
         21   -1    0    0  504  502 -0.00000000000E+00 -0.00000000000E+00 -0.50544444219E+02  0.50544444219E+02  0.00000000000E+00 0.  1.
         21    1    1    2  503  502 -0.33507845204E+02  0.14286453158E+02  0.25626319445E+02  0.44537475034E+02  0.00000000000E+00 0. -1.
         21    1    1    2  504  501  0.33507845204E+02 -0.14286453158E+02 -0.33015642767E+02  0.49162090083E+02  0.00000000000E+00 0.  1.
<mgrwt>
<rscale>  2 0.36426343E+02</rscale>
<asrwt>0</asrwt>
<pdfrwt beam="1">  1       21 0.66392494E-02 0.36426343E+02</pdfrwt>
<pdfrwt beam="2">  1       21 0.77760683E-02 0.36426343E+02</pdfrwt>
<totfact> 0.17430753E+07</totfact>
</mgrwt>
</event>
<event>
 4    1  0.4438654E+006  0.3496620E+02  0.7546771E-02  0.1548901E+00
         21   -1    0    0  502  501  0.00000000000E+00  0.00000000000E+00  0.17661252346E+02  0.17661252346E+02  0.00000000000E+00 0.  1.
         21   -1    0    0  503  502 -0.00000000000E+00 -0.00000000000E+00 -0.77520317156E+03  0.77520317156E+03  0.00000000000E+00 0.  1.
         21    1    1    2  503  504 -0.13481191375E+02  0.32262869186E+02 -0.75708825071E+03  0.75789527945E+03  0.00000000000E+00 0.  1.
         21    1    1    2  504  501  0.13481191375E+02 -0.32262869186E+02 -0.45366850516E+00  0.34969144457E+02  0.00000000000E+00 0.  1.
<mgrwt>
<rscale>  2 0.34966202E+02</rscale>
<asrwt>0</asrwt>
<pdfrwt beam="1">  1       21 0.27171165E-02 0.34966202E+02</pdfrwt>
<pdfrwt beam="2">  1       21 0.11926199E+00 0.34966202E+02</pdfrwt>
<totfact> 0.41068302E+05</totfact>
</mgrwt>
</event>
<event>
 4    1  0.4438654E+006  0.2229180E+02  0.7546771E-02  0.1703254E+00
         21   -1    0    0  502  501  0.00000000000E+00  0.00000000000E+00  0.12196307804E+03  0.12196307804E+03  0.00000000000E+00 0.  1.
         21   -1    0    0  503  502 -0.00000000000E+00 -0.00000000000E+00 -0.20543663578E+02  0.20543663578E+02  0.00000000000E+00 0. -1.
         21    1    1    2  503  504 -0.51970722703E+01  0.21677515893E+02 -0.13087811107E+02  0.25849855997E+02  0.00000000000E+00 0. -1.
         21    1    1    2  504  501  0.51970722703E+01 -0.21677515893E+02  0.11450722557E+03  0.11665688562E+03  0.00000000000E+00 0.  1.
<mgrwt>
<rscale>  2 0.22291798E+02</rscale>
<asrwt>0</asrwt>
<pdfrwt beam="1">  1       21 0.18763550E-01 0.22291798E+02</pdfrwt>
<pdfrwt beam="2">  1       21 0.31605637E-02 0.22291798E+02</pdfrwt>
<totfact> 0.11770008E+07</totfact>
</mgrwt>
</event>
<event>
 4    1  0.4438654E+006  0.3340983E+02  0.7546771E-02  0.1563193E+00
         21   -1    0    0  504  501  0.00000000000E+00  0.00000000000E+00  0.93044726647E+01  0.93044726647E+01  0.00000000000E+00 0. -1.
         21   -1    0    0  503  502 -0.00000000000E+00 -0.00000000000E+00 -0.35715804302E+03  0.35715804302E+03  0.00000000000E+00 0.  1.
         21    1    1    2  503  501  0.18251905619E+02  0.27983656172E+02 -0.32324738570E+03  0.32496936691E+03  0.00000000000E+00 0.  1.
         21    1    1    2  504  502 -0.18251905619E+02 -0.27983656172E+02 -0.24606184655E+02  0.41493148769E+02  0.00000000000E+00 0. -1.
<mgrwt>
<rscale>  2 0.33409835E+02</rscale>
<asrwt>0</asrwt>
<pdfrwt beam="1">  1       21 0.14314575E-02 0.33409835E+02</pdfrwt>
<pdfrwt beam="2">  1       21 0.54947386E-01 0.33409835E+02</pdfrwt>
<totfact> 0.58413771E+06</totfact>
</mgrwt>
</event>
<event>
 4    1  0.4438654E+006  0.3451213E+02  0.7546771E-02  0.1552976E+00
         21   -1    0    0  504  501  0.00000000000E+00  0.00000000000E+00  0.60471749437E+02  0.60471749437E+02  0.00000000000E+00 0. -1.
         21   -1    0    0  503  502 -0.00000000000E+00 -0.00000000000E+00 -0.24494885629E+02  0.24494885629E+02  0.00000000000E+00 0. -1.
         21    1    1    2  503  501  0.29270460610E+02 -0.18284609865E+02 -0.81445529067E+00  0.34521734598E+02  0.00000000000E+00 0. -1.
         21    1    1    2  504  502 -0.29270460610E+02  0.18284609865E+02  0.36791319098E+02  0.50444900468E+02  0.00000000000E+00 0. -1.
<mgrwt>
<rscale>  2 0.34512126E+02</rscale>
<asrwt>0</asrwt>
<pdfrwt beam="1">  1       21 0.93033460E-02 0.34512126E+02</pdfrwt>
<pdfrwt beam="2">  1       21 0.37684440E-02 0.34512126E+02</pdfrwt>
<totfact> 0.32023989E+07</totfact>
</mgrwt>
</event>
<event>
 4    1  0.4438654E+006  0.2775874E+02  0.7546771E-02  0.1624272E+00
         21   -1    0    0  504  501  0.00000000000E+00  0.00000000000E+00  0.61491974138E+03  0.61491974138E+03  0.00000000000E+00 0. -1.
         21   -1    0    0  503  502 -0.00000000000E+00 -0.00000000000E+00 -0.91355076008E+01  0.91355076008E+01  0.00000000000E+00 0.  1.
         21    1    1    2  503  501 -0.27072300990E+02 -0.61350075704E+01  0.13053324473E+02  0.30674697693E+02  0.00000000000E+00 0.  1.
         21    1    1    2  504  502  0.27072300990E+02  0.61350075704E+01  0.59273090930E+03  0.59338055129E+03  0.00000000000E+00 0. -1.
<mgrwt>
<rscale>  2 0.27758743E+02</rscale>
<asrwt>0</asrwt>
<pdfrwt beam="1">  1       21 0.94603005E-01 0.27758743E+02</pdfrwt>
<pdfrwt beam="2">  1       21 0.14054632E-02 0.27758743E+02</pdfrwt>
<totfact> 0.18948973E+06</totfact>
</mgrwt>
</event>
<event>
 4    1  0.4438654E+006  0.2067885E+02  0.7546771E-02  0.1732156E+00
         21   -1    0    0  502  501  0.00000000000E+00  0.00000000000E+00  0.14176763542E+04  0.14176763542E+04  0.00000000000E+00 0. -1.
         21   -1    0    0  503  502 -0.00000000000E+00 -0.00000000000E+00 -0.21730559645E+02  0.21730559645E+02  0.00000000000E+00 0. -1.
         21    1    1    2  503  504  0.80789990000E+01 -0.19035348389E+02 -0.16718188906E+02  0.26591588020E+02  0.00000000000E+00 0. -1.
         21    1    1    2  504  501 -0.80789990000E+01  0.19035348389E+02  0.14126639834E+04  0.14128153258E+04  0.00000000000E+00 0. -1.
<mgrwt>
<rscale>  2 0.20678847E+02</rscale>
<asrwt>0</asrwt>
<pdfrwt beam="1">  1       21 0.21810398E+00 0.20678847E+02</pdfrwt>
<pdfrwt beam="2">  1       21 0.33431641E-02 0.20678847E+02</pdfrwt>
<totfact> 0.68187242E+04</totfact>
</mgrwt>
</event>
<event>
 4    1  0.4438654E+006  0.2164114E+02  0.7546771E-02  0.1714533E+00
         21   -1    0    0  503  501  0.00000000000E+00  0.00000000000E+00  0.35129622521E+02  0.35129622521E+02  0.00000000000E+00 0.  1.
         21   -1    0    0  504  502 -0.00000000000E+00 -0.00000000000E+00 -0.13578306493E+02  0.13578306493E+02  0.00000000000E+00 0.  1.
         21    1    1    2  503  502 -0.15813846961E+02  0.14773660603E+02  0.14057507560E+02  0.25806052045E+02  0.00000000000E+00 0.  1.
         21    1    1    2  504  501  0.15813846961E+02 -0.14773660603E+02  0.74938084677E+01  0.22901876968E+02  0.00000000000E+00 0.  1.
<mgrwt>
<rscale>  2 0.21641137E+02</rscale>
<asrwt>0</asrwt>
<pdfrwt beam="1">  1       21 0.54045573E-02 0.21641137E+02</pdfrwt>
<pdfrwt beam="2">  1       21 0.20889702E-02 0.21641137E+02</pdfrwt>
<totfact> 0.17387759E+08</totfact>
</mgrwt>
</event>
<event>
 4    1  0.4438654E+006  0.3139063E+02  0.7546771E-02  0.1583207E+00
         21   -1    0    0  504  501  0.00000000000E+00  0.00000000000E+00  0.37693230964E+01  0.37693230964E+01  0.00000000000E+00 0.  1.
         21   -1    0    0  503  502 -0.00000000000E+00 -0.00000000000E+00 -0.26146772281E+03  0.26146772281E+03  0.00000000000E+00 0.  1.
         21    1    1    2  503  501  0.29372762758E+02 -0.11073038140E+02 -0.12703241545E+03  0.13085337573E+03  0.00000000000E+00 0.  1.
         21    1    1    2  504  502 -0.29372762758E+02  0.11073038140E+02 -0.13066598427E+03  0.13438367017E+03  0.00000000000E+00 0.  1.
<mgrwt>
<rscale>  2 0.31390625E+02</rscale>
<asrwt>0</asrwt>
<pdfrwt beam="1">  1       21 0.57989580E-03 0.31390625E+02</pdfrwt>
<pdfrwt beam="2">  1       21 0.40225808E-01 0.31390625E+02</pdfrwt>
<totfact> 0.41853749E+07</totfact>
</mgrwt>
</event>
<event>
 4    1  0.4438654E+006  0.3882021E+02  0.7546771E-02  0.1517077E+00
         21   -1    0    0  504  501  0.00000000000E+00  0.00000000000E+00  0.17994761886E+04  0.17994761886E+04  0.00000000000E+00 0.  1.
         21   -1    0    0  503  502 -0.00000000000E+00 -0.00000000000E+00 -0.25781087764E+01  0.25781087764E+01  0.00000000000E+00 0.  1.
         21    1    1    2  503  501  0.38722804683E+02 -0.27483258367E+01  0.16388065329E+04  0.16392662569E+04  0.00000000000E+00 0.  1.
         21    1    1    2  504  502 -0.38722804683E+02  0.27483258367E+01  0.15809154694E+03  0.16278804044E+03  0.00000000000E+00 0.  1.
<mgrwt>
<rscale>  2 0.38820212E+02</rscale>
<asrwt>0</asrwt>
<pdfrwt beam="1">  1       21 0.27684149E+00 0.38820212E+02</pdfrwt>
<pdfrwt beam="2">  1       21 0.39663356E-03 0.38820212E+02</pdfrwt>
<totfact> 0.84094724E+05</totfact>
</mgrwt>
</event>
<event>
 4    1  0.4438654E+006  0.2742122E+02  0.7546771E-02  0.1628478E+00
         21   -1    0    0  503  501  0.00000000000E+00  0.00000000000E+00  0.44777350574E+01  0.44777350574E+01  0.00000000000E+00 0.  1.
         21   -1    0    0  504  502 -0.00000000000E+00 -0.00000000000E+00 -0.48463551360E+03  0.48463551360E+03  0.00000000000E+00 0. -1.
         21    1    1    2  503  502 -0.26799350945E+02  0.58067336069E+01 -0.43777726375E+03  0.43863521977E+03  0.00000000000E+00 0. -1.
         21    1    1    2  504  501  0.26799350945E+02 -0.58067336069E+01 -0.42380514793E+02  0.50478028887E+02  0.00000000000E+00 0.  1.
<mgrwt>
<rscale>  2 0.27421221E+02</rscale>
<asrwt>0</asrwt>
<pdfrwt beam="1">  1       21 0.68888225E-03 0.27421221E+02</pdfrwt>
<pdfrwt beam="2">  1       21 0.74559317E-01 0.27421221E+02</pdfrwt>
<totfact> 0.92340082E+06</totfact>
</mgrwt>
</event>
<event>
 4    1  0.4438654E+006  0.2232802E+02  0.7546771E-02  0.1702640E+00
         21   -1    0    0  503  501  0.00000000000E+00  0.00000000000E+00  0.36421315001E+02  0.36421315001E+02  0.00000000000E+00 0. -1.
         21   -1    0    0  504  502 -0.00000000000E+00 -0.00000000000E+00 -0.17630485740E+02  0.17630485740E+02  0.00000000000E+00 0. -1.
         21    1    1    2  503  502  0.17156074570E+02 -0.14290184402E+02 -0.33844153216E+01  0.22583058516E+02  0.00000000000E+00 0. -1.
         21    1    1    2  504  501 -0.17156074570E+02  0.14290184402E+02  0.22175244583E+02  0.31468742225E+02  0.00000000000E+00 0. -1.
<mgrwt>
<rscale>  2 0.22328015E+02</rscale>
<asrwt>0</asrwt>
<pdfrwt beam="1">  1       21 0.56032792E-02 0.22328015E+02</pdfrwt>
<pdfrwt beam="2">  1       21 0.27123824E-02 0.22328015E+02</pdfrwt>
<totfact> 0.11079814E+08</totfact>
</mgrwt>
</event>
<event>
 4    1  0.4438654E+006  0.2073152E+02  0.7546771E-02  0.1731160E+00
         21   -1    0    0  503  501  0.00000000000E+00  0.00000000000E+00  0.10681571426E+03  0.10681571426E+03  0.00000000000E+00 0.  1.
         21   -1    0    0  504  502 -0.00000000000E+00 -0.00000000000E+00 -0.74116290601E+01  0.74116290601E+01  0.00000000000E+00 0. -1.
         21    1    1    2  503  502 -0.16773026787E+02 -0.12184482126E+02  0.11087631932E+02  0.23510244876E+02  0.00000000000E+00 0. -1.
         21    1    1    2  504  501  0.16773026787E+02  0.12184482126E+02  0.88316453273E+02  0.90717098449E+02  0.00000000000E+00 0.  1.
<mgrwt>
<rscale>  2 0.20731523E+02</rscale>
<asrwt>0</asrwt>
<pdfrwt beam="1">  1       21 0.16433186E-01 0.20731523E+02</pdfrwt>
<pdfrwt beam="2">  1       21 0.11402507E-02 0.20731523E+02</pdfrwt>
<totfact> 0.69048694E+07</totfact>
</mgrwt>
</event>
<event>
 4    1  0.4438654E+006  0.2115600E+02  0.7546771E-02  0.1723271E+00
         21   -1    0    0  503  501  0.00000000000E+00  0.00000000000E+00  0.13733345135E+02  0.13733345135E+02  0.00000000000E+00 0.  1.
         21   -1    0    0  504  502 -0.00000000000E+00 -0.00000000000E+00 -0.32590690426E+02  0.32590690426E+02  0.00000000000E+00 0.  1.
         21    1    1    2  503  502  0.67347347136E+01  0.20055414062E+02 -0.93695631367E+01  0.23137955792E+02  0.00000000000E+00 0.  1.
         21    1    1    2  504  501 -0.67347347136E+01 -0.20055414062E+02 -0.94877821546E+01  0.23186079769E+02  0.00000000000E+00 0.  1.
<mgrwt>
<rscale>  2 0.21155999E+02</rscale>
<asrwt>0</asrwt>
<pdfrwt beam="1">  1       21 0.21128223E-02 0.21155999E+02</pdfrwt>
<pdfrwt beam="2">  1       21 0.50139524E-02 0.21155999E+02</pdfrwt>
<totfact> 0.19115578E+08</totfact>
</mgrwt>
</event>
<event>
 4    1  0.4438654E+006  0.4568377E+02  0.7546771E-02  0.1470118E+00
         21   -1    0    0  504  501  0.00000000000E+00  0.00000000000E+00  0.41331060264E+01  0.41331060264E+01  0.00000000000E+00 0. -1.
         21   -1    0    0  501  502 -0.00000000000E+00 -0.00000000000E+00 -0.62176559183E+03  0.62176559183E+03  0.00000000000E+00 0. -1.
         21    1    1    2  503  502  0.41005854686E+02 -0.20137698759E+02 -0.44446421382E+03  0.44680582404E+03  0.00000000000E+00 0. -1.
         21    1    1    2  504  503 -0.41005854686E+02  0.20137698759E+02 -0.17316827198E+03  0.17909287381E+03  0.00000000000E+00 0. -1.
<mgrwt>
<rscale>  2 0.45683772E+02</rscale>
<asrwt>0</asrwt>
<pdfrwt beam="1">  1       21 0.63586259E-03 0.45683772E+02</pdfrwt>
<pdfrwt beam="2">  1       21 0.95656227E-01 0.45683772E+02</pdfrwt>
<totfact> 0.64672575E+06</totfact>
</mgrwt>
</event>
<event>
 4    1  0.4438654E+006  0.3195007E+02  0.7546771E-02  0.1577482E+00
         21   -1    0    0  503  501  0.00000000000E+00  0.00000000000E+00  0.56428904860E+03  0.56428904860E+03  0.00000000000E+00 0. -1.
         21   -1    0    0  504  502 -0.00000000000E+00 -0.00000000000E+00 -0.11893334788E+02  0.11893334788E+02  0.00000000000E+00 0.  1.
         21    1    1    2  503  502 -0.30838573813E+02 -0.83540001770E+01  0.54147600551E+03  0.54241780161E+03  0.00000000000E+00 0. -1.
         21    1    1    2  504  501  0.30838573813E+02  0.83540001770E+01  0.10919708304E+02  0.33764581787E+02  0.00000000000E+00 0.  1.
<mgrwt>
<rscale>  2 0.31950070E+02</rscale>
<asrwt>0</asrwt>
<pdfrwt beam="1">  1       21 0.86813679E-01 0.31950070E+02</pdfrwt>
<pdfrwt beam="2">  1       21 0.18297443E-02 0.31950070E+02</pdfrwt>
<totfact> 0.15398247E+06</totfact>
</mgrwt>
</event>
<event>
 4    1  0.4438654E+006  0.2859329E+02  0.7546771E-02  0.1614179E+00
         21   -1    0    0  503  501  0.00000000000E+00  0.00000000000E+00  0.92045974912E+01  0.92045974912E+01  0.00000000000E+00 0. -1.
         21   -1    0    0  504  502 -0.00000000000E+00 -0.00000000000E+00 -0.90876336914E+02  0.90876336914E+02  0.00000000000E+00 0. -1.
         21    1    1    2  503  502  0.27592463448E+02  0.74988314171E+01 -0.48358430480E+02  0.56179304999E+02  0.00000000000E+00 0. -1.
         21    1    1    2  504  501 -0.27592463448E+02 -0.74988314171E+01 -0.33313308943E+02  0.43901629406E+02  0.00000000000E+00 0. -1.
<mgrwt>
<rscale>  2 0.28593295E+02</rscale>
<asrwt>0</asrwt>
<pdfrwt beam="1">  1       21 0.14160919E-02 0.28593295E+02</pdfrwt>
<pdfrwt beam="2">  1       21 0.13980975E-01 0.28593295E+02</pdfrwt>
<totfact> 0.71174321E+07</totfact>
</mgrwt>
</event>
<event>
 4    1  0.4438654E+006  0.2683586E+02  0.7546771E-02  0.1635952E+00
         21   -1    0    0  504  501  0.00000000000E+00  0.00000000000E+00  0.14961982627E+03  0.14961982627E+03  0.00000000000E+00 0. -1.
         21   -1    0    0  503  502 -0.00000000000E+00 -0.00000000000E+00 -0.10533432606E+02  0.10533432606E+02  0.00000000000E+00 0. -1.
         21    1    1    2  503  501 -0.23670798549E+02  0.12643454029E+02  0.12855301102E+03  0.13132418009E+03  0.00000000000E+00 0. -1.
         21    1    1    2  504  502  0.23670798549E+02 -0.12643454029E+02  0.10533382644E+02  0.28829078786E+02  0.00000000000E+00 0. -1.
<mgrwt>
<rscale>  2 0.26835865E+02</rscale>
<asrwt>0</asrwt>
<pdfrwt beam="1">  1       21 0.23018433E-01 0.26835865E+02</pdfrwt>
<pdfrwt beam="2">  1       21 0.16205282E-02 0.26835865E+02</pdfrwt>
<totfact> 0.23949446E+07</totfact>
</mgrwt>
</event>
<event>
 4    1  0.4438654E+006  0.2160166E+02  0.7546771E-02  0.1715233E+00
         21   -1    0    0  503  501  0.00000000000E+00  0.00000000000E+00  0.66958508631E+03  0.66958508631E+03  0.00000000000E+00 0. -1.
         21   -1    0    0  501  502 -0.00000000000E+00 -0.00000000000E+00 -0.18614435162E+02  0.18614435162E+02  0.00000000000E+00 0. -1.
         21    1    1    2  503  504  0.84065311914E+01 -0.19898797095E+02  0.66308234796E+03  0.66343412036E+03  0.00000000000E+00 0. -1.
         21    1    1    2  504  502 -0.84065311914E+01  0.19898797095E+02 -0.12111696807E+02  0.24765401109E+02  0.00000000000E+00 0. -1.
<mgrwt>
<rscale>  2 0.21601664E+02</rscale>
<asrwt>0</asrwt>
<pdfrwt beam="1">  1       21 0.10301307E+00 0.21601664E+02</pdfrwt>
<pdfrwt beam="2">  1       21 0.28637598E-02 0.21601664E+02</pdfrwt>
<totfact> 0.51605358E+05</totfact>
</mgrwt>
</event>
<event>
 4    1  0.4438654E+006  0.2189035E+02  0.7546771E-02  0.1710155E+00
         21   -1    0    0  502  501  0.00000000000E+00  0.00000000000E+00  0.26532443838E+03  0.26532443838E+03  0.00000000000E+00 0. -1.
         21   -1    0    0  504  502 -0.00000000000E+00 -0.00000000000E+00 -0.26282086910E+02  0.26282086910E+02  0.00000000000E+00 0.  1.
         21    1    1    2  503  501  0.20949901349E+02 -0.63473596387E+01  0.26022565742E+03  0.26114474937E+03  0.00000000000E+00 0. -1.
         21    1    1    2  504  503 -0.20949901349E+02  0.63473596387E+01 -0.21183305956E+02  0.30461775920E+02  0.00000000000E+00 0.  1.
<mgrwt>
<rscale>  2 0.21890348E+02</rscale>
<asrwt>0</asrwt>
<pdfrwt beam="1">  1       21 0.40819143E-01 0.21890348E+02</pdfrwt>
<pdfrwt beam="2">  1       21 0.40433982E-02 0.21890348E+02</pdfrwt>
<totfact> 0.19658998E+06</totfact>
</mgrwt>
</event>
<event>
 4    1  0.4438654E+006  0.2314543E+02  0.7546771E-02  0.1689164E+00
         21   -1    0    0  502  501  0.00000000000E+00  0.00000000000E+00  0.17285087659E+02  0.17285087659E+02  0.00000000000E+00 0. -1.
         21   -1    0    0  504  502 -0.00000000000E+00 -0.00000000000E+00 -0.48552070907E+02  0.48552070907E+02  0.00000000000E+00 0. -1.
         21    1    1    2  503  501 -0.59420224899E+01 -0.22369691625E+02  0.41631833990E+01  0.23516862687E+02  0.00000000000E+00 0. -1.
         21    1    1    2  504  503  0.59420224899E+01  0.22369691625E+02 -0.35430166647E+02  0.42320295879E+02  0.00000000000E+00 0. -1.
<mgrwt>
<rscale>  2 0.23145426E+02</rscale>
<asrwt>0</asrwt>
<pdfrwt beam="1">  1       21 0.26592443E-02 0.23145426E+02</pdfrwt>
<pdfrwt beam="2">  1       21 0.74695493E-02 0.23145426E+02</pdfrwt>
<totfact> 0.72614941E+07</totfact>
</mgrwt>
</event>
<event>
 4    1  0.4438654E+006  0.2007192E+02  0.7546771E-02  0.1743902E+00
         21   -1    0    0  503  501  0.00000000000E+00  0.00000000000E+00  0.92662156583E+01  0.92662156583E+01  0.00000000000E+00 0.  1.
         21   -1    0    0  504  502 -0.00000000000E+00 -0.00000000000E+00 -0.16014186735E+03  0.16014186735E+03  0.00000000000E+00 0. -1.
         21    1    1    2  503  502  0.16665817073E+02  0.11186272461E+02 -0.31410811662E+01  0.20316213751E+02  0.00000000000E+00 0.  1.
         21    1    1    2  504  501 -0.16665817073E+02 -0.11186272461E+02 -0.14773457053E+03  0.14909186926E+03  0.00000000000E+00 0. -1.
<mgrwt>
<rscale>  2 0.20071924E+02</rscale>
<asrwt>0</asrwt>
<pdfrwt beam="1">  1       21 0.14255717E-02 0.20071924E+02</pdfrwt>
<pdfrwt beam="2">  1       21 0.24637209E-01 0.20071924E+02</pdfrwt>
<totfact> 0.24209753E+07</totfact>
</mgrwt>
</event>
<event>
 4    1  0.4438654E+006  0.2339828E+02  0.7546771E-02  0.1685134E+00
         21   -1    0    0  504  501  0.00000000000E+00  0.00000000000E+00  0.82413383026E+00  0.82413383026E+00  0.00000000000E+00 0. -1.
         21   -1    0    0  503  502 -0.00000000000E+00 -0.00000000000E+00 -0.86821009463E+03  0.86821009463E+03  0.00000000000E+00 0. -1.
         21    1    1    2  503  501  0.90553584303E+01 -0.21574990645E+02 -0.64426660335E+03  0.64469134936E+03  0.00000000000E+00 0. -1.
         21    1    1    2  504  502 -0.90553584303E+01  0.21574990645E+02 -0.22311935744E+03  0.22434287910E+03  0.00000000000E+00 0. -1.
<mgrwt>
<rscale>  2 0.23398285E+02</rscale>
<asrwt>0</asrwt>
<pdfrwt beam="1">  1       21 0.12678959E-03 0.23398285E+02</pdfrwt>
<pdfrwt beam="2">  1       21 0.13357102E+00 0.23398285E+02</pdfrwt>
<totfact> 0.29637938E+07</totfact>
</mgrwt>
</event>
<event>
 4    1  0.4438654E+006  0.2315229E+02  0.7546771E-02  0.1689053E+00
         21   -1    0    0  503  501  0.00000000000E+00  0.00000000000E+00  0.52693105794E+01  0.52693105794E+01  0.00000000000E+00 0. -1.
         21   -1    0    0  501  502 -0.00000000000E+00 -0.00000000000E+00 -0.12840964460E+03  0.12840964460E+03  0.00000000000E+00 0. -1.
         21    1    1    2  503  504 -0.11127845690E+02 -0.20302695588E+02 -0.31101537322E+02  0.38772851605E+02  0.00000000000E+00 0. -1.
         21    1    1    2  504  502  0.11127845690E+02  0.20302695588E+02 -0.92038796703E+02  0.94906103578E+02  0.00000000000E+00 0. -1.
<mgrwt>
<rscale>  2 0.23152287E+02</rscale>
<asrwt>0</asrwt>
<pdfrwt beam="1">  1       21 0.81066317E-03 0.23152287E+02</pdfrwt>
<pdfrwt beam="2">  1       21 0.19755330E-01 0.23152287E+02</pdfrwt>
<totfact> 0.86330869E+07</totfact>
</mgrwt>
</event>
<event>
 4    1  0.4438654E+006  0.2116496E+02  0.7546771E-02  0.1723107E+00
         21   -1    0    0  503  501  0.00000000000E+00  0.00000000000E+00  0.22269530240E+02  0.22269530240E+02  0.00000000000E+00 0. -1.
         21   -1    0    0  504  502 -0.00000000000E+00 -0.00000000000E+00 -0.37148636956E+02  0.37148636956E+02  0.00000000000E+00 0. -1.
         21    1    1    2  503  502 -0.99038390143E-02 -0.21164960140E+02 -0.27556830439E+02  0.34746719840E+02  0.00000000000E+00 0. -1.
         21    1    1    2  504  501  0.99038390143E-02  0.21164960140E+02  0.12677723723E+02  0.24671447356E+02  0.00000000000E+00 0. -1.
<mgrwt>
<rscale>  2 0.21164962E+02</rscale>
<asrwt>0</asrwt>
<pdfrwt beam="1">  1       21 0.34260816E-02 0.21164962E+02</pdfrwt>
<pdfrwt beam="2">  1       21 0.57151749E-02 0.21164962E+02</pdfrwt>
<totfact> 0.73518805E+07</totfact>
</mgrwt>
</event>
<event>
 4    1  0.4438654E+006  0.2946074E+02  0.7546771E-02  0.1604127E+00
         21   -1    0    0  504  501  0.00000000000E+00  0.00000000000E+00  0.60994827872E+03  0.60994827872E+03  0.00000000000E+00 0.  1.
         21   -1    0    0  501  502 -0.00000000000E+00 -0.00000000000E+00 -0.61191142977E+01  0.61191142977E+01  0.00000000000E+00 0. -1.
         21    1    1    2  503  502  0.23771497505E+02  0.17402618080E+02  0.32063054783E+02  0.43542791501E+02  0.00000000000E+00 0. -1.
         21    1    1    2  504  503 -0.23771497505E+02 -0.17402618080E+02  0.57176610964E+03  0.57252460152E+03  0.00000000000E+00 0.  1.
<mgrwt>
<rscale>  2 0.29460740E+02</rscale>
<asrwt>0</asrwt>
<pdfrwt beam="1">  1       21 0.93838149E-01 0.29460740E+02</pdfrwt>
<pdfrwt beam="2">  1       21 0.94140268E-03 0.29460740E+02</pdfrwt>
<totfact> 0.35672633E+06</totfact>
</mgrwt>
</event>
<event>
 4    1  0.4438654E+006  0.2361776E+02  0.7546771E-02  0.1681688E+00
         21   -1    0    0  503  501  0.00000000000E+00  0.00000000000E+00  0.30665835947E+01  0.30665835947E+01  0.00000000000E+00 0. -1.
         21   -1    0    0  504  502 -0.00000000000E+00 -0.00000000000E+00 -0.48887150887E+03  0.48887150887E+03  0.00000000000E+00 0.  1.
         21    1    1    2  503  502 -0.19702044028E+02 -0.13024128282E+02 -0.43781292400E+03  0.43844948954E+03  0.00000000000E+00 0.  1.
         21    1    1    2  504  501  0.19702044028E+02  0.13024128282E+02 -0.47992001272E+02  0.53488602922E+02  0.00000000000E+00 0. -1.
<mgrwt>
<rscale>  2 0.23617757E+02</rscale>
<asrwt>0</asrwt>
<pdfrwt beam="1">  1       21 0.47178235E-03 0.23617757E+02</pdfrwt>
<pdfrwt beam="2">  1       21 0.75210959E-01 0.23617757E+02</pdfrwt>
<totfact> 0.15518776E+07</totfact>
</mgrwt>
</event>
<event>
 4    1  0.4438654E+006  0.2299106E+02  0.7546771E-02  0.1691655E+00
         21   -1    0    0  503  501  0.00000000000E+00  0.00000000000E+00  0.42597904825E+03  0.42597904825E+03  0.00000000000E+00 0.  1.
         21   -1    0    0  504  502 -0.00000000000E+00 -0.00000000000E+00 -0.18043423254E+01  0.18043423254E+01  0.00000000000E+00 0.  1.
         21    1    1    2  503  502 -0.15542627141E+02  0.16941528122E+02  0.92560049983E+02  0.95372697804E+02  0.00000000000E+00 0.  1.
         21    1    1    2  504  501  0.15542627141E+02 -0.16941528122E+02  0.33161465594E+03  0.33241069277E+03  0.00000000000E+00 0.  1.
<mgrwt>
<rscale>  2 0.22991056E+02</rscale>
<asrwt>0</asrwt>
<pdfrwt beam="1">  1       21 0.65535158E-01 0.22991056E+02</pdfrwt>
<pdfrwt beam="2">  1       21 0.27759147E-03 0.22991056E+02</pdfrwt>
<totfact> 0.44509796E+07</totfact>
</mgrwt>
</event>
<event>
 4    1  0.4438654E+006  0.4431356E+02  0.7546771E-02  0.1478673E+00
         21   -1    0    0  502  501  0.00000000000E+00  0.00000000000E+00  0.18485402528E+03  0.18485402528E+03  0.00000000000E+00 0. -1.
         21   -1    0    0  504  502 -0.00000000000E+00 -0.00000000000E+00 -0.38567135767E+03  0.38567135767E+03  0.00000000000E+00 0. -1.
         21    1    1    2  503  501 -0.41700418040E+02 -0.14992218593E+02  0.18089795626E+03  0.18624650886E+03  0.00000000000E+00 0. -1.
         21    1    1    2  504  503  0.41700418040E+02  0.14992218593E+02 -0.38171528865E+03  0.38427887409E+03  0.00000000000E+00 0. -1.
<mgrwt>
<rscale>  2 0.44313559E+02</rscale>
<asrwt>0</asrwt>
<pdfrwt beam="1">  1       21 0.28439081E-01 0.44313559E+02</pdfrwt>
<pdfrwt beam="2">  1       21 0.59334055E-01 0.44313559E+02</pdfrwt>
<totfact> 0.35332118E+04</totfact>
</mgrwt>
</event>
<event>
 4    1  0.4438654E+006  0.2909999E+02  0.7546771E-02  0.1608256E+00
         21   -1    0    0  502  501  0.00000000000E+00  0.00000000000E+00  0.41530719242E+03  0.41530719242E+03  0.00000000000E+00 0. -1.
         21   -1    0    0  504  502 -0.00000000000E+00 -0.00000000000E+00 -0.12389151051E+02  0.12389151051E+02  0.00000000000E+00 0.  1.
         21    1    1    2  503  501  0.21175575439E+02 -0.19960067811E+02  0.39691916536E+03  0.39798446343E+03  0.00000000000E+00 0. -1.
         21    1    1    2  504  503 -0.21175575439E+02  0.19960067811E+02  0.59988760111E+01  0.29711880041E+02  0.00000000000E+00 0.  1.
<mgrwt>
<rscale>  2 0.29099988E+02</rscale>
<asrwt>0</asrwt>
<pdfrwt beam="1">  1       21 0.63893403E-01 0.29099988E+02</pdfrwt>
<pdfrwt beam="2">  1       21 0.19060236E-02 0.29099988E+02</pdfrwt>
<totfact> 0.27271647E+06</totfact>
</mgrwt>
</event>
<event>
 4    1  0.4438654E+006  0.4364184E+02  0.7546771E-02  0.1483003E+00
         21   -1    0    0  504  501  0.00000000000E+00  0.00000000000E+00  0.48234330842E+01  0.48234330842E+01  0.00000000000E+00 0.  1.
         21   -1    0    0  503  502 -0.00000000000E+00 -0.00000000000E+00 -0.69603329817E+03  0.69603329817E+03  0.00000000000E+00 0.  1.
         21    1    1    2  503  501  0.65751404408E+01  0.43143688496E+02 -0.11509583979E+03  0.12309209018E+03  0.00000000000E+00 0.  1.
         21    1    1    2  504  502 -0.65751404408E+01 -0.43143688496E+02 -0.57611402529E+03  0.57776464107E+03  0.00000000000E+00 0.  1.
<mgrwt>
<rscale>  2 0.43641841E+02</rscale>
<asrwt>0</asrwt>
<pdfrwt beam="1">  1       21 0.74206676E-03 0.43641841E+02</pdfrwt>
<pdfrwt beam="2">  1       21 0.10708203E+00 0.43641841E+02</pdfrwt>
<totfact> 0.39494076E+06</totfact>
</mgrwt>
</event>
<event>
 4    1  0.4438654E+006  0.2069952E+02  0.7546771E-02  0.1731765E+00
         21   -1    0    0  503  501  0.00000000000E+00  0.00000000000E+00  0.12077091299E+02  0.12077091299E+02  0.00000000000E+00 0.  1.
         21   -1    0    0  504  502 -0.00000000000E+00 -0.00000000000E+00 -0.19370350971E+03  0.19370350971E+03  0.00000000000E+00 0. -1.
         21    1    1    2  503  502 -0.14770139686E+02 -0.14502175978E+02  0.21784605458E+01  0.20813837339E+02  0.00000000000E+00 0.  1.
         21    1    1    2  504  501  0.14770139686E+02  0.14502175978E+02 -0.18380487895E+03  0.18496676367E+03  0.00000000000E+00 0. -1.
<mgrwt>
<rscale>  2 0.20699520E+02</rscale>
<asrwt>0</asrwt>
<pdfrwt beam="1">  1       21 0.18580140E-02 0.20699520E+02</pdfrwt>
<pdfrwt beam="2">  1       21 0.29800540E-01 0.20699520E+02</pdfrwt>
<totfact> 0.11601851E+07</totfact>
</mgrwt>
</event>
<event>
 4    1  0.4438654E+006  0.2276655E+02  0.7546771E-02  0.1695322E+00
         21   -1    0    0  503  501  0.00000000000E+00  0.00000000000E+00  0.28808113220E+01  0.28808113220E+01  0.00000000000E+00 0. -1.
         21   -1    0    0  501  502 -0.00000000000E+00 -0.00000000000E+00 -0.20516390543E+03  0.20516390543E+03  0.00000000000E+00 0. -1.
         21    1    1    2  503  504  0.33308404642E+01  0.22521577256E+02 -0.64653266987E+02  0.68544590395E+02  0.00000000000E+00 0. -1.
         21    1    1    2  504  502 -0.33308404642E+01 -0.22521577256E+02 -0.13762982712E+03  0.13950012636E+03  0.00000000000E+00 0. -1.
<mgrwt>
<rscale>  2 0.22766553E+02</rscale>
<asrwt>0</asrwt>
<pdfrwt beam="1">  1       21 0.44320173E-03 0.22766553E+02</pdfrwt>
<pdfrwt beam="2">  1       21 0.31563678E-01 0.22766553E+02</pdfrwt>
<totfact> 0.91142988E+07</totfact>
</mgrwt>
</event>
<event>
 4    1  0.4438654E+006  0.2141103E+02  0.7546771E-02  0.1718642E+00
         21   -1    0    0  503  501  0.00000000000E+00  0.00000000000E+00  0.31407356931E+03  0.31407356931E+03  0.00000000000E+00 0. -1.
         21   -1    0    0  501  502 -0.00000000000E+00 -0.00000000000E+00 -0.48008187862E+01  0.48008187862E+01  0.00000000000E+00 0. -1.
         21    1    1    2  503  504 -0.72541780623E+01 -0.20144704745E+02  0.28764575907E+03  0.28844152776E+03  0.00000000000E+00 0. -1.
         21    1    1    2  504  502  0.72541780623E+01  0.20144704745E+02  0.21626991457E+02  0.30432860334E+02  0.00000000000E+00 0. -1.
<mgrwt>
<rscale>  2 0.21411031E+02</rscale>
<asrwt>0</asrwt>
<pdfrwt beam="1">  1       21 0.48318995E-01 0.21411031E+02</pdfrwt>
<pdfrwt beam="2">  1       21 0.73858775E-03 0.21411031E+02</pdfrwt>
<totfact> 0.18995992E+07</totfact>
</mgrwt>
</event>
<event>
 4    1  0.4438654E+006  0.3945523E+02  0.7546771E-02  0.1512259E+00
         21   -1    0    0  503  501  0.00000000000E+00  0.00000000000E+00  0.20114499209E+02  0.20114499209E+02  0.00000000000E+00 0.  1.
         21   -1    0    0  504  502 -0.00000000000E+00 -0.00000000000E+00 -0.80473297422E+02  0.80473297422E+02  0.00000000000E+00 0.  1.
         21    1    1    2  503  502  0.72044871193E+01 -0.38791885157E+02 -0.40019698826E+02  0.56198676878E+02  0.00000000000E+00 0.  1.
         21    1    1    2  504  501 -0.72044871193E+01  0.38791885157E+02 -0.20339099386E+02  0.44389119754E+02  0.00000000000E+00 0.  1.
<mgrwt>
<rscale>  2 0.39455228E+02</rscale>
<asrwt>0</asrwt>
<pdfrwt beam="1">  1       21 0.30945384E-02 0.39455228E+02</pdfrwt>
<pdfrwt beam="2">  1       21 0.12380507E-01 0.39455228E+02</pdfrwt>
<totfact> 0.27676203E+07</totfact>
</mgrwt>
</event>
<event>
 4    1  0.4438654E+006  0.2586448E+02  0.7546771E-02  0.1648887E+00
         21   -1    0    0  503  501  0.00000000000E+00  0.00000000000E+00  0.40006170174E+02  0.40006170174E+02  0.00000000000E+00 0. -1.
         21   -1    0    0  501  502 -0.00000000000E+00 -0.00000000000E+00 -0.27017961242E+02  0.27017961242E+02  0.00000000000E+00 0.  1.
         21    1    1    2  503  504  0.23809565065E+02  0.10103264106E+02  0.27181918556E+02  0.37521034508E+02  0.00000000000E+00 0. -1.
         21    1    1    2  504  502 -0.23809565065E+02 -0.10103264106E+02 -0.14193709625E+02  0.29503096907E+02  0.00000000000E+00 0.  1.
<mgrwt>
<rscale>  2 0.25864480E+02</rscale>
<asrwt>0</asrwt>
<pdfrwt beam="1">  1       21 0.61547954E-02 0.25864480E+02</pdfrwt>
<pdfrwt beam="2">  1       21 0.41566094E-02 0.25864480E+02</pdfrwt>
<totfact> 0.50769236E+07</totfact>
</mgrwt>
</event>
<event>
 4    1  0.4438654E+006  0.2036205E+02  0.7546771E-02  0.1738223E+00
         21   -1    0    0  504  501  0.00000000000E+00  0.00000000000E+00  0.34615374048E+02  0.34615374048E+02  0.00000000000E+00 0. -1.
         21   -1    0    0  501  502 -0.00000000000E+00 -0.00000000000E+00 -0.11329449584E+03  0.11329449584E+03  0.00000000000E+00 0. -1.
         21    1    1    2  503  502  0.12873137139E+02 -0.15776414237E+02 -0.10927599036E+03  0.11115689351E+03  0.00000000000E+00 0. -1.
         21    1    1    2  504  503 -0.12873137139E+02  0.15776414237E+02  0.30596868571E+02  0.36752976374E+02  0.00000000000E+00 0. -1.
<mgrwt>
<rscale>  2 0.20362046E+02</rscale>
<asrwt>0</asrwt>
<pdfrwt beam="1">  1       21 0.53254422E-02 0.20362046E+02</pdfrwt>
<pdfrwt beam="2">  1       21 0.17429922E-01 0.20362046E+02</pdfrwt>
<totfact> 0.57825083E+06</totfact>
</mgrwt>
</event>
<event>
 4    1  0.4438654E+006  0.2348381E+02  0.7546771E-02  0.1683786E+00
         21   -1    0    0  503  501  0.00000000000E+00  0.00000000000E+00  0.22479030598E+03  0.22479030598E+03  0.00000000000E+00 0.  1.
         21   -1    0    0  504  502 -0.00000000000E+00 -0.00000000000E+00 -0.48624720401E+02  0.48624720401E+02  0.00000000000E+00 0. -1.
         21    1    1    2  503  502 -0.21008383066E+02 -0.10494634479E+02  0.22129689514E+03  0.22253944663E+03  0.00000000000E+00 0.  1.
         21    1    1    2  504  501  0.21008383066E+02  0.10494634479E+02 -0.45131309558E+02  0.50875579745E+02  0.00000000000E+00 0. -1.
<mgrwt>
<rscale>  2 0.23483814E+02</rscale>
<asrwt>0</asrwt>
<pdfrwt beam="1">  1       21 0.34583123E-01 0.23483814E+02</pdfrwt>
<pdfrwt beam="2">  1       21 0.74807263E-02 0.23483814E+02</pdfrwt>
<totfact> 0.10096332E+06</totfact>
</mgrwt>
</event>
<event>
 4    1  0.4438654E+006  0.3897302E+02  0.7546771E-02  0.1515908E+00
         21   -1    0    0  504  501  0.00000000000E+00  0.00000000000E+00  0.10928056326E+03  0.10928056326E+03  0.00000000000E+00 0.  1.
         21   -1    0    0  501  502 -0.00000000000E+00 -0.00000000000E+00 -0.47032419873E+02  0.47032419873E+02  0.00000000000E+00 0. -1.
         21    1    1    2  503  502  0.38719156562E+02  0.44410967502E+01 -0.34475223482E+02  0.52033041996E+02  0.00000000000E+00 0. -1.
         21    1    1    2  504  503 -0.38719156562E+02 -0.44410967502E+01  0.96723366867E+02  0.10427994114E+03  0.00000000000E+00 0.  1.
<mgrwt>
<rscale>  2 0.38973022E+02</rscale>
<asrwt>0</asrwt>
<pdfrwt beam="1">  1       21 0.16812394E-01 0.38973022E+02</pdfrwt>
<pdfrwt beam="2">  1       21 0.72357569E-02 0.38973022E+02</pdfrwt>
<totfact> 0.41060009E+06</totfact>
</mgrwt>
</event>
<event>
 4    1  0.4438654E+006  0.2843535E+02  0.7546771E-02  0.1616057E+00
         21   -1    0    0  504  501  0.00000000000E+00  0.00000000000E+00  0.24009420409E+01  0.24009420409E+01  0.00000000000E+00 0. -1.
         21   -1    0    0  503  502 -0.00000000000E+00 -0.00000000000E+00 -0.35899263640E+03  0.35899263640E+03  0.00000000000E+00 0. -1.
         21    1    1    2  503  501  0.26269018714E+02  0.10886125137E+02 -0.13333961199E+03  0.13633789345E+03  0.00000000000E+00 0. -1.
         21    1    1    2  504  502 -0.26269018714E+02 -0.10886125137E+02 -0.22325208237E+03  0.22505568499E+03  0.00000000000E+00 0. -1.
<mgrwt>
<rscale>  2 0.28435349E+02</rscale>
<asrwt>0</asrwt>
<pdfrwt beam="1">  1       21 0.36937554E-03 0.28435349E+02</pdfrwt>
<pdfrwt beam="2">  1       21 0.55229660E-01 0.28435349E+02</pdfrwt>
<totfact> 0.43225764E+07</totfact>
</mgrwt>
</event>
<event>
 4    1  0.4438654E+006  0.2244991E+02  0.7546771E-02  0.1700585E+00
         21   -1    0    0  503  501  0.00000000000E+00  0.00000000000E+00  0.18592077870E+03  0.18592077870E+03  0.00000000000E+00 0.  1.
         21   -1    0    0  501  502 -0.00000000000E+00 -0.00000000000E+00 -0.11448133877E+02  0.11448133877E+02  0.00000000000E+00 0.  1.
         21    1    1    2  503  504  0.14647895788E+02 -0.17012863441E+02  0.17344883261E+03  0.17489567149E+03  0.00000000000E+00 0.  1.
         21    1    1    2  504  502 -0.14647895788E+02  0.17012863441E+02  0.10238122154E+01  0.22473241086E+02  0.00000000000E+00 0.  1.
<mgrwt>
<rscale>  2 0.22449908E+02</rscale>
<asrwt>0</asrwt>
<pdfrwt beam="1">  1       21 0.28603195E-01 0.22449908E+02</pdfrwt>
<pdfrwt beam="2">  1       21 0.17612515E-02 0.22449908E+02</pdfrwt>
<totfact> 0.13779122E+07</totfact>
</mgrwt>
</event>
<event>
 4    1  0.4438654E+006  0.2396459E+02  0.7546771E-02  0.1676335E+00
         21   -1    0    0  504  501  0.00000000000E+00  0.00000000000E+00  0.95087381880E+03  0.95087381880E+03  0.00000000000E+00 0.  1.
         21   -1    0    0  503  502 -0.00000000000E+00 -0.00000000000E+00 -0.46905628200E+01  0.46905628200E+01  0.00000000000E+00 0. -1.
         21    1    1    2  503  501  0.10582045321E+02 -0.21501674410E+02  0.91905380558E+03  0.91936619431E+03  0.00000000000E+00 0.  1.
         21    1    1    2  504  502 -0.10582045321E+02  0.21501674410E+02  0.27129450398E+02  0.36198187310E+02  0.00000000000E+00 0. -1.
<mgrwt>
<rscale>  2 0.23964592E+02</rscale>
<asrwt>0</asrwt>
<pdfrwt beam="1">  1       21 0.14628813E+00 0.23964592E+02</pdfrwt>
<pdfrwt beam="2">  1       21 0.72162581E-03 0.23964592E+02</pdfrwt>
<totfact> 0.18996799E+06</totfact>
</mgrwt>
</event>
<event>
 4    1  0.4438654E+006  0.2690241E+02  0.7546771E-02  0.1635090E+00
         21   -1    0    0  503  501  0.00000000000E+00  0.00000000000E+00  0.56970285412E+02  0.56970285412E+02  0.00000000000E+00 0. -1.
         21   -1    0    0  501  502 -0.00000000000E+00 -0.00000000000E+00 -0.33290122632E+02  0.33290122632E+02  0.00000000000E+00 0. -1.
         21    1    1    2  503  504  0.16409598218E+02  0.21318177260E+02  0.47329501020E+02  0.54440988806E+02  0.00000000000E+00 0. -1.
         21    1    1    2  504  502 -0.16409598218E+02 -0.21318177260E+02 -0.23649338240E+02  0.35819419238E+02  0.00000000000E+00 0. -1.
<mgrwt>
<rscale>  2 0.26902409E+02</rscale>
<asrwt>0</asrwt>
<pdfrwt beam="1">  1       21 0.87646593E-02 0.26902409E+02</pdfrwt>
<pdfrwt beam="2">  1       21 0.51215573E-02 0.26902409E+02</pdfrwt>
<totfact> 0.20611792E+07</totfact>
</mgrwt>
</event>
<event>
 4    1  0.4438654E+006  0.2036335E+02  0.7546771E-02  0.1738198E+00
         21   -1    0    0  503  501  0.00000000000E+00  0.00000000000E+00  0.25600264992E+02  0.25600264992E+02  0.00000000000E+00 0.  1.
         21   -1    0    0  501  502 -0.00000000000E+00 -0.00000000000E+00 -0.18241087995E+02  0.18241087995E+02  0.00000000000E+00 0.  1.
         21    1    1    2  503  504 -0.10810620423E+01  0.20334630090E+02  0.11016310734E+02  0.23152213247E+02  0.00000000000E+00 0.  1.
         21    1    1    2  504  502  0.10810620423E+01 -0.20334630090E+02 -0.36571337374E+01  0.20689139741E+02  0.00000000000E+00 0.  1.
<mgrwt>
<rscale>  2 0.20363346E+02</rscale>
<asrwt>0</asrwt>
<pdfrwt beam="1">  1       21 0.39385023E-02 0.20363346E+02</pdfrwt>
<pdfrwt beam="2">  1       21 0.28063212E-02 0.20363346E+02</pdfrwt>
<totfact> 0.17852885E+08</totfact>
</mgrwt>
</event>
<event>
 4    1  0.4438654E+006  0.4260253E+02  0.7546771E-02  0.1489889E+00
         21   -1    0    0  503  501  0.00000000000E+00  0.00000000000E+00  0.26061196571E+02  0.26061196571E+02  0.00000000000E+00 0. -1.
         21   -1    0    0  504  502 -0.00000000000E+00 -0.00000000000E+00 -0.69818919511E+02  0.69818919511E+02  0.00000000000E+00 0. -1.
         21    1    1    2  503  502 -0.35811350771E+02  0.23076450000E+02 -0.24286455047E+02  0.49038834482E+02  0.00000000000E+00 0. -1.
         21    1    1    2  504  501  0.35811350771E+02 -0.23076450000E+02 -0.19471267892E+02  0.46841281600E+02  0.00000000000E+00 0. -1.
<mgrwt>
<rscale>  2 0.42602528E+02</rscale>
<asrwt>0</asrwt>
<pdfrwt beam="1">  1       21 0.40094149E-02 0.42602528E+02</pdfrwt>
<pdfrwt beam="2">  1       21 0.10741372E-01 0.42602528E+02</pdfrwt>
<totfact> 0.23608426E+07</totfact>
</mgrwt>
</event>
<event>
 4    1  0.4438654E+006  0.2234062E+02  0.7546771E-02  0.1702427E+00
         21   -1    0    0  503  501  0.00000000000E+00  0.00000000000E+00  0.86599615778E+02  0.86599615778E+02  0.00000000000E+00 0.  1.
         21   -1    0    0  504  502 -0.00000000000E+00 -0.00000000000E+00 -0.20246065058E+02  0.20246065058E+02  0.00000000000E+00 0.  1.
         21    1    1    2  503  502 -0.20196778798E+02 -0.95495329294E+01 -0.12006918326E+02  0.25362758932E+02  0.00000000000E+00 0.  1.
         21    1    1    2  504  501  0.20196778798E+02  0.95495329294E+01  0.78360469046E+02  0.81482921904E+02  0.00000000000E+00 0.  1.
<mgrwt>
<rscale>  2 0.22340623E+02</rscale>
<asrwt>0</asrwt>
<pdfrwt beam="1">  1       21 0.13323018E-01 0.22340623E+02</pdfrwt>
<pdfrwt beam="2">  1       21 0.31147793E-02 0.22340623E+02</pdfrwt>
<totfact> 0.21619088E+07</totfact>
</mgrwt>
</event>
<event>
 4    1  0.4438654E+006  0.2156757E+02  0.7546771E-02  0.1715840E+00
         21   -1    0    0  503  501  0.00000000000E+00  0.00000000000E+00  0.25891690978E+03  0.25891690978E+03  0.00000000000E+00 0.  1.
         21   -1    0    0  504  502 -0.00000000000E+00 -0.00000000000E+00 -0.19068400169E+01  0.19068400169E+01  0.00000000000E+00 0.  1.
         21    1    1    2  503  502 -0.14409095931E+02 -0.16047992557E+02  0.97142888228E+02  0.99508295352E+02  0.00000000000E+00 0.  1.
         21    1    1    2  504  501  0.14409095931E+02  0.16047992557E+02  0.15986718154E+03  0.16131545445E+03  0.00000000000E+00 0.  1.
<mgrwt>
<rscale>  2 0.21567571E+02</rscale>
<asrwt>0</asrwt>
<pdfrwt beam="1">  1       21 0.39833343E-01 0.21567571E+02</pdfrwt>
<pdfrwt beam="2">  1       21 0.29336021E-03 0.21567571E+02</pdfrwt>
<totfact> 0.10668500E+08</totfact>
</mgrwt>
</event>
<event>
 4    1  0.4438654E+006  0.2819932E+02  0.7546771E-02  0.1618890E+00
         21   -1    0    0  503  501  0.00000000000E+00  0.00000000000E+00  0.12988404407E+03  0.12988404407E+03  0.00000000000E+00 0.  1.
         21   -1    0    0  501  502 -0.00000000000E+00 -0.00000000000E+00 -0.51262605803E+02  0.51262605803E+02  0.00000000000E+00 0. -1.
         21    1    1    2  503  504 -0.27810321569E+02  0.46677165756E+01  0.12430344495E+03  0.12746194723E+03  0.00000000000E+00 0.  1.
         21    1    1    2  504  502  0.27810321569E+02 -0.46677165756E+01 -0.45682006683E+02  0.53684702648E+02  0.00000000000E+00 0. -1.
<mgrwt>
<rscale>  2 0.28199318E+02</rscale>
<asrwt>0</asrwt>
<pdfrwt beam="1">  1       21 0.19982161E-01 0.28199318E+02</pdfrwt>
<pdfrwt beam="2">  1       21 0.78865548E-02 0.28199318E+02</pdfrwt>
<totfact> 0.25371738E+06</totfact>
</mgrwt>
</event>
<event>
 4    1  0.4438654E+006  0.2616954E+02  0.7546771E-02  0.1644750E+00
         21   -1    0    0  504  501  0.00000000000E+00  0.00000000000E+00  0.47017468861E+03  0.47017468861E+03  0.00000000000E+00 0. -1.
         21   -1    0    0  501  502 -0.00000000000E+00 -0.00000000000E+00 -0.88310771717E+01  0.88310771717E+01  0.00000000000E+00 0. -1.
         21    1    1    2  503  502  0.12967358683E+02  0.22730869635E+02  0.11809862300E+02  0.28710932989E+02  0.00000000000E+00 0. -1.
         21    1    1    2  504  503 -0.12967358683E+02 -0.22730869635E+02  0.44953374913E+03  0.45029483279E+03  0.00000000000E+00 0. -1.
<mgrwt>
<rscale>  2 0.26169540E+02</rscale>
<asrwt>0</asrwt>
<pdfrwt beam="1">  1       21 0.72334548E-01 0.26169540E+02</pdfrwt>
<pdfrwt beam="2">  1       21 0.13586276E-02 0.26169540E+02</pdfrwt>
<totfact> 0.35076382E+06</totfact>
</mgrwt>
</event>
<event>
 4    1  0.4438654E+006  0.3094769E+02  0.7546771E-02  0.1587843E+00
         21   -1    0    0  503  501  0.00000000000E+00  0.00000000000E+00  0.16570370077E+01  0.16570370077E+01  0.00000000000E+00 0.  1.
         21   -1    0    0  504  502 -0.00000000000E+00 -0.00000000000E+00 -0.63746150277E+03  0.63746150277E+03  0.00000000000E+00 0.  1.
         21    1    1    2  503  502 -0.29762501854E+00  0.30946258806E+02 -0.22030000389E+03  0.22246314578E+03  0.00000000000E+00 0.  1.
         21    1    1    2  504  501  0.29762501854E+00 -0.30946258806E+02 -0.41550446187E+03  0.41665539400E+03  0.00000000000E+00 0.  1.
<mgrwt>
<rscale>  2 0.30947690E+02</rscale>
<asrwt>0</asrwt>
<pdfrwt beam="1">  1       21 0.25492905E-03 0.30947690E+02</pdfrwt>
<pdfrwt beam="2">  1       21 0.98070891E-01 0.30947690E+02</pdfrwt>
<totfact> 0.22760307E+07</totfact>
</mgrwt>
</event>
<event>
 4    1  0.4438654E+006  0.2602625E+02  0.7546771E-02  0.1646684E+00
         21   -1    0    0  504  501  0.00000000000E+00  0.00000000000E+00  0.29744610530E+03  0.29744610530E+03  0.00000000000E+00 0. -1.
         21   -1    0    0  503  502 -0.00000000000E+00 -0.00000000000E+00 -0.14917374360E+02  0.14917374360E+02  0.00000000000E+00 0.  1.
         21    1    1    2  503  501  0.64822228132E+01 -0.25206082723E+02  0.28503141167E+03  0.28621717534E+03  0.00000000000E+00 0. -1.
         21    1    1    2  504  502 -0.64822228132E+01  0.25206082723E+02 -0.25026807322E+01  0.26146304322E+02  0.00000000000E+00 0.  1.
<mgrwt>
<rscale>  2 0.26026252E+02</rscale>
<asrwt>0</asrwt>
<pdfrwt beam="1">  1       21 0.45760935E-01 0.26026252E+02</pdfrwt>
<pdfrwt beam="2">  1       21 0.22949809E-02 0.26026252E+02</pdfrwt>
<totfact> 0.39129086E+06</totfact>
</mgrwt>
</event>
<event>
 4    1  0.4438654E+006  0.2236050E+02  0.7546771E-02  0.1702091E+00
         21   -1    0    0  502  501  0.00000000000E+00  0.00000000000E+00  0.22255696931E+02  0.22255696931E+02  0.00000000000E+00 0.  1.
         21   -1    0    0  503  502 -0.00000000000E+00 -0.00000000000E+00 -0.45146132646E+02  0.45146132646E+02  0.00000000000E+00 0. -1.
         21    1    1    2  503  504 -0.21299524114E+02 -0.68060442774E+01 -0.35331917743E+02  0.41813112507E+02  0.00000000000E+00 0. -1.
         21    1    1    2  504  501  0.21299524114E+02  0.68060442774E+01  0.12441482028E+02  0.25588717069E+02  0.00000000000E+00 0.  1.
<mgrwt>
<rscale>  2 0.22360500E+02</rscale>
<asrwt>0</asrwt>
<pdfrwt beam="1">  1       21 0.34239534E-02 0.22360500E+02</pdfrwt>
<pdfrwt beam="2">  1       21 0.69455589E-02 0.22360500E+02</pdfrwt>
<totfact> 0.54610760E+07</totfact>
</mgrwt>
</event>
<event>
 4    1  0.4438654E+006  0.6608095E+02  0.7546771E-02  0.1373951E+00
         21   -1    0    0  502  501  0.00000000000E+00  0.00000000000E+00  0.10765261456E+02  0.10765261456E+02  0.00000000000E+00 0.  1.
         21   -1    0    0  503  502 -0.00000000000E+00 -0.00000000000E+00 -0.79237793514E+03  0.79237793514E+03  0.00000000000E+00 0.  1.
         21    1    1    2  503  504 -0.62942819874E+02 -0.20121977491E+02 -0.67135736907E+03  0.67460166732E+03  0.00000000000E+00 0.  1.
         21    1    1    2  504  501  0.62942819874E+02  0.20121977491E+02 -0.11025530461E+03  0.12854152927E+03  0.00000000000E+00 0.  1.
<mgrwt>
<rscale>  2 0.66080955E+02</rscale>
<asrwt>0</asrwt>
<pdfrwt beam="1">  1       21 0.16561935E-02 0.66080955E+02</pdfrwt>
<pdfrwt beam="2">  1       21 0.12190434E+00 0.66080955E+02</pdfrwt>
<totfact> 0.85786239E+05</totfact>
</mgrwt>
</event>
<event>
 4    1  0.4438654E+006  0.2327311E+02  0.7546771E-02  0.1687121E+00
         21   -1    0    0  503  501  0.00000000000E+00  0.00000000000E+00  0.26066517063E+02  0.26066517063E+02  0.00000000000E+00 0.  1.
         21   -1    0    0  504  502 -0.00000000000E+00 -0.00000000000E+00 -0.14805229285E+03  0.14805229285E+03  0.00000000000E+00 0. -1.
         21    1    1    2  503  502  0.21686154996E+02  0.84467866166E+01 -0.14171205585E+03  0.14361039062E+03  0.00000000000E+00 0. -1.
         21    1    1    2  504  501 -0.21686154996E+02 -0.84467866166E+01  0.19726280060E+02  0.30508419291E+02  0.00000000000E+00 0.  1.
<mgrwt>
<rscale>  2 0.23273107E+02</rscale>
<asrwt>0</asrwt>
<pdfrwt beam="1">  1       21 0.40102334E-02 0.23273107E+02</pdfrwt>
<pdfrwt beam="2">  1       21 0.22777276E-01 0.23273107E+02</pdfrwt>
<totfact> 0.58190598E+06</totfact>
</mgrwt>
</event>
<event>
 4    1  0.4438654E+006  0.2765151E+02  0.7546771E-02  0.1625600E+00
         21   -1    0    0  504  501  0.00000000000E+00  0.00000000000E+00  0.31310870889E+01  0.31310870889E+01  0.00000000000E+00 0. -1.
         21   -1    0    0  503  502 -0.00000000000E+00 -0.00000000000E+00 -0.42237635452E+03  0.42237635452E+03  0.00000000000E+00 0.  1.
         21    1    1    2  503  501  0.47931482844E+01 -0.27232919906E+02 -0.34780558089E+03  0.34890303567E+03  0.00000000000E+00 0.  1.
         21    1    1    2  504  502 -0.47931482844E+01  0.27232919906E+02 -0.71439686536E+02  0.76604405940E+02  0.00000000000E+00 0. -1.
<mgrwt>
<rscale>  2 0.27651513E+02</rscale>
<asrwt>0</asrwt>
<pdfrwt beam="1">  1       21 0.48170609E-03 0.27651513E+02</pdfrwt>
<pdfrwt beam="2">  1       21 0.64980925E-01 0.27651513E+02</pdfrwt>
<totfact> 0.20922124E+07</totfact>
</mgrwt>
</event>
<event>
 4    1  0.4438654E+006  0.2020345E+02  0.7546771E-02  0.1741312E+00
         21   -1    0    0  503  501  0.00000000000E+00  0.00000000000E+00  0.33438328937E+02  0.33438328937E+02  0.00000000000E+00 0.  1.
         21   -1    0    0  504  502 -0.00000000000E+00 -0.00000000000E+00 -0.91588183328E+02  0.91588183328E+02  0.00000000000E+00 0.  1.
         21    1    1    2  503  502  0.11620960512E+02  0.16526731625E+02 -0.87273368631E+02  0.89581362200E+02  0.00000000000E+00 0.  1.
         21    1    1    2  504  501 -0.11620960512E+02 -0.16526731625E+02  0.29123514240E+02  0.35445150065E+02  0.00000000000E+00 0.  1.
<mgrwt>
<rscale>  2 0.20203455E+02</rscale>
<asrwt>0</asrwt>
<pdfrwt beam="1">  1       21 0.51443584E-02 0.20203455E+02</pdfrwt>
<pdfrwt beam="2">  1       21 0.14090489E-01 0.20203455E+02</pdfrwt>
<totfact> 0.87557631E+06</totfact>
</mgrwt>
</event>
<event>
 4    1  0.4438654E+006  0.3571473E+02  0.7546771E-02  0.1542344E+00
         21   -1    0    0  502  501  0.00000000000E+00  0.00000000000E+00  0.14773866337E+03  0.14773866337E+03  0.00000000000E+00 0.  1.
         21   -1    0    0  503  502 -0.00000000000E+00 -0.00000000000E+00 -0.28076537832E+02  0.28076537832E+02  0.00000000000E+00 0.  1.
         21    1    1    2  503  504  0.35714677709E+02 -0.61926475325E-01 -0.13322193854E+02  0.38118537325E+02  0.00000000000E+00 0.  1.
         21    1    1    2  504  501 -0.35714677709E+02  0.61926475325E-01  0.13298431939E+03  0.13769666387E+03  0.00000000000E+00 0.  1.
<mgrwt>
<rscale>  2 0.35714731E+02</rscale>
<asrwt>0</asrwt>
<pdfrwt beam="1">  1       21 0.22729025E-01 0.35714731E+02</pdfrwt>
<pdfrwt beam="2">  1       21 0.43194674E-02 0.35714731E+02</pdfrwt>
<totfact> 0.55195650E+06</totfact>
</mgrwt>
</event>
<event>
 4    1  0.4438654E+006  0.2153998E+02  0.7546771E-02  0.1716331E+00
         21   -1    0    0  503  501  0.00000000000E+00  0.00000000000E+00  0.87812466540E+01  0.87812466540E+01  0.00000000000E+00 0.  1.
         21   -1    0    0  504  502 -0.00000000000E+00 -0.00000000000E+00 -0.67916681125E+02  0.67916681125E+02  0.00000000000E+00 0.  1.
         21    1    1    2  503  502  0.21111703211E+02  0.42739804088E+01 -0.11497318679E+02  0.24416372741E+02  0.00000000000E+00 0.  1.
         21    1    1    2  504  501 -0.21111703211E+02 -0.42739804088E+01 -0.47638115792E+02  0.52281555038E+02  0.00000000000E+00 0.  1.
<mgrwt>
<rscale>  2 0.21539984E+02</rscale>
<asrwt>0</asrwt>
<pdfrwt beam="1">  1       21 0.13509611E-02 0.21539984E+02</pdfrwt>
<pdfrwt beam="2">  1       21 0.10448720E-01 0.21539984E+02</pdfrwt>
<totfact> 0.11567095E+08</totfact>
</mgrwt>
</event>
<event>
 4    1  0.4438654E+006  0.2228998E+02  0.7546771E-02  0.1703285E+00
         21   -1    0    0  503  501  0.00000000000E+00  0.00000000000E+00  0.25167018644E+01  0.25167018644E+01  0.00000000000E+00 0. -1.
         21   -1    0    0  504  502 -0.00000000000E+00 -0.00000000000E+00 -0.28145175919E+03  0.28145175919E+03  0.00000000000E+00 0. -1.
         21    1    1    2  503  502 -0.21534896164E+02  0.57525215335E+01 -0.21705006781E+03  0.21819160203E+03  0.00000000000E+00 0. -1.
         21    1    1    2  504  501  0.21534896164E+02 -0.57525215335E+01 -0.61884989516E+02  0.65776859032E+02  0.00000000000E+00 0. -1.
<mgrwt>
<rscale>  2 0.22289981E+02</rscale>
<asrwt>0</asrwt>
<pdfrwt beam="1">  1       21 0.38718472E-03 0.22289981E+02</pdfrwt>
<pdfrwt beam="2">  1       21 0.43300291E-01 0.22289981E+02</pdfrwt>
<totfact> 0.61309345E+07</totfact>
</mgrwt>
</event>
<event>
 4    1  0.4438654E+006  0.2031313E+02  0.7546771E-02  0.1739172E+00
         21   -1    0    0  503  501  0.00000000000E+00  0.00000000000E+00  0.13549225535E+02  0.13549225535E+02  0.00000000000E+00 0. -1.
         21   -1    0    0  504  502 -0.00000000000E+00 -0.00000000000E+00 -0.30944811364E+02  0.30944811364E+02  0.00000000000E+00 0. -1.
         21    1    1    2  503  502  0.21892243759E+00  0.20311954507E+02 -0.11500568582E+02  0.23342804044E+02  0.00000000000E+00 0. -1.
         21    1    1    2  504  501 -0.21892243759E+00 -0.20311954507E+02 -0.58950172474E+01  0.21151232855E+02  0.00000000000E+00 0. -1.
<mgrwt>
<rscale>  2 0.20313134E+02</rscale>
<asrwt>0</asrwt>
<pdfrwt beam="1">  1       21 0.20844963E-02 0.20313134E+02</pdfrwt>
<pdfrwt beam="2">  1       21 0.47607402E-02 0.20313134E+02</pdfrwt>
<totfact> 0.20908273E+08</totfact>
</mgrwt>
</event>
<event>
 4    1  0.4438654E+006  0.2206477E+02  0.7546771E-02  0.1707134E+00
         21   -1    0    0  503  501  0.00000000000E+00  0.00000000000E+00  0.59638757476E+02  0.59638757476E+02  0.00000000000E+00 0.  1.
         21   -1    0    0  504  502 -0.00000000000E+00 -0.00000000000E+00 -0.71867633339E+02  0.71867633339E+02  0.00000000000E+00 0.  1.
         21    1    1    2  503  502  0.90807422110E+01 -0.20109552287E+02 -0.68020673892E+02  0.71509901755E+02  0.00000000000E+00 0.  1.
         21    1    1    2  504  501 -0.90807422110E+01  0.20109552287E+02  0.55791798029E+02  0.59996489060E+02  0.00000000000E+00 0.  1.
<mgrwt>
<rscale>  2 0.22064768E+02</rscale>
<asrwt>0</asrwt>
<pdfrwt beam="1">  1       21 0.91751935E-02 0.22064768E+02</pdfrwt>
<pdfrwt beam="2">  1       21 0.11056559E-01 0.22064768E+02</pdfrwt>
<totfact> 0.52505737E+06</totfact>
</mgrwt>
</event>
<event>
 4    1  0.4438654E+006  0.2353075E+02  0.7546771E-02  0.1683049E+00
         21   -1    0    0  502  501  0.00000000000E+00  0.00000000000E+00  0.50837003924E+02  0.50837003924E+02  0.00000000000E+00 0.  1.
         21   -1    0    0  503  502 -0.00000000000E+00 -0.00000000000E+00 -0.46333846642E+03  0.46333846642E+03  0.00000000000E+00 0. -1.
         21    1    1    2  503  504 -0.20828519434E+00 -0.23529823620E+02 -0.46029884537E+03  0.46089990566E+03  0.00000000000E+00 0. -1.
         21    1    1    2  504  501  0.20828519434E+00  0.23529823620E+02  0.47797382880E+02  0.53275564685E+02  0.00000000000E+00 0.  1.
<mgrwt>
<rscale>  2 0.23530745E+02</rscale>
<asrwt>0</asrwt>
<pdfrwt beam="1">  1       21 0.78210773E-02 0.23530745E+02</pdfrwt>
<pdfrwt beam="2">  1       21 0.71282843E-01 0.23530745E+02</pdfrwt>
<totfact> 0.22962123E+05</totfact>
</mgrwt>
</event>
<event>
 4    1  0.4438654E+006  0.2142841E+02  0.7546771E-02  0.1718329E+00
         21   -1    0    0  504  501  0.00000000000E+00  0.00000000000E+00  0.66939880625E+03  0.66939880625E+03  0.00000000000E+00 0.  1.
         21   -1    0    0  503  502 -0.00000000000E+00 -0.00000000000E+00 -0.96677888526E+00  0.96677888526E+00  0.00000000000E+00 0.  1.
         21    1    1    2  503  501 -0.21420782236E+02  0.57168389275E+00  0.15356683359E+03  0.15505466492E+03  0.00000000000E+00 0.  1.
         21    1    1    2  504  502  0.21420782236E+02 -0.57168389275E+00  0.51486519377E+03  0.51531092021E+03  0.00000000000E+00 0.  1.
<mgrwt>
<rscale>  2 0.21428410E+02</rscale>
<asrwt>0</asrwt>
<pdfrwt beam="1">  1       21 0.10298406E+00 0.21428410E+02</pdfrwt>
<pdfrwt beam="2">  1       21 0.14873575E-03 0.21428410E+02</pdfrwt>
<totfact> 0.41612121E+07</totfact>
</mgrwt>
</event>
<event>
 4    1  0.4438654E+006  0.2434051E+02  0.7546771E-02  0.1670659E+00
         21   -1    0    0  503  501  0.00000000000E+00  0.00000000000E+00  0.28894830657E+03  0.28894830657E+03  0.00000000000E+00 0. -1.
         21   -1    0    0  504  502 -0.00000000000E+00 -0.00000000000E+00 -0.20888830380E+01  0.20888830380E+01  0.00000000000E+00 0.  1.
         21    1    1    2  503  502 -0.31580721026E+00  0.24338462117E+02  0.16318026297E+03  0.16498563179E+03  0.00000000000E+00 0. -1.
         21    1    1    2  504  501  0.31580721026E+00 -0.24338462117E+02  0.12367916056E+03  0.12605155782E+03  0.00000000000E+00 0.  1.
<mgrwt>
<rscale>  2 0.24340511E+02</rscale>
<asrwt>0</asrwt>
<pdfrwt beam="1">  1       21 0.44453554E-01 0.24340511E+02</pdfrwt>
<pdfrwt beam="2">  1       21 0.32136685E-03 0.24340511E+02</pdfrwt>
<totfact> 0.78276336E+07</totfact>
</mgrwt>
</event>
<event>
 4    1  0.4438654E+006  0.2339206E+02  0.7546771E-02  0.1685233E+00
         21   -1    0    0  503  501  0.00000000000E+00  0.00000000000E+00  0.11242872605E+01  0.11242872605E+01  0.00000000000E+00 0.  1.
         21   -1    0    0  504  502 -0.00000000000E+00 -0.00000000000E+00 -0.92495058744E+03  0.92495058744E+03  0.00000000000E+00 0.  1.
         21    1    1    2  503  502  0.22888859977E+02 -0.48258069037E+01 -0.78064033041E+03  0.78099072580E+03  0.00000000000E+00 0.  1.
         21    1    1    2  504  501 -0.22888859977E+02  0.48258069037E+01 -0.14318596977E+03  0.14508414890E+03  0.00000000000E+00 0.  1.
<mgrwt>
<rscale>  2 0.23392057E+02</rscale>
<asrwt>0</asrwt>
<pdfrwt beam="1">  1       21 0.17296784E-03 0.23392057E+02</pdfrwt>
<pdfrwt beam="2">  1       21 0.14229963E+00 0.23392057E+02</pdfrwt>
<totfact> 0.16373063E+07</totfact>
</mgrwt>
</event>
<event>
 4    1  0.4438654E+006  0.2071238E+02  0.7546771E-02  0.1731522E+00
         21   -1    0    0  503  501  0.00000000000E+00  0.00000000000E+00  0.40630625038E+02  0.40630625038E+02  0.00000000000E+00 0.  1.
         21   -1    0    0  504  502 -0.00000000000E+00 -0.00000000000E+00 -0.13167378942E+02  0.13167378942E+02  0.00000000000E+00 0. -1.
         21    1    1    2  503  502 -0.19669279884E+02  0.64901535073E+01  0.25704674272E+02  0.33011103331E+02  0.00000000000E+00 0.  1.
         21    1    1    2  504  501  0.19669279884E+02 -0.64901535073E+01  0.17585718247E+01  0.20786900649E+02  0.00000000000E+00 0. -1.
<mgrwt>
<rscale>  2 0.20712379E+02</rscale>
<asrwt>0</asrwt>
<pdfrwt beam="1">  1       21 0.62508653E-02 0.20712379E+02</pdfrwt>
<pdfrwt beam="2">  1       21 0.20257506E-02 0.20712379E+02</pdfrwt>
<totfact> 0.14249063E+08</totfact>
</mgrwt>
</event>
<event>
 4    1  0.4438654E+006  0.2095642E+02  0.7546771E-02  0.1726951E+00
         21   -1    0    0  504  501  0.00000000000E+00  0.00000000000E+00  0.61729451613E+01  0.61729451613E+01  0.00000000000E+00 0. -1.
         21   -1    0    0  503  502 -0.00000000000E+00 -0.00000000000E+00 -0.47052532006E+03  0.47052532006E+03  0.00000000000E+00 0.  1.
         21    1    1    2  503  501 -0.20956340567E+02 -0.58917258909E-01 -0.45176773894E+03  0.45225353688E+03  0.00000000000E+00 0.  1.
         21    1    1    2  504  502  0.20956340567E+02  0.58917258909E-01 -0.12584635965E+02  0.24444728339E+02  0.00000000000E+00 0. -1.
<mgrwt>
<rscale>  2 0.20956423E+02</rscale>
<asrwt>0</asrwt>
<pdfrwt beam="1">  1       21 0.94968357E-03 0.20956423E+02</pdfrwt>
<pdfrwt beam="2">  1       21 0.72388534E-01 0.20956423E+02</pdfrwt>
<totfact> 0.58236368E+06</totfact>
</mgrwt>
</event>
<event>
 4    1  0.4438654E+006  0.2030841E+02  0.7546771E-02  0.1739264E+00
         21   -1    0    0  504  501  0.00000000000E+00  0.00000000000E+00  0.27005252998E+02  0.27005252998E+02  0.00000000000E+00 0.  1.
         21   -1    0    0  501  502 -0.00000000000E+00 -0.00000000000E+00 -0.28570482724E+02  0.28570482724E+02  0.00000000000E+00 0.  1.
         21    1    1    2  503  502 -0.18011698585E+02  0.93813837895E+01 -0.19740635588E+02  0.28321799751E+02  0.00000000000E+00 0.  1.
         21    1    1    2  504  503  0.18011698585E+02 -0.93813837895E+01  0.18175405861E+02  0.27253935971E+02  0.00000000000E+00 0.  1.
<mgrwt>
<rscale>  2 0.20308413E+02</rscale>
<asrwt>0</asrwt>
<pdfrwt beam="1">  1       21 0.41546543E-02 0.20308413E+02</pdfrwt>
<pdfrwt beam="2">  1       21 0.43954589E-02 0.20308413E+02</pdfrwt>
<totfact> 0.81473086E+07</totfact>
</mgrwt>
</event>
<event>
 4    1  0.4438654E+006  0.2123220E+02  0.7546771E-02  0.1721879E+00
         21   -1    0    0  504  501  0.00000000000E+00  0.00000000000E+00  0.81229843477E+02  0.81229843477E+02  0.00000000000E+00 0. -1.
         21   -1    0    0  503  502 -0.00000000000E+00 -0.00000000000E+00 -0.24906723838E+02  0.24906723838E+02  0.00000000000E+00 0.  1.
         21    1    1    2  503  501 -0.19779206873E+02  0.77194089919E+01 -0.18622223114E+02  0.28241697778E+02  0.00000000000E+00 0.  1.
         21    1    1    2  504  502  0.19779206873E+02 -0.77194089919E+01  0.74945342753E+02  0.77894869536E+02  0.00000000000E+00 0. -1.
<mgrwt>
<rscale>  2 0.21232200E+02</rscale>
<asrwt>0</asrwt>
<pdfrwt beam="1">  1       21 0.12496899E-01 0.21232200E+02</pdfrwt>
<pdfrwt beam="2">  1       21 0.38318037E-02 0.21232200E+02</pdfrwt>
<totfact> 0.17217909E+07</totfact>
</mgrwt>
</event>
<event>
 4    1  0.4438654E+006  0.2196922E+02  0.7546771E-02  0.1708785E+00
         21   -1    0    0  502  501  0.00000000000E+00  0.00000000000E+00  0.19871830724E+02  0.19871830724E+02  0.00000000000E+00 0.  1.
         21   -1    0    0  504  502 -0.00000000000E+00 -0.00000000000E+00 -0.42707142252E+02  0.42707142252E+02  0.00000000000E+00 0. -1.
         21    1    1    2  503  501 -0.89825943015E+01 -0.20048927042E+02  0.91309900462E+01  0.23791205416E+02  0.00000000000E+00 0.  1.
         21    1    1    2  504  503  0.89825943015E+01  0.20048927042E+02 -0.31966301574E+02  0.38787767560E+02  0.00000000000E+00 0. -1.
<mgrwt>
<rscale>  2 0.21969217E+02</rscale>
<asrwt>0</asrwt>
<pdfrwt beam="1">  1       21 0.30572048E-02 0.21969217E+02</pdfrwt>
<pdfrwt beam="2">  1       21 0.65703295E-02 0.21969217E+02</pdfrwt>
<totfact> 0.70936945E+07</totfact>
</mgrwt>
</event>
<event>
 4    1  0.4438654E+006  0.2285271E+02  0.7546771E-02  0.1693909E+00
         21   -1    0    0  503  501  0.00000000000E+00  0.00000000000E+00  0.34066821742E+03  0.34066821742E+03  0.00000000000E+00 0.  1.
         21   -1    0    0  504  502 -0.00000000000E+00 -0.00000000000E+00 -0.10302691478E+02  0.10302691478E+02  0.00000000000E+00 0. -1.
         21    1    1    2  503  502  0.15558711119E+02  0.16738370754E+02  0.32708683698E+03  0.32788419522E+03  0.00000000000E+00 0.  1.
         21    1    1    2  504  501 -0.15558711119E+02 -0.16738370754E+02  0.32786889600E+01  0.23086713679E+02  0.00000000000E+00 0. -1.
<mgrwt>
<rscale>  2 0.22852714E+02</rscale>
<asrwt>0</asrwt>
<pdfrwt beam="1">  1       21 0.52410486E-01 0.22852714E+02</pdfrwt>
<pdfrwt beam="2">  1       21 0.15850297E-02 0.22852714E+02</pdfrwt>
<totfact> 0.52079763E+06</totfact>
</mgrwt>
</event>
<event>
 4    1  0.4438654E+006  0.2345559E+02  0.7546771E-02  0.1684230E+00
         21   -1    0    0  503  501  0.00000000000E+00  0.00000000000E+00  0.10233548763E+04  0.10233548763E+04  0.00000000000E+00 0. -1.
         21   -1    0    0  504  502 -0.00000000000E+00 -0.00000000000E+00 -0.85238335406E+00  0.85238335406E+00  0.00000000000E+00 0.  1.
         21    1    1    2  503  502  0.19178498839E+02  0.13503707145E+02  0.20005098339E+03  0.20142135160E+03  0.00000000000E+00 0.  1.
         21    1    1    2  504  501 -0.19178498839E+02 -0.13503707145E+02  0.82245150957E+03  0.82278590807E+03  0.00000000000E+00 0. -1.
<mgrwt>
<rscale>  2 0.23455595E+02</rscale>
<asrwt>0</asrwt>
<pdfrwt beam="1">  1       21 0.15743823E+00 0.23455595E+02</pdfrwt>
<pdfrwt beam="2">  1       21 0.13113672E-03 0.23455595E+02</pdfrwt>
<totfact> 0.19179399E+07</totfact>
</mgrwt>
</event>
<event>
 4    1  0.4438654E+006  0.2089772E+02  0.7546771E-02  0.1728043E+00
         21   -1    0    0  502  501  0.00000000000E+00  0.00000000000E+00  0.74763240293E+01  0.74763240293E+01  0.00000000000E+00 0. -1.
         21   -1    0    0  503  502 -0.00000000000E+00 -0.00000000000E+00 -0.76748624778E+02  0.76748624778E+02  0.00000000000E+00 0. -1.
         21    1    1    2  503  504  0.16110651433E+02  0.13310210833E+02 -0.55219822789E+02  0.59041880312E+02  0.00000000000E+00 0. -1.
         21    1    1    2  504  501 -0.16110651433E+02 -0.13310210833E+02 -0.14052477960E+02  0.25183068495E+02  0.00000000000E+00 0. -1.
<mgrwt>
<rscale>  2 0.20897722E+02</rscale>
<asrwt>0</asrwt>
<pdfrwt beam="1">  1       21 0.11502037E-02 0.20897722E+02</pdfrwt>
<pdfrwt beam="2">  1       21 0.11807481E-01 0.20897722E+02</pdfrwt>
<totfact> 0.11926451E+08</totfact>
</mgrwt>
</event>
<event>
 4    1  0.4438654E+006  0.2053833E+02  0.7546771E-02  0.1734830E+00
         21   -1    0    0  504  501  0.00000000000E+00  0.00000000000E+00  0.49347035392E+02  0.49347035392E+02  0.00000000000E+00 0.  1.
         21   -1    0    0  503  502 -0.00000000000E+00 -0.00000000000E+00 -0.21337491773E+02  0.21337491773E+02  0.00000000000E+00 0.  1.
         21    1    1    2  503  501  0.20455455220E+02 -0.18432410936E+01 -0.13357219150E+02  0.24499765089E+02  0.00000000000E+00 0.  1.
         21    1    1    2  504  502 -0.20455455220E+02  0.18432410936E+01  0.41366762769E+02  0.46184762075E+02  0.00000000000E+00 0.  1.
<mgrwt>
<rscale>  2 0.20538335E+02</rscale>
<asrwt>0</asrwt>
<pdfrwt beam="1">  1       21 0.75918515E-02 0.20538335E+02</pdfrwt>
<pdfrwt beam="2">  1       21 0.32826911E-02 0.20538335E+02</pdfrwt>
<totfact> 0.49373664E+07</totfact>
</mgrwt>
</event>
<event>
 4    1  0.4438654E+006  0.2390302E+02  0.7546771E-02  0.1677277E+00
         21   -1    0    0  504  501  0.00000000000E+00  0.00000000000E+00  0.95882704410E+02  0.95882704410E+02  0.00000000000E+00 0. -1.
         21   -1    0    0  503  502 -0.00000000000E+00 -0.00000000000E+00 -0.17406196923E+02  0.17406196923E+02  0.00000000000E+00 0. -1.
         21    1    1    2  503  501  0.22308153536E+02 -0.85849049637E+01  0.85174671266E+02  0.88465128343E+02  0.00000000000E+00 0. -1.
         21    1    1    2  504  502 -0.22308153536E+02  0.85849049637E+01 -0.66981637790E+01  0.24823772990E+02  0.00000000000E+00 0. -1.
<mgrwt>
<rscale>  2 0.23903019E+02</rscale>
<asrwt>0</asrwt>
<pdfrwt beam="1">  1       21 0.14751185E-01 0.23903019E+02</pdfrwt>
<pdfrwt beam="2">  1       21 0.26778765E-02 0.23903019E+02</pdfrwt>
<totfact> 0.23368489E+07</totfact>
</mgrwt>
</event>
<event>
 4    1  0.4438654E+006  0.2189062E+02  0.7546771E-02  0.1710151E+00
         21   -1    0    0  504  501  0.00000000000E+00  0.00000000000E+00  0.87109486787E+03  0.87109486787E+03  0.00000000000E+00 0.  1.
         21   -1    0    0  503  502 -0.00000000000E+00 -0.00000000000E+00 -0.22133252868E+01  0.22133252868E+01  0.00000000000E+00 0.  1.
         21    1    1    2  503  501  0.17595312502E+02  0.13023223661E+02  0.55920673681E+02  0.60052652910E+02  0.00000000000E+00 0.  1.
         21    1    1    2  504  502 -0.17595312502E+02 -0.13023223661E+02  0.81296086890E+03  0.81325554024E+03  0.00000000000E+00 0.  1.
<mgrwt>
<rscale>  2 0.21890623E+02</rscale>
<asrwt>0</asrwt>
<pdfrwt beam="1">  1       21 0.13401432E+00 0.21890623E+02</pdfrwt>
<pdfrwt beam="2">  1       21 0.34051228E-03 0.21890623E+02</pdfrwt>
<totfact> 0.69811861E+06</totfact>
</mgrwt>
</event>
<event>
 4    1  0.4438654E+006  0.2004100E+02  0.7546771E-02  0.1744514E+00
         21   -1    0    0  502  501  0.00000000000E+00  0.00000000000E+00  0.11837125140E+03  0.11837125140E+03  0.00000000000E+00 0. -1.
         21   -1    0    0  503  502 -0.00000000000E+00 -0.00000000000E+00 -0.22282703106E+02  0.22282703106E+02  0.00000000000E+00 0.  1.
         21    1    1    2  503  504  0.11899165158E+02 -0.16126120107E+02 -0.16707218115E+02  0.26091627360E+02  0.00000000000E+00 0.  1.
         21    1    1    2  504  501 -0.11899165158E+02  0.16126120107E+02  0.11279576641E+03  0.11456232714E+03  0.00000000000E+00 0. -1.
<mgrwt>
<rscale>  2 0.20041005E+02</rscale>
<asrwt>0</asrwt>
<pdfrwt beam="1">  1       21 0.18210961E-01 0.20041005E+02</pdfrwt>
<pdfrwt beam="2">  1       21 0.34281082E-02 0.20041005E+02</pdfrwt>
<totfact> 0.10687288E+07</totfact>
</mgrwt>
</event>
<event>
 4    1  0.4438654E+006  0.3383463E+02  0.7546771E-02  0.1559200E+00
         21   -1    0    0  504  501  0.00000000000E+00  0.00000000000E+00  0.52022945963E+02  0.52022945963E+02  0.00000000000E+00 0.  1.
         21   -1    0    0  501  502 -0.00000000000E+00 -0.00000000000E+00 -0.22306624153E+02  0.22306624153E+02  0.00000000000E+00 0.  1.
         21    1    1    2  503  502  0.34085342985E+01  0.33662501286E+02  0.19177427165E+02  0.38891590500E+02  0.00000000000E+00 0.  1.
         21    1    1    2  504  503 -0.34085342985E+01 -0.33662501286E+02  0.10538894645E+02  0.35437979616E+02  0.00000000000E+00 0.  1.
<mgrwt>
<rscale>  2 0.33834629E+02</rscale>
<asrwt>0</asrwt>
<pdfrwt beam="1">  1       21 0.80035301E-02 0.33834629E+02</pdfrwt>
<pdfrwt beam="2">  1       21 0.34317883E-02 0.33834629E+02</pdfrwt>
<totfact> 0.47553758E+07</totfact>
</mgrwt>
</event>
<event>
 4    1  0.4438654E+006  0.2599599E+02  0.7546771E-02  0.1647095E+00
         21   -1    0    0  503  501  0.00000000000E+00  0.00000000000E+00  0.12596024283E+02  0.12596024283E+02  0.00000000000E+00 0.  1.
         21   -1    0    0  504  502 -0.00000000000E+00 -0.00000000000E+00 -0.66288877500E+02  0.66288877500E+02  0.00000000000E+00 0.  1.
         21    1    1    2  503  502  0.25103533798E+02  0.67530901785E+01 -0.44068183065E+02  0.51164405545E+02  0.00000000000E+00 0.  1.
         21    1    1    2  504  501 -0.25103533798E+02 -0.67530901785E+01 -0.96246701511E+01  0.27720496237E+02  0.00000000000E+00 0.  1.
<mgrwt>
<rscale>  2 0.25995993E+02</rscale>
<asrwt>0</asrwt>
<pdfrwt beam="1">  1       21 0.19378499E-02 0.25995993E+02</pdfrwt>
<pdfrwt beam="2">  1       21 0.10198289E-01 0.25995993E+02</pdfrwt>
<totfact> 0.73136431E+07</totfact>
</mgrwt>
</event>
<event>
 4    1  0.4438654E+006  0.5970982E+02  0.7546771E-02  0.1399054E+00
         21   -1    0    0  503  501  0.00000000000E+00  0.00000000000E+00  0.60513807238E+01  0.60513807238E+01  0.00000000000E+00 0. -1.
         21   -1    0    0  501  502 -0.00000000000E+00 -0.00000000000E+00 -0.93104517308E+03  0.93104517308E+03  0.00000000000E+00 0. -1.
         21    1    1    2  503  504  0.59276039207E+02 -0.71843057338E+01 -0.17857049046E+03  0.18828882903E+03  0.00000000000E+00 0. -1.
         21    1    1    2  504  502 -0.59276039207E+02  0.71843057338E+01 -0.74642330189E+03  0.74880772477E+03  0.00000000000E+00 0. -1.
<mgrwt>
<rscale>  2 0.59709824E+02</rscale>
<asrwt>0</asrwt>
<pdfrwt beam="1">  1       21 0.93098252E-03 0.59709824E+02</pdfrwt>
<pdfrwt beam="2">  1       21 0.14323759E+00 0.59709824E+02</pdfrwt>
<totfact> 0.14218824E+06</totfact>
</mgrwt>
</event>
<event>
 4    1  0.4438654E+006  0.2260721E+02  0.7546771E-02  0.1697957E+00
         21   -1    0    0  504  501  0.00000000000E+00  0.00000000000E+00  0.41890468350E+03  0.41890468350E+03  0.00000000000E+00 0. -1.
         21   -1    0    0  503  502 -0.00000000000E+00 -0.00000000000E+00 -0.18043462267E+01  0.18043462267E+01  0.00000000000E+00 0. -1.
         21    1    1    2  503  501  0.86675296822E+01 -0.20879648817E+02  0.32825382707E+03  0.32903139788E+03  0.00000000000E+00 0. -1.
         21    1    1    2  504  502 -0.86675296822E+01  0.20879648817E+02  0.88846510201E+02  0.91677631843E+02  0.00000000000E+00 0. -1.
<mgrwt>
<rscale>  2 0.22607207E+02</rscale>
<asrwt>0</asrwt>
<pdfrwt beam="1">  1       21 0.64446797E-01 0.22607207E+02</pdfrwt>
<pdfrwt beam="2">  1       21 0.27759206E-03 0.22607207E+02</pdfrwt>
<totfact> 0.45868250E+07</totfact>
</mgrwt>
</event>
<event>
 4    1  0.4438654E+006  0.2106781E+02  0.7546771E-02  0.1724891E+00
         21   -1    0    0  502  501  0.00000000000E+00  0.00000000000E+00  0.20942190106E+02  0.20942190106E+02  0.00000000000E+00 0. -1.
         21   -1    0    0  504  502 -0.00000000000E+00 -0.00000000000E+00 -0.15698138647E+03  0.15698138647E+03  0.00000000000E+00 0. -1.
         21    1    1    2  503  501 -0.73379193796E+00  0.21055027743E+02  0.14719130525E+02  0.25700300529E+02  0.00000000000E+00 0. -1.
         21    1    1    2  504  503  0.73379193796E+00 -0.21055027743E+02 -0.15075832689E+03  0.15222327605E+03  0.00000000000E+00 0. -1.
<mgrwt>
<rscale>  2 0.21067811E+02</rscale>
<asrwt>0</asrwt>
<pdfrwt beam="1">  1       21 0.32218754E-02 0.21067811E+02</pdfrwt>
<pdfrwt beam="2">  1       21 0.24150983E-01 0.21067811E+02</pdfrwt>
<totfact> 0.72641794E+06</totfact>
</mgrwt>
</event>
<event>
 4    1  0.4438654E+006  0.5672088E+02  0.7546771E-02  0.1412132E+00
         21   -1    0    0  503  501  0.00000000000E+00  0.00000000000E+00  0.22407390017E+03  0.22407390017E+03  0.00000000000E+00 0. -1.
         21   -1    0    0  504  502 -0.00000000000E+00 -0.00000000000E+00 -0.20306439392E+02  0.20306439392E+02  0.00000000000E+00 0. -1.
         21    1    1    2  503  502  0.53164437290E+02 -0.19768684167E+02  0.16801700854E+03  0.17733294512E+03  0.00000000000E+00 0. -1.
         21    1    1    2  504  501 -0.53164437290E+02  0.19768684167E+02  0.35750452234E+02  0.67047394439E+02  0.00000000000E+00 0. -1.
<mgrwt>
<rscale>  2 0.56720880E+02</rscale>
<asrwt>0</asrwt>
<pdfrwt beam="1">  1       21 0.34472906E-01 0.56720880E+02</pdfrwt>
<pdfrwt beam="2">  1       21 0.31240678E-02 0.56720880E+02</pdfrwt>
<totfact> 0.44986587E+06</totfact>
</mgrwt>
</event>
<event>
 4    1  0.4438654E+006  0.3316588E+02  0.7546771E-02  0.1565518E+00
         21   -1    0    0  503  501  0.00000000000E+00  0.00000000000E+00  0.33376837634E+03  0.33376837634E+03  0.00000000000E+00 0. -1.
         21   -1    0    0  504  502 -0.00000000000E+00 -0.00000000000E+00 -0.58441979876E+01  0.58441979876E+01  0.00000000000E+00 0.  1.
         21    1    1    2  503  502 -0.33011714191E+02 -0.31941365164E+01  0.27609671745E+03  0.27808159444E+03  0.00000000000E+00 0. -1.
         21    1    1    2  504  501  0.33011714191E+02  0.31941365164E+01  0.51827460905E+02  0.61530979887E+02  0.00000000000E+00 0.  1.
<mgrwt>
<rscale>  2 0.33165883E+02</rscale>
<asrwt>0</asrwt>
<pdfrwt beam="1">  1       21 0.51348966E-01 0.33165883E+02</pdfrwt>
<pdfrwt beam="2">  1       21 0.89910764E-03 0.33165883E+02</pdfrwt>
<totfact> 0.13580636E+07</totfact>
</mgrwt>
</event>
<event>
 4    1  0.4438654E+006  0.6720338E+02  0.7546771E-02  0.1369870E+00
         21   -1    0    0  504  501  0.00000000000E+00  0.00000000000E+00  0.36710716191E+02  0.36710716191E+02  0.00000000000E+00 0.  1.
         21   -1    0    0  503  502 -0.00000000000E+00 -0.00000000000E+00 -0.18999732662E+03  0.18999732662E+03  0.00000000000E+00 0.  1.
         21    1    1    2  503  501 -0.58661935714E+02 -0.32788274617E+02 -0.93433759457E+01  0.67849777657E+02  0.00000000000E+00 0.  1.
         21    1    1    2  504  502  0.58661935714E+02  0.32788274617E+02 -0.14394323449E+03  0.15885826516E+03  0.00000000000E+00 0.  1.
<mgrwt>
<rscale>  2 0.67203375E+02</rscale>
<asrwt>0</asrwt>
<pdfrwt beam="1">  1       21 0.56478025E-02 0.67203375E+02</pdfrwt>
<pdfrwt beam="2">  1       21 0.29230358E-01 0.67203375E+02</pdfrwt>
<totfact> 0.23670805E+06</totfact>
</mgrwt>
</event>
<event>
 4    1  0.4438654E+006  0.3571950E+02  0.7546771E-02  0.1542303E+00
         21   -1    0    0  504  501  0.00000000000E+00  0.00000000000E+00  0.58391851314E+02  0.58391851314E+02  0.00000000000E+00 0.  1.
         21   -1    0    0  503  502 -0.00000000000E+00 -0.00000000000E+00 -0.10384370975E+03  0.10384370975E+03  0.00000000000E+00 0. -1.
         21    1    1    2  503  501  0.22112141781E+02  0.28052374554E+02  0.49354156883E+02  0.60923848646E+02  0.00000000000E+00 0.  1.
         21    1    1    2  504  502 -0.22112141781E+02 -0.28052374554E+02 -0.94806015315E+02  0.10131171241E+03  0.00000000000E+00 0. -1.
<mgrwt>
<rscale>  2 0.35719498E+02</rscale>
<asrwt>0</asrwt>
<pdfrwt beam="1">  1       21 0.89833618E-02 0.35719498E+02</pdfrwt>
<pdfrwt beam="2">  1       21 0.15975955E-01 0.35719498E+02</pdfrwt>
<totfact> 0.31048724E+06</totfact>
</mgrwt>
</event>
<event>
 4    1  0.4438654E+006  0.2006099E+02  0.7546771E-02  0.1744118E+00
         21   -1    0    0  502  501  0.00000000000E+00  0.00000000000E+00  0.48515269371E+01  0.48515269371E+01  0.00000000000E+00 0.  1.
         21   -1    0    0  504  502 -0.00000000000E+00 -0.00000000000E+00 -0.10304921574E+03  0.10304921574E+03  0.00000000000E+00 0.  1.
         21    1    1    2  503  501  0.92744534031E+01 -0.17788423000E+02 -0.25273406326E+02  0.32267453356E+02  0.00000000000E+00 0.  1.
         21    1    1    2  504  503 -0.92744534031E+01  0.17788423000E+02 -0.72924282474E+02  0.75633289319E+02  0.00000000000E+00 0.  1.
<mgrwt>
<rscale>  2 0.20060994E+02</rscale>
<asrwt>0</asrwt>
<pdfrwt beam="1">  1       21 0.74638880E-03 0.20060994E+02</pdfrwt>
<pdfrwt beam="2">  1       21 0.15853725E-01 0.20060994E+02</pdfrwt>
<totfact> 0.13682562E+08</totfact>
</mgrwt>
</event>
<event>
 4    1  0.4438654E+006  0.2357880E+02  0.7546771E-02  0.1682296E+00
         21   -1    0    0  504  501  0.00000000000E+00  0.00000000000E+00  0.11652855385E+03  0.11652855385E+03  0.00000000000E+00 0.  1.
         21   -1    0    0  501  502 -0.00000000000E+00 -0.00000000000E+00 -0.11185640696E+02  0.11185640696E+02  0.00000000000E+00 0.  1.
         21    1    1    2  503  502  0.23443128347E+02 -0.25257670014E+01  0.43139035133E+01  0.23970179998E+02  0.00000000000E+00 0.  1.
         21    1    1    2  504  503 -0.23443128347E+02  0.25257670014E+01  0.10102900964E+03  0.10374401455E+03  0.00000000000E+00 0.  1.
<mgrwt>
<rscale>  2 0.23578799E+02</rscale>
<asrwt>0</asrwt>
<pdfrwt beam="1">  1       21 0.17927469E-01 0.23578799E+02</pdfrwt>
<pdfrwt beam="2">  1       21 0.17208679E-02 0.23578799E+02</pdfrwt>
<totfact> 0.32936942E+07</totfact>
</mgrwt>
</event>
<event>
 4    1  0.4438654E+006  0.2042729E+02  0.7546771E-02  0.1736962E+00
         21   -1    0    0  504  501  0.00000000000E+00  0.00000000000E+00  0.16440650726E+02  0.16440650726E+02  0.00000000000E+00 0.  1.
         21   -1    0    0  503  502 -0.00000000000E+00 -0.00000000000E+00 -0.76194844513E+02  0.76194844513E+02  0.00000000000E+00 0. -1.
         21    1    1    2  503  501  0.12345479396E+02  0.16274617614E+02  0.79477566649E+01  0.21918961563E+02  0.00000000000E+00 0.  1.
         21    1    1    2  504  502 -0.12345479396E+02 -0.16274617614E+02 -0.67701950452E+02  0.70716533675E+02  0.00000000000E+00 0. -1.
<mgrwt>
<rscale>  2 0.20427287E+02</rscale>
<asrwt>0</asrwt>
<pdfrwt beam="1">  1       21 0.25293308E-02 0.20427287E+02</pdfrwt>
<pdfrwt beam="2">  1       21 0.11722284E-01 0.20427287E+02</pdfrwt>
<totfact> 0.36195934E+07</totfact>
</mgrwt>
</event>
<event>
 4    1  0.4438654E+006  0.6631958E+02  0.7546771E-02  0.1373075E+00
         21   -1    0    0  503  501  0.00000000000E+00  0.00000000000E+00  0.11482779461E+03  0.11482779461E+03  0.00000000000E+00 0.  1.
         21   -1    0    0  504  502 -0.00000000000E+00 -0.00000000000E+00 -0.13635236211E+03  0.13635236211E+03  0.00000000000E+00 0.  1.
         21    1    1    2  503  502  0.65920320337E+02  0.72662337090E+01 -0.11726131476E+03  0.13471637883E+03  0.00000000000E+00 0.  1.
         21    1    1    2  504  501 -0.65920320337E+02 -0.72662337090E+01  0.95736747258E+02  0.11646377789E+03  0.00000000000E+00 0.  1.
<mgrwt>
<rscale>  2 0.66319581E+02</rscale>
<asrwt>0</asrwt>
<pdfrwt beam="1">  1       21 0.17665815E-01 0.66319581E+02</pdfrwt>
<pdfrwt beam="2">  1       21 0.20977286E-01 0.66319581E+02</pdfrwt>
<totfact> 0.61496225E+05</totfact>
</mgrwt>
</event>
<event>
 4    1  0.4438654E+006  0.2311153E+02  0.7546771E-02  0.1689709E+00
         21   -1    0    0  502  501  0.00000000000E+00  0.00000000000E+00  0.25211315780E+03  0.25211315780E+03  0.00000000000E+00 0. -1.
         21   -1    0    0  504  502 -0.00000000000E+00 -0.00000000000E+00 -0.39035066940E+02  0.39035066940E+02  0.00000000000E+00 0. -1.
         21    1    1    2  503  501  0.13337360050E+02  0.18874786096E+02  0.24810746489E+03  0.24918157408E+03  0.00000000000E+00 0. -1.
         21    1    1    2  504  503 -0.13337360050E+02 -0.18874786096E+02 -0.35029374030E+02  0.41966650667E+02  0.00000000000E+00 0. -1.
<mgrwt>
<rscale>  2 0.23111528E+02</rscale>
<asrwt>0</asrwt>
<pdfrwt beam="1">  1       21 0.38786639E-01 0.23111528E+02</pdfrwt>
<pdfrwt beam="2">  1       21 0.60053951E-02 0.23111528E+02</pdfrwt>
<totfact> 0.11610789E+06</totfact>
</mgrwt>
</event>
<event>
 4    1  0.4438654E+006  0.2222216E+02  0.7546771E-02  0.1704438E+00
         21   -1    0    0  503  501  0.00000000000E+00  0.00000000000E+00  0.13482251667E+02  0.13482251667E+02  0.00000000000E+00 0.  1.
         21   -1    0    0  504  502 -0.00000000000E+00 -0.00000000000E+00 -0.36914193329E+02  0.36914193329E+02  0.00000000000E+00 0.  1.
         21    1    1    2  503  502 -0.22219841763E+02 -0.32082844459E+00 -0.13935732391E+02  0.26230305681E+02  0.00000000000E+00 0.  1.
         21    1    1    2  504  501  0.22219841763E+02  0.32082844459E+00 -0.94962092704E+01  0.24166139315E+02  0.00000000000E+00 0.  1.
<mgrwt>
<rscale>  2 0.22222158E+02</rscale>
<asrwt>0</asrwt>
<pdfrwt beam="1">  1       21 0.20741926E-02 0.22222158E+02</pdfrwt>
<pdfrwt beam="2">  1       21 0.56791064E-02 0.22222158E+02</pdfrwt>
<totfact> 0.16375419E+08</totfact>
</mgrwt>
</event>
<event>
 4    1  0.4438654E+006  0.2669771E+02  0.7546771E-02  0.1637750E+00
         21   -1    0    0  503  501  0.00000000000E+00  0.00000000000E+00  0.82238812228E+02  0.82238812228E+02  0.00000000000E+00 0. -1.
         21   -1    0    0  501  502 -0.00000000000E+00 -0.00000000000E+00 -0.51908583219E+02  0.51908583219E+02  0.00000000000E+00 0.  1.
         21    1    1    2  503  504  0.24066020899E+02  0.11558294638E+02  0.76383690857E+02  0.80914990983E+02  0.00000000000E+00 0. -1.
         21    1    1    2  504  502 -0.24066020899E+02 -0.11558294638E+02 -0.46053461848E+02  0.53232404464E+02  0.00000000000E+00 0.  1.
<mgrwt>
<rscale>  2 0.26697707E+02</rscale>
<asrwt>0</asrwt>
<pdfrwt beam="1">  1       21 0.12652125E-01 0.26697707E+02</pdfrwt>
<pdfrwt beam="2">  1       21 0.79859359E-02 0.26697707E+02</pdfrwt>
<totfact> 0.54244022E+06</totfact>
</mgrwt>
</event>
<event>
 4    1  0.4438654E+006  0.2728942E+02  0.7546771E-02  0.1630141E+00
         21   -1    0    0  504  501  0.00000000000E+00  0.00000000000E+00  0.56280693497E+02  0.56280693497E+02  0.00000000000E+00 0.  1.
         21   -1    0    0  503  502 -0.00000000000E+00 -0.00000000000E+00 -0.13238391428E+02  0.13238391428E+02  0.00000000000E+00 0.  1.
         21    1    1    2  503  501  0.16931519510E+02  0.21401776221E+02  0.22278252823E+02  0.35228297250E+02  0.00000000000E+00 0.  1.
         21    1    1    2  504  502 -0.16931519510E+02 -0.21401776221E+02  0.20764049246E+02  0.34290787676E+02  0.00000000000E+00 0.  1.
<mgrwt>
<rscale>  2 0.27289419E+02</rscale>
<asrwt>0</asrwt>
<pdfrwt beam="1">  1       21 0.86585681E-02 0.27289419E+02</pdfrwt>
<pdfrwt beam="2">  1       21 0.20366756E-02 0.27289419E+02</pdfrwt>
<totfact> 0.89944856E+07</totfact>
</mgrwt>
</event>
<event>
 4    1  0.4438654E+006  0.2119002E+02  0.7546771E-02  0.1722649E+00
         21   -1    0    0  504  501  0.00000000000E+00  0.00000000000E+00  0.92622513645E+03  0.92622513645E+03  0.00000000000E+00 0.  1.
         21   -1    0    0  503  502 -0.00000000000E+00 -0.00000000000E+00 -0.88179166499E+00  0.88179166499E+00  0.00000000000E+00 0. -1.
         21    1    1    2  503  501 -0.10398852920E+01 -0.21164492271E+02  0.15163078523E+03  0.15310425247E+03  0.00000000000E+00 0. -1.
         21    1    1    2  504  502  0.10398852920E+01  0.21164492271E+02  0.77371255955E+03  0.77400267564E+03  0.00000000000E+00 0.  1.
<mgrwt>
<rscale>  2 0.21190023E+02</rscale>
<asrwt>0</asrwt>
<pdfrwt beam="1">  1       21 0.14249540E+00 0.21190023E+02</pdfrwt>
<pdfrwt beam="2">  1       21 0.13566100E-03 0.21190023E+02</pdfrwt>
<totfact> 0.22725584E+07</totfact>
</mgrwt>
</event>
<event>
 4    1  0.4438654E+006  0.2328646E+02  0.7546771E-02  0.1686908E+00
         21   -1    0    0  504  501  0.00000000000E+00  0.00000000000E+00  0.10813295272E+03  0.10813295272E+03  0.00000000000E+00 0.  1.
         21   -1    0    0  503  502 -0.00000000000E+00 -0.00000000000E+00 -0.50302892291E+01  0.50302892291E+01  0.00000000000E+00 0.  1.
         21    1    1    2  503  501  0.19267856266E+02  0.13077037499E+02  0.54696631916E+02  0.59447293780E+02  0.00000000000E+00 0.  1.
         21    1    1    2  504  502 -0.19267856266E+02 -0.13077037499E+02  0.48406031572E+02  0.53715948166E+02  0.00000000000E+00 0.  1.
<mgrwt>
<rscale>  2 0.23286459E+02</rscale>
<asrwt>0</asrwt>
<pdfrwt beam="1">  1       21 0.16635837E-01 0.23286459E+02</pdfrwt>
<pdfrwt beam="2">  1       21 0.77389073E-03 0.23286459E+02</pdfrwt>
<totfact> 0.12476863E+08</totfact>
</mgrwt>
</event>
<event>
 4    1  0.4438654E+006  0.2118780E+02  0.7546771E-02  0.1722689E+00
         21   -1    0    0  503  501  0.00000000000E+00  0.00000000000E+00  0.28455982602E+03  0.28455982602E+03  0.00000000000E+00 0.  1.
         21   -1    0    0  504  502 -0.00000000000E+00 -0.00000000000E+00 -0.51856915892E+01  0.51856915892E+01  0.00000000000E+00 0.  1.
         21    1    1    2  503  502 -0.16754692537E+02  0.12969321751E+02  0.18843966889E+02  0.28355213221E+02  0.00000000000E+00 0.  1.
         21    1    1    2  504  501  0.16754692537E+02 -0.12969321751E+02  0.26053016754E+03  0.26139030439E+03  0.00000000000E+00 0.  1.
<mgrwt>
<rscale>  2 0.21187804E+02</rscale>
<asrwt>0</asrwt>
<pdfrwt beam="1">  1       21 0.43778423E-01 0.21187804E+02</pdfrwt>
<pdfrwt beam="2">  1       21 0.79779893E-03 0.21187804E+02</pdfrwt>
<totfact> 0.20414220E+07</totfact>
</mgrwt>
</event>
<event>
 4    1  0.4438654E+006  0.2487941E+02  0.7546771E-02  0.1662740E+00
         21   -1    0    0  503  501  0.00000000000E+00  0.00000000000E+00  0.15668537834E+02  0.15668537834E+02  0.00000000000E+00 0.  1.
         21   -1    0    0  501  502 -0.00000000000E+00 -0.00000000000E+00 -0.40058083204E+02  0.40058083204E+02  0.00000000000E+00 0.  1.
         21    1    1    2  503  504  0.24187250558E+02 -0.58277019478E+01 -0.89206678612E+01  0.26430352147E+02  0.00000000000E+00 0.  1.
         21    1    1    2  504  502 -0.24187250558E+02  0.58277019478E+01 -0.15468877509E+02  0.29296268891E+02  0.00000000000E+00 0.  1.
<mgrwt>
<rscale>  2 0.24879413E+02</rscale>
<asrwt>0</asrwt>
<pdfrwt beam="1">  1       21 0.24105443E-02 0.24879413E+02</pdfrwt>
<pdfrwt beam="2">  1       21 0.61627820E-02 0.24879413E+02</pdfrwt>
<totfact> 0.11778579E+08</totfact>
</mgrwt>
</event>
<event>
 4    1  0.4438654E+006  0.9733017E+02  0.7546771E-02  0.1286013E+00
         21   -1    0    0  503  501  0.00000000000E+00  0.00000000000E+00  0.70224837542E+03  0.70224837542E+03  0.00000000000E+00 0.  1.
         21   -1    0    0  504  502 -0.00000000000E+00 -0.00000000000E+00 -0.13741983508E+02  0.13741983508E+02  0.00000000000E+00 0.  1.
         21    1    1    2  503  502  0.78139212959E+02 -0.58029518431E+02  0.39275364723E+03  0.40463389505E+03  0.00000000000E+00 0.  1.
         21    1    1    2  504  501 -0.78139212959E+02  0.58029518431E+02  0.29575274468E+03  0.31135646388E+03  0.00000000000E+00 0.  1.
<mgrwt>
<rscale>  2 0.97330168E+02</rscale>
<asrwt>0</asrwt>
<pdfrwt beam="1">  1       21 0.10803818E+00 0.97330168E+02</pdfrwt>
<pdfrwt beam="2">  1       21 0.21141519E-02 0.97330168E+02</pdfrwt>
<totfact> 0.77522796E+05</totfact>
</mgrwt>
</event>
<event>
 4    1  0.4438654E+006  0.2478895E+02  0.7546771E-02  0.1664052E+00
         21   -1    0    0  503  501  0.00000000000E+00  0.00000000000E+00  0.50838349653E+02  0.50838349653E+02  0.00000000000E+00 0. -1.
         21   -1    0    0  504  502 -0.00000000000E+00 -0.00000000000E+00 -0.16627017337E+02  0.16627017337E+02  0.00000000000E+00 0. -1.
         21    1    1    2  503  502 -0.19590163641E+02  0.15189393497E+02 -0.52074733622E+00  0.24794422035E+02  0.00000000000E+00 0. -1.
         21    1    1    2  504  501  0.19590163641E+02 -0.15189393497E+02  0.34732079652E+02  0.42670944954E+02  0.00000000000E+00 0. -1.
<mgrwt>
<rscale>  2 0.24788953E+02</rscale>
<asrwt>0</asrwt>
<pdfrwt beam="1">  1       21 0.78212845E-02 0.24788953E+02</pdfrwt>
<pdfrwt beam="2">  1       21 0.25580027E-02 0.24788953E+02</pdfrwt>
<totfact> 0.72881200E+07</totfact>
</mgrwt>
</event>
<event>
 4    1  0.4438654E+006  0.4105890E+02  0.7546771E-02  0.1500561E+00
         21   -1    0    0  502  501  0.00000000000E+00  0.00000000000E+00  0.56907214697E+03  0.56907214697E+03  0.00000000000E+00 0.  1.
         21   -1    0    0  504  502 -0.00000000000E+00 -0.00000000000E+00 -0.74171770840E+02  0.74171770840E+02  0.00000000000E+00 0.  1.
         21    1    1    2  503  501  0.11399139593E+02  0.39444805377E+02  0.56258390334E+03  0.56408020826E+03  0.00000000000E+00 0.  1.
         21    1    1    2  504  503 -0.11399139593E+02 -0.39444805377E+02 -0.67683527208E+02  0.79163709551E+02  0.00000000000E+00 0.  1.
<mgrwt>
<rscale>  2 0.41058897E+02</rscale>
<asrwt>0</asrwt>
<pdfrwt beam="1">  1       21 0.87549558E-01 0.41058897E+02</pdfrwt>
<pdfrwt beam="2">  1       21 0.11411042E-01 0.41058897E+02</pdfrwt>
<totfact> 0.78742367E+04</totfact>
</mgrwt>
</event>
<event>
 4    1  0.4438654E+006  0.2248707E+02  0.7546771E-02  0.1699962E+00
         21   -1    0    0  504  501  0.00000000000E+00  0.00000000000E+00  0.32813555309E+02  0.32813555309E+02  0.00000000000E+00 0. -1.
         21   -1    0    0  503  502 -0.00000000000E+00 -0.00000000000E+00 -0.19927602915E+02  0.19927602915E+02  0.00000000000E+00 0. -1.
         21    1    1    2  503  501 -0.22306727289E+02 -0.28422244554E+01 -0.61123908443E+01  0.23302996460E+02  0.00000000000E+00 0. -1.
         21    1    1    2  504  502  0.22306727289E+02  0.28422244554E+01  0.18998343238E+02  0.29438161763E+02  0.00000000000E+00 0. -1.
<mgrwt>
<rscale>  2 0.22487070E+02</rscale>
<asrwt>0</asrwt>
<pdfrwt beam="1">  1       21 0.50482393E-02 0.22487070E+02</pdfrwt>
<pdfrwt beam="2">  1       21 0.30657851E-02 0.22487070E+02</pdfrwt>
<totfact> 0.10841091E+08</totfact>
</mgrwt>
</event>
<event>
 4    1  0.4438654E+006  0.3282878E+02  0.7546771E-02  0.1568772E+00
         21   -1    0    0  503  501  0.00000000000E+00  0.00000000000E+00  0.69699508419E+01  0.69699508419E+01  0.00000000000E+00 0. -1.
         21   -1    0    0  504  502 -0.00000000000E+00 -0.00000000000E+00 -0.15578407095E+03  0.15578407095E+03  0.00000000000E+00 0. -1.
         21    1    1    2  503  502 -0.32071183702E+02  0.70120015791E+01 -0.67387885450E+02  0.74959029447E+02  0.00000000000E+00 0. -1.
         21    1    1    2  504  501  0.32071183702E+02 -0.70120015791E+01 -0.81426234654E+02  0.87794992340E+02  0.00000000000E+00 0. -1.
<mgrwt>
<rscale>  2 0.32828783E+02</rscale>
<asrwt>0</asrwt>
<pdfrwt beam="1">  1       21 0.10723002E-02 0.32828783E+02</pdfrwt>
<pdfrwt beam="2">  1       21 0.23966778E-01 0.32828783E+02</pdfrwt>
<totfact> 0.43589890E+07</totfact>
</mgrwt>
</event>
<event>
 4    1  0.4438654E+006  0.2220483E+02  0.7546771E-02  0.1704733E+00
         21   -1    0    0  503  501  0.00000000000E+00  0.00000000000E+00  0.42035611052E+03  0.42035611052E+03  0.00000000000E+00 0. -1.
         21   -1    0    0  504  502 -0.00000000000E+00 -0.00000000000E+00 -0.11142305343E+03  0.11142305343E+03  0.00000000000E+00 0. -1.
         21    1    1    2  503  502  0.13150088255E+02 -0.17892167168E+02  0.41895290498E+03  0.41954092895E+03  0.00000000000E+00 0. -1.
         21    1    1    2  504  501 -0.13150088255E+02  0.17892167168E+02 -0.11001984789E+03  0.11223823501E+03  0.00000000000E+00 0. -1.
<mgrwt>
<rscale>  2 0.22204830E+02</rscale>
<asrwt>0</asrwt>
<pdfrwt beam="1">  1       21 0.64670170E-01 0.22204830E+02</pdfrwt>
<pdfrwt beam="2">  1       21 0.17142008E-01 0.22204830E+02</pdfrwt>
<totfact> 0.75397692E+04</totfact>
</mgrwt>
</event>
<event>
 4    1  0.4438654E+006  0.2792393E+02  0.7546771E-02  0.1622240E+00
         21   -1    0    0  504  501  0.00000000000E+00  0.00000000000E+00  0.14733860591E+04  0.14733860591E+04  0.00000000000E+00 0. -1.
         21   -1    0    0  503  502 -0.00000000000E+00 -0.00000000000E+00 -0.11735961600E+03  0.11735961600E+03  0.00000000000E+00 0.  1.
         21    1    1    2  503  501 -0.12749127216E+02  0.24843618373E+02 -0.11556426694E+03  0.11889005599E+03  0.00000000000E+00 0.  1.
         21    1    1    2  504  502  0.12749127216E+02 -0.24843618373E+02  0.14715907100E+04  0.14718556191E+04  0.00000000000E+00 0. -1.
<mgrwt>
<rscale>  2 0.27923926E+02</rscale>
<asrwt>0</asrwt>
<pdfrwt beam="1">  1       21 0.22667476E+00 0.27923926E+02</pdfrwt>
<pdfrwt beam="2">  1       21 0.18055327E-01 0.27923926E+02</pdfrwt>
<totfact> 0.37332083E+03</totfact>
</mgrwt>
</event>
<event>
 4    1  0.4438654E+006  0.3876053E+02  0.7546771E-02  0.1517536E+00
         21   -1    0    0  504  501  0.00000000000E+00  0.00000000000E+00  0.60637615436E+02  0.60637615436E+02  0.00000000000E+00 0.  1.
         21   -1    0    0  503  502 -0.00000000000E+00 -0.00000000000E+00 -0.24908366740E+02  0.24908366740E+02  0.00000000000E+00 0.  1.
         21    1    1    2  503  501  0.26070313888E+02  0.28683051691E+02  0.14750663144E+02  0.41472409910E+02  0.00000000000E+00 0.  1.
         21    1    1    2  504  502 -0.26070313888E+02 -0.28683051691E+02  0.20978585551E+02  0.44073572266E+02  0.00000000000E+00 0.  1.
<mgrwt>
<rscale>  2 0.38760530E+02</rscale>
<asrwt>0</asrwt>
<pdfrwt beam="1">  1       21 0.93288639E-02 0.38760530E+02</pdfrwt>
<pdfrwt beam="2">  1       21 0.38320564E-02 0.38760530E+02</pdfrwt>
<totfact> 0.31702710E+07</totfact>
</mgrwt>
</event>
<event>
 4    1  0.4438654E+006  0.2680669E+02  0.7546771E-02  0.1636330E+00
         21   -1    0    0  504  501  0.00000000000E+00  0.00000000000E+00  0.23516409910E+02  0.23516409910E+02  0.00000000000E+00 0.  1.
         21   -1    0    0  501  502 -0.00000000000E+00 -0.00000000000E+00 -0.22398150168E+03  0.22398150168E+03  0.00000000000E+00 0.  1.
         21    1    1    2  503  502  0.85403613327E+01 -0.25409855909E+02 -0.21523069407E+03  0.21689363803E+03  0.00000000000E+00 0.  1.
         21    1    1    2  504  503 -0.85403613327E+01  0.25409855909E+02  0.14765602297E+02  0.30604273561E+02  0.00000000000E+00 0.  1.
<mgrwt>
<rscale>  2 0.26806689E+02</rscale>
<asrwt>0</asrwt>
<pdfrwt beam="1">  1       21 0.36179092E-02 0.26806689E+02</pdfrwt>
<pdfrwt beam="2">  1       21 0.34458692E-01 0.26806689E+02</pdfrwt>
<totfact> 0.32999058E+06</totfact>
</mgrwt>
</event>
<event>
 4    1  0.4438654E+006  0.2552902E+02  0.7546771E-02  0.1653518E+00
         21   -1    0    0  504  501  0.00000000000E+00  0.00000000000E+00  0.11241675174E+03  0.11241675174E+03  0.00000000000E+00 0. -1.
         21   -1    0    0  503  502 -0.00000000000E+00 -0.00000000000E+00 -0.71438376261E+01  0.71438376261E+01  0.00000000000E+00 0.  1.
         21    1    1    2  503  501  0.60858551516E+01  0.24793006744E+02  0.26684096735E+02  0.36929281538E+02  0.00000000000E+00 0.  1.
         21    1    1    2  504  502 -0.60858551516E+01 -0.24793006744E+02  0.78588817374E+02  0.82631307824E+02  0.00000000000E+00 0. -1.
<mgrwt>
<rscale>  2 0.25529019E+02</rscale>
<asrwt>0</asrwt>
<pdfrwt beam="1">  1       21 0.17294884E-01 0.25529019E+02</pdfrwt>
<pdfrwt beam="2">  1       21 0.10990520E-02 0.25529019E+02</pdfrwt>
<totfact> 0.70610007E+07</totfact>
</mgrwt>
</event>
<event>
 4    1  0.4438654E+006  0.4328968E+02  0.7546771E-02  0.1485310E+00
         21   -1    0    0  502  501  0.00000000000E+00  0.00000000000E+00  0.23651580041E+02  0.23651580041E+02  0.00000000000E+00 0. -1.
         21   -1    0    0  503  502 -0.00000000000E+00 -0.00000000000E+00 -0.20631976679E+03  0.20631976679E+03  0.00000000000E+00 0.  1.
         21    1    1    2  503  504 -0.42521454929E+02  0.81192323345E+01 -0.18157900552E+03  0.18666797076E+03  0.00000000000E+00 0.  1.
         21    1    1    2  504  501  0.42521454929E+02 -0.81192323345E+01 -0.10891812255E+01  0.43303376066E+02  0.00000000000E+00 0. -1.
<mgrwt>
<rscale>  2 0.43289676E+02</rscale>
<asrwt>0</asrwt>
<pdfrwt beam="1">  1       21 0.36387046E-02 0.43289676E+02</pdfrwt>
<pdfrwt beam="2">  1       21 0.31741503E-01 0.43289676E+02</pdfrwt>
<totfact> 0.40207935E+06</totfact>
</mgrwt>
</event>
<event>
 4    1  0.4438654E+006  0.2056878E+02  0.7546771E-02  0.1734248E+00
         21   -1    0    0  503  501  0.00000000000E+00  0.00000000000E+00  0.10275808625E+04  0.10275808625E+04  0.00000000000E+00 0. -1.
         21   -1    0    0  501  502 -0.00000000000E+00 -0.00000000000E+00 -0.99141247641E+02  0.99141247641E+02  0.00000000000E+00 0. -1.
         21    1    1    2  503  504  0.17117938006E+02  0.11403986825E+02  0.10264098673E+04  0.10266159410E+04  0.00000000000E+00 0. -1.
         21    1    1    2  504  502 -0.17117938006E+02 -0.11403986825E+02 -0.97970252468E+02  0.10010616907E+03  0.00000000000E+00 0. -1.
<mgrwt>
<rscale>  2 0.20568780E+02</rscale>
<asrwt>0</asrwt>
<pdfrwt beam="1">  1       21 0.15808936E+00 0.20568780E+02</pdfrwt>
<pdfrwt beam="2">  1       21 0.15252500E-01 0.20568780E+02</pdfrwt>
<totfact> 0.13069176E+04</totfact>
</mgrwt>
</event>
<event>
 4    1  0.4438654E+006  0.4637461E+02  0.7546771E-02  0.1465938E+00
         21   -1    0    0  503  501  0.00000000000E+00  0.00000000000E+00  0.75794055423E+02  0.75794055423E+02  0.00000000000E+00 0. -1.
         21   -1    0    0  504  502 -0.00000000000E+00 -0.00000000000E+00 -0.29369879397E+02  0.29369879397E+02  0.00000000000E+00 0. -1.
         21    1    1    2  503  502  0.26115052340E+02  0.38322426024E+02  0.13531076397E+02  0.48308325613E+02  0.00000000000E+00 0. -1.
         21    1    1    2  504  501 -0.26115052340E+02 -0.38322426024E+02  0.32893099629E+02  0.56855609207E+02  0.00000000000E+00 0. -1.
<mgrwt>
<rscale>  2 0.46374608E+02</rscale>
<asrwt>0</asrwt>
<pdfrwt beam="1">  1       21 0.11660624E-01 0.46374608E+02</pdfrwt>
<pdfrwt beam="2">  1       21 0.45184430E-02 0.46374608E+02</pdfrwt>
<totfact> 0.17125306E+07</totfact>
</mgrwt>
</event>
<event>
 4    1  0.4438654E+006  0.2030012E+02  0.7546771E-02  0.1739425E+00
         21   -1    0    0  504  501  0.00000000000E+00  0.00000000000E+00  0.41319731143E+02  0.41319731143E+02  0.00000000000E+00 0.  1.
         21   -1    0    0  503  502 -0.00000000000E+00 -0.00000000000E+00 -0.20509828004E+03  0.20509828004E+03  0.00000000000E+00 0.  1.
         21    1    1    2  503  501 -0.11272481070E-01 -0.20300117512E+02  0.38286756614E+02  0.43335558495E+02  0.00000000000E+00 0.  1.
         21    1    1    2  504  502  0.11272481070E-01  0.20300117512E+02 -0.20206530551E+03  0.20308245269E+03  0.00000000000E+00 0.  1.
<mgrwt>
<rscale>  2 0.20300121E+02</rscale>
<asrwt>0</asrwt>
<pdfrwt beam="1">  1       21 0.63568817E-02 0.20300121E+02</pdfrwt>
<pdfrwt beam="2">  1       21 0.31553582E-01 0.20300121E+02</pdfrwt>
<totfact> 0.15298516E+06</totfact>
</mgrwt>
</event>
<event>
 4    1  0.4438654E+006  0.2520939E+02  0.7546771E-02  0.1658012E+00
         21   -1    0    0  502  501  0.00000000000E+00  0.00000000000E+00  0.14885597382E+03  0.14885597382E+03  0.00000000000E+00 0.  1.
         21   -1    0    0  504  502 -0.00000000000E+00 -0.00000000000E+00 -0.30863415522E+03  0.30863415522E+03  0.00000000000E+00 0. -1.
         21    1    1    2  503  501 -0.64783535800E+01 -0.24362763019E+02  0.14726835638E+03  0.14941044835E+03  0.00000000000E+00 0.  1.
         21    1    1    2  504  503  0.64783535800E+01  0.24362763019E+02 -0.30704653778E+03  0.30807968069E+03  0.00000000000E+00 0. -1.
<mgrwt>
<rscale>  2 0.25209389E+02</rscale>
<asrwt>0</asrwt>
<pdfrwt beam="1">  1       21 0.22900919E-01 0.25209389E+02</pdfrwt>
<pdfrwt beam="2">  1       21 0.47482178E-01 0.25209389E+02</pdfrwt>
<totfact> 0.83608185E+04</totfact>
</mgrwt>
</event>
<event>
 4    1  0.4438654E+006  0.2273725E+02  0.7546771E-02  0.1695805E+00
         21   -1    0    0  503  501  0.00000000000E+00  0.00000000000E+00  0.15288925281E+02  0.15288925281E+02  0.00000000000E+00 0. -1.
         21   -1    0    0  504  502 -0.00000000000E+00 -0.00000000000E+00 -0.35687430709E+02  0.35687430709E+02  0.00000000000E+00 0. -1.
         21    1    1    2  503  502  0.16005257875E+02  0.16149746051E+02 -0.43597172313E+01  0.23151451607E+02  0.00000000000E+00 0. -1.
         21    1    1    2  504  501 -0.16005257875E+02 -0.16149746051E+02 -0.16038788197E+02  0.27824904384E+02  0.00000000000E+00 0. -1.
<mgrwt>
<rscale>  2 0.22737251E+02</rscale>
<asrwt>0</asrwt>
<pdfrwt beam="1">  1       21 0.23521424E-02 0.22737251E+02</pdfrwt>
<pdfrwt beam="2">  1       21 0.54903739E-02 0.22737251E+02</pdfrwt>
<totfact> 0.14344585E+08</totfact>
</mgrwt>
</event>
<event>
 4    1  0.4438654E+006  0.2022227E+02  0.7546771E-02  0.1740944E+00
         21   -1    0    0  503  501  0.00000000000E+00  0.00000000000E+00  0.19612155548E+03  0.19612155548E+03  0.00000000000E+00 0.  1.
         21   -1    0    0  504  502 -0.00000000000E+00 -0.00000000000E+00 -0.13178327370E+02  0.13178327370E+02  0.00000000000E+00 0.  1.
         21    1    1    2  503  502 -0.15031011614E+02 -0.13528076011E+02  0.18748617332E+03  0.18857360721E+03  0.00000000000E+00 0.  1.
         21    1    1    2  504  501  0.15031011614E+02  0.13528076011E+02 -0.45429452091E+01  0.20726275639E+02  0.00000000000E+00 0.  1.
<mgrwt>
<rscale>  2 0.20222269E+02</rscale>
<asrwt>0</asrwt>
<pdfrwt beam="1">  1       21 0.30172545E-01 0.20222269E+02</pdfrwt>
<pdfrwt beam="2">  1       21 0.20274351E-02 0.20222269E+02</pdfrwt>
<totfact> 0.98846064E+06</totfact>
</mgrwt>
</event>
<event>
 4    1  0.4438654E+006  0.4656117E+02  0.7546771E-02  0.1464824E+00
         21   -1    0    0  504  501  0.00000000000E+00  0.00000000000E+00  0.10427952937E+02  0.10427952937E+02  0.00000000000E+00 0. -1.
         21   -1    0    0  501  502 -0.00000000000E+00 -0.00000000000E+00 -0.45606247327E+03  0.45606247327E+03  0.00000000000E+00 0. -1.
         21    1    1    2  503  502  0.46549044860E+02 -0.10626973181E+01 -0.39487373368E+03  0.39760936666E+03  0.00000000000E+00 0. -1.
         21    1    1    2  504  503 -0.46549044860E+02  0.10626973181E+01 -0.50760786653E+02  0.68881059549E+02  0.00000000000E+00 0. -1.
<mgrwt>
<rscale>  2 0.46561174E+02</rscale>
<asrwt>0</asrwt>
<pdfrwt beam="1">  1       21 0.16043007E-02 0.46561174E+02</pdfrwt>
<pdfrwt beam="2">  1       21 0.70163446E-01 0.46561174E+02</pdfrwt>
<totfact> 0.30603323E+06</totfact>
</mgrwt>
</event>
<event>
 4    1  0.4438654E+006  0.2022947E+02  0.7546771E-02  0.1740803E+00
         21   -1    0    0  504  501  0.00000000000E+00  0.00000000000E+00  0.35828571136E+01  0.35828571136E+01  0.00000000000E+00 0.  1.
         21   -1    0    0  503  502 -0.00000000000E+00 -0.00000000000E+00 -0.34053600227E+03  0.34053600227E+03  0.00000000000E+00 0. -1.
         21    1    1    2  503  501  0.14282722131E+02 -0.14326039281E+02 -0.30874348360E+03  0.30940551097E+03  0.00000000000E+00 0. -1.
         21    1    1    2  504  502 -0.14282722131E+02  0.14326039281E+02 -0.28209661553E+02  0.34713348411E+02  0.00000000000E+00 0.  1.
<mgrwt>
<rscale>  2 0.20229472E+02</rscale>
<asrwt>0</asrwt>
<pdfrwt beam="1">  1       21 0.55120871E-03 0.20229472E+02</pdfrwt>
<pdfrwt beam="2">  1       21 0.52390161E-01 0.20229472E+02</pdfrwt>
<totfact> 0.24731202E+07</totfact>
</mgrwt>
</event>
<event>
 4    1  0.4438654E+006  0.2004692E+02  0.7546771E-02  0.1744397E+00
         21   -1    0    0  504  501  0.00000000000E+00  0.00000000000E+00  0.17276939633E+02  0.17276939633E+02  0.00000000000E+00 0. -1.
         21   -1    0    0  503  502 -0.00000000000E+00 -0.00000000000E+00 -0.25349205111E+02  0.25349205111E+02  0.00000000000E+00 0.  1.
         21    1    1    2  503  501 -0.46891521858E+01  0.19490784827E+02  0.20810404106E+01  0.20154641415E+02  0.00000000000E+00 0. -1.
         21    1    1    2  504  502  0.46891521858E+01 -0.19490784827E+02 -0.10153305889E+02  0.22471503329E+02  0.00000000000E+00 0.  1.
<mgrwt>
<rscale>  2 0.20046916E+02</rscale>
<asrwt>0</asrwt>
<pdfrwt beam="1">  1       21 0.26579907E-02 0.20046916E+02</pdfrwt>
<pdfrwt beam="2">  1       21 0.38998777E-02 0.20046916E+02</pdfrwt>
<totfact> 0.19613175E+08</totfact>
</mgrwt>
</event>
<event>
 4    1  0.4438654E+006  0.2223331E+02  0.7546771E-02  0.1704248E+00
         21   -1    0    0  503  501  0.00000000000E+00  0.00000000000E+00  0.51900433627E+02  0.51900433627E+02  0.00000000000E+00 0.  1.
         21   -1    0    0  504  502 -0.00000000000E+00 -0.00000000000E+00 -0.25138382852E+02  0.25138382852E+02  0.00000000000E+00 0. -1.
         21    1    1    2  503  502 -0.51784698580E+01  0.21621827321E+02  0.43738659881E+02  0.49065164170E+02  0.00000000000E+00 0.  1.
         21    1    1    2  504  501  0.51784698580E+01 -0.21621827321E+02 -0.16976609106E+02  0.27973652309E+02  0.00000000000E+00 0. -1.
<mgrwt>
<rscale>  2 0.22233308E+02</rscale>
<asrwt>0</asrwt>
<pdfrwt beam="1">  1       21 0.79846821E-02 0.22233308E+02</pdfrwt>
<pdfrwt beam="2">  1       21 0.38674435E-02 0.22233308E+02</pdfrwt>
<totfact> 0.35929417E+07</totfact>
</mgrwt>
</event>
<event>
 4    1  0.4438654E+006  0.2157177E+02  0.7546771E-02  0.1715765E+00
         21   -1    0    0  503  501  0.00000000000E+00  0.00000000000E+00  0.97014313834E+02  0.97014313834E+02  0.00000000000E+00 0. -1.
         21   -1    0    0  504  502 -0.00000000000E+00 -0.00000000000E+00 -0.51691915570E+01  0.51691915570E+01  0.00000000000E+00 0.  1.
         21    1    1    2  503  502  0.10419572298E+02 -0.18888453734E+02  0.59639022797E+02  0.63420455781E+02  0.00000000000E+00 0. -1.
         21    1    1    2  504  501 -0.10419572298E+02  0.18888453734E+02  0.32206099481E+02  0.38763049610E+02  0.00000000000E+00 0.  1.
<mgrwt>
<rscale>  2 0.21571768E+02</rscale>
<asrwt>0</asrwt>
<pdfrwt beam="1">  1       21 0.14925278E-01 0.21571768E+02</pdfrwt>
<pdfrwt beam="2">  1       21 0.79526031E-03 0.21571768E+02</pdfrwt>
<totfact> 0.14100779E+08</totfact>
</mgrwt>
</event>
<event>
 4    1  0.4438654E+006  0.3022957E+02  0.7546771E-02  0.1595565E+00
         21   -1    0    0  504  501  0.00000000000E+00  0.00000000000E+00  0.31820145574E+02  0.31820145574E+02  0.00000000000E+00 0. -1.
         21   -1    0    0  503  502 -0.00000000000E+00 -0.00000000000E+00 -0.36167367680E+02  0.36167367680E+02  0.00000000000E+00 0. -1.
         21    1    1    2  503  501 -0.24353871893E+02  0.17908539869E+02  0.13253543003E+02  0.33007321590E+02  0.00000000000E+00 0. -1.
         21    1    1    2  504  502  0.24353871893E+02 -0.17908539869E+02 -0.17600765110E+02  0.34980191664E+02  0.00000000000E+00 0. -1.
<mgrwt>
<rscale>  2 0.30229570E+02</rscale>
<asrwt>0</asrwt>
<pdfrwt beam="1">  1       21 0.48954070E-02 0.30229570E+02</pdfrwt>
<pdfrwt beam="2">  1       21 0.55642104E-02 0.30229570E+02</pdfrwt>
<totfact> 0.47721462E+07</totfact>
</mgrwt>
</event>
<event>
 4    1  0.4438654E+006  0.3112529E+02  0.7546771E-02  0.1585973E+00
         21   -1    0    0  504  501  0.00000000000E+00  0.00000000000E+00  0.50380864161E+02  0.50380864161E+02  0.00000000000E+00 0. -1.
         21   -1    0    0  503  502 -0.00000000000E+00 -0.00000000000E+00 -0.85678284232E+02  0.85678284232E+02  0.00000000000E+00 0. -1.
         21    1    1    2  503  501  0.64620035108E+01 -0.30447101170E+02  0.42262334127E+02  0.52487030254E+02  0.00000000000E+00 0. -1.
         21    1    1    2  504  502 -0.64620035108E+01  0.30447101170E+02 -0.77559754198E+02  0.83572118139E+02  0.00000000000E+00 0. -1.
<mgrwt>
<rscale>  2 0.31125286E+02</rscale>
<asrwt>0</asrwt>
<pdfrwt beam="1">  1       21 0.77509023E-02 0.31125286E+02</pdfrwt>
<pdfrwt beam="2">  1       21 0.13181274E-01 0.31125286E+02</pdfrwt>
<totfact> 0.54333113E+06</totfact>
</mgrwt>
</event>
<event>
 4    1  0.4438654E+006  0.3700513E+02  0.7546771E-02  0.1531483E+00
         21   -1    0    0  503  501  0.00000000000E+00  0.00000000000E+00  0.60118090817E+01  0.60118090817E+01  0.00000000000E+00 0. -1.
         21   -1    0    0  504  502 -0.00000000000E+00 -0.00000000000E+00 -0.23105785771E+03  0.23105785771E+03  0.00000000000E+00 0. -1.
         21    1    1    2  503  502  0.35399279667E+02 -0.10782874246E+02 -0.98408186153E+02  0.10513586676E+03  0.00000000000E+00 0. -1.
         21    1    1    2  504  501 -0.35399279667E+02  0.10782874246E+02 -0.12663786248E+03  0.13193380003E+03  0.00000000000E+00 0. -1.
<mgrwt>
<rscale>  2 0.37005126E+02</rscale>
<asrwt>0</asrwt>
<pdfrwt beam="1">  1       21 0.92489373E-03 0.37005126E+02</pdfrwt>
<pdfrwt beam="2">  1       21 0.35547362E-01 0.37005126E+02</pdfrwt>
<totfact> 0.26969607E+07</totfact>
</mgrwt>
</event>
<event>
 4    1  0.4438654E+006  0.2231227E+02  0.7546771E-02  0.1702907E+00
         21   -1    0    0  502  501  0.00000000000E+00  0.00000000000E+00  0.18702410569E+02  0.18702410569E+02  0.00000000000E+00 0.  1.
         21   -1    0    0  503  502 -0.00000000000E+00 -0.00000000000E+00 -0.39584093180E+02  0.39584093180E+02  0.00000000000E+00 0.  1.
         21    1    1    2  503  504  0.18436804907E+02  0.12566688776E+02 -0.27119737058E+02  0.35118621557E+02  0.00000000000E+00 0.  1.
         21    1    1    2  504  501 -0.18436804907E+02 -0.12566688776E+02  0.62380544467E+01  0.23167882192E+02  0.00000000000E+00 0.  1.
<mgrwt>
<rscale>  2 0.22312271E+02</rscale>
<asrwt>0</asrwt>
<pdfrwt beam="1">  1       21 0.28772940E-02 0.22312271E+02</pdfrwt>
<pdfrwt beam="2">  1       21 0.60898604E-02 0.22312271E+02</pdfrwt>
<totfact> 0.88460039E+07</totfact>
</mgrwt>
</event>
<event>
 4    1  0.4438654E+006  0.3282277E+02  0.7546771E-02  0.1568831E+00
         21   -1    0    0  503  501  0.00000000000E+00  0.00000000000E+00  0.19717594979E+02  0.19717594979E+02  0.00000000000E+00 0.  1.
         21   -1    0    0  504  502 -0.00000000000E+00 -0.00000000000E+00 -0.34307760435E+03  0.34307760435E+03  0.00000000000E+00 0.  1.
         21    1    1    2  503  502 -0.15521702615E+02  0.28920769011E+02 -0.32800696000E+03  0.32964511211E+03  0.00000000000E+00 0.  1.
         21    1    1    2  504  501  0.15521702615E+02 -0.28920769011E+02  0.46469506294E+01  0.33150087215E+02  0.00000000000E+00 0.  1.
<mgrwt>
<rscale>  2 0.32822769E+02</rscale>
<asrwt>0</asrwt>
<pdfrwt beam="1">  1       21 0.30334760E-02 0.32822769E+02</pdfrwt>
<pdfrwt beam="2">  1       21 0.52781173E-01 0.32822769E+02</pdfrwt>
<totfact> 0.19622755E+06</totfact>
</mgrwt>
</event>
<event>
 4    1  0.4438654E+006  0.2466605E+02  0.7546771E-02  0.1665845E+00
         21   -1    0    0  504  501  0.00000000000E+00  0.00000000000E+00  0.61572431747E+01  0.61572431747E+01  0.00000000000E+00 0. -1.
         21   -1    0    0  503  502 -0.00000000000E+00 -0.00000000000E+00 -0.14967194406E+03  0.14967194406E+03  0.00000000000E+00 0. -1.
         21    1    1    2  503  501 -0.10386332568E+02 -0.22372708559E+02 -0.26338781878E+02  0.36085252158E+02  0.00000000000E+00 0. -1.
         21    1    1    2  504  502  0.10386332568E+02  0.22372708559E+02 -0.11717591900E+03  0.11974393507E+03  0.00000000000E+00 0. -1.
<mgrwt>
<rscale>  2 0.24666049E+02</rscale>
<asrwt>0</asrwt>
<pdfrwt beam="1">  1       21 0.94726817E-03 0.24666049E+02</pdfrwt>
<pdfrwt beam="2">  1       21 0.23026453E-01 0.24666049E+02</pdfrwt>
<totfact> 0.53075459E+07</totfact>
</mgrwt>
</event>
<event>
 4    1  0.4438654E+006  0.3365921E+02  0.7546771E-02  0.1560840E+00
         21   -1    0    0  504  501  0.00000000000E+00  0.00000000000E+00  0.64202012023E+02  0.64202012023E+02  0.00000000000E+00 0. -1.
         21   -1    0    0  501  502 -0.00000000000E+00 -0.00000000000E+00 -0.37510941698E+02  0.37510941698E+02  0.00000000000E+00 0.  1.
         21    1    1    2  503  502  0.32392613733E+02  0.91466395958E+01 -0.23663280770E+02  0.41144784568E+02  0.00000000000E+00 0.  1.
         21    1    1    2  504  503 -0.32392613733E+02 -0.91466395958E+01  0.50354351095E+02  0.60568169153E+02  0.00000000000E+00 0. -1.
<mgrwt>
<rscale>  2 0.33659210E+02</rscale>
<asrwt>0</asrwt>
<pdfrwt beam="1">  1       21 0.98772326E-02 0.33659210E+02</pdfrwt>
<pdfrwt beam="2">  1       21 0.57709141E-02 0.33659210E+02</pdfrwt>
<totfact> 0.14517757E+07</totfact>
</mgrwt>
</event>
<event>
 4    1  0.4438654E+006  0.2220421E+02  0.7546771E-02  0.1704744E+00
         21   -1    0    0  504  501  0.00000000000E+00  0.00000000000E+00  0.43380794077E+02  0.43380794077E+02  0.00000000000E+00 0.  1.
         21   -1    0    0  503  502 -0.00000000000E+00 -0.00000000000E+00 -0.21888677126E+02  0.21888677126E+02  0.00000000000E+00 0.  1.
         21    1    1    2  503  501 -0.22167689712E+02 -0.12730580330E+01  0.33374362050E+02  0.40085847704E+02  0.00000000000E+00 0.  1.
         21    1    1    2  504  502  0.22167689712E+02  0.12730580330E+01 -0.11882245099E+02  0.25183623498E+02  0.00000000000E+00 0.  1.
<mgrwt>
<rscale>  2 0.22204215E+02</rscale>
<asrwt>0</asrwt>
<pdfrwt beam="1">  1       21 0.66739683E-02 0.22204215E+02</pdfrwt>
<pdfrwt beam="2">  1       21 0.33674888E-02 0.22204215E+02</pdfrwt>
<totfact> 0.59666176E+07</totfact>
</mgrwt>
</event>
<event>
 4    1  0.4438654E+006  0.3193182E+02  0.7546771E-02  0.1577667E+00
         21   -1    0    0  504  501  0.00000000000E+00  0.00000000000E+00  0.43628009613E+02  0.43628009613E+02  0.00000000000E+00 0.  1.
         21   -1    0    0  501  502 -0.00000000000E+00 -0.00000000000E+00 -0.13075016934E+03  0.13075016934E+03  0.00000000000E+00 0.  1.
         21    1    1    2  503  502 -0.31526353675E+02 -0.50724874997E+01 -0.12257443933E+03  0.12666544234E+03  0.00000000000E+00 0.  1.
         21    1    1    2  504  503  0.31526353675E+02  0.50724874997E+01  0.35452279608E+02  0.47712736610E+02  0.00000000000E+00 0.  1.
<mgrwt>
<rscale>  2 0.31931820E+02</rscale>
<asrwt>0</asrwt>
<pdfrwt beam="1">  1       21 0.67120015E-02 0.31931820E+02</pdfrwt>
<pdfrwt beam="2">  1       21 0.20115411E-01 0.31931820E+02</pdfrwt>
<totfact> 0.33135398E+06</totfact>
</mgrwt>
</event>
<event>
 4    1  0.4438654E+006  0.3734281E+02  0.7546771E-02  0.1528728E+00
         21   -1    0    0  503  501  0.00000000000E+00  0.00000000000E+00  0.28249848336E+02  0.28249848336E+02  0.00000000000E+00 0.  1.
         21   -1    0    0  504  502 -0.00000000000E+00 -0.00000000000E+00 -0.13138643546E+03  0.13138643546E+03  0.00000000000E+00 0. -1.
         21    1    1    2  503  502 -0.36824162997E+02  0.62021282681E+01 -0.11463446108E+03  0.12056344821E+03  0.00000000000E+00 0. -1.
         21    1    1    2  504  501  0.36824162997E+02 -0.62021282681E+01  0.11497873960E+02  0.39072835590E+02  0.00000000000E+00 0.  1.
<mgrwt>
<rscale>  2 0.37342809E+02</rscale>
<asrwt>0</asrwt>
<pdfrwt beam="1">  1       21 0.43461306E-02 0.37342809E+02</pdfrwt>
<pdfrwt beam="2">  1       21 0.20213298E-01 0.37342809E+02</pdfrwt>
<totfact> 0.67777071E+06</totfact>
</mgrwt>
</event>
<event>
 4    1  0.4438654E+006  0.3751879E+02  0.7546771E-02  0.1527307E+00
         21   -1    0    0  502  501  0.00000000000E+00  0.00000000000E+00  0.12030218702E+03  0.12030218702E+03  0.00000000000E+00 0.  1.
         21   -1    0    0  503  502 -0.00000000000E+00 -0.00000000000E+00 -0.17854704130E+02  0.17854704130E+02  0.00000000000E+00 0.  1.
         21    1    1    2  503  504 -0.22828705097E+02 -0.29774316498E+02  0.10669767677E+02  0.39006456409E+02  0.00000000000E+00 0.  1.
         21    1    1    2  504  501  0.22828705097E+02  0.29774316498E+02  0.91777715210E+02  0.99150434737E+02  0.00000000000E+00 0.  1.
<mgrwt>
<rscale>  2 0.37518791E+02</rscale>
<asrwt>0</asrwt>
<pdfrwt beam="1">  1       21 0.18508028E-01 0.37518791E+02</pdfrwt>
<pdfrwt beam="2">  1       21 0.27468776E-02 0.37518791E+02</pdfrwt>
<totfact> 0.16476670E+07</totfact>
</mgrwt>
</event>
<event>
 4    1  0.4438654E+006  0.2047595E+02  0.7546771E-02  0.1736025E+00
         21   -1    0    0  503  501  0.00000000000E+00  0.00000000000E+00  0.17653037019E+03  0.17653037019E+03  0.00000000000E+00 0. -1.
         21   -1    0    0  504  502 -0.00000000000E+00 -0.00000000000E+00 -0.57129551250E+01  0.57129551250E+01  0.00000000000E+00 0. -1.
         21    1    1    2  503  502  0.20279111234E+02  0.28323754648E+01  0.15506006840E+03  0.15640616840E+03  0.00000000000E+00 0. -1.
         21    1    1    2  504  501 -0.20279111234E+02 -0.28323754648E+01  0.15757346665E+02  0.25837156909E+02  0.00000000000E+00 0. -1.
<mgrwt>
<rscale>  2 0.20475954E+02</rscale>
<asrwt>0</asrwt>
<pdfrwt beam="1">  1       21 0.27158514E-01 0.20475954E+02</pdfrwt>
<pdfrwt beam="2">  1       21 0.87891631E-03 0.20475954E+02</pdfrwt>
<totfact> 0.42255044E+07</totfact>
</mgrwt>
</event>
<event>
 4    1  0.4438654E+006  0.3269770E+02  0.7546771E-02  0.1570051E+00
         21   -1    0    0  503  501  0.00000000000E+00  0.00000000000E+00  0.55549970247E+01  0.55549970247E+01  0.00000000000E+00 0. -1.
         21   -1    0    0  501  502 -0.00000000000E+00 -0.00000000000E+00 -0.49749446867E+03  0.49749446867E+03  0.00000000000E+00 0.  1.
         21    1    1    2  503  504  0.83863003336E-01 -0.32697594673E+02 -0.49018902581E+02  0.58923616154E+02  0.00000000000E+00 0. -1.
         21    1    1    2  504  502 -0.83863003336E-01  0.32697594673E+02 -0.44292056906E+03  0.44412584954E+03  0.00000000000E+00 0.  1.
<mgrwt>
<rscale>  2 0.32697702E+02</rscale>
<asrwt>0</asrwt>
<pdfrwt beam="1">  1       21 0.85461491E-03 0.32697702E+02</pdfrwt>
<pdfrwt beam="2">  1       21 0.76537612E-01 0.32697702E+02</pdfrwt>
<totfact> 0.64717659E+06</totfact>
</mgrwt>
</event>
<event>
 4    1  0.4438654E+006  0.2348046E+02  0.7546771E-02  0.1683838E+00
         21   -1    0    0  504  501  0.00000000000E+00  0.00000000000E+00  0.10713504906E+03  0.10713504906E+03  0.00000000000E+00 0.  1.
         21   -1    0    0  501  502 -0.00000000000E+00 -0.00000000000E+00 -0.36687584040E+02  0.36687584040E+02  0.00000000000E+00 0.  1.
         21    1    1    2  503  502 -0.23447516121E+02 -0.12433934526E+01 -0.31453637956E+02  0.39251285077E+02  0.00000000000E+00 0.  1.
         21    1    1    2  504  503  0.23447516121E+02  0.12433934526E+01  0.10190110298E+03  0.10457134803E+03  0.00000000000E+00 0.  1.
<mgrwt>
<rscale>  2 0.23480461E+02</rscale>
<asrwt>0</asrwt>
<pdfrwt beam="1">  1       21 0.16482315E-01 0.23480461E+02</pdfrwt>
<pdfrwt beam="2">  1       21 0.56442437E-02 0.23480461E+02</pdfrwt>
<totfact> 0.59459462E+06</totfact>
</mgrwt>
</event>
<event>
 4    1  0.4438654E+006  0.2177181E+02  0.7546771E-02  0.1712229E+00
         21   -1    0    0  503  501  0.00000000000E+00  0.00000000000E+00  0.80424102419E+02  0.80424102419E+02  0.00000000000E+00 0. -1.
         21   -1    0    0  501  502 -0.00000000000E+00 -0.00000000000E+00 -0.18114265171E+02  0.18114265171E+02  0.00000000000E+00 0. -1.
         21    1    1    2  503  504 -0.64587644132E+01  0.20791734107E+02  0.71622481372E+02  0.74858477695E+02  0.00000000000E+00 0. -1.
         21    1    1    2  504  502  0.64587644132E+01 -0.20791734107E+02 -0.93126441238E+01  0.23679889896E+02  0.00000000000E+00 0. -1.
<mgrwt>
<rscale>  2 0.21771813E+02</rscale>
<asrwt>0</asrwt>
<pdfrwt beam="1">  1       21 0.12372939E-01 0.21771813E+02</pdfrwt>
<pdfrwt beam="2">  1       21 0.27868101E-02 0.21771813E+02</pdfrwt>
<totfact> 0.28924563E+07</totfact>
</mgrwt>
</event>
<event>
 4    1  0.4438654E+006  0.2423537E+02  0.7546771E-02  0.1672234E+00
         21   -1    0    0  503  501  0.00000000000E+00  0.00000000000E+00  0.45346783288E+03  0.45346783288E+03  0.00000000000E+00 0. -1.
         21   -1    0    0  504  502 -0.00000000000E+00 -0.00000000000E+00 -0.68721033970E+01  0.68721033970E+01  0.00000000000E+00 0.  1.
         21    1    1    2  503  502  0.10252429437E+02 -0.21959980204E+02  0.43064523396E+03  0.43132664024E+03  0.00000000000E+00 0. -1.
         21    1    1    2  504  501 -0.10252429437E+02  0.21959980204E+02  0.15950495518E+02  0.29013296042E+02  0.00000000000E+00 0.  1.
<mgrwt>
<rscale>  2 0.24235368E+02</rscale>
<asrwt>0</asrwt>
<pdfrwt beam="1">  1       21 0.69764258E-01 0.24235368E+02</pdfrwt>
<pdfrwt beam="2">  1       21 0.10572470E-02 0.24235368E+02</pdfrwt>
<totfact> 0.54702412E+06</totfact>
</mgrwt>
</event>
<event>
 4    1  0.4438654E+006  0.2002960E+02  0.7546771E-02  0.1744740E+00
         21   -1    0    0  504  501  0.00000000000E+00  0.00000000000E+00  0.26461844783E+02  0.26461844783E+02  0.00000000000E+00 0.  1.
         21   -1    0    0  503  502 -0.00000000000E+00 -0.00000000000E+00 -0.88443587727E+02  0.88443587727E+02  0.00000000000E+00 0. -1.
         21    1    1    2  503  501  0.16200210596E+02 -0.11778707666E+02 -0.83288037204E+02  0.85662605138E+02  0.00000000000E+00 0. -1.
         21    1    1    2  504  502 -0.16200210596E+02  0.11778707666E+02  0.21306294260E+02  0.29242827372E+02  0.00000000000E+00 0.  1.
<mgrwt>
<rscale>  2 0.20029598E+02</rscale>
<asrwt>0</asrwt>
<pdfrwt beam="1">  1       21 0.40710530E-02 0.20029598E+02</pdfrwt>
<pdfrwt beam="2">  1       21 0.13606706E-01 0.20029598E+02</pdfrwt>
<totfact> 0.13404244E+07</totfact>
</mgrwt>
</event>
<event>
 4    1  0.4438654E+006  0.2042643E+02  0.7546771E-02  0.1736979E+00
         21   -1    0    0  504  501  0.00000000000E+00  0.00000000000E+00  0.11121809111E+02  0.11121809111E+02  0.00000000000E+00 0.  1.
         21   -1    0    0  501  502 -0.00000000000E+00 -0.00000000000E+00 -0.51452399713E+02  0.51452399713E+02  0.00000000000E+00 0. -1.
         21    1    1    2  503  502 -0.44752664134E+01 -0.19930151109E+02 -0.36448784054E+02  0.41782206640E+02  0.00000000000E+00 0. -1.
         21    1    1    2  504  503  0.44752664134E+01  0.19930151109E+02 -0.38818065479E+01  0.20792002183E+02  0.00000000000E+00 0.  1.
<mgrwt>
<rscale>  2 0.20426427E+02</rscale>
<asrwt>0</asrwt>
<pdfrwt beam="1">  1       21 0.17110476E-02 0.20426427E+02</pdfrwt>
<pdfrwt beam="2">  1       21 0.79157537E-02 0.20426427E+02</pdfrwt>
<totfact> 0.12540967E+08</totfact>
</mgrwt>
</event>
<event>
 4    1  0.4438654E+006  0.2746173E+02  0.7546771E-02  0.1627969E+00
         21   -1    0    0  504  501  0.00000000000E+00  0.00000000000E+00  0.13208684574E+03  0.13208684574E+03  0.00000000000E+00 0. -1.
         21   -1    0    0  503  502 -0.00000000000E+00 -0.00000000000E+00 -0.77830167650E+01  0.77830167650E+01  0.00000000000E+00 0. -1.
         21    1    1    2  503  501 -0.16388721884E+02 -0.22035342574E+02  0.26054460139E+02  0.37854741057E+02  0.00000000000E+00 0. -1.
         21    1    1    2  504  502  0.16388721884E+02  0.22035342574E+02  0.98249368831E+02  0.10201512144E+03  0.00000000000E+00 0. -1.
<mgrwt>
<rscale>  2 0.27461728E+02</rscale>
<asrwt>0</asrwt>
<pdfrwt beam="1">  1       21 0.20321051E-01 0.27461728E+02</pdfrwt>
<pdfrwt beam="2">  1       21 0.11973873E-02 0.27461728E+02</pdfrwt>
<totfact> 0.47614014E+07</totfact>
</mgrwt>
</event>
<event>
 4    1  0.4438654E+006  0.2701354E+02  0.7546771E-02  0.1633659E+00
         21   -1    0    0  504  501  0.00000000000E+00  0.00000000000E+00  0.23061343272E+02  0.23061343272E+02  0.00000000000E+00 0.  1.
         21   -1    0    0  503  502 -0.00000000000E+00 -0.00000000000E+00 -0.11860578366E+03  0.11860578366E+03  0.00000000000E+00 0. -1.
         21    1    1    2  503  501 -0.21730564249E+02  0.16047239669E+02  0.12880843029E+02  0.29927369426E+02  0.00000000000E+00 0.  1.
         21    1    1    2  504  502  0.21730564249E+02 -0.16047239669E+02 -0.10842528342E+03  0.11173975751E+03  0.00000000000E+00 0. -1.
<mgrwt>
<rscale>  2 0.27013540E+02</rscale>
<asrwt>0</asrwt>
<pdfrwt beam="1">  1       21 0.35478990E-02 0.27013540E+02</pdfrwt>
<pdfrwt beam="2">  1       21 0.18247044E-01 0.27013540E+02</pdfrwt>
<totfact> 0.10683278E+07</totfact>
</mgrwt>
</event>
<event>
 4    1  0.4438654E+006  0.2089202E+02  0.7546771E-02  0.1728150E+00
         21   -1    0    0  504  501  0.00000000000E+00  0.00000000000E+00  0.22415718093E+02  0.22415718093E+02  0.00000000000E+00 0.  1.
         21   -1    0    0  503  502 -0.00000000000E+00 -0.00000000000E+00 -0.24627269109E+02  0.24627269109E+02  0.00000000000E+00 0.  1.
         21    1    1    2  503  501  0.87797983627E+00 -0.20873567347E+02  0.96560655248E+01  0.23015565685E+02  0.00000000000E+00 0.  1.
         21    1    1    2  504  502 -0.87797983627E+00  0.20873567347E+02 -0.11867616541E+02  0.24027421517E+02  0.00000000000E+00 0.  1.
<mgrwt>
<rscale>  2 0.20892024E+02</rscale>
<asrwt>0</asrwt>
<pdfrwt beam="1">  1       21 0.34485720E-02 0.20892024E+02</pdfrwt>
<pdfrwt beam="2">  1       21 0.37888106E-02 0.20892024E+02</pdfrwt>
<totfact> 0.13885797E+08</totfact>
</mgrwt>
</event>
<event>
 4    1  0.4438654E+006  0.2292951E+02  0.7546771E-02  0.1692655E+00
         21   -1    0    0  504  501  0.00000000000E+00  0.00000000000E+00  0.17857034155E+01  0.17857034155E+01  0.00000000000E+00 0.  1.
         21   -1    0    0  503  502 -0.00000000000E+00 -0.00000000000E+00 -0.52187728493E+03  0.52187728493E+03  0.00000000000E+00 0. -1.
         21    1    1    2  503  501 -0.14176885942E+02 -0.18021603464E+02 -0.43289975042E+03  0.43350658150E+03  0.00000000000E+00 0. -1.
         21    1    1    2  504  502  0.14176885942E+02  0.18021603464E+02 -0.87191831087E+02  0.90156406843E+02  0.00000000000E+00 0.  1.
<mgrwt>
<rscale>  2 0.22929507E+02</rscale>
<asrwt>0</asrwt>
<pdfrwt beam="1">  1       21 0.27472347E-03 0.22929507E+02</pdfrwt>
<pdfrwt beam="2">  1       21 0.80288850E-01 0.22929507E+02</pdfrwt>
<totfact> 0.29707902E+07</totfact>
</mgrwt>
</event>
<event>
 4    1  0.4438654E+006  0.2803423E+02  0.7546771E-02  0.1620893E+00
         21   -1    0    0  503  501  0.00000000000E+00  0.00000000000E+00  0.34904444024E+01  0.34904444024E+01  0.00000000000E+00 0.  1.
         21   -1    0    0  504  502 -0.00000000000E+00 -0.00000000000E+00 -0.29690789165E+03  0.29690789165E+03  0.00000000000E+00 0.  1.
         21    1    1    2  503  502 -0.10341981024E+02  0.26056884079E+02 -0.72875275876E+02  0.78081519026E+02  0.00000000000E+00 0.  1.
         21    1    1    2  504  501  0.10341981024E+02 -0.26056884079E+02 -0.22054217137E+03  0.22231681703E+03  0.00000000000E+00 0.  1.
<mgrwt>
<rscale>  2 0.28034225E+02</rscale>
<asrwt>0</asrwt>
<pdfrwt beam="1">  1       21 0.53699137E-03 0.28034225E+02</pdfrwt>
<pdfrwt beam="2">  1       21 0.45678144E-01 0.28034225E+02</pdfrwt>
<totfact> 0.35948938E+07</totfact>
</mgrwt>
</event>
<event>
 4    1  0.4438654E+006  0.2230495E+02  0.7546771E-02  0.1703031E+00
         21   -1    0    0  502  501  0.00000000000E+00  0.00000000000E+00  0.10415255140E+04  0.10415255140E+04  0.00000000000E+00 0.  1.
         21   -1    0    0  504  502 -0.00000000000E+00 -0.00000000000E+00 -0.66150714241E+00  0.66150714241E+00  0.00000000000E+00 0.  1.
         21    1    1    2  503  501  0.16924834727E+02  0.14527928158E+02  0.79513227530E+03  0.79544506156E+03  0.00000000000E+00 0.  1.
         21    1    1    2  504  503 -0.16924834727E+02 -0.14527928158E+02  0.24573173151E+03  0.24674195954E+03  0.00000000000E+00 0.  1.
<mgrwt>
<rscale>  2 0.22304948E+02</rscale>
<asrwt>0</asrwt>
<pdfrwt beam="1">  1       21 0.16023338E+00 0.22304948E+02</pdfrwt>
<pdfrwt beam="2">  1       21 0.10177116E-03 0.22304948E+02</pdfrwt>
<totfact> 0.26176783E+07</totfact>
</mgrwt>
</event>
<event>
 4    1  0.4438654E+006  0.2132779E+02  0.7546771E-02  0.1720144E+00
         21   -1    0    0  503  501  0.00000000000E+00  0.00000000000E+00  0.59175676262E+03  0.59175676262E+03  0.00000000000E+00 0.  1.
         21   -1    0    0  501  502 -0.00000000000E+00 -0.00000000000E+00 -0.18734143591E+01  0.18734143591E+01  0.00000000000E+00 0.  1.
         21    1    1    2  503  504  0.13597672987E+02  0.16431000568E+02  0.52286932729E+03  0.52330412564E+03  0.00000000000E+00 0.  1.
         21    1    1    2  504  502 -0.13597672987E+02 -0.16431000568E+02  0.67014020966E+02  0.70326051335E+02  0.00000000000E+00 0.  1.
<mgrwt>
<rscale>  2 0.21327787E+02</rscale>
<asrwt>0</asrwt>
<pdfrwt beam="1">  1       21 0.91039353E-01 0.21327787E+02</pdfrwt>
<pdfrwt beam="2">  1       21 0.28821807E-03 0.21327787E+02</pdfrwt>
<totfact> 0.20921351E+07</totfact>
</mgrwt>
</event>
<event>
 4    1  0.4438654E+006  0.2264222E+02  0.7546771E-02  0.1697376E+00
         21   -1    0    0  504  501  0.00000000000E+00  0.00000000000E+00  0.92441313437E+03  0.92441313437E+03  0.00000000000E+00 0.  1.
         21   -1    0    0  501  502 -0.00000000000E+00 -0.00000000000E+00 -0.43813930832E+01  0.43813930832E+01  0.00000000000E+00 0. -1.
         21    1    1    2  503  502 -0.17352416336E+02 -0.14545231759E+02  0.26003997577E+02  0.34480110348E+02  0.00000000000E+00 0. -1.
         21    1    1    2  504  503  0.17352416336E+02  0.14545231759E+02  0.89402774371E+03  0.89431441710E+03  0.00000000000E+00 0.  1.
<mgrwt>
<rscale>  2 0.22642220E+02</rscale>
<asrwt>0</asrwt>
<pdfrwt beam="1">  1       21 0.14221725E+00 0.22642220E+02</pdfrwt>
<pdfrwt beam="2">  1       21 0.67406121E-03 0.22642220E+02</pdfrwt>
<totfact> 0.22348921E+06</totfact>
</mgrwt>
</event>
<event>
 4    1  0.4438654E+006  0.2351079E+02  0.7546771E-02  0.1683362E+00
         21   -1    0    0  504  501  0.00000000000E+00  0.00000000000E+00  0.95293383267E+03  0.95293383267E+03  0.00000000000E+00 0.  1.
         21   -1    0    0  503  502 -0.00000000000E+00 -0.00000000000E+00 -0.16867894455E+01  0.16867894455E+01  0.00000000000E+00 0.  1.
         21    1    1    2  503  501 -0.39184729363E+01  0.23181954264E+02  0.86224982080E+03  0.86257029331E+03  0.00000000000E+00 0.  1.
         21    1    1    2  504  502  0.39184729363E+01 -0.23181954264E+02  0.88997222424E+02  0.92050328803E+02  0.00000000000E+00 0.  1.
<mgrwt>
<rscale>  2 0.23510794E+02</rscale>
<asrwt>0</asrwt>
<pdfrwt beam="1">  1       21 0.14660477E+00 0.23510794E+02</pdfrwt>
<pdfrwt beam="2">  1       21 0.25950683E-03 0.23510794E+02</pdfrwt>
<totfact> 0.84938266E+06</totfact>
</mgrwt>
</event>
<event>
 4    1  0.4438654E+006  0.2234056E+02  0.7546771E-02  0.1702428E+00
         21   -1    0    0  503  501  0.00000000000E+00  0.00000000000E+00  0.62743979622E+02  0.62743979622E+02  0.00000000000E+00 0.  1.
         21   -1    0    0  504  502 -0.00000000000E+00 -0.00000000000E+00 -0.79891669943E+01  0.79891669943E+01  0.00000000000E+00 0.  1.
         21    1    1    2  503  502 -0.79602345128E+01  0.20874271926E+02  0.29705192217E+02  0.37168521716E+02  0.00000000000E+00 0.  1.
         21    1    1    2  504  501  0.79602345128E+01 -0.20874271926E+02  0.25049620411E+02  0.33564624900E+02  0.00000000000E+00 0.  1.
<mgrwt>
<rscale>  2 0.22340559E+02</rscale>
<asrwt>0</asrwt>
<pdfrwt beam="1">  1       21 0.96529196E-02 0.22340559E+02</pdfrwt>
<pdfrwt beam="2">  1       21 0.12291027E-02 0.22340559E+02</pdfrwt>
<totfact> 0.15373517E+08</totfact>
</mgrwt>
</event>
<event>
 4    1  0.4438654E+006  0.2403868E+02  0.7546771E-02  0.1675206E+00
         21   -1    0    0  503  501  0.00000000000E+00  0.00000000000E+00  0.43903367164E+01  0.43903367164E+01  0.00000000000E+00 0.  1.
         21   -1    0    0  504  502 -0.00000000000E+00 -0.00000000000E+00 -0.24671367536E+03  0.24671367536E+03  0.00000000000E+00 0.  1.
         21    1    1    2  503  502  0.19374481233E+02 -0.14229809380E+02 -0.20691519137E+03  0.20830687559E+03  0.00000000000E+00 0.  1.
         21    1    1    2  504  501 -0.19374481233E+02  0.14229809380E+02 -0.35408147265E+02  0.42797136478E+02  0.00000000000E+00 0.  1.
<mgrwt>
<rscale>  2 0.24038677E+02</rscale>
<asrwt>0</asrwt>
<pdfrwt beam="1">  1       21 0.67543636E-03 0.24038677E+02</pdfrwt>
<pdfrwt beam="2">  1       21 0.37955953E-01 0.24038677E+02</pdfrwt>
<totfact> 0.35206358E+07</totfact>
</mgrwt>
</event>
<event>
 4    1  0.4438654E+006  0.2531090E+02  0.7546771E-02  0.1656576E+00
         21   -1    0    0  504  501  0.00000000000E+00  0.00000000000E+00  0.12283978708E+02  0.12283978708E+02  0.00000000000E+00 0. -1.
         21   -1    0    0  501  502 -0.00000000000E+00 -0.00000000000E+00 -0.47733335012E+03  0.47733335012E+03  0.00000000000E+00 0. -1.
         21    1    1    2  503  502 -0.22263054490E+02 -0.12041512830E+02 -0.46357293597E+03  0.46426340432E+03  0.00000000000E+00 0. -1.
         21    1    1    2  504  503  0.22263054490E+02  0.12041512830E+02 -0.14764354437E+01  0.25353924511E+02  0.00000000000E+00 0. -1.
<mgrwt>
<rscale>  2 0.25310899E+02</rscale>
<asrwt>0</asrwt>
<pdfrwt beam="1">  1       21 0.18898426E-02 0.25310899E+02</pdfrwt>
<pdfrwt beam="2">  1       21 0.73435909E-01 0.25310899E+02</pdfrwt>
<totfact> 0.20443755E+06</totfact>
</mgrwt>
</event>
<event>
 4    1  0.4438654E+006  0.2314157E+02  0.7546771E-02  0.1689225E+00
         21   -1    0    0  503  501  0.00000000000E+00  0.00000000000E+00  0.21505070300E+03  0.21505070300E+03  0.00000000000E+00 0. -1.
         21   -1    0    0  504  502 -0.00000000000E+00 -0.00000000000E+00 -0.96538591559E+01  0.96538591559E+01  0.00000000000E+00 0.  1.
         21    1    1    2  503  502 -0.22924192932E+02 -0.31644540197E+01  0.19948096318E+03  0.20081879161E+03  0.00000000000E+00 0. -1.
         21    1    1    2  504  501  0.22924192932E+02  0.31644540197E+01  0.59158806661E+01  0.23885770552E+02  0.00000000000E+00 0.  1.
<mgrwt>
<rscale>  2 0.23141573E+02</rscale>
<asrwt>0</asrwt>
<pdfrwt beam="1">  1       21 0.33084720E-01 0.23141573E+02</pdfrwt>
<pdfrwt beam="2">  1       21 0.14852093E-02 0.23141573E+02</pdfrwt>
<totfact> 0.13783306E+07</totfact>
</mgrwt>
</event>
<event>
 4    1  0.4438654E+006  0.3234925E+02  0.7546771E-02  0.1573484E+00
         21   -1    0    0  503  501  0.00000000000E+00  0.00000000000E+00  0.12236273035E+03  0.12236273035E+03  0.00000000000E+00 0.  1.
         21   -1    0    0  504  502 -0.00000000000E+00 -0.00000000000E+00 -0.10018173520E+04  0.10018173520E+04  0.00000000000E+00 0.  1.
         21    1    1    2  503  502  0.12962923621E+02 -0.29638434659E+02  0.11995838662E+03  0.12424366672E+03  0.00000000000E+00 0.  1.
         21    1    1    2  504  501 -0.12962923621E+02  0.29638434659E+02 -0.99941300827E+03  0.99993641563E+03  0.00000000000E+00 0.  1.
<mgrwt>
<rscale>  2 0.32349253E+02</rscale>
<asrwt>0</asrwt>
<pdfrwt beam="1">  1       21 0.18825035E-01 0.32349253E+02</pdfrwt>
<pdfrwt beam="2">  1       21 0.15412575E+00 0.32349253E+02</pdfrwt>
<totfact> 0.91680513E+03</totfact>
</mgrwt>
</event>
<event>
 4    1  0.4438654E+006  0.2240651E+02  0.7546771E-02  0.1701315E+00
         21   -1    0    0  504  501  0.00000000000E+00  0.00000000000E+00  0.16758318335E+02  0.16758318335E+02  0.00000000000E+00 0. -1.
         21   -1    0    0  503  502 -0.00000000000E+00 -0.00000000000E+00 -0.40987935050E+02  0.40987935050E+02  0.00000000000E+00 0. -1.
         21    1    1    2  503  501  0.81519356972E+01  0.20870979707E+02  0.28628889963E+01  0.22588669349E+02  0.00000000000E+00 0. -1.
         21    1    1    2  504  502 -0.81519356972E+01 -0.20870979707E+02 -0.27092505711E+02  0.35157584036E+02  0.00000000000E+00 0. -1.
<mgrwt>
<rscale>  2 0.22406514E+02</rscale>
<asrwt>0</asrwt>
<pdfrwt beam="1">  1       21 0.25782029E-02 0.22406514E+02</pdfrwt>
<pdfrwt beam="2">  1       21 0.63058361E-02 0.22406514E+02</pdfrwt>
<totfact> 0.99269556E+07</totfact>
</mgrwt>
</event>
<event>
 4    1  0.4438654E+006  0.4040853E+02  0.7546771E-02  0.1505226E+00
         21   -1    0    0  502  501  0.00000000000E+00  0.00000000000E+00  0.89214081191E+03  0.89214081191E+03  0.00000000000E+00 0. -1.
         21   -1    0    0  504  502 -0.00000000000E+00 -0.00000000000E+00 -0.86131654364E+02  0.86131654364E+02  0.00000000000E+00 0.  1.
         21    1    1    2  503  501 -0.31214128714E+02  0.25661796771E+02  0.88691594075E+03  0.88783598463E+03  0.00000000000E+00 0. -1.
         21    1    1    2  504  503  0.31214128714E+02 -0.25661796771E+02 -0.80906783201E+02  0.90436481648E+02  0.00000000000E+00 0.  1.
<mgrwt>
<rscale>  2 0.40408534E+02</rscale>
<asrwt>0</asrwt>
<pdfrwt beam="1">  1       21 0.13725243E+00 0.40408534E+02</pdfrwt>
<pdfrwt beam="2">  1       21 0.13251024E-01 0.40408534E+02</pdfrwt>
<totfact> 0.21820694E+04</totfact>
</mgrwt>
</event>
<event>
 4    1  0.4438654E+006  0.2155941E+02  0.7546771E-02  0.1715985E+00
         21   -1    0    0  504  501  0.00000000000E+00  0.00000000000E+00  0.12622548490E+03  0.12622548490E+03  0.00000000000E+00 0. -1.
         21   -1    0    0  503  502 -0.00000000000E+00 -0.00000000000E+00 -0.38459448071E+01  0.38459448071E+01  0.00000000000E+00 0. -1.
         21    1    1    2  503  501  0.76257905816E+01  0.20165705041E+02  0.47777111100E+02  0.52416225416E+02  0.00000000000E+00 0. -1.
         21    1    1    2  504  502 -0.76257905816E+01 -0.20165705041E+02  0.74602428989E+02  0.77655204287E+02  0.00000000000E+00 0. -1.
<mgrwt>
<rscale>  2 0.21559414E+02</rscale>
<asrwt>0</asrwt>
<pdfrwt beam="1">  1       21 0.19419302E-01 0.21559414E+02</pdfrwt>
<pdfrwt beam="2">  1       21 0.59168391E-03 0.21559414E+02</pdfrwt>
<totfact> 0.13917403E+08</totfact>
</mgrwt>
</event>
<event>
 4    1  0.4438654E+006  0.2070964E+02  0.7546771E-02  0.1731573E+00
         21   -1    0    0  504  501  0.00000000000E+00  0.00000000000E+00  0.37970157153E+01  0.37970157153E+01  0.00000000000E+00 0.  1.
         21   -1    0    0  501  502 -0.00000000000E+00 -0.00000000000E+00 -0.11673622036E+03  0.11673622036E+03  0.00000000000E+00 0.  1.
         21    1    1    2  503  502  0.14925121800E+02 -0.14357231987E+02 -0.45622133782E+02  0.50102579394E+02  0.00000000000E+00 0.  1.
         21    1    1    2  504  503 -0.14925121800E+02  0.14357231987E+02 -0.67317070865E+02  0.70430656683E+02  0.00000000000E+00 0.  1.
<mgrwt>
<rscale>  2 0.20709644E+02</rscale>
<asrwt>0</asrwt>
<pdfrwt beam="1">  1       21 0.58415629E-03 0.20709644E+02</pdfrwt>
<pdfrwt beam="2">  1       21 0.17959418E-01 0.20709644E+02</pdfrwt>
<totfact> 0.16040025E+08</totfact>
</mgrwt>
</event>
<event>
 4    1  0.4438654E+006  0.4743016E+02  0.7546771E-02  0.1459717E+00
         21   -1    0    0  503  501  0.00000000000E+00  0.00000000000E+00  0.47395113014E+02  0.47395113014E+02  0.00000000000E+00 0. -1.
         21   -1    0    0  504  502 -0.00000000000E+00 -0.00000000000E+00 -0.58216259512E+02  0.58216259512E+02  0.00000000000E+00 0. -1.
         21    1    1    2  503  502 -0.46111555193E+02  0.11106074812E+02 -0.28103126571E+02  0.55130809382E+02  0.00000000000E+00 0. -1.
         21    1    1    2  504  501  0.46111555193E+02 -0.11106074812E+02  0.17281980073E+02  0.50480563143E+02  0.00000000000E+00 0. -1.
<mgrwt>
<rscale>  2 0.47430164E+02</rscale>
<asrwt>0</asrwt>
<pdfrwt beam="1">  1       21 0.72915559E-02 0.47430164E+02</pdfrwt>
<pdfrwt beam="2">  1       21 0.89563476E-02 0.47430164E+02</pdfrwt>
<totfact> 0.12249015E+07</totfact>
</mgrwt>
</event>
<event>
 4    1  0.4438654E+006  0.2164769E+02  0.7546771E-02  0.1714417E+00
         21   -1    0    0  502  501  0.00000000000E+00  0.00000000000E+00  0.80072571247E+01  0.80072571247E+01  0.00000000000E+00 0.  1.
         21   -1    0    0  503  502 -0.00000000000E+00 -0.00000000000E+00 -0.11377197174E+03  0.11377197174E+03  0.00000000000E+00 0. -1.
         21    1    1    2  503  504 -0.15065418127E+02  0.15545276286E+02 -0.95313130164E+02  0.97740550540E+02  0.00000000000E+00 0. -1.
         21    1    1    2  504  501  0.15065418127E+02 -0.15545276286E+02 -0.10451584455E+02  0.24038678329E+02  0.00000000000E+00 0.  1.
<mgrwt>
<rscale>  2 0.21647689E+02</rscale>
<asrwt>0</asrwt>
<pdfrwt beam="1">  1       21 0.12318857E-02 0.21647689E+02</pdfrwt>
<pdfrwt beam="2">  1       21 0.17503381E-01 0.21647689E+02</pdfrwt>
<totfact> 0.55809240E+07</totfact>
</mgrwt>
</event>
<event>
 4    1  0.4438654E+006  0.2191122E+02  0.7546771E-02  0.1709792E+00
         21   -1    0    0  503  501  0.00000000000E+00  0.00000000000E+00  0.14151350366E+03  0.14151350366E+03  0.00000000000E+00 0.  1.
         21   -1    0    0  504  502 -0.00000000000E+00 -0.00000000000E+00 -0.10636331909E+03  0.10636331909E+03  0.00000000000E+00 0. -1.
         21    1    1    2  503  502 -0.14989676287E+02  0.15981593195E+02 -0.10437069802E+03  0.10664588281E+03  0.00000000000E+00 0. -1.
         21    1    1    2  504  501  0.14989676287E+02 -0.15981593195E+02  0.13952088259E+03  0.14123093993E+03  0.00000000000E+00 0.  1.
<mgrwt>
<rscale>  2 0.21911224E+02</rscale>
<asrwt>0</asrwt>
<pdfrwt beam="1">  1       21 0.21771308E-01 0.21911224E+02</pdfrwt>
<pdfrwt beam="2">  1       21 0.16363588E-01 0.21911224E+02</pdfrwt>
<totfact> 0.62688325E+05</totfact>
</mgrwt>
</event>
<event>
 4    1  0.4438654E+006  0.3760199E+02  0.7546771E-02  0.1526638E+00
         21   -1    0    0  502  501  0.00000000000E+00  0.00000000000E+00  0.55710382420E+03  0.55710382420E+03  0.00000000000E+00 0.  1.
         21   -1    0    0  503  502 -0.00000000000E+00 -0.00000000000E+00 -0.33077965289E+01  0.33077965289E+01  0.00000000000E+00 0.  1.
         21    1    1    2  503  504 -0.37531670620E+02 -0.22985716271E+01  0.14172010312E+03  0.14662365893E+03  0.00000000000E+00 0.  1.
         21    1    1    2  504  501  0.37531670620E+02  0.22985716271E+01  0.41207592455E+03  0.41378796180E+03  0.00000000000E+00 0.  1.
<mgrwt>
<rscale>  2 0.37601991E+02</rscale>
<asrwt>0</asrwt>
<pdfrwt beam="1">  1       21 0.85708206E-01 0.37601991E+02</pdfrwt>
<pdfrwt beam="2">  1       21 0.50889222E-03 0.37601991E+02</pdfrwt>
<totfact> 0.11279941E+07</totfact>
</mgrwt>
</event>
<event>
 4    1  0.4438654E+006  0.3175654E+02  0.7546771E-02  0.1579446E+00
         21   -1    0    0  502  501  0.00000000000E+00  0.00000000000E+00  0.93633271782E+03  0.93633271782E+03  0.00000000000E+00 0.  1.
         21   -1    0    0  504  502 -0.00000000000E+00 -0.00000000000E+00 -0.50383866752E+01  0.50383866752E+01  0.00000000000E+00 0. -1.
         21    1    1    2  503  501 -0.24231042833E+02  0.20526423921E+02  0.88300250751E+03  0.88357337317E+03  0.00000000000E+00 0.  1.
         21    1    1    2  504  503  0.24231042833E+02 -0.20526423921E+02  0.48291823636E+02  0.57797731321E+02  0.00000000000E+00 0. -1.
<mgrwt>
<rscale>  2 0.31756535E+02</rscale>
<asrwt>0</asrwt>
<pdfrwt beam="1">  1       21 0.14405105E+00 0.31756535E+02</pdfrwt>
<pdfrwt beam="2">  1       21 0.77513716E-03 0.31756535E+02</pdfrwt>
<totfact> 0.18080803E+06</totfact>
</mgrwt>
</event>
<event>
 4    1  0.4438654E+006  0.2379181E+02  0.7546771E-02  0.1678987E+00
         21   -1    0    0  503  501  0.00000000000E+00  0.00000000000E+00  0.11772945059E+01  0.11772945059E+01  0.00000000000E+00 0. -1.
         21   -1    0    0  501  502 -0.00000000000E+00 -0.00000000000E+00 -0.51054102290E+03  0.51054102290E+03  0.00000000000E+00 0. -1.
         21    1    1    2  503  504 -0.18911058973E+02 -0.14436832791E+02 -0.19293433328E+03  0.19439574905E+03  0.00000000000E+00 0. -1.
         21    1    1    2  504  502  0.18911058973E+02  0.14436832791E+02 -0.31642939512E+03  0.31732256835E+03  0.00000000000E+00 0. -1.
<mgrwt>
<rscale>  2 0.23791811E+02</rscale>
<asrwt>0</asrwt>
<pdfrwt beam="1">  1       21 0.18112159E-03 0.23791811E+02</pdfrwt>
<pdfrwt beam="2">  1       21 0.78545050E-01 0.23791811E+02</pdfrwt>
<totfact> 0.57325624E+07</totfact>
</mgrwt>
</event>
<event>
 4    1  0.4438654E+006  0.3234423E+02  0.7546771E-02  0.1573534E+00
         21   -1    0    0  502  501  0.00000000000E+00  0.00000000000E+00  0.39097088438E+02  0.39097088438E+02  0.00000000000E+00 0.  1.
         21   -1    0    0  504  502 -0.00000000000E+00 -0.00000000000E+00 -0.12235570271E+03  0.12235570271E+03  0.00000000000E+00 0. -1.
         21    1    1    2  503  501  0.32264037850E+02 -0.22762076560E+01  0.29726249708E+02  0.43929479639E+02  0.00000000000E+00 0.  1.
         21    1    1    2  504  503 -0.32264037850E+02  0.22762076560E+01 -0.11298486398E+03  0.11752331151E+03  0.00000000000E+00 0. -1.
<mgrwt>
<rscale>  2 0.32344231E+02</rscale>
<asrwt>0</asrwt>
<pdfrwt beam="1">  1       21 0.60149368E-02 0.32344231E+02</pdfrwt>
<pdfrwt beam="2">  1       21 0.18823954E-01 0.32344231E+02</pdfrwt>
<totfact> 0.44619438E+06</totfact>
</mgrwt>
</event>
<event>
 4    1  0.4438654E+006  0.2619629E+02  0.7546771E-02  0.1644391E+00
         21   -1    0    0  502  501  0.00000000000E+00  0.00000000000E+00  0.23197682154E+03  0.23197682154E+03  0.00000000000E+00 0. -1.
         21   -1    0    0  503  502 -0.00000000000E+00 -0.00000000000E+00 -0.10932294863E+02  0.10932294863E+02  0.00000000000E+00 0. -1.
         21    1    1    2  503  504 -0.13259720819E+01  0.26162709469E+02  0.67939129025E+01  0.27062941844E+02  0.00000000000E+00 0. -1.
         21    1    1    2  504  501  0.13259720819E+01 -0.26162709469E+02  0.21425061378E+03  0.21584617456E+03  0.00000000000E+00 0. -1.
<mgrwt>
<rscale>  2 0.26196289E+02</rscale>
<asrwt>0</asrwt>
<pdfrwt beam="1">  1       21 0.35688738E-01 0.26196289E+02</pdfrwt>
<pdfrwt beam="2">  1       21 0.16818917E-02 0.26196289E+02</pdfrwt>
<totfact> 0.10132779E+07</totfact>
</mgrwt>
</event>
<event>
 4    1  0.4438654E+006  0.2500984E+02  0.7546771E-02  0.1660861E+00
         21   -1    0    0  503  501  0.00000000000E+00  0.00000000000E+00  0.34448991805E+02  0.34448991805E+02  0.00000000000E+00 0. -1.
         21   -1    0    0  501  502 -0.00000000000E+00 -0.00000000000E+00 -0.24327952198E+02  0.24327952198E+02  0.00000000000E+00 0.  1.
         21    1    1    2  503  504 -0.24996697261E+02  0.81070017203E+00  0.19861774029E+02  0.31937159804E+02  0.00000000000E+00 0. -1.
         21    1    1    2  504  502  0.24996697261E+02 -0.81070017203E+00 -0.97407344218E+01  0.26839784199E+02  0.00000000000E+00 0.  1.
<mgrwt>
<rscale>  2 0.25009840E+02</rscale>
<asrwt>0</asrwt>
<pdfrwt beam="1">  1       21 0.52998449E-02 0.25009840E+02</pdfrwt>
<pdfrwt beam="2">  1       21 0.37427619E-02 0.25009840E+02</pdfrwt>
<totfact> 0.75593013E+07</totfact>
</mgrwt>
</event>
<event>
 4    1  0.4438654E+006  0.2719786E+02  0.7546771E-02  0.1631302E+00
         21   -1    0    0  504  501  0.00000000000E+00  0.00000000000E+00  0.12593037839E+04  0.12593037839E+04  0.00000000000E+00 0.  1.
         21   -1    0    0  501  502 -0.00000000000E+00 -0.00000000000E+00 -0.92611535456E+00  0.92611535456E+00  0.00000000000E+00 0.  1.
         21    1    1    2  503  502  0.27034333817E+02 -0.29780084803E+01  0.24812278632E+03  0.24960897586E+03  0.00000000000E+00 0.  1.
         21    1    1    2  504  503 -0.27034333817E+02  0.29780084803E+01  0.10102548822E+04  0.10106209234E+04  0.00000000000E+00 0.  1.
<mgrwt>
<rscale>  2 0.27197863E+02</rscale>
<asrwt>0</asrwt>
<pdfrwt beam="1">  1       21 0.19373767E+00 0.27197863E+02</pdfrwt>
<pdfrwt beam="2">  1       21 0.14248029E-03 0.27197863E+02</pdfrwt>
<totfact> 0.10367089E+07</totfact>
</mgrwt>
</event>
<event>
 4    1  0.4438654E+006  0.2091851E+02  0.7546771E-02  0.1727656E+00
         21   -1    0    0  504  501  0.00000000000E+00  0.00000000000E+00  0.10728205593E+01  0.10728205593E+01  0.00000000000E+00 0. -1.
         21   -1    0    0  503  502 -0.00000000000E+00 -0.00000000000E+00 -0.41807821615E+03  0.41807821615E+03  0.00000000000E+00 0. -1.
         21    1    1    2  503  501  0.17219024800E+02  0.11878105840E+02 -0.17577383335E+03  0.17701419351E+03  0.00000000000E+00 0. -1.
         21    1    1    2  504  502 -0.17219024800E+02 -0.11878105840E+02 -0.24123156223E+03  0.24213684319E+03  0.00000000000E+00 0. -1.
<mgrwt>
<rscale>  2 0.20918514E+02</rscale>
<asrwt>0</asrwt>
<pdfrwt beam="1">  1       21 0.16504949E-03 0.20918514E+02</pdfrwt>
<pdfrwt beam="2">  1       21 0.64319660E-01 0.20918514E+02</pdfrwt>
<totfact> 0.95689284E+07</totfact>
</mgrwt>
</event>
<event>
 4    1  0.4438654E+006  0.2738397E+02  0.7546771E-02  0.1628947E+00
         21   -1    0    0  504  501  0.00000000000E+00  0.00000000000E+00  0.26146757597E+01  0.26146757597E+01  0.00000000000E+00 0.  1.
         21   -1    0    0  503  502 -0.00000000000E+00 -0.00000000000E+00 -0.28684274272E+03  0.28684274272E+03  0.00000000000E+00 0.  1.
         21    1    1    2  503  501 -0.27165100462E+02 -0.34552956093E+01 -0.14393719575E+03  0.14651893417E+03  0.00000000000E+00 0.  1.
         21    1    1    2  504  502  0.27165100462E+02  0.34552956093E+01 -0.14029087122E+03  0.14293848431E+03  0.00000000000E+00 0.  1.
<mgrwt>
<rscale>  2 0.27383969E+02</rscale>
<asrwt>0</asrwt>
<pdfrwt beam="1">  1       21 0.40225797E-03 0.27383969E+02</pdfrwt>
<pdfrwt beam="2">  1       21 0.44129635E-01 0.27383969E+02</pdfrwt>
<totfact> 0.58651127E+07</totfact>
</mgrwt>
</event>
<event>
 4    1  0.4438654E+006  0.2066978E+02  0.7546771E-02  0.1732328E+00
         21   -1    0    0  503  501  0.00000000000E+00  0.00000000000E+00  0.27032466453E+03  0.27032466453E+03  0.00000000000E+00 0. -1.
         21   -1    0    0  504  502 -0.00000000000E+00 -0.00000000000E+00 -0.34743735367E+01  0.34743735367E+01  0.00000000000E+00 0. -1.
         21    1    1    2  503  502  0.44740995917E+01  0.20179751558E+02  0.32350406019E+02  0.38389955844E+02  0.00000000000E+00 0. -1.
         21    1    1    2  504  501 -0.44740995917E+01 -0.20179751558E+02  0.23449988498E+03  0.23540908222E+03  0.00000000000E+00 0. -1.
<mgrwt>
<rscale>  2 0.20669783E+02</rscale>
<asrwt>0</asrwt>
<pdfrwt beam="1">  1       21 0.41588394E-01 0.20669783E+02</pdfrwt>
<pdfrwt beam="2">  1       21 0.53451922E-03 0.20669783E+02</pdfrwt>
<totfact> 0.40466127E+07</totfact>
</mgrwt>
</event>
<event>
 4    1  0.4438654E+006  0.5437958E+02  0.7546771E-02  0.1423056E+00
         21   -1    0    0  504  501  0.00000000000E+00  0.00000000000E+00  0.76208768826E+02  0.76208768826E+02  0.00000000000E+00 0. -1.
         21   -1    0    0  503  502 -0.00000000000E+00 -0.00000000000E+00 -0.10037565074E+03  0.10037565074E+03  0.00000000000E+00 0. -1.
         21    1    1    2  503  501 -0.28880709685E+02 -0.46076495653E+02 -0.81234950143E+02  0.97756104507E+02  0.00000000000E+00 0. -1.
         21    1    1    2  504  502  0.28880709685E+02  0.46076495653E+02  0.57068068229E+02  0.78828315059E+02  0.00000000000E+00 0. -1.
<mgrwt>
<rscale>  2 0.54379581E+02</rscale>
<asrwt>0</asrwt>
<pdfrwt beam="1">  1       21 0.11724426E-01 0.54379581E+02</pdfrwt>
<pdfrwt beam="2">  1       21 0.15442408E-01 0.54379581E+02</pdfrwt>
<totfact> 0.21712569E+06</totfact>
</mgrwt>
</event>
<event>
 4    1  0.4438654E+006  0.2202507E+02  0.7546771E-02  0.1707819E+00
         21   -1    0    0  503  501  0.00000000000E+00  0.00000000000E+00  0.22243475054E+03  0.22243475054E+03  0.00000000000E+00 0. -1.
         21   -1    0    0  504  502 -0.00000000000E+00 -0.00000000000E+00 -0.19182664235E+02  0.19182664235E+02  0.00000000000E+00 0. -1.
         21    1    1    2  503  502  0.21756391849E+02 -0.34297197199E+01 -0.12108142251E+02  0.25133855104E+02  0.00000000000E+00 0. -1.
         21    1    1    2  504  501 -0.21756391849E+02  0.34297197199E+01  0.21536022855E+03  0.21648355967E+03  0.00000000000E+00 0. -1.
<mgrwt>
<rscale>  2 0.22025067E+02</rscale>
<asrwt>0</asrwt>
<pdfrwt beam="1">  1       21 0.34220729E-01 0.22025067E+02</pdfrwt>
<pdfrwt beam="2">  1       21 0.29511793E-02 0.22025067E+02</pdfrwt>
<totfact> 0.44714992E+06</totfact>
</mgrwt>
</event>
<event>
 4    1  0.4438654E+006  0.2054701E+02  0.7546771E-02  0.1734664E+00
         21   -1    0    0  503  501  0.00000000000E+00  0.00000000000E+00  0.56234777449E+00  0.56234777449E+00  0.00000000000E+00 0. -1.
         21   -1    0    0  501  502 -0.00000000000E+00 -0.00000000000E+00 -0.75080572778E+03  0.75080572778E+03  0.00000000000E+00 0. -1.
         21    1    1    2  503  504  0.16648342606E+02  0.12042097633E+02 -0.37172554770E+03  0.37229297903E+03  0.00000000000E+00 0. -1.
         21    1    1    2  504  502 -0.16648342606E+02 -0.12042097633E+02 -0.37851783231E+03  0.37907509652E+03  0.00000000000E+00 0. -1.
<mgrwt>
<rscale>  2 0.20547005E+02</rscale>
<asrwt>0</asrwt>
<pdfrwt beam="1">  1       21 0.86515064E-04 0.20547005E+02</pdfrwt>
<pdfrwt beam="2">  1       21 0.11550854E+00 0.20547005E+02</pdfrwt>
<totfact> 0.69109126E+07</totfact>
</mgrwt>
</event>
<event>
 4    1  0.4438654E+006  0.2217460E+02  0.7546771E-02  0.1705250E+00
         21   -1    0    0  503  501  0.00000000000E+00  0.00000000000E+00  0.37237548081E+01  0.37237548081E+01  0.00000000000E+00 0. -1.
         21   -1    0    0  501  502 -0.00000000000E+00 -0.00000000000E+00 -0.28362850398E+03  0.28362850398E+03  0.00000000000E+00 0. -1.
         21    1    1    2  503  504 -0.20274739859E+02  0.89804090769E+01 -0.34917879345E+02  0.41363886683E+02  0.00000000000E+00 0. -1.
         21    1    1    2  504  502  0.20274739859E+02 -0.89804090769E+01 -0.24498686983E+03  0.24598837211E+03  0.00000000000E+00 0. -1.
<mgrwt>
<rscale>  2 0.22174599E+02</rscale>
<asrwt>0</asrwt>
<pdfrwt beam="1">  1       21 0.57288533E-03 0.22174599E+02</pdfrwt>
<pdfrwt beam="2">  1       21 0.43635156E-01 0.22174599E+02</pdfrwt>
<totfact> 0.33909582E+07</totfact>
</mgrwt>
</event>
<event>
 4    1  0.4438654E+006  0.2519819E+02  0.7546771E-02  0.1658171E+00
         21   -1    0    0  502  501  0.00000000000E+00  0.00000000000E+00  0.27673145838E+02  0.27673145838E+02  0.00000000000E+00 0.  1.
         21   -1    0    0  503  502 -0.00000000000E+00 -0.00000000000E+00 -0.26904410790E+02  0.26904410790E+02  0.00000000000E+00 0.  1.
         21    1    1    2  503  504 -0.24179074196E+01 -0.25081918069E+02 -0.10084755529E+02  0.27141318766E+02  0.00000000000E+00 0.  1.
         21    1    1    2  504  501  0.24179074196E+01  0.25081918069E+02  0.10853490577E+02  0.27436237862E+02  0.00000000000E+00 0.  1.
<mgrwt>
<rscale>  2 0.25198192E+02</rscale>
<asrwt>0</asrwt>
<pdfrwt beam="1">  1       21 0.42574071E-02 0.25198192E+02</pdfrwt>
<pdfrwt beam="2">  1       21 0.41391401E-02 0.25198192E+02</pdfrwt>
<totfact> 0.91588314E+07</totfact>
</mgrwt>
</event>
<event>
 4    1  0.4438654E+006  0.3346951E+02  0.7546771E-02  0.1562627E+00
         21   -1    0    0  502  501  0.00000000000E+00  0.00000000000E+00  0.98508721828E+02  0.98508721828E+02  0.00000000000E+00 0. -1.
         21   -1    0    0  504  502 -0.00000000000E+00 -0.00000000000E+00 -0.88223541571E+02  0.88223541571E+02  0.00000000000E+00 0.  1.
         21    1    1    2  503  501  0.33421749267E+02 -0.17874215716E+01  0.92283955357E+02  0.98165862785E+02  0.00000000000E+00 0. -1.
         21    1    1    2  504  503 -0.33421749267E+02  0.17874215716E+01 -0.81998775100E+02  0.88566400614E+02  0.00000000000E+00 0.  1.
<mgrwt>
<rscale>  2 0.33469511E+02</rscale>
<asrwt>0</asrwt>
<pdfrwt beam="1">  1       21 0.15155188E-01 0.33469511E+02</pdfrwt>
<pdfrwt beam="2">  1       21 0.13572853E-01 0.33469511E+02</pdfrwt>
<totfact> 0.16815049E+06</totfact>
</mgrwt>
</event>
<event>
 4    1  0.4438654E+006  0.2242928E+02  0.7546771E-02  0.1700932E+00
         21   -1    0    0  504  501  0.00000000000E+00  0.00000000000E+00  0.13918223250E+02  0.13918223250E+02  0.00000000000E+00 0.  1.
         21   -1    0    0  501  502 -0.00000000000E+00 -0.00000000000E+00 -0.24696920734E+03  0.24696920734E+03  0.00000000000E+00 0. -1.
         21    1    1    2  503  502  0.21156542159E+02  0.74480491753E+01 -0.23704631889E+03  0.23810508187E+03  0.00000000000E+00 0. -1.
         21    1    1    2  504  503 -0.21156542159E+02 -0.74480491753E+01  0.39953348077E+01  0.22782348713E+02  0.00000000000E+00 0.  1.
<mgrwt>
<rscale>  2 0.22429282E+02</rscale>
<asrwt>0</asrwt>
<pdfrwt beam="1">  1       21 0.21412651E-02 0.22429282E+02</pdfrwt>
<pdfrwt beam="2">  1       21 0.37995263E-01 0.22429282E+02</pdfrwt>
<totfact> 0.60622088E+06</totfact>
</mgrwt>
</event>
<event>
 4    1  0.4438654E+006  0.2564368E+02  0.7546771E-02  0.1651925E+00
         21   -1    0    0  503  501  0.00000000000E+00  0.00000000000E+00  0.70906459571E+02  0.70906459571E+02  0.00000000000E+00 0.  1.
         21   -1    0    0  504  502 -0.00000000000E+00 -0.00000000000E+00 -0.15762783908E+02  0.15762783908E+02  0.00000000000E+00 0. -1.
         21    1    1    2  503  502  0.62047179055E+01 -0.24881716620E+02  0.55375027130E+02  0.61024519465E+02  0.00000000000E+00 0.  1.
         21    1    1    2  504  501 -0.62047179055E+01  0.24881716620E+02 -0.23135146709E+00  0.25644724014E+02  0.00000000000E+00 0. -1.
<mgrwt>
<rscale>  2 0.25643680E+02</rscale>
<asrwt>0</asrwt>
<pdfrwt beam="1">  1       21 0.10908686E-01 0.25643680E+02</pdfrwt>
<pdfrwt beam="2">  1       21 0.24250437E-02 0.25643680E+02</pdfrwt>
<totfact> 0.46070014E+07</totfact>
</mgrwt>
</event>
<event>
 4    1  0.4438654E+006  0.2024090E+02  0.7546771E-02  0.1740579E+00
         21   -1    0    0  502  501  0.00000000000E+00  0.00000000000E+00  0.50889754537E+03  0.50889754537E+03  0.00000000000E+00 0.  1.
         21   -1    0    0  503  502 -0.00000000000E+00 -0.00000000000E+00 -0.21454610133E+02  0.21454610133E+02  0.00000000000E+00 0. -1.
         21    1    1    2  503  504 -0.20207912571E+02  0.11551316715E+01 -0.16431812310E+02  0.26071028278E+02  0.00000000000E+00 0. -1.
         21    1    1    2  504  501  0.20207912571E+02 -0.11551316715E+01  0.50387474755E+03  0.50428112723E+03  0.00000000000E+00 0.  1.
<mgrwt>
<rscale>  2 0.20240901E+02</rscale>
<asrwt>0</asrwt>
<pdfrwt beam="1">  1       21 0.78291921E-01 0.20240901E+02</pdfrwt>
<pdfrwt beam="2">  1       21 0.33007096E-02 0.20240901E+02</pdfrwt>
<totfact> 0.73980770E+05</totfact>
</mgrwt>
</event>
<event>
 4    1  0.4438654E+006  0.2651048E+02  0.7546771E-02  0.1640208E+00
         21   -1    0    0  503  501  0.00000000000E+00  0.00000000000E+00  0.33964104913E+01  0.33964104913E+01  0.00000000000E+00 0.  1.
         21   -1    0    0  504  502 -0.00000000000E+00 -0.00000000000E+00 -0.33939729376E+03  0.33939729376E+03  0.00000000000E+00 0.  1.
         21    1    1    2  503  502  0.44421666148E+00  0.26506759009E+02 -0.60920146380E+02  0.66438466543E+02  0.00000000000E+00 0.  1.
         21    1    1    2  504  501 -0.44421666148E+00 -0.26506759009E+02 -0.27508073689E+03  0.27635523770E+03  0.00000000000E+00 0.  1.
<mgrwt>
<rscale>  2 0.26510481E+02</rscale>
<asrwt>0</asrwt>
<pdfrwt beam="1">  1       21 0.52252444E-03 0.26510481E+02</pdfrwt>
<pdfrwt beam="2">  1       21 0.52214994E-01 0.26510481E+02</pdfrwt>
<totfact> 0.28518025E+07</totfact>
</mgrwt>
</event>
<event>
 4    1  0.4438654E+006  0.2077308E+02  0.7546771E-02  0.1730377E+00
         21   -1    0    0  502  501  0.00000000000E+00  0.00000000000E+00  0.29134605653E+03  0.29134605653E+03  0.00000000000E+00 0. -1.
         21   -1    0    0  503  502 -0.00000000000E+00 -0.00000000000E+00 -0.45987620214E+01  0.45987620214E+01  0.00000000000E+00 0.  1.
         21    1    1    2  503  504  0.14167317425E+02  0.15192366403E+02  0.21538434963E+02  0.29923653865E+02  0.00000000000E+00 0.  1.
         21    1    1    2  504  501 -0.14167317425E+02 -0.15192366403E+02  0.26520885955E+03  0.26602116469E+03  0.00000000000E+00 0. -1.
<mgrwt>
<rscale>  2 0.20773081E+02</rscale>
<asrwt>0</asrwt>
<pdfrwt beam="1">  1       21 0.44822456E-01 0.20773081E+02</pdfrwt>
<pdfrwt beam="2">  1       21 0.70750208E-03 0.20773081E+02</pdfrwt>
<totfact> 0.23232064E+07</totfact>
</mgrwt>
</event>
<event>
 4    1  0.4438654E+006  0.2330950E+02  0.7546771E-02  0.1686542E+00
         21   -1    0    0  503  501  0.00000000000E+00  0.00000000000E+00  0.47735933992E+02  0.47735933992E+02  0.00000000000E+00 0.  1.
         21   -1    0    0  501  502 -0.00000000000E+00 -0.00000000000E+00 -0.14320956228E+02  0.14320956228E+02  0.00000000000E+00 0.  1.
         21    1    1    2  503  504 -0.67046817770E+00 -0.23299858098E+02  0.30763648218E+02  0.38597084950E+02  0.00000000000E+00 0.  1.
         21    1    1    2  504  502  0.67046817770E+00  0.23299858098E+02  0.26513295460E+01  0.23459805270E+02  0.00000000000E+00 0.  1.
<mgrwt>
<rscale>  2 0.23309503E+02</rscale>
<asrwt>0</asrwt>
<pdfrwt beam="1">  1       21 0.73439898E-02 0.23309503E+02</pdfrwt>
<pdfrwt beam="2">  1       21 0.22032241E-02 0.23309503E+02</pdfrwt>
<totfact> 0.10002352E+08</totfact>
</mgrwt>
</event>
<event>
 4    1  0.4438654E+006  0.2580431E+02  0.7546771E-02  0.1649711E+00
         21   -1    0    0  504  501  0.00000000000E+00  0.00000000000E+00  0.40527261361E+03  0.40527261361E+03  0.00000000000E+00 0. -1.
         21   -1    0    0  503  502 -0.00000000000E+00 -0.00000000000E+00 -0.58194799508E+01  0.58194799508E+01  0.00000000000E+00 0. -1.
         21    1    1    2  503  501  0.24779234311E+02 -0.72008267668E+01  0.25597083765E+02  0.36346568702E+02  0.00000000000E+00 0. -1.
         21    1    1    2  504  502 -0.24779234311E+02  0.72008267668E+01  0.37385604990E+03  0.37474552486E+03  0.00000000000E+00 0. -1.
<mgrwt>
<rscale>  2 0.25804309E+02</rscale>
<asrwt>0</asrwt>
<pdfrwt beam="1">  1       21 0.62349611E-01 0.25804309E+02</pdfrwt>
<pdfrwt beam="2">  1       21 0.89530493E-03 0.25804309E+02</pdfrwt>
<totfact> 0.89168146E+06</totfact>
</mgrwt>
</event>
<event>
 4    1  0.4438654E+006  0.2109722E+02  0.7546771E-02  0.1724350E+00
         21   -1    0    0  504  501  0.00000000000E+00  0.00000000000E+00  0.11490404003E+02  0.11490404003E+02  0.00000000000E+00 0.  1.
         21   -1    0    0  503  502 -0.00000000000E+00 -0.00000000000E+00 -0.57190347804E+02  0.57190347804E+02  0.00000000000E+00 0.  1.
         21    1    1    2  503  501  0.17905150177E+01 -0.21021103349E+02 -0.33428779561E+01  0.21360420480E+02  0.00000000000E+00 0.  1.
         21    1    1    2  504  502 -0.17905150177E+01  0.21021103349E+02 -0.42357065844E+02  0.47320331328E+02  0.00000000000E+00 0.  1.
<mgrwt>
<rscale>  2 0.21097221E+02</rscale>
<asrwt>0</asrwt>
<pdfrwt beam="1">  1       21 0.17677545E-02 0.21097221E+02</pdfrwt>
<pdfrwt beam="2">  1       21 0.87985151E-02 0.21097221E+02</pdfrwt>
<totfact> 0.10143169E+08</totfact>
</mgrwt>
</event>
<event>
 4    1  0.4438654E+006  0.2236576E+02  0.7546771E-02  0.1702002E+00
         21   -1    0    0  503  501  0.00000000000E+00  0.00000000000E+00  0.13003312627E+02  0.13003312627E+02  0.00000000000E+00 0. -1.
         21   -1    0    0  504  502 -0.00000000000E+00 -0.00000000000E+00 -0.22602900340E+03  0.22602900340E+03  0.00000000000E+00 0.  1.
         21    1    1    2  503  502 -0.18739938503E+02  0.12208269801E+02 -0.21538439717E+03  0.21654252628E+03  0.00000000000E+00 0.  1.
         21    1    1    2  504  501  0.18739938503E+02 -0.12208269801E+02  0.23587063968E+01  0.22489789739E+02  0.00000000000E+00 0. -1.
<mgrwt>
<rscale>  2 0.22365758E+02</rscale>
<asrwt>0</asrwt>
<pdfrwt beam="1">  1       21 0.20005097E-02 0.22365758E+02</pdfrwt>
<pdfrwt beam="2">  1       21 0.34773692E-01 0.22365758E+02</pdfrwt>
<totfact> 0.79297172E+06</totfact>
</mgrwt>
</event>
<event>
 4    1  0.4438654E+006  0.2380344E+02  0.7546771E-02  0.1678808E+00
         21   -1    0    0  504  501  0.00000000000E+00  0.00000000000E+00  0.50781720394E+02  0.50781720394E+02  0.00000000000E+00 0. -1.
         21   -1    0    0  503  502 -0.00000000000E+00 -0.00000000000E+00 -0.16404981503E+02  0.16404981503E+02  0.00000000000E+00 0. -1.
         21    1    1    2  503  501  0.10315873155E+02  0.21451961344E+02  0.36187570541E+02  0.43314479635E+02  0.00000000000E+00 0. -1.
         21    1    1    2  504  502 -0.10315873155E+02 -0.21451961344E+02 -0.18108316503E+01  0.23872222262E+02  0.00000000000E+00 0. -1.
<mgrwt>
<rscale>  2 0.23803443E+02</rscale>
<asrwt>0</asrwt>
<pdfrwt beam="1">  1       21 0.78125723E-02 0.23803443E+02</pdfrwt>
<pdfrwt beam="2">  1       21 0.25238433E-02 0.23803443E+02</pdfrwt>
<totfact> 0.73752410E+07</totfact>
</mgrwt>
</event>
<event>
 4    1  0.4438654E+006  0.3453809E+02  0.7546771E-02  0.1552741E+00
         21   -1    0    0  504  501  0.00000000000E+00  0.00000000000E+00  0.15450286375E+03  0.15450286375E+03  0.00000000000E+00 0. -1.
         21   -1    0    0  503  502 -0.00000000000E+00 -0.00000000000E+00 -0.77701861244E+01  0.77701861244E+01  0.00000000000E+00 0. -1.
         21    1    1    2  503  501 -0.33851018029E+02  0.68548019388E+01  0.66895311111E+02  0.75285206913E+02  0.00000000000E+00 0. -1.
         21    1    1    2  504  502  0.33851018029E+02 -0.68548019388E+01  0.79837366519E+02  0.86987842967E+02  0.00000000000E+00 0. -1.
<mgrwt>
<rscale>  2 0.34538091E+02</rscale>
<asrwt>0</asrwt>
<pdfrwt beam="1">  1       21 0.23769669E-01 0.34538091E+02</pdfrwt>
<pdfrwt beam="2">  1       21 0.11954134E-02 0.34538091E+02</pdfrwt>
<totfact> 0.37854188E+07</totfact>
</mgrwt>
</event>
<event>
 4    1  0.4438654E+006  0.2390465E+02  0.7546771E-02  0.1677252E+00
         21   -1    0    0  502  501  0.00000000000E+00  0.00000000000E+00  0.13481076202E+02  0.13481076202E+02  0.00000000000E+00 0.  1.
         21   -1    0    0  503  502 -0.00000000000E+00 -0.00000000000E+00 -0.38040138349E+03  0.38040138349E+03  0.00000000000E+00 0. -1.
         21    1    1    2  503  504 -0.12215682083E+02 -0.20547733025E+02 -0.36910492556E+03  0.36987819386E+03  0.00000000000E+00 0. -1.
         21    1    1    2  504  501  0.12215682083E+02  0.20547733025E+02  0.21846182688E+01  0.24004265834E+02  0.00000000000E+00 0.  1.
<mgrwt>
<rscale>  2 0.23904649E+02</rscale>
<asrwt>0</asrwt>
<pdfrwt beam="1">  1       21 0.20740117E-02 0.23904649E+02</pdfrwt>
<pdfrwt beam="2">  1       21 0.58523291E-01 0.23904649E+02</pdfrwt>
<totfact> 0.27935173E+06</totfact>
</mgrwt>
</event>
<event>
 4    1  0.4438654E+006  0.3658006E+02  0.7546771E-02  0.1535001E+00
         21   -1    0    0  504  501  0.00000000000E+00  0.00000000000E+00  0.36099876097E+03  0.36099876097E+03  0.00000000000E+00 0. -1.
         21   -1    0    0  503  502 -0.00000000000E+00 -0.00000000000E+00 -0.50873894041E+02  0.50873894041E+02  0.00000000000E+00 0.  1.
         21    1    1    2  503  501 -0.35872375818E+02 -0.71605379675E+01 -0.43229782061E+02  0.56629627474E+02  0.00000000000E+00 0.  1.
         21    1    1    2  504  502  0.35872375818E+02  0.71605379675E+01  0.35335464899E+03  0.35524302753E+03  0.00000000000E+00 0. -1.
<mgrwt>
<rscale>  2 0.36580058E+02</rscale>
<asrwt>0</asrwt>
<pdfrwt beam="1">  1       21 0.55538269E-01 0.36580058E+02</pdfrwt>
<pdfrwt beam="2">  1       21 0.78267532E-02 0.36580058E+02</pdfrwt>
<totfact> 0.38556491E+05</totfact>
</mgrwt>
</event>
<event>
 4    1  0.4438654E+006  0.2383534E+02  0.7546771E-02  0.1678317E+00
         21   -1    0    0  504  501  0.00000000000E+00  0.00000000000E+00  0.43591196351E+03  0.43591196351E+03  0.00000000000E+00 0.  1.
         21   -1    0    0  503  502 -0.00000000000E+00 -0.00000000000E+00 -0.16390630316E+02  0.16390630316E+02  0.00000000000E+00 0.  1.
         21    1    1    2  503  501 -0.15441079979E+02 -0.18157548030E+02 -0.72132222582E+01  0.24902892939E+02  0.00000000000E+00 0.  1.
         21    1    1    2  504  502  0.15441079979E+02  0.18157548030E+02  0.42673455546E+03  0.42739970089E+03  0.00000000000E+00 0.  1.
<mgrwt>
<rscale>  2 0.23835341E+02</rscale>
<asrwt>0</asrwt>
<pdfrwt beam="1">  1       21 0.67063370E-01 0.23835341E+02</pdfrwt>
<pdfrwt beam="2">  1       21 0.25216358E-02 0.23835341E+02</pdfrwt>
<totfact> 0.15692310E+06</totfact>
</mgrwt>
</event>
<event>
 4    1  0.4438654E+006  0.4496087E+02  0.7546771E-02  0.1474586E+00
         21   -1    0    0  503  501  0.00000000000E+00  0.00000000000E+00  0.20278715529E+03  0.20278715529E+03  0.00000000000E+00 0. -1.
         21   -1    0    0  504  502 -0.00000000000E+00 -0.00000000000E+00 -0.22831538283E+02  0.22831538283E+02  0.00000000000E+00 0.  1.
         21    1    1    2  503  502  0.15944939231E+01 -0.44932586626E+02  0.53038989485E+01  0.45272630759E+02  0.00000000000E+00 0.  1.
         21    1    1    2  504  501 -0.15944939231E+01  0.44932586626E+02  0.17465171805E+03  0.18034606281E+03  0.00000000000E+00 0. -1.
<mgrwt>
<rscale>  2 0.44960869E+02</rscale>
<asrwt>0</asrwt>
<pdfrwt beam="1">  1       21 0.31198023E-01 0.44960869E+02</pdfrwt>
<pdfrwt beam="2">  1       21 0.35125445E-02 0.44960869E+02</pdfrwt>
<totfact> 0.44106277E+06</totfact>
</mgrwt>
</event>
<event>
 4    1  0.4438654E+006  0.2240316E+02  0.7546771E-02  0.1701371E+00
         21   -1    0    0  503  501  0.00000000000E+00  0.00000000000E+00  0.23382476991E+00  0.23382476991E+00  0.00000000000E+00 0.  1.
         21   -1    0    0  501  502 -0.00000000000E+00 -0.00000000000E+00 -0.22922433155E+04  0.22922433155E+04  0.00000000000E+00 0.  1.
         21    1    1    2  503  504 -0.21763054220E+02  0.53170723740E+01 -0.85696430220E+03  0.85725708922E+03  0.00000000000E+00 0.  1.
         21    1    1    2  504  502  0.21763054220E+02 -0.53170723740E+01 -0.14350451885E+04  0.14352200510E+04  0.00000000000E+00 0.  1.
<mgrwt>
<rscale>  2 0.22403165E+02</rscale>
<asrwt>0</asrwt>
<pdfrwt beam="1">  1       21 0.35972858E-04 0.22403165E+02</pdfrwt>
<pdfrwt beam="2">  1       21 0.35265461E+00 0.22403165E+02</pdfrwt>
<totfact> 0.11386187E+07</totfact>
</mgrwt>
</event>
<event>
 4    1  0.4438654E+006  0.2353750E+02  0.7546771E-02  0.1682943E+00
         21   -1    0    0  503  501  0.00000000000E+00  0.00000000000E+00  0.63606281685E+01  0.63606281685E+01  0.00000000000E+00 0.  1.
         21   -1    0    0  504  502 -0.00000000000E+00 -0.00000000000E+00 -0.87121647904E+02  0.87121647904E+02  0.00000000000E+00 0. -1.
         21    1    1    2  503  502  0.25007990072E+01  0.23404274483E+02 -0.39652726945E+02  0.46112393279E+02  0.00000000000E+00 0.  1.
         21    1    1    2  504  501 -0.25007990072E+01 -0.23404274483E+02 -0.41108292791E+02  0.47369882794E+02  0.00000000000E+00 0. -1.
<mgrwt>
<rscale>  2 0.23537503E+02</rscale>
<asrwt>0</asrwt>
<pdfrwt beam="1">  1       21 0.97855819E-03 0.23537503E+02</pdfrwt>
<pdfrwt beam="2">  1       21 0.13403330E-01 0.23537503E+02</pdfrwt>
<totfact> 0.12726820E+08</totfact>
</mgrwt>
</event>
<event>
 4    1  0.4438654E+006  0.4380722E+02  0.7546771E-02  0.1481928E+00
         21   -1    0    0  503  501  0.00000000000E+00  0.00000000000E+00  0.42412602891E+02  0.42412602891E+02  0.00000000000E+00 0.  1.
         21   -1    0    0  504  502 -0.00000000000E+00 -0.00000000000E+00 -0.32047200129E+03  0.32047200129E+03  0.00000000000E+00 0. -1.
         21    1    1    2  503  502 -0.42570458672E+02  0.10335801769E+02 -0.30717583449E+03  0.31028384754E+03  0.00000000000E+00 0. -1.
         21    1    1    2  504  501  0.42570458672E+02 -0.10335801769E+02  0.29116436084E+02  0.52600756649E+02  0.00000000000E+00 0.  1.
<mgrwt>
<rscale>  2 0.43807223E+02</rscale>
<asrwt>0</asrwt>
<pdfrwt beam="1">  1       21 0.65250159E-02 0.43807223E+02</pdfrwt>
<pdfrwt beam="2">  1       21 0.49303384E-01 0.43807223E+02</pdfrwt>
<totfact> 0.66467976E+05</totfact>
</mgrwt>
</event>
<event>
 4    1  0.4438654E+006  0.2060094E+02  0.7546771E-02  0.1733635E+00
         21   -1    0    0  502  501  0.00000000000E+00  0.00000000000E+00  0.12166782441E+01  0.12166782441E+01  0.00000000000E+00 0. -1.
         21   -1    0    0  503  502 -0.00000000000E+00 -0.00000000000E+00 -0.73798267219E+03  0.73798267219E+03  0.00000000000E+00 0.  1.
         21    1    1    2  503  504 -0.21415554741E+01  0.20489323796E+02 -0.63677865658E+03  0.63711180818E+03  0.00000000000E+00 0.  1.
         21    1    1    2  504  501  0.21415554741E+01 -0.20489323796E+02 -0.99987337366E+02  0.10208754225E+03  0.00000000000E+00 0. -1.
<mgrwt>
<rscale>  2 0.20600938E+02</rscale>
<asrwt>0</asrwt>
<pdfrwt beam="1">  1       21 0.18718114E-03 0.20600938E+02</pdfrwt>
<pdfrwt beam="2">  1       21 0.11353587E+00 0.20600938E+02</pdfrwt>
<totfact> 0.23921018E+07</totfact>
</mgrwt>
</event>
<event>
 4    1  0.4438654E+006  0.2193009E+02  0.7546771E-02  0.1709464E+00
         21   -1    0    0  504  501  0.00000000000E+00  0.00000000000E+00  0.17051388934E+03  0.17051388934E+03  0.00000000000E+00 0.  1.
         21   -1    0    0  503  502 -0.00000000000E+00 -0.00000000000E+00 -0.20988895305E+03  0.20988895305E+03  0.00000000000E+00 0.  1.
         21    1    1    2  503  501 -0.19774757416E+02 -0.94809132443E+01 -0.20860667689E+03  0.20975622611E+03  0.00000000000E+00 0.  1.
         21    1    1    2  504  502  0.19774757416E+02  0.94809132443E+01  0.16923161319E+03  0.17064661628E+03  0.00000000000E+00 0.  1.
<mgrwt>
<rscale>  2 0.21930088E+02</rscale>
<asrwt>0</asrwt>
<pdfrwt beam="1">  1       21 0.26232906E-01 0.21930088E+02</pdfrwt>
<pdfrwt beam="2">  1       21 0.32290608E-01 0.21930088E+02</pdfrwt>
<totfact> 0.13562876E+05</totfact>
</mgrwt>
</event>
<event>
 4    1  0.4438654E+006  0.2205273E+02  0.7546771E-02  0.1707342E+00
         21   -1    0    0  503  501  0.00000000000E+00  0.00000000000E+00  0.19919589679E+01  0.19919589679E+01  0.00000000000E+00 0. -1.
         21   -1    0    0  504  502 -0.00000000000E+00 -0.00000000000E+00 -0.32117107693E+03  0.32117107693E+03  0.00000000000E+00 0. -1.
         21    1    1    2  503  502  0.96967038013E+01 -0.19806483150E+02 -0.23872080348E+03  0.23973724128E+03  0.00000000000E+00 0. -1.
         21    1    1    2  504  501 -0.96967038013E+01  0.19806483150E+02 -0.80458314482E+02  0.83425794625E+02  0.00000000000E+00 0. -1.
<mgrwt>
<rscale>  2 0.22052729E+02</rscale>
<asrwt>0</asrwt>
<pdfrwt beam="1">  1       21 0.30645504E-03 0.22052729E+02</pdfrwt>
<pdfrwt beam="2">  1       21 0.49410964E-01 0.22052729E+02</pdfrwt>
<totfact> 0.66773599E+07</totfact>
</mgrwt>
</event>
<event>
 4    1  0.4438654E+006  0.2389354E+02  0.7546771E-02  0.1677423E+00
         21   -1    0    0  503  501  0.00000000000E+00  0.00000000000E+00  0.42146900336E+02  0.42146900336E+02  0.00000000000E+00 0.  1.
         21   -1    0    0  504  502 -0.00000000000E+00 -0.00000000000E+00 -0.38876185587E+02  0.38876185587E+02  0.00000000000E+00 0. -1.
         21    1    1    2  503  502  0.79563243690E+01 -0.22529938353E+02 -0.31065591583E+02  0.39191481218E+02  0.00000000000E+00 0. -1.
         21    1    1    2  504  501 -0.79563243690E+01  0.22529938353E+02  0.34336306332E+02  0.41831604705E+02  0.00000000000E+00 0.  1.
<mgrwt>
<rscale>  2 0.23893539E+02</rscale>
<asrwt>0</asrwt>
<pdfrwt beam="1">  1       21 0.64841385E-02 0.23893539E+02</pdfrwt>
<pdfrwt beam="2">  1       21 0.59809516E-02 0.23893539E+02</pdfrwt>
<totfact> 0.25626965E+07</totfact>
</mgrwt>
</event>
<event>
 4    1  0.4438654E+006  0.2557114E+02  0.7546771E-02  0.1652931E+00
         21   -1    0    0  502  501  0.00000000000E+00  0.00000000000E+00  0.17236161322E+02  0.17236161322E+02  0.00000000000E+00 0.  1.
         21   -1    0    0  504  502 -0.00000000000E+00 -0.00000000000E+00 -0.56674313282E+02  0.56674313282E+02  0.00000000000E+00 0.  1.
         21    1    1    2  503  501 -0.15269246856E+02 -0.20511785660E+02  0.15299919088E+01  0.25616871896E+02  0.00000000000E+00 0.  1.
         21    1    1    2  504  503  0.15269246856E+02  0.20511785660E+02 -0.40968143868E+02  0.48293602708E+02  0.00000000000E+00 0.  1.
<mgrwt>
<rscale>  2 0.25571141E+02</rscale>
<asrwt>0</asrwt>
<pdfrwt beam="1">  1       21 0.26517171E-02 0.25571141E+02</pdfrwt>
<pdfrwt beam="2">  1       21 0.87191251E-02 0.25571141E+02</pdfrwt>
<totfact> 0.58109918E+07</totfact>
</mgrwt>
</event>
<event>
 4    1  0.4438654E+006  0.2196548E+02  0.7546771E-02  0.1708850E+00
         21   -1    0    0  502  501  0.00000000000E+00  0.00000000000E+00  0.88819986568E+02  0.88819986568E+02  0.00000000000E+00 0. -1.
         21   -1    0    0  503  502 -0.00000000000E+00 -0.00000000000E+00 -0.10316957284E+02  0.10316957284E+02  0.00000000000E+00 0. -1.
         21    1    1    2  503  504 -0.19496702370E+02  0.10117366491E+02  0.51436977001E+01  0.22559701551E+02  0.00000000000E+00 0. -1.
         21    1    1    2  504  501  0.19496702370E+02 -0.10117366491E+02  0.73359331584E+02  0.76577242301E+02  0.00000000000E+00 0. -1.
<mgrwt>
<rscale>  2 0.21965484E+02</rscale>
<asrwt>0</asrwt>
<pdfrwt beam="1">  1       21 0.13664613E-01 0.21965484E+02</pdfrwt>
<pdfrwt beam="2">  1       21 0.15872243E-02 0.21965484E+02</pdfrwt>
<totfact> 0.58191294E+07</totfact>
</mgrwt>
</event>
<event>
 4    1  0.4438654E+006  0.2213287E+02  0.7546771E-02  0.1705964E+00
         21   -1    0    0  503  501  0.00000000000E+00  0.00000000000E+00  0.11135456050E+04  0.11135456050E+04  0.00000000000E+00 0.  1.
         21   -1    0    0  504  502 -0.00000000000E+00 -0.00000000000E+00 -0.69187451423E+00  0.69187451423E+00  0.00000000000E+00 0.  1.
         21    1    1    2  503  502  0.21996909409E+02  0.24494652354E+01  0.89262914285E+03  0.89290349455E+03  0.00000000000E+00 0.  1.
         21    1    1    2  504  501 -0.21996909409E+02 -0.24494652354E+01  0.22022458762E+03  0.22133398496E+03  0.00000000000E+00 0.  1.
<mgrwt>
<rscale>  2 0.22132869E+02</rscale>
<asrwt>0</asrwt>
<pdfrwt beam="1">  1       21 0.17131328E+00 0.22132869E+02</pdfrwt>
<pdfrwt beam="2">  1       21 0.10644312E-03 0.22132869E+02</pdfrwt>
<totfact> 0.20854663E+07</totfact>
</mgrwt>
</event>
<event>
 4    1  0.4438654E+006  0.4064665E+02  0.7546771E-02  0.1503506E+00
         21   -1    0    0  503  501  0.00000000000E+00  0.00000000000E+00  0.33410853195E+01  0.33410853195E+01  0.00000000000E+00 0.  1.
         21   -1    0    0  504  502 -0.00000000000E+00 -0.00000000000E+00 -0.10547193520E+04  0.10547193520E+04  0.00000000000E+00 0.  1.
         21    1    1    2  503  502  0.15974066977E+02  0.37376192031E+02 -0.14012826553E+03  0.14590435685E+03  0.00000000000E+00 0.  1.
         21    1    1    2  504  501 -0.15974066977E+02 -0.37376192031E+02 -0.91125000119E+03  0.91215608052E+03  0.00000000000E+00 0.  1.
<mgrwt>
<rscale>  2 0.40646655E+02</rscale>
<asrwt>0</asrwt>
<pdfrwt beam="1">  1       21 0.51401217E-03 0.40646655E+02</pdfrwt>
<pdfrwt beam="2">  1       21 0.16226482E+00 0.40646655E+02</pdfrwt>
<totfact> 0.25420292E+06</totfact>
</mgrwt>
</event>
<event>
 4    1  0.4438654E+006  0.3016078E+02  0.7546771E-02  0.1596318E+00
         21   -1    0    0  503  501  0.00000000000E+00  0.00000000000E+00  0.10166520408E+04  0.10166520408E+04  0.00000000000E+00 0.  1.
         21   -1    0    0  504  502 -0.00000000000E+00 -0.00000000000E+00 -0.34032692814E+02  0.34032692814E+02  0.00000000000E+00 0. -1.
         21    1    1    2  503  502  0.15962620626E+01  0.30118508040E+02 -0.27080656742E+02  0.40534362566E+02  0.00000000000E+00 0. -1.
         21    1    1    2  504  501 -0.15962620626E+01 -0.30118508040E+02  0.10097000047E+04  0.10101503710E+04  0.00000000000E+00 0.  1.
<mgrwt>
<rscale>  2 0.30160779E+02</rscale>
<asrwt>0</asrwt>
<pdfrwt beam="1">  1       21 0.15640798E+00 0.30160779E+02</pdfrwt>
<pdfrwt beam="2">  1       21 0.52357997E-02 0.30160779E+02</pdfrwt>
<totfact> 0.76138510E+04</totfact>
</mgrwt>
</event>
<event>
 4    1  0.4438654E+006  0.4615749E+02  0.7546771E-02  0.1467242E+00
         21   -1    0    0  503  501  0.00000000000E+00  0.00000000000E+00  0.62441286554E+03  0.62441286554E+03  0.00000000000E+00 0. -1.
         21   -1    0    0  501  502 -0.00000000000E+00 -0.00000000000E+00 -0.34404089897E+01  0.34404089897E+01  0.00000000000E+00 0. -1.
         21    1    1    2  503  504 -0.41836242177E+02 -0.19499802859E+02  0.28197305218E+03  0.28572594496E+03  0.00000000000E+00 0. -1.
         21    1    1    2  504  502  0.41836242177E+02  0.19499802859E+02  0.33899940438E+03  0.34212732957E+03  0.00000000000E+00 0. -1.
<mgrwt>
<rscale>  2 0.46157486E+02</rscale>
<asrwt>0</asrwt>
<pdfrwt beam="1">  1       21 0.96063428E-01 0.46157486E+02</pdfrwt>
<pdfrwt beam="2">  1       21 0.52929419E-03 0.46157486E+02</pdfrwt>
<totfact> 0.84624362E+06</totfact>
</mgrwt>
</event>
<event>
 4    1  0.4438654E+006  0.2066744E+02  0.7546771E-02  0.1732372E+00
         21   -1    0    0  503  501  0.00000000000E+00  0.00000000000E+00  0.83464545294E+03  0.83464545294E+03  0.00000000000E+00 0.  1.
         21   -1    0    0  504  502 -0.00000000000E+00 -0.00000000000E+00 -0.44116049899E+01  0.44116049899E+01  0.00000000000E+00 0. -1.
         21    1    1    2  503  502 -0.19535450113E+02 -0.67460543127E+01  0.80956199646E+03  0.80982576470E+03  0.00000000000E+00 0.  1.
         21    1    1    2  504  501  0.19535450113E+02  0.67460543127E+01  0.20671851494E+02  0.29231293234E+02  0.00000000000E+00 0. -1.
<mgrwt>
<rscale>  2 0.20667440E+02</rscale>
<asrwt>0</asrwt>
<pdfrwt beam="1">  1       21 0.12840687E+00 0.20667440E+02</pdfrwt>
<pdfrwt beam="2">  1       21 0.67870912E-03 0.20667440E+02</pdfrwt>
<totfact> 0.27728291E+06</totfact>
</mgrwt>
</event>
<event>
 4    1  0.4438654E+006  0.2793234E+02  0.7546771E-02  0.1622137E+00
         21   -1    0    0  503  501  0.00000000000E+00  0.00000000000E+00  0.68209085842E+03  0.68209085842E+03  0.00000000000E+00 0.  1.
         21   -1    0    0  501  502 -0.00000000000E+00 -0.00000000000E+00 -0.16772447114E+01  0.16772447114E+01  0.00000000000E+00 0. -1.
         21    1    1    2  503  504 -0.26684508500E+02 -0.82554468325E+01  0.53300436831E+03  0.53373576987E+03  0.00000000000E+00 0.  1.
         21    1    1    2  504  502  0.26684508500E+02  0.82554468325E+01  0.14740924540E+03  0.15003233326E+03  0.00000000000E+00 0. -1.
<mgrwt>
<rscale>  2 0.27932336E+02</rscale>
<asrwt>0</asrwt>
<pdfrwt beam="1">  1       21 0.10493683E+00 0.27932336E+02</pdfrwt>
<pdfrwt beam="2">  1       21 0.25803819E-03 0.27932336E+02</pdfrwt>
<totfact> 0.18925305E+07</totfact>
</mgrwt>
</event>
<event>
 4    1  0.4438654E+006  0.6714939E+02  0.7546771E-02  0.1370064E+00
         21   -1    0    0  504  501  0.00000000000E+00  0.00000000000E+00  0.88758674726E+02  0.88758674726E+02  0.00000000000E+00 0. -1.
         21   -1    0    0  503  502 -0.00000000000E+00 -0.00000000000E+00 -0.13039005462E+03  0.13039005462E+03  0.00000000000E+00 0. -1.
         21    1    1    2  503  501 -0.49410142617E+02 -0.45471730305E+02 -0.10642343586E+03  0.12583714933E+03  0.00000000000E+00 0. -1.
         21    1    1    2  504  502  0.49410142617E+02  0.45471730305E+02  0.64792055963E+02  0.93311580022E+02  0.00000000000E+00 0. -1.
<mgrwt>
<rscale>  2 0.67149389E+02</rscale>
<asrwt>0</asrwt>
<pdfrwt beam="1">  1       21 0.13655181E-01 0.67149389E+02</pdfrwt>
<pdfrwt beam="2">  1       21 0.20060008E-01 0.67149389E+02</pdfrwt>
<totfact> 0.10537656E+06</totfact>
</mgrwt>
</event>
<event>
 4    1  0.4438654E+006  0.2046485E+02  0.7546771E-02  0.1736239E+00
         21   -1    0    0  504  501  0.00000000000E+00  0.00000000000E+00  0.61672486413E+02  0.61672486413E+02  0.00000000000E+00 0. -1.
         21   -1    0    0  503  502 -0.00000000000E+00 -0.00000000000E+00 -0.77827584577E+01  0.77827584577E+01  0.00000000000E+00 0. -1.
         21    1    1    2  503  501 -0.17808449754E+02  0.10083114304E+02  0.39342498954E+02  0.44346840933E+02  0.00000000000E+00 0. -1.
         21    1    1    2  504  502  0.17808449754E+02 -0.10083114304E+02  0.14547229001E+02  0.25108403938E+02  0.00000000000E+00 0. -1.
<mgrwt>
<rscale>  2 0.20464850E+02</rscale>
<asrwt>0</asrwt>
<pdfrwt beam="1">  1       21 0.94880745E-02 0.20464850E+02</pdfrwt>
<pdfrwt beam="2">  1       21 0.11973475E-02 0.20464850E+02</pdfrwt>
<totfact> 0.16015029E+08</totfact>
</mgrwt>
</event>
<event>
 4    1  0.4438654E+006  0.3037306E+02  0.7546771E-02  0.1594001E+00
         21   -1    0    0  504  501  0.00000000000E+00  0.00000000000E+00  0.18449466323E+02  0.18449466323E+02  0.00000000000E+00 0.  1.
         21   -1    0    0  503  502 -0.00000000000E+00 -0.00000000000E+00 -0.54624868388E+02  0.54624868388E+02  0.00000000000E+00 0.  1.
         21    1    1    2  503  501  0.30054035113E+02 -0.43906122979E+01 -0.74593925749E+01  0.31275630138E+02  0.00000000000E+00 0.  1.
         21    1    1    2  504  502 -0.30054035113E+02  0.43906122979E+01 -0.28716009491E+02  0.41798704573E+02  0.00000000000E+00 0.  1.
<mgrwt>
<rscale>  2 0.30373056E+02</rscale>
<asrwt>0</asrwt>
<pdfrwt beam="1">  1       21 0.28383794E-02 0.30373056E+02</pdfrwt>
<pdfrwt beam="2">  1       21 0.84038259E-02 0.30373056E+02</pdfrwt>
<totfact> 0.57834274E+07</totfact>
</mgrwt>
</event>
<event>
 4    1  0.4438654E+006  0.2353412E+02  0.7546771E-02  0.1682996E+00
         21   -1    0    0  503  501  0.00000000000E+00  0.00000000000E+00  0.98675917346E+01  0.98675917346E+01  0.00000000000E+00 0.  1.
         21   -1    0    0  504  502 -0.00000000000E+00 -0.00000000000E+00 -0.81696985735E+02  0.81696985735E+02  0.00000000000E+00 0.  1.
         21    1    1    2  503  502  0.12027386973E+01  0.23503366087E+02 -0.61526818050E+02  0.65874153787E+02  0.00000000000E+00 0.  1.
         21    1    1    2  504  501 -0.12027386973E+01 -0.23503366087E+02 -0.10302575950E+02  0.25690423682E+02  0.00000000000E+00 0.  1.
<mgrwt>
<rscale>  2 0.23534120E+02</rscale>
<asrwt>0</asrwt>
<pdfrwt beam="1">  1       21 0.15180910E-02 0.23534120E+02</pdfrwt>
<pdfrwt beam="2">  1       21 0.12568767E-01 0.23534120E+02</pdfrwt>
<totfact> 0.73019303E+07</totfact>
</mgrwt>
</event>
<event>
 4    1  0.4438654E+006  0.2111236E+02  0.7546771E-02  0.1724071E+00
         21   -1    0    0  502  501  0.00000000000E+00  0.00000000000E+00  0.48590704903E+02  0.48590704903E+02  0.00000000000E+00 0.  1.
         21   -1    0    0  503  502 -0.00000000000E+00 -0.00000000000E+00 -0.18432620869E+03  0.18432620869E+03  0.00000000000E+00 0. -1.
         21    1    1    2  503  504 -0.11642322936E+02  0.17612156847E+02 -0.18139138971E+03  0.18261590296E+03  0.00000000000E+00 0. -1.
         21    1    1    2  504  501  0.11642322936E+02 -0.17612156847E+02  0.45655885920E+02  0.50301010639E+02  0.00000000000E+00 0.  1.
<mgrwt>
<rscale>  2 0.21112360E+02</rscale>
<asrwt>0</asrwt>
<pdfrwt beam="1">  1       21 0.74754930E-02 0.21112360E+02</pdfrwt>
<pdfrwt beam="2">  1       21 0.28357879E-01 0.21112360E+02</pdfrwt>
<totfact> 0.14359311E+06</totfact>
</mgrwt>
</event>
<event>
 4    1  0.4438654E+006  0.2353495E+02  0.7546771E-02  0.1682983E+00
         21   -1    0    0  504  501  0.00000000000E+00  0.00000000000E+00  0.55523256515E+02  0.55523256515E+02  0.00000000000E+00 0. -1.
         21   -1    0    0  501  502 -0.00000000000E+00 -0.00000000000E+00 -0.52798951966E+02  0.52798951966E+02  0.00000000000E+00 0.  1.
         21    1    1    2  503  502 -0.42341311183E+01  0.23150938447E+02 -0.47414694928E+02  0.52934366081E+02  0.00000000000E+00 0.  1.
         21    1    1    2  504  503  0.42341311183E+01 -0.23150938447E+02  0.50138999476E+02  0.55387842400E+02  0.00000000000E+00 0. -1.
<mgrwt>
<rscale>  2 0.23534949E+02</rscale>
<asrwt>0</asrwt>
<pdfrwt beam="1">  1       21 0.85420394E-02 0.23534949E+02</pdfrwt>
<pdfrwt beam="2">  1       21 0.81229157E-02 0.23534949E+02</pdfrwt>
<totfact> 0.99303706E+06</totfact>
</mgrwt>
</event>
<event>
 4    1  0.4438654E+006  0.2165536E+02  0.7546771E-02  0.1714281E+00
         21   -1    0    0  503  501  0.00000000000E+00  0.00000000000E+00  0.21797536524E+01  0.21797536524E+01  0.00000000000E+00 0.  1.
         21   -1    0    0  504  502 -0.00000000000E+00 -0.00000000000E+00 -0.22492308888E+03  0.22492308888E+03  0.00000000000E+00 0.  1.
         21    1    1    2  503  502 -0.22316592183E+01 -0.21540060394E+02 -0.13505212537E+03  0.13677730467E+03  0.00000000000E+00 0.  1.
         21    1    1    2  504  501  0.22316592183E+01  0.21540060394E+02 -0.87691209858E+02  0.90325537867E+02  0.00000000000E+00 0.  1.
<mgrwt>
<rscale>  2 0.21655357E+02</rscale>
<asrwt>0</asrwt>
<pdfrwt beam="1">  1       21 0.33534673E-03 0.21655357E+02</pdfrwt>
<pdfrwt beam="2">  1       21 0.34603550E-01 0.21655357E+02</pdfrwt>
<totfact> 0.11422903E+08</totfact>
</mgrwt>
</event>
<event>
 4    1  0.4438654E+006  0.3098564E+02  0.7546771E-02  0.1587442E+00
         21   -1    0    0  503  501  0.00000000000E+00  0.00000000000E+00  0.12416108931E+03  0.12416108931E+03  0.00000000000E+00 0. -1.
         21   -1    0    0  504  502 -0.00000000000E+00 -0.00000000000E+00 -0.97214932773E+02  0.97214932773E+02  0.00000000000E+00 0.  1.
         21    1    1    2  503  502  0.28799386484E+02 -0.11432639707E+02 -0.92721492726E+02  0.97761879717E+02  0.00000000000E+00 0.  1.
         21    1    1    2  504  501 -0.28799386484E+02  0.11432639707E+02  0.11966764926E+03  0.12361414236E+03  0.00000000000E+00 0. -1.
<mgrwt>
<rscale>  2 0.30985640E+02</rscale>
<asrwt>0</asrwt>
<pdfrwt beam="1">  1       21 0.19101706E-01 0.30985640E+02</pdfrwt>
<pdfrwt beam="2">  1       21 0.14956143E-01 0.30985640E+02</pdfrwt>
<totfact> 0.94485008E+05</totfact>
</mgrwt>
</event>
<event>
 4    1  0.4438654E+006  0.2031793E+02  0.7546771E-02  0.1739079E+00
         21   -1    0    0  503  501  0.00000000000E+00  0.00000000000E+00  0.23178398163E+02  0.23178398163E+02  0.00000000000E+00 0. -1.
         21   -1    0    0  501  502 -0.00000000000E+00 -0.00000000000E+00 -0.38522266082E+02  0.38522266082E+02  0.00000000000E+00 0.  1.
         21    1    1    2  503  504  0.20116256705E+02  0.28555980738E+01  0.14949117338E+02  0.25224875289E+02  0.00000000000E+00 0. -1.
         21    1    1    2  504  502 -0.20116256705E+02 -0.28555980738E+01 -0.30292985257E+02  0.36475788956E+02  0.00000000000E+00 0.  1.
<mgrwt>
<rscale>  2 0.20317929E+02</rscale>
<asrwt>0</asrwt>
<pdfrwt beam="1">  1       21 0.35659074E-02 0.20317929E+02</pdfrwt>
<pdfrwt beam="2">  1       21 0.59265024E-02 0.20317929E+02</pdfrwt>
<totfact> 0.64440569E+07</totfact>
</mgrwt>
</event>
<event>
 4    1  0.4438654E+006  0.2913032E+02  0.7546771E-02  0.1607906E+00
         21   -1    0    0  503  501  0.00000000000E+00  0.00000000000E+00  0.64857603838E+00  0.64857603838E+00  0.00000000000E+00 0.  1.
         21   -1    0    0  504  502 -0.00000000000E+00 -0.00000000000E+00 -0.13102865414E+04  0.13102865414E+04  0.00000000000E+00 0.  1.
         21    1    1    2  503  502 -0.21784633860E+02 -0.19339211820E+02 -0.62972993752E+03  0.63040333882E+03  0.00000000000E+00 0.  1.
         21    1    1    2  504  501  0.21784633860E+02  0.19339211820E+02 -0.67990802781E+03  0.68053177859E+03  0.00000000000E+00 0.  1.
<mgrwt>
<rscale>  2 0.29130317E+02</rscale>
<asrwt>0</asrwt>
<pdfrwt beam="1">  1       21 0.99781817E-04 0.29130317E+02</pdfrwt>
<pdfrwt beam="2">  1       21 0.20158075E+00 0.29130317E+02</pdfrwt>
<totfact> 0.15711003E+07</totfact>
</mgrwt>
</event>
<event>
 4    1  0.4438654E+006  0.2124191E+02  0.7546771E-02  0.1721702E+00
         21   -1    0    0  504  501  0.00000000000E+00  0.00000000000E+00  0.20954220048E+03  0.20954220048E+03  0.00000000000E+00 0. -1.
         21   -1    0    0  501  502 -0.00000000000E+00 -0.00000000000E+00 -0.22827220647E+02  0.22827220647E+02  0.00000000000E+00 0.  1.
         21    1    1    2  503  502 -0.20541852049E+02 -0.54084217296E+01 -0.17211491439E+02  0.27339607692E+02  0.00000000000E+00 0.  1.
         21    1    1    2  504  503  0.20541852049E+02  0.54084217296E+01  0.20392647128E+03  0.20502981344E+03  0.00000000000E+00 0. -1.
<mgrwt>
<rscale>  2 0.21241909E+02</rscale>
<asrwt>0</asrwt>
<pdfrwt beam="1">  1       21 0.32237260E-01 0.21241909E+02</pdfrwt>
<pdfrwt beam="2">  1       21 0.35118802E-02 0.21241909E+02</pdfrwt>
<totfact> 0.37836995E+06</totfact>
</mgrwt>
</event>
<event>
 4    1  0.4438654E+006  0.3884870E+02  0.7546771E-02  0.1516859E+00
         21   -1    0    0  503  501  0.00000000000E+00  0.00000000000E+00  0.82535956977E+02  0.82535956977E+02  0.00000000000E+00 0. -1.
         21   -1    0    0  504  502 -0.00000000000E+00 -0.00000000000E+00 -0.23574070494E+02  0.23574070494E+02  0.00000000000E+00 0. -1.
         21    1    1    2  503  502  0.44286657985E+01 -0.38595444072E+02  0.54609829782E+02  0.67018317591E+02  0.00000000000E+00 0. -1.
         21    1    1    2  504  501 -0.44286657985E+01  0.38595444072E+02  0.43520567019E+01  0.39091709880E+02  0.00000000000E+00 0. -1.
<mgrwt>
<rscale>  2 0.38848699E+02</rscale>
<asrwt>0</asrwt>
<pdfrwt beam="1">  1       21 0.12697839E-01 0.38848699E+02</pdfrwt>
<pdfrwt beam="2">  1       21 0.36267801E-02 0.38848699E+02</pdfrwt>
<totfact> 0.20524202E+07</totfact>
</mgrwt>
</event>
<event>
 4    1  0.4438654E+006  0.2472223E+02  0.7546771E-02  0.1665024E+00
         21   -1    0    0  503  501  0.00000000000E+00  0.00000000000E+00  0.92706563796E+02  0.92706563796E+02  0.00000000000E+00 0. -1.
         21   -1    0    0  504  502 -0.00000000000E+00 -0.00000000000E+00 -0.14561724956E+02  0.14561724956E+02  0.00000000000E+00 0.  1.
         21    1    1    2  503  502  0.10545106094E+02  0.22360442861E+02  0.78749245131E+02  0.82538671398E+02  0.00000000000E+00 0. -1.
         21    1    1    2  504  501 -0.10545106094E+02 -0.22360442861E+02 -0.60440629073E+00  0.24729617353E+02  0.00000000000E+00 0.  1.
<mgrwt>
<rscale>  2 0.24722230E+02</rscale>
<asrwt>0</asrwt>
<pdfrwt beam="1">  1       21 0.14262548E-01 0.24722230E+02</pdfrwt>
<pdfrwt beam="2">  1       21 0.22402654E-02 0.24722230E+02</pdfrwt>
<totfact> 0.32872725E+07</totfact>
</mgrwt>
</event>
<event>
 4    1  0.4438654E+006  0.2122978E+02  0.7546771E-02  0.1721923E+00
         21   -1    0    0  504  501  0.00000000000E+00  0.00000000000E+00  0.79063195492E+01  0.79063195492E+01  0.00000000000E+00 0.  1.
         21   -1    0    0  503  502 -0.00000000000E+00 -0.00000000000E+00 -0.65434887495E+02  0.65434887495E+02  0.00000000000E+00 0.  1.
         21    1    1    2  503  501 -0.20438904476E+02  0.57406329411E+01 -0.41925967380E+02  0.46994578661E+02  0.00000000000E+00 0.  1.
         21    1    1    2  504  502  0.20438904476E+02 -0.57406329411E+01 -0.15602600566E+02  0.26346628383E+02  0.00000000000E+00 0.  1.
<mgrwt>
<rscale>  2 0.21229783E+02</rscale>
<asrwt>0</asrwt>
<pdfrwt beam="1">  1       21 0.12163569E-02 0.21229783E+02</pdfrwt>
<pdfrwt beam="2">  1       21 0.10066905E-01 0.21229783E+02</pdfrwt>
<totfact> 0.14348873E+08</totfact>
</mgrwt>
</event>
<event>
 4    1  0.4438654E+006  0.3780746E+02  0.7546771E-02  0.1524995E+00
         21   -1    0    0  504  501  0.00000000000E+00  0.00000000000E+00  0.27333887680E+01  0.27333887680E+01  0.00000000000E+00 0. -1.
         21   -1    0    0  503  502 -0.00000000000E+00 -0.00000000000E+00 -0.56409369816E+03  0.56409369816E+03  0.00000000000E+00 0. -1.
         21    1    1    2  503  501  0.37607110407E+02  0.38870398298E+01 -0.35722902297E+03  0.35922413433E+03  0.00000000000E+00 0. -1.
         21    1    1    2  504  502 -0.37607110407E+02 -0.38870398298E+01 -0.20413128642E+03  0.20760295259E+03  0.00000000000E+00 0. -1.
<mgrwt>
<rscale>  2 0.37807457E+02</rscale>
<asrwt>0</asrwt>
<pdfrwt beam="1">  1       21 0.42052157E-03 0.37807457E+02</pdfrwt>
<pdfrwt beam="2">  1       21 0.86783600E-01 0.37807457E+02</pdfrwt>
<totfact> 0.14611784E+07</totfact>
</mgrwt>
</event>
<event>
 4    1  0.4438654E+006  0.2244835E+02  0.7546771E-02  0.1700611E+00
         21   -1    0    0  503  501  0.00000000000E+00  0.00000000000E+00  0.96542744491E+01  0.96542744491E+01  0.00000000000E+00 0.  1.
         21   -1    0    0  504  502 -0.00000000000E+00 -0.00000000000E+00 -0.52857247748E+02  0.52857247748E+02  0.00000000000E+00 0.  1.
         21    1    1    2  503  502  0.47876666890E+01  0.21931864560E+02 -0.18109394552E+02  0.28842305845E+02  0.00000000000E+00 0.  1.
         21    1    1    2  504  501 -0.47876666890E+01 -0.21931864560E+02 -0.25093578747E+02  0.33669216352E+02  0.00000000000E+00 0.  1.
<mgrwt>
<rscale>  2 0.22448350E+02</rscale>
<asrwt>0</asrwt>
<pdfrwt beam="1">  1       21 0.14852730E-02 0.22448350E+02</pdfrwt>
<pdfrwt beam="2">  1       21 0.81318841E-02 0.22448350E+02</pdfrwt>
<totfact> 0.15313308E+08</totfact>
</mgrwt>
</event>
<event>
 4    1  0.4438654E+006  0.5059558E+02  0.7546771E-02  0.1442155E+00
         21   -1    0    0  504  501  0.00000000000E+00  0.00000000000E+00  0.32420263956E+03  0.32420263956E+03  0.00000000000E+00 0. -1.
         21   -1    0    0  503  502 -0.00000000000E+00 -0.00000000000E+00 -0.24843291817E+02  0.24843291817E+02  0.00000000000E+00 0. -1.
         21    1    1    2  503  501 -0.19763057944E+02 -0.46576115309E+02  0.55352605933E+01  0.50897466405E+02  0.00000000000E+00 0. -1.
         21    1    1    2  504  502  0.19763057944E+02  0.46576115309E+02  0.29382408715E+03  0.29814846498E+03  0.00000000000E+00 0. -1.
<mgrwt>
<rscale>  2 0.50595583E+02</rscale>
<asrwt>0</asrwt>
<pdfrwt beam="1">  1       21 0.49877326E-01 0.50595583E+02</pdfrwt>
<pdfrwt beam="2">  1       21 0.38220451E-02 0.50595583E+02</pdfrwt>
<totfact> 0.15656961E+06</totfact>
</mgrwt>
</event>
<event>
 4    1  0.4438654E+006  0.2629079E+02  0.7546771E-02  0.1643125E+00
         21   -1    0    0  503  501  0.00000000000E+00  0.00000000000E+00  0.64961272710E+02  0.64961272710E+02  0.00000000000E+00 0.  1.
         21   -1    0    0  504  502 -0.00000000000E+00 -0.00000000000E+00 -0.15489588964E+02  0.15489588964E+02  0.00000000000E+00 0.  1.
         21    1    1    2  503  502 -0.21609668629E+02 -0.14974237564E+02  0.22286624738E+01  0.26385081112E+02  0.00000000000E+00 0.  1.
         21    1    1    2  504  501  0.21609668629E+02  0.14974237564E+02  0.47243021272E+02  0.54065780562E+02  0.00000000000E+00 0.  1.
<mgrwt>
<rscale>  2 0.26290789E+02</rscale>
<asrwt>0</asrwt>
<pdfrwt beam="1">  1       21 0.99940418E-02 0.26290789E+02</pdfrwt>
<pdfrwt beam="2">  1       21 0.23830137E-02 0.26290789E+02</pdfrwt>
<totfact> 0.55100517E+07</totfact>
</mgrwt>
</event>
<event>
 4    1  0.4438654E+006  0.3241097E+02  0.7546771E-02  0.1572872E+00
         21   -1    0    0  503  501  0.00000000000E+00  0.00000000000E+00  0.11379218030E+03  0.11379218030E+03  0.00000000000E+00 0. -1.
         21   -1    0    0  504  502 -0.00000000000E+00 -0.00000000000E+00 -0.24962820309E+02  0.24962820309E+02  0.00000000000E+00 0. -1.
         21    1    1    2  503  502 -0.32324517150E+02 -0.23656943875E+01  0.99489692319E+02  0.10463589153E+03  0.00000000000E+00 0. -1.
         21    1    1    2  504  501  0.32324517150E+02  0.23656943875E+01 -0.10660332327E+02  0.34119109078E+02  0.00000000000E+00 0. -1.
<mgrwt>
<rscale>  2 0.32410969E+02</rscale>
<asrwt>0</asrwt>
<pdfrwt beam="1">  1       21 0.17506489E-01 0.32410969E+02</pdfrwt>
<pdfrwt beam="2">  1       21 0.38404340E-02 0.32410969E+02</pdfrwt>
<totfact> 0.10436878E+07</totfact>
</mgrwt>
</event>
<event>
 4    1  0.4438654E+006  0.2408202E+02  0.7546771E-02  0.1674548E+00
         21   -1    0    0  503  501  0.00000000000E+00  0.00000000000E+00  0.86454788790E+01  0.86454788790E+01  0.00000000000E+00 0. -1.
         21   -1    0    0  504  502 -0.00000000000E+00 -0.00000000000E+00 -0.67151170141E+02  0.67151170141E+02  0.00000000000E+00 0. -1.
         21    1    1    2  503  502  0.13985507968E+02  0.19604828398E+02 -0.28024082808E+02  0.36949870729E+02  0.00000000000E+00 0. -1.
         21    1    1    2  504  501 -0.13985507968E+02 -0.19604828398E+02 -0.30481608453E+02  0.38846778291E+02  0.00000000000E+00 0. -1.
<mgrwt>
<rscale>  2 0.24082021E+02</rscale>
<asrwt>0</asrwt>
<pdfrwt beam="1">  1       21 0.13300736E-02 0.24082021E+02</pdfrwt>
<pdfrwt beam="2">  1       21 0.10330950E-01 0.24082021E+02</pdfrwt>
<totfact> 0.12467231E+08</totfact>
</mgrwt>
</event>
<event>
 4    1  0.4438654E+006  0.4952965E+02  0.7546771E-02  0.1447895E+00
         21   -1    0    0  503  501  0.00000000000E+00  0.00000000000E+00  0.11630695333E+03  0.11630695333E+03  0.00000000000E+00 0. -1.
         21   -1    0    0  504  502 -0.00000000000E+00 -0.00000000000E+00 -0.30826698176E+02  0.30826698176E+02  0.00000000000E+00 0.  1.
         21    1    1    2  503  502  0.64135388442E+01 -0.49112657217E+02  0.13999797971E+01  0.49549435142E+02  0.00000000000E+00 0.  1.
         21    1    1    2  504  501 -0.64135388442E+01  0.49112657217E+02  0.84080275359E+02  0.97584216366E+02  0.00000000000E+00 0. -1.
<mgrwt>
<rscale>  2 0.49529654E+02</rscale>
<asrwt>0</asrwt>
<pdfrwt beam="1">  1       21 0.17893377E-01 0.49529654E+02</pdfrwt>
<pdfrwt beam="2">  1       21 0.47425690E-02 0.49529654E+02</pdfrwt>
<totfact> 0.75571453E+06</totfact>
</mgrwt>
</event>
<event>
 4    1  0.4438654E+006  0.2632872E+02  0.7546771E-02  0.1642619E+00
         21   -1    0    0  504  501  0.00000000000E+00  0.00000000000E+00  0.10040525869E+03  0.10040525869E+03  0.00000000000E+00 0. -1.
         21   -1    0    0  503  502 -0.00000000000E+00 -0.00000000000E+00 -0.94042289654E+02  0.94042289654E+02  0.00000000000E+00 0. -1.
         21    1    1    2  503  501  0.23950909344E+02 -0.10934131535E+02  0.96768438136E+02  0.10028624986E+03  0.00000000000E+00 0. -1.
         21    1    1    2  504  502 -0.23950909344E+02  0.10934131535E+02 -0.90405469097E+02  0.94161298491E+02  0.00000000000E+00 0. -1.
<mgrwt>
<rscale>  2 0.26328716E+02</rscale>
<asrwt>0</asrwt>
<pdfrwt beam="1">  1       21 0.15446963E-01 0.26328716E+02</pdfrwt>
<pdfrwt beam="2">  1       21 0.14468044E-01 0.26328716E+02</pdfrwt>
<totfact> 0.14265538E+06</totfact>
</mgrwt>
</event>
<event>
 4    1  0.4438654E+006  0.2102826E+02  0.7546771E-02  0.1725621E+00
         21   -1    0    0  503  501  0.00000000000E+00  0.00000000000E+00  0.58315501389E+02  0.58315501389E+02  0.00000000000E+00 0. -1.
         21   -1    0    0  504  502 -0.00000000000E+00 -0.00000000000E+00 -0.12357426720E+02  0.12357426720E+02  0.00000000000E+00 0. -1.
         21    1    1    2  503  502 -0.97866159632E+01  0.18612091396E+02  0.10138845802E+01  0.21052690091E+02  0.00000000000E+00 0. -1.
         21    1    1    2  504  501  0.97866159632E+01 -0.18612091396E+02  0.44944190089E+02  0.49620238018E+02  0.00000000000E+00 0. -1.
<mgrwt>
<rscale>  2 0.21028262E+02</rscale>
<asrwt>0</asrwt>
<pdfrwt beam="1">  1       21 0.89716155E-02 0.21028262E+02</pdfrwt>
<pdfrwt beam="2">  1       21 0.19011426E-02 0.21028262E+02</pdfrwt>
<totfact> 0.87851748E+07</totfact>
</mgrwt>
</event>
<event>
 4    1  0.4438654E+006  0.2001302E+02  0.7546771E-02  0.1745069E+00
         21   -1    0    0  502  501  0.00000000000E+00  0.00000000000E+00  0.86368528776E+01  0.86368528776E+01  0.00000000000E+00 0.  1.
         21   -1    0    0  503  502 -0.00000000000E+00 -0.00000000000E+00 -0.15179008993E+03  0.15179008993E+03  0.00000000000E+00 0.  1.
         21    1    1    2  503  504 -0.72151808560E+01  0.18667137807E+02 -0.13842334411E+03  0.13986258636E+03  0.00000000000E+00 0.  1.
         21    1    1    2  504  501  0.72151808560E+01 -0.18667137807E+02 -0.47298929369E+01  0.20564356442E+02  0.00000000000E+00 0.  1.
<mgrwt>
<rscale>  2 0.20013017E+02</rscale>
<asrwt>0</asrwt>
<pdfrwt beam="1">  1       21 0.13287466E-02 0.20013017E+02</pdfrwt>
<pdfrwt beam="2">  1       21 0.23352322E-01 0.20013017E+02</pdfrwt>
<totfact> 0.29565936E+07</totfact>
</mgrwt>
</event>
<event>
 4    1  0.4438654E+006  0.2044414E+02  0.7546771E-02  0.1736637E+00
         21   -1    0    0  504  501  0.00000000000E+00  0.00000000000E+00  0.40858156411E+02  0.40858156411E+02  0.00000000000E+00 0.  1.
         21   -1    0    0  503  502 -0.00000000000E+00 -0.00000000000E+00 -0.22329982079E+02  0.22329982079E+02  0.00000000000E+00 0.  1.
         21    1    1    2  503  501  0.42063140017E+01 -0.20006741979E+02  0.32521469377E+02  0.38413653465E+02  0.00000000000E+00 0.  1.
         21    1    1    2  504  502 -0.42063140017E+01  0.20006741979E+02 -0.13993295044E+02  0.24774485026E+02  0.00000000000E+00 0.  1.
<mgrwt>
<rscale>  2 0.20444139E+02</rscale>
<asrwt>0</asrwt>
<pdfrwt beam="1">  1       21 0.62858702E-02 0.20444139E+02</pdfrwt>
<pdfrwt beam="2">  1       21 0.34353819E-02 0.20444139E+02</pdfrwt>
<totfact> 0.62267031E+07</totfact>
</mgrwt>
</event>
<event>
 4    1  0.4438654E+006  0.2227001E+02  0.7546771E-02  0.1703624E+00
         21   -1    0    0  504  501  0.00000000000E+00  0.00000000000E+00  0.80930401009E+02  0.80930401009E+02  0.00000000000E+00 0. -1.
         21   -1    0    0  501  502 -0.00000000000E+00 -0.00000000000E+00 -0.15486031371E+02  0.15486031371E+02  0.00000000000E+00 0.  1.
         21    1    1    2  503  502  0.17540095491E+01  0.22200833205E+02 -0.47526553091E+01  0.22771501421E+02  0.00000000000E+00 0.  1.
         21    1    1    2  504  503 -0.17540095491E+01 -0.22200833205E+02  0.70197024948E+02  0.73644930959E+02  0.00000000000E+00 0. -1.
<mgrwt>
<rscale>  2 0.22270014E+02</rscale>
<asrwt>0</asrwt>
<pdfrwt beam="1">  1       21 0.12450831E-01 0.22270014E+02</pdfrwt>
<pdfrwt beam="2">  1       21 0.23824664E-02 0.22270014E+02</pdfrwt>
<totfact> 0.36670673E+07</totfact>
</mgrwt>
</event>
<event>
 4    1  0.4438654E+006  0.2110640E+02  0.7546771E-02  0.1724181E+00
         21   -1    0    0  503  501  0.00000000000E+00  0.00000000000E+00  0.26660118079E+02  0.26660118079E+02  0.00000000000E+00 0. -1.
         21   -1    0    0  504  502 -0.00000000000E+00 -0.00000000000E+00 -0.65674693704E+02  0.65674693704E+02  0.00000000000E+00 0. -1.
         21    1    1    2  503  502 -0.19132826002E+02  0.89115240564E+01  0.20356602199E+02  0.29323566374E+02  0.00000000000E+00 0. -1.
         21    1    1    2  504  501  0.19132826002E+02 -0.89115240564E+01 -0.59371177823E+02  0.63011245409E+02  0.00000000000E+00 0. -1.
<mgrwt>
<rscale>  2 0.21106404E+02</rscale>
<asrwt>0</asrwt>
<pdfrwt beam="1">  1       21 0.41015567E-02 0.21106404E+02</pdfrwt>
<pdfrwt beam="2">  1       21 0.10103799E-01 0.21106404E+02</pdfrwt>
<totfact> 0.21997058E+07</totfact>
</mgrwt>
</event>
<event>
 4    1  0.4438654E+006  0.2171649E+02  0.7546771E-02  0.1713202E+00
         21   -1    0    0  503  501  0.00000000000E+00  0.00000000000E+00  0.68559121227E+01  0.68559121227E+01  0.00000000000E+00 0. -1.
         21   -1    0    0  504  502 -0.00000000000E+00 -0.00000000000E+00 -0.86395960762E+02  0.86395960762E+02  0.00000000000E+00 0. -1.
         21    1    1    2  503  502 -0.18357651288E+02 -0.11601826586E+02 -0.18720944434E+02  0.28671928805E+02  0.00000000000E+00 0. -1.
         21    1    1    2  504  501  0.18357651288E+02  0.11601826586E+02 -0.60819104206E+02  0.64579944080E+02  0.00000000000E+00 0. -1.
<mgrwt>
<rscale>  2 0.21716485E+02</rscale>
<asrwt>0</asrwt>
<pdfrwt beam="1">  1       21 0.10547556E-02 0.21716485E+02</pdfrwt>
<pdfrwt beam="2">  1       21 0.13291688E-01 0.21716485E+02</pdfrwt>
<totfact> 0.11267277E+08</totfact>
</mgrwt>
</event>
<event>
 4    1  0.4438654E+006  0.2273029E+02  0.7546771E-02  0.1695920E+00
         21   -1    0    0  503  501  0.00000000000E+00  0.00000000000E+00  0.16203999659E+04  0.16203999659E+04  0.00000000000E+00 0.  1.
         21   -1    0    0  504  502 -0.00000000000E+00 -0.00000000000E+00 -0.37668355255E+01  0.37668355255E+01  0.00000000000E+00 0. -1.
         21    1    1    2  503  502 -0.14924379989E+02 -0.17144360168E+02  0.31363192012E+02  0.38733913007E+02  0.00000000000E+00 0. -1.
         21    1    1    2  504  501  0.14924379989E+02  0.17144360168E+02  0.15852699384E+04  0.15854328884E+04  0.00000000000E+00 0.  1.
<mgrwt>
<rscale>  2 0.22730293E+02</rscale>
<asrwt>0</asrwt>
<pdfrwt beam="1">  1       21 0.24929175E+00 0.22730293E+02</pdfrwt>
<pdfrwt beam="2">  1       21 0.57951445E-03 0.22730293E+02</pdfrwt>
<totfact> 0.67108186E+05</totfact>
</mgrwt>
</event>
<event>
 4    1  0.4438654E+006  0.2541934E+02  0.7546771E-02  0.1655051E+00
         21   -1    0    0  504  501  0.00000000000E+00  0.00000000000E+00  0.30280181519E+01  0.30280181519E+01  0.00000000000E+00 0. -1.
         21   -1    0    0  503  502 -0.00000000000E+00 -0.00000000000E+00 -0.21617700095E+03  0.21617700095E+03  0.00000000000E+00 0. -1.
         21    1    1    2  503  501  0.22674841645E+02  0.11488883857E+02 -0.11902353562E+03  0.12170762067E+03  0.00000000000E+00 0. -1.
         21    1    1    2  504  502 -0.22674841645E+02 -0.11488883857E+02 -0.94125447177E+02  0.97497398438E+02  0.00000000000E+00 0. -1.
<mgrwt>
<rscale>  2 0.25419341E+02</rscale>
<asrwt>0</asrwt>
<pdfrwt beam="1">  1       21 0.46584890E-03 0.25419341E+02</pdfrwt>
<pdfrwt beam="2">  1       21 0.33258003E-01 0.25419341E+02</pdfrwt>
<totfact> 0.79116408E+07</totfact>
</mgrwt>
</event>
<event>
 4    1  0.4438654E+006  0.2101272E+02  0.7546771E-02  0.1725908E+00
         21   -1    0    0  503  501  0.00000000000E+00  0.00000000000E+00  0.40309669393E+00  0.40309669393E+00  0.00000000000E+00 0. -1.
         21   -1    0    0  504  502 -0.00000000000E+00 -0.00000000000E+00 -0.10953875924E+04  0.10953875924E+04  0.00000000000E+00 0. -1.
         21    1    1    2  503  502 -0.18924986523E+02  0.91312191562E+01 -0.55044667272E+03  0.55084759579E+03  0.00000000000E+00 0. -1.
         21    1    1    2  504  501  0.18924986523E+02 -0.91312191562E+01 -0.54453782303E+03  0.54494309335E+03  0.00000000000E+00 0. -1.
<mgrwt>
<rscale>  2 0.21012717E+02</rscale>
<asrwt>0</asrwt>
<pdfrwt beam="1">  1       21 0.62015178E-04 0.21012717E+02</pdfrwt>
<pdfrwt beam="2">  1       21 0.16852035E+00 0.21012717E+02</pdfrwt>
<totfact> 0.46199130E+07</totfact>
</mgrwt>
</event>
<event>
 4    1  0.4438654E+006  0.2005269E+02  0.7546771E-02  0.1744282E+00
         21   -1    0    0  502  501  0.00000000000E+00  0.00000000000E+00  0.14227774161E+02  0.14227774161E+02  0.00000000000E+00 0.  1.
         21   -1    0    0  503  502 -0.00000000000E+00 -0.00000000000E+00 -0.58421930035E+02  0.58421930035E+02  0.00000000000E+00 0. -1.
         21    1    1    2  503  504  0.11884014074E+02  0.16151799968E+02 -0.48196356276E+02  0.52201524796E+02  0.00000000000E+00 0. -1.
         21    1    1    2  504  501 -0.11884014074E+02 -0.16151799968E+02  0.40022004025E+01  0.20448179400E+02  0.00000000000E+00 0.  1.
<mgrwt>
<rscale>  2 0.20052691E+02</rscale>
<asrwt>0</asrwt>
<pdfrwt beam="1">  1       21 0.21888883E-02 0.20052691E+02</pdfrwt>
<pdfrwt beam="2">  1       21 0.89879893E-02 0.20052691E+02</pdfrwt>
<totfact> 0.69657024E+07</totfact>
</mgrwt>
</event>
<event>
 4    1  0.4438654E+006  0.2594565E+02  0.7546771E-02  0.1647779E+00
         21   -1    0    0  504  501  0.00000000000E+00  0.00000000000E+00  0.14590923994E+03  0.14590923994E+03  0.00000000000E+00 0. -1.
         21   -1    0    0  503  502 -0.00000000000E+00 -0.00000000000E+00 -0.47252582115E+01  0.47252582115E+01  0.00000000000E+00 0. -1.
         21    1    1    2  503  501 -0.70041686116E+01  0.24982365320E+02  0.59017749260E+02  0.64469152954E+02  0.00000000000E+00 0. -1.
         21    1    1    2  504  502  0.70041686116E+01 -0.24982365320E+02  0.82166232466E+02  0.86165345195E+02  0.00000000000E+00 0. -1.
<mgrwt>
<rscale>  2 0.25945654E+02</rscale>
<asrwt>0</asrwt>
<pdfrwt beam="1">  1       21 0.22447572E-01 0.25945654E+02</pdfrwt>
<pdfrwt beam="2">  1       21 0.72696291E-03 0.25945654E+02</pdfrwt>
<totfact> 0.83582961E+07</totfact>
</mgrwt>
</event>
<event>
 4    1  0.4438654E+006  0.2276630E+02  0.7546771E-02  0.1695327E+00
         21   -1    0    0  503  501  0.00000000000E+00  0.00000000000E+00  0.25559563086E+03  0.25559563086E+03  0.00000000000E+00 0.  1.
         21   -1    0    0  501  502 -0.00000000000E+00 -0.00000000000E+00 -0.78617348302E+01  0.78617348302E+01  0.00000000000E+00 0.  1.
         21    1    1    2  503  504 -0.22136941178E+02 -0.53160327461E+01  0.23734211776E+03  0.23843151057E+03  0.00000000000E+00 0.  1.
         21    1    1    2  504  502  0.22136941178E+02  0.53160327461E+01  0.10391778266E+02  0.25025855119E+02  0.00000000000E+00 0.  1.
<mgrwt>
<rscale>  2 0.22766299E+02</rscale>
<asrwt>0</asrwt>
<pdfrwt beam="1">  1       21 0.39322398E-01 0.22766299E+02</pdfrwt>
<pdfrwt beam="2">  1       21 0.12094979E-02 0.22766299E+02</pdfrwt>
<totfact> 0.13601409E+07</totfact>
</mgrwt>
</event>
<event>
 4    1  0.4438654E+006  0.2062918E+02  0.7546771E-02  0.1733098E+00
         21   -1    0    0  504  501  0.00000000000E+00  0.00000000000E+00  0.66407373361E+02  0.66407373361E+02  0.00000000000E+00 0. -1.
         21   -1    0    0  503  502 -0.00000000000E+00 -0.00000000000E+00 -0.15275418038E+02  0.15275418038E+02  0.00000000000E+00 0. -1.
         21    1    1    2  503  501 -0.17590036456E+02  0.10777469559E+02 -0.55507181915E+01  0.21362904883E+02  0.00000000000E+00 0. -1.
         21    1    1    2  504  502  0.17590036456E+02 -0.10777469559E+02  0.56682673514E+02  0.60319886516E+02  0.00000000000E+00 0. -1.
<mgrwt>
<rscale>  2 0.20629184E+02</rscale>
<asrwt>0</asrwt>
<pdfrwt beam="1">  1       21 0.10216519E-01 0.20629184E+02</pdfrwt>
<pdfrwt beam="2">  1       21 0.23500643E-02 0.20629184E+02</pdfrwt>
<totfact> 0.51020981E+07</totfact>
</mgrwt>
</event>
<event>
 4    1  0.4438654E+006  0.2392390E+02  0.7546771E-02  0.1676957E+00
         21   -1    0    0  503  501  0.00000000000E+00  0.00000000000E+00  0.40728933999E+02  0.40728933999E+02  0.00000000000E+00 0. -1.
         21   -1    0    0  504  502 -0.00000000000E+00 -0.00000000000E+00 -0.14408183655E+02  0.14408183655E+02  0.00000000000E+00 0. -1.
         21    1    1    2  503  502 -0.21868116544E+02 -0.97025015708E+01  0.88302967740E+01  0.25501513662E+02  0.00000000000E+00 0. -1.
         21    1    1    2  504  501  0.21868116544E+02  0.97025015708E+01  0.17490453570E+02  0.29635603993E+02  0.00000000000E+00 0. -1.
<mgrwt>
<rscale>  2 0.23923901E+02</rscale>
<asrwt>0</asrwt>
<pdfrwt beam="1">  1       21 0.62659898E-02 0.23923901E+02</pdfrwt>
<pdfrwt beam="2">  1       21 0.22166437E-02 0.23923901E+02</pdfrwt>
<totfact> 0.12909653E+08</totfact>
</mgrwt>
</event>
<event>
 4    1  0.4438654E+006  0.2236955E+02  0.7546771E-02  0.1701938E+00
         21   -1    0    0  502  501  0.00000000000E+00  0.00000000000E+00  0.57254029864E+01  0.57254029864E+01  0.00000000000E+00 0. -1.
         21   -1    0    0  504  502 -0.00000000000E+00 -0.00000000000E+00 -0.91595076288E+02  0.91595076288E+02  0.00000000000E+00 0. -1.
         21    1    1    2  503  501  0.17677403049E+02  0.13707880893E+02 -0.32520273642E+02  0.39471062500E+02  0.00000000000E+00 0. -1.
         21    1    1    2  504  503 -0.17677403049E+02 -0.13707880893E+02 -0.53349399660E+02  0.57849416775E+02  0.00000000000E+00 0. -1.
<mgrwt>
<rscale>  2 0.22369546E+02</rscale>
<asrwt>0</asrwt>
<pdfrwt beam="1">  1       21 0.88083131E-03 0.22369546E+02</pdfrwt>
<pdfrwt beam="2">  1       21 0.14091549E-01 0.22369546E+02</pdfrwt>
<totfact> 0.13489174E+08</totfact>
</mgrwt>
</event>
<event>
 4    1  0.4438654E+006  0.2189090E+02  0.7546771E-02  0.1710146E+00
         21   -1    0    0  502  501  0.00000000000E+00  0.00000000000E+00  0.19799083712E+02  0.19799083712E+02  0.00000000000E+00 0.  1.
         21   -1    0    0  503  502 -0.00000000000E+00 -0.00000000000E+00 -0.35745276746E+02  0.35745276746E+02  0.00000000000E+00 0.  1.
         21    1    1    2  503  504 -0.21890878556E+02  0.26949806797E-01 -0.23754041926E+02  0.32302721218E+02  0.00000000000E+00 0.  1.
         21    1    1    2  504  501  0.21890878556E+02 -0.26949806797E-01  0.78078488919E+01  0.23241639240E+02  0.00000000000E+00 0.  1.
<mgrwt>
<rscale>  2 0.21890895E+02</rscale>
<asrwt>0</asrwt>
<pdfrwt beam="1">  1       21 0.30460129E-02 0.21890895E+02</pdfrwt>
<pdfrwt beam="2">  1       21 0.54992733E-02 0.21890895E+02</pdfrwt>
<totfact> 0.94803162E+07</totfact>
</mgrwt>
</event>
<event>
 4    1  0.4438654E+006  0.2308698E+02  0.7546771E-02  0.1690104E+00
         21   -1    0    0  503  501  0.00000000000E+00  0.00000000000E+00  0.27204980412E+03  0.27204980412E+03  0.00000000000E+00 0.  1.
         21   -1    0    0  504  502 -0.00000000000E+00 -0.00000000000E+00 -0.35379238297E+01  0.35379238297E+01  0.00000000000E+00 0. -1.
         21    1    1    2  503  502 -0.21719596015E+01 -0.22984589550E+02  0.22630180399E+03  0.22747640593E+03  0.00000000000E+00 0.  1.
         21    1    1    2  504  501  0.21719596015E+01  0.22984589550E+02  0.42210076301E+02  0.48111322021E+02  0.00000000000E+00 0. -1.
<mgrwt>
<rscale>  2 0.23086983E+02</rscale>
<asrwt>0</asrwt>
<pdfrwt beam="1">  1       21 0.41853800E-01 0.23086983E+02</pdfrwt>
<pdfrwt beam="2">  1       21 0.54429619E-03 0.23086983E+02</pdfrwt>
<totfact> 0.39958152E+07</totfact>
</mgrwt>
</event>
<event>
 4    1  0.4438654E+006  0.4143584E+02  0.7546771E-02  0.1497903E+00
         21   -1    0    0  504  501  0.00000000000E+00  0.00000000000E+00  0.64539447412E+02  0.64539447412E+02  0.00000000000E+00 0. -1.
         21   -1    0    0  501  502 -0.00000000000E+00 -0.00000000000E+00 -0.77351086556E+03  0.77351086556E+03  0.00000000000E+00 0. -1.
         21    1    1    2  503  502 -0.14117551742E+02  0.38956687610E+02 -0.76624221298E+03  0.76736175154E+03  0.00000000000E+00 0. -1.
         21    1    1    2  504  503  0.14117551742E+02 -0.38956687610E+02  0.57270794831E+02  0.70688561432E+02  0.00000000000E+00 0. -1.
<mgrwt>
<rscale>  2 0.41435839E+02</rscale>
<asrwt>0</asrwt>
<pdfrwt beam="1">  1       21 0.99291461E-02 0.41435839E+02</pdfrwt>
<pdfrwt beam="2">  1       21 0.11900167E+00 0.41435839E+02</pdfrwt>
<totfact> 0.49917994E+04</totfact>
</mgrwt>
</event>
<event>
 4    1  0.4438654E+006  0.2428583E+02  0.7546771E-02  0.1671477E+00
         21   -1    0    0  502  501  0.00000000000E+00  0.00000000000E+00  0.34565531514E+02  0.34565531514E+02  0.00000000000E+00 0. -1.
         21   -1    0    0  504  502 -0.00000000000E+00 -0.00000000000E+00 -0.41134987110E+02  0.41134987110E+02  0.00000000000E+00 0.  1.
         21    1    1    2  503  501 -0.14331476984E+02 -0.19606387527E+02  0.25669803401E+02  0.35337522141E+02  0.00000000000E+00 0. -1.
         21    1    1    2  504  503  0.14331476984E+02  0.19606387527E+02 -0.32239258997E+02  0.40362996483E+02  0.00000000000E+00 0.  1.
<mgrwt>
<rscale>  2 0.24285833E+02</rscale>
<asrwt>0</asrwt>
<pdfrwt beam="1">  1       21 0.53177741E-02 0.24285833E+02</pdfrwt>
<pdfrwt beam="2">  1       21 0.63284595E-02 0.24285833E+02</pdfrwt>
<totfact> 0.32307141E+07</totfact>
</mgrwt>
</event>
<event>
 4    1  0.4438654E+006  0.2133233E+02  0.7546771E-02  0.1720062E+00
         21   -1    0    0  504  501  0.00000000000E+00  0.00000000000E+00  0.68486780636E+00  0.68486780636E+00  0.00000000000E+00 0.  1.
         21   -1    0    0  503  502 -0.00000000000E+00 -0.00000000000E+00 -0.13250587985E+04  0.13250587985E+04  0.00000000000E+00 0.  1.
         21    1    1    2  503  501  0.49760218892E+01  0.20743854318E+02 -0.11302241829E+04  0.11304254827E+04  0.00000000000E+00 0.  1.
         21    1    1    2  504  502 -0.49760218892E+01 -0.20743854318E+02 -0.19414974779E+03  0.19531818362E+03  0.00000000000E+00 0.  1.
<mgrwt>
<rscale>  2 0.21332330E+02</rscale>
<asrwt>0</asrwt>
<pdfrwt beam="1">  1       21 0.10536548E-03 0.21332330E+02</pdfrwt>
<pdfrwt beam="2">  1       21 0.20385287E+00 0.21332330E+02</pdfrwt>
<totfact> 0.13601503E+07</totfact>
</mgrwt>
</event>
<event>
 4    1  0.4438654E+006  0.2540608E+02  0.7546771E-02  0.1655237E+00
         21   -1    0    0  504  501  0.00000000000E+00  0.00000000000E+00  0.14150727173E+02  0.14150727173E+02  0.00000000000E+00 0. -1.
         21   -1    0    0  503  502 -0.00000000000E+00 -0.00000000000E+00 -0.74624706254E+02  0.74624706254E+02  0.00000000000E+00 0. -1.
         21    1    1    2  503  501  0.24794341905E+02  0.55416020316E+01 -0.25610753664E+01  0.25534836021E+02  0.00000000000E+00 0. -1.
         21    1    1    2  504  502 -0.24794341905E+02 -0.55416020316E+01 -0.57912903714E+02  0.63240597406E+02  0.00000000000E+00 0. -1.
<mgrwt>
<rscale>  2 0.25406077E+02</rscale>
<asrwt>0</asrwt>
<pdfrwt beam="1">  1       21 0.21770350E-02 0.25406077E+02</pdfrwt>
<pdfrwt beam="2">  1       21 0.11480724E-01 0.25406077E+02</pdfrwt>
<totfact> 0.49870344E+07</totfact>
</mgrwt>
</event>
<event>
 4    1  0.4438654E+006  0.2215152E+02  0.7546771E-02  0.1705645E+00
         21   -1    0    0  504  501  0.00000000000E+00  0.00000000000E+00  0.14386731555E+02  0.14386731555E+02  0.00000000000E+00 0. -1.
         21   -1    0    0  503  502 -0.00000000000E+00 -0.00000000000E+00 -0.34215308898E+02  0.34215308898E+02  0.00000000000E+00 0. -1.
         21    1    1    2  503  501 -0.21952900718E+02  0.29596928532E+01 -0.85476486281E+01  0.23743460758E+02  0.00000000000E+00 0. -1.
         21    1    1    2  504  502  0.21952900718E+02 -0.29596928532E+01 -0.11280928715E+02  0.24858579694E+02  0.00000000000E+00 0. -1.
<mgrwt>
<rscale>  2 0.22151515E+02</rscale>
<asrwt>0</asrwt>
<pdfrwt beam="1">  1       21 0.22133433E-02 0.22151515E+02</pdfrwt>
<pdfrwt beam="2">  1       21 0.52638936E-02 0.22151515E+02</pdfrwt>
<totfact> 0.16714307E+08</totfact>
</mgrwt>
</event>
<event>
 4    1  0.4438654E+006  0.2265907E+02  0.7546771E-02  0.1697097E+00
         21   -1    0    0  503  501  0.00000000000E+00  0.00000000000E+00  0.16956301816E+02  0.16956301816E+02  0.00000000000E+00 0. -1.
         21   -1    0    0  501  502 -0.00000000000E+00 -0.00000000000E+00 -0.92007108491E+02  0.92007108491E+02  0.00000000000E+00 0. -1.
         21    1    1    2  503  504 -0.14607128470E+02 -0.17322392163E+02  0.70996410886E+01  0.23745281131E+02  0.00000000000E+00 0. -1.
         21    1    1    2  504  502  0.14607128470E+02  0.17322392163E+02 -0.82150447763E+02  0.85218129175E+02  0.00000000000E+00 0. -1.
<mgrwt>
<rscale>  2 0.22659070E+02</rscale>
<asrwt>0</asrwt>
<pdfrwt beam="1">  1       21 0.26086618E-02 0.22659070E+02</pdfrwt>
<pdfrwt beam="2">  1       21 0.14154940E-01 0.22659070E+02</pdfrwt>
<totfact> 0.25785997E+07</totfact>
</mgrwt>
</event>
<event>
 4    1  0.4438654E+006  0.4374624E+02  0.7546771E-02  0.1482324E+00
         21   -1    0    0  503  501  0.00000000000E+00  0.00000000000E+00  0.63376887635E+02  0.63376887635E+02  0.00000000000E+00 0.  1.
         21   -1    0    0  501  502 -0.00000000000E+00 -0.00000000000E+00 -0.40325273541E+02  0.40325273541E+02  0.00000000000E+00 0. -1.
         21    1    1    2  503  504 -0.37899796872E+01  0.43581759372E+02  0.37512830740E+02  0.57627651055E+02  0.00000000000E+00 0.  1.
         21    1    1    2  504  502  0.37899796872E+01 -0.43581759372E+02 -0.14461216646E+02  0.46074510121E+02  0.00000000000E+00 0. -1.
<mgrwt>
<rscale>  2 0.43746242E+02</rscale>
<asrwt>0</asrwt>
<pdfrwt beam="1">  1       21 0.97502905E-02 0.43746242E+02</pdfrwt>
<pdfrwt beam="2">  1       21 0.62038882E-02 0.43746242E+02</pdfrwt>
<totfact> 0.13719933E+07</totfact>
</mgrwt>
</event>
<event>
 4    1  0.4438654E+006  0.3790704E+02  0.7546771E-02  0.1524204E+00
         21   -1    0    0  504  501  0.00000000000E+00  0.00000000000E+00  0.38123699568E+02  0.38123699568E+02  0.00000000000E+00 0. -1.
         21   -1    0    0  503  502 -0.00000000000E+00 -0.00000000000E+00 -0.17210131318E+03  0.17210131318E+03  0.00000000000E+00 0. -1.
         21    1    1    2  503  501  0.29308188447E+02 -0.24041092815E+02 -0.15988065253E+03  0.16431301563E+03  0.00000000000E+00 0. -1.
         21    1    1    2  504  502 -0.29308188447E+02  0.24041092815E+02  0.25903038918E+02  0.45911997114E+02  0.00000000000E+00 0. -1.
<mgrwt>
<rscale>  2 0.37907045E+02</rscale>
<asrwt>0</asrwt>
<pdfrwt beam="1">  1       21 0.58651847E-02 0.37907045E+02</pdfrwt>
<pdfrwt beam="2">  1       21 0.26477125E-01 0.37907045E+02</pdfrwt>
<totfact> 0.25650071E+06</totfact>
</mgrwt>
</event>
<event>
 4    1  0.4438654E+006  0.5814650E+02  0.7546771E-02  0.1405779E+00
         21   -1    0    0  504  501  0.00000000000E+00  0.00000000000E+00  0.23492513379E+03  0.23492513379E+03  0.00000000000E+00 0. -1.
         21   -1    0    0  503  502 -0.00000000000E+00 -0.00000000000E+00 -0.26206121642E+02  0.26206121642E+02  0.00000000000E+00 0. -1.
         21    1    1    2  503  501  0.56755460656E+02  0.12642525135E+02  0.16693686313E+02  0.60495412378E+02  0.00000000000E+00 0. -1.
         21    1    1    2  504  502 -0.56755460656E+02 -0.12642525135E+02  0.19202532583E+03  0.20063584305E+03  0.00000000000E+00 0. -1.
<mgrwt>
<rscale>  2 0.58146503E+02</rscale>
<asrwt>0</asrwt>
<pdfrwt beam="1">  1       21 0.36142327E-01 0.58146503E+02</pdfrwt>
<pdfrwt beam="2">  1       21 0.40317112E-02 0.58146503E+02</pdfrwt>
<totfact> 0.27248013E+06</totfact>
</mgrwt>
</event>
<event>
 4    1  0.4438654E+006  0.4047458E+02  0.7546771E-02  0.1504748E+00
         21   -1    0    0  502  501  0.00000000000E+00  0.00000000000E+00  0.39588541129E+03  0.39588541129E+03  0.00000000000E+00 0.  1.
         21   -1    0    0  504  502 -0.00000000000E+00 -0.00000000000E+00 -0.27001324929E+02  0.27001324929E+02  0.00000000000E+00 0. -1.
         21    1    1    2  503  501  0.85216336623E+01 -0.39567322254E+02  0.37900977109E+03  0.38116479089E+03  0.00000000000E+00 0.  1.
         21    1    1    2  504  503 -0.85216336623E+01  0.39567322254E+02 -0.10125684732E+02  0.41721945328E+02  0.00000000000E+00 0. -1.
<mgrwt>
<rscale>  2 0.40474575E+02</rscale>
<asrwt>0</asrwt>
<pdfrwt beam="1">  1       21 0.60905444E-01 0.40474575E+02</pdfrwt>
<pdfrwt beam="2">  1       21 0.41540503E-02 0.40474575E+02</pdfrwt>
<totfact> 0.90295423E+05</totfact>
</mgrwt>
</event>
<event>
 4    1  0.4438654E+006  0.2811008E+02  0.7546771E-02  0.1619971E+00
         21   -1    0    0  504  501  0.00000000000E+00  0.00000000000E+00  0.31861702106E+03  0.31861702106E+03  0.00000000000E+00 0. -1.
         21   -1    0    0  501  502 -0.00000000000E+00 -0.00000000000E+00 -0.53930863789E+02  0.53930863789E+02  0.00000000000E+00 0.  1.
         21    1    1    2  503  502  0.16452826996E+02  0.22792132061E+02 -0.49597539613E+02  0.57009584595E+02  0.00000000000E+00 0.  1.
         21    1    1    2  504  503 -0.16452826996E+02 -0.22792132061E+02  0.31428369689E+03  0.31553830026E+03  0.00000000000E+00 0. -1.
<mgrwt>
<rscale>  2 0.28110084E+02</rscale>
<asrwt>0</asrwt>
<pdfrwt beam="1">  1       21 0.49018002E-01 0.28110084E+02</pdfrwt>
<pdfrwt beam="2">  1       21 0.82970561E-02 0.28110084E+02</pdfrwt>
<totfact> 0.44444926E+05</totfact>
</mgrwt>
</event>
<event>
 4    1  0.4438654E+006  0.2771738E+02  0.7546771E-02  0.1624783E+00
         21   -1    0    0  504  501  0.00000000000E+00  0.00000000000E+00  0.28100837606E+03  0.28100837606E+03  0.00000000000E+00 0.  1.
         21   -1    0    0  503  502 -0.00000000000E+00 -0.00000000000E+00 -0.52661832213E+01  0.52661832213E+01  0.00000000000E+00 0. -1.
         21    1    1    2  503  501  0.90335390818E+01  0.26203973700E+02  0.23712774641E+03  0.23874216466E+03  0.00000000000E+00 0.  1.
         21    1    1    2  504  502 -0.90335390818E+01 -0.26203973700E+02  0.38614446427E+02  0.47532394626E+02  0.00000000000E+00 0. -1.
<mgrwt>
<rscale>  2 0.27717378E+02</rscale>
<asrwt>0</asrwt>
<pdfrwt beam="1">  1       21 0.43232046E-01 0.27717378E+02</pdfrwt>
<pdfrwt beam="2">  1       21 0.81018225E-03 0.27717378E+02</pdfrwt>
<totfact> 0.21566472E+07</totfact>
</mgrwt>
</event>
<event>
 4    1  0.4438654E+006  0.2010597E+02  0.7546771E-02  0.1743229E+00
         21   -1    0    0  503  501  0.00000000000E+00  0.00000000000E+00  0.73104413031E+02  0.73104413031E+02  0.00000000000E+00 0.  1.
         21   -1    0    0  504  502 -0.00000000000E+00 -0.00000000000E+00 -0.94010713891E+01  0.94010713891E+01  0.00000000000E+00 0.  1.
         21    1    1    2  503  502  0.12922484903E+02  0.15403226119E+02  0.53792840778E+01  0.20813137393E+02  0.00000000000E+00 0.  1.
         21    1    1    2  504  501 -0.12922484903E+02 -0.15403226119E+02  0.58324057564E+02  0.61692347027E+02  0.00000000000E+00 0.  1.
<mgrwt>
<rscale>  2 0.20105969E+02</rscale>
<asrwt>0</asrwt>
<pdfrwt beam="1">  1       21 0.11246832E-01 0.20105969E+02</pdfrwt>
<pdfrwt beam="2">  1       21 0.14463187E-02 0.20105969E+02</pdfrwt>
<totfact> 0.90525009E+07</totfact>
</mgrwt>
</event>
<event>
 4    1  0.4438654E+006  0.2346626E+02  0.7546771E-02  0.1684062E+00
         21   -1    0    0  502  501  0.00000000000E+00  0.00000000000E+00  0.13688861562E+03  0.13688861562E+03  0.00000000000E+00 0. -1.
         21   -1    0    0  503  502 -0.00000000000E+00 -0.00000000000E+00 -0.17335413012E+02  0.17335413012E+02  0.00000000000E+00 0. -1.
         21    1    1    2  503  504 -0.15418501036E+02 -0.17689979689E+02 -0.77986691945E+01  0.24728218633E+02  0.00000000000E+00 0. -1.
         21    1    1    2  504  501  0.15418501036E+02  0.17689979689E+02  0.12735187181E+03  0.12949581000E+03  0.00000000000E+00 0. -1.
<mgrwt>
<rscale>  2 0.23466264E+02</rscale>
<asrwt>0</asrwt>
<pdfrwt beam="1">  1       21 0.21059786E-01 0.23466264E+02</pdfrwt>
<pdfrwt beam="2">  1       21 0.26669867E-02 0.23466264E+02</pdfrwt>
<totfact> 0.12661519E+07</totfact>
</mgrwt>
</event>
<event>
 4    1  0.4438654E+006  0.2181182E+02  0.7546771E-02  0.1711527E+00
         21   -1    0    0  503  501  0.00000000000E+00  0.00000000000E+00  0.28554409851E+02  0.28554409851E+02  0.00000000000E+00 0. -1.
         21   -1    0    0  504  502 -0.00000000000E+00 -0.00000000000E+00 -0.39628965632E+02  0.39628965632E+02  0.00000000000E+00 0. -1.
         21    1    1    2  503  502  0.19789403407E+02 -0.91725214918E+01  0.20416458164E+02  0.29876201259E+02  0.00000000000E+00 0. -1.
         21    1    1    2  504  501 -0.19789403407E+02  0.91725214918E+01 -0.31491013944E+02  0.38307174223E+02  0.00000000000E+00 0. -1.
<mgrwt>
<rscale>  2 0.21811823E+02</rscale>
<asrwt>0</asrwt>
<pdfrwt beam="1">  1       21 0.43929861E-02 0.21811823E+02</pdfrwt>
<pdfrwt beam="2">  1       21 0.60967640E-02 0.21811823E+02</pdfrwt>
<totfact> 0.45243540E+07</totfact>
</mgrwt>
</event>
<event>
 4    1  0.4438654E+006  0.2049606E+02  0.7546771E-02  0.1735640E+00
         21   -1    0    0  504  501  0.00000000000E+00  0.00000000000E+00  0.16550110196E+03  0.16550110196E+03  0.00000000000E+00 0.  1.
         21   -1    0    0  503  502 -0.00000000000E+00 -0.00000000000E+00 -0.25442065814E+01  0.25442065814E+01  0.00000000000E+00 0.  1.
         21    1    1    2  503  501  0.11205818786E+02  0.17161523981E+02  0.77423449247E+02  0.80090441211E+02  0.00000000000E+00 0.  1.
         21    1    1    2  504  502 -0.11205818786E+02 -0.17161523981E+02  0.85533446127E+02  0.87954867327E+02  0.00000000000E+00 0.  1.
<mgrwt>
<rscale>  2 0.20496055E+02</rscale>
<asrwt>0</asrwt>
<pdfrwt beam="1">  1       21 0.25461699E-01 0.20496055E+02</pdfrwt>
<pdfrwt beam="2">  1       21 0.39141653E-03 0.20496055E+02</pdfrwt>
<totfact> 0.15635675E+08</totfact>
</mgrwt>
</event>
<event>
 4    1  0.4438654E+006  0.2122521E+02  0.7546771E-02  0.1722007E+00
         21   -1    0    0  504  501  0.00000000000E+00  0.00000000000E+00  0.12829525513E+02  0.12829525513E+02  0.00000000000E+00 0. -1.
         21   -1    0    0  503  502 -0.00000000000E+00 -0.00000000000E+00 -0.13692941632E+03  0.13692941632E+03  0.00000000000E+00 0. -1.
         21    1    1    2  503  501  0.20901102025E+02  0.36950371484E+01  0.25182919336E+01  0.21374076814E+02  0.00000000000E+00 0. -1.
         21    1    1    2  504  502 -0.20901102025E+02 -0.36950371484E+01 -0.12661818274E+03  0.12838486502E+03  0.00000000000E+00 0. -1.
<mgrwt>
<rscale>  2 0.21225206E+02</rscale>
<asrwt>0</asrwt>
<pdfrwt beam="1">  1       21 0.19737731E-02 0.21225206E+02</pdfrwt>
<pdfrwt beam="2">  1       21 0.21066065E-01 0.21225206E+02</pdfrwt>
<totfact> 0.19697073E+07</totfact>
</mgrwt>
</event>
<event>
 4    1  0.4438654E+006  0.2840809E+02  0.7546771E-02  0.1616382E+00
         21   -1    0    0  504  501  0.00000000000E+00  0.00000000000E+00  0.46018618807E+02  0.46018618807E+02  0.00000000000E+00 0. -1.
         21   -1    0    0  503  502 -0.00000000000E+00 -0.00000000000E+00 -0.61063239943E+03  0.61063239943E+03  0.00000000000E+00 0. -1.
         21    1    1    2  503  501  0.41765608003E+00 -0.28405022484E+02  0.41269668470E+02  0.50101948810E+02  0.00000000000E+00 0. -1.
         21    1    1    2  504  502 -0.41765608003E+00  0.28405022484E+02 -0.60588344909E+03  0.60654906942E+03  0.00000000000E+00 0. -1.
<mgrwt>
<rscale>  2 0.28408093E+02</rscale>
<asrwt>0</asrwt>
<pdfrwt beam="1">  1       21 0.70797876E-02 0.28408093E+02</pdfrwt>
<pdfrwt beam="2">  1       21 0.93943445E-01 0.28408093E+02</pdfrwt>
<totfact> 0.15095372E+05</totfact>
</mgrwt>
</event>
<event>
 4    1  0.4438654E+006  0.2026323E+02  0.7546771E-02  0.1740143E+00
         21   -1    0    0  503  501  0.00000000000E+00  0.00000000000E+00  0.13710676273E+02  0.13710676273E+02  0.00000000000E+00 0.  1.
         21   -1    0    0  504  502 -0.00000000000E+00 -0.00000000000E+00 -0.32014891815E+02  0.32014891815E+02  0.00000000000E+00 0. -1.
         21    1    1    2  503  502  0.17435887087E+02 -0.10324164454E+02 -0.14962151618E+02  0.25188578984E+02  0.00000000000E+00 0. -1.
         21    1    1    2  504  501 -0.17435887087E+02  0.10324164454E+02 -0.33420639245E+01  0.20536989104E+02  0.00000000000E+00 0.  1.
<mgrwt>
<rscale>  2 0.20263231E+02</rscale>
<asrwt>0</asrwt>
<pdfrwt beam="1">  1       21 0.21093348E-02 0.20263231E+02</pdfrwt>
<pdfrwt beam="2">  1       21 0.49253679E-02 0.20263231E+02</pdfrwt>
<totfact> 0.19442595E+08</totfact>
</mgrwt>
</event>
<event>
 4    1  0.4438654E+006  0.2646400E+02  0.7546771E-02  0.1640823E+00
         21   -1    0    0  503  501  0.00000000000E+00  0.00000000000E+00  0.74144910728E+01  0.74144910728E+01  0.00000000000E+00 0.  1.
         21   -1    0    0  504  502 -0.00000000000E+00 -0.00000000000E+00 -0.10033302135E+03  0.10033302135E+03  0.00000000000E+00 0.  1.
         21    1    1    2  503  502  0.12672444068E+02 -0.23232570356E+02 -0.33420574850E+02  0.42629543597E+02  0.00000000000E+00 0.  1.
         21    1    1    2  504  501 -0.12672444068E+02  0.23232570356E+02 -0.59497955432E+02  0.65117968830E+02  0.00000000000E+00 0.  1.
<mgrwt>
<rscale>  2 0.26463998E+02</rscale>
<asrwt>0</asrwt>
<pdfrwt beam="1">  1       21 0.11406910E-02 0.26463998E+02</pdfrwt>
<pdfrwt beam="2">  1       21 0.15435848E-01 0.26463998E+02</pdfrwt>
<totfact> 0.81919056E+07</totfact>
</mgrwt>
</event>
<event>
 4    1  0.4438654E+006  0.2051290E+02  0.7546771E-02  0.1735317E+00
         21   -1    0    0  504  501  0.00000000000E+00  0.00000000000E+00  0.44602039099E+00  0.44602039099E+00  0.00000000000E+00 0. -1.
         21   -1    0    0  503  502 -0.00000000000E+00 -0.00000000000E+00 -0.14553964595E+04  0.14553964595E+04  0.00000000000E+00 0.  1.
         21    1    1    2  503  501  0.98702602859E+00 -0.20489139047E+02 -0.11592169007E+04  0.11593983793E+04  0.00000000000E+00 0.  1.
         21    1    1    2  504  502 -0.98702602859E+00  0.20489139047E+02 -0.29573353838E+03  0.29644410057E+03  0.00000000000E+00 0. -1.
<mgrwt>
<rscale>  2 0.20512899E+02</rscale>
<asrwt>0</asrwt>
<pdfrwt beam="1">  1       21 0.68617397E-04 0.20512899E+02</pdfrwt>
<pdfrwt beam="2">  1       21 0.22391082E+00 0.20512899E+02</pdfrwt>
<totfact> 0.19418027E+07</totfact>
</mgrwt>
</event>
<event>
 4    1  0.4438654E+006  0.2415394E+02  0.7546771E-02  0.1673460E+00
         21   -1    0    0  504  501  0.00000000000E+00  0.00000000000E+00  0.38816300995E+01  0.38816300995E+01  0.00000000000E+00 0. -1.
         21   -1    0    0  501  502 -0.00000000000E+00 -0.00000000000E+00 -0.36404466873E+03  0.36404466873E+03  0.00000000000E+00 0.  1.
         21    1    1    2  503  502 -0.21715470774E+02 -0.10575969541E+02 -0.32104290156E+03  0.32195024063E+03  0.00000000000E+00 0.  1.
         21    1    1    2  504  503  0.21715470774E+02  0.10575969541E+02 -0.39120137066E+02  0.45976058190E+02  0.00000000000E+00 0. -1.
<mgrwt>
<rscale>  2 0.24153940E+02</rscale>
<asrwt>0</asrwt>
<pdfrwt beam="1">  1       21 0.59717381E-03 0.24153940E+02</pdfrwt>
<pdfrwt beam="2">  1       21 0.56006877E-01 0.24153940E+02</pdfrwt>
<totfact> 0.20003227E+07</totfact>
</mgrwt>
</event>
<event>
 4    1  0.4438654E+006  0.2748433E+02  0.7546771E-02  0.1627686E+00
         21   -1    0    0  503  501  0.00000000000E+00  0.00000000000E+00  0.74317104355E+02  0.74317104355E+02  0.00000000000E+00 0. -1.
         21   -1    0    0  501  502 -0.00000000000E+00 -0.00000000000E+00 -0.22445838000E+02  0.22445838000E+02  0.00000000000E+00 0.  1.
         21    1    1    2  503  504  0.23720750957E+02 -0.13882158822E+02  0.61723504502E+02  0.67566111088E+02  0.00000000000E+00 0. -1.
         21    1    1    2  504  502 -0.23720750957E+02  0.13882158822E+02 -0.98522381476E+01  0.29196831267E+02  0.00000000000E+00 0.  1.
<mgrwt>
<rscale>  2 0.27484329E+02</rscale>
<asrwt>0</asrwt>
<pdfrwt beam="1">  1       21 0.11433401E-01 0.27484329E+02</pdfrwt>
<pdfrwt beam="2">  1       21 0.34532059E-02 0.27484329E+02</pdfrwt>
<totfact> 0.24880229E+07</totfact>
</mgrwt>
</event>
<event>
 4    1  0.4438654E+006  0.2407863E+02  0.7546771E-02  0.1674600E+00
         21   -1    0    0  502  501  0.00000000000E+00  0.00000000000E+00  0.60771819946E+02  0.60771819946E+02  0.00000000000E+00 0.  1.
         21   -1    0    0  504  502 -0.00000000000E+00 -0.00000000000E+00 -0.21049680287E+02  0.21049680287E+02  0.00000000000E+00 0.  1.
         21    1    1    2  503  501  0.17924436239E+02 -0.16077773981E+02  0.50112159414E+02  0.55596841204E+02  0.00000000000E+00 0.  1.
         21    1    1    2  504  503 -0.17924436239E+02  0.16077773981E+02 -0.10390019756E+02  0.26224659029E+02  0.00000000000E+00 0.  1.
<mgrwt>
<rscale>  2 0.24078626E+02</rscale>
<asrwt>0</asrwt>
<pdfrwt beam="1">  1       21 0.93495107E-02 0.24078626E+02</pdfrwt>
<pdfrwt beam="2">  1       21 0.32384124E-02 0.24078626E+02</pdfrwt>
<totfact> 0.37372497E+07</totfact>
</mgrwt>
</event>
<event>
 4    1  0.4438654E+006  0.2181217E+02  0.7546771E-02  0.1711521E+00
         21   -1    0    0  504  501  0.00000000000E+00  0.00000000000E+00  0.13673610492E+03  0.13673610492E+03  0.00000000000E+00 0. -1.
         21   -1    0    0  503  502 -0.00000000000E+00 -0.00000000000E+00 -0.17796071243E+02  0.17796071243E+02  0.00000000000E+00 0. -1.
         21    1    1    2  503  501 -0.36587071924E+01 -0.21503134697E+02 -0.98321199829E+01  0.23925750218E+02  0.00000000000E+00 0. -1.
         21    1    1    2  504  502  0.36587071924E+01  0.21503134697E+02  0.12877215366E+03  0.13060642594E+03  0.00000000000E+00 0. -1.
<mgrwt>
<rscale>  2 0.21812174E+02</rscale>
<asrwt>0</asrwt>
<pdfrwt beam="1">  1       21 0.21036323E-01 0.21812174E+02</pdfrwt>
<pdfrwt beam="2">  1       21 0.27378572E-02 0.21812174E+02</pdfrwt>
<totfact> 0.12003678E+07</totfact>
</mgrwt>
</event>
<event>
 4    1  0.4438654E+006  0.2212323E+02  0.7546771E-02  0.1706129E+00
         21   -1    0    0  504  501  0.00000000000E+00  0.00000000000E+00  0.13437681410E+02  0.13437681410E+02  0.00000000000E+00 0.  1.
         21   -1    0    0  503  502 -0.00000000000E+00 -0.00000000000E+00 -0.53877429670E+02  0.53877429670E+02  0.00000000000E+00 0.  1.
         21    1    1    2  503  501 -0.18417077547E+02 -0.12257590232E+02 -0.10625378944E+01  0.22148730222E+02  0.00000000000E+00 0.  1.
         21    1    1    2  504  502  0.18417077547E+02  0.12257590232E+02 -0.39377210366E+02  0.45166380858E+02  0.00000000000E+00 0.  1.
<mgrwt>
<rscale>  2 0.22123229E+02</rscale>
<asrwt>0</asrwt>
<pdfrwt beam="1">  1       21 0.20673355E-02 0.22123229E+02</pdfrwt>
<pdfrwt beam="2">  1       21 0.82888356E-02 0.22123229E+02</pdfrwt>
<totfact> 0.89234366E+07</totfact>
</mgrwt>
</event>
<event>
 4    1  0.4438654E+006  0.2042924E+02  0.7546771E-02  0.1736924E+00
         21   -1    0    0  504  501  0.00000000000E+00  0.00000000000E+00  0.35028985294E+03  0.35028985294E+03  0.00000000000E+00 0.  1.
         21   -1    0    0  503  502 -0.00000000000E+00 -0.00000000000E+00 -0.91912069382E+02  0.91912069382E+02  0.00000000000E+00 0. -1.
         21    1    1    2  503  501 -0.10099497614E+02 -0.17758208014E+02 -0.90474333086E+02  0.92752136100E+02  0.00000000000E+00 0. -1.
         21    1    1    2  504  502  0.10099497614E+02  0.17758208014E+02  0.34885211664E+03  0.34944978622E+03  0.00000000000E+00 0.  1.
<mgrwt>
<rscale>  2 0.20429239E+02</rscale>
<asrwt>0</asrwt>
<pdfrwt beam="1">  1       21 0.53890746E-01 0.20429239E+02</pdfrwt>
<pdfrwt beam="2">  1       21 0.14140319E-01 0.20429239E+02</pdfrwt>
<totfact> 0.15031515E+05</totfact>
</mgrwt>
</event>
<event>
 4    1  0.4438654E+006  0.2593600E+02  0.7546771E-02  0.1647911E+00
         21   -1    0    0  503  501  0.00000000000E+00  0.00000000000E+00  0.78988341347E+02  0.78988341347E+02  0.00000000000E+00 0.  1.
         21   -1    0    0  504  502 -0.00000000000E+00 -0.00000000000E+00 -0.89660479482E+01  0.89660479482E+01  0.00000000000E+00 0. -1.
         21    1    1    2  503  502  0.22340922357E+02 -0.13174190326E+02  0.44862294034E+02  0.51819895103E+02  0.00000000000E+00 0.  1.
         21    1    1    2  504  501 -0.22340922357E+02  0.13174190326E+02  0.25159999365E+02  0.36134494192E+02  0.00000000000E+00 0. -1.
<mgrwt>
<rscale>  2 0.25936000E+02</rscale>
<asrwt>0</asrwt>
<pdfrwt beam="1">  1       21 0.12152052E-01 0.25936000E+02</pdfrwt>
<pdfrwt beam="2">  1       21 0.13793920E-02 0.25936000E+02</pdfrwt>
<totfact> 0.91717347E+07</totfact>
</mgrwt>
</event>
<event>
 4    1  0.4438654E+006  0.4346306E+02  0.7546771E-02  0.1484171E+00
         21   -1    0    0  502  501  0.00000000000E+00  0.00000000000E+00  0.20674105670E+03  0.20674105670E+03  0.00000000000E+00 0.  1.
         21   -1    0    0  503  502 -0.00000000000E+00 -0.00000000000E+00 -0.58848660423E+02  0.58848660423E+02  0.00000000000E+00 0. -1.
         21    1    1    2  503  504  0.41684739046E+02  0.12305270819E+02 -0.48104754170E+02  0.64831354551E+02  0.00000000000E+00 0. -1.
         21    1    1    2  504  501 -0.41684739046E+02 -0.12305270819E+02  0.19599715045E+03  0.20075836257E+03  0.00000000000E+00 0.  1.
<mgrwt>
<rscale>  2 0.43463055E+02</rscale>
<asrwt>0</asrwt>
<pdfrwt beam="1">  1       21 0.31806316E-01 0.43463055E+02</pdfrwt>
<pdfrwt beam="2">  1       21 0.90536401E-02 0.43463055E+02</pdfrwt>
<totfact> 0.89737653E+05</totfact>
</mgrwt>
</event>
<event>
 4    1  0.4438654E+006  0.2067654E+02  0.7546771E-02  0.1732200E+00
         21   -1    0    0  503  501  0.00000000000E+00  0.00000000000E+00  0.59440495855E+01  0.59440495855E+01  0.00000000000E+00 0.  1.
         21   -1    0    0  504  502 -0.00000000000E+00 -0.00000000000E+00 -0.75786887074E+02  0.75786887074E+02  0.00000000000E+00 0. -1.
         21    1    1    2  503  502  0.15356051078E+02 -0.13845970409E+02 -0.25695251436E+02  0.32981284809E+02  0.00000000000E+00 0. -1.
         21    1    1    2  504  501 -0.15356051078E+02  0.13845970409E+02 -0.44147586052E+02  0.48749651850E+02  0.00000000000E+00 0.  1.
<mgrwt>
<rscale>  2 0.20676537E+02</rscale>
<asrwt>0</asrwt>
<pdfrwt beam="1">  1       21 0.91446920E-03 0.20676537E+02</pdfrwt>
<pdfrwt beam="2">  1       21 0.11659521E-01 0.20676537E+02</pdfrwt>
<totfact> 0.17115582E+08</totfact>
</mgrwt>
</event>
<event>
 4    1  0.4438654E+006  0.4376322E+02  0.7546771E-02  0.1482214E+00
         21   -1    0    0  503  501  0.00000000000E+00  0.00000000000E+00  0.39714474453E+03  0.39714474453E+03  0.00000000000E+00 0. -1.
         21   -1    0    0  504  502 -0.00000000000E+00 -0.00000000000E+00 -0.66913363054E+01  0.66913363054E+01  0.00000000000E+00 0. -1.
         21    1    1    2  503  502 -0.43753357761E+02 -0.92923663796E+00  0.88516127749E+02  0.98743732297E+02  0.00000000000E+00 0. -1.
         21    1    1    2  504  501  0.43753357761E+02  0.92923663796E+00  0.30193728048E+03  0.30509234854E+03  0.00000000000E+00 0. -1.
<mgrwt>
<rscale>  2 0.43763224E+02</rscale>
<asrwt>0</asrwt>
<pdfrwt beam="1">  1       21 0.61099173E-01 0.43763224E+02</pdfrwt>
<pdfrwt beam="2">  1       21 0.10294367E-02 0.43763224E+02</pdfrwt>
<totfact> 0.80627802E+06</totfact>
</mgrwt>
</event>
<event>
 4    1  0.4438654E+006  0.2040289E+02  0.7546771E-02  0.1737433E+00
         21   -1    0    0  503  501  0.00000000000E+00  0.00000000000E+00  0.56704309016E+02  0.56704309016E+02  0.00000000000E+00 0.  1.
         21   -1    0    0  504  502 -0.00000000000E+00 -0.00000000000E+00 -0.10398286934E+02  0.10398286934E+02  0.00000000000E+00 0. -1.
         21    1    1    2  503  502  0.91990528130E+01  0.18211407740E+02  0.49609467484E+01  0.20997355480E+02  0.00000000000E+00 0. -1.
         21    1    1    2  504  501 -0.91990528130E+01 -0.18211407740E+02  0.41345075333E+02  0.46105240470E+02  0.00000000000E+00 0.  1.
<mgrwt>
<rscale>  2 0.20402891E+02</rscale>
<asrwt>0</asrwt>
<pdfrwt beam="1">  1       21 0.87237397E-02 0.20402891E+02</pdfrwt>
<pdfrwt beam="2">  1       21 0.15997365E-02 0.20402891E+02</pdfrwt>
<totfact> 0.11853493E+08</totfact>
</mgrwt>
</event>
<event>
 4    1  0.4438654E+006  0.3456385E+02  0.7546771E-02  0.1552508E+00
         21   -1    0    0  504  501  0.00000000000E+00  0.00000000000E+00  0.15111986616E+02  0.15111986616E+02  0.00000000000E+00 0.  1.
         21   -1    0    0  501  502 -0.00000000000E+00 -0.00000000000E+00 -0.10871497197E+04  0.10871497197E+04  0.00000000000E+00 0. -1.
         21    1    1    2  503  502 -0.29056857395E+02 -0.18717881924E+02 -0.10667333894E+04  0.10672932043E+04  0.00000000000E+00 0. -1.
         21    1    1    2  504  503  0.29056857395E+02  0.18717881924E+02 -0.53043436837E+01  0.34968501931E+02  0.00000000000E+00 0.  1.
<mgrwt>
<rscale>  2 0.34563855E+02</rscale>
<asrwt>0</asrwt>
<pdfrwt beam="1">  1       21 0.23249215E-02 0.34563855E+02</pdfrwt>
<pdfrwt beam="2">  1       21 0.16725377E+00 0.34563855E+02</pdfrwt>
<totfact> 0.23301110E+05</totfact>
</mgrwt>
</event>
<event>
 4    1  0.4438654E+006  0.2960920E+02  0.7546771E-02  0.1602449E+00
         21   -1    0    0  504  501  0.00000000000E+00  0.00000000000E+00  0.17299862948E+03  0.17299862948E+03  0.00000000000E+00 0. -1.
         21   -1    0    0  503  502 -0.00000000000E+00 -0.00000000000E+00 -0.62168743031E+01  0.62168743031E+01  0.00000000000E+00 0. -1.
         21    1    1    2  503  501 -0.27451381775E+02  0.11096235064E+02  0.44864969393E+02  0.53754723259E+02  0.00000000000E+00 0. -1.
         21    1    1    2  504  502  0.27451381775E+02 -0.11096235064E+02  0.12191678578E+03  0.12546078052E+03  0.00000000000E+00 0. -1.
<mgrwt>
<rscale>  2 0.29609201E+02</rscale>
<asrwt>0</asrwt>
<pdfrwt beam="1">  1       21 0.26615170E-01 0.29609201E+02</pdfrwt>
<pdfrwt beam="2">  1       21 0.95644233E-03 0.29609201E+02</pdfrwt>
<totfact> 0.42025195E+07</totfact>
</mgrwt>
</event>
<event>
 4    1  0.4438654E+006  0.2316392E+02  0.7546771E-02  0.1688867E+00
         21   -1    0    0  502  501  0.00000000000E+00  0.00000000000E+00  0.19675472450E+03  0.19675472450E+03  0.00000000000E+00 0. -1.
         21   -1    0    0  503  502 -0.00000000000E+00 -0.00000000000E+00 -0.22264197249E+03  0.22264197249E+03  0.00000000000E+00 0.  1.
         21    1    1    2  503  504  0.13348210250E+02  0.18931257285E+02 -0.22135374376E+03  0.22256245662E+03  0.00000000000E+00 0.  1.
         21    1    1    2  504  501 -0.13348210250E+02 -0.18931257285E+02  0.19546649576E+03  0.19683424038E+03  0.00000000000E+00 0. -1.
<mgrwt>
<rscale>  2 0.23163921E+02</rscale>
<asrwt>0</asrwt>
<pdfrwt beam="1">  1       21 0.30269958E-01 0.23163921E+02</pdfrwt>
<pdfrwt beam="2">  1       21 0.34252611E-01 0.23163921E+02</pdfrwt>
<totfact> 0.94000697E+04</totfact>
</mgrwt>
</event>
<event>
 4    1  0.4438654E+006  0.2570182E+02  0.7546771E-02  0.1651121E+00
         21   -1    0    0  504  501  0.00000000000E+00  0.00000000000E+00  0.56845706664E+03  0.56845706664E+03  0.00000000000E+00 0.  1.
         21   -1    0    0  501  502 -0.00000000000E+00 -0.00000000000E+00 -0.75681690059E+01  0.75681690059E+01  0.00000000000E+00 0. -1.
         21    1    1    2  503  502  0.22193532315E+02  0.12962665134E+02  0.15464430351E+02  0.29995535835E+02  0.00000000000E+00 0. -1.
         21    1    1    2  504  503 -0.22193532315E+02 -0.12962665134E+02  0.54542446728E+03  0.54602969981E+03  0.00000000000E+00 0.  1.
<mgrwt>
<rscale>  2 0.25701820E+02</rscale>
<asrwt>0</asrwt>
<pdfrwt beam="1">  1       21 0.87454900E-01 0.25701820E+02</pdfrwt>
<pdfrwt beam="2">  1       21 0.11643341E-02 0.25701820E+02</pdfrwt>
<totfact> 0.29660376E+06</totfact>
</mgrwt>
</event>
<event>
 4    1  0.4438654E+006  0.2132541E+02  0.7546771E-02  0.1720187E+00
         21   -1    0    0  503  501  0.00000000000E+00  0.00000000000E+00  0.79150135678E+02  0.79150135678E+02  0.00000000000E+00 0. -1.
         21   -1    0    0  504  502 -0.00000000000E+00 -0.00000000000E+00 -0.17868082686E+02  0.17868082686E+02  0.00000000000E+00 0. -1.
         21    1    1    2  503  502 -0.53234115075E+01 -0.20650284733E+02 -0.93146335712E+01  0.23270912492E+02  0.00000000000E+00 0. -1.
         21    1    1    2  504  501  0.53234115075E+01  0.20650284733E+02  0.70596686564E+02  0.73747305872E+02  0.00000000000E+00 0. -1.
<mgrwt>
<rscale>  2 0.21325407E+02</rscale>
<asrwt>0</asrwt>
<pdfrwt beam="1">  1       21 0.12176944E-01 0.21325407E+02</pdfrwt>
<pdfrwt beam="2">  1       21 0.27489359E-02 0.21325407E+02</pdfrwt>
<totfact> 0.30192645E+07</totfact>
</mgrwt>
</event>
<event>
 4    1  0.4438654E+006  0.2024899E+02  0.7546771E-02  0.1740421E+00
         21   -1    0    0  503  501  0.00000000000E+00  0.00000000000E+00  0.32348754984E+02  0.32348754984E+02  0.00000000000E+00 0. -1.
         21   -1    0    0  504  502 -0.00000000000E+00 -0.00000000000E+00 -0.75067464526E+02  0.75067464526E+02  0.00000000000E+00 0. -1.
         21    1    1    2  503  502 -0.20228146730E+02  0.91849354572E+00 -0.70323699638E+02  0.73180901069E+02  0.00000000000E+00 0. -1.
         21    1    1    2  504  501  0.20228146730E+02 -0.91849354572E+00  0.27604990096E+02  0.34235318441E+02  0.00000000000E+00 0. -1.
<mgrwt>
<rscale>  2 0.20248989E+02</rscale>
<asrwt>0</asrwt>
<pdfrwt beam="1">  1       21 0.49767316E-02 0.20248989E+02</pdfrwt>
<pdfrwt beam="2">  1       21 0.11548841E-01 0.20248989E+02</pdfrwt>
<totfact> 0.12876522E+07</totfact>
</mgrwt>
</event>
<event>
 4    1  0.4438654E+006  0.2123045E+02  0.7546771E-02  0.1721911E+00
         21   -1    0    0  502  501  0.00000000000E+00  0.00000000000E+00  0.88115009381E+03  0.88115009381E+03  0.00000000000E+00 0. -1.
         21   -1    0    0  504  502 -0.00000000000E+00 -0.00000000000E+00 -0.27570026663E+01  0.27570026663E+01  0.00000000000E+00 0.  1.
         21    1    1    2  503  501 -0.16902427407E+01 -0.21163054566E+02  0.83804897120E+03  0.83831784540E+03  0.00000000000E+00 0. -1.
         21    1    1    2  504  503  0.16902427407E+01  0.21163054566E+02  0.40344119952E+02  0.45589251077E+02  0.00000000000E+00 0.  1.
<mgrwt>
<rscale>  2 0.21230445E+02</rscale>
<asrwt>0</asrwt>
<pdfrwt beam="1">  1       21 0.13556133E+00 0.21230445E+02</pdfrwt>
<pdfrwt beam="2">  1       21 0.42415496E-03 0.21230445E+02</pdfrwt>
<totfact> 0.49102561E+06</totfact>
</mgrwt>
</event>
<event>
 4    1  0.4438654E+006  0.2922975E+02  0.7546771E-02  0.1606762E+00
         21   -1    0    0  504  501  0.00000000000E+00  0.00000000000E+00  0.22040323488E+01  0.22040323488E+01  0.00000000000E+00 0. -1.
         21   -1    0    0  503  502 -0.00000000000E+00 -0.00000000000E+00 -0.19534711016E+04  0.19534711016E+04  0.00000000000E+00 0. -1.
         21    1    1    2  503  501 -0.26037600113E+02  0.13282376437E+02 -0.10017569320E+03  0.10435299541E+03  0.00000000000E+00 0. -1.
         21    1    1    2  504  502  0.26037600113E+02 -0.13282376437E+02 -0.18510913761E+04  0.18513221386E+04  0.00000000000E+00 0. -1.
<mgrwt>
<rscale>  2 0.29229748E+02</rscale>
<asrwt>0</asrwt>
<pdfrwt beam="1">  1       21 0.33908191E-03 0.29229748E+02</pdfrwt>
<pdfrwt beam="2">  1       21 0.30053400E+00 0.29229748E+02</pdfrwt>
<totfact> 0.81942111E+05</totfact>
</mgrwt>
</event>
<event>
 4    1  0.4438654E+006  0.2089304E+02  0.7546771E-02  0.1728131E+00
         21   -1    0    0  503  501  0.00000000000E+00  0.00000000000E+00  0.23729471486E+01  0.23729471486E+01  0.00000000000E+00 0. -1.
         21   -1    0    0  504  502 -0.00000000000E+00 -0.00000000000E+00 -0.21180312272E+03  0.21180312272E+03  0.00000000000E+00 0. -1.
         21    1    1    2  503  502 -0.19429182541E+02 -0.76828263911E+01 -0.65885627623E+02  0.69118990754E+02  0.00000000000E+00 0. -1.
         21    1    1    2  504  501  0.19429182541E+02  0.76828263911E+01 -0.14354454795E+03  0.14505707911E+03  0.00000000000E+00 0. -1.
<mgrwt>
<rscale>  2 0.20893036E+02</rscale>
<asrwt>0</asrwt>
<pdfrwt beam="1">  1       21 0.36506863E-03 0.20893036E+02</pdfrwt>
<pdfrwt beam="2">  1       21 0.32585111E-01 0.20893036E+02</pdfrwt>
<totfact> 0.11158307E+08</totfact>
</mgrwt>
</event>
<event>
 4    1  0.4438654E+006  0.2240745E+02  0.7546771E-02  0.1701299E+00
         21   -1    0    0  503  501  0.00000000000E+00  0.00000000000E+00  0.41019604871E+02  0.41019604871E+02  0.00000000000E+00 0.  1.
         21   -1    0    0  504  502 -0.00000000000E+00 -0.00000000000E+00 -0.23937178391E+02  0.23937178391E+02  0.00000000000E+00 0. -1.
         21    1    1    2  503  502  0.58712164885E+01  0.21624586063E+02  0.31244685499E+02  0.38448982787E+02  0.00000000000E+00 0.  1.
         21    1    1    2  504  501 -0.58712164885E+01 -0.21624586063E+02 -0.14162259019E+02  0.26507800474E+02  0.00000000000E+00 0. -1.
<mgrwt>
<rscale>  2 0.22407452E+02</rscale>
<asrwt>0</asrwt>
<pdfrwt beam="1">  1       21 0.63107084E-02 0.22407452E+02</pdfrwt>
<pdfrwt beam="2">  1       21 0.36826428E-02 0.22407452E+02</pdfrwt>
<totfact> 0.56901633E+07</totfact>
</mgrwt>
</event>
<event>
 4    1  0.4438654E+006  0.4975024E+02  0.7546771E-02  0.1446693E+00
         21   -1    0    0  502  501  0.00000000000E+00  0.00000000000E+00  0.50484620597E+01  0.50484620597E+01  0.00000000000E+00 0.  1.
         21   -1    0    0  503  502 -0.00000000000E+00 -0.00000000000E+00 -0.64551576257E+03  0.64551576257E+03  0.00000000000E+00 0.  1.
         21    1    1    2  503  504 -0.46113354030E+02 -0.18672039713E+02 -0.47975653971E+03  0.48232916549E+03  0.00000000000E+00 0.  1.
         21    1    1    2  504  501  0.46113354030E+02  0.18672039713E+02 -0.16071076080E+03  0.16823505914E+03  0.00000000000E+00 0.  1.
<mgrwt>
<rscale>  2 0.49750241E+02</rscale>
<asrwt>0</asrwt>
<pdfrwt beam="1">  1       21 0.77668666E-03 0.49750241E+02</pdfrwt>
<pdfrwt beam="2">  1       21 0.99310093E-01 0.49750241E+02</pdfrwt>
<totfact> 0.44162090E+06</totfact>
</mgrwt>
</event>
<event>
 4    1  0.4438654E+006  0.2223160E+02  0.7546771E-02  0.1704277E+00
         21   -1    0    0  504  501  0.00000000000E+00  0.00000000000E+00  0.33933638031E+01  0.33933638031E+01  0.00000000000E+00 0. -1.
         21   -1    0    0  501  502 -0.00000000000E+00 -0.00000000000E+00 -0.18620149293E+03  0.18620149293E+03  0.00000000000E+00 0. -1.
         21    1    1    2  503  502  0.15613745664E+02 -0.15825763075E+02 -0.13564331714E+03  0.13745309496E+03  0.00000000000E+00 0. -1.
         21    1    1    2  504  503 -0.15613745664E+02  0.15825763075E+02 -0.47164811984E+02  0.52141761766E+02  0.00000000000E+00 0. -1.
<mgrwt>
<rscale>  2 0.22231595E+02</rscale>
<asrwt>0</asrwt>
<pdfrwt beam="1">  1       21 0.52205583E-03 0.22231595E+02</pdfrwt>
<pdfrwt beam="2">  1       21 0.28646391E-01 0.22231595E+02</pdfrwt>
<totfact> 0.84882337E+07</totfact>
</mgrwt>
</event>
<event>
 4    1  0.4438654E+006  0.6570040E+02  0.7546771E-02  0.1375356E+00
         21   -1    0    0  503  501  0.00000000000E+00  0.00000000000E+00  0.28770342801E+03  0.28770342801E+03  0.00000000000E+00 0.  1.
         21   -1    0    0  504  502 -0.00000000000E+00 -0.00000000000E+00 -0.34315363625E+02  0.34315363625E+02  0.00000000000E+00 0.  1.
         21    1    1    2  503  502  0.29362907630E+01  0.65634752287E+02  0.24748087537E+03  0.25605336590E+03  0.00000000000E+00 0.  1.
         21    1    1    2  504  501 -0.29362907630E+01 -0.65634752287E+02  0.59071890148E+01  0.65965425741E+02  0.00000000000E+00 0.  1.
<mgrwt>
<rscale>  2 0.65700400E+02</rscale>
<asrwt>0</asrwt>
<pdfrwt beam="1">  1       21 0.44262064E-01 0.65700400E+02</pdfrwt>
<pdfrwt beam="2">  1       21 0.52792869E-02 0.65700400E+02</pdfrwt>
<totfact> 0.11851377E+06</totfact>
</mgrwt>
</event>
<event>
 4    1  0.4438654E+006  0.2309304E+02  0.7546771E-02  0.1690006E+00
         21   -1    0    0  504  501  0.00000000000E+00  0.00000000000E+00  0.56137173883E+01  0.56137173883E+01  0.00000000000E+00 0.  1.
         21   -1    0    0  503  502 -0.00000000000E+00 -0.00000000000E+00 -0.11572793661E+03  0.11572793661E+03  0.00000000000E+00 0.  1.
         21    1    1    2  503  501 -0.23077214709E+02  0.85479199822E+00 -0.29378815329E+02  0.37368480010E+02  0.00000000000E+00 0.  1.
         21    1    1    2  504  502  0.23077214709E+02 -0.85479199822E+00 -0.80735403894E+02  0.83973173990E+02  0.00000000000E+00 0.  1.
<mgrwt>
<rscale>  2 0.23093040E+02</rscale>
<asrwt>0</asrwt>
<pdfrwt beam="1">  1       21 0.86364886E-03 0.23093040E+02</pdfrwt>
<pdfrwt beam="2">  1       21 0.17804297E-01 0.23093040E+02</pdfrwt>
<totfact> 0.93997024E+07</totfact>
</mgrwt>
</event>
<event>
 4    1  0.4438654E+006  0.2372526E+02  0.7546771E-02  0.1680017E+00
         21   -1    0    0  503  501  0.00000000000E+00  0.00000000000E+00  0.75218468145E+03  0.75218468145E+03  0.00000000000E+00 0. -1.
         21   -1    0    0  504  502 -0.00000000000E+00 -0.00000000000E+00 -0.18489864212E+01  0.18489864212E+01  0.00000000000E+00 0.  1.
         21    1    1    2  503  502  0.13794149365E+02 -0.19303097559E+02  0.84284905729E+02  0.87560456063E+02  0.00000000000E+00 0.  1.
         21    1    1    2  504  501 -0.13794149365E+02  0.19303097559E+02  0.66605078930E+03  0.66647321181E+03  0.00000000000E+00 0. -1.
<mgrwt>
<rscale>  2 0.23725264E+02</rscale>
<asrwt>0</asrwt>
<pdfrwt beam="1">  1       21 0.11572048E+00 0.23725264E+02</pdfrwt>
<pdfrwt beam="2">  1       21 0.28446005E-03 0.23725264E+02</pdfrwt>
<totfact> 0.12841290E+07</totfact>
</mgrwt>
</event>
<event>
 4    1  0.4438654E+006  0.4770544E+02  0.7546771E-02  0.1458126E+00
         21   -1    0    0  503  501  0.00000000000E+00  0.00000000000E+00  0.23408325810E+02  0.23408325810E+02  0.00000000000E+00 0.  1.
         21   -1    0    0  501  502 -0.00000000000E+00 -0.00000000000E+00 -0.17360017136E+03  0.17360017136E+03  0.00000000000E+00 0.  1.
         21    1    1    2  503  504 -0.26382664271E+02  0.39746243513E+02 -0.97582054433E+01  0.48693237938E+02  0.00000000000E+00 0.  1.
         21    1    1    2  504  502  0.26382664271E+02 -0.39746243513E+02 -0.14043364011E+03  0.14831525923E+03  0.00000000000E+00 0.  1.
<mgrwt>
<rscale>  2 0.47705438E+02</rscale>
<asrwt>0</asrwt>
<pdfrwt beam="1">  1       21 0.36012809E-02 0.47705438E+02</pdfrwt>
<pdfrwt beam="2">  1       21 0.26707719E-01 0.47705438E+02</pdfrwt>
<totfact> 0.56915181E+06</totfact>
</mgrwt>
</event>
<event>
 4    1  0.4438654E+006  0.2326067E+02  0.7546771E-02  0.1687319E+00
         21   -1    0    0  503  501  0.00000000000E+00  0.00000000000E+00  0.20208661724E+03  0.20208661724E+03  0.00000000000E+00 0.  1.
         21   -1    0    0  504  502 -0.00000000000E+00 -0.00000000000E+00 -0.34611148213E+03  0.34611148213E+03  0.00000000000E+00 0.  1.
         21    1    1    2  503  502 -0.11975021811E+02 -0.19941357460E+02 -0.34504927105E+03  0.34583241366E+03  0.00000000000E+00 0.  1.
         21    1    1    2  504  501  0.11975021811E+02  0.19941357460E+02  0.20102440616E+03  0.20236568572E+03  0.00000000000E+00 0.  1.
<mgrwt>
<rscale>  2 0.23260672E+02</rscale>
<asrwt>0</asrwt>
<pdfrwt beam="1">  1       21 0.31090249E-01 0.23260672E+02</pdfrwt>
<pdfrwt beam="2">  1       21 0.53247920E-01 0.23260672E+02</pdfrwt>
<totfact> 0.38662941E+04</totfact>
</mgrwt>
</event>
<event>
 4    1  0.4438654E+006  0.2329278E+02  0.7546771E-02  0.1686808E+00
         21   -1    0    0  502  501  0.00000000000E+00  0.00000000000E+00  0.64379085117E+03  0.64379085117E+03  0.00000000000E+00 0.  1.
         21   -1    0    0  504  502 -0.00000000000E+00 -0.00000000000E+00 -0.12406063030E+01  0.12406063030E+01  0.00000000000E+00 0. -1.
         21    1    1    2  503  501 -0.17405266154E+02  0.15479358440E+02  0.50391592320E+03  0.50445397360E+03  0.00000000000E+00 0.  1.
         21    1    1    2  504  503  0.17405266154E+02 -0.15479358440E+02  0.13863432166E+03  0.14057748386E+03  0.00000000000E+00 0. -1.
<mgrwt>
<rscale>  2 0.23292785E+02</rscale>
<asrwt>0</asrwt>
<pdfrwt beam="1">  1       21 0.99044480E-01 0.23292785E+02</pdfrwt>
<pdfrwt beam="2">  1       21 0.19086302E-03 0.23292785E+02</pdfrwt>
<totfact> 0.32236044E+07</totfact>
</mgrwt>
</event>
<event>
 4    1  0.4438654E+006  0.2649096E+02  0.7546771E-02  0.1640466E+00
         21   -1    0    0  504  501  0.00000000000E+00  0.00000000000E+00  0.15015251143E+03  0.15015251143E+03  0.00000000000E+00 0.  1.
         21   -1    0    0  503  502 -0.00000000000E+00 -0.00000000000E+00 -0.48251945588E+01  0.48251945588E+01  0.00000000000E+00 0.  1.
         21    1    1    2  503  501  0.25400691501E+02  0.75216803386E+01  0.86393059384E+02  0.90363330581E+02  0.00000000000E+00 0.  1.
         21    1    1    2  504  502 -0.25400691501E+02 -0.75216803386E+01  0.58934257487E+02  0.64614375408E+02  0.00000000000E+00 0.  1.
<mgrwt>
<rscale>  2 0.26490957E+02</rscale>
<asrwt>0</asrwt>
<pdfrwt beam="1">  1       21 0.23100383E-01 0.26490957E+02</pdfrwt>
<pdfrwt beam="2">  1       21 0.74233774E-03 0.26490957E+02</pdfrwt>
<totfact> 0.77377465E+07</totfact>
</mgrwt>
</event>
<event>
 4    1  0.4438654E+006  0.2527041E+02  0.7546771E-02  0.1657148E+00
         21   -1    0    0  504  501  0.00000000000E+00  0.00000000000E+00  0.14788780096E+02  0.14788780096E+02  0.00000000000E+00 0.  1.
         21   -1    0    0  503  502 -0.00000000000E+00 -0.00000000000E+00 -0.53773962098E+02  0.53773962098E+02  0.00000000000E+00 0.  1.
         21    1    1    2  503  501 -0.16557006025E+02 -0.19090814178E+02 -0.42772456178E+01  0.25629835438E+02  0.00000000000E+00 0.  1.
         21    1    1    2  504  502  0.16557006025E+02  0.19090814178E+02 -0.34707936385E+02  0.42932906757E+02  0.00000000000E+00 0.  1.
<mgrwt>
<rscale>  2 0.25270410E+02</rscale>
<asrwt>0</asrwt>
<pdfrwt beam="1">  1       21 0.22751969E-02 0.25270410E+02</pdfrwt>
<pdfrwt beam="2">  1       21 0.82729172E-02 0.25270410E+02</pdfrwt>
<totfact> 0.80102902E+07</totfact>
</mgrwt>
</event>
<event>
 4    1  0.4438654E+006  0.2367344E+02  0.7546771E-02  0.1680821E+00
         21   -1    0    0  504  501  0.00000000000E+00  0.00000000000E+00  0.66500530415E+01  0.66500530415E+01  0.00000000000E+00 0. -1.
         21   -1    0    0  501  502 -0.00000000000E+00 -0.00000000000E+00 -0.25133472316E+03  0.25133472316E+03  0.00000000000E+00 0.  1.
         21    1    1    2  503  502  0.16737422435E+02 -0.16741875274E+02 -0.22750800991E+03  0.22873636850E+03  0.00000000000E+00 0.  1.
         21    1    1    2  504  503 -0.16737422435E+02  0.16741875274E+02 -0.17176660200E+02  0.29248407702E+02  0.00000000000E+00 0. -1.
<mgrwt>
<rscale>  2 0.23673439E+02</rscale>
<asrwt>0</asrwt>
<pdfrwt beam="1">  1       21 0.10230851E-02 0.23673439E+02</pdfrwt>
<pdfrwt beam="2">  1       21 0.38666880E-01 0.23673439E+02</pdfrwt>
<totfact> 0.18207448E+07</totfact>
</mgrwt>
</event>
<event>
 4    1  0.4438654E+006  0.2183670E+02  0.7546771E-02  0.1711092E+00
         21   -1    0    0  502  501  0.00000000000E+00  0.00000000000E+00  0.18492410498E+01  0.18492410498E+01  0.00000000000E+00 0. -1.
         21   -1    0    0  503  502 -0.00000000000E+00 -0.00000000000E+00 -0.42176247457E+03  0.42176247457E+03  0.00000000000E+00 0. -1.
         21    1    1    2  503  504  0.21694467750E+02  0.24882444244E+01 -0.34199482546E+03  0.34269126328E+03  0.00000000000E+00 0. -1.
         21    1    1    2  504  501 -0.21694467750E+02 -0.24882444244E+01 -0.77918408060E+02  0.80920452334E+02  0.00000000000E+00 0. -1.
<mgrwt>
<rscale>  2 0.21836696E+02</rscale>
<asrwt>0</asrwt>
<pdfrwt beam="1">  1       21 0.28449865E-03 0.21836696E+02</pdfrwt>
<pdfrwt beam="2">  1       21 0.64886529E-01 0.21836696E+02</pdfrwt>
<totfact> 0.43308531E+07</totfact>
</mgrwt>
</event>
<event>
 4    1  0.4438654E+006  0.2004553E+02  0.7546771E-02  0.1744424E+00
         21   -1    0    0  503  501  0.00000000000E+00  0.00000000000E+00  0.18140938433E+02  0.18140938433E+02  0.00000000000E+00 0. -1.
         21   -1    0    0  504  502 -0.00000000000E+00 -0.00000000000E+00 -0.30467004133E+02  0.30467004133E+02  0.00000000000E+00 0. -1.
         21    1    1    2  503  502 -0.11405778016E+02  0.16484274758E+02 -0.18861285246E+02  0.27524010747E+02  0.00000000000E+00 0. -1.
         21    1    1    2  504  501  0.11405778016E+02 -0.16484274758E+02  0.65352195460E+01  0.21083931820E+02  0.00000000000E+00 0. -1.
<mgrwt>
<rscale>  2 0.20045525E+02</rscale>
<asrwt>0</asrwt>
<pdfrwt beam="1">  1       21 0.27909136E-02 0.20045525E+02</pdfrwt>
<pdfrwt beam="2">  1       21 0.46872314E-02 0.20045525E+02</pdfrwt>
<totfact> 0.13624028E+08</totfact>
</mgrwt>
</event>
<event>
 4    1  0.4438654E+006  0.2159564E+02  0.7546771E-02  0.1715340E+00
         21   -1    0    0  503  501  0.00000000000E+00  0.00000000000E+00  0.24891752382E+02  0.24891752382E+02  0.00000000000E+00 0. -1.
         21   -1    0    0  504  502 -0.00000000000E+00 -0.00000000000E+00 -0.20955686265E+03  0.20955686265E+03  0.00000000000E+00 0.  1.
         21    1    1    2  503  502 -0.41800540390E+01  0.21187234021E+02 -0.20419380450E+03  0.20533261195E+03  0.00000000000E+00 0.  1.
         21    1    1    2  504  501  0.41800540390E+01 -0.21187234021E+02  0.19528694225E+02  0.29116003080E+02  0.00000000000E+00 0. -1.
<mgrwt>
<rscale>  2 0.21595642E+02</rscale>
<asrwt>0</asrwt>
<pdfrwt beam="1">  1       21 0.38295003E-02 0.21595642E+02</pdfrwt>
<pdfrwt beam="2">  1       21 0.32239518E-01 0.21595642E+02</pdfrwt>
<totfact> 0.33118281E+06</totfact>
</mgrwt>
</event>
<event>
 4    1  0.4438654E+006  0.2507861E+02  0.7546771E-02  0.1659875E+00
         21   -1    0    0  503  501  0.00000000000E+00  0.00000000000E+00  0.62134041923E+01  0.62134041923E+01  0.00000000000E+00 0. -1.
         21   -1    0    0  501  502 -0.00000000000E+00 -0.00000000000E+00 -0.14273007930E+03  0.14273007930E+03  0.00000000000E+00 0. -1.
         21    1    1    2  503  504  0.17379046345E+01 -0.25018315639E+02 -0.28097999821E+02  0.37662103285E+02  0.00000000000E+00 0. -1.
         21    1    1    2  504  502 -0.17379046345E+01  0.25018315639E+02 -0.10841867529E+03  0.11128138021E+03  0.00000000000E+00 0. -1.
<mgrwt>
<rscale>  2 0.25078605E+02</rscale>
<asrwt>0</asrwt>
<pdfrwt beam="1">  1       21 0.95590825E-03 0.25078605E+02</pdfrwt>
<pdfrwt beam="2">  1       21 0.21958476E-01 0.25078605E+02</pdfrwt>
<totfact> 0.57169376E+07</totfact>
</mgrwt>
</event>
<event>
 4    1  0.4438654E+006  0.6294313E+02  0.7546771E-02  0.1385880E+00
         21   -1    0    0  502  501  0.00000000000E+00  0.00000000000E+00  0.91246826082E+03  0.91246826082E+03  0.00000000000E+00 0. -1.
         21   -1    0    0  504  502 -0.00000000000E+00 -0.00000000000E+00 -0.10423349376E+02  0.10423349376E+02  0.00000000000E+00 0. -1.
         21    1    1    2  503  501  0.60171077367E+02  0.18473723810E+02  0.80349147630E+03  0.80595309387E+03  0.00000000000E+00 0. -1.
         21    1    1    2  504  503 -0.60171077367E+02 -0.18473723810E+02  0.98553435140E+02  0.11693851633E+03  0.00000000000E+00 0. -1.
<mgrwt>
<rscale>  2 0.62943125E+02</rscale>
<asrwt>0</asrwt>
<pdfrwt beam="1">  1       21 0.14037967E+00 0.62943125E+02</pdfrwt>
<pdfrwt beam="2">  1       21 0.16035929E-02 0.62943125E+02</pdfrwt>
<totfact> 0.64105018E+05</totfact>
</mgrwt>
</event>
<event>
 4    1  0.4438654E+006  0.2091700E+02  0.7546771E-02  0.1727684E+00
         21   -1    0    0  502  501  0.00000000000E+00  0.00000000000E+00  0.33791205561E+02  0.33791205561E+02  0.00000000000E+00 0. -1.
         21   -1    0    0  504  502 -0.00000000000E+00 -0.00000000000E+00 -0.17241301763E+03  0.17241301763E+03  0.00000000000E+00 0. -1.
         21    1    1    2  503  501 -0.56823834185E+01 -0.20130363228E+02  0.29844306392E+02  0.36444528109E+02  0.00000000000E+00 0. -1.
         21    1    1    2  504  503  0.56823834185E+01  0.20130363228E+02 -0.16846611846E+03  0.16975969508E+03  0.00000000000E+00 0. -1.
<mgrwt>
<rscale>  2 0.20917003E+02</rscale>
<asrwt>0</asrwt>
<pdfrwt beam="1">  1       21 0.51986469E-02 0.20917003E+02</pdfrwt>
<pdfrwt beam="2">  1       21 0.26525080E-01 0.20917003E+02</pdfrwt>
<totfact> 0.28950180E+06</totfact>
</mgrwt>
</event>
<event>
 4    1  0.4438654E+006  0.2517824E+02  0.7546771E-02  0.1658455E+00
         21   -1    0    0  503  501  0.00000000000E+00  0.00000000000E+00  0.95395499938E+03  0.95395499938E+03  0.00000000000E+00 0. -1.
         21   -1    0    0  504  502 -0.00000000000E+00 -0.00000000000E+00 -0.72837597707E+00  0.72837597707E+00  0.00000000000E+00 0. -1.
         21    1    1    2  503  502  0.22041678542E+02  0.12169960225E+02  0.33530223044E+03  0.33624623309E+03  0.00000000000E+00 0. -1.
         21    1    1    2  504  501 -0.22041678542E+02 -0.12169960225E+02  0.61792439296E+03  0.61843714227E+03  0.00000000000E+00 0. -1.
<mgrwt>
<rscale>  2 0.25178235E+02</rscale>
<asrwt>0</asrwt>
<pdfrwt beam="1">  1       21 0.14676131E+00 0.25178235E+02</pdfrwt>
<pdfrwt beam="2">  1       21 0.11205861E-03 0.25178235E+02</pdfrwt>
<totfact> 0.28736850E+07</totfact>
</mgrwt>
</event>
<event>
 4    1  0.4438654E+006  0.2086994E+02  0.7546771E-02  0.1728562E+00
         21   -1    0    0  504  501  0.00000000000E+00  0.00000000000E+00  0.66086331329E+03  0.66086331329E+03  0.00000000000E+00 0.  1.
         21   -1    0    0  503  502 -0.00000000000E+00 -0.00000000000E+00 -0.13170416426E+01  0.13170416426E+01  0.00000000000E+00 0. -1.
         21    1    1    2  503  501  0.15975724759E+02  0.13428725990E+02  0.95754474109E+02  0.98002417190E+02  0.00000000000E+00 0. -1.
         21    1    1    2  504  502 -0.15975724759E+02 -0.13428725990E+02  0.56379179754E+03  0.56417793775E+03  0.00000000000E+00 0.  1.
<mgrwt>
<rscale>  2 0.20869942E+02</rscale>
<asrwt>0</asrwt>
<pdfrwt beam="1">  1       21 0.10167101E+00 0.20869942E+02</pdfrwt>
<pdfrwt beam="2">  1       21 0.20262232E-03 0.20869942E+02</pdfrwt>
<totfact> 0.27305051E+07</totfact>
</mgrwt>
</event>
<event>
 4    1  0.4438654E+006  0.2183008E+02  0.7546771E-02  0.1711207E+00
         21   -1    0    0  502  501  0.00000000000E+00  0.00000000000E+00  0.31127323215E+02  0.31127323215E+02  0.00000000000E+00 0.  1.
         21   -1    0    0  504  502 -0.00000000000E+00 -0.00000000000E+00 -0.19635762222E+03  0.19635762222E+03  0.00000000000E+00 0.  1.
         21    1    1    2  503  501 -0.13867162839E+02  0.16859839148E+02  0.26603163280E+02  0.34413379343E+02  0.00000000000E+00 0.  1.
         21    1    1    2  504  503  0.13867162839E+02 -0.16859839148E+02 -0.19183346229E+03  0.19307156609E+03  0.00000000000E+00 0.  1.
<mgrwt>
<rscale>  2 0.21830080E+02</rscale>
<asrwt>0</asrwt>
<pdfrwt beam="1">  1       21 0.47888190E-02 0.21830080E+02</pdfrwt>
<pdfrwt beam="2">  1       21 0.30208865E-01 0.21830080E+02</pdfrwt>
<totfact> 0.26249590E+06</totfact>
</mgrwt>
</event>
<event>
 4    1  0.4438654E+006  0.2075498E+02  0.7546771E-02  0.1730718E+00
         21   -1    0    0  503  501  0.00000000000E+00  0.00000000000E+00  0.77854391115E+03  0.77854391115E+03  0.00000000000E+00 0. -1.
         21   -1    0    0  504  502 -0.00000000000E+00 -0.00000000000E+00 -0.23181780888E+01  0.23181780888E+01  0.00000000000E+00 0. -1.
         21    1    1    2  503  502  0.15120634125E+02 -0.14217435410E+02  0.72877839454E+03  0.72907387650E+03  0.00000000000E+00 0. -1.
         21    1    1    2  504  501 -0.15120634125E+02  0.14217435410E+02  0.47447338522E+02  0.51788212740E+02  0.00000000000E+00 0. -1.
<mgrwt>
<rscale>  2 0.20754976E+02</rscale>
<asrwt>0</asrwt>
<pdfrwt beam="1">  1       21 0.11977578E+00 0.20754976E+02</pdfrwt>
<pdfrwt beam="2">  1       21 0.35664340E-03 0.20754976E+02</pdfrwt>
<totfact> 0.83618575E+06</totfact>
</mgrwt>
</event>
<event>
 4    1  0.4438654E+006  0.2543505E+02  0.7546771E-02  0.1654831E+00
         21   -1    0    0  504  501  0.00000000000E+00  0.00000000000E+00  0.93906022027E+01  0.93906022027E+01  0.00000000000E+00 0. -1.
         21   -1    0    0  501  502 -0.00000000000E+00 -0.00000000000E+00 -0.12003643995E+03  0.12003643995E+03  0.00000000000E+00 0. -1.
         21    1    1    2  503  502 -0.24041604726E+02 -0.83031866866E+01 -0.97564070187E+02  0.10082504381E+03  0.00000000000E+00 0. -1.
         21    1    1    2  504  503  0.24041604726E+02  0.83031866866E+01 -0.13081767560E+02  0.28601998347E+02  0.00000000000E+00 0. -1.
<mgrwt>
<rscale>  2 0.25435048E+02</rscale>
<asrwt>0</asrwt>
<pdfrwt beam="1">  1       21 0.14447080E-02 0.25435048E+02</pdfrwt>
<pdfrwt beam="2">  1       21 0.18467145E-01 0.25435048E+02</pdfrwt>
<totfact> 0.41577956E+07</totfact>
</mgrwt>
</event>
<event>
 4    1  0.4438654E+006  0.2960115E+02  0.7546771E-02  0.1602540E+00
         21   -1    0    0  504  501  0.00000000000E+00  0.00000000000E+00  0.20664397167E+03  0.20664397167E+03  0.00000000000E+00 0. -1.
         21   -1    0    0  503  502 -0.00000000000E+00 -0.00000000000E+00 -0.42729712316E+02  0.42729712316E+02  0.00000000000E+00 0.  1.
         21    1    1    2  503  501  0.27899034365E+02  0.98930120822E+01 -0.36381464955E+02  0.46902439157E+02  0.00000000000E+00 0.  1.
         21    1    1    2  504  502 -0.27899034365E+02 -0.98930120822E+01  0.20029572430E+03  0.20247124483E+03  0.00000000000E+00 0. -1.
<mgrwt>
<rscale>  2 0.29601145E+02</rscale>
<asrwt>0</asrwt>
<pdfrwt beam="1">  1       21 0.31791380E-01 0.29601145E+02</pdfrwt>
<pdfrwt beam="2">  1       21 0.65738020E-02 0.29601145E+02</pdfrwt>
<totfact> 0.14874388E+06</totfact>
</mgrwt>
</event>
<event>
 4    1  0.4438654E+006  0.2277434E+02  0.7546771E-02  0.1695194E+00
         21   -1    0    0  503  501  0.00000000000E+00  0.00000000000E+00  0.71507102536E+01  0.71507102536E+01  0.00000000000E+00 0.  1.
         21   -1    0    0  504  502 -0.00000000000E+00 -0.00000000000E+00 -0.25277679612E+03  0.25277679612E+03  0.00000000000E+00 0.  1.
         21    1    1    2  503  502  0.20869890704E+02 -0.91169219490E+01 -0.23255745952E+03  0.23366994368E+03  0.00000000000E+00 0.  1.
         21    1    1    2  504  501 -0.20869890704E+02  0.91169219490E+01 -0.13068626350E+02  0.26257562691E+02  0.00000000000E+00 0.  1.
<mgrwt>
<rscale>  2 0.22774341E+02</rscale>
<asrwt>0</asrwt>
<pdfrwt beam="1">  1       21 0.11001092E-02 0.22774341E+02</pdfrwt>
<pdfrwt beam="2">  1       21 0.38888740E-01 0.22774341E+02</pdfrwt>
<totfact> 0.16022122E+07</totfact>
</mgrwt>
</event>
<event>
 4    1  0.4438654E+006  0.2060185E+02  0.7546771E-02  0.1733618E+00
         21   -1    0    0  502  501  0.00000000000E+00  0.00000000000E+00  0.26180233678E+02  0.26180233678E+02  0.00000000000E+00 0.  1.
         21   -1    0    0  503  502 -0.00000000000E+00 -0.00000000000E+00 -0.20143345755E+02  0.20143345755E+02  0.00000000000E+00 0. -1.
         21    1    1    2  503  504  0.13724015823E+02 -0.15365142853E+02 -0.72138292452E+01  0.21828320081E+02  0.00000000000E+00 0. -1.
         21    1    1    2  504  501 -0.13724015823E+02  0.15365142853E+02  0.13250717168E+02  0.24495259351E+02  0.00000000000E+00 0.  1.
<mgrwt>
<rscale>  2 0.20601850E+02</rscale>
<asrwt>0</asrwt>
<pdfrwt beam="1">  1       21 0.40277282E-02 0.20601850E+02</pdfrwt>
<pdfrwt beam="2">  1       21 0.30989763E-02 0.20601850E+02</pdfrwt>
<totfact> 0.14835605E+08</totfact>
</mgrwt>
</event>
<event>
 4    1  0.4438654E+006  0.2222067E+02  0.7546771E-02  0.1704463E+00
         21   -1    0    0  504  501  0.00000000000E+00  0.00000000000E+00  0.20143631205E+02  0.20143631205E+02  0.00000000000E+00 0.  1.
         21   -1    0    0  503  502 -0.00000000000E+00 -0.00000000000E+00 -0.36181793247E+02  0.36181793247E+02  0.00000000000E+00 0.  1.
         21    1    1    2  503  501 -0.20060699116E+02 -0.95564950757E+01  0.79751464878E+01  0.23608498653E+02  0.00000000000E+00 0.  1.
         21    1    1    2  504  502  0.20060699116E+02  0.95564950757E+01 -0.24013308530E+02  0.32716925799E+02  0.00000000000E+00 0.  1.
<mgrwt>
<rscale>  2 0.22220672E+02</rscale>
<asrwt>0</asrwt>
<pdfrwt beam="1">  1       21 0.30990202E-02 0.22220672E+02</pdfrwt>
<pdfrwt beam="2">  1       21 0.55664296E-02 0.22220672E+02</pdfrwt>
<totfact> 0.90910267E+07</totfact>
</mgrwt>
</event>
<event>
 4    1  0.4438654E+006  0.2803663E+02  0.7546771E-02  0.1620863E+00
         21   -1    0    0  502  501  0.00000000000E+00  0.00000000000E+00  0.38478701621E+02  0.38478701621E+02  0.00000000000E+00 0.  1.
         21   -1    0    0  504  502 -0.00000000000E+00 -0.00000000000E+00 -0.26190848404E+02  0.26190848404E+02  0.00000000000E+00 0.  1.
         21    1    1    2  503  501  0.10391100530E+02  0.26039923853E+02  0.21311083201E+02  0.35216684564E+02  0.00000000000E+00 0.  1.
         21    1    1    2  504  503 -0.10391100530E+02 -0.26039923853E+02 -0.90232299841E+01  0.29452865461E+02  0.00000000000E+00 0.  1.
<mgrwt>
<rscale>  2 0.28036630E+02</rscale>
<asrwt>0</asrwt>
<pdfrwt beam="1">  1       21 0.59198002E-02 0.28036630E+02</pdfrwt>
<pdfrwt beam="2">  1       21 0.40293613E-02 0.28036630E+02</pdfrwt>
<totfact> 0.57909906E+07</totfact>
</mgrwt>
</event>
<event>
 4    1  0.4438654E+006  0.2430645E+02  0.7546771E-02  0.1671168E+00
         21   -1    0    0  504  501  0.00000000000E+00  0.00000000000E+00  0.23671431618E+02  0.23671431618E+02  0.00000000000E+00 0.  1.
         21   -1    0    0  503  502 -0.00000000000E+00 -0.00000000000E+00 -0.28091960427E+02  0.28091960427E+02  0.00000000000E+00 0.  1.
         21    1    1    2  503  501 -0.22257311393E+02  0.97680811980E+01 -0.10854251775E+02  0.26619881711E+02  0.00000000000E+00 0.  1.
         21    1    1    2  504  502  0.22257311393E+02 -0.97680811980E+01  0.64337229667E+01  0.25143510334E+02  0.00000000000E+00 0.  1.
<mgrwt>
<rscale>  2 0.24306446E+02</rscale>
<asrwt>0</asrwt>
<pdfrwt beam="1">  1       21 0.36417587E-02 0.24306446E+02</pdfrwt>
<pdfrwt beam="2">  1       21 0.43218401E-02 0.24306446E+02</pdfrwt>
<totfact> 0.10840178E+08</totfact>
</mgrwt>
</event>
<event>
 4    1  0.4438654E+006  0.2454033E+02  0.7546771E-02  0.1667693E+00
         21   -1    0    0  503  501  0.00000000000E+00  0.00000000000E+00  0.13112720688E+03  0.13112720688E+03  0.00000000000E+00 0. -1.
         21   -1    0    0  504  502 -0.00000000000E+00 -0.00000000000E+00 -0.26183631727E+02  0.26183631727E+02  0.00000000000E+00 0. -1.
         21    1    1    2  503  502  0.18815392286E+02 -0.15754638199E+02 -0.18953076820E+02  0.31007204527E+02  0.00000000000E+00 0. -1.
         21    1    1    2  504  501 -0.18815392286E+02  0.15754638199E+02  0.12389665197E+03  0.12630363408E+03  0.00000000000E+00 0. -1.
<mgrwt>
<rscale>  2 0.24540326E+02</rscale>
<asrwt>0</asrwt>
<pdfrwt beam="1">  1       21 0.20173416E-01 0.24540326E+02</pdfrwt>
<pdfrwt beam="2">  1       21 0.40282511E-02 0.24540326E+02</pdfrwt>
<totfact> 0.72193006E+06</totfact>
</mgrwt>
</event>
<event>
 4    1  0.4438654E+006  0.2467868E+02  0.7546771E-02  0.1665660E+00
         21   -1    0    0  503  501  0.00000000000E+00  0.00000000000E+00  0.29946066104E+02  0.29946066104E+02  0.00000000000E+00 0. -1.
         21   -1    0    0  504  502 -0.00000000000E+00 -0.00000000000E+00 -0.82072553554E+02  0.82072553554E+02  0.00000000000E+00 0. -1.
         21    1    1    2  503  502  0.22841332026E+02 -0.93440373336E+01  0.22513238699E+02  0.33404840954E+02  0.00000000000E+00 0. -1.
         21    1    1    2  504  501 -0.22841332026E+02  0.93440373336E+01 -0.74639726150E+02  0.78613778704E+02  0.00000000000E+00 0. -1.
<mgrwt>
<rscale>  2 0.24678685E+02</rscale>
<asrwt>0</asrwt>
<pdfrwt beam="1">  1       21 0.46070872E-02 0.24678685E+02</pdfrwt>
<pdfrwt beam="2">  1       21 0.12626546E-01 0.24678685E+02</pdfrwt>
<totfact> 0.13056793E+07</totfact>
</mgrwt>
</event>
<event>
 4    1  0.4438654E+006  0.2016024E+02  0.7546771E-02  0.1742160E+00
         21   -1    0    0  504  501  0.00000000000E+00  0.00000000000E+00  0.19369095502E+01  0.19369095502E+01  0.00000000000E+00 0.  1.
         21   -1    0    0  503  502 -0.00000000000E+00 -0.00000000000E+00 -0.21205682439E+03  0.21205682439E+03  0.00000000000E+00 0.  1.
         21    1    1    2  503  501  0.29681684223E+01 -0.19940542101E+02 -0.94112668567E+02  0.96247751288E+02  0.00000000000E+00 0.  1.
         21    1    1    2  504  502 -0.29681684223E+01  0.19940542101E+02 -0.11600724628E+03  0.11774598266E+03  0.00000000000E+00 0.  1.
<mgrwt>
<rscale>  2 0.20160239E+02</rscale>
<asrwt>0</asrwt>
<pdfrwt beam="1">  1       21 0.29798591E-03 0.20160239E+02</pdfrwt>
<pdfrwt beam="2">  1       21 0.32624146E-01 0.20160239E+02</pdfrwt>
<totfact> 0.14806455E+08</totfact>
</mgrwt>
</event>
<event>
 4    1  0.4438654E+006  0.2554421E+02  0.7546771E-02  0.1653306E+00
         21   -1    0    0  503  501  0.00000000000E+00  0.00000000000E+00  0.26569585950E+03  0.26569585950E+03  0.00000000000E+00 0.  1.
         21   -1    0    0  504  502 -0.00000000000E+00 -0.00000000000E+00 -0.24931121970E+01  0.24931121970E+01  0.00000000000E+00 0.  1.
         21    1    1    2  503  502  0.21387380873E+02 -0.13967341607E+02  0.11520572059E+03  0.11800366413E+03  0.00000000000E+00 0.  1.
         21    1    1    2  504  501 -0.21387380873E+02  0.13967341607E+02  0.14799702672E+03  0.15018530757E+03  0.00000000000E+00 0.  1.
<mgrwt>
<rscale>  2 0.25544211E+02</rscale>
<asrwt>0</asrwt>
<pdfrwt beam="1">  1       21 0.40876264E-01 0.25544211E+02</pdfrwt>
<pdfrwt beam="2">  1       21 0.38355593E-03 0.25544211E+02</pdfrwt>
<totfact> 0.71686066E+07</totfact>
</mgrwt>
</event>
<event>
 4    1  0.4438654E+006  0.2067288E+02  0.7546771E-02  0.1732269E+00
         21   -1    0    0  503  501  0.00000000000E+00  0.00000000000E+00  0.11370186433E+01  0.11370186433E+01  0.00000000000E+00 0.  1.
         21   -1    0    0  504  502 -0.00000000000E+00 -0.00000000000E+00 -0.12223401174E+04  0.12223401174E+04  0.00000000000E+00 0.  1.
         21    1    1    2  503  502  0.88240581377E+01 -0.18695024447E+02 -0.10153286791E+03  0.10361607601E+03  0.00000000000E+00 0.  1.
         21    1    1    2  504  501 -0.88240581377E+01  0.18695024447E+02 -0.11196702308E+04  0.11198610600E+04  0.00000000000E+00 0.  1.
<mgrwt>
<rscale>  2 0.20672879E+02</rscale>
<asrwt>0</asrwt>
<pdfrwt beam="1">  1       21 0.17492600E-03 0.20672879E+02</pdfrwt>
<pdfrwt beam="2">  1       21 0.18805227E+00 0.20672879E+02</pdfrwt>
<totfact> 0.80603768E+06</totfact>
</mgrwt>
</event>
<event>
 4    1  0.4438654E+006  0.3000884E+02  0.7546771E-02  0.1597991E+00
         21   -1    0    0  504  501  0.00000000000E+00  0.00000000000E+00  0.91251545611E+02  0.91251545611E+02  0.00000000000E+00 0. -1.
         21   -1    0    0  501  502 -0.00000000000E+00 -0.00000000000E+00 -0.11094598447E+02  0.11094598447E+02  0.00000000000E+00 0. -1.
         21    1    1    2  503  502  0.19778513480E+02  0.22568586846E+02  0.23067875546E+02  0.37850463536E+02  0.00000000000E+00 0. -1.
         21    1    1    2  504  503 -0.19778513480E+02 -0.22568586846E+02  0.57089071618E+02  0.64495680521E+02  0.00000000000E+00 0. -1.
<mgrwt>
<rscale>  2 0.30008844E+02</rscale>
<asrwt>0</asrwt>
<pdfrwt beam="1">  1       21 0.14038699E-01 0.30008844E+02</pdfrwt>
<pdfrwt beam="2">  1       21 0.17068614E-02 0.30008844E+02</pdfrwt>
<totfact> 0.53655364E+07</totfact>
</mgrwt>
</event>
<event>
 4    1  0.4438654E+006  0.3026404E+02  0.7546771E-02  0.1595188E+00
         21   -1    0    0  502  501  0.00000000000E+00  0.00000000000E+00  0.46510194638E+01  0.46510194638E+01  0.00000000000E+00 0.  1.
         21   -1    0    0  504  502 -0.00000000000E+00 -0.00000000000E+00 -0.12879294632E+04  0.12879294632E+04  0.00000000000E+00 0. -1.
         21    1    1    2  503  501 -0.34960780908E+01 -0.30061425384E+02 -0.46807116211E+02  0.55738837323E+02  0.00000000000E+00 0.  1.
         21    1    1    2  504  503  0.34960780908E+01  0.30061425384E+02 -0.12364713275E+04  0.12368416454E+04  0.00000000000E+00 0. -1.
<mgrwt>
<rscale>  2 0.30264036E+02</rscale>
<asrwt>0</asrwt>
<pdfrwt beam="1">  1       21 0.71554248E-03 0.30264036E+02</pdfrwt>
<pdfrwt beam="2">  1       21 0.19814271E+00 0.30264036E+02</pdfrwt>
<totfact> 0.91748367E+05</totfact>
</mgrwt>
</event>
<event>
 4    1  0.4438654E+006  0.2349011E+02  0.7546771E-02  0.1683687E+00
         21   -1    0    0  503  501  0.00000000000E+00  0.00000000000E+00  0.16429440350E+03  0.16429440350E+03  0.00000000000E+00 0. -1.
         21   -1    0    0  504  502 -0.00000000000E+00 -0.00000000000E+00 -0.37373717259E+01  0.37373717259E+01  0.00000000000E+00 0. -1.
         21    1    1    2  503  502 -0.16039869273E+02 -0.17161235138E+02  0.53529047963E+02  0.58456345880E+02  0.00000000000E+00 0. -1.
         21    1    1    2  504  501  0.16039869273E+02  0.17161235138E+02  0.10702798381E+03  0.10957542935E+03  0.00000000000E+00 0. -1.
<mgrwt>
<rscale>  2 0.23490113E+02</rscale>
<asrwt>0</asrwt>
<pdfrwt beam="1">  1       21 0.25276056E-01 0.23490113E+02</pdfrwt>
<pdfrwt beam="2">  1       21 0.57498039E-03 0.23490113E+02</pdfrwt>
<totfact> 0.93520445E+07</totfact>
</mgrwt>
</event>
<event>
 4    1  0.4438654E+006  0.2095121E+02  0.7546771E-02  0.1727048E+00
         21   -1    0    0  502  501  0.00000000000E+00  0.00000000000E+00  0.43885323381E+02  0.43885323381E+02  0.00000000000E+00 0.  1.
         21   -1    0    0  503  502 -0.00000000000E+00 -0.00000000000E+00 -0.23778957754E+02  0.23778957754E+02  0.00000000000E+00 0.  1.
         21    1    1    2  503  504 -0.20815777925E+02 -0.23783732577E+01 -0.15698482955E+02  0.26180061823E+02  0.00000000000E+00 0.  1.
         21    1    1    2  504  501  0.20815777925E+02  0.23783732577E+01  0.35804848582E+02  0.41484219312E+02  0.00000000000E+00 0.  1.
<mgrwt>
<rscale>  2 0.20951212E+02</rscale>
<asrwt>0</asrwt>
<pdfrwt beam="1">  1       21 0.67515882E-02 0.20951212E+02</pdfrwt>
<pdfrwt beam="2">  1       21 0.36583012E-02 0.20951212E+02</pdfrwt>
<totfact> 0.50658079E+07</totfact>
</mgrwt>
</event>
<event>
 4    1  0.4438654E+006  0.2193792E+02  0.7546771E-02  0.1709328E+00
         21   -1    0    0  504  501  0.00000000000E+00  0.00000000000E+00  0.14874756390E+03  0.14874756390E+03  0.00000000000E+00 0. -1.
         21   -1    0    0  503  502 -0.00000000000E+00 -0.00000000000E+00 -0.91861333567E+02  0.91861333567E+02  0.00000000000E+00 0. -1.
         21    1    1    2  503  501  0.12735986476E+02 -0.17862443523E+02 -0.89723688749E+02  0.92366728657E+02  0.00000000000E+00 0. -1.
         21    1    1    2  504  502 -0.12735986476E+02  0.17862443523E+02  0.14660991908E+03  0.14824216881E+03  0.00000000000E+00 0. -1.
<mgrwt>
<rscale>  2 0.21937918E+02</rscale>
<asrwt>0</asrwt>
<pdfrwt beam="1">  1       21 0.22884241E-01 0.21937918E+02</pdfrwt>
<pdfrwt beam="2">  1       21 0.14132513E-01 0.21937918E+02</pdfrwt>
<totfact> 0.73692366E+05</totfact>
</mgrwt>
</event>
<event>
 4    1  0.4438654E+006  0.2672994E+02  0.7546771E-02  0.1637329E+00
         21   -1    0    0  502  501  0.00000000000E+00  0.00000000000E+00  0.31514533188E+02  0.31514533188E+02  0.00000000000E+00 0.  1.
         21   -1    0    0  503  502 -0.00000000000E+00 -0.00000000000E+00 -0.36380130811E+02  0.36380130811E+02  0.00000000000E+00 0. -1.
         21    1    1    2  503  504  0.15084365773E+02 -0.22066980637E+02 -0.23271303202E+02  0.35440700867E+02  0.00000000000E+00 0. -1.
         21    1    1    2  504  501 -0.15084365773E+02  0.22066980637E+02  0.18405705579E+02  0.32453963133E+02  0.00000000000E+00 0.  1.
<mgrwt>
<rscale>  2 0.26729941E+02</rscale>
<asrwt>0</asrwt>
<pdfrwt beam="1">  1       21 0.48483897E-02 0.26729941E+02</pdfrwt>
<pdfrwt beam="2">  1       21 0.55969432E-02 0.26729941E+02</pdfrwt>
<totfact> 0.46673941E+07</totfact>
</mgrwt>
</event>
<event>
 4    1  0.4438654E+006  0.2350718E+02  0.7546771E-02  0.1683418E+00
         21   -1    0    0  504  501  0.00000000000E+00  0.00000000000E+00  0.72656414590E+01  0.72656414590E+01  0.00000000000E+00 0. -1.
         21   -1    0    0  503  502 -0.00000000000E+00 -0.00000000000E+00 -0.62752353409E+03  0.62752353409E+03  0.00000000000E+00 0.  1.
         21    1    1    2  503  501 -0.22604017041E+02  0.64533780678E+01 -0.60766864153E+03  0.60812315001E+03  0.00000000000E+00 0.  1.
         21    1    1    2  504  502  0.22604017041E+02 -0.64533780678E+01 -0.12589251099E+02  0.26666025540E+02  0.00000000000E+00 0. -1.
<mgrwt>
<rscale>  2 0.23507183E+02</rscale>
<asrwt>0</asrwt>
<pdfrwt beam="1">  1       21 0.11177909E-02 0.23507183E+02</pdfrwt>
<pdfrwt beam="2">  1       21 0.96542088E-01 0.23507183E+02</pdfrwt>
<totfact> 0.25229173E+06</totfact>
</mgrwt>
</event>
