<event>
 4    1  0.2754379E+004  0.2707350E+02  0.7546771E-02  0.1632890E+00
         21   -1    0    0  501  502  0.00000000000E+00  0.00000000000E+00  0.33269223828E+01  0.33269223828E+01  0.00000000000E+00 0. -1.
         21   -1    0    0  502  503 -0.00000000000E+00 -0.00000000000E+00 -0.26864357796E+03  0.26864357796E+03  0.00000000000E+00 0.  1.
          2    1    1    2  501    0  0.22913190862E+02 -0.14420815191E+02 -0.74981535970E+02  0.79719539403E+02  0.00000000000E+00 0. -1.
         -2    1    1    2    0  503 -0.22913190862E+02  0.14420815191E+02 -0.19033511961E+03  0.19225096094E+03  0.00000000000E+00 0.  1.
<mgrwt>
<rscale>  2 0.27073497E+02</rscale>
<asrwt>0</asrwt>
<pdfrwt beam="1">  1       21 0.51183409E-03 0.27073497E+02</pdfrwt>
<pdfrwt beam="2">  1       21 0.41329791E-01 0.27073497E+02</pdfrwt>
<totfact> 0.46440982E+07</totfact>
</mgrwt>
</event>
<event>
 4    1  0.2754379E+004  0.2102173E+02  0.7546771E-02  0.1725741E+00
         21   -1    0    0  501  502  0.00000000000E+00  0.00000000000E+00  0.18455225906E+02  0.18455225906E+02  0.00000000000E+00 0. -1.
         21   -1    0    0  502  503 -0.00000000000E+00 -0.00000000000E+00 -0.23958362835E+02  0.23958362835E+02  0.00000000000E+00 0.  1.
          2    1    1    2  501    0 -0.16742291423E+02 -0.12712550707E+02 -0.32494683679E+01  0.21271396575E+02  0.00000000000E+00 0. -1.
         -2    1    1    2    0  503  0.16742291423E+02  0.12712550707E+02 -0.22536685617E+01  0.21142192166E+02  0.00000000000E+00 0.  1.
<mgrwt>
<rscale>  2 0.21021733E+02</rscale>
<asrwt>0</asrwt>
<pdfrwt beam="1">  1       21 0.28392655E-02 0.21021733E+02</pdfrwt>
<pdfrwt beam="2">  1       21 0.36859020E-02 0.21021733E+02</pdfrwt>
<totfact> 0.19650114E+08</totfact>
</mgrwt>
</event>
<event>
 4    1  0.2754379E+004  0.2538228E+02  0.7546771E-02  0.1655571E+00
         21   -1    0    0  501  502  0.00000000000E+00  0.00000000000E+00  0.43072438680E+01  0.43072438680E+01  0.00000000000E+00 0. -1.
         21   -1    0    0  502  503 -0.00000000000E+00 -0.00000000000E+00 -0.67619316632E+03  0.67619316632E+03  0.00000000000E+00 0.  1.
          2    1    1    2  501    0 -0.18042411236E+02  0.17853052845E+02 -0.35673936805E+02  0.43782300833E+02  0.00000000000E+00 0. -1.
         -2    1    1    2    0  503  0.18042411236E+02 -0.17853052845E+02 -0.63621198565E+03  0.63671810935E+03  0.00000000000E+00 0.  1.
<mgrwt>
<rscale>  2 0.25382279E+02</rscale>
<asrwt>0</asrwt>
<pdfrwt beam="1">  1       21 0.66265293E-03 0.25382279E+02</pdfrwt>
<pdfrwt beam="2">  1       21 0.10402971E+00 0.25382279E+02</pdfrwt>
<totfact> 0.47324526E+06</totfact>
</mgrwt>
</event>
<event>
 4    1  0.2754379E+004  0.3871974E+02  0.7546771E-02  0.1517850E+00
         21   -1    0    0  503  502  0.00000000000E+00  0.00000000000E+00  0.35059445021E+02  0.35059445021E+02  0.00000000000E+00 0.  1.
         21   -1    0    0  501  503 -0.00000000000E+00 -0.00000000000E+00 -0.49586720979E+02  0.49586720979E+02  0.00000000000E+00 0. -1.
          2    1    1    2  501    0  0.38658954442E+02  0.21687613549E+01 -0.22964783429E+02  0.45017769406E+02  0.00000000000E+00 0. -1.
         -2    1    1    2    0  502 -0.38658954442E+02 -0.21687613549E+01  0.84375074714E+01  0.39628396595E+02  0.00000000000E+00 0.  1.
<mgrwt>
<rscale>  2 0.38719740E+02</rscale>
<asrwt>0</asrwt>
<pdfrwt beam="1">  1       21 0.53937608E-02 0.38719740E+02</pdfrwt>
<pdfrwt beam="2">  1       21 0.76287263E-02 0.38719740E+02</pdfrwt>
<totfact> 0.25530898E+07</totfact>
</mgrwt>
</event>
<event>
 4    1  0.2754379E+004  0.2091471E+02  0.7546771E-02  0.1727727E+00
         21   -1    0    0  501  502  0.00000000000E+00  0.00000000000E+00  0.31560422871E+01  0.31560422871E+01  0.00000000000E+00 0. -1.
         21   -1    0    0  502  503 -0.00000000000E+00 -0.00000000000E+00 -0.22351875172E+03  0.22351875172E+03  0.00000000000E+00 0.  1.
          2    1    1    2  501    0 -0.10852267496E+02  0.17878848534E+02 -0.40322718991E+02  0.45424075131E+02  0.00000000000E+00 0. -1.
         -2    1    1    2    0  503  0.10852267496E+02 -0.17878848534E+02 -0.18003999044E+03  0.18125071887E+03  0.00000000000E+00 0.  1.
<mgrwt>
<rscale>  2 0.20914706E+02</rscale>
<asrwt>0</asrwt>
<pdfrwt beam="1">  1       21 0.48554499E-03 0.20914706E+02</pdfrwt>
<pdfrwt beam="2">  1       21 0.34387499E-01 0.20914706E+02</pdfrwt>
<totfact> 0.66605901E+07</totfact>
</mgrwt>
</event>
<event>
 4    1  0.2754379E+004  0.2521295E+02  0.7546771E-02  0.1657962E+00
         21   -1    0    0  501  502  0.00000000000E+00  0.00000000000E+00  0.63958884295E+02  0.63958884295E+02  0.00000000000E+00 0. -1.
         21   -1    0    0  502  503 -0.00000000000E+00 -0.00000000000E+00 -0.26782833223E+02  0.26782833223E+02  0.00000000000E+00 0.  1.
          2    1    1    2  501    0 -0.24869269222E+02  0.41487984216E+01  0.54568596651E+02  0.60111769400E+02  0.00000000000E+00 0. -1.
         -2    1    1    2    0  503  0.24869269222E+02 -0.41487984216E+01 -0.17392545578E+02  0.30629948118E+02  0.00000000000E+00 0.  1.
<mgrwt>
<rscale>  2 0.25212955E+02</rscale>
<asrwt>0</asrwt>
<pdfrwt beam="1">  1       21 0.98398283E-02 0.25212955E+02</pdfrwt>
<pdfrwt beam="2">  1       21 0.41204359E-02 0.25212955E+02</pdfrwt>
<totfact> 0.23749922E+07</totfact>
</mgrwt>
</event>
<event>
 4    1  0.2754379E+004  0.2164957E+02  0.7546771E-02  0.1714384E+00
         21   -1    0    0  503  502  0.00000000000E+00  0.00000000000E+00  0.91693854620E+02  0.91693854620E+02  0.00000000000E+00 0.  1.
         21   -1    0    0  501  503 -0.00000000000E+00 -0.00000000000E+00 -0.61139748944E+01  0.61139748944E+01  0.00000000000E+00 0. -1.
          2    1    1    2  501    0  0.10086679128E+02 -0.19156271293E+02  0.22988658117E+02  0.31578192281E+02  0.00000000000E+00 0.  1.
         -2    1    1    2    0  502 -0.10086679128E+02  0.19156271293E+02  0.62591221609E+02  0.66229637234E+02  0.00000000000E+00 0. -1.
<mgrwt>
<rscale>  2 0.21649569E+02</rscale>
<asrwt>0</asrwt>
<pdfrwt beam="1">  1       21 0.14106746E-01 0.21649569E+02</pdfrwt>
<pdfrwt beam="2">  1       21 0.94061159E-03 0.21649569E+02</pdfrwt>
<totfact> 0.12088751E+08</totfact>
</mgrwt>
</event>
<event>
 4    1  0.2754379E+004  0.2416907E+02  0.7546771E-02  0.1673232E+00
         21   -1    0    0  503  502  0.00000000000E+00  0.00000000000E+00  0.49846430825E+02  0.49846430825E+02  0.00000000000E+00 0.  1.
         21   -1    0    0  501  503 -0.00000000000E+00 -0.00000000000E+00 -0.11802793517E+02  0.11802793517E+02  0.00000000000E+00 0. -1.
          2    1    1    2  501    0  0.50397213682E+01  0.23637795451E+02  0.16422674810E+02  0.29220684680E+02  0.00000000000E+00 0. -1.
         -2    1    1    2    0  502 -0.50397213682E+01 -0.23637795451E+02  0.21620962499E+02  0.32428539662E+02  0.00000000000E+00 0.  1.
<mgrwt>
<rscale>  2 0.24169075E+02</rscale>
<asrwt>0</asrwt>
<pdfrwt beam="1">  1       21 0.76686816E-02 0.24169075E+02</pdfrwt>
<pdfrwt beam="2">  1       21 0.18158144E-02 0.24169075E+02</pdfrwt>
<totfact> 0.12679239E+08</totfact>
</mgrwt>
</event>
<event>
 4    1  0.2754379E+004  0.2319365E+02  0.7546771E-02  0.1688390E+00
         21   -1    0    0  501  502  0.00000000000E+00  0.00000000000E+00  0.25243237497E+03  0.25243237497E+03  0.00000000000E+00 0.  1.
         21   -1    0    0  502  503 -0.00000000000E+00 -0.00000000000E+00 -0.27578960029E+02  0.27578960029E+02  0.00000000000E+00 0. -1.
          2    1    1    2  501    0  0.16184656209E+02  0.16613323872E+02  0.24691446346E+03  0.24800140703E+03  0.00000000000E+00 0.  1.
         -2    1    1    2    0  503 -0.16184656209E+02 -0.16613323872E+02 -0.22061048516E+02  0.32009927964E+02  0.00000000000E+00 0. -1.
<mgrwt>
<rscale>  2 0.23193655E+02</rscale>
<asrwt>0</asrwt>
<pdfrwt beam="1">  1       21 0.38835749E-01 0.23193655E+02</pdfrwt>
<pdfrwt beam="2">  1       21 0.42429171E-02 0.23193655E+02</pdfrwt>
<totfact> 0.20155282E+06</totfact>
</mgrwt>
</event>
<event>
 4    1  0.2754379E+004  0.2495669E+02  0.7546771E-02  0.1661625E+00
         21   -1    0    0  501  502  0.00000000000E+00  0.00000000000E+00  0.61390032513E+02  0.61390032513E+02  0.00000000000E+00 0. -1.
         21   -1    0    0  502  503 -0.00000000000E+00 -0.00000000000E+00 -0.12849780446E+02  0.12849780446E+02  0.00000000000E+00 0.  1.
          2    1    1    2  501    0 -0.50134211049E+01  0.24447942062E+02  0.41298769809E+02  0.48253752703E+02  0.00000000000E+00 0. -1.
         -2    1    1    2    0  503  0.50134211049E+01 -0.24447942062E+02  0.72414822582E+01  0.25986060255E+02  0.00000000000E+00 0.  1.
<mgrwt>
<rscale>  2 0.24956688E+02</rscale>
<asrwt>0</asrwt>
<pdfrwt beam="1">  1       21 0.94446202E-02 0.24956688E+02</pdfrwt>
<pdfrwt beam="2">  1       21 0.19768893E-02 0.24956688E+02</pdfrwt>
<totfact> 0.79735113E+07</totfact>
</mgrwt>
</event>
<event>
 4    1  0.2754379E+004  0.2216213E+02  0.7546771E-02  0.1705463E+00
         21   -1    0    0  503  502  0.00000000000E+00  0.00000000000E+00  0.61058543011E+03  0.61058543011E+03  0.00000000000E+00 0.  1.
         21   -1    0    0  501  503 -0.00000000000E+00 -0.00000000000E+00 -0.22556264513E+01  0.22556264513E+01  0.00000000000E+00 0. -1.
          2    1    1    2  501    0  0.20824124146E+02  0.75839128519E+01  0.58382578773E+02  0.62447460996E+02  0.00000000000E+00 0. -1.
         -2    1    1    2    0  502 -0.20824124146E+02 -0.75839128519E+01  0.54994722488E+03  0.55039359556E+03  0.00000000000E+00 0.  1.
<mgrwt>
<rscale>  2 0.22162127E+02</rscale>
<asrwt>0</asrwt>
<pdfrwt beam="1">  1       21 0.93936088E-01 0.22162127E+02</pdfrwt>
<pdfrwt beam="2">  1       21 0.34701994E-03 0.22162127E+02</pdfrwt>
<totfact> 0.15037524E+07</totfact>
</mgrwt>
</event>
<event>
 4    1  0.2754379E+004  0.2027409E+02  0.7546771E-02  0.1739932E+00
         21   -1    0    0  501  502  0.00000000000E+00  0.00000000000E+00  0.50447292323E+03  0.50447292323E+03  0.00000000000E+00 0. -1.
         21   -1    0    0  502  503 -0.00000000000E+00 -0.00000000000E+00 -0.14788536217E+01  0.14788536217E+01  0.00000000000E+00 0.  1.
          2    1    1    2  501    0  0.19430676915E+02  0.57868349943E+01  0.42101741471E+03  0.42150528129E+03  0.00000000000E+00 0. -1.
         -2    1    1    2    0  503 -0.19430676915E+02 -0.57868349943E+01  0.81976654891E+02  0.84446495556E+02  0.00000000000E+00 0.  1.
<mgrwt>
<rscale>  2 0.20274089E+02</rscale>
<asrwt>0</asrwt>
<pdfrwt beam="1">  1       21 0.77611082E-01 0.20274089E+02</pdfrwt>
<pdfrwt beam="2">  1       21 0.22751634E-03 0.20274089E+02</pdfrwt>
<totfact> 0.40776137E+07</totfact>
</mgrwt>
</event>
<event>
 4    1  0.2754379E+004  0.2727488E+02  0.7546771E-02  0.1630325E+00
         21   -1    0    0  501  502  0.00000000000E+00  0.00000000000E+00  0.16401935909E+03  0.16401935909E+03  0.00000000000E+00 0.  1.
         21   -1    0    0  502  503 -0.00000000000E+00 -0.00000000000E+00 -0.87134392173E+01  0.87134392173E+01  0.00000000000E+00 0. -1.
          2    1    1    2  501    0  0.45754221714E+01 -0.26888374864E+02  0.13745666540E+03  0.14013655503E+03  0.00000000000E+00 0.  1.
         -2    1    1    2    0  503 -0.45754221714E+01  0.26888374864E+02  0.17849254468E+02  0.32596243279E+02  0.00000000000E+00 0. -1.
<mgrwt>
<rscale>  2 0.27274882E+02</rscale>
<asrwt>0</asrwt>
<pdfrwt beam="1">  1       21 0.25233745E-01 0.27274882E+02</pdfrwt>
<pdfrwt beam="2">  1       21 0.13405292E-02 0.27274882E+02</pdfrwt>
<totfact> 0.27241946E+07</totfact>
</mgrwt>
</event>
<event>
 4    1  0.2754379E+004  0.2031440E+02  0.7546771E-02  0.1739147E+00
         21   -1    0    0  503  502  0.00000000000E+00  0.00000000000E+00  0.83238102765E+03  0.83238102765E+03  0.00000000000E+00 0. -1.
         21   -1    0    0  501  503 -0.00000000000E+00 -0.00000000000E+00 -0.16616943096E+01  0.16616943096E+01  0.00000000000E+00 0.  1.
          2    1    1    2  501    0 -0.62237105332E+01 -0.19337538504E+02  0.66045097424E+02  0.69098696529E+02  0.00000000000E+00 0.  1.
         -2    1    1    2    0  502  0.62237105332E+01  0.19337538504E+02  0.76467423592E+03  0.76494402543E+03  0.00000000000E+00 0. -1.
<mgrwt>
<rscale>  2 0.20314403E+02</rscale>
<asrwt>0</asrwt>
<pdfrwt beam="1">  1       21 0.12805829E+00 0.20314403E+02</pdfrwt>
<pdfrwt beam="2">  1       21 0.25564594E-03 0.20314403E+02</pdfrwt>
<totfact> 0.11608189E+07</totfact>
</mgrwt>
</event>
<event>
 4    1  0.2754379E+004  0.2646174E+02  0.7546771E-02  0.1640853E+00
         21   -1    0    0  501  502  0.00000000000E+00  0.00000000000E+00  0.17200683272E+04  0.17200683272E+04  0.00000000000E+00 0. -1.
         21   -1    0    0  502  503 -0.00000000000E+00 -0.00000000000E+00 -0.80820976920E+00  0.80820976920E+00  0.00000000000E+00 0.  1.
          2    1    1    2  501    0 -0.25405938053E+02 -0.74001457390E+01  0.14657998873E+04  0.14660387217E+04  0.00000000000E+00 0. -1.
         -2    1    1    2    0  503  0.25405938053E+02  0.74001457390E+01  0.25346023013E+03  0.25483781529E+03  0.00000000000E+00 0.  1.
<mgrwt>
<rscale>  2 0.26461743E+02</rscale>
<asrwt>0</asrwt>
<pdfrwt beam="1">  1       21 0.26462297E+00 0.26461743E+02</pdfrwt>
<pdfrwt beam="2">  1       21 0.12434134E-03 0.26461743E+02</pdfrwt>
<totfact> 0.53134818E+06</totfact>
</mgrwt>
</event>
<event>
 4    1  0.2754379E+004  0.3689109E+02  0.7546771E-02  0.1532421E+00
         21   -1    0    0  501  502  0.00000000000E+00  0.00000000000E+00  0.18340928134E+02  0.18340928134E+02  0.00000000000E+00 0.  1.
         21   -1    0    0  502  503 -0.00000000000E+00 -0.00000000000E+00 -0.84932927528E+02  0.84932927528E+02  0.00000000000E+00 0. -1.
          2    1    1    2  501    0  0.10547541208E+02 -0.35351125993E+02 -0.14942461006E+02  0.39802385298E+02  0.00000000000E+00 0.  1.
         -2    1    1    2    0  503 -0.10547541208E+02  0.35351125993E+02 -0.51649538387E+02  0.63471470364E+02  0.00000000000E+00 0. -1.
<mgrwt>
<rscale>  2 0.36891093E+02</rscale>
<asrwt>0</asrwt>
<pdfrwt beam="1">  1       21 0.28216812E-02 0.36891093E+02</pdfrwt>
<pdfrwt beam="2">  1       21 0.13066604E-01 0.36891093E+02</pdfrwt>
<totfact> 0.28866987E+07</totfact>
</mgrwt>
</event>
<event>
 4    1  0.2754379E+004  0.3436524E+02  0.7546771E-02  0.1554311E+00
         21   -1    0    0  501  502  0.00000000000E+00  0.00000000000E+00  0.94197115612E+02  0.94197115612E+02  0.00000000000E+00 0. -1.
         21   -1    0    0  502  503 -0.00000000000E+00 -0.00000000000E+00 -0.22753259201E+02  0.22753259201E+02  0.00000000000E+00 0.  1.
          2    1    1    2  501    0  0.15506507139E+02  0.30667861612E+02  0.74904342733E+02  0.82411346669E+02  0.00000000000E+00 0. -1.
         -2    1    1    2    0  503 -0.15506507139E+02 -0.30667861612E+02 -0.34604863218E+01  0.34539028143E+02  0.00000000000E+00 0.  1.
<mgrwt>
<rscale>  2 0.34365237E+02</rscale>
<asrwt>0</asrwt>
<pdfrwt beam="1">  1       21 0.14491864E-01 0.34365237E+02</pdfrwt>
<pdfrwt beam="2">  1       21 0.35005015E-02 0.34365237E+02</pdfrwt>
<totfact> 0.16955655E+07</totfact>
</mgrwt>
</event>
<event>
 4    1  0.2754379E+004  0.2697962E+02  0.7546771E-02  0.1634095E+00
         21   -1    0    0  503  502  0.00000000000E+00  0.00000000000E+00  0.13951431436E+02  0.13951431436E+02  0.00000000000E+00 0.  1.
         21   -1    0    0  501  503 -0.00000000000E+00 -0.00000000000E+00 -0.77126187362E+02  0.77126187362E+02  0.00000000000E+00 0. -1.
          2    1    1    2  501    0 -0.23477765542E+01  0.26877277531E+02 -0.57489552496E+02  0.63505501718E+02  0.00000000000E+00 0. -1.
         -2    1    1    2    0  502  0.23477765542E+01 -0.26877277531E+02 -0.56852034299E+01  0.27572117080E+02  0.00000000000E+00 0.  1.
<mgrwt>
<rscale>  2 0.26979624E+02</rscale>
<asrwt>0</asrwt>
<pdfrwt beam="1">  1       21 0.21463741E-02 0.26979624E+02</pdfrwt>
<pdfrwt beam="2">  1       21 0.11865567E-01 0.26979624E+02</pdfrwt>
<totfact> 0.48913529E+07</totfact>
</mgrwt>
</event>
<event>
 4    1  0.2754379E+004  0.2053874E+02  0.7546771E-02  0.1734822E+00
         21   -1    0    0  501  502  0.00000000000E+00  0.00000000000E+00  0.18738606896E+02  0.18738606896E+02  0.00000000000E+00 0.  1.
         21   -1    0    0  502  503 -0.00000000000E+00 -0.00000000000E+00 -0.24720996948E+02  0.24720996948E+02  0.00000000000E+00 0. -1.
          2    1    1    2  501    0  0.38588560363E+01 -0.20172982973E+02  0.35046959749E+01  0.20835616281E+02  0.00000000000E+00 0.  1.
         -2    1    1    2    0  503 -0.38588560363E+01  0.20172982973E+02 -0.94870860277E+01  0.22623987563E+02  0.00000000000E+00 0. -1.
<mgrwt>
<rscale>  2 0.20538744E+02</rscale>
<asrwt>0</asrwt>
<pdfrwt beam="1">  1       21 0.28828626E-02 0.20538744E+02</pdfrwt>
<pdfrwt beam="2">  1       21 0.38032303E-02 0.20538744E+02</pdfrwt>
<totfact> 0.18138108E+08</totfact>
</mgrwt>
</event>
<event>
 4    1  0.2754379E+004  0.2151541E+02  0.7546771E-02  0.1716770E+00
         21   -1    0    0  501  502  0.00000000000E+00  0.00000000000E+00  0.18896279949E+03  0.18896279949E+03  0.00000000000E+00 0. -1.
         21   -1    0    0  502  503 -0.00000000000E+00 -0.00000000000E+00 -0.11362775295E+02  0.11362775295E+02  0.00000000000E+00 0.  1.
          2    1    1    2  501    0 -0.21003689273E+02 -0.46645372965E+01  0.17751083352E+03  0.17880997984E+03  0.00000000000E+00 0. -1.
         -2    1    1    2    0  503  0.21003689273E+02  0.46645372965E+01  0.89190678392E-01  0.21515594954E+02  0.00000000000E+00 0.  1.
<mgrwt>
<rscale>  2 0.21515410E+02</rscale>
<asrwt>0</asrwt>
<pdfrwt beam="1">  1       21 0.29071198E-01 0.21515410E+02</pdfrwt>
<pdfrwt beam="2">  1       21 0.17481194E-02 0.21515410E+02</pdfrwt>
<totfact> 0.13418576E+07</totfact>
</mgrwt>
</event>
<event>
 4    1  0.2754379E+004  0.3211562E+02  0.7546771E-02  0.1575815E+00
         21   -1    0    0  501  502  0.00000000000E+00  0.00000000000E+00  0.68022225055E+03  0.68022225055E+03  0.00000000000E+00 0.  1.
         21   -1    0    0  502  503 -0.00000000000E+00 -0.00000000000E+00 -0.27730910804E+02  0.27730910804E+02  0.00000000000E+00 0. -1.
          2    1    1    2  501    0 -0.22846668379E+02 -0.22570833796E+02  0.67040874211E+03  0.67117754305E+03  0.00000000000E+00 0.  1.
         -2    1    1    2    0  503  0.22846668379E+02  0.22570833796E+02 -0.17917402365E+02  0.36775618306E+02  0.00000000000E+00 0. -1.
<mgrwt>
<rscale>  2 0.32115616E+02</rscale>
<asrwt>0</asrwt>
<pdfrwt beam="1">  1       21 0.10464956E+00 0.32115616E+02</pdfrwt>
<pdfrwt beam="2">  1       21 0.42662945E-02 0.32115616E+02</pdfrwt>
<totfact> 0.26975203E+05</totfact>
</mgrwt>
</event>
<event>
 4    1  0.2754379E+004  0.2584991E+02  0.7546771E-02  0.1649086E+00
         21   -1    0    0  503  502  0.00000000000E+00  0.00000000000E+00  0.32081625915E+02  0.32081625915E+02  0.00000000000E+00 0.  1.
         21   -1    0    0  501  503 -0.00000000000E+00 -0.00000000000E+00 -0.44747162200E+02  0.44747162200E+02  0.00000000000E+00 0. -1.
          2    1    1    2  501    0  0.14181720979E+02 -0.21612423513E+02 -0.34417999571E+02  0.43044357987E+02  0.00000000000E+00 0. -1.
         -2    1    1    2    0  502 -0.14181720979E+02  0.21612423513E+02  0.21752463286E+02  0.33784430128E+02  0.00000000000E+00 0.  1.
<mgrwt>
<rscale>  2 0.25849914E+02</rscale>
<asrwt>0</asrwt>
<pdfrwt beam="1">  1       21 0.49356348E-02 0.25849914E+02</pdfrwt>
<pdfrwt beam="2">  1       21 0.68841788E-02 0.25849914E+02</pdfrwt>
<totfact> 0.32206526E+07</totfact>
</mgrwt>
</event>
<event>
 4    1  0.2754379E+004  0.3172504E+02  0.7546771E-02  0.1579768E+00
         21   -1    0    0  503  502  0.00000000000E+00  0.00000000000E+00  0.53162564210E+02  0.53162564210E+02  0.00000000000E+00 0. -1.
         21   -1    0    0  501  503 -0.00000000000E+00 -0.00000000000E+00 -0.19233440777E+02  0.19233440777E+02  0.00000000000E+00 0.  1.
          2    1    1    2  501    0  0.31079296442E+02 -0.63683097842E+01  0.12433521935E+02  0.34074484655E+02  0.00000000000E+00 0.  1.
         -2    1    1    2    0  502 -0.31079296442E+02  0.63683097842E+01  0.21495601497E+02  0.38321520332E+02  0.00000000000E+00 0. -1.
<mgrwt>
<rscale>  2 0.31725038E+02</rscale>
<asrwt>0</asrwt>
<pdfrwt beam="1">  1       21 0.81788560E-02 0.31725038E+02</pdfrwt>
<pdfrwt beam="2">  1       21 0.29589909E-02 0.31725038E+02</pdfrwt>
<totfact> 0.57202549E+07</totfact>
</mgrwt>
</event>
<event>
 4    1  0.2754379E+004  0.3039174E+02  0.7546771E-02  0.1593798E+00
         21   -1    0    0  501  502  0.00000000000E+00  0.00000000000E+00  0.70640277471E+03  0.70640277471E+03  0.00000000000E+00 0.  1.
         21   -1    0    0  502  503 -0.00000000000E+00 -0.00000000000E+00 -0.95747590477E+01  0.95747590477E+01  0.00000000000E+00 0. -1.
          2    1    1    2  501    0 -0.27290795429E+02  0.13374248717E+02  0.68106198863E+03  0.68173975269E+03  0.00000000000E+00 0.  1.
         -2    1    1    2    0  503  0.27290795429E+02 -0.13374248717E+02  0.15766027031E+02  0.34237781065E+02  0.00000000000E+00 0. -1.
<mgrwt>
<rscale>  2 0.30391743E+02</rscale>
<asrwt>0</asrwt>
<pdfrwt beam="1">  1       21 0.10867731E+00 0.30391743E+02</pdfrwt>
<pdfrwt beam="2">  1       21 0.14730404E-02 0.30391743E+02</pdfrwt>
<totfact> 0.13058402E+06</totfact>
</mgrwt>
</event>
<event>
 4    1  0.2754379E+004  0.2074213E+02  0.7546771E-02  0.1730960E+00
         21   -1    0    0  501  502  0.00000000000E+00  0.00000000000E+00  0.72191024631E+03  0.72191024631E+03  0.00000000000E+00 0. -1.
         21   -1    0    0  502  503 -0.00000000000E+00 -0.00000000000E+00 -0.25772680394E+01  0.25772680394E+01  0.00000000000E+00 0.  1.
          2    1    1    2  501    0 -0.57184464263E+01  0.19938292262E+02  0.67727792419E+03  0.67759547130E+03  0.00000000000E+00 0. -1.
         -2    1    1    2    0  503  0.57184464263E+01 -0.19938292262E+02  0.42055054082E+02  0.46892043053E+02  0.00000000000E+00 0.  1.
<mgrwt>
<rscale>  2 0.20742134E+02</rscale>
<asrwt>0</asrwt>
<pdfrwt beam="1">  1       21 0.11106295E+00 0.20742134E+02</pdfrwt>
<pdfrwt beam="2">  1       21 0.39650335E-03 0.20742134E+02</pdfrwt>
<totfact> 0.84783793E+06</totfact>
</mgrwt>
</event>
<event>
 4    1  0.2754379E+004  0.2127235E+02  0.7546771E-02  0.1721149E+00
         21   -1    0    0  501  502  0.00000000000E+00  0.00000000000E+00  0.18335731985E+01  0.18335731985E+01  0.00000000000E+00 0.  1.
         21   -1    0    0  502  503 -0.00000000000E+00 -0.00000000000E+00 -0.24942149825E+03  0.24942149825E+03  0.00000000000E+00 0. -1.
          2    1    1    2  501    0 -0.53761685719E+01 -0.20581779126E+02 -0.13669073982E+03  0.13833608052E+03  0.00000000000E+00 0.  1.
         -2    1    1    2    0  503  0.53761685719E+01  0.20581779126E+02 -0.11089718522E+03  0.11291899092E+03  0.00000000000E+00 0. -1.
<mgrwt>
<rscale>  2 0.21272349E+02</rscale>
<asrwt>0</asrwt>
<pdfrwt beam="1">  1       21 0.28208817E-03 0.21272349E+02</pdfrwt>
<pdfrwt beam="2">  1       21 0.38372541E-01 0.21272349E+02</pdfrwt>
<totfact> 0.12065640E+08</totfact>
</mgrwt>
</event>
<event>
 4    1  0.2754379E+004  0.3490061E+02  0.7546771E-02  0.1549485E+00
         21   -1    0    0  503  502  0.00000000000E+00  0.00000000000E+00  0.46411310506E+03  0.46411310506E+03  0.00000000000E+00 0.  1.
         21   -1    0    0  501  503 -0.00000000000E+00 -0.00000000000E+00 -0.20896226845E+02  0.20896226845E+02  0.00000000000E+00 0. -1.
          2    1    1    2  501    0  0.11198402685E+02  0.33055235447E+02 -0.51566876918E+01  0.35279515886E+02  0.00000000000E+00 0. -1.
         -2    1    1    2    0  502 -0.11198402685E+02 -0.33055235447E+02  0.44837356591E+03  0.44972981602E+03  0.00000000000E+00 0.  1.
<mgrwt>
<rscale>  2 0.34900613E+02</rscale>
<asrwt>0</asrwt>
<pdfrwt beam="1">  1       21 0.71402009E-01 0.34900613E+02</pdfrwt>
<pdfrwt beam="2">  1       21 0.32148045E-02 0.34900613E+02</pdfrwt>
<totfact> 0.97096720E+05</totfact>
</mgrwt>
</event>
<event>
 4    1  0.2754379E+004  0.2140845E+02  0.7546771E-02  0.1718688E+00
         21   -1    0    0  503  502  0.00000000000E+00  0.00000000000E+00  0.43948446868E+02  0.43948446868E+02  0.00000000000E+00 0.  1.
         21   -1    0    0  501  503 -0.00000000000E+00 -0.00000000000E+00 -0.10478694809E+02  0.10478694809E+02  0.00000000000E+00 0. -1.
          2    1    1    2  501    0  0.40068982351E+01  0.21030132802E+02  0.18616075972E+02  0.28370407183E+02  0.00000000000E+00 0. -1.
         -2    1    1    2    0  502 -0.40068982351E+01 -0.21030132802E+02  0.14853676087E+02  0.26056734493E+02  0.00000000000E+00 0.  1.
<mgrwt>
<rscale>  2 0.21408450E+02</rscale>
<asrwt>0</asrwt>
<pdfrwt beam="1">  1       21 0.67612994E-02 0.21408450E+02</pdfrwt>
<pdfrwt beam="2">  1       21 0.16121069E-02 0.21408450E+02</pdfrwt>
<totfact> 0.17973513E+08</totfact>
</mgrwt>
</event>
<event>
 4    1  0.2754379E+004  0.2015919E+02  0.7546771E-02  0.1742181E+00
         21   -1    0    0  501  502  0.00000000000E+00  0.00000000000E+00  0.11513404451E+02  0.11513404451E+02  0.00000000000E+00 0. -1.
         21   -1    0    0  502  503 -0.00000000000E+00 -0.00000000000E+00 -0.45767149183E+02  0.45767149183E+02  0.00000000000E+00 0.  1.
          2    1    1    2  501    0 -0.18868018977E+02  0.70986400256E+01 -0.34284938813E+01  0.20448652783E+02  0.00000000000E+00 0.  1.
         -2    1    1    2    0  503  0.18868018977E+02 -0.70986400256E+01 -0.30825250851E+02  0.36831900852E+02  0.00000000000E+00 0. -1.
<mgrwt>
<rscale>  2 0.20159187E+02</rscale>
<asrwt>0</asrwt>
<pdfrwt beam="1">  1       21 0.17712930E-02 0.20159187E+02</pdfrwt>
<pdfrwt beam="2">  1       21 0.70410996E-02 0.20159187E+02</pdfrwt>
<totfact> 0.14319382E+08</totfact>
</mgrwt>
</event>
<event>
 4    1  0.2754379E+004  0.2545791E+02  0.7546771E-02  0.1654511E+00
         21   -1    0    0  501  502  0.00000000000E+00  0.00000000000E+00  0.16920037512E+02  0.16920037512E+02  0.00000000000E+00 0.  1.
         21   -1    0    0  502  503 -0.00000000000E+00 -0.00000000000E+00 -0.40712121430E+02  0.40712121430E+02  0.00000000000E+00 0. -1.
          2    1    1    2  501    0  0.24155441343E+02  0.80386580840E+01 -0.48877712755E+01  0.25922879437E+02  0.00000000000E+00 0.  1.
         -2    1    1    2    0  503 -0.24155441343E+02 -0.80386580840E+01 -0.18904312643E+02  0.31709279505E+02  0.00000000000E+00 0. -1.
<mgrwt>
<rscale>  2 0.25457914E+02</rscale>
<asrwt>0</asrwt>
<pdfrwt beam="1">  1       21 0.26030827E-02 0.25457914E+02</pdfrwt>
<pdfrwt beam="2">  1       21 0.62634033E-02 0.25457914E+02</pdfrwt>
<totfact> 0.10247694E+08</totfact>
</mgrwt>
</event>
<event>
 4    1  0.2754379E+004  0.2712691E+02  0.7546771E-02  0.1632207E+00
         21   -1    0    0  503  502  0.00000000000E+00  0.00000000000E+00  0.43929060901E+03  0.43929060901E+03  0.00000000000E+00 0. -1.
         21   -1    0    0  501  503 -0.00000000000E+00 -0.00000000000E+00 -0.20714078998E+02  0.20714078998E+02  0.00000000000E+00 0.  1.
          2    1    1    2  501    0 -0.25759872906E+01  0.27004319819E+02 -0.11217998421E+02  0.29354939754E+02  0.00000000000E+00 0.  1.
         -2    1    1    2    0  502  0.25759872906E+01 -0.27004319819E+02  0.42979452843E+03  0.43064974825E+03  0.00000000000E+00 0. -1.
<mgrwt>
<rscale>  2 0.27126905E+02</rscale>
<asrwt>0</asrwt>
<pdfrwt beam="1">  1       21 0.67583164E-01 0.27126905E+02</pdfrwt>
<pdfrwt beam="2">  1       21 0.31867817E-02 0.27126905E+02</pdfrwt>
<totfact> 0.10846650E+06</totfact>
</mgrwt>
</event>
<event>
 4    1  0.2754379E+004  0.2419605E+02  0.7546771E-02  0.1672825E+00
         21   -1    0    0  501  502  0.00000000000E+00  0.00000000000E+00  0.44967937451E+02  0.44967937451E+02  0.00000000000E+00 0.  1.
         21   -1    0    0  502  503 -0.00000000000E+00 -0.00000000000E+00 -0.18918870965E+02  0.18918870965E+02  0.00000000000E+00 0. -1.
          2    1    1    2  501    0  0.40020673780E+01  0.23862776898E+02  0.30862517304E+02  0.39216624522E+02  0.00000000000E+00 0.  1.
         -2    1    1    2    0  503 -0.40020673780E+01 -0.23862776898E+02 -0.48134508185E+01  0.24670183894E+02  0.00000000000E+00 0. -1.
<mgrwt>
<rscale>  2 0.24196046E+02</rscale>
<asrwt>0</asrwt>
<pdfrwt beam="1">  1       21 0.69181442E-02 0.24196046E+02</pdfrwt>
<pdfrwt beam="2">  1       21 0.29105955E-02 0.24196046E+02</pdfrwt>
<totfact> 0.72346667E+07</totfact>
</mgrwt>
</event>
<event>
 4    1  0.2754379E+004  0.2400393E+02  0.7546771E-02  0.1675735E+00
         21   -1    0    0  503  502  0.00000000000E+00  0.00000000000E+00  0.21431703820E+02  0.21431703820E+02  0.00000000000E+00 0.  1.
         21   -1    0    0  501  503 -0.00000000000E+00 -0.00000000000E+00 -0.37625131881E+02  0.37625131881E+02  0.00000000000E+00 0. -1.
          2    1    1    2  501    0 -0.20987765205E+02  0.11649137474E+02 -0.23873134905E+02  0.33854324132E+02  0.00000000000E+00 0. -1.
         -2    1    1    2    0  502  0.20987765205E+02 -0.11649137474E+02  0.76797068445E+01  0.25202511570E+02  0.00000000000E+00 0.  1.
<mgrwt>
<rscale>  2 0.24003931E+02</rscale>
<asrwt>0</asrwt>
<pdfrwt beam="1">  1       21 0.32971852E-02 0.24003931E+02</pdfrwt>
<pdfrwt beam="2">  1       21 0.57884818E-02 0.24003931E+02</pdfrwt>
<totfact> 0.79216411E+07</totfact>
</mgrwt>
</event>
<event>
 4    1  0.2754379E+004  0.2485456E+02  0.7546771E-02  0.1663100E+00
         21   -1    0    0  503  502  0.00000000000E+00  0.00000000000E+00  0.25143368540E+03  0.25143368540E+03  0.00000000000E+00 0. -1.
         21   -1    0    0  501  503 -0.00000000000E+00 -0.00000000000E+00 -0.41455021067E+01  0.41455021067E+01  0.00000000000E+00 0.  1.
          2    1    1    2  501    0 -0.24333215363E+02  0.50639664819E+01  0.42085501295E+02  0.48876768978E+02  0.00000000000E+00 0.  1.
         -2    1    1    2    0  502  0.24333215363E+02 -0.50639664819E+01  0.20520268200E+03  0.20670241853E+03  0.00000000000E+00 0. -1.
<mgrwt>
<rscale>  2 0.24854559E+02</rscale>
<asrwt>0</asrwt>
<pdfrwt beam="1">  1       21 0.38682094E-01 0.24854559E+02</pdfrwt>
<pdfrwt beam="2">  1       21 0.63776975E-03 0.24854559E+02</pdfrwt>
<totfact> 0.37276758E+07</totfact>
</mgrwt>
</event>
<event>
 4    1  0.2754379E+004  0.3049140E+02  0.7546771E-02  0.1592720E+00
         21   -1    0    0  503  502  0.00000000000E+00  0.00000000000E+00  0.22953498284E+03  0.22953498284E+03  0.00000000000E+00 0. -1.
         21   -1    0    0  501  503 -0.00000000000E+00 -0.00000000000E+00 -0.40931471482E+01  0.40931471482E+01  0.00000000000E+00 0.  1.
          2    1    1    2  501    0  0.24274469647E+02 -0.18451985162E+02  0.10079366548E+03  0.10530474174E+03  0.00000000000E+00 0.  1.
         -2    1    1    2    0  502 -0.24274469647E+02  0.18451985162E+02  0.12464817022E+03  0.12832338825E+03  0.00000000000E+00 0. -1.
<mgrwt>
<rscale>  2 0.30491403E+02</rscale>
<asrwt>0</asrwt>
<pdfrwt beam="1">  1       21 0.35313064E-01 0.30491403E+02</pdfrwt>
<pdfrwt beam="2">  1       21 0.62971512E-03 0.30491403E+02</pdfrwt>
<totfact> 0.47071543E+07</totfact>
</mgrwt>
</event>
<event>
 4    1  0.2754379E+004  0.5910864E+02  0.7546771E-02  0.1401611E+00
         21   -1    0    0  501  502  0.00000000000E+00  0.00000000000E+00  0.90686918703E+02  0.90686918703E+02  0.00000000000E+00 0. -1.
         21   -1    0    0  502  503 -0.00000000000E+00 -0.00000000000E+00 -0.42245663832E+02  0.42245663832E+02  0.00000000000E+00 0.  1.
          2    1    1    2  501    0 -0.58947225158E+02  0.43653516816E+01  0.43942337581E+02  0.73652974694E+02  0.00000000000E+00 0. -1.
         -2    1    1    2    0  503  0.58947225158E+02 -0.43653516816E+01  0.44989172898E+01  0.59279607842E+02  0.00000000000E+00 0.  1.
<mgrwt>
<rscale>  2 0.59108643E+02</rscale>
<asrwt>0</asrwt>
<pdfrwt beam="1">  1       21 0.13951834E-01 0.59108643E+02</pdfrwt>
<pdfrwt beam="2">  1       21 0.64993329E-02 0.59108643E+02</pdfrwt>
<totfact> 0.71020232E+06</totfact>
</mgrwt>
</event>
<event>
 4    1  0.2754379E+004  0.2294879E+02  0.7546771E-02  0.1692342E+00
         21   -1    0    0  503  502  0.00000000000E+00  0.00000000000E+00  0.17097278865E+01  0.17097278865E+01  0.00000000000E+00 0. -1.
         21   -1    0    0  501  503 -0.00000000000E+00 -0.00000000000E+00 -0.57282763390E+03  0.57282763390E+03  0.00000000000E+00 0.  1.
          2    1    1    2  501    0 -0.22319782714E+02  0.53361072376E+01 -0.48087310161E+03  0.48142038448E+03  0.00000000000E+00 0.  1.
         -2    1    1    2    0  502  0.22319782714E+02 -0.53361072376E+01 -0.90244804401E+02  0.93116977304E+02  0.00000000000E+00 0. -1.
<mgrwt>
<rscale>  2 0.22948785E+02</rscale>
<asrwt>0</asrwt>
<pdfrwt beam="1">  1       21 0.26303485E-03 0.22948785E+02</pdfrwt>
<pdfrwt beam="2">  1       21 0.88127400E-01 0.22948785E+02</pdfrwt>
<totfact> 0.25989487E+07</totfact>
</mgrwt>
</event>
<event>
 4    1  0.2754379E+004  0.2040012E+02  0.7546771E-02  0.1737486E+00
         21   -1    0    0  501  502  0.00000000000E+00  0.00000000000E+00  0.11421670174E+02  0.11421670174E+02  0.00000000000E+00 0. -1.
         21   -1    0    0  502  503 -0.00000000000E+00 -0.00000000000E+00 -0.27392613778E+03  0.27392613778E+03  0.00000000000E+00 0.  1.
          2    1    1    2  501    0 -0.17819603742E+02 -0.99310956388E+01  0.15942916925E+01  0.20462324015E+02  0.00000000000E+00 0. -1.
         -2    1    1    2    0  503  0.17819603742E+02  0.99310956388E+01 -0.26409875930E+03  0.26488548394E+03  0.00000000000E+00 0.  1.
<mgrwt>
<rscale>  2 0.20400121E+02</rscale>
<asrwt>0</asrwt>
<pdfrwt beam="1">  1       21 0.17571800E-02 0.20400121E+02</pdfrwt>
<pdfrwt beam="2">  1       21 0.42142483E-01 0.20400121E+02</pdfrwt>
<totfact> 0.66423502E+06</totfact>
</mgrwt>
</event>
<event>
 4    1  0.2754379E+004  0.2356970E+02  0.7546771E-02  0.1682439E+00
         21   -1    0    0  503  502  0.00000000000E+00  0.00000000000E+00  0.27042157676E+02  0.27042157676E+02  0.00000000000E+00 0.  1.
         21   -1    0    0  501  503 -0.00000000000E+00 -0.00000000000E+00 -0.25654643117E+02  0.25654643117E+02  0.00000000000E+00 0. -1.
          2    1    1    2  501    0 -0.22215598719E+02  0.78738644350E+01 -0.11067289966E+02  0.26038730283E+02  0.00000000000E+00 0.  1.
         -2    1    1    2    0  502  0.22215598719E+02 -0.78738644350E+01  0.12454804524E+02  0.26658070510E+02  0.00000000000E+00 0. -1.
<mgrwt>
<rscale>  2 0.23569696E+02</rscale>
<asrwt>0</asrwt>
<pdfrwt beam="1">  1       21 0.41603320E-02 0.23569696E+02</pdfrwt>
<pdfrwt beam="2">  1       21 0.39468681E-02 0.23569696E+02</pdfrwt>
<totfact> 0.10053936E+08</totfact>
</mgrwt>
</event>
<event>
 4    1  0.2754379E+004  0.2459865E+02  0.7546771E-02  0.1666835E+00
         21   -1    0    0  503  502  0.00000000000E+00  0.00000000000E+00  0.16570607247E+02  0.16570607247E+02  0.00000000000E+00 0. -1.
         21   -1    0    0  501  503 -0.00000000000E+00 -0.00000000000E+00 -0.36516080710E+02  0.36516080710E+02  0.00000000000E+00 0.  1.
          2    1    1    2  501    0 -0.21444910134E+02  0.12050277352E+02 -0.99547870266E+01  0.26536600002E+02  0.00000000000E+00 0. -1.
         -2    1    1    2    0  502  0.21444910134E+02 -0.12050277352E+02 -0.99906864364E+01  0.26550087954E+02  0.00000000000E+00 0.  1.
<mgrwt>
<rscale>  2 0.24598645E+02</rscale>
<asrwt>0</asrwt>
<pdfrwt beam="1">  1       21 0.25493242E-02 0.24598645E+02</pdfrwt>
<pdfrwt beam="2">  1       21 0.56178585E-02 0.24598645E+02</pdfrwt>
<totfact> 0.12495736E+08</totfact>
</mgrwt>
</event>
<event>
 4    1  0.2754379E+004  0.2034988E+02  0.7546771E-02  0.1738458E+00
         21   -1    0    0  503  502  0.00000000000E+00  0.00000000000E+00  0.12981768597E+01  0.12981768597E+01  0.00000000000E+00 0. -1.
         21   -1    0    0  501  503 -0.00000000000E+00 -0.00000000000E+00 -0.36951931611E+03  0.36951931611E+03  0.00000000000E+00 0.  1.
          2    1    1    2  501    0 -0.16483526078E+02  0.11933608805E+02 -0.25266616654E+03  0.25348433751E+03  0.00000000000E+00 0.  1.
         -2    1    1    2    0  502  0.16483526078E+02 -0.11933608805E+02 -0.11555497272E+03  0.11733315546E+03  0.00000000000E+00 0. -1.
<mgrwt>
<rscale>  2 0.20349881E+02</rscale>
<asrwt>0</asrwt>
<pdfrwt beam="1">  1       21 0.19971935E-03 0.20349881E+02</pdfrwt>
<pdfrwt beam="2">  1       21 0.56849173E-01 0.20349881E+02</pdfrwt>
<totfact> 0.92394089E+07</totfact>
</mgrwt>
</event>
<event>
 4    1  0.2754379E+004  0.2538148E+02  0.7546771E-02  0.1655582E+00
         21   -1    0    0  503  502  0.00000000000E+00  0.00000000000E+00  0.14212654956E+03  0.14212654956E+03  0.00000000000E+00 0. -1.
         21   -1    0    0  501  503 -0.00000000000E+00 -0.00000000000E+00 -0.54326263237E+01  0.54326263237E+01  0.00000000000E+00 0.  1.
          2    1    1    2  501    0  0.16127508893E+02 -0.19599058643E+02  0.38318691185E+02  0.45962394813E+02  0.00000000000E+00 0. -1.
         -2    1    1    2    0  502 -0.16127508893E+02  0.19599058643E+02  0.98375232047E+02  0.10159678107E+03  0.00000000000E+00 0.  1.
<mgrwt>
<rscale>  2 0.25381482E+02</rscale>
<asrwt>0</asrwt>
<pdfrwt beam="1">  1       21 0.21865620E-01 0.25381482E+02</pdfrwt>
<pdfrwt beam="2">  1       21 0.83578877E-03 0.25381482E+02</pdfrwt>
<totfact> 0.70673732E+07</totfact>
</mgrwt>
</event>
<event>
 4    1  0.2754379E+004  0.2219764E+02  0.7546771E-02  0.1704856E+00
         21   -1    0    0  503  502  0.00000000000E+00  0.00000000000E+00  0.10493123544E+02  0.10493123544E+02  0.00000000000E+00 0. -1.
         21   -1    0    0  501  503 -0.00000000000E+00 -0.00000000000E+00 -0.85232432020E+02  0.85232432020E+02  0.00000000000E+00 0.  1.
          2    1    1    2  501    0 -0.97533458187E+01 -0.19940099887E+02 -0.69443441642E+02  0.72904917017E+02  0.00000000000E+00 0.  1.
         -2    1    1    2    0  502  0.97533458187E+01  0.19940099887E+02 -0.52958668345E+01  0.22820638547E+02  0.00000000000E+00 0. -1.
<mgrwt>
<rscale>  2 0.22197643E+02</rscale>
<asrwt>0</asrwt>
<pdfrwt beam="1">  1       21 0.16143267E-02 0.22197643E+02</pdfrwt>
<pdfrwt beam="2">  1       21 0.13112682E-01 0.22197643E+02</pdfrwt>
<totfact> 0.60961950E+07</totfact>
</mgrwt>
</event>
<event>
 4    1  0.2754379E+004  0.2173464E+02  0.7546771E-02  0.1712882E+00
         21   -1    0    0  501  502  0.00000000000E+00  0.00000000000E+00  0.13003078628E+02  0.13003078628E+02  0.00000000000E+00 0. -1.
         21   -1    0    0  502  503 -0.00000000000E+00 -0.00000000000E+00 -0.48498805826E+02  0.48498805826E+02  0.00000000000E+00 0.  1.
          2    1    1    2  501    0 -0.86080941530E+01 -0.19957334801E+02 -0.23440955360E+01  0.21860678882E+02  0.00000000000E+00 0. -1.
         -2    1    1    2    0  503  0.86080941530E+01  0.19957334801E+02 -0.33151631662E+02  0.39641205571E+02  0.00000000000E+00 0.  1.
<mgrwt>
<rscale>  2 0.21734638E+02</rscale>
<asrwt>0</asrwt>
<pdfrwt beam="1">  1       21 0.20004736E-02 0.21734638E+02</pdfrwt>
<pdfrwt beam="2">  1       21 0.74613548E-02 0.21734638E+02</pdfrwt>
<totfact> 0.11078845E+08</totfact>
</mgrwt>
</event>
<event>
 4    1  0.2754379E+004  0.2206324E+02  0.7546771E-02  0.1707161E+00
         21   -1    0    0  503  502  0.00000000000E+00  0.00000000000E+00  0.17477321116E+02  0.17477321116E+02  0.00000000000E+00 0.  1.
         21   -1    0    0  501  503 -0.00000000000E+00 -0.00000000000E+00 -0.64712808747E+02  0.64712808747E+02  0.00000000000E+00 0. -1.
          2    1    1    2  501    0  0.12824013186E+02  0.17953582227E+02 -0.54632919951E+02  0.58919796090E+02  0.00000000000E+00 0. -1.
         -2    1    1    2    0  502 -0.12824013186E+02 -0.17953582227E+02  0.73974323194E+01  0.23270333772E+02  0.00000000000E+00 0.  1.
<mgrwt>
<rscale>  2 0.22063237E+02</rscale>
<asrwt>0</asrwt>
<pdfrwt beam="1">  1       21 0.26888187E-02 0.22063237E+02</pdfrwt>
<pdfrwt beam="2">  1       21 0.99558165E-02 0.22063237E+02</pdfrwt>
<totfact> 0.44022996E+07</totfact>
</mgrwt>
</event>
<event>
 4    1  0.2754379E+004  0.2483481E+02  0.7546771E-02  0.1663386E+00
         21   -1    0    0  501  502  0.00000000000E+00  0.00000000000E+00  0.20971421673E+03  0.20971421673E+03  0.00000000000E+00 0.  1.
         21   -1    0    0  502  503 -0.00000000000E+00 -0.00000000000E+00 -0.14866186714E+02  0.14866186714E+02  0.00000000000E+00 0. -1.
          2    1    1    2  501    0 -0.19077271949E+02  0.15900483142E+02  0.19799549107E+03  0.19954694223E+03  0.00000000000E+00 0.  1.
         -2    1    1    2    0  503  0.19077271949E+02 -0.15900483142E+02 -0.31474610568E+01  0.25033461212E+02  0.00000000000E+00 0. -1.
<mgrwt>
<rscale>  2 0.24834808E+02</rscale>
<asrwt>0</asrwt>
<pdfrwt beam="1">  1       21 0.32263724E-01 0.24834808E+02</pdfrwt>
<pdfrwt beam="2">  1       21 0.22871058E-02 0.24834808E+02</pdfrwt>
<totfact> 0.75453052E+06</totfact>
</mgrwt>
</event>
<event>
 4    1  0.2754379E+004  0.2168126E+02  0.7546771E-02  0.1713823E+00
         21   -1    0    0  501  502  0.00000000000E+00  0.00000000000E+00  0.33317545647E+02  0.33317545647E+02  0.00000000000E+00 0. -1.
         21   -1    0    0  502  503 -0.00000000000E+00 -0.00000000000E+00 -0.15412639630E+02  0.15412639630E+02  0.00000000000E+00 0.  1.
          2    1    1    2  501    0 -0.20775631847E+02  0.62008336329E+01  0.16038573094E+02  0.26968741967E+02  0.00000000000E+00 0. -1.
         -2    1    1    2    0  503  0.20775631847E+02 -0.62008336329E+01  0.18663329230E+01  0.21761443310E+02  0.00000000000E+00 0.  1.
<mgrwt>
<rscale>  2 0.21681264E+02</rscale>
<asrwt>0</asrwt>
<pdfrwt beam="1">  1       21 0.51257762E-02 0.21681264E+02</pdfrwt>
<pdfrwt beam="2">  1       21 0.23711753E-02 0.21681264E+02</pdfrwt>
<totfact> 0.15579270E+08</totfact>
</mgrwt>
</event>
<event>
 4    1  0.2754379E+004  0.3104068E+02  0.7546771E-02  0.1586862E+00
         21   -1    0    0  501  502  0.00000000000E+00  0.00000000000E+00  0.30619264029E+01  0.30619264029E+01  0.00000000000E+00 0.  1.
         21   -1    0    0  502  503 -0.00000000000E+00 -0.00000000000E+00 -0.47942060743E+03  0.47942060743E+03  0.00000000000E+00 0. -1.
          2    1    1    2  501    0 -0.29904467854E+02  0.83214595477E+01 -0.96764520987E+02  0.10162133835E+03  0.00000000000E+00 0.  1.
         -2    1    1    2    0  503  0.29904467854E+02 -0.83214595477E+01 -0.37959416004E+03  0.38086119548E+03  0.00000000000E+00 0. -1.
<mgrwt>
<rscale>  2 0.31040681E+02</rscale>
<asrwt>0</asrwt>
<pdfrwt beam="1">  1       21 0.47106602E-03 0.31040681E+02</pdfrwt>
<pdfrwt beam="2">  1       21 0.73756951E-01 0.31040681E+02</pdfrwt>
<totfact> 0.16969615E+07</totfact>
</mgrwt>
</event>
<event>
 4    1  0.2754379E+004  0.3070419E+02  0.7546771E-02  0.1590433E+00
         21   -1    0    0  503  502  0.00000000000E+00  0.00000000000E+00  0.50086815186E+02  0.50086815186E+02  0.00000000000E+00 0.  1.
         21   -1    0    0  501  503 -0.00000000000E+00 -0.00000000000E+00 -0.22506586322E+02  0.22506586322E+02  0.00000000000E+00 0. -1.
          2    1    1    2  501    0 -0.27519028475E+02 -0.13618023388E+02 -0.89545779868E+00  0.30717248149E+02  0.00000000000E+00 0. -1.
         -2    1    1    2    0  502  0.27519028475E+02  0.13618023388E+02  0.28475686663E+02  0.41876153358E+02  0.00000000000E+00 0.  1.
<mgrwt>
<rscale>  2 0.30704193E+02</rscale>
<asrwt>0</asrwt>
<pdfrwt beam="1">  1       21 0.77056639E-02 0.30704193E+02</pdfrwt>
<pdfrwt beam="2">  1       21 0.34625518E-02 0.30704193E+02</pdfrwt>
<totfact> 0.48897963E+07</totfact>
</mgrwt>
</event>
<event>
 4    1  0.2754379E+004  0.2201983E+02  0.7546771E-02  0.1707909E+00
         21   -1    0    0  503  502  0.00000000000E+00  0.00000000000E+00  0.43937570776E+03  0.43937570776E+03  0.00000000000E+00 0. -1.
         21   -1    0    0  501  503 -0.00000000000E+00 -0.00000000000E+00 -0.11069694234E+01  0.11069694234E+01  0.00000000000E+00 0.  1.
          2    1    1    2  501    0  0.85662776030E+01 -0.20285263758E+02  0.20689353480E+03  0.20806202868E+03  0.00000000000E+00 0. -1.
         -2    1    1    2    0  502 -0.85662776030E+01  0.20285263758E+02  0.23137520354E+03  0.23242064850E+03  0.00000000000E+00 0.  1.
<mgrwt>
<rscale>  2 0.22019833E+02</rscale>
<asrwt>0</asrwt>
<pdfrwt beam="1">  1       21 0.67596124E-01 0.22019833E+02</pdfrwt>
<pdfrwt beam="2">  1       21 0.17030334E-03 0.22019833E+02</pdfrwt>
<totfact> 0.83827664E+07</totfact>
</mgrwt>
</event>
<event>
 4    1  0.2754379E+004  0.2855774E+02  0.7546771E-02  0.1614601E+00
         21   -1    0    0  503  502  0.00000000000E+00  0.00000000000E+00  0.23674080746E+02  0.23674080746E+02  0.00000000000E+00 0. -1.
         21   -1    0    0  501  503 -0.00000000000E+00 -0.00000000000E+00 -0.74147689625E+02  0.74147689625E+02  0.00000000000E+00 0.  1.
          2    1    1    2  501    0 -0.21094961596E+02 -0.19249603701E+02 -0.61025483221E+02  0.67376956370E+02  0.00000000000E+00 0.  1.
         -2    1    1    2    0  502  0.21094961596E+02  0.19249603701E+02  0.10551874341E+02  0.30444814001E+02  0.00000000000E+00 0. -1.
<mgrwt>
<rscale>  2 0.28557742E+02</rscale>
<asrwt>0</asrwt>
<pdfrwt beam="1">  1       21 0.36421663E-02 0.28557742E+02</pdfrwt>
<pdfrwt beam="2">  1       21 0.11407337E-01 0.28557742E+02</pdfrwt>
<totfact> 0.23142271E+07</totfact>
</mgrwt>
</event>
<event>
 4    1  0.2754379E+004  0.2209942E+02  0.7546771E-02  0.1706538E+00
         21   -1    0    0  501  502  0.00000000000E+00  0.00000000000E+00  0.89226007114E+01  0.89226007114E+01  0.00000000000E+00 0. -1.
         21   -1    0    0  502  503 -0.00000000000E+00 -0.00000000000E+00 -0.10107482513E+03  0.10107482513E+03  0.00000000000E+00 0.  1.
          2    1    1    2  501    0 -0.13460367767E+01  0.22058393400E+02 -0.88365060511E+01  0.23800596077E+02  0.00000000000E+00 0. -1.
         -2    1    1    2    0  503  0.13460367767E+01 -0.22058393400E+02 -0.83315718368E+02  0.86196829765E+02  0.00000000000E+00 0.  1.
<mgrwt>
<rscale>  2 0.22099424E+02</rscale>
<asrwt>0</asrwt>
<pdfrwt beam="1">  1       21 0.13727079E-02 0.22099424E+02</pdfrwt>
<pdfrwt beam="2">  1       21 0.15549972E-01 0.22099424E+02</pdfrwt>
<totfact> 0.58348140E+07</totfact>
</mgrwt>
</event>
<event>
 4    1  0.2754379E+004  0.4567230E+02  0.7546771E-02  0.1470188E+00
         21   -1    0    0  501  502  0.00000000000E+00  0.00000000000E+00  0.44934603639E+02  0.44934603639E+02  0.00000000000E+00 0.  1.
         21   -1    0    0  502  503 -0.00000000000E+00 -0.00000000000E+00 -0.14273975707E+03  0.14273975707E+03  0.00000000000E+00 0. -1.
          2    1    1    2  501    0 -0.21892149200E+02  0.40083576301E+02  0.28179853170E+02  0.53666222248E+02  0.00000000000E+00 0.  1.
         -2    1    1    2    0  503  0.21892149200E+02 -0.40083576301E+02 -0.12598500661E+03  0.13400813847E+03  0.00000000000E+00 0. -1.
<mgrwt>
<rscale>  2 0.45672303E+02</rscale>
<asrwt>0</asrwt>
<pdfrwt beam="1">  1       21 0.69130160E-02 0.45672303E+02</pdfrwt>
<pdfrwt beam="2">  1       21 0.21959962E-01 0.45672303E+02</pdfrwt>
<totfact> 0.27943812E+06</totfact>
</mgrwt>
</event>
<event>
 4    1  0.2754379E+004  0.2427521E+02  0.7546771E-02  0.1671636E+00
         21   -1    0    0  501  502  0.00000000000E+00  0.00000000000E+00  0.47503518092E+01  0.47503518092E+01  0.00000000000E+00 0.  1.
         21   -1    0    0  502  503 -0.00000000000E+00 -0.00000000000E+00 -0.52760414806E+03  0.52760414806E+03  0.00000000000E+00 0. -1.
          2    1    1    2  501    0 -0.24030633463E+02 -0.34371856420E+01 -0.28635334668E+02  0.37540218184E+02  0.00000000000E+00 0.  1.
         -2    1    1    2    0  503  0.24030633463E+02  0.34371856420E+01 -0.49421846159E+03  0.49481428169E+03  0.00000000000E+00 0. -1.
<mgrwt>
<rscale>  2 0.24275205E+02</rscale>
<asrwt>0</asrwt>
<pdfrwt beam="1">  1       21 0.73082350E-03 0.24275205E+02</pdfrwt>
<pdfrwt beam="2">  1       21 0.81169853E-01 0.24275205E+02</pdfrwt>
<totfact> 0.69459286E+06</totfact>
</mgrwt>
</event>
<event>
 4    1  0.2754379E+004  0.2678543E+02  0.7546771E-02  0.1636607E+00
         21   -1    0    0  501  502  0.00000000000E+00  0.00000000000E+00  0.57120648694E+00  0.57120648694E+00  0.00000000000E+00 0.  1.
         21   -1    0    0  502  503 -0.00000000000E+00 -0.00000000000E+00 -0.12726924819E+04  0.12726924819E+04  0.00000000000E+00 0. -1.
          2    1    1    2  501    0  0.74369878300E+01  0.25732283035E+02 -0.56324181071E+03  0.56387835259E+03  0.00000000000E+00 0.  1.
         -2    1    1    2    0  503 -0.74369878300E+01 -0.25732283035E+02 -0.70887946475E+03  0.70938533585E+03  0.00000000000E+00 0. -1.
<mgrwt>
<rscale>  2 0.26785428E+02</rscale>
<asrwt>0</asrwt>
<pdfrwt beam="1">  1       21 0.87877758E-04 0.26785428E+02</pdfrwt>
<pdfrwt beam="2">  1       21 0.19579921E+00 0.26785428E+02</pdfrwt>
<totfact> 0.20135690E+07</totfact>
</mgrwt>
</event>
<event>
 4    1  0.2754379E+004  0.1006715E+03  0.7546771E-02  0.1278890E+00
         21   -1    0    0  503  502  0.00000000000E+00  0.00000000000E+00  0.11132686357E+03  0.11132686357E+03  0.00000000000E+00 0.  1.
         21   -1    0    0  501  503 -0.00000000000E+00 -0.00000000000E+00 -0.93168872909E+02  0.93168872909E+02  0.00000000000E+00 0. -1.
          2    1    1    2  501    0  0.79449279128E+02  0.61826952789E+02 -0.63911464802E+01  0.10087421275E+03  0.00000000000E+00 0. -1.
         -2    1    1    2    0  502 -0.79449279128E+02 -0.61826952789E+02  0.24549137141E+02  0.10362152373E+03  0.00000000000E+00 0.  1.
<mgrwt>
<rscale>  2 0.10067155E+03</rscale>
<asrwt>0</asrwt>
<pdfrwt beam="1">  1       21 0.17127210E-01 0.10067155E+03</pdfrwt>
<pdfrwt beam="2">  1       21 0.14333673E-01 0.10067155E+03</pdfrwt>
<totfact> 0.13023251E+06</totfact>
</mgrwt>
</event>
<event>
 4    1  0.2754379E+004  0.2216018E+02  0.7546771E-02  0.1705496E+00
         21   -1    0    0  501  502  0.00000000000E+00  0.00000000000E+00  0.15893434602E+01  0.15893434602E+01  0.00000000000E+00 0. -1.
         21   -1    0    0  502  503 -0.00000000000E+00 -0.00000000000E+00 -0.48792768767E+03  0.48792768767E+03  0.00000000000E+00 0.  1.
          2    1    1    2  501    0 -0.15260214277E+02 -0.16068591936E+02 -0.94943198274E+02  0.97495049542E+02  0.00000000000E+00 0. -1.
         -2    1    1    2    0  503  0.15260214277E+02  0.16068591936E+02 -0.39139514593E+03  0.39202198159E+03  0.00000000000E+00 0.  1.
<mgrwt>
<rscale>  2 0.22160185E+02</rscale>
<asrwt>0</asrwt>
<pdfrwt beam="1">  1       21 0.24451450E-03 0.22160185E+02</pdfrwt>
<pdfrwt beam="2">  1       21 0.75065760E-01 0.22160185E+02</pdfrwt>
<totfact> 0.40179362E+07</totfact>
</mgrwt>
</event>
<event>
 4    1  0.2754379E+004  0.2068995E+02  0.7546771E-02  0.1731946E+00
         21   -1    0    0  501  502  0.00000000000E+00  0.00000000000E+00  0.17663873912E+03  0.17663873912E+03  0.00000000000E+00 0. -1.
         21   -1    0    0  502  503 -0.00000000000E+00 -0.00000000000E+00 -0.15852945975E+02  0.15852945975E+02  0.00000000000E+00 0.  1.
          2    1    1    2  501    0 -0.20538241995E+02  0.25008895796E+01  0.16897723914E+03  0.17023918815E+03  0.00000000000E+00 0. -1.
         -2    1    1    2    0  503  0.20538241995E+02 -0.25008895796E+01 -0.81914459956E+01  0.22252496948E+02  0.00000000000E+00 0.  1.
<mgrwt>
<rscale>  2 0.20689945E+02</rscale>
<asrwt>0</asrwt>
<pdfrwt beam="1">  1       21 0.27175189E-01 0.20689945E+02</pdfrwt>
<pdfrwt beam="2">  1       21 0.24389149E-02 0.20689945E+02</pdfrwt>
<totfact> 0.90288345E+06</totfact>
</mgrwt>
</event>
<event>
 4    1  0.2754379E+004  0.2135507E+02  0.7546771E-02  0.1719650E+00
         21   -1    0    0  501  502  0.00000000000E+00  0.00000000000E+00  0.10616823009E+03  0.10616823009E+03  0.00000000000E+00 0.  1.
         21   -1    0    0  502  503 -0.00000000000E+00 -0.00000000000E+00 -0.86098483655E+01  0.86098483655E+01  0.00000000000E+00 0. -1.
          2    1    1    2  501    0  0.10982765716E+02  0.18314412989E+02  0.89404063764E+02  0.91919124688E+02  0.00000000000E+00 0.  1.
         -2    1    1    2    0  503 -0.10982765716E+02 -0.18314412989E+02  0.81543179591E+01  0.22858953766E+02  0.00000000000E+00 0. -1.
<mgrwt>
<rscale>  2 0.21355067E+02</rscale>
<asrwt>0</asrwt>
<pdfrwt beam="1">  1       21 0.16333573E-01 0.21355067E+02</pdfrwt>
<pdfrwt beam="2">  1       21 0.13245921E-02 0.21355067E+02</pdfrwt>
<totfact> 0.56117959E+07</totfact>
</mgrwt>
</event>
<event>
 4    1  0.2754379E+004  0.2059818E+02  0.7546771E-02  0.1733688E+00
         21   -1    0    0  503  502  0.00000000000E+00  0.00000000000E+00  0.13317855108E+02  0.13317855108E+02  0.00000000000E+00 0.  1.
         21   -1    0    0  501  503 -0.00000000000E+00 -0.00000000000E+00 -0.39733707874E+02  0.39733707874E+02  0.00000000000E+00 0. -1.
          2    1    1    2  501    0 -0.35127960427E+01 -0.20296433820E+02 -0.25017212349E+02  0.32405954323E+02  0.00000000000E+00 0. -1.
         -2    1    1    2    0  502  0.35127960427E+01  0.20296433820E+02 -0.13986404164E+01  0.20645608658E+02  0.00000000000E+00 0.  1.
<mgrwt>
<rscale>  2 0.20598179E+02</rscale>
<asrwt>0</asrwt>
<pdfrwt beam="1">  1       21 0.20489008E-02 0.20598179E+02</pdfrwt>
<pdfrwt beam="2">  1       21 0.61128781E-02 0.20598179E+02</pdfrwt>
<totfact> 0.14488656E+08</totfact>
</mgrwt>
</event>
<event>
 4    1  0.2754379E+004  0.2272441E+02  0.7546771E-02  0.1696017E+00
         21   -1    0    0  503  502  0.00000000000E+00  0.00000000000E+00  0.18475691262E+02  0.18475691262E+02  0.00000000000E+00 0.  1.
         21   -1    0    0  501  503 -0.00000000000E+00 -0.00000000000E+00 -0.61049500583E+02  0.61049500583E+02  0.00000000000E+00 0. -1.
          2    1    1    2  501    0  0.12850604515E+02  0.18741954558E+02 -0.50565026343E+02  0.55436637580E+02  0.00000000000E+00 0. -1.
         -2    1    1    2    0  502 -0.12850604515E+02 -0.18741954558E+02  0.79912170225E+01  0.24088554265E+02  0.00000000000E+00 0.  1.
<mgrwt>
<rscale>  2 0.22724412E+02</rscale>
<asrwt>0</asrwt>
<pdfrwt beam="1">  1       21 0.28424140E-02 0.22724412E+02</pdfrwt>
<pdfrwt beam="2">  1       21 0.93922310E-02 0.22724412E+02</pdfrwt>
<totfact> 0.44800500E+07</totfact>
</mgrwt>
</event>
<event>
 4    1  0.2754379E+004  0.2393998E+02  0.7546771E-02  0.1676711E+00
         21   -1    0    0  503  502  0.00000000000E+00  0.00000000000E+00  0.16930177624E+03  0.16930177624E+03  0.00000000000E+00 0. -1.
         21   -1    0    0  501  503 -0.00000000000E+00 -0.00000000000E+00 -0.34939270912E+01  0.34939270912E+01  0.00000000000E+00 0.  1.
          2    1    1    2  501    0 -0.23913912419E+02  0.11169900540E+01  0.67663909250E+02  0.71774142203E+02  0.00000000000E+00 0. -1.
         -2    1    1    2    0  502  0.23913912419E+02 -0.11169900540E+01  0.98143939894E+02  0.10102156112E+03  0.00000000000E+00 0.  1.
<mgrwt>
<rscale>  2 0.23939985E+02</rscale>
<asrwt>0</asrwt>
<pdfrwt beam="1">  1       21 0.26046421E-01 0.23939985E+02</pdfrwt>
<pdfrwt beam="2">  1       21 0.53752738E-03 0.23939985E+02</pdfrwt>
<totfact> 0.98419717E+07</totfact>
</mgrwt>
</event>
<event>
 4    1  0.2754379E+004  0.3010850E+02  0.7546771E-02  0.1596892E+00
         21   -1    0    0  501  502  0.00000000000E+00  0.00000000000E+00  0.47158691509E+01  0.47158691509E+01  0.00000000000E+00 0. -1.
         21   -1    0    0  502  503 -0.00000000000E+00 -0.00000000000E+00 -0.20132730203E+03  0.20132730203E+03  0.00000000000E+00 0.  1.
          2    1    1    2  501    0 -0.11405869345E+02 -0.27864458397E+02 -0.76403809231E+02  0.82122250105E+02  0.00000000000E+00 0.  1.
         -2    1    1    2    0  503  0.11405869345E+02  0.27864458397E+02 -0.12020762365E+03  0.12392092108E+03  0.00000000000E+00 0. -1.
<mgrwt>
<rscale>  2 0.30108502E+02</rscale>
<asrwt>0</asrwt>
<pdfrwt beam="1">  1       21 0.72551841E-03 0.30108502E+02</pdfrwt>
<pdfrwt beam="2">  1       21 0.30973428E-01 0.30108502E+02</pdfrwt>
<totfact> 0.48459744E+07</totfact>
</mgrwt>
</event>
<event>
 4    1  0.2754379E+004  0.2289741E+02  0.7546771E-02  0.1693179E+00
         21   -1    0    0  503  502  0.00000000000E+00  0.00000000000E+00  0.11872978861E+02  0.11872978861E+02  0.00000000000E+00 0. -1.
         21   -1    0    0  501  503 -0.00000000000E+00 -0.00000000000E+00 -0.51350603538E+02  0.51350603538E+02  0.00000000000E+00 0.  1.
          2    1    1    2  501    0 -0.22239321156E+02 -0.54501272036E+01 -0.31569458820E+02  0.38999000272E+02  0.00000000000E+00 0.  1.
         -2    1    1    2    0  502  0.22239321156E+02  0.54501272036E+01 -0.79081658572E+01  0.24224582127E+02  0.00000000000E+00 0. -1.
<mgrwt>
<rscale>  2 0.22897408E+02</rscale>
<asrwt>0</asrwt>
<pdfrwt beam="1">  1       21 0.18266121E-02 0.22897408E+02</pdfrwt>
<pdfrwt beam="2">  1       21 0.79000928E-02 0.22897408E+02</pdfrwt>
<totfact> 0.11782040E+08</totfact>
</mgrwt>
</event>
<event>
 4    1  0.2754379E+004  0.2126180E+02  0.7546771E-02  0.1721341E+00
         21   -1    0    0  501  502  0.00000000000E+00  0.00000000000E+00  0.47835557057E+01  0.47835557057E+01  0.00000000000E+00 0.  1.
         21   -1    0    0  502  503 -0.00000000000E+00 -0.00000000000E+00 -0.10055587054E+03  0.10055587054E+03  0.00000000000E+00 0. -1.
          2    1    1    2  501    0  0.20319519393E+02 -0.62594873880E+01 -0.34964736146E+02  0.40921837990E+02  0.00000000000E+00 0.  1.
         -2    1    1    2    0  503 -0.20319519393E+02  0.62594873880E+01 -0.60807578683E+02  0.64417588250E+02  0.00000000000E+00 0. -1.
<mgrwt>
<rscale>  2 0.21261798E+02</rscale>
<asrwt>0</asrwt>
<pdfrwt beam="1">  1       21 0.73593167E-03 0.21261798E+02</pdfrwt>
<pdfrwt beam="2">  1       21 0.15470133E-01 0.21261798E+02</pdfrwt>
<totfact> 0.14824806E+08</totfact>
</mgrwt>
</event>
<event>
 4    1  0.2754379E+004  0.3282627E+02  0.7546771E-02  0.1568797E+00
         21   -1    0    0  501  502  0.00000000000E+00  0.00000000000E+00  0.73247349455E+01  0.73247349455E+01  0.00000000000E+00 0.  1.
         21   -1    0    0  502  503 -0.00000000000E+00 -0.00000000000E+00 -0.16796991712E+03  0.16796991712E+03  0.00000000000E+00 0. -1.
          2    1    1    2  501    0  0.10558759192E+02 -0.31081775688E+02 -0.49437609670E+02  0.59343419395E+02  0.00000000000E+00 0. -1.
         -2    1    1    2    0  503 -0.10558759192E+02  0.31081775688E+02 -0.11120757251E+03  0.11595123268E+03  0.00000000000E+00 0.  1.
<mgrwt>
<rscale>  2 0.32826273E+02</rscale>
<asrwt>0</asrwt>
<pdfrwt beam="1">  1       21 0.11268823E-02 0.32826273E+02</pdfrwt>
<pdfrwt beam="2">  1       21 0.25841525E-01 0.32826273E+02</pdfrwt>
<totfact> 0.35267488E+07</totfact>
</mgrwt>
</event>
<event>
 4    1  0.2754379E+004  0.2050201E+02  0.7546771E-02  0.1735525E+00
         21   -1    0    0  501  502  0.00000000000E+00  0.00000000000E+00  0.68970217161E+02  0.68970217161E+02  0.00000000000E+00 0.  1.
         21   -1    0    0  502  503 -0.00000000000E+00 -0.00000000000E+00 -0.11279442041E+02  0.11279442041E+02  0.00000000000E+00 0. -1.
          2    1    1    2  501    0  0.11683270695E+02 -0.16847363117E+02  0.56050173373E+02  0.59682111167E+02  0.00000000000E+00 0.  1.
         -2    1    1    2    0  503 -0.11683270695E+02  0.16847363117E+02  0.16406017464E+01  0.20567548036E+02  0.00000000000E+00 0. -1.
<mgrwt>
<rscale>  2 0.20502011E+02</rscale>
<asrwt>0</asrwt>
<pdfrwt beam="1">  1       21 0.10610802E-01 0.20502011E+02</pdfrwt>
<pdfrwt beam="2">  1       21 0.17352988E-02 0.20502011E+02</pdfrwt>
<totfact> 0.76062596E+07</totfact>
</mgrwt>
</event>
<event>
 4    1  0.2754379E+004  0.3224155E+02  0.7546771E-02  0.1574556E+00
         21   -1    0    0  501  502  0.00000000000E+00  0.00000000000E+00  0.56428471810E+02  0.56428471810E+02  0.00000000000E+00 0.  1.
         21   -1    0    0  502  503 -0.00000000000E+00 -0.00000000000E+00 -0.32211704578E+02  0.32211704578E+02  0.00000000000E+00 0. -1.
          2    1    1    2  501    0 -0.19256970244E+02  0.25858977850E+02  0.41106740040E+02  0.52242527840E+02  0.00000000000E+00 0.  1.
         -2    1    1    2    0  503  0.19256970244E+02 -0.25858977850E+02 -0.16889972807E+02  0.36397648548E+02  0.00000000000E+00 0. -1.
<mgrwt>
<rscale>  2 0.32241551E+02</rscale>
<asrwt>0</asrwt>
<pdfrwt beam="1">  1       21 0.86813033E-02 0.32241551E+02</pdfrwt>
<pdfrwt beam="2">  1       21 0.49556469E-02 0.32241551E+02</pdfrwt>
<totfact> 0.22868993E+07</totfact>
</mgrwt>
</event>
<event>
 4    1  0.2754379E+004  0.2157993E+02  0.7546771E-02  0.1715620E+00
         21   -1    0    0  501  502  0.00000000000E+00  0.00000000000E+00  0.14596311701E+03  0.14596311701E+03  0.00000000000E+00 0. -1.
         21   -1    0    0  502  503 -0.00000000000E+00 -0.00000000000E+00 -0.42071286296E+01  0.42071286296E+01  0.00000000000E+00 0.  1.
          2    1    1    2  501    0 -0.19711312327E+02  0.87839388234E+01  0.10778807220E+03  0.10992707548E+03  0.00000000000E+00 0. -1.
         -2    1    1    2    0  503  0.19711312327E+02 -0.87839388234E+01  0.33967916180E+02  0.40243170160E+02  0.00000000000E+00 0.  1.
<mgrwt>
<rscale>  2 0.21579931E+02</rscale>
<asrwt>0</asrwt>
<pdfrwt beam="1">  1       21 0.22455860E-01 0.21579931E+02</pdfrwt>
<pdfrwt beam="2">  1       21 0.64725067E-03 0.21579931E+02</pdfrwt>
<totfact> 0.94573639E+07</totfact>
</mgrwt>
</event>
<event>
 4    1  0.2754379E+004  0.2722118E+02  0.7546771E-02  0.1631006E+00
         21   -1    0    0  501  502  0.00000000000E+00  0.00000000000E+00  0.77362731446E+02  0.77362731446E+02  0.00000000000E+00 0. -1.
         21   -1    0    0  502  503 -0.00000000000E+00 -0.00000000000E+00 -0.10280244399E+03  0.10280244399E+03  0.00000000000E+00 0.  1.
          2    1    1    2  501    0  0.45126899387E+01  0.26844523730E+02  0.73063622767E+02  0.77969774892E+02  0.00000000000E+00 0. -1.
         -2    1    1    2    0  503 -0.45126899387E+01 -0.26844523730E+02 -0.98503335308E+02  0.10219540054E+03  0.00000000000E+00 0.  1.
<mgrwt>
<rscale>  2 0.27221183E+02</rscale>
<asrwt>0</asrwt>
<pdfrwt beam="1">  1       21 0.11901959E-01 0.27221183E+02</pdfrwt>
<pdfrwt beam="2">  1       21 0.15815761E-01 0.27221183E+02</pdfrwt>
<totfact> 0.19141588E+06</totfact>
</mgrwt>
</event>
<event>
 4    1  0.2754379E+004  0.2248367E+02  0.7546771E-02  0.1700019E+00
         21   -1    0    0  501  502  0.00000000000E+00  0.00000000000E+00  0.12967076262E+02  0.12967076262E+02  0.00000000000E+00 0. -1.
         21   -1    0    0  502  503 -0.00000000000E+00 -0.00000000000E+00 -0.10556094712E+03  0.10556094712E+03  0.00000000000E+00 0.  1.
          2    1    1    2  501    0  0.13770889314E+02 -0.17772963075E+02  0.76822655662E+00  0.22496794906E+02  0.00000000000E+00 0. -1.
         -2    1    1    2    0  503 -0.13770889314E+02  0.17772963075E+02 -0.93362097418E+02  0.96031228479E+02  0.00000000000E+00 0.  1.
<mgrwt>
<rscale>  2 0.22483674E+02</rscale>
<asrwt>0</asrwt>
<pdfrwt beam="1">  1       21 0.19949347E-02 0.22483674E+02</pdfrwt>
<pdfrwt beam="2">  1       21 0.16240146E-01 0.22483674E+02</pdfrwt>
<totfact> 0.30789964E+07</totfact>
</mgrwt>
</event>
<event>
 4    1  0.2754379E+004  0.2547807E+02  0.7546771E-02  0.1654229E+00
         21   -1    0    0  503  502  0.00000000000E+00  0.00000000000E+00  0.85704238756E+02  0.85704238756E+02  0.00000000000E+00 0.  1.
         21   -1    0    0  501  503 -0.00000000000E+00 -0.00000000000E+00 -0.76164373390E+01  0.76164373390E+01  0.00000000000E+00 0. -1.
          2    1    1    2  501    0  0.73286075375E+01 -0.24401303043E+02  0.35564876689E+02  0.43749200364E+02  0.00000000000E+00 0.  1.
         -2    1    1    2    0  502 -0.73286075375E+01  0.24401303043E+02  0.42522924728E+02  0.49571475731E+02  0.00000000000E+00 0. -1.
<mgrwt>
<rscale>  2 0.25478071E+02</rscale>
<asrwt>0</asrwt>
<pdfrwt beam="1">  1       21 0.13185267E-01 0.25478071E+02</pdfrwt>
<pdfrwt beam="2">  1       21 0.11717597E-02 0.25478071E+02</pdfrwt>
<totfact> 0.10190149E+08</totfact>
</mgrwt>
</event>
<event>
 4    1  0.2754379E+004  0.2198113E+02  0.7546771E-02  0.1708578E+00
         21   -1    0    0  503  502  0.00000000000E+00  0.00000000000E+00  0.42163385154E+00  0.42163385154E+00  0.00000000000E+00 0.  1.
         21   -1    0    0  501  503 -0.00000000000E+00 -0.00000000000E+00 -0.18459671616E+04  0.18459671616E+04  0.00000000000E+00 0. -1.
          2    1    1    2  501    0  0.18252049918E+02 -0.12248790905E+02 -0.14912804402E+04  0.14914424299E+04  0.00000000000E+00 0. -1.
         -2    1    1    2    0  502 -0.18252049918E+02  0.12248790905E+02 -0.35426508748E+03  0.35494636554E+03  0.00000000000E+00 0.  1.
<mgrwt>
<rscale>  2 0.21981133E+02</rscale>
<asrwt>0</asrwt>
<pdfrwt beam="1">  1       21 0.64867510E-04 0.21981133E+02</pdfrwt>
<pdfrwt beam="2">  1       21 0.28399160E+00 0.21981133E+02</pdfrwt>
<totfact> 0.10705685E+07</totfact>
</mgrwt>
</event>
<event>
 4    1  0.2754379E+004  0.2393822E+02  0.7546771E-02  0.1676738E+00
         21   -1    0    0  503  502  0.00000000000E+00  0.00000000000E+00  0.14009886699E+03  0.14009886699E+03  0.00000000000E+00 0.  1.
         21   -1    0    0  501  503 -0.00000000000E+00 -0.00000000000E+00 -0.46001184057E+01  0.46001184057E+01  0.00000000000E+00 0. -1.
          2    1    1    2  501    0  0.23742242581E+02  0.30568392018E+01  0.43662347070E+02  0.49793964497E+02  0.00000000000E+00 0. -1.
         -2    1    1    2    0  502 -0.23742242581E+02 -0.30568392018E+01  0.91836401514E+02  0.94905020898E+02  0.00000000000E+00 0.  1.
<mgrwt>
<rscale>  2 0.23938219E+02</rscale>
<asrwt>0</asrwt>
<pdfrwt beam="1">  1       21 0.21553669E-01 0.23938219E+02</pdfrwt>
<pdfrwt beam="2">  1       21 0.70771063E-03 0.23938219E+02</pdfrwt>
<totfact> 0.91579322E+07</totfact>
</mgrwt>
</event>
<event>
 4    1  0.2754379E+004  0.2177432E+02  0.7546771E-02  0.1712185E+00
         21   -1    0    0  503  502  0.00000000000E+00  0.00000000000E+00  0.80156803316E+02  0.80156803316E+02  0.00000000000E+00 0.  1.
         21   -1    0    0  501  503 -0.00000000000E+00 -0.00000000000E+00 -0.62645509425E+01  0.62645509425E+01  0.00000000000E+00 0. -1.
          2    1    1    2  501    0 -0.19605672187E+02 -0.94730417802E+01  0.26737850315E+02  0.34482365667E+02  0.00000000000E+00 0. -1.
         -2    1    1    2    0  502  0.19605672187E+02  0.94730417802E+01  0.47154402058E+02  0.51938988592E+02  0.00000000000E+00 0.  1.
<mgrwt>
<rscale>  2 0.21774317E+02</rscale>
<asrwt>0</asrwt>
<pdfrwt beam="1">  1       21 0.12331815E-01 0.21774317E+02</pdfrwt>
<pdfrwt beam="2">  1       21 0.96377713E-03 0.21774317E+02</pdfrwt>
<totfact> 0.14639536E+08</totfact>
</mgrwt>
</event>
<event>
 4    1  0.2754379E+004  0.3967841E+02  0.7546771E-02  0.1510591E+00
         21   -1    0    0  501  502  0.00000000000E+00  0.00000000000E+00  0.12895873706E+03  0.12895873706E+03  0.00000000000E+00 0. -1.
         21   -1    0    0  502  503 -0.00000000000E+00 -0.00000000000E+00 -0.17288838728E+02  0.17288838728E+02  0.00000000000E+00 0.  1.
          2    1    1    2  501    0  0.39241409606E+02 -0.58726655475E+01  0.95474389140E+02  0.10339117665E+03  0.00000000000E+00 0. -1.
         -2    1    1    2    0  503 -0.39241409606E+02  0.58726655475E+01  0.16195509189E+02  0.42856399130E+02  0.00000000000E+00 0.  1.
<mgrwt>
<rscale>  2 0.39678413E+02</rscale>
<asrwt>0</asrwt>
<pdfrwt beam="1">  1       21 0.19839805E-01 0.39678413E+02</pdfrwt>
<pdfrwt beam="2">  1       21 0.26598214E-02 0.39678413E+02</pdfrwt>
<totfact> 0.15456672E+07</totfact>
</mgrwt>
</event>
<event>
 4    1  0.2754379E+004  0.2687304E+02  0.7546771E-02  0.1635470E+00
         21   -1    0    0  503  502  0.00000000000E+00  0.00000000000E+00  0.19584110392E+01  0.19584110392E+01  0.00000000000E+00 0. -1.
         21   -1    0    0  501  503 -0.00000000000E+00 -0.00000000000E+00 -0.10077524697E+04  0.10077524697E+04  0.00000000000E+00 0.  1.
          2    1    1    2  501    0 -0.23802905210E+02 -0.12473256066E+02 -0.90491179806E+03  0.90531073266E+03  0.00000000000E+00 0.  1.
         -2    1    1    2    0  502  0.23802905210E+02  0.12473256066E+02 -0.10088226056E+03  0.10440014803E+03  0.00000000000E+00 0. -1.
<mgrwt>
<rscale>  2 0.26873043E+02</rscale>
<asrwt>0</asrwt>
<pdfrwt beam="1">  1       21 0.30129290E-03 0.26873043E+02</pdfrwt>
<pdfrwt beam="2">  1       21 0.15503941E+00 0.26873043E+02</pdfrwt>
<totfact> 0.60793981E+06</totfact>
</mgrwt>
</event>
<event>
 4    1  0.2754379E+004  0.2159475E+02  0.7546771E-02  0.1715356E+00
         21   -1    0    0  501  502  0.00000000000E+00  0.00000000000E+00  0.20639361296E+01  0.20639361296E+01  0.00000000000E+00 0.  1.
         21   -1    0    0  502  503 -0.00000000000E+00 -0.00000000000E+00 -0.95684781265E+03  0.95684781265E+03  0.00000000000E+00 0. -1.
          2    1    1    2  501    0 -0.20186114417E+02  0.76716297958E+01 -0.58350040277E+02  0.62217845666E+02  0.00000000000E+00 0.  1.
         -2    1    1    2    0  503  0.20186114417E+02 -0.76716297958E+01 -0.89643383624E+03  0.89669390311E+03  0.00000000000E+00 0. -1.
<mgrwt>
<rscale>  2 0.21594747E+02</rscale>
<asrwt>0</asrwt>
<pdfrwt beam="1">  1       21 0.31752805E-03 0.21594747E+02</pdfrwt>
<pdfrwt beam="2">  1       21 0.14720763E+00 0.21594747E+02</pdfrwt>
<totfact> 0.61985892E+06</totfact>
</mgrwt>
</event>
<event>
 4    1  0.2754379E+004  0.2453758E+02  0.7546771E-02  0.1667734E+00
         21   -1    0    0  503  502  0.00000000000E+00  0.00000000000E+00  0.12487343888E+03  0.12487343888E+03  0.00000000000E+00 0.  1.
         21   -1    0    0  501  503 -0.00000000000E+00 -0.00000000000E+00 -0.62850649131E+01  0.62850649131E+01  0.00000000000E+00 0. -1.
          2    1    1    2  501    0  0.19450863253E+02 -0.14958507090E+02  0.27649640315E+02  0.36967494170E+02  0.00000000000E+00 0. -1.
         -2    1    1    2    0  502 -0.19450863253E+02  0.14958507090E+02  0.90938733652E+02  0.94191009623E+02  0.00000000000E+00 0.  1.
<mgrwt>
<rscale>  2 0.24537584E+02</rscale>
<asrwt>0</asrwt>
<pdfrwt beam="1">  1       21 0.19211296E-01 0.24537584E+02</pdfrwt>
<pdfrwt beam="2">  1       21 0.96693316E-03 0.24537584E+02</pdfrwt>
<totfact> 0.70673818E+07</totfact>
</mgrwt>
</event>
<event>
 4    1  0.2754379E+004  0.2143626E+02  0.7546771E-02  0.1718188E+00
         21   -1    0    0  501  502  0.00000000000E+00  0.00000000000E+00  0.34798626774E+02  0.34798626774E+02  0.00000000000E+00 0. -1.
         21   -1    0    0  502  503 -0.00000000000E+00 -0.00000000000E+00 -0.13305473905E+02  0.13305473905E+02  0.00000000000E+00 0.  1.
          2    1    1    2  501    0 -0.21348572738E+02 -0.19369210016E+01  0.12837450237E+02  0.24986263216E+02  0.00000000000E+00 0. -1.
         -2    1    1    2    0  503  0.21348572738E+02  0.19369210016E+01  0.86557026324E+01  0.23117837463E+02  0.00000000000E+00 0.  1.
<mgrwt>
<rscale>  2 0.21436259E+02</rscale>
<asrwt>0</asrwt>
<pdfrwt beam="1">  1       21 0.53536349E-02 0.21436259E+02</pdfrwt>
<pdfrwt beam="2">  1       21 0.20469960E-02 0.21436259E+02</pdfrwt>
<totfact> 0.18155313E+08</totfact>
</mgrwt>
</event>
<event>
 4    1  0.2754379E+004  0.2268187E+02  0.7546771E-02  0.1696719E+00
         21   -1    0    0  503  502  0.00000000000E+00  0.00000000000E+00  0.43323343853E+01  0.43323343853E+01  0.00000000000E+00 0.  1.
         21   -1    0    0  501  503 -0.00000000000E+00 -0.00000000000E+00 -0.11905887396E+03  0.11905887396E+03  0.00000000000E+00 0. -1.
          2    1    1    2  501    0  0.19859388911E+01  0.22594766142E+02 -0.60502513741E+02  0.64614406902E+02  0.00000000000E+00 0.  1.
         -2    1    1    2    0  502 -0.19859388911E+01 -0.22594766142E+02 -0.54224025830E+02  0.58776801440E+02  0.00000000000E+00 0. -1.
<mgrwt>
<rscale>  2 0.22681874E+02</rscale>
<asrwt>0</asrwt>
<pdfrwt beam="1">  1       21 0.66651301E-03 0.22681874E+02</pdfrwt>
<pdfrwt beam="2">  1       21 0.18316749E-01 0.22681874E+02</pdfrwt>
<totfact> 0.13101904E+08</totfact>
</mgrwt>
</event>
<event>
 4    1  0.2754379E+004  0.2314446E+02  0.7546771E-02  0.1689179E+00
         21   -1    0    0  503  502  0.00000000000E+00  0.00000000000E+00  0.24991270123E+03  0.24991270123E+03  0.00000000000E+00 0.  1.
         21   -1    0    0  501  503 -0.00000000000E+00 -0.00000000000E+00 -0.84456523948E+01  0.84456523948E+01  0.00000000000E+00 0. -1.
          2    1    1    2  501    0  0.20955987253E+02 -0.98240932671E+01  0.91440200459E+01  0.24885323242E+02  0.00000000000E+00 0. -1.
         -2    1    1    2    0  502 -0.20955987253E+02  0.98240932671E+01  0.23232302879E+03  0.23347303039E+03  0.00000000000E+00 0.  1.
<mgrwt>
<rscale>  2 0.23144464E+02</rscale>
<asrwt>0</asrwt>
<pdfrwt beam="1">  1       21 0.38448102E-01 0.23144464E+02</pdfrwt>
<pdfrwt beam="2">  1       21 0.12993313E-02 0.23144464E+02</pdfrwt>
<totfact> 0.12772326E+07</totfact>
</mgrwt>
</event>
<event>
 4    1  0.2754379E+004  0.2198357E+02  0.7546771E-02  0.1708536E+00
         21   -1    0    0  501  502  0.00000000000E+00  0.00000000000E+00  0.14828424593E+02  0.14828424593E+02  0.00000000000E+00 0. -1.
         21   -1    0    0  502  503 -0.00000000000E+00 -0.00000000000E+00 -0.16620467087E+03  0.16620467087E+03  0.00000000000E+00 0.  1.
          2    1    1    2  501    0  0.17351953592E+02  0.13497666713E+02  0.54698825431E+01  0.22653849898E+02  0.00000000000E+00 0. -1.
         -2    1    1    2    0  503 -0.17351953592E+02 -0.13497666713E+02 -0.15684612882E+03  0.15837924557E+03  0.00000000000E+00 0.  1.
<mgrwt>
<rscale>  2 0.21983569E+02</rscale>
<asrwt>0</asrwt>
<pdfrwt beam="1">  1       21 0.22812961E-02 0.21983569E+02</pdfrwt>
<pdfrwt beam="2">  1       21 0.25569950E-01 0.21983569E+02</pdfrwt>
<totfact> 0.11287833E+07</totfact>
</mgrwt>
</event>
<event>
 4    1  0.2754379E+004  0.2733346E+02  0.7546771E-02  0.1629584E+00
         21   -1    0    0  501  502  0.00000000000E+00  0.00000000000E+00  0.66099590404E+03  0.66099590404E+03  0.00000000000E+00 0.  1.
         21   -1    0    0  502  503 -0.00000000000E+00 -0.00000000000E+00 -0.15055679789E+01  0.15055679789E+01  0.00000000000E+00 0. -1.
          2    1    1    2  501    0  0.84381946314E+01 -0.25998360647E+02  0.49512497696E+03  0.49587887704E+03  0.00000000000E+00 0. -1.
         -2    1    1    2    0  503 -0.84381946314E+01  0.25998360647E+02  0.16436535910E+03  0.16662259497E+03  0.00000000000E+00 0.  1.
<mgrwt>
<rscale>  2 0.27333457E+02</rscale>
<asrwt>0</asrwt>
<pdfrwt beam="1">  1       21 0.10169145E+00 0.27333457E+02</pdfrwt>
<pdfrwt beam="2">  1       21 0.23162637E-03 0.27333457E+02</pdfrwt>
<totfact> 0.23671991E+07</totfact>
</mgrwt>
</event>
<event>
 4    1  0.2754379E+004  0.2236226E+02  0.7546771E-02  0.1702061E+00
         21   -1    0    0  503  502  0.00000000000E+00  0.00000000000E+00  0.62559908901E+02  0.62559908901E+02  0.00000000000E+00 0.  1.
         21   -1    0    0  501  503 -0.00000000000E+00 -0.00000000000E+00 -0.15646077693E+02  0.15646077693E+02  0.00000000000E+00 0. -1.
          2    1    1    2  501    0 -0.19962824905E+02  0.10077514454E+02 -0.38902312769E+01  0.22698118317E+02  0.00000000000E+00 0. -1.
         -2    1    1    2    0  502  0.19962824905E+02 -0.10077514454E+02  0.50804062484E+02  0.55507868277E+02  0.00000000000E+00 0.  1.
<mgrwt>
<rscale>  2 0.22362260E+02</rscale>
<asrwt>0</asrwt>
<pdfrwt beam="1">  1       21 0.96246013E-02 0.22362260E+02</pdfrwt>
<pdfrwt beam="2">  1       21 0.24070889E-02 0.22362260E+02</pdfrwt>
<totfact> 0.55427937E+07</totfact>
</mgrwt>
</event>
<event>
 4    1  0.2754379E+004  0.2182267E+02  0.7546771E-02  0.1711337E+00
         21   -1    0    0  501  502  0.00000000000E+00  0.00000000000E+00  0.34177978087E+01  0.34177978087E+01  0.00000000000E+00 0. -1.
         21   -1    0    0  502  503 -0.00000000000E+00 -0.00000000000E+00 -0.17896779857E+03  0.17896779857E+03  0.00000000000E+00 0.  1.
          2    1    1    2  501    0  0.20668110654E+02  0.70041477883E+01 -0.44862443702E+02  0.49888553187E+02  0.00000000000E+00 0. -1.
         -2    1    1    2    0  503 -0.20668110654E+02 -0.70041477883E+01 -0.13068755706E+03  0.13249704319E+03  0.00000000000E+00 0.  1.
<mgrwt>
<rscale>  2 0.21822669E+02</rscale>
<asrwt>0</asrwt>
<pdfrwt beam="1">  1       21 0.52581490E-03 0.21822669E+02</pdfrwt>
<pdfrwt beam="2">  1       21 0.27533515E-01 0.21822669E+02</pdfrwt>
<totfact> 0.89756458E+07</totfact>
</mgrwt>
</event>
<event>
 4    1  0.2754379E+004  0.2185101E+02  0.7546771E-02  0.1710842E+00
         21   -1    0    0  503  502  0.00000000000E+00  0.00000000000E+00  0.50482286619E+02  0.50482286619E+02  0.00000000000E+00 0.  1.
         21   -1    0    0  501  503 -0.00000000000E+00 -0.00000000000E+00 -0.96369143183E+01  0.96369143183E+01  0.00000000000E+00 0. -1.
          2    1    1    2  501    0 -0.16219401578E+02  0.14642323179E+02  0.24517299826E+02  0.32841507370E+02  0.00000000000E+00 0. -1.
         -2    1    1    2    0  502  0.16219401578E+02 -0.14642323179E+02  0.16328072475E+02  0.27277693567E+02  0.00000000000E+00 0.  1.
<mgrwt>
<rscale>  2 0.21851009E+02</rscale>
<asrwt>0</asrwt>
<pdfrwt beam="1">  1       21 0.77665055E-02 0.21851009E+02</pdfrwt>
<pdfrwt beam="2">  1       21 0.14826022E-02 0.21851009E+02</pdfrwt>
<totfact> 0.16412813E+08</totfact>
</mgrwt>
</event>
<event>
 4    1  0.2754379E+004  0.2012253E+02  0.7546771E-02  0.1742902E+00
         21   -1    0    0  503  502  0.00000000000E+00  0.00000000000E+00  0.30240177589E+02  0.30240177589E+02  0.00000000000E+00 0.  1.
         21   -1    0    0  501  503 -0.00000000000E+00 -0.00000000000E+00 -0.42479917701E+02  0.42479917701E+02  0.00000000000E+00 0. -1.
          2    1    1    2  501    0 -0.19316537783E+02  0.56380572326E+01 -0.36208594140E+02  0.41424372185E+02  0.00000000000E+00 0. -1.
         -2    1    1    2    0  502  0.19316537783E+02 -0.56380572326E+01  0.23968854028E+02  0.31295723106E+02  0.00000000000E+00 0.  1.
<mgrwt>
<rscale>  2 0.20122533E+02</rscale>
<asrwt>0</asrwt>
<pdfrwt beam="1">  1       21 0.46523350E-02 0.20122533E+02</pdfrwt>
<pdfrwt beam="2">  1       21 0.65353719E-02 0.20122533E+02</pdfrwt>
<totfact> 0.36206040E+07</totfact>
</mgrwt>
</event>
<event>
 4    1  0.2754379E+004  0.3024349E+02  0.7546771E-02  0.1595413E+00
         21   -1    0    0  503  502  0.00000000000E+00  0.00000000000E+00  0.19386061228E+04  0.19386061228E+04  0.00000000000E+00 0.  1.
         21   -1    0    0  501  503 -0.00000000000E+00 -0.00000000000E+00 -0.77196433494E+00  0.77196433494E+00  0.00000000000E+00 0. -1.
          2    1    1    2  501    0 -0.30201919777E+02  0.15851156867E+01  0.36427181024E+03  0.36552512948E+03  0.00000000000E+00 0. -1.
         -2    1    1    2    0  502  0.30201919777E+02 -0.15851156867E+01  0.15735623482E+04  0.15738529576E+04  0.00000000000E+00 0.  1.
<mgrwt>
<rscale>  2 0.30243488E+02</rscale>
<asrwt>0</asrwt>
<pdfrwt beam="1">  1       21 0.29824320E+00 0.30243488E+02</pdfrwt>
<pdfrwt beam="2">  1       21 0.11876530E-03 0.30243488E+02</pdfrwt>
<totfact> 0.38703068E+06</totfact>
</mgrwt>
</event>
<event>
 4    1  0.2754379E+004  0.3099950E+02  0.7546771E-02  0.1587296E+00
         21   -1    0    0  501  502  0.00000000000E+00  0.00000000000E+00  0.78072884160E+01  0.78072884160E+01  0.00000000000E+00 0.  1.
         21   -1    0    0  502  503 -0.00000000000E+00 -0.00000000000E+00 -0.20271332560E+03  0.20271332560E+03  0.00000000000E+00 0. -1.
          2    1    1    2  501    0 -0.30590593733E+02  0.50184161821E+01 -0.31481848004E+02  0.44182300525E+02  0.00000000000E+00 0.  1.
         -2    1    1    2    0  503  0.30590593733E+02 -0.50184161821E+01 -0.16342418918E+03  0.16633831349E+03  0.00000000000E+00 0. -1.
<mgrwt>
<rscale>  2 0.30999499E+02</rscale>
<asrwt>0</asrwt>
<pdfrwt beam="1">  1       21 0.12011215E-02 0.30999499E+02</pdfrwt>
<pdfrwt beam="2">  1       21 0.31186661E-01 0.30999499E+02</pdfrwt>
<totfact> 0.22434187E+07</totfact>
</mgrwt>
</event>
<event>
 4    1  0.2754379E+004  0.2032293E+02  0.7546771E-02  0.1738981E+00
         21   -1    0    0  501  502  0.00000000000E+00  0.00000000000E+00  0.60088433184E+01  0.60088433184E+01  0.00000000000E+00 0.  1.
         21   -1    0    0  502  503 -0.00000000000E+00 -0.00000000000E+00 -0.69865540388E+02  0.69865540388E+02  0.00000000000E+00 0. -1.
          2    1    1    2  501    0 -0.19281680772E+02  0.64217167635E+01 -0.27103821344E+02  0.33876817900E+02  0.00000000000E+00 0.  1.
         -2    1    1    2    0  503  0.19281680772E+02 -0.64217167635E+01 -0.36752875726E+02  0.41997565807E+02  0.00000000000E+00 0. -1.
<mgrwt>
<rscale>  2 0.20322934E+02</rscale>
<asrwt>0</asrwt>
<pdfrwt beam="1">  1       21 0.92443746E-03 0.20322934E+02</pdfrwt>
<pdfrwt beam="2">  1       21 0.10748544E-01 0.20322934E+02</pdfrwt>
<totfact> 0.19169419E+08</totfact>
</mgrwt>
</event>
<event>
 4    1  0.2754379E+004  0.3426055E+02  0.7546771E-02  0.1555267E+00
         21   -1    0    0  503  502  0.00000000000E+00  0.00000000000E+00  0.43823221680E+01  0.43823221680E+01  0.00000000000E+00 0.  1.
         21   -1    0    0  501  503 -0.00000000000E+00 -0.00000000000E+00 -0.50615153575E+03  0.50615153575E+03  0.00000000000E+00 0. -1.
          2    1    1    2  501    0 -0.29499349382E+02 -0.17423359921E+02 -0.42603932240E+03  0.42741465735E+03  0.00000000000E+00 0. -1.
         -2    1    1    2    0  502  0.29499349382E+02  0.17423359921E+02 -0.75729891180E+02  0.83119200567E+02  0.00000000000E+00 0.  1.
<mgrwt>
<rscale>  2 0.34260547E+02</rscale>
<asrwt>0</asrwt>
<pdfrwt beam="1">  1       21 0.67420331E-03 0.34260547E+02</pdfrwt>
<pdfrwt beam="2">  1       21 0.77869479E-01 0.34260547E+02</pdfrwt>
<totfact> 0.89766821E+06</totfact>
</mgrwt>
</event>
<event>
 4    1  0.2754379E+004  0.2060210E+02  0.7546771E-02  0.1733613E+00
         21   -1    0    0  503  502  0.00000000000E+00  0.00000000000E+00  0.65633937702E+03  0.65633937702E+03  0.00000000000E+00 0.  1.
         21   -1    0    0  501  503 -0.00000000000E+00 -0.00000000000E+00 -0.70851453605E+00  0.70851453605E+00  0.00000000000E+00 0. -1.
          2    1    1    2  501    0  0.18196856969E+02 -0.96602860109E+01  0.23076879687E+03  0.23168660802E+03  0.00000000000E+00 0. -1.
         -2    1    1    2    0  502 -0.18196856969E+02  0.96602860109E+01  0.42486206561E+03  0.42536128353E+03  0.00000000000E+00 0.  1.
<mgrwt>
<rscale>  2 0.20602105E+02</rscale>
<asrwt>0</asrwt>
<pdfrwt beam="1">  1       21 0.10097480E+00 0.20602105E+02</pdfrwt>
<pdfrwt beam="2">  1       21 0.10900276E-03 0.20602105E+02</pdfrwt>
<totfact> 0.67065347E+07</totfact>
</mgrwt>
</event>
<event>
 4    1  0.2754379E+004  0.3405962E+02  0.7546771E-02  0.1557114E+00
         21   -1    0    0  501  502  0.00000000000E+00  0.00000000000E+00  0.80107904330E+02  0.80107904330E+02  0.00000000000E+00 0.  1.
         21   -1    0    0  502  503 -0.00000000000E+00 -0.00000000000E+00 -0.34208659599E+02  0.34208659599E+02  0.00000000000E+00 0. -1.
          2    1    1    2  501    0 -0.25369675772E+02  0.22725251213E+02  0.66355332836E+02  0.74586109211E+02  0.00000000000E+00 0.  1.
         -2    1    1    2    0  503  0.25369675772E+02 -0.22725251213E+02 -0.20456088105E+02  0.39730454717E+02  0.00000000000E+00 0. -1.
<mgrwt>
<rscale>  2 0.34059617E+02</rscale>
<asrwt>0</asrwt>
<pdfrwt beam="1">  1       21 0.12324293E-01 0.34059617E+02</pdfrwt>
<pdfrwt beam="2">  1       21 0.52628707E-02 0.34059617E+02</pdfrwt>
<totfact> 0.11619663E+07</totfact>
</mgrwt>
</event>
<event>
 4    1  0.2754379E+004  0.2436439E+02  0.7546771E-02  0.1670303E+00
         21   -1    0    0  501  502  0.00000000000E+00  0.00000000000E+00  0.51954394250E+03  0.51954394250E+03  0.00000000000E+00 0.  1.
         21   -1    0    0  502  503 -0.00000000000E+00 -0.00000000000E+00 -0.11919625831E+01  0.11919625831E+01  0.00000000000E+00 0. -1.
          2    1    1    2  501    0 -0.12247242432E+02 -0.21062496415E+02  0.31216870407E+03  0.31311806639E+03  0.00000000000E+00 0.  1.
         -2    1    1    2    0  503  0.12247242432E+02  0.21062496415E+02  0.20618327585E+03  0.20761783869E+03  0.00000000000E+00 0. -1.
<mgrwt>
<rscale>  2 0.24364394E+02</rscale>
<asrwt>0</asrwt>
<pdfrwt beam="1">  1       21 0.79929657E-01 0.24364394E+02</pdfrwt>
<pdfrwt beam="2">  1       21 0.18337927E-03 0.24364394E+02</pdfrwt>
<totfact> 0.54572365E+07</totfact>
</mgrwt>
</event>
<event>
 4    1  0.2754379E+004  0.2775662E+02  0.7546771E-02  0.1624298E+00
         21   -1    0    0  503  502  0.00000000000E+00  0.00000000000E+00  0.30276999111E+02  0.30276999111E+02  0.00000000000E+00 0.  1.
         21   -1    0    0  501  503 -0.00000000000E+00 -0.00000000000E+00 -0.40352619776E+02  0.40352619776E+02  0.00000000000E+00 0. -1.
          2    1    1    2  501    0  0.21970139405E+02 -0.16962988024E+02 -0.26501771792E+02  0.38376736395E+02  0.00000000000E+00 0. -1.
         -2    1    1    2    0  502 -0.21970139405E+02  0.16962988024E+02  0.16426151127E+02  0.32252882492E+02  0.00000000000E+00 0.  1.
<mgrwt>
<rscale>  2 0.27756621E+02</rscale>
<asrwt>0</asrwt>
<pdfrwt beam="1">  1       21 0.46579999E-02 0.27756621E+02</pdfrwt>
<pdfrwt beam="2">  1       21 0.62080953E-02 0.27756621E+02</pdfrwt>
<totfact> 0.42459669E+07</totfact>
</mgrwt>
</event>
<event>
 4    1  0.2754379E+004  0.2186537E+02  0.7546771E-02  0.1710591E+00
         21   -1    0    0  501  502  0.00000000000E+00  0.00000000000E+00  0.54109274698E+02  0.54109274698E+02  0.00000000000E+00 0.  1.
         21   -1    0    0  502  503 -0.00000000000E+00 -0.00000000000E+00 -0.16972447732E+02  0.16972447732E+02  0.00000000000E+00 0. -1.
          2    1    1    2  501    0 -0.21452458549E+02  0.42292453540E+01  0.43176653457E+02  0.48397498879E+02  0.00000000000E+00 0.  1.
         -2    1    1    2    0  503  0.21452458549E+02 -0.42292453540E+01 -0.60398264906E+01  0.22684223551E+02  0.00000000000E+00 0. -1.
<mgrwt>
<rscale>  2 0.21865372E+02</rscale>
<asrwt>0</asrwt>
<pdfrwt beam="1">  1       21 0.83245037E-02 0.21865372E+02</pdfrwt>
<pdfrwt beam="2">  1       21 0.26111458E-02 0.21865372E+02</pdfrwt>
<totfact> 0.61645527E+07</totfact>
</mgrwt>
</event>
<event>
 4    1  0.2754379E+004  0.2495450E+02  0.7546771E-02  0.1661656E+00
         21   -1    0    0  501  502  0.00000000000E+00  0.00000000000E+00  0.12045365391E+01  0.12045365391E+01  0.00000000000E+00 0. -1.
         21   -1    0    0  502  503 -0.00000000000E+00 -0.00000000000E+00 -0.58532676905E+03  0.58532676905E+03  0.00000000000E+00 0.  1.
          2    1    1    2  501    0  0.13459946883E+02 -0.21013257623E+02 -0.19185239280E+03  0.19346851886E+03  0.00000000000E+00 0.  1.
         -2    1    1    2    0  503 -0.13459946883E+02  0.21013257623E+02 -0.39226983970E+03  0.39306278672E+03  0.00000000000E+00 0. -1.
<mgrwt>
<rscale>  2 0.24954502E+02</rscale>
<asrwt>0</asrwt>
<pdfrwt beam="1">  1       21 0.18531339E-03 0.24954502E+02</pdfrwt>
<pdfrwt beam="2">  1       21 0.90050236E-01 0.24954502E+02</pdfrwt>
<totfact> 0.41927870E+07</totfact>
</mgrwt>
</event>
<event>
 4    1  0.2754379E+004  0.2571927E+02  0.7546771E-02  0.1650881E+00
         21   -1    0    0  501  502  0.00000000000E+00  0.00000000000E+00  0.10126320039E+03  0.10126320039E+03  0.00000000000E+00 0.  1.
         21   -1    0    0  502  503 -0.00000000000E+00 -0.00000000000E+00 -0.10320041714E+02  0.10320041714E+02  0.00000000000E+00 0. -1.
          2    1    1    2  501    0 -0.92269215070E+01 -0.24007184873E+02  0.79271740479E+02  0.83339605498E+02  0.00000000000E+00 0.  1.
         -2    1    1    2    0  503  0.92269215070E+01  0.24007184873E+02  0.11671418198E+02  0.28243636607E+02  0.00000000000E+00 0. -1.
<mgrwt>
<rscale>  2 0.25719273E+02</rscale>
<asrwt>0</asrwt>
<pdfrwt beam="1">  1       21 0.15578953E-01 0.25719273E+02</pdfrwt>
<pdfrwt beam="2">  1       21 0.15876988E-02 0.25719273E+02</pdfrwt>
<totfact> 0.48415806E+07</totfact>
</mgrwt>
</event>
<event>
 4    1  0.2754379E+004  0.4033410E+02  0.7546771E-02  0.1505767E+00
         21   -1    0    0  501  502  0.00000000000E+00  0.00000000000E+00  0.13674950164E+03  0.13674950164E+03  0.00000000000E+00 0.  1.
         21   -1    0    0  502  503 -0.00000000000E+00 -0.00000000000E+00 -0.21367619447E+02  0.21367619447E+02  0.00000000000E+00 0. -1.
          2    1    1    2  501    0  0.39586809735E+02  0.77281368673E+01  0.11032557791E+03  0.11746732629E+03  0.00000000000E+00 0.  1.
         -2    1    1    2    0  503 -0.39586809735E+02 -0.77281368673E+01  0.50563042868E+01  0.40649794802E+02  0.00000000000E+00 0. -1.
<mgrwt>
<rscale>  2 0.40334100E+02</rscale>
<asrwt>0</asrwt>
<pdfrwt beam="1">  1       21 0.21038384E-01 0.40334100E+02</pdfrwt>
<pdfrwt beam="2">  1       21 0.32873262E-02 0.40334100E+02</pdfrwt>
<totfact> 0.99683204E+06</totfact>
</mgrwt>
</event>
<event>
 4    1  0.2754379E+004  0.2751039E+02  0.7546771E-02  0.1627359E+00
         21   -1    0    0  501  502  0.00000000000E+00  0.00000000000E+00  0.82943527557E+03  0.82943527557E+03  0.00000000000E+00 0. -1.
         21   -1    0    0  502  503 -0.00000000000E+00 -0.00000000000E+00 -0.51544536408E+01  0.51544536408E+01  0.00000000000E+00 0.  1.
          2    1    1    2  501    0 -0.26541532972E+02 -0.72366052547E+01  0.79070243195E+03  0.79118086259E+03  0.00000000000E+00 0. -1.
         -2    1    1    2    0  503  0.26541532972E+02  0.72366052547E+01  0.33578389977E+02  0.43408866624E+02  0.00000000000E+00 0.  1.
<mgrwt>
<rscale>  2 0.27510388E+02</rscale>
<asrwt>0</asrwt>
<pdfrwt beam="1">  1       21 0.12760532E+00 0.27510388E+02</pdfrwt>
<pdfrwt beam="2">  1       21 0.79299353E-03 0.27510388E+02</pdfrwt>
<totfact> 0.22984741E+06</totfact>
</mgrwt>
</event>
<event>
 4    1  0.2754379E+004  0.2635539E+02  0.7546771E-02  0.1642264E+00
         21   -1    0    0  503  502  0.00000000000E+00  0.00000000000E+00  0.11011365225E+02  0.11011365225E+02  0.00000000000E+00 0.  1.
         21   -1    0    0  501  503 -0.00000000000E+00 -0.00000000000E+00 -0.84303294833E+02  0.84303294833E+02  0.00000000000E+00 0. -1.
          2    1    1    2  501    0 -0.17915232322E+02 -0.19330049465E+02 -0.60557367992E+02  0.66043933708E+02  0.00000000000E+00 0. -1.
         -2    1    1    2    0  502  0.17915232322E+02  0.19330049465E+02 -0.12734561617E+02  0.29270726350E+02  0.00000000000E+00 0.  1.
<mgrwt>
<rscale>  2 0.26355386E+02</rscale>
<asrwt>0</asrwt>
<pdfrwt beam="1">  1       21 0.16940562E-02 0.26355386E+02</pdfrwt>
<pdfrwt beam="2">  1       21 0.12969738E-01 0.26355386E+02</pdfrwt>
<totfact> 0.60265129E+07</totfact>
</mgrwt>
</event>
<event>
 4    1  0.2754379E+004  0.2348597E+02  0.7546771E-02  0.1683752E+00
         21   -1    0    0  503  502  0.00000000000E+00  0.00000000000E+00  0.50025229656E+02  0.50025229656E+02  0.00000000000E+00 0. -1.
         21   -1    0    0  501  503 -0.00000000000E+00 -0.00000000000E+00 -0.12634391239E+02  0.12634391239E+02  0.00000000000E+00 0.  1.
          2    1    1    2  501    0 -0.88009769181E+01 -0.21774604321E+02  0.75179631172E+01  0.24659893703E+02  0.00000000000E+00 0.  1.
         -2    1    1    2    0  502  0.88009769181E+01  0.21774604321E+02  0.29872875299E+02  0.37999727192E+02  0.00000000000E+00 0. -1.
<mgrwt>
<rscale>  2 0.23485966E+02</rscale>
<asrwt>0</asrwt>
<pdfrwt beam="1">  1       21 0.76961891E-02 0.23485966E+02</pdfrwt>
<pdfrwt beam="2">  1       21 0.19437525E-02 0.23485966E+02</pdfrwt>
<totfact> 0.11261516E+08</totfact>
</mgrwt>
</event>
<event>
 4    1  0.2754379E+004  0.2158723E+02  0.7546771E-02  0.1715490E+00
         21   -1    0    0  503  502  0.00000000000E+00  0.00000000000E+00  0.61795542097E+02  0.61795542097E+02  0.00000000000E+00 0. -1.
         21   -1    0    0  501  503 -0.00000000000E+00 -0.00000000000E+00 -0.82409728732E+01  0.82409728732E+01  0.00000000000E+00 0.  1.
          2    1    1    2  501    0 -0.12554284304E+02 -0.17561273726E+02  0.16572480010E+02  0.27214986367E+02  0.00000000000E+00 0. -1.
         -2    1    1    2    0  502  0.12554284304E+02  0.17561273726E+02  0.36982089214E+02  0.42821528603E+02  0.00000000000E+00 0.  1.
<mgrwt>
<rscale>  2 0.21587227E+02</rscale>
<asrwt>0</asrwt>
<pdfrwt beam="1">  1       21 0.95070062E-02 0.21587227E+02</pdfrwt>
<pdfrwt beam="2">  1       21 0.12678420E-02 0.21587227E+02</pdfrwt>
<totfact> 0.14887084E+08</totfact>
</mgrwt>
</event>
<event>
 4    1  0.2754379E+004  0.2552629E+02  0.7546771E-02  0.1653556E+00
         21   -1    0    0  501  502  0.00000000000E+00  0.00000000000E+00  0.42497511130E+03  0.42497511130E+03  0.00000000000E+00 0. -1.
         21   -1    0    0  502  503 -0.00000000000E+00 -0.00000000000E+00 -0.30109629497E+01  0.30109629497E+01  0.00000000000E+00 0.  1.
          2    1    1    2  501    0 -0.17468745094E+02  0.18612743214E+02  0.36089621745E+03  0.36179783172E+03  0.00000000000E+00 0. -1.
         -2    1    1    2    0  503  0.17468745094E+02 -0.18612743214E+02  0.61067930893E+02  0.66188242525E+02  0.00000000000E+00 0.  1.
<mgrwt>
<rscale>  2 0.25526286E+02</rscale>
<asrwt>0</asrwt>
<pdfrwt beam="1">  1       21 0.65380739E-01 0.25526286E+02</pdfrwt>
<pdfrwt beam="2">  1       21 0.46322541E-03 0.25526286E+02</pdfrwt>
<totfact> 0.21575974E+07</totfact>
</mgrwt>
</event>
<event>
 4    1  0.2754379E+004  0.2077890E+02  0.7546771E-02  0.1730268E+00
         21   -1    0    0  501  502  0.00000000000E+00  0.00000000000E+00  0.17490046423E+02  0.17490046423E+02  0.00000000000E+00 0.  1.
         21   -1    0    0  502  503 -0.00000000000E+00 -0.00000000000E+00 -0.53961294111E+02  0.53961294111E+02  0.00000000000E+00 0. -1.
          2    1    1    2  501    0 -0.16740950669E+02  0.12308662160E+02  0.80784711452E+01  0.22294041569E+02  0.00000000000E+00 0.  1.
         -2    1    1    2    0  503  0.16740950669E+02 -0.12308662160E+02 -0.44549718833E+02  0.49157298965E+02  0.00000000000E+00 0. -1.
<mgrwt>
<rscale>  2 0.20778898E+02</rscale>
<asrwt>0</asrwt>
<pdfrwt beam="1">  1       21 0.26907764E-02 0.20778898E+02</pdfrwt>
<pdfrwt beam="2">  1       21 0.83017374E-02 0.20778898E+02</pdfrwt>
<totfact> 0.58301974E+07</totfact>
</mgrwt>
</event>
<event>
 4    1  0.2754379E+004  0.2550536E+02  0.7546771E-02  0.1653848E+00
         21   -1    0    0  501  502  0.00000000000E+00  0.00000000000E+00  0.11156959825E+01  0.11156959825E+01  0.00000000000E+00 0.  1.
         21   -1    0    0  502  503 -0.00000000000E+00 -0.00000000000E+00 -0.79377410529E+03  0.79377410529E+03  0.00000000000E+00 0. -1.
          2    1    1    2  501    0 -0.24925967264E+02  0.54055071427E+01 -0.19155745115E+03  0.19324797655E+03  0.00000000000E+00 0.  1.
         -2    1    1    2    0  503  0.24925967264E+02 -0.54055071427E+01 -0.60110095816E+03  0.60164182472E+03  0.00000000000E+00 0. -1.
<mgrwt>
<rscale>  2 0.25505359E+02</rscale>
<asrwt>0</asrwt>
<pdfrwt beam="1">  1       21 0.17164488E-03 0.25505359E+02</pdfrwt>
<pdfrwt beam="2">  1       21 0.12211956E+00 0.25505359E+02</pdfrwt>
<totfact> 0.23937166E+07</totfact>
</mgrwt>
</event>
<event>
 4    1  0.2754379E+004  0.2070040E+02  0.7546771E-02  0.1731748E+00
         21   -1    0    0  503  502  0.00000000000E+00  0.00000000000E+00  0.22206661958E+03  0.22206661958E+03  0.00000000000E+00 0.  1.
         21   -1    0    0  501  503 -0.00000000000E+00 -0.00000000000E+00 -0.18980136371E+02  0.18980136371E+02  0.00000000000E+00 0. -1.
          2    1    1    2  501    0 -0.15186567275E+01  0.20644616960E+02 -0.12689411901E+02  0.24280191558E+02  0.00000000000E+00 0. -1.
         -2    1    1    2    0  502  0.15186567275E+01 -0.20644616960E+02  0.21577589511E+03  0.21676656439E+03  0.00000000000E+00 0.  1.
<mgrwt>
<rscale>  2 0.20700399E+02</rscale>
<asrwt>0</asrwt>
<pdfrwt beam="1">  1       21 0.34164093E-01 0.20700399E+02</pdfrwt>
<pdfrwt beam="2">  1       21 0.29200211E-02 0.20700399E+02</pdfrwt>
<totfact> 0.45148890E+06</totfact>
</mgrwt>
</event>
<event>
 4    1  0.2754379E+004  0.2821249E+02  0.7546771E-02  0.1618731E+00
         21   -1    0    0  503  502  0.00000000000E+00  0.00000000000E+00  0.26962245850E+02  0.26962245850E+02  0.00000000000E+00 0. -1.
         21   -1    0    0  501  503 -0.00000000000E+00 -0.00000000000E+00 -0.70970804651E+02  0.70970804651E+02  0.00000000000E+00 0.  1.
          2    1    1    2  501    0  0.26764927570E+02 -0.89209503342E+01 -0.59425863993E+02  0.65782809411E+02  0.00000000000E+00 0.  1.
         -2    1    1    2    0  502 -0.26764927570E+02  0.89209503342E+01  0.15417305192E+02  0.32150241089E+02  0.00000000000E+00 0. -1.
<mgrwt>
<rscale>  2 0.28212492E+02</rscale>
<asrwt>0</asrwt>
<pdfrwt beam="1">  1       21 0.41480379E-02 0.28212492E+02</pdfrwt>
<pdfrwt beam="2">  1       21 0.10918585E-01 0.28212492E+02</pdfrwt>
<totfact> 0.20215886E+07</totfact>
</mgrwt>
</event>
<event>
 4    1  0.2754379E+004  0.5126334E+02  0.7546771E-02  0.1438644E+00
         21   -1    0    0  501  502  0.00000000000E+00  0.00000000000E+00  0.14175465591E+03  0.14175465591E+03  0.00000000000E+00 0.  1.
         21   -1    0    0  502  503 -0.00000000000E+00 -0.00000000000E+00 -0.17301793775E+03  0.17301793775E+03  0.00000000000E+00 0. -1.
          2    1    1    2  501    0 -0.28070827593E+02 -0.42894740435E+02  0.13308397633E+03  0.14261582968E+03  0.00000000000E+00 0.  1.
         -2    1    1    2    0  503  0.28070827593E+02  0.42894740435E+02 -0.16434725816E+03  0.17215676398E+03  0.00000000000E+00 0. -1.
<mgrwt>
<rscale>  2 0.51263341E+02</rscale>
<asrwt>0</asrwt>
<pdfrwt beam="1">  1       21 0.21808409E-01 0.51263341E+02</pdfrwt>
<pdfrwt beam="2">  1       21 0.26618144E-01 0.51263341E+02</pdfrwt>
<totfact> 0.27113395E+05</totfact>
</mgrwt>
</event>
<event>
 4    1  0.2754379E+004  0.2146436E+02  0.7546771E-02  0.1717684E+00
         21   -1    0    0  503  502  0.00000000000E+00  0.00000000000E+00  0.50830147412E+01  0.50830147412E+01  0.00000000000E+00 0. -1.
         21   -1    0    0  501  503 -0.00000000000E+00 -0.00000000000E+00 -0.10256187098E+03  0.10256187098E+03  0.00000000000E+00 0.  1.
          2    1    1    2  501    0  0.16642032215E+02  0.13555867199E+02 -0.30388289537E+02  0.37204393729E+02  0.00000000000E+00 0.  1.
         -2    1    1    2    0  502 -0.16642032215E+02 -0.13555867199E+02 -0.67090566698E+02  0.70440491988E+02  0.00000000000E+00 0. -1.
<mgrwt>
<rscale>  2 0.21464361E+02</rscale>
<asrwt>0</asrwt>
<pdfrwt beam="1">  1       21 0.78200232E-03 0.21464361E+02</pdfrwt>
<pdfrwt beam="2">  1       21 0.15778748E-01 0.21464361E+02</pdfrwt>
<totfact> 0.13134018E+08</totfact>
</mgrwt>
</event>
<event>
 4    1  0.2754379E+004  0.4786687E+02  0.7546771E-02  0.1457199E+00
         21   -1    0    0  503  502  0.00000000000E+00  0.00000000000E+00  0.12346241968E+02  0.12346241968E+02  0.00000000000E+00 0.  1.
         21   -1    0    0  501  503 -0.00000000000E+00 -0.00000000000E+00 -0.32005761902E+03  0.32005761902E+03  0.00000000000E+00 0. -1.
          2    1    1    2  501    0  0.34926355211E+02  0.32732045951E+02 -0.26158755095E+03  0.26593097588E+03  0.00000000000E+00 0. -1.
         -2    1    1    2    0  502 -0.34926355211E+02 -0.32732045951E+02 -0.46123826108E+02  0.66472885113E+02  0.00000000000E+00 0.  1.
<mgrwt>
<rscale>  2 0.47866869E+02</rscale>
<asrwt>0</asrwt>
<pdfrwt beam="1">  1       21 0.18994220E-02 0.47866869E+02</pdfrwt>
<pdfrwt beam="2">  1       21 0.49239630E-01 0.47866869E+02</pdfrwt>
<totfact> 0.48694012E+06</totfact>
</mgrwt>
</event>
<event>
 4    1  0.2754379E+004  0.2027459E+02  0.7546771E-02  0.1739922E+00
         21   -1    0    0  501  502  0.00000000000E+00  0.00000000000E+00  0.59475903218E+01  0.59475903218E+01  0.00000000000E+00 0.  1.
         21   -1    0    0  502  503 -0.00000000000E+00 -0.00000000000E+00 -0.11759998486E+03  0.11759998486E+03  0.00000000000E+00 0. -1.
          2    1    1    2  501    0  0.17838039953E+02  0.96365685190E+01 -0.16160901894E+02  0.25927473310E+02  0.00000000000E+00 0.  1.
         -2    1    1    2    0  503 -0.17838039953E+02 -0.96365685190E+01 -0.95491492642E+02  0.97620101871E+02  0.00000000000E+00 0. -1.
<mgrwt>
<rscale>  2 0.20274593E+02</rscale>
<asrwt>0</asrwt>
<pdfrwt beam="1">  1       21 0.91501398E-03 0.20274593E+02</pdfrwt>
<pdfrwt beam="2">  1       21 0.18092304E-01 0.20274593E+02</pdfrwt>
<totfact> 0.80900985E+07</totfact>
</mgrwt>
</event>
<event>
 4    1  0.2754379E+004  0.2155285E+02  0.7546771E-02  0.1716102E+00
         21   -1    0    0  501  502  0.00000000000E+00  0.00000000000E+00  0.10959984445E+02  0.10959984445E+02  0.00000000000E+00 0. -1.
         21   -1    0    0  502  503 -0.00000000000E+00 -0.00000000000E+00 -0.17152604793E+03  0.17152604793E+03  0.00000000000E+00 0.  1.
          2    1    1    2  501    0  0.13766746523E+02 -0.16583188924E+02 -0.11115427124E+01  0.21581496517E+02  0.00000000000E+00 0. -1.
         -2    1    1    2    0  503 -0.13766746523E+02  0.16583188924E+02 -0.15945452077E+03  0.16090453586E+03  0.00000000000E+00 0.  1.
<mgrwt>
<rscale>  2 0.21552853E+02</rscale>
<asrwt>0</asrwt>
<pdfrwt beam="1">  1       21 0.16861514E-02 0.21552853E+02</pdfrwt>
<pdfrwt beam="2">  1       21 0.26388624E-01 0.21552853E+02</pdfrwt>
<totfact> 0.16877720E+07</totfact>
</mgrwt>
</event>
<event>
 4    1  0.2754379E+004  0.2682615E+02  0.7546771E-02  0.1636078E+00
         21   -1    0    0  503  502  0.00000000000E+00  0.00000000000E+00  0.33770306391E+02  0.33770306391E+02  0.00000000000E+00 0. -1.
         21   -1    0    0  501  503 -0.00000000000E+00 -0.00000000000E+00 -0.21379105782E+02  0.21379105782E+02  0.00000000000E+00 0.  1.
          2    1    1    2  501    0  0.16624083506E+02  0.21054262750E+02  0.46268230694E+01  0.27222226655E+02  0.00000000000E+00 0. -1.
         -2    1    1    2    0  502 -0.16624083506E+02 -0.21054262750E+02  0.77643775399E+01  0.27927185518E+02  0.00000000000E+00 0.  1.
<mgrwt>
<rscale>  2 0.26826146E+02</rscale>
<asrwt>0</asrwt>
<pdfrwt beam="1">  1       21 0.51954318E-02 0.26826146E+02</pdfrwt>
<pdfrwt beam="2">  1       21 0.32890932E-02 0.26826146E+02</pdfrwt>
<totfact> 0.97397136E+07</totfact>
</mgrwt>
</event>
<event>
 4    1  0.2754379E+004  0.2435675E+02  0.7546771E-02  0.1670417E+00
         21   -1    0    0  503  502  0.00000000000E+00  0.00000000000E+00  0.23578407461E+02  0.23578407461E+02  0.00000000000E+00 0. -1.
         21   -1    0    0  501  503 -0.00000000000E+00 -0.00000000000E+00 -0.51875237286E+02  0.51875237286E+02  0.00000000000E+00 0.  1.
          2    1    1    2  501    0  0.16634737625E+02 -0.17791474472E+02 -0.41221851004E+02  0.47879975563E+02  0.00000000000E+00 0.  1.
         -2    1    1    2    0  502 -0.16634737625E+02  0.17791474472E+02  0.12925021179E+02  0.27573669183E+02  0.00000000000E+00 0. -1.
<mgrwt>
<rscale>  2 0.24356746E+02</rscale>
<asrwt>0</asrwt>
<pdfrwt beam="1">  1       21 0.36274473E-02 0.24356746E+02</pdfrwt>
<pdfrwt beam="2">  1       21 0.79808058E-02 0.24356746E+02</pdfrwt>
<totfact> 0.40683395E+07</totfact>
</mgrwt>
</event>
<event>
 4    1  0.2754379E+004  0.2789556E+02  0.7546771E-02  0.1622588E+00
         21   -1    0    0  503  502  0.00000000000E+00  0.00000000000E+00  0.18407017451E+02  0.18407017451E+02  0.00000000000E+00 0. -1.
         21   -1    0    0  501  503 -0.00000000000E+00 -0.00000000000E+00 -0.96338019805E+02  0.96338019805E+02  0.00000000000E+00 0.  1.
          2    1    1    2  501    0 -0.36695849197E+01 -0.27653140042E+02 -0.81944277072E+02  0.86562269798E+02  0.00000000000E+00 0.  1.
         -2    1    1    2    0  502  0.36695849197E+01  0.27653140042E+02  0.40132747181E+01  0.28182767458E+02  0.00000000000E+00 0. -1.
<mgrwt>
<rscale>  2 0.27895555E+02</rscale>
<asrwt>0</asrwt>
<pdfrwt beam="1">  1       21 0.28318489E-02 0.27895555E+02</pdfrwt>
<pdfrwt beam="2">  1       21 0.14821233E-01 0.27895555E+02</pdfrwt>
<totfact> 0.21937492E+07</totfact>
</mgrwt>
</event>
<event>
 4    1  0.2754379E+004  0.3308744E+02  0.7546771E-02  0.1566271E+00
         21   -1    0    0  501  502  0.00000000000E+00  0.00000000000E+00  0.63120005562E+03  0.63120005562E+03  0.00000000000E+00 0. -1.
         21   -1    0    0  502  503 -0.00000000000E+00 -0.00000000000E+00 -0.17585511054E+01  0.17585511054E+01  0.00000000000E+00 0.  1.
          2    1    1    2  501    0 -0.32739737416E+02 -0.47841881699E+01  0.35177798462E+03  0.35333062325E+03  0.00000000000E+00 0. -1.
         -2    1    1    2    0  503  0.32739737416E+02  0.47841881699E+01  0.27766351989E+03  0.27962798347E+03  0.00000000000E+00 0.  1.
<mgrwt>
<rscale>  2 0.33087443E+02</rscale>
<asrwt>0</asrwt>
<pdfrwt beam="1">  1       21 0.97107520E-01 0.33087443E+02</pdfrwt>
<pdfrwt beam="2">  1       21 0.27054683E-03 0.33087443E+02</pdfrwt>
<totfact> 0.21539710E+07</totfact>
</mgrwt>
</event>
<event>
 4    1  0.2754379E+004  0.2348988E+02  0.7546771E-02  0.1683690E+00
         21   -1    0    0  501  502  0.00000000000E+00  0.00000000000E+00  0.15348249593E+02  0.15348249593E+02  0.00000000000E+00 0.  1.
         21   -1    0    0  502  503 -0.00000000000E+00 -0.00000000000E+00 -0.12853097767E+03  0.12853097767E+03  0.00000000000E+00 0. -1.
          2    1    1    2  501    0 -0.17771342924E+02 -0.15360794862E+02  0.44640669505E+01  0.23910302002E+02  0.00000000000E+00 0.  1.
         -2    1    1    2    0  503  0.17771342924E+02  0.15360794862E+02 -0.11764679503E+03  0.11996892526E+03  0.00000000000E+00 0. -1.
<mgrwt>
<rscale>  2 0.23489884E+02</rscale>
<asrwt>0</asrwt>
<pdfrwt beam="1">  1       21 0.23612692E-02 0.23489884E+02</pdfrwt>
<pdfrwt beam="2">  1       21 0.19773996E-01 0.23489884E+02</pdfrwt>
<totfact> 0.17072401E+07</totfact>
</mgrwt>
</event>
<event>
 4    1  0.2754379E+004  0.2310847E+02  0.7546771E-02  0.1689758E+00
         21   -1    0    0  503  502  0.00000000000E+00  0.00000000000E+00  0.90450861437E+02  0.90450861437E+02  0.00000000000E+00 0. -1.
         21   -1    0    0  501  503 -0.00000000000E+00 -0.00000000000E+00 -0.79519010768E+01  0.79519010768E+01  0.00000000000E+00 0.  1.
          2    1    1    2  501    0 -0.92014809334E+00  0.23090139993E+02  0.16279367480E+02  0.28266924894E+02  0.00000000000E+00 0.  1.
         -2    1    1    2    0  502  0.92014809334E+00 -0.23090139993E+02  0.66219592880E+02  0.70135837620E+02  0.00000000000E+00 0. -1.
<mgrwt>
<rscale>  2 0.23108467E+02</rscale>
<asrwt>0</asrwt>
<pdfrwt beam="1">  1       21 0.13915516E-01 0.23108467E+02</pdfrwt>
<pdfrwt beam="2">  1       21 0.12233695E-02 0.23108467E+02</pdfrwt>
<totfact> 0.84883656E+07</totfact>
</mgrwt>
</event>
<event>
 4    1  0.2754379E+004  0.2007323E+02  0.7546771E-02  0.1743876E+00
         21   -1    0    0  501  502  0.00000000000E+00  0.00000000000E+00  0.10715391077E+03  0.10715391077E+03  0.00000000000E+00 0.  1.
         21   -1    0    0  502  503 -0.00000000000E+00 -0.00000000000E+00 -0.49231359223E+01  0.49231359223E+01  0.00000000000E+00 0. -1.
          2    1    1    2  501    0 -0.18060771793E+02  0.87603227149E+01  0.78349813364E+02  0.80880331268E+02  0.00000000000E+00 0.  1.
         -2    1    1    2    0  503  0.18060771793E+02 -0.87603227149E+01  0.23880961482E+02  0.31196715422E+02  0.00000000000E+00 0. -1.
<mgrwt>
<rscale>  2 0.20073234E+02</rscale>
<asrwt>0</asrwt>
<pdfrwt beam="1">  1       21 0.16485215E-01 0.20073234E+02</pdfrwt>
<pdfrwt beam="2">  1       21 0.75740560E-03 0.20073234E+02</pdfrwt>
<totfact> 0.12529439E+08</totfact>
</mgrwt>
</event>
<event>
 4    1  0.2754379E+004  0.2456461E+02  0.7546771E-02  0.1667335E+00
         21   -1    0    0  503  502  0.00000000000E+00  0.00000000000E+00  0.18723732113E+02  0.18723732113E+02  0.00000000000E+00 0.  1.
         21   -1    0    0  501  503 -0.00000000000E+00 -0.00000000000E+00 -0.36603113182E+02  0.36603113182E+02  0.00000000000E+00 0. -1.
          2    1    1    2  501    0  0.22355393941E+01  0.24462678743E+02 -0.18504209902E+02  0.30754285421E+02  0.00000000000E+00 0. -1.
         -2    1    1    2    0  502 -0.22355393941E+01 -0.24462678743E+02  0.62482883366E+00  0.24572559874E+02  0.00000000000E+00 0.  1.
<mgrwt>
<rscale>  2 0.24564615E+02</rscale>
<asrwt>0</asrwt>
<pdfrwt beam="1">  1       21 0.28805742E-02 0.24564615E+02</pdfrwt>
<pdfrwt beam="2">  1       21 0.56312481E-02 0.24564615E+02</pdfrwt>
<totfact> 0.10290628E+08</totfact>
</mgrwt>
</event>
<event>
 4    1  0.2754379E+004  0.2278144E+02  0.7546771E-02  0.1695078E+00
         21   -1    0    0  503  502  0.00000000000E+00  0.00000000000E+00  0.10279196307E+02  0.10279196307E+02  0.00000000000E+00 0. -1.
         21   -1    0    0  501  503 -0.00000000000E+00 -0.00000000000E+00 -0.12692277086E+03  0.12692277086E+03  0.00000000000E+00 0.  1.
          2    1    1    2  501    0  0.22273004804E+02 -0.47861591029E+01 -0.11155725568E+03  0.11385963006E+03  0.00000000000E+00 0.  1.
         -2    1    1    2    0  502 -0.22273004804E+02  0.47861591029E+01 -0.50863188702E+01  0.23342337106E+02  0.00000000000E+00 0. -1.
<mgrwt>
<rscale>  2 0.22781441E+02</rscale>
<asrwt>0</asrwt>
<pdfrwt beam="1">  1       21 0.15814149E-02 0.22781441E+02</pdfrwt>
<pdfrwt beam="2">  1       21 0.19526579E-01 0.22781441E+02</pdfrwt>
<totfact> 0.32043452E+07</totfact>
</mgrwt>
</event>
<event>
 4    1  0.2754379E+004  0.2626463E+02  0.7546771E-02  0.1643475E+00
         21   -1    0    0  501  502  0.00000000000E+00  0.00000000000E+00  0.50474819944E+01  0.50474819944E+01  0.00000000000E+00 0.  1.
         21   -1    0    0  502  503 -0.00000000000E+00 -0.00000000000E+00 -0.21541841230E+03  0.21541841230E+03  0.00000000000E+00 0. -1.
          2    1    1    2  501    0 -0.25355857302E+02 -0.68491858087E+01 -0.38536169340E+02  0.46635471405E+02  0.00000000000E+00 0.  1.
         -2    1    1    2    0  503  0.25355857302E+02  0.68491858087E+01 -0.17183476096E+03  0.17383042288E+03  0.00000000000E+00 0. -1.
<mgrwt>
<rscale>  2 0.26264631E+02</rscale>
<asrwt>0</asrwt>
<pdfrwt beam="1">  1       21 0.77653567E-03 0.26264631E+02</pdfrwt>
<pdfrwt beam="2">  1       21 0.33141295E-01 0.26264631E+02</pdfrwt>
<totfact> 0.37513338E+07</totfact>
</mgrwt>
</event>
<event>
 4    1  0.2754379E+004  0.2038846E+02  0.7546771E-02  0.1737712E+00
         21   -1    0    0  503  502  0.00000000000E+00  0.00000000000E+00  0.19986400516E+02  0.19986400516E+02  0.00000000000E+00 0. -1.
         21   -1    0    0  501  503 -0.00000000000E+00 -0.00000000000E+00 -0.22952853016E+02  0.22952853016E+02  0.00000000000E+00 0.  1.
          2    1    1    2  501    0  0.13838906355E+02 -0.14972439733E+02  0.50941676526E+01  0.21015228401E+02  0.00000000000E+00 0. -1.
         -2    1    1    2    0  502 -0.13838906355E+02  0.14972439733E+02 -0.80606201524E+01  0.21924025130E+02  0.00000000000E+00 0.  1.
<mgrwt>
<rscale>  2 0.20388459E+02</rscale>
<asrwt>0</asrwt>
<pdfrwt beam="1">  1       21 0.30748309E-02 0.20388459E+02</pdfrwt>
<pdfrwt beam="2">  1       21 0.35312081E-02 0.20388459E+02</pdfrwt>
<totfact> 0.18388504E+08</totfact>
</mgrwt>
</event>
<event>
 4    1  0.2754379E+004  0.2098845E+02  0.7546771E-02  0.1726357E+00
         21   -1    0    0  503  502  0.00000000000E+00  0.00000000000E+00  0.54724912588E+02  0.54724912588E+02  0.00000000000E+00 0. -1.
         21   -1    0    0  501  503 -0.00000000000E+00 -0.00000000000E+00 -0.80498334472E+01  0.80498334472E+01  0.00000000000E+00 0.  1.
          2    1    1    2  501    0  0.74354741857E+01  0.19627244977E+02  0.23497278731E+02  0.31506144314E+02  0.00000000000E+00 0.  1.
         -2    1    1    2    0  502 -0.74354741857E+01 -0.19627244977E+02  0.23177800409E+02  0.31268601721E+02  0.00000000000E+00 0. -1.
<mgrwt>
<rscale>  2 0.20988450E+02</rscale>
<asrwt>0</asrwt>
<pdfrwt beam="1">  1       21 0.84192171E-02 0.20988450E+02</pdfrwt>
<pdfrwt beam="2">  1       21 0.12384360E-02 0.20988450E+02</pdfrwt>
<totfact> 0.18655015E+08</totfact>
</mgrwt>
</event>
<event>
 4    1  0.2754379E+004  0.3097542E+02  0.7546771E-02  0.1587550E+00
         21   -1    0    0  503  502  0.00000000000E+00  0.00000000000E+00  0.30594761983E+02  0.30594761983E+02  0.00000000000E+00 0.  1.
         21   -1    0    0  501  503 -0.00000000000E+00 -0.00000000000E+00 -0.35809369894E+02  0.35809369894E+02  0.00000000000E+00 0. -1.
          2    1    1    2  501    0 -0.13639516959E+02 -0.27810791797E+02 -0.14309743770E+02  0.34121039405E+02  0.00000000000E+00 0. -1.
         -2    1    1    2    0  502  0.13639516959E+02  0.27810791797E+02  0.90951358598E+01  0.32283092472E+02  0.00000000000E+00 0.  1.
<mgrwt>
<rscale>  2 0.30975419E+02</rscale>
<asrwt>0</asrwt>
<pdfrwt beam="1">  1       21 0.47068865E-02 0.30975419E+02</pdfrwt>
<pdfrwt beam="2">  1       21 0.55091338E-02 0.30975419E+02</pdfrwt>
<totfact> 0.51925143E+07</totfact>
</mgrwt>
</event>
<event>
 4    1  0.2754379E+004  0.2589417E+02  0.7546771E-02  0.1648481E+00
         21   -1    0    0  503  502  0.00000000000E+00  0.00000000000E+00  0.74727568783E+03  0.74727568783E+03  0.00000000000E+00 0. -1.
         21   -1    0    0  501  503 -0.00000000000E+00 -0.00000000000E+00 -0.23029613900E+01  0.23029613900E+01  0.00000000000E+00 0.  1.
          2    1    1    2  501    0 -0.20035521720E+02 -0.16403840227E+02  0.79674366580E+02  0.83776564710E+02  0.00000000000E+00 0.  1.
         -2    1    1    2    0  502  0.20035521720E+02  0.16403840227E+02  0.66529835986E+03  0.66580208451E+03  0.00000000000E+00 0. -1.
<mgrwt>
<rscale>  2 0.25894171E+02</rscale>
<asrwt>0</asrwt>
<pdfrwt beam="1">  1       21 0.11496530E+00 0.25894171E+02</pdfrwt>
<pdfrwt beam="2">  1       21 0.35430235E-03 0.25894171E+02</pdfrwt>
<totfact> 0.95808557E+06</totfact>
</mgrwt>
</event>
<event>
 4    1  0.2754379E+004  0.3088197E+02  0.7546771E-02  0.1588539E+00
         21   -1    0    0  501  502  0.00000000000E+00  0.00000000000E+00  0.55953235654E+02  0.55953235654E+02  0.00000000000E+00 0. -1.
         21   -1    0    0  502  503 -0.00000000000E+00 -0.00000000000E+00 -0.26362621677E+02  0.26362621677E+02  0.00000000000E+00 0.  1.
          2    1    1    2  501    0 -0.29031545214E+02 -0.10529252332E+02  0.39264691602E+02  0.49954096717E+02  0.00000000000E+00 0. -1.
         -2    1    1    2    0  503  0.29031545214E+02  0.10529252332E+02 -0.96740776251E+01  0.32361760614E+02  0.00000000000E+00 0.  1.
<mgrwt>
<rscale>  2 0.30881965E+02</rscale>
<asrwt>0</asrwt>
<pdfrwt beam="1">  1       21 0.86081901E-02 0.30881965E+02</pdfrwt>
<pdfrwt beam="2">  1       21 0.40557880E-02 0.30881965E+02</pdfrwt>
<totfact> 0.31713168E+07</totfact>
</mgrwt>
</event>
<event>
 4    1  0.2754379E+004  0.2077219E+02  0.7546771E-02  0.1730394E+00
         21   -1    0    0  503  502  0.00000000000E+00  0.00000000000E+00  0.23429861233E+01  0.23429861233E+01  0.00000000000E+00 0. -1.
         21   -1    0    0  501  503 -0.00000000000E+00 -0.00000000000E+00 -0.35071406308E+03  0.35071406308E+03  0.00000000000E+00 0.  1.
          2    1    1    2  501    0  0.16739805289E+02  0.12298886185E+02 -0.29583670399E+03  0.29656506724E+03  0.00000000000E+00 0.  1.
         -2    1    1    2    0  502 -0.16739805289E+02 -0.12298886185E+02 -0.52534372964E+02  0.56491981956E+02  0.00000000000E+00 0. -1.
<mgrwt>
<rscale>  2 0.20772185E+02</rscale>
<asrwt>0</asrwt>
<pdfrwt beam="1">  1       21 0.36045944E-03 0.20772185E+02</pdfrwt>
<pdfrwt beam="2">  1       21 0.53956005E-01 0.20772185E+02</pdfrwt>
<totfact> 0.43767831E+07</totfact>
</mgrwt>
</event>
<event>
 4    1  0.2754379E+004  0.2936293E+02  0.7546771E-02  0.1605239E+00
         21   -1    0    0  501  502  0.00000000000E+00  0.00000000000E+00  0.58402695656E+02  0.58402695656E+02  0.00000000000E+00 0. -1.
         21   -1    0    0  502  503 -0.00000000000E+00 -0.00000000000E+00 -0.21020316701E+02  0.21020316701E+02  0.00000000000E+00 0.  1.
          2    1    1    2  501    0 -0.71374613303E-01  0.29362845382E+02  0.40358301444E+02  0.49909661176E+02  0.00000000000E+00 0. -1.
         -2    1    1    2    0  503  0.71374613303E-01 -0.29362845382E+02 -0.29759224884E+01  0.29513351181E+02  0.00000000000E+00 0.  1.
<mgrwt>
<rscale>  2 0.29362932E+02</rscale>
<asrwt>0</asrwt>
<pdfrwt beam="1">  1       21 0.89850300E-02 0.29362932E+02</pdfrwt>
<pdfrwt beam="2">  1       21 0.32338949E-02 0.29362932E+02</pdfrwt>
<totfact> 0.41857319E+07</totfact>
</mgrwt>
</event>
<event>
 4    1  0.2754379E+004  0.2543304E+02  0.7546771E-02  0.1654859E+00
         21   -1    0    0  501  502  0.00000000000E+00  0.00000000000E+00  0.15388380664E+03  0.15388380664E+03  0.00000000000E+00 0.  1.
         21   -1    0    0  502  503 -0.00000000000E+00 -0.00000000000E+00 -0.42660511754E+01  0.42660511754E+01  0.00000000000E+00 0. -1.
          2    1    1    2  501    0 -0.10070140299E+02 -0.23354484472E+02  0.84389407257E+02  0.88138593861E+02  0.00000000000E+00 0.  1.
         -2    1    1    2    0  503  0.10070140299E+02  0.23354484472E+02  0.65228348205E+02  0.70011263952E+02  0.00000000000E+00 0. -1.
<mgrwt>
<rscale>  2 0.25433043E+02</rscale>
<asrwt>0</asrwt>
<pdfrwt beam="1">  1       21 0.23674428E-01 0.25433043E+02</pdfrwt>
<pdfrwt beam="2">  1       21 0.65631568E-03 0.25433043E+02</pdfrwt>
<totfact> 0.88141739E+07</totfact>
</mgrwt>
</event>
<event>
 4    1  0.2754379E+004  0.2868042E+02  0.7546771E-02  0.1613150E+00
         21   -1    0    0  501  502  0.00000000000E+00  0.00000000000E+00  0.67680677026E+02  0.67680677026E+02  0.00000000000E+00 0. -1.
         21   -1    0    0  502  503 -0.00000000000E+00 -0.00000000000E+00 -0.12424572639E+02  0.12424572639E+02  0.00000000000E+00 0.  1.
          2    1    1    2  501    0 -0.22842833588E+02  0.17342765078E+02  0.33542597326E+02  0.44132441382E+02  0.00000000000E+00 0.  1.
         -2    1    1    2    0  503  0.22842833588E+02 -0.17342765078E+02  0.21713507061E+02  0.35972808283E+02  0.00000000000E+00 0. -1.
<mgrwt>
<rscale>  2 0.28680421E+02</rscale>
<asrwt>0</asrwt>
<pdfrwt beam="1">  1       21 0.10412412E-01 0.28680421E+02</pdfrwt>
<pdfrwt beam="2">  1       21 0.19114728E-02 0.28680421E+02</pdfrwt>
<totfact> 0.73930686E+07</totfact>
</mgrwt>
</event>
<event>
 4    1  0.2754379E+004  0.2103521E+02  0.7546771E-02  0.1725492E+00
         21   -1    0    0  503  502  0.00000000000E+00  0.00000000000E+00  0.32544411141E+02  0.32544411141E+02  0.00000000000E+00 0.  1.
         21   -1    0    0  501  503 -0.00000000000E+00 -0.00000000000E+00 -0.63825036332E+02  0.63825036332E+02  0.00000000000E+00 0. -1.
          2    1    1    2  501    0 -0.13082127901E+01  0.20994486722E+02 -0.58385817712E+02  0.62059516621E+02  0.00000000000E+00 0. -1.
         -2    1    1    2    0  502  0.13082127901E+01 -0.20994486722E+02  0.27105192521E+02  0.34309930851E+02  0.00000000000E+00 0.  1.
<mgrwt>
<rscale>  2 0.21035206E+02</rscale>
<asrwt>0</asrwt>
<pdfrwt beam="1">  1       21 0.50068325E-02 0.21035206E+02</pdfrwt>
<pdfrwt beam="2">  1       21 0.98192364E-02 0.21035206E+02</pdfrwt>
<totfact> 0.16815017E+07</totfact>
</mgrwt>
</event>
<event>
 4    1  0.2754379E+004  0.4526479E+02  0.7546771E-02  0.1472695E+00
         21   -1    0    0  501  502  0.00000000000E+00  0.00000000000E+00  0.15328668184E+04  0.15328668184E+04  0.00000000000E+00 0. -1.
         21   -1    0    0  502  503 -0.00000000000E+00 -0.00000000000E+00 -0.15289790460E+01  0.15289790460E+01  0.00000000000E+00 0.  1.
          2    1    1    2  501    0  0.45141038494E+02  0.33448064222E+01  0.10377717220E+04  0.10387584167E+04  0.00000000000E+00 0. -1.
         -2    1    1    2    0  503 -0.45141038494E+02 -0.33448064222E+01  0.49356611733E+03  0.49563738082E+03  0.00000000000E+00 0.  1.
<mgrwt>
<rscale>  2 0.45264789E+02</rscale>
<asrwt>0</asrwt>
<pdfrwt beam="1">  1       21 0.23582444E+00 0.45264789E+02</pdfrwt>
<pdfrwt beam="2">  1       21 0.23522877E-03 0.45264789E+02</pdfrwt>
<totfact> 0.29863627E+06</totfact>
</mgrwt>
</event>
<event>
 4    1  0.2754379E+004  0.2046807E+02  0.7546771E-02  0.1736177E+00
         21   -1    0    0  503  502  0.00000000000E+00  0.00000000000E+00  0.20838055992E+01  0.20838055992E+01  0.00000000000E+00 0. -1.
         21   -1    0    0  501  503 -0.00000000000E+00 -0.00000000000E+00 -0.23683078786E+03  0.23683078786E+03  0.00000000000E+00 0.  1.
          2    1    1    2  501    0  0.11120453855E+02  0.17183632331E+02 -0.16380791995E+03  0.16508172628E+03  0.00000000000E+00 0. -1.
         -2    1    1    2    0  502 -0.11120453855E+02 -0.17183632331E+02 -0.70939062315E+02  0.73832867181E+02  0.00000000000E+00 0.  1.
<mgrwt>
<rscale>  2 0.20468066E+02</rscale>
<asrwt>0</asrwt>
<pdfrwt beam="1">  1       21 0.32058556E-03 0.20468066E+02</pdfrwt>
<pdfrwt beam="2">  1       21 0.36435497E-01 0.20468066E+02</pdfrwt>
<totfact> 0.10915035E+08</totfact>
</mgrwt>
</event>
<event>
 4    1  0.2754379E+004  0.2992159E+02  0.7546771E-02  0.1598957E+00
         21   -1    0    0  501  502  0.00000000000E+00  0.00000000000E+00  0.15514714542E+02  0.15514714542E+02  0.00000000000E+00 0.  1.
         21   -1    0    0  502  503 -0.00000000000E+00 -0.00000000000E+00 -0.21147457460E+03  0.21147457460E+03  0.00000000000E+00 0. -1.
          2    1    1    2  501    0  0.17657763136E+02 -0.24155841975E+02 -0.12013495877E+01  0.29945693202E+02  0.00000000000E+00 0.  1.
         -2    1    1    2    0  503 -0.17657763136E+02  0.24155841975E+02 -0.19475851047E+03  0.19704359594E+03  0.00000000000E+00 0. -1.
<mgrwt>
<rscale>  2 0.29921586E+02</rscale>
<asrwt>0</asrwt>
<pdfrwt beam="1">  1       21 0.23868790E-02 0.29921586E+02</pdfrwt>
<pdfrwt beam="2">  1       21 0.32534553E-01 0.29921586E+02</pdfrwt>
<totfact> 0.71567465E+06</totfact>
</mgrwt>
</event>
<event>
 4    1  0.2754379E+004  0.2071416E+02  0.7546771E-02  0.1731488E+00
         21   -1    0    0  503  502  0.00000000000E+00  0.00000000000E+00  0.42597129627E+03  0.42597129627E+03  0.00000000000E+00 0. -1.
         21   -1    0    0  501  503 -0.00000000000E+00 -0.00000000000E+00 -0.10090931422E+01  0.10090931422E+01  0.00000000000E+00 0.  1.
          2    1    1    2  501    0  0.49676454094E+01  0.20109675241E+02  0.20345599977E+03  0.20450775139E+03  0.00000000000E+00 0. -1.
         -2    1    1    2    0  502 -0.49676454094E+01 -0.20109675241E+02  0.22150620337E+03  0.22247263802E+03  0.00000000000E+00 0.  1.
<mgrwt>
<rscale>  2 0.20714163E+02</rscale>
<asrwt>0</asrwt>
<pdfrwt beam="1">  1       21 0.65533902E-01 0.20714163E+02</pdfrwt>
<pdfrwt beam="2">  1       21 0.15524544E-03 0.20714163E+02</pdfrwt>
<totfact> 0.10033572E+08</totfact>
</mgrwt>
</event>
<event>
 4    1  0.2754379E+004  0.3627315E+02  0.7546771E-02  0.1537577E+00
         21   -1    0    0  501  502  0.00000000000E+00  0.00000000000E+00  0.12634421823E+02  0.12634421823E+02  0.00000000000E+00 0. -1.
         21   -1    0    0  502  503 -0.00000000000E+00 -0.00000000000E+00 -0.39731660332E+03  0.39731660332E+03  0.00000000000E+00 0.  1.
          2    1    1    2  501    0 -0.30955560045E+02 -0.18907525292E+02 -0.16265677260E+02  0.39753156693E+02  0.00000000000E+00 0. -1.
         -2    1    1    2    0  503  0.30955560045E+02  0.18907525292E+02 -0.36841650424E+03  0.37019786845E+03  0.00000000000E+00 0.  1.
<mgrwt>
<rscale>  2 0.36273147E+02</rscale>
<asrwt>0</asrwt>
<pdfrwt beam="1">  1       21 0.19437573E-02 0.36273147E+02</pdfrwt>
<pdfrwt beam="2">  1       21 0.61125628E-01 0.36273147E+02</pdfrwt>
<totfact> 0.29596552E+06</totfact>
</mgrwt>
</event>
<event>
 4    1  0.2754379E+004  0.2913309E+02  0.7546771E-02  0.1607874E+00
         21   -1    0    0  501  502  0.00000000000E+00  0.00000000000E+00  0.10597357224E+03  0.10597357224E+03  0.00000000000E+00 0. -1.
         21   -1    0    0  502  503 -0.00000000000E+00 -0.00000000000E+00 -0.45184430207E+02  0.45184430207E+02  0.00000000000E+00 0.  1.
          2    1    1    2  501    0 -0.29128849508E+02 -0.49712991995E+00  0.98948924360E+02  0.10314856588E+03  0.00000000000E+00 0. -1.
         -2    1    1    2    0  503  0.29128849508E+02  0.49712991995E+00 -0.38159782327E+02  0.48009436563E+02  0.00000000000E+00 0.  1.
<mgrwt>
<rscale>  2 0.29133091E+02</rscale>
<asrwt>0</asrwt>
<pdfrwt beam="1">  1       21 0.16303626E-01 0.29133091E+02</pdfrwt>
<pdfrwt beam="2">  1       21 0.69514508E-02 0.29133091E+02</pdfrwt>
<totfact> 0.44686276E+06</totfact>
</mgrwt>
</event>
<event>
 4    1  0.2754379E+004  0.2022490E+02  0.7546771E-02  0.1740892E+00
         21   -1    0    0  503  502  0.00000000000E+00  0.00000000000E+00  0.53799909435E+00  0.53799909435E+00  0.00000000000E+00 0. -1.
         21   -1    0    0  501  503 -0.00000000000E+00 -0.00000000000E+00 -0.81831449839E+03  0.81831449839E+03  0.00000000000E+00 0.  1.
          2    1    1    2  501    0 -0.20183445752E+02 -0.12942105769E+01 -0.51789259435E+03  0.51828735827E+03  0.00000000000E+00 0.  1.
         -2    1    1    2    0  502  0.20183445752E+02  0.12942105769E+01 -0.29988390494E+03  0.30056513921E+03  0.00000000000E+00 0. -1.
<mgrwt>
<rscale>  2 0.20224897E+02</rscale>
<asrwt>0</asrwt>
<pdfrwt beam="1">  1       21 0.82769000E-04 0.20224897E+02</pdfrwt>
<pdfrwt beam="2">  1       21 0.12589468E+00 0.20224897E+02</pdfrwt>
<totfact> 0.60369180E+07</totfact>
</mgrwt>
</event>
<event>
 4    1  0.2754379E+004  0.2330296E+02  0.7546771E-02  0.1686646E+00
         21   -1    0    0  503  502  0.00000000000E+00  0.00000000000E+00  0.12597091179E+04  0.12597091179E+04  0.00000000000E+00 0. -1.
         21   -1    0    0  501  503 -0.00000000000E+00 -0.00000000000E+00 -0.46286177138E+01  0.46286177138E+01  0.00000000000E+00 0.  1.
          2    1    1    2  501    0  0.19980831983E+02 -0.11991431483E+02  0.25528382855E+02  0.34564814580E+02  0.00000000000E+00 0.  1.
         -2    1    1    2    0  502 -0.19980831983E+02  0.11991431483E+02  0.12295521173E+04  0.12297729210E+04  0.00000000000E+00 0. -1.
<mgrwt>
<rscale>  2 0.23302963E+02</rscale>
<asrwt>0</asrwt>
<pdfrwt beam="1">  1       21 0.19380113E+00 0.23302963E+02</pdfrwt>
<pdfrwt beam="2">  1       21 0.71209604E-03 0.23302963E+02</pdfrwt>
<totfact> 0.97107959E+05</totfact>
</mgrwt>
</event>
<event>
 4    1  0.2754379E+004  0.2653349E+02  0.7546771E-02  0.1639905E+00
         21   -1    0    0  501  502  0.00000000000E+00  0.00000000000E+00  0.18589530497E+02  0.18589530497E+02  0.00000000000E+00 0. -1.
         21   -1    0    0  502  503 -0.00000000000E+00 -0.00000000000E+00 -0.38667498604E+02  0.38667498604E+02  0.00000000000E+00 0.  1.
          2    1    1    2  501    0 -0.19695288088E+00 -0.26532762913E+02 -0.59332328623E+01  0.27188776185E+02  0.00000000000E+00 0.  1.
         -2    1    1    2    0  503  0.19695288088E+00  0.26532762913E+02 -0.14144735245E+02  0.30068252915E+02  0.00000000000E+00 0. -1.
<mgrwt>
<rscale>  2 0.26533494E+02</rscale>
<asrwt>0</asrwt>
<pdfrwt beam="1">  1       21 0.28599278E-02 0.26533494E+02</pdfrwt>
<pdfrwt beam="2">  1       21 0.59488459E-02 0.26533494E+02</pdfrwt>
<totfact> 0.97234829E+07</totfact>
</mgrwt>
</event>
<event>
 4    1  0.2754379E+004  0.3463074E+02  0.7546771E-02  0.1551904E+00
         21   -1    0    0  503  502  0.00000000000E+00  0.00000000000E+00  0.11556061358E+04  0.11556061358E+04  0.00000000000E+00 0. -1.
         21   -1    0    0  501  503 -0.00000000000E+00 -0.00000000000E+00 -0.11681213370E+01  0.11681213370E+01  0.00000000000E+00 0.  1.
          2    1    1    2  501    0 -0.24944464767E+02 -0.24022112376E+02  0.38403010393E+03  0.38558839315E+03  0.00000000000E+00 0.  1.
         -2    1    1    2    0  502  0.24944464767E+02  0.24022112376E+02  0.77040791054E+03  0.77118586399E+03  0.00000000000E+00 0. -1.
<mgrwt>
<rscale>  2 0.34630741E+02</rscale>
<asrwt>0</asrwt>
<pdfrwt beam="1">  1       21 0.17778465E+00 0.34630741E+02</pdfrwt>
<pdfrwt beam="2">  1       21 0.17971190E-03 0.34630741E+02</pdfrwt>
<totfact> 0.94516669E+06</totfact>
</mgrwt>
</event>
<event>
 4    1  0.2754379E+004  0.4117242E+02  0.7546771E-02  0.1499757E+00
         21   -1    0    0  501  502  0.00000000000E+00  0.00000000000E+00  0.21058774566E+03  0.21058774566E+03  0.00000000000E+00 0. -1.
         21   -1    0    0  502  503 -0.00000000000E+00 -0.00000000000E+00 -0.85727169772E+01  0.85727169772E+01  0.00000000000E+00 0.  1.
          2    1    1    2  501    0  0.38205164897E+02  0.15347110161E+02  0.12807390789E+03  0.13452915779E+03  0.00000000000E+00 0. -1.
         -2    1    1    2    0  503 -0.38205164897E+02 -0.15347110161E+02  0.73941120798E+02  0.84631304846E+02  0.00000000000E+00 0.  1.
<mgrwt>
<rscale>  2 0.41172423E+02</rscale>
<asrwt>0</asrwt>
<pdfrwt beam="1">  1       21 0.32398111E-01 0.41172423E+02</pdfrwt>
<pdfrwt beam="2">  1       21 0.13188797E-02 0.41172423E+02</pdfrwt>
<totfact> 0.18962250E+07</totfact>
</mgrwt>
</event>
<event>
 4    1  0.2754379E+004  0.2152049E+02  0.7546771E-02  0.1716679E+00
         21   -1    0    0  501  502  0.00000000000E+00  0.00000000000E+00  0.88434030936E+01  0.88434030936E+01  0.00000000000E+00 0. -1.
         21   -1    0    0  502  503 -0.00000000000E+00 -0.00000000000E+00 -0.59573098273E+02  0.59573098273E+02  0.00000000000E+00 0.  1.
          2    1    1    2  501    0 -0.21076783489E+02 -0.43474933416E+01 -0.13470051920E+02  0.25388457994E+02  0.00000000000E+00 0. -1.
         -2    1    1    2    0  503  0.21076783489E+02  0.43474933416E+01 -0.37259643259E+02  0.43028043372E+02  0.00000000000E+00 0.  1.
<mgrwt>
<rscale>  2 0.21520490E+02</rscale>
<asrwt>0</asrwt>
<pdfrwt beam="1">  1       21 0.13605236E-02 0.21520490E+02</pdfrwt>
<pdfrwt beam="2">  1       21 0.91650919E-02 0.21520490E+02</pdfrwt>
<totfact> 0.14198935E+08</totfact>
</mgrwt>
</event>
<event>
 4    1  0.2754379E+004  0.2668066E+02  0.7546771E-02  0.1637973E+00
         21   -1    0    0  501  502  0.00000000000E+00  0.00000000000E+00  0.28310332683E+02  0.28310332683E+02  0.00000000000E+00 0. -1.
         21   -1    0    0  502  503 -0.00000000000E+00 -0.00000000000E+00 -0.48987562920E+02  0.48987562920E+02  0.00000000000E+00 0.  1.
          2    1    1    2  501    0 -0.21822292462E+02 -0.15350739806E+02  0.16624684991E+02  0.31436249966E+02  0.00000000000E+00 0. -1.
         -2    1    1    2    0  503  0.21822292462E+02  0.15350739806E+02 -0.37301915228E+02  0.45861645637E+02  0.00000000000E+00 0.  1.
<mgrwt>
<rscale>  2 0.26680661E+02</rscale>
<asrwt>0</asrwt>
<pdfrwt beam="1">  1       21 0.43554358E-02 0.26680661E+02</pdfrwt>
<pdfrwt beam="2">  1       21 0.75365481E-02 0.26680661E+02</pdfrwt>
<totfact> 0.34156749E+07</totfact>
</mgrwt>
</event>
<event>
 4    1  0.2754379E+004  0.2624754E+02  0.7546771E-02  0.1643704E+00
         21   -1    0    0  503  502  0.00000000000E+00  0.00000000000E+00  0.30667199152E+01  0.30667199152E+01  0.00000000000E+00 0.  1.
         21   -1    0    0  501  503 -0.00000000000E+00 -0.00000000000E+00 -0.40224823381E+03  0.40224823381E+03  0.00000000000E+00 0. -1.
          2    1    1    2  501    0 -0.13521569167E+02 -0.22496672783E+02 -0.33425028137E+03  0.33527926228E+03  0.00000000000E+00 0. -1.
         -2    1    1    2    0  502  0.13521569167E+02  0.22496672783E+02 -0.64931232525E+02  0.70035691446E+02  0.00000000000E+00 0.  1.
<mgrwt>
<rscale>  2 0.26247535E+02</rscale>
<asrwt>0</asrwt>
<pdfrwt beam="1">  1       21 0.47180311E-03 0.26247535E+02</pdfrwt>
<pdfrwt beam="2">  1       21 0.61884337E-01 0.26247535E+02</pdfrwt>
<totfact> 0.23597777E+07</totfact>
</mgrwt>
</event>
<event>
 4    1  0.2754379E+004  0.3081299E+02  0.7546771E-02  0.1589272E+00
         21   -1    0    0  503  502  0.00000000000E+00  0.00000000000E+00  0.35358135747E+02  0.35358135747E+02  0.00000000000E+00 0.  1.
         21   -1    0    0  501  503 -0.00000000000E+00 -0.00000000000E+00 -0.57641541605E+02  0.57641541605E+02  0.00000000000E+00 0. -1.
          2    1    1    2  501    0 -0.30679704068E+02  0.28628631821E+01 -0.45126489962E+02  0.54642843297E+02  0.00000000000E+00 0. -1.
         -2    1    1    2    0  502  0.30679704068E+02 -0.28628631821E+01  0.22843084104E+02  0.38356834054E+02  0.00000000000E+00 0.  1.
<mgrwt>
<rscale>  2 0.30812988E+02</rscale>
<asrwt>0</asrwt>
<pdfrwt beam="1">  1       21 0.54397133E-02 0.30812988E+02</pdfrwt>
<pdfrwt beam="2">  1       21 0.88679293E-02 0.30812988E+02</pdfrwt>
<totfact> 0.18835694E+07</totfact>
</mgrwt>
</event>
<event>
 4    1  0.2754379E+004  0.2303941E+02  0.7546771E-02  0.1690872E+00
         21   -1    0    0  501  502  0.00000000000E+00  0.00000000000E+00  0.22772116202E+02  0.22772116202E+02  0.00000000000E+00 0.  1.
         21   -1    0    0  502  503 -0.00000000000E+00 -0.00000000000E+00 -0.23626223789E+02  0.23626223789E+02  0.00000000000E+00 0. -1.
          2    1    1    2  501    0  0.66830278094E+01 -0.22048848166E+02  0.22575298874E+01  0.23149751777E+02  0.00000000000E+00 0.  1.
         -2    1    1    2    0  503 -0.66830278094E+01  0.22048848166E+02 -0.31116374738E+01  0.23248588214E+02  0.00000000000E+00 0. -1.
<mgrwt>
<rscale>  2 0.23039413E+02</rscale>
<asrwt>0</asrwt>
<pdfrwt beam="1">  1       21 0.35034025E-02 0.23039413E+02</pdfrwt>
<pdfrwt beam="2">  1       21 0.36348037E-02 0.23039413E+02</pdfrwt>
<totfact> 0.14897449E+08</totfact>
</mgrwt>
</event>
<event>
 4    1  0.2754379E+004  0.2071167E+02  0.7546771E-02  0.1731535E+00
         21   -1    0    0  501  502  0.00000000000E+00  0.00000000000E+00  0.64059369260E+00  0.64059369260E+00  0.00000000000E+00 0.  1.
         21   -1    0    0  502  503 -0.00000000000E+00 -0.00000000000E+00 -0.12353986464E+04  0.12353986464E+04  0.00000000000E+00 0. -1.
          2    1    1    2  501    0 -0.13640705646E+01 -0.20666703425E+02 -0.19915342714E+03  0.20022752274E+03  0.00000000000E+00 0.  1.
         -2    1    1    2    0  503  0.13640705646E+01  0.20666703425E+02 -0.10356046255E+04  0.10358117173E+04  0.00000000000E+00 0. -1.
<mgrwt>
<rscale>  2 0.20711671E+02</rscale>
<asrwt>0</asrwt>
<pdfrwt beam="1">  1       21 0.98553667E-04 0.20711671E+02</pdfrwt>
<pdfrwt beam="2">  1       21 0.19005980E+00 0.20711671E+02</pdfrwt>
<totfact> 0.17795305E+07</totfact>
</mgrwt>
</event>
<event>
 4    1  0.2754379E+004  0.2134019E+02  0.7546771E-02  0.1719919E+00
         21   -1    0    0  503  502  0.00000000000E+00  0.00000000000E+00  0.15006599768E+02  0.15006599768E+02  0.00000000000E+00 0.  1.
         21   -1    0    0  501  503 -0.00000000000E+00 -0.00000000000E+00 -0.44051690854E+02  0.44051690854E+02  0.00000000000E+00 0. -1.
          2    1    1    2  501    0 -0.18553028923E+02 -0.10544606271E+02 -0.30993015096E+02  0.37629384640E+02  0.00000000000E+00 0. -1.
         -2    1    1    2    0  502  0.18553028923E+02  0.10544606271E+02  0.19479240101E+01  0.21428905982E+02  0.00000000000E+00 0.  1.
<mgrwt>
<rscale>  2 0.21340188E+02</rscale>
<asrwt>0</asrwt>
<pdfrwt beam="1">  1       21 0.23087077E-02 0.21340188E+02</pdfrwt>
<pdfrwt beam="2">  1       21 0.67771830E-02 0.21340188E+02</pdfrwt>
<totfact> 0.10331959E+08</totfact>
</mgrwt>
</event>
<event>
 4    1  0.2754379E+004  0.3809742E+02  0.7546771E-02  0.1522698E+00
         21   -1    0    0  503  502  0.00000000000E+00  0.00000000000E+00  0.25557700212E+03  0.25557700212E+03  0.00000000000E+00 0.  1.
         21   -1    0    0  501  503 -0.00000000000E+00 -0.00000000000E+00 -0.63300741001E+01  0.63300741001E+01  0.00000000000E+00 0. -1.
          2    1    1    2  501    0  0.17803309363E+02  0.33681684781E+02  0.82624498361E+02  0.90984731925E+02  0.00000000000E+00 0. -1.
         -2    1    1    2    0  502 -0.17803309363E+02 -0.33681684781E+02  0.16662242966E+03  0.17092234429E+03  0.00000000000E+00 0.  1.
<mgrwt>
<rscale>  2 0.38097424E+02</rscale>
<asrwt>0</asrwt>
<pdfrwt beam="1">  1       21 0.39319531E-01 0.38097424E+02</pdfrwt>
<pdfrwt beam="2">  1       21 0.97385775E-03 0.38097424E+02</pdfrwt>
<totfact> 0.20668594E+07</totfact>
</mgrwt>
</event>
<event>
 4    1  0.2754379E+004  0.2077846E+02  0.7546771E-02  0.1730276E+00
         21   -1    0    0  501  502  0.00000000000E+00  0.00000000000E+00  0.28151289222E+01  0.28151289222E+01  0.00000000000E+00 0.  1.
         21   -1    0    0  502  503 -0.00000000000E+00 -0.00000000000E+00 -0.34518256327E+03  0.34518256327E+03  0.00000000000E+00 0. -1.
          2    1    1    2  501    0  0.36254867243E+01  0.20459723340E+02 -0.41476169236E+02  0.46389837762E+02  0.00000000000E+00 0.  1.
         -2    1    1    2    0  503 -0.36254867243E+01 -0.20459723340E+02 -0.30089126511E+03  0.30160785443E+03  0.00000000000E+00 0. -1.
<mgrwt>
<rscale>  2 0.20778461E+02</rscale>
<asrwt>0</asrwt>
<pdfrwt beam="1">  1       21 0.43309671E-03 0.20778461E+02</pdfrwt>
<pdfrwt beam="2">  1       21 0.53105016E-01 0.20778461E+02</pdfrwt>
<totfact> 0.34527714E+07</totfact>
</mgrwt>
</event>
<event>
 4    1  0.2754379E+004  0.2375252E+02  0.7546771E-02  0.1679595E+00
         21   -1    0    0  503  502  0.00000000000E+00  0.00000000000E+00  0.12796590874E+04  0.12796590874E+04  0.00000000000E+00 0.  1.
         21   -1    0    0  501  503 -0.00000000000E+00 -0.00000000000E+00 -0.57710998275E+00  0.57710998275E+00  0.00000000000E+00 0. -1.
          2    1    1    2  501    0 -0.23738576086E+02  0.81362909689E+00  0.32854138965E+03  0.32939888691E+03  0.00000000000E+00 0.  1.
         -2    1    1    2    0  502  0.23738576086E+02 -0.81362909689E+00  0.95054058777E+03  0.95083731047E+03  0.00000000000E+00 0. -1.
<mgrwt>
<rscale>  2 0.23752515E+02</rscale>
<asrwt>0</asrwt>
<pdfrwt beam="1">  1       21 0.19686836E+00 0.23752515E+02</pdfrwt>
<pdfrwt beam="2">  1       21 0.88787175E-04 0.23752515E+02</pdfrwt>
<totfact> 0.19256492E+07</totfact>
</mgrwt>
</event>
<event>
 4    1  0.2754379E+004  0.2582339E+02  0.7546771E-02  0.1649449E+00
         21   -1    0    0  501  502  0.00000000000E+00  0.00000000000E+00  0.13901333618E+02  0.13901333618E+02  0.00000000000E+00 0.  1.
         21   -1    0    0  502  503 -0.00000000000E+00 -0.00000000000E+00 -0.69397387580E+02  0.69397387580E+02  0.00000000000E+00 0. -1.
          2    1    1    2  501    0 -0.23007870317E+02 -0.11725406334E+02 -0.46049452823E+01  0.26230760021E+02  0.00000000000E+00 0.  1.
         -2    1    1    2    0  503  0.23007870317E+02  0.11725406334E+02 -0.50891108680E+02  0.57067961177E+02  0.00000000000E+00 0. -1.
<mgrwt>
<rscale>  2 0.25823386E+02</rscale>
<asrwt>0</asrwt>
<pdfrwt beam="1">  1       21 0.21386667E-02 0.25823386E+02</pdfrwt>
<pdfrwt beam="2">  1       21 0.10676521E-01 0.25823386E+02</pdfrwt>
<totfact> 0.58105067E+07</totfact>
</mgrwt>
</event>
<event>
 4    1  0.2754379E+004  0.2315614E+02  0.7546771E-02  0.1688992E+00
         21   -1    0    0  501  502  0.00000000000E+00  0.00000000000E+00  0.48304757584E+02  0.48304757584E+02  0.00000000000E+00 0.  1.
         21   -1    0    0  502  503 -0.00000000000E+00 -0.00000000000E+00 -0.15323989099E+02  0.15323989099E+02  0.00000000000E+00 0. -1.
          2    1    1    2  501    0 -0.28227128230E+01 -0.22983455138E+02  0.33192565460E+02  0.40471635988E+02  0.00000000000E+00 0.  1.
         -2    1    1    2    0  503  0.28227128230E+01  0.22983455138E+02 -0.21179697522E+00  0.23157110695E+02  0.00000000000E+00 0. -1.
<mgrwt>
<rscale>  2 0.23156142E+02</rscale>
<asrwt>0</asrwt>
<pdfrwt beam="1">  1       21 0.74315011E-02 0.23156142E+02</pdfrwt>
<pdfrwt beam="2">  1       21 0.23575368E-02 0.23156142E+02</pdfrwt>
<totfact> 0.88225306E+07</totfact>
</mgrwt>
</event>
<event>
 4    1  0.2754379E+004  0.3006979E+02  0.7546771E-02  0.1597319E+00
         21   -1    0    0  503  502  0.00000000000E+00  0.00000000000E+00  0.17345687668E+02  0.17345687668E+02  0.00000000000E+00 0. -1.
         21   -1    0    0  501  503 -0.00000000000E+00 -0.00000000000E+00 -0.58586499301E+02  0.58586499301E+02  0.00000000000E+00 0.  1.
          2    1    1    2  501    0  0.27212500666E+02  0.12793432987E+02 -0.33226207795E+02  0.44812643355E+02  0.00000000000E+00 0. -1.
         -2    1    1    2    0  502 -0.27212500666E+02 -0.12793432987E+02 -0.80146038383E+01  0.31119543614E+02  0.00000000000E+00 0.  1.
<mgrwt>
<rscale>  2 0.30069787E+02</rscale>
<asrwt>0</asrwt>
<pdfrwt beam="1">  1       21 0.26685673E-02 0.30069787E+02</pdfrwt>
<pdfrwt beam="2">  1       21 0.90133076E-02 0.30069787E+02</pdfrwt>
<totfact> 0.56600878E+07</totfact>
</mgrwt>
</event>
<event>
 4    1  0.2754379E+004  0.2430372E+02  0.7546771E-02  0.1671209E+00
         21   -1    0    0  501  502  0.00000000000E+00  0.00000000000E+00  0.18163630228E+03  0.18163630228E+03  0.00000000000E+00 0.  1.
         21   -1    0    0  502  503 -0.00000000000E+00 -0.00000000000E+00 -0.32589141311E+01  0.32589141311E+01  0.00000000000E+00 0. -1.
          2    1    1    2  501    0  0.62826283184E+01  0.23477640972E+02  0.84913198926E+02  0.88322830549E+02  0.00000000000E+00 0.  1.
         -2    1    1    2    0  503 -0.62826283184E+01 -0.23477640972E+02  0.93464189227E+02  0.96572385867E+02  0.00000000000E+00 0. -1.
<mgrwt>
<rscale>  2 0.24303725E+02</rscale>
<asrwt>0</asrwt>
<pdfrwt beam="1">  1       21 0.27944039E-01 0.24303725E+02</pdfrwt>
<pdfrwt beam="2">  1       21 0.50137154E-03 0.24303725E+02</pdfrwt>
<totfact> 0.96501844E+07</totfact>
</mgrwt>
</event>
<event>
 4    1  0.2754379E+004  0.2039727E+02  0.7546771E-02  0.1737541E+00
         21   -1    0    0  501  502  0.00000000000E+00  0.00000000000E+00  0.31333947458E+03  0.31333947458E+03  0.00000000000E+00 0.  1.
         21   -1    0    0  502  503 -0.00000000000E+00 -0.00000000000E+00 -0.24283878760E+01  0.24283878760E+01  0.00000000000E+00 0. -1.
          2    1    1    2  501    0  0.60865772403E+00 -0.20388191244E+02  0.26174577996E+03  0.26253933445E+03  0.00000000000E+00 0.  1.
         -2    1    1    2    0  503 -0.60865772403E+00  0.20388191244E+02  0.49165306737E+02  0.53228528000E+02  0.00000000000E+00 0. -1.
<mgrwt>
<rscale>  2 0.20397274E+02</rscale>
<asrwt>0</asrwt>
<pdfrwt beam="1">  1       21 0.48206041E-01 0.20397274E+02</pdfrwt>
<pdfrwt beam="2">  1       21 0.37359838E-03 0.20397274E+02</pdfrwt>
<totfact> 0.51461820E+07</totfact>
</mgrwt>
</event>
<event>
 4    1  0.2754379E+004  0.2159288E+02  0.7546771E-02  0.1715390E+00
         21   -1    0    0  503  502  0.00000000000E+00  0.00000000000E+00  0.15510008805E+02  0.15510008805E+02  0.00000000000E+00 0.  1.
         21   -1    0    0  501  503 -0.00000000000E+00 -0.00000000000E+00 -0.34211916285E+02  0.34211916285E+02  0.00000000000E+00 0. -1.
          2    1    1    2  501    0  0.39011938979E+01 -0.21237537217E+02 -0.18010222861E+02  0.28117973404E+02  0.00000000000E+00 0. -1.
         -2    1    1    2    0  502 -0.39011938979E+01  0.21237537217E+02 -0.69168461952E+00  0.21603951687E+02  0.00000000000E+00 0.  1.
<mgrwt>
<rscale>  2 0.21592876E+02</rscale>
<asrwt>0</asrwt>
<pdfrwt beam="1">  1       21 0.23861552E-02 0.21592876E+02</pdfrwt>
<pdfrwt beam="2">  1       21 0.52633717E-02 0.21592876E+02</pdfrwt>
<totfact> 0.14773583E+08</totfact>
</mgrwt>
</event>
<event>
 4    1  0.2754379E+004  0.3592286E+02  0.7546771E-02  0.1540555E+00
         21   -1    0    0  501  502  0.00000000000E+00  0.00000000000E+00  0.36745193956E+03  0.36745193956E+03  0.00000000000E+00 0.  1.
         21   -1    0    0  502  503 -0.00000000000E+00 -0.00000000000E+00 -0.97605133881E+01  0.97605133881E+01  0.00000000000E+00 0. -1.
          2    1    1    2  501    0  0.33643867818E+02  0.12591350824E+02  0.32975353820E+03  0.33170445869E+03  0.00000000000E+00 0.  1.
         -2    1    1    2    0  503 -0.33643867818E+02 -0.12591350824E+02  0.27937887971E+02  0.45507994260E+02  0.00000000000E+00 0. -1.
<mgrwt>
<rscale>  2 0.35922861E+02</rscale>
<asrwt>0</asrwt>
<pdfrwt beam="1">  1       21 0.56531057E-01 0.35922861E+02</pdfrwt>
<pdfrwt beam="2">  1       21 0.15016177E-02 0.35922861E+02</pdfrwt>
<totfact> 0.51696024E+06</totfact>
</mgrwt>
</event>
<event>
 4    1  0.2754379E+004  0.2276675E+02  0.7546771E-02  0.1695319E+00
         21   -1    0    0  501  502  0.00000000000E+00  0.00000000000E+00  0.22925357991E+02  0.22925357991E+02  0.00000000000E+00 0. -1.
         21   -1    0    0  502  503 -0.00000000000E+00 -0.00000000000E+00 -0.41591775803E+02  0.41591775803E+02  0.00000000000E+00 0.  1.
          2    1    1    2  501    0  0.22095992560E+02 -0.54856265926E+01  0.12459861364E+02  0.25953287490E+02  0.00000000000E+00 0. -1.
         -2    1    1    2    0  503 -0.22095992560E+02  0.54856265926E+01 -0.31126279176E+02  0.38563846303E+02  0.00000000000E+00 0.  1.
<mgrwt>
<rscale>  2 0.22766752E+02</rscale>
<asrwt>0</asrwt>
<pdfrwt beam="1">  1       21 0.35269782E-02 0.22766752E+02</pdfrwt>
<pdfrwt beam="2">  1       21 0.63987347E-02 0.22766752E+02</pdfrwt>
<totfact> 0.59799253E+07</totfact>
</mgrwt>
</event>
<event>
 4    1  0.2754379E+004  0.2107268E+02  0.7546771E-02  0.1724801E+00
         21   -1    0    0  503  502  0.00000000000E+00  0.00000000000E+00  0.30443260748E+01  0.30443260748E+01  0.00000000000E+00 0.  1.
         21   -1    0    0  501  503 -0.00000000000E+00 -0.00000000000E+00 -0.15225880199E+03  0.15225880199E+03  0.00000000000E+00 0. -1.
          2    1    1    2  501    0  0.21072485457E+02  0.91687259525E-01 -0.90520796160E+02  0.92941231901E+02  0.00000000000E+00 0. -1.
         -2    1    1    2    0  502 -0.21072485457E+02 -0.91687259525E-01 -0.58693679754E+02  0.62361896162E+02  0.00000000000E+00 0.  1.
<mgrwt>
<rscale>  2 0.21072685E+02</rscale>
<asrwt>0</asrwt>
<pdfrwt beam="1">  1       21 0.46835794E-03 0.21072685E+02</pdfrwt>
<pdfrwt beam="2">  1       21 0.23424427E-01 0.21072685E+02</pdfrwt>
<totfact> 0.14050379E+08</totfact>
</mgrwt>
</event>
<event>
 4    1  0.2754379E+004  0.2128991E+02  0.7546771E-02  0.1720830E+00
         21   -1    0    0  501  502  0.00000000000E+00  0.00000000000E+00  0.23399330655E+01  0.23399330655E+01  0.00000000000E+00 0.  1.
         21   -1    0    0  502  503 -0.00000000000E+00 -0.00000000000E+00 -0.32639126768E+03  0.32639126768E+03  0.00000000000E+00 0. -1.
          2    1    1    2  501    0  0.20770486060E+02  0.46741112782E+01 -0.57227886769E+02  0.61059736582E+02  0.00000000000E+00 0.  1.
         -2    1    1    2    0  503 -0.20770486060E+02 -0.46741112782E+01 -0.26682344785E+03  0.26767146417E+03  0.00000000000E+00 0. -1.
<mgrwt>
<rscale>  2 0.21289913E+02</rscale>
<asrwt>0</asrwt>
<pdfrwt beam="1">  1       21 0.35998981E-03 0.21289913E+02</pdfrwt>
<pdfrwt beam="2">  1       21 0.50214026E-01 0.21289913E+02</pdfrwt>
<totfact> 0.50739827E+07</totfact>
</mgrwt>
</event>
<event>
 4    1  0.2754379E+004  0.2143886E+02  0.7546771E-02  0.1718141E+00
         21   -1    0    0  503  502  0.00000000000E+00  0.00000000000E+00  0.65457449881E+02  0.65457449881E+02  0.00000000000E+00 0. -1.
         21   -1    0    0  501  503 -0.00000000000E+00 -0.00000000000E+00 -0.12029606920E+02  0.12029606920E+02  0.00000000000E+00 0.  1.
          2    1    1    2  501    0 -0.21431384055E+02  0.56615794760E+00  0.17162169510E+01  0.21507444245E+02  0.00000000000E+00 0.  1.
         -2    1    1    2    0  502  0.21431384055E+02 -0.56615794760E+00  0.51711626009E+02  0.55979612556E+02  0.00000000000E+00 0. -1.
<mgrwt>
<rscale>  2 0.21438861E+02</rscale>
<asrwt>0</asrwt>
<pdfrwt beam="1">  1       21 0.10070377E-01 0.21438861E+02</pdfrwt>
<pdfrwt beam="2">  1       21 0.18507088E-02 0.21438861E+02</pdfrwt>
<totfact> 0.76117938E+07</totfact>
</mgrwt>
</event>
<event>
 4    1  0.2754379E+004  0.2204137E+02  0.7546771E-02  0.1707538E+00
         21   -1    0    0  503  502  0.00000000000E+00  0.00000000000E+00  0.19343691169E+02  0.19343691169E+02  0.00000000000E+00 0.  1.
         21   -1    0    0  501  503 -0.00000000000E+00 -0.00000000000E+00 -0.70830794209E+02  0.70830794209E+02  0.00000000000E+00 0. -1.
          2    1    1    2  501    0 -0.87540937799E+01 -0.20228389301E+02 -0.61965725003E+02  0.65769088232E+02  0.00000000000E+00 0. -1.
         -2    1    1    2    0  502  0.87540937799E+01  0.20228389301E+02  0.10478621963E+02  0.24405397146E+02  0.00000000000E+00 0.  1.
<mgrwt>
<rscale>  2 0.22041368E+02</rscale>
<asrwt>0</asrwt>
<pdfrwt beam="1">  1       21 0.29759525E-02 0.22041368E+02</pdfrwt>
<pdfrwt beam="2">  1       21 0.10897045E-01 0.22041368E+02</pdfrwt>
<totfact> 0.32379484E+07</totfact>
</mgrwt>
</event>
<event>
 4    1  0.2754379E+004  0.2216482E+02  0.7546771E-02  0.1705417E+00
         21   -1    0    0  503  502  0.00000000000E+00  0.00000000000E+00  0.86947600741E+01  0.86947600741E+01  0.00000000000E+00 0.  1.
         21   -1    0    0  501  503 -0.00000000000E+00 -0.00000000000E+00 -0.57703629956E+02  0.57703629956E+02  0.00000000000E+00 0. -1.
          2    1    1    2  501    0  0.16339989844E+02 -0.14976110690E+02 -0.29293476964E+02  0.36734002670E+02  0.00000000000E+00 0.  1.
         -2    1    1    2    0  502 -0.16339989844E+02  0.14976110690E+02 -0.19715392918E+02  0.29664387360E+02  0.00000000000E+00 0. -1.
<mgrwt>
<rscale>  2 0.22164818E+02</rscale>
<asrwt>0</asrwt>
<pdfrwt beam="1">  1       21 0.13376554E-02 0.22164818E+02</pdfrwt>
<pdfrwt beam="2">  1       21 0.88774814E-02 0.22164818E+02</pdfrwt>
<totfact> 0.15487648E+08</totfact>
</mgrwt>
</event>
<event>
 4    1  0.2754379E+004  0.2280455E+02  0.7546771E-02  0.1694698E+00
         21   -1    0    0  503  502  0.00000000000E+00  0.00000000000E+00  0.57818560312E+01  0.57818560312E+01  0.00000000000E+00 0.  1.
         21   -1    0    0  501  503 -0.00000000000E+00 -0.00000000000E+00 -0.26804271444E+03  0.26804271444E+03  0.00000000000E+00 0. -1.
          2    1    1    2  501    0 -0.17249213407E+02 -0.14916840266E+02 -0.24273189957E+03  0.24380078456E+03  0.00000000000E+00 0. -1.
         -2    1    1    2    0  502  0.17249213407E+02  0.14916840266E+02 -0.19528958839E+02  0.30023785904E+02  0.00000000000E+00 0.  1.
<mgrwt>
<rscale>  2 0.22804550E+02</rscale>
<asrwt>0</asrwt>
<pdfrwt beam="1">  1       21 0.88951659E-03 0.22804550E+02</pdfrwt>
<pdfrwt beam="2">  1       21 0.41237328E-01 0.22804550E+02</pdfrwt>
<totfact> 0.19741422E+07</totfact>
</mgrwt>
</event>
<event>
 4    1  0.2754379E+004  0.3491080E+02  0.7546771E-02  0.1549394E+00
         21   -1    0    0  501  502  0.00000000000E+00  0.00000000000E+00  0.11260525599E+02  0.11260525599E+02  0.00000000000E+00 0.  1.
         21   -1    0    0  502  503 -0.00000000000E+00 -0.00000000000E+00 -0.14730034869E+03  0.14730034869E+03  0.00000000000E+00 0. -1.
          2    1    1    2  501    0  0.27433162371E+02 -0.21591325348E+02 -0.27190839594E+02  0.44250485712E+02  0.00000000000E+00 0.  1.
         -2    1    1    2    0  503 -0.27433162371E+02  0.21591325348E+02 -0.10884898349E+03  0.11431038857E+03  0.00000000000E+00 0. -1.
<mgrwt>
<rscale>  2 0.34910797E+02</rscale>
<asrwt>0</asrwt>
<pdfrwt beam="1">  1       21 0.17323885E-02 0.34910797E+02</pdfrwt>
<pdfrwt beam="2">  1       21 0.22661593E-01 0.34910797E+02</pdfrwt>
<totfact> 0.23345950E+07</totfact>
</mgrwt>
</event>
<event>
 4    1  0.2754379E+004  0.2673901E+02  0.7546771E-02  0.1637211E+00
         21   -1    0    0  501  502  0.00000000000E+00  0.00000000000E+00  0.11787558160E+01  0.11787558160E+01  0.00000000000E+00 0. -1.
         21   -1    0    0  502  503 -0.00000000000E+00 -0.00000000000E+00 -0.68581451355E+03  0.68581451355E+03  0.00000000000E+00 0.  1.
          2    1    1    2  501    0 -0.24036662523E+02  0.11713817223E+02 -0.22554074584E+03  0.22712023841E+03  0.00000000000E+00 0.  1.
         -2    1    1    2    0  503  0.24036662523E+02 -0.11713817223E+02 -0.45909501190E+03  0.45987303096E+03  0.00000000000E+00 0. -1.
<mgrwt>
<rscale>  2 0.26739010E+02</rscale>
<asrwt>0</asrwt>
<pdfrwt beam="1">  1       21 0.18134636E-03 0.26739010E+02</pdfrwt>
<pdfrwt beam="2">  1       21 0.10551032E+00 0.26739010E+02</pdfrwt>
<totfact> 0.30994423E+07</totfact>
</mgrwt>
</event>
<event>
 4    1  0.2754379E+004  0.3323983E+02  0.7546771E-02  0.1564811E+00
         21   -1    0    0  501  502  0.00000000000E+00  0.00000000000E+00  0.17135611998E+03  0.17135611998E+03  0.00000000000E+00 0.  1.
         21   -1    0    0  502  503 -0.00000000000E+00 -0.00000000000E+00 -0.84921125107E+01  0.84921125107E+01  0.00000000000E+00 0. -1.
          2    1    1    2  501    0 -0.81265700324E-01 -0.33239733271E+02  0.12555162087E+03  0.12987723424E+03  0.00000000000E+00 0.  1.
         -2    1    1    2    0  503  0.81265700324E-01  0.33239733271E+02  0.37312386602E+02  0.49970998249E+02  0.00000000000E+00 0. -1.
<mgrwt>
<rscale>  2 0.33239833E+02</rscale>
<asrwt>0</asrwt>
<pdfrwt beam="1">  1       21 0.26362477E-01 0.33239833E+02</pdfrwt>
<pdfrwt beam="2">  1       21 0.13064790E-02 0.33239833E+02</pdfrwt>
<totfact> 0.27192321E+07</totfact>
</mgrwt>
</event>
<event>
 4    1  0.2754379E+004  0.2942593E+02  0.7546771E-02  0.1604522E+00
         21   -1    0    0  501  502  0.00000000000E+00  0.00000000000E+00  0.48848596842E+02  0.48848596842E+02  0.00000000000E+00 0.  1.
         21   -1    0    0  502  503 -0.00000000000E+00 -0.00000000000E+00 -0.18386076587E+02  0.18386076587E+02  0.00000000000E+00 0. -1.
          2    1    1    2  501    0  0.17189774189E+02 -0.23882979875E+02  0.21601425474E+02  0.36503515542E+02  0.00000000000E+00 0.  1.
         -2    1    1    2    0  503 -0.17189774189E+02  0.23882979875E+02  0.88610947806E+01  0.30731157887E+02  0.00000000000E+00 0. -1.
<mgrwt>
<rscale>  2 0.29425925E+02</rscale>
<asrwt>0</asrwt>
<pdfrwt beam="1">  1       21 0.75151687E-02 0.29425925E+02</pdfrwt>
<pdfrwt beam="2">  1       21 0.28286272E-02 0.29425925E+02</pdfrwt>
<totfact> 0.69410027E+07</totfact>
</mgrwt>
</event>
<event>
 4    1  0.2754379E+004  0.2300560E+02  0.7546771E-02  0.1691419E+00
         21   -1    0    0  501  502  0.00000000000E+00  0.00000000000E+00  0.82989442356E+01  0.82989442356E+01  0.00000000000E+00 0.  1.
         21   -1    0    0  502  503 -0.00000000000E+00 -0.00000000000E+00 -0.10600840300E+03  0.10600840300E+03  0.00000000000E+00 0. -1.
          2    1    1    2  501    0 -0.15441248718E+01 -0.22953718134E+02 -0.12779691561E+02  0.26316876984E+02  0.00000000000E+00 0.  1.
         -2    1    1    2    0  503  0.15441248718E+01  0.22953718134E+02 -0.84929767208E+02  0.87990470256E+02  0.00000000000E+00 0. -1.
<mgrwt>
<rscale>  2 0.23005597E+02</rscale>
<asrwt>0</asrwt>
<pdfrwt beam="1">  1       21 0.12767607E-02 0.23005597E+02</pdfrwt>
<pdfrwt beam="2">  1       21 0.16308984E-01 0.23005597E+02</pdfrwt>
<totfact> 0.60651823E+07</totfact>
</mgrwt>
</event>
<event>
 4    1  0.2754379E+004  0.2031852E+02  0.7546771E-02  0.1739067E+00
         21   -1    0    0  501  502  0.00000000000E+00  0.00000000000E+00  0.68319610498E+02  0.68319610498E+02  0.00000000000E+00 0. -1.
         21   -1    0    0  502  503 -0.00000000000E+00 -0.00000000000E+00 -0.64586792129E+01  0.64586792129E+01  0.00000000000E+00 0.  1.
          2    1    1    2  501    0 -0.73419174656E+01 -0.18945676604E+02  0.40417973481E+02  0.45237760714E+02  0.00000000000E+00 0. -1.
         -2    1    1    2    0  503  0.73419174656E+01  0.18945676604E+02  0.21442957804E+02  0.29540528997E+02  0.00000000000E+00 0.  1.
<mgrwt>
<rscale>  2 0.20318524E+02</rscale>
<asrwt>0</asrwt>
<pdfrwt beam="1">  1       21 0.10510709E-01 0.20318524E+02</pdfrwt>
<pdfrwt beam="2">  1       21 0.99364300E-03 0.20318524E+02</pdfrwt>
<totfact> 0.17857033E+08</totfact>
</mgrwt>
</event>
<event>
 4    1  0.2754379E+004  0.2170878E+02  0.7546771E-02  0.1713338E+00
         21   -1    0    0  503  502  0.00000000000E+00  0.00000000000E+00  0.87216603176E+02  0.87216603176E+02  0.00000000000E+00 0.  1.
         21   -1    0    0  501  503 -0.00000000000E+00 -0.00000000000E+00 -0.80877901942E+01  0.80877901942E+01  0.00000000000E+00 0. -1.
          2    1    1    2  501    0 -0.12797300578E+02  0.17535680343E+02  0.12111624380E+02  0.24858850181E+02  0.00000000000E+00 0. -1.
         -2    1    1    2    0  502  0.12797300578E+02 -0.17535680343E+02  0.67017188602E+02  0.70445543190E+02  0.00000000000E+00 0.  1.
<mgrwt>
<rscale>  2 0.21708777E+02</rscale>
<asrwt>0</asrwt>
<pdfrwt beam="1">  1       21 0.13417938E-01 0.21708777E+02</pdfrwt>
<pdfrwt beam="2">  1       21 0.12442755E-02 0.21708777E+02</pdfrwt>
<totfact> 0.86473286E+07</totfact>
</mgrwt>
</event>
<event>
 4    1  0.2754379E+004  0.3101233E+02  0.7546771E-02  0.1587161E+00
         21   -1    0    0  503  502  0.00000000000E+00  0.00000000000E+00  0.69814696534E+02  0.69814696534E+02  0.00000000000E+00 0. -1.
         21   -1    0    0  501  503 -0.00000000000E+00 -0.00000000000E+00 -0.37573355354E+02  0.37573355354E+02  0.00000000000E+00 0.  1.
          2    1    1    2  501    0 -0.27414092500E+02 -0.14499375630E+02 -0.26611081980E+02  0.40864581796E+02  0.00000000000E+00 0.  1.
         -2    1    1    2    0  502  0.27414092500E+02  0.14499375630E+02  0.58852423159E+02  0.66523470091E+02  0.00000000000E+00 0. -1.
<mgrwt>
<rscale>  2 0.31012326E+02</rscale>
<asrwt>0</asrwt>
<pdfrwt beam="1">  1       21 0.10740723E-01 0.31012326E+02</pdfrwt>
<pdfrwt beam="2">  1       21 0.57805162E-02 0.31012326E+02</pdfrwt>
<totfact> 0.12407265E+07</totfact>
</mgrwt>
</event>
<event>
 4    1  0.2754379E+004  0.2527933E+02  0.7546771E-02  0.1657022E+00
         21   -1    0    0  503  502  0.00000000000E+00  0.00000000000E+00  0.49187946920E+02  0.49187946920E+02  0.00000000000E+00 0. -1.
         21   -1    0    0  501  503 -0.00000000000E+00 -0.00000000000E+00 -0.21553903827E+02  0.21553903827E+02  0.00000000000E+00 0.  1.
          2    1    1    2  501    0  0.89819833716E+01  0.23629826592E+02 -0.84761183645E+01  0.26662507620E+02  0.00000000000E+00 0.  1.
         -2    1    1    2    0  502 -0.89819833716E+01 -0.23629826592E+02  0.36110161457E+02  0.44079343127E+02  0.00000000000E+00 0. -1.
<mgrwt>
<rscale>  2 0.25279334E+02</rscale>
<asrwt>0</asrwt>
<pdfrwt beam="1">  1       21 0.75673764E-02 0.25279334E+02</pdfrwt>
<pdfrwt beam="2">  1       21 0.33159852E-02 0.25279334E+02</pdfrwt>
<totfact> 0.51551388E+07</totfact>
</mgrwt>
</event>
<event>
 4    1  0.2754379E+004  0.2922816E+02  0.7546771E-02  0.1606780E+00
         21   -1    0    0  503  502  0.00000000000E+00  0.00000000000E+00  0.45526949548E+03  0.45526949548E+03  0.00000000000E+00 0.  1.
         21   -1    0    0  501  503 -0.00000000000E+00 -0.00000000000E+00 -0.19213925393E+01  0.19213925393E+01  0.00000000000E+00 0. -1.
          2    1    1    2  501    0 -0.68339410538E+01  0.28417998616E+02  0.19170837758E+03  0.19392366393E+03  0.00000000000E+00 0. -1.
         -2    1    1    2    0  502  0.68339410538E+01 -0.28417998616E+02  0.26163972536E+03  0.26326722409E+03  0.00000000000E+00 0.  1.
<mgrwt>
<rscale>  2 0.29228161E+02</rscale>
<asrwt>0</asrwt>
<pdfrwt beam="1">  1       21 0.70041375E-01 0.29228161E+02</pdfrwt>
<pdfrwt beam="2">  1       21 0.29559921E-03 0.29228161E+02</pdfrwt>
<totfact> 0.37233765E+07</totfact>
</mgrwt>
</event>
<event>
 4    1  0.2754379E+004  0.2051002E+02  0.7546771E-02  0.1735372E+00
         21   -1    0    0  501  502  0.00000000000E+00  0.00000000000E+00  0.55790758687E+01  0.55790758687E+01  0.00000000000E+00 0. -1.
         21   -1    0    0  502  503 -0.00000000000E+00 -0.00000000000E+00 -0.77668513100E+02  0.77668513100E+02  0.00000000000E+00 0.  1.
          2    1    1    2  501    0  0.19353269036E+02 -0.67905591974E+01 -0.28930661690E+02  0.35463275405E+02  0.00000000000E+00 0. -1.
         -2    1    1    2    0  503 -0.19353269036E+02  0.67905591974E+01 -0.43158775541E+02  0.47784313564E+02  0.00000000000E+00 0.  1.
<mgrwt>
<rscale>  2 0.20510015E+02</rscale>
<asrwt>0</asrwt>
<pdfrwt beam="1">  1       21 0.85831935E-03 0.20510015E+02</pdfrwt>
<pdfrwt beam="2">  1       21 0.11949002E-01 0.20510015E+02</pdfrwt>
<totfact> 0.18013579E+08</totfact>
</mgrwt>
</event>
<event>
 4    1  0.2754379E+004  0.2278140E+02  0.7546771E-02  0.1695078E+00
         21   -1    0    0  503  502  0.00000000000E+00  0.00000000000E+00  0.30444342570E+03  0.30444342570E+03  0.00000000000E+00 0. -1.
         21   -1    0    0  501  503 -0.00000000000E+00 -0.00000000000E+00 -0.17070847694E+01  0.17070847694E+01  0.00000000000E+00 0.  1.
          2    1    1    2  501    0  0.13899519200E+02 -0.18049804716E+02  0.15706040952E+03  0.15870401483E+03  0.00000000000E+00 0. -1.
         -2    1    1    2    0  502 -0.13899519200E+02  0.18049804716E+02  0.14567593141E+03  0.14744649564E+03  0.00000000000E+00 0.  1.
<mgrwt>
<rscale>  2 0.22781398E+02</rscale>
<asrwt>0</asrwt>
<pdfrwt beam="1">  1       21 0.46837407E-01 0.22781398E+02</pdfrwt>
<pdfrwt beam="2">  1       21 0.26262867E-03 0.22781398E+02</pdfrwt>
<totfact> 0.93432679E+07</totfact>
</mgrwt>
</event>
<event>
 4    1  0.2754379E+004  0.2033778E+02  0.7546771E-02  0.1738693E+00
         21   -1    0    0  503  502  0.00000000000E+00  0.00000000000E+00  0.39248973309E+02  0.39248973309E+02  0.00000000000E+00 0.  1.
         21   -1    0    0  501  503 -0.00000000000E+00 -0.00000000000E+00 -0.11303998657E+02  0.11303998657E+02  0.00000000000E+00 0. -1.
          2    1    1    2  501    0 -0.12886089923E+02  0.15734482829E+02  0.20550173773E+02  0.28912538898E+02  0.00000000000E+00 0.  1.
         -2    1    1    2    0  502  0.12886089923E+02 -0.15734482829E+02  0.73948008787E+01  0.21640433069E+02  0.00000000000E+00 0. -1.
<mgrwt>
<rscale>  2 0.20337779E+02</rscale>
<asrwt>0</asrwt>
<pdfrwt beam="1">  1       21 0.60383035E-02 0.20337779E+02</pdfrwt>
<pdfrwt beam="2">  1       21 0.17390767E-02 0.20337779E+02</pdfrwt>
<totfact> 0.18896038E+08</totfact>
</mgrwt>
</event>
<event>
 4    1  0.2754379E+004  0.3219488E+02  0.7546771E-02  0.1575022E+00
         21   -1    0    0  501  502  0.00000000000E+00  0.00000000000E+00  0.23511905239E+01  0.23511905239E+01  0.00000000000E+00 0. -1.
         21   -1    0    0  502  503 -0.00000000000E+00 -0.00000000000E+00 -0.62439545320E+03  0.62439545320E+03  0.00000000000E+00 0.  1.
          2    1    1    2  501    0 -0.31520967811E+02 -0.65527861846E+01 -0.14111564044E+03  0.14474161252E+03  0.00000000000E+00 0.  1.
         -2    1    1    2    0  503  0.31520967811E+02  0.65527861846E+01 -0.48092862223E+03  0.48200503120E+03  0.00000000000E+00 0. -1.
<mgrwt>
<rscale>  2 0.32194882E+02</rscale>
<asrwt>0</asrwt>
<pdfrwt beam="1">  1       21 0.36172132E-03 0.32194882E+02</pdfrwt>
<pdfrwt beam="2">  1       21 0.96060919E-01 0.32194882E+02</pdfrwt>
<totfact> 0.14317234E+07</totfact>
</mgrwt>
</event>
<event>
 4    1  0.2754379E+004  0.2642313E+02  0.7546771E-02  0.1641364E+00
         21   -1    0    0  501  502  0.00000000000E+00  0.00000000000E+00  0.10147914703E+03  0.10147914703E+03  0.00000000000E+00 0. -1.
         21   -1    0    0  502  503 -0.00000000000E+00 -0.00000000000E+00 -0.74767966442E+01  0.74767966442E+01  0.00000000000E+00 0.  1.
          2    1    1    2  501    0 -0.21661854508E+02 -0.15130951274E+02  0.62391864157E+02  0.67756374904E+02  0.00000000000E+00 0. -1.
         -2    1    1    2    0  503  0.21661854508E+02  0.15130951274E+02  0.31610486226E+02  0.41199568768E+02  0.00000000000E+00 0.  1.
<mgrwt>
<rscale>  2 0.26423127E+02</rscale>
<asrwt>0</asrwt>
<pdfrwt beam="1">  1       21 0.15612176E-01 0.26423127E+02</pdfrwt>
<pdfrwt beam="2">  1       21 0.11502765E-02 0.26423127E+02</pdfrwt>
<totfact> 0.79294129E+07</totfact>
</mgrwt>
</event>
<event>
 4    1  0.2754379E+004  0.2808775E+02  0.7546771E-02  0.1620242E+00
         21   -1    0    0  501  502  0.00000000000E+00  0.00000000000E+00  0.14311445015E+04  0.14311445015E+04  0.00000000000E+00 0.  1.
         21   -1    0    0  502  503 -0.00000000000E+00 -0.00000000000E+00 -0.56785465489E+00  0.56785465489E+00  0.00000000000E+00 0. -1.
          2    1    1    2  501    0  0.26874628199E+02 -0.81655289456E+01  0.59288483235E+03  0.59354978387E+03  0.00000000000E+00 0. -1.
         -2    1    1    2    0  503 -0.26874628199E+02  0.81655289456E+01  0.83769181445E+03  0.83816257224E+03  0.00000000000E+00 0.  1.
<mgrwt>
<rscale>  2 0.28087747E+02</rscale>
<asrwt>0</asrwt>
<pdfrwt beam="1">  1       21 0.22017319E+00 0.28087747E+02</pdfrwt>
<pdfrwt beam="2">  1       21 0.87363400E-04 0.28087747E+02</pdfrwt>
<totfact> 0.14953723E+07</totfact>
</mgrwt>
</event>
<event>
 4    1  0.2754379E+004  0.2995716E+02  0.7546771E-02  0.1598563E+00
         21   -1    0    0  503  502  0.00000000000E+00  0.00000000000E+00  0.60079700706E+03  0.60079700706E+03  0.00000000000E+00 0.  1.
         21   -1    0    0  501  503 -0.00000000000E+00 -0.00000000000E+00 -0.18588148789E+01  0.18588148789E+01  0.00000000000E+00 0. -1.
          2    1    1    2  501    0  0.27163085024E+02 -0.12633230644E+02  0.16592796380E+03  0.16861055980E+03  0.00000000000E+00 0. -1.
         -2    1    1    2    0  502 -0.27163085024E+02  0.12633230644E+02  0.43301022838E+03  0.43404526214E+03  0.00000000000E+00 0.  1.
<mgrwt>
<rscale>  2 0.29957164E+02</rscale>
<asrwt>0</asrwt>
<pdfrwt beam="1">  1       21 0.92430155E-01 0.29957164E+02</pdfrwt>
<pdfrwt beam="2">  1       21 0.28597200E-03 0.29957164E+02</pdfrwt>
<totfact> 0.21783404E+07</totfact>
</mgrwt>
</event>
<event>
 4    1  0.2754379E+004  0.2221824E+02  0.7546771E-02  0.1704505E+00
         21   -1    0    0  501  502  0.00000000000E+00  0.00000000000E+00  0.34310664142E+03  0.34310664142E+03  0.00000000000E+00 0. -1.
         21   -1    0    0  502  503 -0.00000000000E+00 -0.00000000000E+00 -0.25048437269E+02  0.25048437269E+02  0.00000000000E+00 0.  1.
          2    1    1    2  501    0  0.14940504377E+02 -0.16444801962E+02  0.33774181679E+03  0.33847183781E+03  0.00000000000E+00 0. -1.
         -2    1    1    2    0  503 -0.14940504377E+02  0.16444801962E+02 -0.19683612638E+02  0.29683240879E+02  0.00000000000E+00 0.  1.
<mgrwt>
<rscale>  2 0.22218240E+02</rscale>
<asrwt>0</asrwt>
<pdfrwt beam="1">  1       21 0.52785634E-01 0.22218240E+02</pdfrwt>
<pdfrwt beam="2">  1       21 0.38536060E-02 0.22218240E+02</pdfrwt>
<totfact> 0.12964605E+06</totfact>
</mgrwt>
</event>
<event>
 4    1  0.2754379E+004  0.2296885E+02  0.7546771E-02  0.1692016E+00
         21   -1    0    0  501  502  0.00000000000E+00  0.00000000000E+00  0.12597206396E+04  0.12597206396E+04  0.00000000000E+00 0.  1.
         21   -1    0    0  502  503 -0.00000000000E+00 -0.00000000000E+00 -0.58722835456E+00  0.58722835456E+00  0.00000000000E+00 0. -1.
          2    1    1    2  501    0 -0.59846995383E+00 -0.22961049507E+02  0.96705122828E+03  0.96732396129E+03  0.00000000000E+00 0.  1.
         -2    1    1    2    0  503  0.59846995383E+00  0.22961049507E+02  0.29208218298E+03  0.29298390668E+03  0.00000000000E+00 0. -1.
<mgrwt>
<rscale>  2 0.22968848E+02</rscale>
<asrwt>0</asrwt>
<pdfrwt beam="1">  1       21 0.19380101E+00 0.22968848E+02</pdfrwt>
<pdfrwt beam="2">  1       21 0.90343832E-04 0.22968848E+02</pdfrwt>
<totfact> 0.19466472E+07</totfact>
</mgrwt>
</event>
<event>
 4    1  0.2754379E+004  0.2580178E+02  0.7546771E-02  0.1649746E+00
         21   -1    0    0  503  502  0.00000000000E+00  0.00000000000E+00  0.78002351422E+01  0.78002351422E+01  0.00000000000E+00 0.  1.
         21   -1    0    0  501  503 -0.00000000000E+00 -0.00000000000E+00 -0.85462495723E+02  0.85462495723E+02  0.00000000000E+00 0. -1.
          2    1    1    2  501    0 -0.72705896565E+01  0.24756222318E+02 -0.40540280450E+02  0.48054618471E+02  0.00000000000E+00 0. -1.
         -2    1    1    2    0  502  0.72705896565E+01 -0.24756222318E+02 -0.37121980131E+02  0.45208112395E+02  0.00000000000E+00 0.  1.
<mgrwt>
<rscale>  2 0.25801783E+02</rscale>
<asrwt>0</asrwt>
<pdfrwt beam="1">  1       21 0.12000361E-02 0.25801783E+02</pdfrwt>
<pdfrwt beam="2">  1       21 0.13148077E-01 0.25801783E+02</pdfrwt>
<totfact> 0.99081421E+07</totfact>
</mgrwt>
</event>
<event>
 4    1  0.2754379E+004  0.2637848E+02  0.7546771E-02  0.1641957E+00
         21   -1    0    0  501  502  0.00000000000E+00  0.00000000000E+00  0.10013814616E+03  0.10013814616E+03  0.00000000000E+00 0.  1.
         21   -1    0    0  502  503 -0.00000000000E+00 -0.00000000000E+00 -0.10183771921E+02  0.10183771921E+02  0.00000000000E+00 0. -1.
          2    1    1    2  501    0 -0.22667360677E+02 -0.13491299560E+02  0.76067361258E+02  0.80511290219E+02  0.00000000000E+00 0.  1.
         -2    1    1    2    0  503  0.22667360677E+02  0.13491299560E+02  0.13887012976E+02  0.29810627858E+02  0.00000000000E+00 0. -1.
<mgrwt>
<rscale>  2 0.26378484E+02</rscale>
<asrwt>0</asrwt>
<pdfrwt beam="1">  1       21 0.15405868E-01 0.26378484E+02</pdfrwt>
<pdfrwt beam="2">  1       21 0.15667342E-02 0.26378484E+02</pdfrwt>
<totfact> 0.50663720E+07</totfact>
</mgrwt>
</event>
<event>
 4    1  0.2754379E+004  0.2362714E+02  0.7546771E-02  0.1681541E+00
         21   -1    0    0  503  502  0.00000000000E+00  0.00000000000E+00  0.15273069164E+03  0.15273069164E+03  0.00000000000E+00 0. -1.
         21   -1    0    0  501  503 -0.00000000000E+00 -0.00000000000E+00 -0.39652898927E+01  0.39652898927E+01  0.00000000000E+00 0.  1.
          2    1    1    2  501    0 -0.22855423815E+02 -0.59892873503E+01  0.52468658251E+02  0.57543045274E+02  0.00000000000E+00 0. -1.
         -2    1    1    2    0  502  0.22855423815E+02  0.59892873503E+01  0.96296743493E+02  0.99152936256E+02  0.00000000000E+00 0.  1.
<mgrwt>
<rscale>  2 0.23627145E+02</rscale>
<asrwt>0</asrwt>
<pdfrwt beam="1">  1       21 0.23497025E-01 0.23627145E+02</pdfrwt>
<pdfrwt beam="2">  1       21 0.61004472E-03 0.23627145E+02</pdfrwt>
<totfact> 0.97702103E+07</totfact>
</mgrwt>
</event>
<event>
 4    1  0.2754379E+004  0.3046272E+02  0.7546771E-02  0.1593030E+00
         21   -1    0    0  501  502  0.00000000000E+00  0.00000000000E+00  0.10287208800E+02  0.10287208800E+02  0.00000000000E+00 0.  1.
         21   -1    0    0  502  503 -0.00000000000E+00 -0.00000000000E+00 -0.97121303171E+02  0.97121303171E+02  0.00000000000E+00 0. -1.
          2    1    1    2  501    0 -0.18163097533E+02 -0.24455657890E+02 -0.29087630886E+02  0.42119681687E+02  0.00000000000E+00 0.  1.
         -2    1    1    2    0  503  0.18163097533E+02  0.24455657890E+02 -0.57746463485E+02  0.65288830284E+02  0.00000000000E+00 0. -1.
<mgrwt>
<rscale>  2 0.30462720E+02</rscale>
<asrwt>0</asrwt>
<pdfrwt beam="1">  1       21 0.15826475E-02 0.30462720E+02</pdfrwt>
<pdfrwt beam="2">  1       21 0.14941739E-01 0.30462720E+02</pdfrwt>
<totfact> 0.54329224E+07</totfact>
</mgrwt>
</event>
<event>
 4    1  0.2754379E+004  0.2365546E+02  0.7546771E-02  0.1681100E+00
         21   -1    0    0  501  502  0.00000000000E+00  0.00000000000E+00  0.17288413246E+03  0.17288413246E+03  0.00000000000E+00 0.  1.
         21   -1    0    0  502  503 -0.00000000000E+00 -0.00000000000E+00 -0.47085916314E+01  0.47085916314E+01  0.00000000000E+00 0. -1.
          2    1    1    2  501    0 -0.20788079723E+02 -0.11288787405E+02  0.13373347549E+03  0.13580951162E+03  0.00000000000E+00 0.  1.
         -2    1    1    2    0  503  0.20788079723E+02  0.11288787405E+02  0.34442065333E+02  0.41783212467E+02  0.00000000000E+00 0. -1.
<mgrwt>
<rscale>  2 0.23655464E+02</rscale>
<asrwt>0</asrwt>
<pdfrwt beam="1">  1       21 0.26597554E-01 0.23655464E+02</pdfrwt>
<pdfrwt beam="2">  1       21 0.72439885E-03 0.23655464E+02</pdfrwt>
<totfact> 0.60674265E+07</totfact>
</mgrwt>
</event>
<event>
 4    1  0.2754379E+004  0.2394681E+02  0.7546771E-02  0.1676607E+00
         21   -1    0    0  503  502  0.00000000000E+00  0.00000000000E+00  0.15969457082E+02  0.15969457082E+02  0.00000000000E+00 0.  1.
         21   -1    0    0  501  503 -0.00000000000E+00 -0.00000000000E+00 -0.11069836158E+03  0.11069836158E+03  0.00000000000E+00 0. -1.
          2    1    1    2  501    0  0.14952856652E+02 -0.18704596479E+02 -0.99422171469E+02  0.10226542931E+03  0.00000000000E+00 0. -1.
         -2    1    1    2    0  502 -0.14952856652E+02  0.18704596479E+02  0.46932669693E+01  0.24402389357E+02  0.00000000000E+00 0.  1.
<mgrwt>
<rscale>  2 0.23946813E+02</rscale>
<asrwt>0</asrwt>
<pdfrwt beam="1">  1       21 0.24568397E-02 0.23946813E+02</pdfrwt>
<pdfrwt beam="2">  1       21 0.17030516E-01 0.23946813E+02</pdfrwt>
<totfact> 0.20888885E+07</totfact>
</mgrwt>
</event>
<event>
 4    1  0.2754379E+004  0.2898031E+02  0.7546771E-02  0.1609641E+00
         21   -1    0    0  501  502  0.00000000000E+00  0.00000000000E+00  0.78828434121E+01  0.78828434121E+01  0.00000000000E+00 0.  1.
         21   -1    0    0  502  503 -0.00000000000E+00 -0.00000000000E+00 -0.19074030984E+03  0.19074030984E+03  0.00000000000E+00 0. -1.
          2    1    1    2  501    0  0.13937887260E+02 -0.25408534592E+02 -0.25446217067E+02  0.38566414073E+02  0.00000000000E+00 0.  1.
         -2    1    1    2    0  503 -0.13937887260E+02  0.25408534592E+02 -0.15741124936E+03  0.16005673918E+03  0.00000000000E+00 0. -1.
<mgrwt>
<rscale>  2 0.28980309E+02</rscale>
<asrwt>0</asrwt>
<pdfrwt beam="1">  1       21 0.12127453E-02 0.28980309E+02</pdfrwt>
<pdfrwt beam="2">  1       21 0.29344660E-01 0.28980309E+02</pdfrwt>
<totfact> 0.24425426E+07</totfact>
</mgrwt>
</event>
<event>
 4    1  0.2754379E+004  0.2147389E+02  0.7546771E-02  0.1717513E+00
         21   -1    0    0  503  502  0.00000000000E+00  0.00000000000E+00  0.38471852348E+03  0.38471852348E+03  0.00000000000E+00 0.  1.
         21   -1    0    0  501  503 -0.00000000000E+00 -0.00000000000E+00 -0.52224746216E+01  0.52224746216E+01  0.00000000000E+00 0. -1.
          2    1    1    2  501    0 -0.20111105676E+02  0.75280521595E+01  0.18607711997E+02  0.28414346492E+02  0.00000000000E+00 0. -1.
         -2    1    1    2    0  502  0.20111105676E+02 -0.75280521595E+01  0.36088833686E+03  0.36152665161E+03  0.00000000000E+00 0.  1.
<mgrwt>
<rscale>  2 0.21473894E+02</rscale>
<asrwt>0</asrwt>
<pdfrwt beam="1">  1       21 0.59187443E-01 0.21473894E+02</pdfrwt>
<pdfrwt beam="2">  1       21 0.80345794E-03 0.21473894E+02</pdfrwt>
<totfact> 0.11273290E+07</totfact>
</mgrwt>
</event>
<event>
 4    1  0.2754379E+004  0.2118245E+02  0.7546771E-02  0.1722787E+00
         21   -1    0    0  503  502  0.00000000000E+00  0.00000000000E+00  0.99190737807E+02  0.99190737807E+02  0.00000000000E+00 0. -1.
         21   -1    0    0  501  503 -0.00000000000E+00 -0.00000000000E+00 -0.26220156908E+02  0.26220156908E+02  0.00000000000E+00 0.  1.
          2    1    1    2  501    0 -0.83068406126E+01  0.19485701533E+02 -0.20555212435E+02  0.29516316224E+02  0.00000000000E+00 0.  1.
         -2    1    1    2    0  502  0.83068406126E+01 -0.19485701533E+02  0.93525793334E+02  0.95894578491E+02  0.00000000000E+00 0. -1.
<mgrwt>
<rscale>  2 0.21182449E+02</rscale>
<asrwt>0</asrwt>
<pdfrwt beam="1">  1       21 0.15260113E-01 0.21182449E+02</pdfrwt>
<pdfrwt beam="2">  1       21 0.40338703E-02 0.21182449E+02</pdfrwt>
<totfact> 0.11336075E+07</totfact>
</mgrwt>
</event>
<event>
 4    1  0.2754379E+004  0.3498730E+02  0.7546771E-02  0.1548713E+00
         21   -1    0    0  501  502  0.00000000000E+00  0.00000000000E+00  0.13275966616E+03  0.13275966616E+03  0.00000000000E+00 0.  1.
         21   -1    0    0  502  503 -0.00000000000E+00 -0.00000000000E+00 -0.92600832909E+01  0.92600832909E+01  0.00000000000E+00 0. -1.
          2    1    1    2  501    0 -0.33722238379E+02 -0.93231941397E+01  0.57107484638E+02  0.66972950599E+02  0.00000000000E+00 0.  1.
         -2    1    1    2    0  503  0.33722238379E+02  0.93231941397E+01  0.66392098226E+02  0.75046798847E+02  0.00000000000E+00 0. -1.
<mgrwt>
<rscale>  2 0.34987302E+02</rscale>
<asrwt>0</asrwt>
<pdfrwt beam="1">  1       21 0.20424563E-01 0.34987302E+02</pdfrwt>
<pdfrwt beam="2">  1       21 0.14246283E-02 0.34987302E+02</pdfrwt>
<totfact> 0.38037852E+07</totfact>
</mgrwt>
</event>
<event>
 4    1  0.2754379E+004  0.2499664E+02  0.7546771E-02  0.1661050E+00
         21   -1    0    0  503  502  0.00000000000E+00  0.00000000000E+00  0.15061071225E+01  0.15061071225E+01  0.00000000000E+00 0.  1.
         21   -1    0    0  501  503 -0.00000000000E+00 -0.00000000000E+00 -0.45189804476E+03  0.45189804476E+03  0.00000000000E+00 0. -1.
          2    1    1    2  501    0  0.20430622235E+02  0.14402136957E+02 -0.29009333706E+03  0.29116829511E+03  0.00000000000E+00 0. -1.
         -2    1    1    2    0  502 -0.20430622235E+02 -0.14402136957E+02 -0.16029860057E+03  0.16223585676E+03  0.00000000000E+00 0.  1.
<mgrwt>
<rscale>  2 0.24996637E+02</rscale>
<asrwt>0</asrwt>
<pdfrwt beam="1">  1       21 0.23170874E-03 0.24996637E+02</pdfrwt>
<pdfrwt beam="2">  1       21 0.69522792E-01 0.24996637E+02</pdfrwt>
<totfact> 0.52264677E+07</totfact>
</mgrwt>
</event>
<event>
 4    1  0.2754379E+004  0.2857840E+02  0.7546771E-02  0.1614356E+00
         21   -1    0    0  501  502  0.00000000000E+00  0.00000000000E+00  0.27618320097E+02  0.27618320097E+02  0.00000000000E+00 0. -1.
         21   -1    0    0  502  503 -0.00000000000E+00 -0.00000000000E+00 -0.60676099050E+02  0.60676099050E+02  0.00000000000E+00 0.  1.
          2    1    1    2  501    0 -0.28309363241E+02 -0.39121224066E+01  0.15079641372E+02  0.32312850892E+02  0.00000000000E+00 0. -1.
         -2    1    1    2    0  503  0.28309363241E+02  0.39121224066E+01 -0.48137420325E+02  0.55981568256E+02  0.00000000000E+00 0.  1.
<mgrwt>
<rscale>  2 0.28578397E+02</rscale>
<asrwt>0</asrwt>
<pdfrwt beam="1">  1       21 0.42489724E-02 0.28578397E+02</pdfrwt>
<pdfrwt beam="2">  1       21 0.93347843E-02 0.28578397E+02</pdfrwt>
<totfact> 0.25341713E+07</totfact>
</mgrwt>
</event>
<event>
 4    1  0.2754379E+004  0.2228303E+02  0.7546771E-02  0.1703403E+00
         21   -1    0    0  503  502  0.00000000000E+00  0.00000000000E+00  0.25501279914E+01  0.25501279914E+01  0.00000000000E+00 0.  1.
         21   -1    0    0  501  503 -0.00000000000E+00 -0.00000000000E+00 -0.22994922585E+03  0.22994922585E+03  0.00000000000E+00 0. -1.
          2    1    1    2  501    0  0.21729064668E+02  0.49377093546E+01 -0.15920823168E+03  0.16076005182E+03  0.00000000000E+00 0. -1.
         -2    1    1    2    0  502 -0.21729064668E+02 -0.49377093546E+01 -0.68190866181E+02  0.71739302028E+02  0.00000000000E+00 0.  1.
<mgrwt>
<rscale>  2 0.22283025E+02</rscale>
<asrwt>0</asrwt>
<pdfrwt beam="1">  1       21 0.39232726E-03 0.22283025E+02</pdfrwt>
<pdfrwt beam="2">  1       21 0.35376815E-01 0.22283025E+02</pdfrwt>
<totfact> 0.87861540E+07</totfact>
</mgrwt>
</event>
<event>
 4    1  0.2754379E+004  0.2234857E+02  0.7546771E-02  0.1702292E+00
         21   -1    0    0  501  502  0.00000000000E+00  0.00000000000E+00  0.45016869379E+02  0.45016869379E+02  0.00000000000E+00 0.  1.
         21   -1    0    0  502  503 -0.00000000000E+00 -0.00000000000E+00 -0.13511463478E+02  0.13511463478E+02  0.00000000000E+00 0. -1.
          2    1    1    2  501    0  0.35061087375E+01 -0.22071831078E+02  0.28128761243E+02  0.35926114940E+02  0.00000000000E+00 0.  1.
         -2    1    1    2    0  503 -0.35061087375E+01  0.22071831078E+02  0.33766446582E+01  0.22602217917E+02  0.00000000000E+00 0. -1.
<mgrwt>
<rscale>  2 0.22348569E+02</rscale>
<asrwt>0</asrwt>
<pdfrwt beam="1">  1       21 0.69256722E-02 0.22348569E+02</pdfrwt>
<pdfrwt beam="2">  1       21 0.20786867E-02 0.22348569E+02</pdfrwt>
<totfact> 0.11882662E+08</totfact>
</mgrwt>
</event>
<event>
 4    1  0.2754379E+004  0.2761212E+02  0.7546771E-02  0.1626090E+00
         21   -1    0    0  503  502  0.00000000000E+00  0.00000000000E+00  0.17088826584E+02  0.17088826584E+02  0.00000000000E+00 0.  1.
         21   -1    0    0  501  503 -0.00000000000E+00 -0.00000000000E+00 -0.71542397933E+02  0.71542397933E+02  0.00000000000E+00 0. -1.
          2    1    1    2  501    0  0.14954496286E+02 -0.23211893975E+02 -0.54414144478E+02  0.61019079806E+02  0.00000000000E+00 0.  1.
         -2    1    1    2    0  502 -0.14954496286E+02  0.23211893975E+02 -0.39426870567E-01  0.27612144711E+02  0.00000000000E+00 0. -1.
<mgrwt>
<rscale>  2 0.27612117E+02</rscale>
<asrwt>0</asrwt>
<pdfrwt beam="1">  1       21 0.26290503E-02 0.27612117E+02</pdfrwt>
<pdfrwt beam="2">  1       21 0.11006523E-01 0.27612117E+02</pdfrwt>
<totfact> 0.40713442E+07</totfact>
</mgrwt>
</event>
<event>
 4    1  0.2754379E+004  0.2112599E+02  0.7546771E-02  0.1723821E+00
         21   -1    0    0  503  502  0.00000000000E+00  0.00000000000E+00  0.14035579081E+02  0.14035579081E+02  0.00000000000E+00 0.  1.
         21   -1    0    0  501  503 -0.00000000000E+00 -0.00000000000E+00 -0.42153682551E+02  0.42153682551E+02  0.00000000000E+00 0. -1.
          2    1    1    2  501    0  0.15129487965E+02 -0.14744693331E+02 -0.27983849358E+02  0.35062846610E+02  0.00000000000E+00 0. -1.
         -2    1    1    2    0  502 -0.15129487965E+02  0.14744693331E+02 -0.13425411182E+00  0.21126415022E+02  0.00000000000E+00 0.  1.
<mgrwt>
<rscale>  2 0.21125988E+02</rscale>
<asrwt>0</asrwt>
<pdfrwt beam="1">  1       21 0.21593199E-02 0.21125988E+02</pdfrwt>
<pdfrwt beam="2">  1       21 0.64851818E-02 0.21125988E+02</pdfrwt>
<totfact> 0.12254073E+08</totfact>
</mgrwt>
</event>
<event>
 4    1  0.2754379E+004  0.2649706E+02  0.7546771E-02  0.1640386E+00
         21   -1    0    0  503  502  0.00000000000E+00  0.00000000000E+00  0.28271578376E+03  0.28271578376E+03  0.00000000000E+00 0.  1.
         21   -1    0    0  501  503 -0.00000000000E+00 -0.00000000000E+00 -0.24990121569E+01  0.24990121569E+01  0.00000000000E+00 0. -1.
          2    1    1    2  501    0  0.22825359182E+02  0.13457237515E+02  0.15138278237E+03  0.15368422515E+03  0.00000000000E+00 0.  1.
         -2    1    1    2    0  502 -0.22825359182E+02 -0.13457237515E+02  0.12883398923E+03  0.13153057076E+03  0.00000000000E+00 0. -1.
<mgrwt>
<rscale>  2 0.26497061E+02</rscale>
<asrwt>0</asrwt>
<pdfrwt beam="1">  1       21 0.43494711E-01 0.26497061E+02</pdfrwt>
<pdfrwt beam="2">  1       21 0.38446363E-03 0.26497061E+02</pdfrwt>
<totfact> 0.63993102E+07</totfact>
</mgrwt>
</event>
<event>
 4    1  0.2754379E+004  0.2199389E+02  0.7546771E-02  0.1708358E+00
         21   -1    0    0  503  502  0.00000000000E+00  0.00000000000E+00  0.15559068743E+01  0.15559068743E+01  0.00000000000E+00 0. -1.
         21   -1    0    0  501  503 -0.00000000000E+00 -0.00000000000E+00 -0.87148954455E+03  0.87148954455E+03  0.00000000000E+00 0.  1.
          2    1    1    2  501    0 -0.14870821961E+02  0.16204620270E+02 -0.78507185659E+03  0.78537987692E+03  0.00000000000E+00 0.  1.
         -2    1    1    2    0  502  0.14870821961E+02 -0.16204620270E+02 -0.84861781093E+02  0.87665574510E+02  0.00000000000E+00 0. -1.
<mgrwt>
<rscale>  2 0.21993887E+02</rscale>
<asrwt>0</asrwt>
<pdfrwt beam="1">  1       21 0.23936996E-03 0.21993887E+02</pdfrwt>
<pdfrwt beam="2">  1       21 0.13407550E+00 0.21993887E+02</pdfrwt>
<totfact> 0.11647056E+07</totfact>
</mgrwt>
</event>
<event>
 4    1  0.2754379E+004  0.2122804E+02  0.7546771E-02  0.1721955E+00
         21   -1    0    0  503  502  0.00000000000E+00  0.00000000000E+00  0.36347052748E+01  0.36347052748E+01  0.00000000000E+00 0.  1.
         21   -1    0    0  501  503 -0.00000000000E+00 -0.00000000000E+00 -0.25353465189E+03  0.25353465189E+03  0.00000000000E+00 0. -1.
          2    1    1    2  501    0 -0.20096655682E+02  0.68376892909E+01 -0.21686734939E+03  0.21790382465E+03  0.00000000000E+00 0. -1.
         -2    1    1    2    0  502  0.20096655682E+02 -0.68376892909E+01 -0.33032597225E+02  0.39265532518E+02  0.00000000000E+00 0.  1.
<mgrwt>
<rscale>  2 0.21228037E+02</rscale>
<asrwt>0</asrwt>
<pdfrwt beam="1">  1       21 0.55918547E-03 0.21228037E+02</pdfrwt>
<pdfrwt beam="2">  1       21 0.39005328E-01 0.21228037E+02</pdfrwt>
<totfact> 0.42986097E+07</totfact>
</mgrwt>
</event>
<event>
 4    1  0.2754379E+004  0.4602282E+02  0.7546771E-02  0.1468056E+00
         21   -1    0    0  501  502  0.00000000000E+00  0.00000000000E+00  0.10109464434E+04  0.10109464434E+04  0.00000000000E+00 0.  1.
         21   -1    0    0  502  503 -0.00000000000E+00 -0.00000000000E+00 -0.37196146113E+01  0.37196146113E+01  0.00000000000E+00 0. -1.
          2    1    1    2  501    0 -0.11452329990E+02 -0.44575154213E+02  0.83888535150E+03  0.84014685216E+03  0.00000000000E+00 0.  1.
         -2    1    1    2    0  503  0.11452329990E+02  0.44575154213E+02  0.16834147734E+03  0.17451920590E+03  0.00000000000E+00 0. -1.
<mgrwt>
<rscale>  2 0.46022823E+02</rscale>
<asrwt>0</asrwt>
<pdfrwt beam="1">  1       21 0.15553000E+00 0.46022823E+02</pdfrwt>
<pdfrwt beam="2">  1       21 0.57224920E-03 0.46022823E+02</pdfrwt>
<totfact> 0.24180999E+06</totfact>
</mgrwt>
</event>
<event>
 4    1  0.2754379E+004  0.2397016E+02  0.7546771E-02  0.1676250E+00
         21   -1    0    0  501  502  0.00000000000E+00  0.00000000000E+00  0.56404823783E+02  0.56404823783E+02  0.00000000000E+00 0.  1.
         21   -1    0    0  502  503 -0.00000000000E+00 -0.00000000000E+00 -0.57290001856E+02  0.57290001856E+02  0.00000000000E+00 0. -1.
          2    1    1    2  501    0 -0.19385742823E+02 -0.14098284561E+02  0.51103748005E+02  0.56446095636E+02  0.00000000000E+00 0.  1.
         -2    1    1    2    0  503  0.19385742823E+02  0.14098284561E+02 -0.51988926078E+02  0.57248730004E+02  0.00000000000E+00 0. -1.
<mgrwt>
<rscale>  2 0.23970162E+02</rscale>
<asrwt>0</asrwt>
<pdfrwt beam="1">  1       21 0.86776653E-02 0.23970162E+02</pdfrwt>
<pdfrwt beam="2">  1       21 0.88138464E-02 0.23970162E+02</pdfrwt>
<totfact> 0.84947796E+06</totfact>
</mgrwt>
</event>
<event>
 4    1  0.2754379E+004  0.2074634E+02  0.7546771E-02  0.1730881E+00
         21   -1    0    0  501  502  0.00000000000E+00  0.00000000000E+00  0.21725220332E+02  0.21725220332E+02  0.00000000000E+00 0. -1.
         21   -1    0    0  502  503 -0.00000000000E+00 -0.00000000000E+00 -0.19866148023E+02  0.19866148023E+02  0.00000000000E+00 0.  1.
          2    1    1    2  501    0 -0.18646561864E+02 -0.90948484908E+01  0.20196180999E+01  0.20844409219E+02  0.00000000000E+00 0. -1.
         -2    1    1    2    0  503  0.18646561864E+02  0.90948484908E+01 -0.16054579151E+00  0.20746959136E+02  0.00000000000E+00 0.  1.
<mgrwt>
<rscale>  2 0.20746338E+02</rscale>
<asrwt>0</asrwt>
<pdfrwt beam="1">  1       21 0.33423416E-02 0.20746338E+02</pdfrwt>
<pdfrwt beam="2">  1       21 0.30563305E-02 0.20746338E+02</pdfrwt>
<totfact> 0.20335642E+08</totfact>
</mgrwt>
</event>
<event>
 4    1  0.2754379E+004  0.3848759E+02  0.7546771E-02  0.1519646E+00
         21   -1    0    0  503  502  0.00000000000E+00  0.00000000000E+00  0.38508769106E+01  0.38508769106E+01  0.00000000000E+00 0.  1.
         21   -1    0    0  501  503 -0.00000000000E+00 -0.00000000000E+00 -0.42657402707E+03  0.42657402707E+03  0.00000000000E+00 0. -1.
          2    1    1    2  501    0 -0.91441730557E+01  0.37385544220E+02 -0.27881867708E+03  0.28146251883E+03  0.00000000000E+00 0.  1.
         -2    1    1    2    0  502  0.91441730557E+01 -0.37385544220E+02 -0.14390447308E+03  0.14896238515E+03  0.00000000000E+00 0. -1.
<mgrwt>
<rscale>  2 0.38487593E+02</rscale>
<asrwt>0</asrwt>
<pdfrwt beam="1">  1       21 0.59244226E-03 0.38487593E+02</pdfrwt>
<pdfrwt beam="2">  1       21 0.65626811E-01 0.38487593E+02</pdfrwt>
<totfact> 0.15853225E+07</totfact>
</mgrwt>
</event>
<event>
 4    1  0.2754379E+004  0.2592079E+02  0.7546771E-02  0.1648118E+00
         21   -1    0    0  501  502  0.00000000000E+00  0.00000000000E+00  0.20054915119E+03  0.20054915119E+03  0.00000000000E+00 0.  1.
         21   -1    0    0  502  503 -0.00000000000E+00 -0.00000000000E+00 -0.84278357877E+01  0.84278357877E+01  0.00000000000E+00 0. -1.
          2    1    1    2  501    0 -0.22377140454E+02  0.13082470162E+02  0.17716415309E+03  0.17905034091E+03  0.00000000000E+00 0.  1.
         -2    1    1    2    0  503  0.22377140454E+02 -0.13082470162E+02  0.14957162316E+02  0.29926646070E+02  0.00000000000E+00 0. -1.
<mgrwt>
<rscale>  2 0.25920792E+02</rscale>
<asrwt>0</asrwt>
<pdfrwt beam="1">  1       21 0.30853712E-01 0.25920792E+02</pdfrwt>
<pdfrwt beam="2">  1       21 0.12965903E-02 0.25920792E+02</pdfrwt>
<totfact> 0.19693837E+07</totfact>
</mgrwt>
</event>
<event>
 4    1  0.2754379E+004  0.4597039E+02  0.7546771E-02  0.1468373E+00
         21   -1    0    0  501  502  0.00000000000E+00  0.00000000000E+00  0.43692005138E+02  0.43692005138E+02  0.00000000000E+00 0. -1.
         21   -1    0    0  502  503 -0.00000000000E+00 -0.00000000000E+00 -0.51458186678E+02  0.51458186678E+02  0.00000000000E+00 0.  1.
          2    1    1    2  501    0  0.20961735792E+02 -0.40913112383E+02  0.77762332706E+01  0.46623459076E+02  0.00000000000E+00 0. -1.
         -2    1    1    2    0  503 -0.20961735792E+02  0.40913112383E+02 -0.15542414810E+02  0.48526732740E+02  0.00000000000E+00 0.  1.
<mgrwt>
<rscale>  2 0.45970394E+02</rscale>
<asrwt>0</asrwt>
<pdfrwt beam="1">  1       21 0.67218470E-02 0.45970394E+02</pdfrwt>
<pdfrwt beam="2">  1       21 0.79166440E-02 0.45970394E+02</pdfrwt>
<totfact> 0.17178363E+07</totfact>
</mgrwt>
</event>
<event>
 4    1  0.2754379E+004  0.2103774E+02  0.7546771E-02  0.1725446E+00
         21   -1    0    0  503  502  0.00000000000E+00  0.00000000000E+00  0.47285620424E+01  0.47285620424E+01  0.00000000000E+00 0.  1.
         21   -1    0    0  501  503 -0.00000000000E+00 -0.00000000000E+00 -0.95506191638E+02  0.95506191638E+02  0.00000000000E+00 0. -1.
          2    1    1    2  501    0  0.10372492810E+02 -0.18302942749E+02 -0.38305663630E+02  0.43702519224E+02  0.00000000000E+00 0.  1.
         -2    1    1    2    0  502 -0.10372492810E+02  0.18302942749E+02 -0.52471965966E+02  0.56532234457E+02  0.00000000000E+00 0. -1.
<mgrwt>
<rscale>  2 0.21037736E+02</rscale>
<asrwt>0</asrwt>
<pdfrwt beam="1">  1       21 0.72747109E-03 0.21037736E+02</pdfrwt>
<pdfrwt beam="2">  1       21 0.14693260E-01 0.21037736E+02</pdfrwt>
<totfact> 0.16407072E+08</totfact>
</mgrwt>
</event>
<event>
 4    1  0.2754379E+004  0.2395268E+02  0.7546771E-02  0.1676517E+00
         21   -1    0    0  503  502  0.00000000000E+00  0.00000000000E+00  0.27772088899E+02  0.27772088899E+02  0.00000000000E+00 0. -1.
         21   -1    0    0  501  503 -0.00000000000E+00 -0.00000000000E+00 -0.46422861989E+02  0.46422861989E+02  0.00000000000E+00 0.  1.
          2    1    1    2  501    0  0.44632189604E+01  0.23533183013E+02 -0.36962182594E+02  0.44044681499E+02  0.00000000000E+00 0.  1.
         -2    1    1    2    0  502 -0.44632189604E+01 -0.23533183013E+02  0.18311409504E+02  0.30150269389E+02  0.00000000000E+00 0. -1.
<mgrwt>
<rscale>  2 0.23952683E+02</rscale>
<asrwt>0</asrwt>
<pdfrwt beam="1">  1       21 0.42726291E-02 0.23952683E+02</pdfrwt>
<pdfrwt beam="2">  1       21 0.71419787E-02 0.23952683E+02</pdfrwt>
<totfact> 0.37500255E+07</totfact>
</mgrwt>
</event>
<event>
 4    1  0.2754379E+004  0.2454883E+02  0.7546771E-02  0.1667568E+00
         21   -1    0    0  503  502  0.00000000000E+00  0.00000000000E+00  0.31088436748E+01  0.31088436748E+01  0.00000000000E+00 0.  1.
         21   -1    0    0  501  503 -0.00000000000E+00 -0.00000000000E+00 -0.24204424936E+03  0.24204424936E+03  0.00000000000E+00 0. -1.
          2    1    1    2  501    0  0.19100443792E+02  0.15421345008E+02 -0.17416478326E+03  0.17588637401E+03  0.00000000000E+00 0.  1.
         -2    1    1    2    0  502 -0.19100443792E+02 -0.15421345008E+02 -0.64770622428E+02  0.69266719026E+02  0.00000000000E+00 0. -1.
<mgrwt>
<rscale>  2 0.24548826E+02</rscale>
<asrwt>0</asrwt>
<pdfrwt beam="1">  1       21 0.47828378E-03 0.24548826E+02</pdfrwt>
<pdfrwt beam="2">  1       21 0.37237566E-01 0.24548826E+02</pdfrwt>
<totfact> 0.61162722E+07</totfact>
</mgrwt>
</event>
<event>
 4    1  0.2754379E+004  0.2163323E+02  0.7546771E-02  0.1714673E+00
         21   -1    0    0  503  502  0.00000000000E+00  0.00000000000E+00  0.15596420164E+03  0.15596420164E+03  0.00000000000E+00 0.  1.
         21   -1    0    0  501  503 -0.00000000000E+00 -0.00000000000E+00 -0.86066094621E+01  0.86066094621E+01  0.00000000000E+00 0. -1.
          2    1    1    2  501    0  0.10365176597E+02  0.18988407418E+02  0.72691575987E+01  0.22821856944E+02  0.00000000000E+00 0. -1.
         -2    1    1    2    0  502 -0.10365176597E+02 -0.18988407418E+02  0.14008843458E+03  0.14174895416E+03  0.00000000000E+00 0.  1.
<mgrwt>
<rscale>  2 0.21633227E+02</rscale>
<asrwt>0</asrwt>
<pdfrwt beam="1">  1       21 0.23994490E-01 0.21633227E+02</pdfrwt>
<pdfrwt beam="2">  1       21 0.13240939E-02 0.21633227E+02</pdfrwt>
<totfact> 0.28863518E+07</totfact>
</mgrwt>
</event>
<event>
 4    1  0.2754379E+004  0.2424345E+02  0.7546771E-02  0.1672112E+00
         21   -1    0    0  501  502  0.00000000000E+00  0.00000000000E+00  0.13009038116E+01  0.13009038116E+01  0.00000000000E+00 0. -1.
         21   -1    0    0  502  503 -0.00000000000E+00 -0.00000000000E+00 -0.62526076198E+03  0.62526076198E+03  0.00000000000E+00 0.  1.
          2    1    1    2  501    0 -0.22899341257E+02  0.79602082301E+01 -0.14697104654E+03  0.14895715245E+03  0.00000000000E+00 0. -1.
         -2    1    1    2    0  503  0.22899341257E+02 -0.79602082301E+01 -0.47698881163E+03  0.47760451334E+03  0.00000000000E+00 0.  1.
<mgrwt>
<rscale>  2 0.24243447E+02</rscale>
<asrwt>0</asrwt>
<pdfrwt beam="1">  1       21 0.20013842E-03 0.24243447E+02</pdfrwt>
<pdfrwt beam="2">  1       21 0.96194263E-01 0.24243447E+02</pdfrwt>
<totfact> 0.32336118E+07</totfact>
</mgrwt>
</event>
<event>
 4    1  0.2754379E+004  0.2229018E+02  0.7546771E-02  0.1703281E+00
         21   -1    0    0  503  502  0.00000000000E+00  0.00000000000E+00  0.71813089913E+01  0.71813089913E+01  0.00000000000E+00 0. -1.
         21   -1    0    0  501  503 -0.00000000000E+00 -0.00000000000E+00 -0.80404297582E+02  0.80404297582E+02  0.00000000000E+00 0.  1.
          2    1    1    2  501    0 -0.22213556497E+02  0.18466643924E+01 -0.52968727043E+02  0.57467715338E+02  0.00000000000E+00 0.  1.
         -2    1    1    2    0  502  0.22213556497E+02 -0.18466643924E+01 -0.20254261548E+02  0.30117891235E+02  0.00000000000E+00 0. -1.
<mgrwt>
<rscale>  2 0.22290183E+02</rscale>
<asrwt>0</asrwt>
<pdfrwt beam="1">  1       21 0.11048167E-02 0.22290183E+02</pdfrwt>
<pdfrwt beam="2">  1       21 0.12369892E-01 0.22290183E+02</pdfrwt>
<totfact> 0.11947064E+08</totfact>
</mgrwt>
</event>
<event>
 4    1  0.2754379E+004  0.4345621E+02  0.7546771E-02  0.1484216E+00
         21   -1    0    0  503  502  0.00000000000E+00  0.00000000000E+00  0.32189033445E+01  0.32189033445E+01  0.00000000000E+00 0.  1.
         21   -1    0    0  501  503 -0.00000000000E+00 -0.00000000000E+00 -0.58921977336E+03  0.58921977336E+03  0.00000000000E+00 0. -1.
          2    1    1    2  501    0 -0.42309494057E+02 -0.99171127242E+01 -0.31247660377E+03  0.31548386696E+03  0.00000000000E+00 0.  1.
         -2    1    1    2    0  502  0.42309494057E+02  0.99171127242E+01 -0.27352426625E+03  0.27695480974E+03  0.00000000000E+00 0. -1.
<mgrwt>
<rscale>  2 0.43456213E+02</rscale>
<asrwt>0</asrwt>
<pdfrwt beam="1">  1       21 0.49521615E-03 0.43456213E+02</pdfrwt>
<pdfrwt beam="2">  1       21 0.90649151E-01 0.43456213E+02</pdfrwt>
<totfact> 0.10574086E+07</totfact>
</mgrwt>
</event>
<event>
 4    1  0.2754379E+004  0.2935632E+02  0.7546771E-02  0.1605315E+00
         21   -1    0    0  501  502  0.00000000000E+00  0.00000000000E+00  0.18612815152E+01  0.18612815152E+01  0.00000000000E+00 0. -1.
         21   -1    0    0  502  503 -0.00000000000E+00 -0.00000000000E+00 -0.14242548282E+04  0.14242548282E+04  0.00000000000E+00 0.  1.
          2    1    1    2  501    0  0.15213117211E+02 -0.25106865947E+02 -0.12539883098E+03  0.12878920942E+03  0.00000000000E+00 0. -1.
         -2    1    1    2    0  503 -0.15213117211E+02  0.25106865947E+02 -0.12969947157E+04  0.12973269003E+04  0.00000000000E+00 0.  1.
<mgrwt>
<rscale>  2 0.29356322E+02</rscale>
<asrwt>0</asrwt>
<pdfrwt beam="1">  1       21 0.28635044E-03 0.29356322E+02</pdfrwt>
<pdfrwt beam="2">  1       21 0.21911656E+00 0.29356322E+02</pdfrwt>
<totfact> 0.27262665E+06</totfact>
</mgrwt>
</event>
<event>
 4    1  0.2754379E+004  0.4816507E+02  0.7546771E-02  0.1455498E+00
         21   -1    0    0  501  502  0.00000000000E+00  0.00000000000E+00  0.34223819169E+03  0.34223819169E+03  0.00000000000E+00 0. -1.
         21   -1    0    0  502  503 -0.00000000000E+00 -0.00000000000E+00 -0.16540422299E+02  0.16540422299E+02  0.00000000000E+00 0.  1.
          2    1    1    2  501    0  0.42202079739E+02 -0.23213328006E+02  0.30066186128E+03  0.30449536771E+03  0.00000000000E+00 0. -1.
         -2    1    1    2    0  503 -0.42202079739E+02  0.23213328006E+02  0.25035908114E+02  0.54283246278E+02  0.00000000000E+00 0.  1.
<mgrwt>
<rscale>  2 0.48165072E+02</rscale>
<asrwt>0</asrwt>
<pdfrwt beam="1">  1       21 0.52652024E-01 0.48165072E+02</pdfrwt>
<pdfrwt beam="2">  1       21 0.25446806E-02 0.48165072E+02</pdfrwt>
<totfact> 0.26848413E+06</totfact>
</mgrwt>
</event>
<event>
 4    1  0.2754379E+004  0.2094795E+02  0.7546771E-02  0.1727109E+00
         21   -1    0    0  501  502  0.00000000000E+00  0.00000000000E+00  0.40436058992E+03  0.40436058992E+03  0.00000000000E+00 0.  1.
         21   -1    0    0  502  503 -0.00000000000E+00 -0.00000000000E+00 -0.11384744573E+01  0.11384744573E+01  0.00000000000E+00 0. -1.
          2    1    1    2  501    0 -0.35063068018E+01  0.20652418421E+02  0.24546541515E+03  0.24635763964E+03  0.00000000000E+00 0. -1.
         -2    1    1    2    0  503  0.35063068018E+01 -0.20652418421E+02  0.15775670031E+03  0.15914142474E+03  0.00000000000E+00 0.  1.
<mgrwt>
<rscale>  2 0.20947949E+02</rscale>
<asrwt>0</asrwt>
<pdfrwt beam="1">  1       21 0.62209207E-01 0.20947949E+02</pdfrwt>
<pdfrwt beam="2">  1       21 0.17515024E-03 0.20947949E+02</pdfrwt>
<totfact> 0.93997416E+07</totfact>
</mgrwt>
</event>
<event>
 4    1  0.2754379E+004  0.3040756E+02  0.7546771E-02  0.1593627E+00
         21   -1    0    0  501  502  0.00000000000E+00  0.00000000000E+00  0.46075912405E+01  0.46075912405E+01  0.00000000000E+00 0. -1.
         21   -1    0    0  502  503 -0.00000000000E+00 -0.00000000000E+00 -0.38631724129E+03  0.38631724129E+03  0.00000000000E+00 0.  1.
          2    1    1    2  501    0 -0.18039590363E+02  0.24478418193E+02 -0.55357163213E+02  0.63158810127E+02  0.00000000000E+00 0. -1.
         -2    1    1    2    0  503  0.18039590363E+02 -0.24478418193E+02 -0.32635248684E+03  0.32776602241E+03  0.00000000000E+00 0.  1.
<mgrwt>
<rscale>  2 0.30407561E+02</rscale>
<asrwt>0</asrwt>
<pdfrwt beam="1">  1       21 0.70886042E-03 0.30407561E+02</pdfrwt>
<pdfrwt beam="2">  1       21 0.59433403E-01 0.30407561E+02</pdfrwt>
<totfact> 0.14319556E+07</totfact>
</mgrwt>
</event>
<event>
 4    1  0.2754379E+004  0.2962571E+02  0.7546771E-02  0.1602263E+00
         21   -1    0    0  503  502  0.00000000000E+00  0.00000000000E+00  0.43851244351E+02  0.43851244351E+02  0.00000000000E+00 0. -1.
         21   -1    0    0  501  503 -0.00000000000E+00 -0.00000000000E+00 -0.21251998397E+02  0.21251998397E+02  0.00000000000E+00 0.  1.
          2    1    1    2  501    0 -0.34417453851E+01  0.29425105391E+02  0.34462147005E+01  0.29825472910E+02  0.00000000000E+00 0.  1.
         -2    1    1    2    0  502  0.34417453851E+01 -0.29425105391E+02  0.19153031253E+02  0.35277769838E+02  0.00000000000E+00 0. -1.
<mgrwt>
<rscale>  2 0.29625706E+02</rscale>
<asrwt>0</asrwt>
<pdfrwt beam="1">  1       21 0.67463453E-02 0.29625706E+02</pdfrwt>
<pdfrwt beam="2">  1       21 0.32695382E-02 0.29625706E+02</pdfrwt>
<totfact> 0.66053508E+07</totfact>
</mgrwt>
</event>
<event>
 4    1  0.2754379E+004  0.2287048E+02  0.7546771E-02  0.1693618E+00
         21   -1    0    0  501  502  0.00000000000E+00  0.00000000000E+00  0.64747089570E+03  0.64747089570E+03  0.00000000000E+00 0. -1.
         21   -1    0    0  502  503 -0.00000000000E+00 -0.00000000000E+00 -0.17179663941E+01  0.17179663941E+01  0.00000000000E+00 0.  1.
          2    1    1    2  501    0  0.14887885425E+02  0.17361160836E+02  0.55913217864E+03  0.55959972500E+03  0.00000000000E+00 0. -1.
         -2    1    1    2    0  503 -0.14887885425E+02 -0.17361160836E+02  0.86620750671E+02  0.89589137092E+02  0.00000000000E+00 0.  1.
<mgrwt>
<rscale>  2 0.22870484E+02</rscale>
<asrwt>0</asrwt>
<pdfrwt beam="1">  1       21 0.99610712E-01 0.22870484E+02</pdfrwt>
<pdfrwt beam="2">  1       21 0.26430304E-03 0.22870484E+02</pdfrwt>
<totfact> 0.19801467E+07</totfact>
</mgrwt>
</event>
<event>
 4    1  0.2754379E+004  0.2980419E+02  0.7546771E-02  0.1600263E+00
         21   -1    0    0  501  502  0.00000000000E+00  0.00000000000E+00  0.60622033561E+03  0.60622033561E+03  0.00000000000E+00 0.  1.
         21   -1    0    0  502  503 -0.00000000000E+00 -0.00000000000E+00 -0.51546267361E+01  0.51546267361E+01  0.00000000000E+00 0. -1.
          2    1    1    2  501    0 -0.27819017274E+02 -0.10695426458E+02  0.55914747094E+03  0.55994123274E+03  0.00000000000E+00 0.  1.
         -2    1    1    2    0  503  0.27819017274E+02  0.10695426458E+02  0.41918237933E+02  0.51433729601E+02  0.00000000000E+00 0. -1.
<mgrwt>
<rscale>  2 0.29804192E+02</rscale>
<asrwt>0</asrwt>
<pdfrwt beam="1">  1       21 0.93264610E-01 0.29804192E+02</pdfrwt>
<pdfrwt beam="2">  1       21 0.79301998E-03 0.29804192E+02</pdfrwt>
<totfact> 0.46889118E+06</totfact>
</mgrwt>
</event>
<event>
 4    1  0.2754379E+004  0.2086701E+02  0.7546771E-02  0.1728617E+00
         21   -1    0    0  501  502  0.00000000000E+00  0.00000000000E+00  0.39888301455E+03  0.39888301455E+03  0.00000000000E+00 0. -1.
         21   -1    0    0  502  503 -0.00000000000E+00 -0.00000000000E+00 -0.10962130371E+01  0.10962130371E+01  0.00000000000E+00 0.  1.
          2    1    1    2  501    0  0.19236474303E+02 -0.80864203045E+01  0.18596039767E+03  0.18712750103E+03  0.00000000000E+00 0. -1.
         -2    1    1    2    0  503 -0.19236474303E+02  0.80864203045E+01  0.21182640384E+03  0.21285172656E+03  0.00000000000E+00 0.  1.
<mgrwt>
<rscale>  2 0.20867011E+02</rscale>
<asrwt>0</asrwt>
<pdfrwt beam="1">  1       21 0.61366502E-01 0.20867011E+02</pdfrwt>
<pdfrwt beam="2">  1       21 0.16864848E-03 0.20867011E+02</pdfrwt>
<totfact> 0.10187941E+08</totfact>
</mgrwt>
</event>
<event>
 4    1  0.2754379E+004  0.2097868E+02  0.7546771E-02  0.1726538E+00
         21   -1    0    0  503  502  0.00000000000E+00  0.00000000000E+00  0.71363891557E+02  0.71363891557E+02  0.00000000000E+00 0. -1.
         21   -1    0    0  501  503 -0.00000000000E+00 -0.00000000000E+00 -0.23466405335E+02  0.23466405335E+02  0.00000000000E+00 0.  1.
          2    1    1    2  501    0 -0.20977357465E+02 -0.23568114500E+00 -0.16761971207E+02  0.26852723335E+02  0.00000000000E+00 0.  1.
         -2    1    1    2    0  502  0.20977357465E+02  0.23568114500E+00  0.64659457428E+02  0.67977573557E+02  0.00000000000E+00 0. -1.
<mgrwt>
<rscale>  2 0.20978681E+02</rscale>
<asrwt>0</asrwt>
<pdfrwt beam="1">  1       21 0.10979060E-01 0.20978681E+02</pdfrwt>
<pdfrwt beam="2">  1       21 0.36102162E-02 0.20978681E+02</pdfrwt>
<totfact> 0.23386377E+07</totfact>
</mgrwt>
</event>
<event>
 4    1  0.2754379E+004  0.2716343E+02  0.7546771E-02  0.1631741E+00
         21   -1    0    0  501  502  0.00000000000E+00  0.00000000000E+00  0.62728194581E+02  0.62728194581E+02  0.00000000000E+00 0. -1.
         21   -1    0    0  502  503 -0.00000000000E+00 -0.00000000000E+00 -0.15402111612E+02  0.15402111612E+02  0.00000000000E+00 0.  1.
          2    1    1    2  501    0 -0.14467734874E+02  0.22989926327E+02  0.42652641310E+02  0.50567775071E+02  0.00000000000E+00 0. -1.
         -2    1    1    2    0  503  0.14467734874E+02 -0.22989926327E+02  0.46734416587E+01  0.27562531122E+02  0.00000000000E+00 0.  1.
<mgrwt>
<rscale>  2 0.27163432E+02</rscale>
<asrwt>0</asrwt>
<pdfrwt beam="1">  1       21 0.96504914E-02 0.27163432E+02</pdfrwt>
<pdfrwt beam="2">  1       21 0.23695557E-02 0.27163432E+02</pdfrwt>
<totfact> 0.59379029E+07</totfact>
</mgrwt>
</event>
<event>
 4    1  0.2754379E+004  0.2194714E+02  0.7546771E-02  0.1709168E+00
         21   -1    0    0  501  502  0.00000000000E+00  0.00000000000E+00  0.21805466696E+02  0.21805466696E+02  0.00000000000E+00 0. -1.
         21   -1    0    0  502  503 -0.00000000000E+00 -0.00000000000E+00 -0.24582011333E+02  0.24582011333E+02  0.00000000000E+00 0.  1.
          2    1    1    2  501    0 -0.16298953127E+02 -0.14697660396E+02  0.59968841782E+01  0.22751696948E+02  0.00000000000E+00 0. -1.
         -2    1    1    2    0  503  0.16298953127E+02  0.14697660396E+02 -0.87734288150E+01  0.23635781082E+02  0.00000000000E+00 0.  1.
<mgrwt>
<rscale>  2 0.21947143E+02</rscale>
<asrwt>0</asrwt>
<pdfrwt beam="1">  1       21 0.33546872E-02 0.21947143E+02</pdfrwt>
<pdfrwt beam="2">  1       21 0.37818479E-02 0.21947143E+02</pdfrwt>
<totfact> 0.14760600E+08</totfact>
</mgrwt>
</event>
<event>
 4    1  0.2754379E+004  0.2483092E+02  0.7546771E-02  0.1663442E+00
         21   -1    0    0  501  502  0.00000000000E+00  0.00000000000E+00  0.51321468440E+03  0.51321468440E+03  0.00000000000E+00 0.  1.
         21   -1    0    0  502  503 -0.00000000000E+00 -0.00000000000E+00 -0.15948641951E+01  0.15948641951E+01  0.00000000000E+00 0. -1.
          2    1    1    2  501    0 -0.24603746853E+02  0.33511710704E+01  0.38366230705E+03  0.38446500564E+03  0.00000000000E+00 0.  1.
         -2    1    1    2    0  503  0.24603746853E+02 -0.33511710704E+01  0.12795751315E+03  0.13034454296E+03  0.00000000000E+00 0. -1.
<mgrwt>
<rscale>  2 0.24830922E+02</rscale>
<asrwt>0</asrwt>
<pdfrwt beam="1">  1       21 0.78955974E-01 0.24830922E+02</pdfrwt>
<pdfrwt beam="2">  1       21 0.24536413E-03 0.24830922E+02</pdfrwt>
<totfact> 0.36869184E+07</totfact>
</mgrwt>
</event>
<event>
 4    1  0.2754379E+004  0.2101694E+02  0.7546771E-02  0.1725830E+00
         21   -1    0    0  501  502  0.00000000000E+00  0.00000000000E+00  0.32474875213E+02  0.32474875213E+02  0.00000000000E+00 0.  1.
         21   -1    0    0  502  503 -0.00000000000E+00 -0.00000000000E+00 -0.24967804515E+02  0.24967804515E+02  0.00000000000E+00 0. -1.
          2    1    1    2  501    0 -0.15860916585E+02  0.13789243163E+02  0.23132085764E+02  0.31253884458E+02  0.00000000000E+00 0.  1.
         -2    1    1    2    0  503  0.15860916585E+02 -0.13789243163E+02 -0.15625015065E+02  0.26188795271E+02  0.00000000000E+00 0. -1.
<mgrwt>
<rscale>  2 0.21016943E+02</rscale>
<asrwt>0</asrwt>
<pdfrwt beam="1">  1       21 0.49961346E-02 0.21016943E+02</pdfrwt>
<pdfrwt beam="2">  1       21 0.38412007E-02 0.21016943E+02</pdfrwt>
<totfact> 0.75996466E+07</totfact>
</mgrwt>
</event>
<event>
 4    1  0.2754379E+004  0.2089278E+02  0.7546771E-02  0.1728136E+00
         21   -1    0    0  501  502  0.00000000000E+00  0.00000000000E+00  0.67465036109E+01  0.67465036109E+01  0.00000000000E+00 0. -1.
         21   -1    0    0  502  503 -0.00000000000E+00 -0.00000000000E+00 -0.14061968318E+03  0.14061968318E+03  0.00000000000E+00 0.  1.
          2    1    1    2  501    0 -0.12298378269E+02 -0.16889581997E+02 -0.12796615947E+02  0.24500234035E+02  0.00000000000E+00 0. -1.
         -2    1    1    2    0  503  0.12298378269E+02  0.16889581997E+02 -0.12107656362E+03  0.12286595275E+03  0.00000000000E+00 0.  1.
<mgrwt>
<rscale>  2 0.20892776E+02</rscale>
<asrwt>0</asrwt>
<pdfrwt beam="1">  1       21 0.10379236E-02 0.20892776E+02</pdfrwt>
<pdfrwt beam="2">  1       21 0.21633798E-01 0.20892776E+02</pdfrwt>
<totfact> 0.49537379E+07</totfact>
</mgrwt>
</event>
<event>
 4    1  0.2754379E+004  0.2144175E+02  0.7546771E-02  0.1718089E+00
         21   -1    0    0  503  502  0.00000000000E+00  0.00000000000E+00  0.12437461424E+02  0.12437461424E+02  0.00000000000E+00 0.  1.
         21   -1    0    0  501  503 -0.00000000000E+00 -0.00000000000E+00 -0.47386676482E+02  0.47386676482E+02  0.00000000000E+00 0. -1.
          2    1    1    2  501    0  0.16149337184E+02  0.14104876742E+02 -0.31502443438E+02  0.38107119833E+02  0.00000000000E+00 0. -1.
         -2    1    1    2    0  502 -0.16149337184E+02 -0.14104876742E+02 -0.34467716206E+01  0.21717018073E+02  0.00000000000E+00 0.  1.
<mgrwt>
<rscale>  2 0.21441750E+02</rscale>
<asrwt>0</asrwt>
<pdfrwt beam="1">  1       21 0.19134556E-02 0.21441750E+02</pdfrwt>
<pdfrwt beam="2">  1       21 0.72902579E-02 0.21441750E+02</pdfrwt>
<totfact> 0.12263320E+08</totfact>
</mgrwt>
</event>
<event>
 4    1  0.2754379E+004  0.2257042E+02  0.7546771E-02  0.1698570E+00
         21   -1    0    0  501  502  0.00000000000E+00  0.00000000000E+00  0.52607008379E+00  0.52607008379E+00  0.00000000000E+00 0.  1.
         21   -1    0    0  502  503 -0.00000000000E+00 -0.00000000000E+00 -0.18010598614E+04  0.18010598614E+04  0.00000000000E+00 0. -1.
          2    1    1    2  501    0  0.30112801774E+01  0.22368641285E+02 -0.28776730125E+03  0.28865107585E+03  0.00000000000E+00 0.  1.
         -2    1    1    2    0  503 -0.30112801774E+01 -0.22368641285E+02 -0.15127664901E+04  0.15129348556E+04  0.00000000000E+00 0. -1.
<mgrwt>
<rscale>  2 0.22570421E+02</rscale>
<asrwt>0</asrwt>
<pdfrwt beam="1">  1       21 0.80933949E-04 0.22570421E+02</pdfrwt>
<pdfrwt beam="2">  1       21 0.27708583E+00 0.22570421E+02</pdfrwt>
<totfact> 0.84631906E+06</totfact>
</mgrwt>
</event>
<event>
 4    1  0.2754379E+004  0.2371870E+02  0.7546771E-02  0.1680118E+00
         21   -1    0    0  503  502  0.00000000000E+00  0.00000000000E+00  0.35120549812E+02  0.35120549812E+02  0.00000000000E+00 0.  1.
         21   -1    0    0  501  503 -0.00000000000E+00 -0.00000000000E+00 -0.23097036203E+02  0.23097036203E+02  0.00000000000E+00 0. -1.
          2    1    1    2  501    0 -0.23385240322E+02  0.39632267836E+01 -0.10102840416E+02  0.25780690758E+02  0.00000000000E+00 0. -1.
         -2    1    1    2    0  502  0.23385240322E+02 -0.39632267836E+01  0.22126354025E+02  0.32436895257E+02  0.00000000000E+00 0.  1.
<mgrwt>
<rscale>  2 0.23718698E+02</rscale>
<asrwt>0</asrwt>
<pdfrwt beam="1">  1       21 0.54031615E-02 0.23718698E+02</pdfrwt>
<pdfrwt beam="2">  1       21 0.35533902E-02 0.23718698E+02</pdfrwt>
<totfact> 0.78411041E+07</totfact>
</mgrwt>
</event>
<event>
 4    1  0.2754379E+004  0.2504187E+02  0.7546771E-02  0.1660401E+00
         21   -1    0    0  503  502  0.00000000000E+00  0.00000000000E+00  0.85945557240E+02  0.85945557240E+02  0.00000000000E+00 0. -1.
         21   -1    0    0  501  503 -0.00000000000E+00 -0.00000000000E+00 -0.83592215578E+01  0.83592215578E+01  0.00000000000E+00 0.  1.
          2    1    1    2  501    0  0.63837107407E+00 -0.25033732661E+02  0.21980140727E+02  0.33319992121E+02  0.00000000000E+00 0. -1.
         -2    1    1    2    0  502 -0.63837107407E+00  0.25033732661E+02  0.55606194955E+02  0.60984786676E+02  0.00000000000E+00 0.  1.
<mgrwt>
<rscale>  2 0.25041871E+02</rscale>
<asrwt>0</asrwt>
<pdfrwt beam="1">  1       21 0.13222393E-01 0.25041871E+02</pdfrwt>
<pdfrwt beam="2">  1       21 0.12860341E-02 0.25041871E+02</pdfrwt>
<totfact> 0.87683296E+07</totfact>
</mgrwt>
</event>
<event>
 4    1  0.2754379E+004  0.3149110E+02  0.7546771E-02  0.1582168E+00
         21   -1    0    0  503  502  0.00000000000E+00  0.00000000000E+00  0.16020179970E+02  0.16020179970E+02  0.00000000000E+00 0.  1.
         21   -1    0    0  501  503 -0.00000000000E+00 -0.00000000000E+00 -0.72448242534E+02  0.72448242534E+02  0.00000000000E+00 0. -1.
          2    1    1    2  501    0  0.15143751349E+02 -0.27610799138E+02 -0.45090540835E+02  0.54998602771E+02  0.00000000000E+00 0. -1.
         -2    1    1    2    0  502 -0.15143751349E+02  0.27610799138E+02 -0.11337521729E+02  0.33469819733E+02  0.00000000000E+00 0.  1.
<mgrwt>
<rscale>  2 0.31491101E+02</rscale>
<asrwt>0</asrwt>
<pdfrwt beam="1">  1       21 0.24646430E-02 0.31491101E+02</pdfrwt>
<pdfrwt beam="2">  1       21 0.11145884E-01 0.31491101E+02</pdfrwt>
<totfact> 0.45368783E+07</totfact>
</mgrwt>
</event>
<event>
 4    1  0.2754379E+004  0.2076832E+02  0.7546771E-02  0.1730467E+00
         21   -1    0    0  501  502  0.00000000000E+00  0.00000000000E+00  0.36626266447E+00  0.36626266447E+00  0.00000000000E+00 0.  1.
         21   -1    0    0  502  503 -0.00000000000E+00 -0.00000000000E+00 -0.12770251380E+04  0.12770251380E+04  0.00000000000E+00 0. -1.
          2    1    1    2  501    0  0.20152453010E+02 -0.50201416663E+01 -0.46014523983E+03  0.46061368295E+03  0.00000000000E+00 0.  1.
         -2    1    1    2    0  503 -0.20152453010E+02  0.50201416663E+01 -0.81651363551E+03  0.81677771771E+03  0.00000000000E+00 0. -1.
<mgrwt>
<rscale>  2 0.20768322E+02</rscale>
<asrwt>0</asrwt>
<pdfrwt beam="1">  1       21 0.56347592E-04 0.20768322E+02</pdfrwt>
<pdfrwt beam="2">  1       21 0.19646718E+00 0.20768322E+02</pdfrwt>
<totfact> 0.36054647E+07</totfact>
</mgrwt>
</event>
<event>
 4    1  0.2754379E+004  0.2625253E+02  0.7546771E-02  0.1643637E+00
         21   -1    0    0  503  502  0.00000000000E+00  0.00000000000E+00  0.12057746254E+02  0.12057746254E+02  0.00000000000E+00 0.  1.
         21   -1    0    0  501  503 -0.00000000000E+00 -0.00000000000E+00 -0.57345311629E+02  0.57345311629E+02  0.00000000000E+00 0. -1.
          2    1    1    2  501    0 -0.14823693194E+02  0.21666875708E+02 -0.24627614346E+02  0.35996038271E+02  0.00000000000E+00 0. -1.
         -2    1    1    2    0  502  0.14823693194E+02 -0.21666875708E+02 -0.20659951028E+02  0.33407019612E+02  0.00000000000E+00 0.  1.
<mgrwt>
<rscale>  2 0.26252531E+02</rscale>
<asrwt>0</asrwt>
<pdfrwt beam="1">  1       21 0.18550379E-02 0.26252531E+02</pdfrwt>
<pdfrwt beam="2">  1       21 0.88223557E-02 0.26252531E+02</pdfrwt>
<totfact> 0.99706173E+07</totfact>
</mgrwt>
</event>
<event>
 4    1  0.2754379E+004  0.4725162E+02  0.7546771E-02  0.1460756E+00
         21   -1    0    0  503  502  0.00000000000E+00  0.00000000000E+00  0.43975375555E+01  0.43975375555E+01  0.00000000000E+00 0.  1.
         21   -1    0    0  501  503 -0.00000000000E+00 -0.00000000000E+00 -0.10481975102E+04  0.10481975102E+04  0.00000000000E+00 0. -1.
          2    1    1    2  501    0  0.46287552022E+02 -0.94962009382E+01 -0.89981905311E+03  0.90105884583E+03  0.00000000000E+00 0. -1.
         -2    1    1    2    0  502 -0.46287552022E+02  0.94962009382E+01 -0.14398091952E+03  0.15153620191E+03  0.00000000000E+00 0.  1.
<mgrwt>
<rscale>  2 0.47251617E+02</rscale>
<asrwt>0</asrwt>
<pdfrwt beam="1">  1       21 0.67654428E-03 0.47251617E+02</pdfrwt>
<pdfrwt beam="2">  1       21 0.16126115E+00 0.47251617E+02</pdfrwt>
<totfact> 0.17148171E+06</totfact>
</mgrwt>
</event>
<event>
 4    1  0.2754379E+004  0.2027324E+02  0.7546771E-02  0.1739948E+00
         21   -1    0    0  501  502  0.00000000000E+00  0.00000000000E+00  0.26834861236E+01  0.26834861236E+01  0.00000000000E+00 0.  1.
         21   -1    0    0  502  503 -0.00000000000E+00 -0.00000000000E+00 -0.50085586954E+03  0.50085586954E+03  0.00000000000E+00 0. -1.
          2    1    1    2  501    0  0.14299913815E+02  0.14370684908E+02 -0.39314691692E+02  0.44234026526E+02  0.00000000000E+00 0.  1.
         -2    1    1    2    0  503 -0.14299913815E+02 -0.14370684908E+02 -0.45885769172E+03  0.45930532914E+03  0.00000000000E+00 0. -1.
<mgrwt>
<rscale>  2 0.20273237E+02</rscale>
<asrwt>0</asrwt>
<pdfrwt beam="1">  1       21 0.41284452E-03 0.20273237E+02</pdfrwt>
<pdfrwt beam="2">  1       21 0.77054655E-01 0.20273237E+02</pdfrwt>
<totfact> 0.17428249E+07</totfact>
</mgrwt>
</event>
<event>
 4    1  0.2754379E+004  0.3064081E+02  0.7546771E-02  0.1591112E+00
         21   -1    0    0  503  502  0.00000000000E+00  0.00000000000E+00  0.97001280127E+01  0.97001280127E+01  0.00000000000E+00 0. -1.
         21   -1    0    0  501  503 -0.00000000000E+00 -0.00000000000E+00 -0.39087612767E+03  0.39087612767E+03  0.00000000000E+00 0.  1.
          2    1    1    2  501    0  0.51786858343E+01 -0.30200003352E+02 -0.36431773250E+03  0.36560397865E+03  0.00000000000E+00 0.  1.
         -2    1    1    2    0  502 -0.51786858343E+01  0.30200003352E+02 -0.16858267158E+02  0.34972277035E+02  0.00000000000E+00 0. -1.
<mgrwt>
<rscale>  2 0.30640806E+02</rscale>
<asrwt>0</asrwt>
<pdfrwt beam="1">  1       21 0.14923273E-02 0.30640806E+02</pdfrwt>
<pdfrwt beam="2">  1       21 0.60134794E-01 0.30640806E+02</pdfrwt>
<totfact> 0.45221407E+06</totfact>
</mgrwt>
</event>
<event>
 4    1  0.2754379E+004  0.2235768E+02  0.7546771E-02  0.1702138E+00
         21   -1    0    0  503  502  0.00000000000E+00  0.00000000000E+00  0.56879603245E+01  0.56879603245E+01  0.00000000000E+00 0. -1.
         21   -1    0    0  501  503 -0.00000000000E+00 -0.00000000000E+00 -0.89411928858E+02  0.89411928858E+02  0.00000000000E+00 0.  1.
          2    1    1    2  501    0  0.10044649085E+02 -0.19974260808E+02 -0.35640855178E+02  0.42072991668E+02  0.00000000000E+00 0. -1.
         -2    1    1    2    0  502 -0.10044649085E+02  0.19974260808E+02 -0.48083113356E+02  0.53026897515E+02  0.00000000000E+00 0.  1.
<mgrwt>
<rscale>  2 0.22357685E+02</rscale>
<asrwt>0</asrwt>
<pdfrwt beam="1">  1       21 0.87507086E-03 0.22357685E+02</pdfrwt>
<pdfrwt beam="2">  1       21 0.13755681E-01 0.22357685E+02</pdfrwt>
<totfact> 0.14187066E+08</totfact>
</mgrwt>
</event>
<event>
 4    1  0.2754379E+004  0.2336713E+02  0.7546771E-02  0.1685627E+00
         21   -1    0    0  503  502  0.00000000000E+00  0.00000000000E+00  0.79019498162E+00  0.79019498162E+00  0.00000000000E+00 0.  1.
         21   -1    0    0  501  503 -0.00000000000E+00 -0.00000000000E+00 -0.70877655336E+03  0.70877655336E+03  0.00000000000E+00 0. -1.
          2    1    1    2  501    0  0.19098671888E+02 -0.13463421794E+02 -0.29780315297E+03  0.29871849778E+03  0.00000000000E+00 0.  1.
         -2    1    1    2    0  502 -0.19098671888E+02  0.13463421794E+02 -0.41018320541E+03  0.41084825056E+03  0.00000000000E+00 0. -1.
<mgrwt>
<rscale>  2 0.23367135E+02</rscale>
<asrwt>0</asrwt>
<pdfrwt beam="1">  1       21 0.12156856E-03 0.23367135E+02</pdfrwt>
<pdfrwt beam="2">  1       21 0.10904245E+00 0.23367135E+02</pdfrwt>
<totfact> 0.49862192E+07</totfact>
</mgrwt>
</event>
<event>
 4    1  0.2754379E+004  0.2257902E+02  0.7546771E-02  0.1698426E+00
         21   -1    0    0  503  502  0.00000000000E+00  0.00000000000E+00  0.23490449571E+03  0.23490449571E+03  0.00000000000E+00 0. -1.
         21   -1    0    0  501  503 -0.00000000000E+00 -0.00000000000E+00 -0.47446419179E+01  0.47446419179E+01  0.00000000000E+00 0.  1.
          2    1    1    2  501    0  0.44958569834E+01 -0.22126891332E+02  0.26817128863E+02  0.35056674835E+02  0.00000000000E+00 0.  1.
         -2    1    1    2    0  502 -0.44958569834E+01  0.22126891332E+02  0.20334272493E+03  0.20459246279E+03  0.00000000000E+00 0. -1.
<mgrwt>
<rscale>  2 0.22579018E+02</rscale>
<asrwt>0</asrwt>
<pdfrwt beam="1">  1       21 0.36139144E-01 0.22579018E+02</pdfrwt>
<pdfrwt beam="2">  1       21 0.72994509E-03 0.22579018E+02</pdfrwt>
<totfact> 0.33883892E+07</totfact>
</mgrwt>
</event>
<event>
 4    1  0.2754379E+004  0.3868038E+02  0.7546771E-02  0.1518153E+00
         21   -1    0    0  501  502  0.00000000000E+00  0.00000000000E+00  0.50986278530E+03  0.50986278530E+03  0.00000000000E+00 0. -1.
         21   -1    0    0  502  503 -0.00000000000E+00 -0.00000000000E+00 -0.33520995961E+01  0.33520995961E+01  0.00000000000E+00 0.  1.
          2    1    1    2  501    0  0.38618878438E+02 -0.21804583329E+01  0.34383098027E+03  0.34599987740E+03  0.00000000000E+00 0. -1.
         -2    1    1    2    0  503 -0.38618878438E+02  0.21804583329E+01  0.16267970543E+03  0.16721500749E+03  0.00000000000E+00 0.  1.
<mgrwt>
<rscale>  2 0.38680385E+02</rscale>
<asrwt>0</asrwt>
<pdfrwt beam="1">  1       21 0.78440367E-01 0.38680385E+02</pdfrwt>
<pdfrwt beam="2">  1       21 0.51570803E-03 0.38680385E+02</pdfrwt>
<totfact> 0.13428006E+07</totfact>
</mgrwt>
</event>
<event>
 4    1  0.2754379E+004  0.2015719E+02  0.7546771E-02  0.1742220E+00
         21   -1    0    0  503  502  0.00000000000E+00  0.00000000000E+00  0.12425089339E+04  0.12425089339E+04  0.00000000000E+00 0. -1.
         21   -1    0    0  501  503 -0.00000000000E+00 -0.00000000000E+00 -0.91768149620E+00  0.91768149620E+00  0.00000000000E+00 0.  1.
          2    1    1    2  501    0 -0.20141979165E+02  0.78305698170E+00  0.12200614685E+03  0.12366006781E+03  0.00000000000E+00 0.  1.
         -2    1    1    2    0  502  0.20141979165E+02 -0.78305698170E+00  0.11195851055E+04  0.11197665475E+04  0.00000000000E+00 0. -1.
<mgrwt>
<rscale>  2 0.20157195E+02</rscale>
<asrwt>0</asrwt>
<pdfrwt beam="1">  1       21 0.19115387E+00 0.20157195E+02</pdfrwt>
<pdfrwt beam="2">  1       21 0.14118276E-03 0.20157195E+02</pdfrwt>
<totfact> 0.10476393E+07</totfact>
</mgrwt>
</event>
<event>
 4    1  0.2754379E+004  0.2661694E+02  0.7546771E-02  0.1638807E+00
         21   -1    0    0  501  502  0.00000000000E+00  0.00000000000E+00  0.12681479372E+04  0.12681479372E+04  0.00000000000E+00 0. -1.
         21   -1    0    0  502  503 -0.00000000000E+00 -0.00000000000E+00 -0.11008115703E+01  0.11008115703E+01  0.00000000000E+00 0.  1.
          2    1    1    2  501    0 -0.26221092895E+02  0.45733960253E+01  0.10788938131E+04  0.10792220909E+04  0.00000000000E+00 0. -1.
         -2    1    1    2    0  503  0.26221092895E+02 -0.45733960253E+01  0.18815331252E+03  0.19002665781E+03  0.00000000000E+00 0.  1.
<mgrwt>
<rscale>  2 0.26616943E+02</rscale>
<asrwt>0</asrwt>
<pdfrwt beam="1">  1       21 0.19509851E+00 0.26616943E+02</pdfrwt>
<pdfrwt beam="2">  1       21 0.16935664E-03 0.26616943E+02</pdfrwt>
<totfact> 0.79163092E+06</totfact>
</mgrwt>
</event>
<event>
 4    1  0.2754379E+004  0.2602264E+02  0.7546771E-02  0.1646733E+00
         21   -1    0    0  503  502  0.00000000000E+00  0.00000000000E+00  0.54480338044E+03  0.54480338044E+03  0.00000000000E+00 0. -1.
         21   -1    0    0  501  503 -0.00000000000E+00 -0.00000000000E+00 -0.83026775787E+01  0.83026775787E+01  0.00000000000E+00 0.  1.
          2    1    1    2  501    0 -0.19464952718E+02 -0.17271174640E+02  0.13237254203E+02  0.29195937330E+02  0.00000000000E+00 0.  1.
         -2    1    1    2    0  502  0.19464952718E+02  0.17271174640E+02  0.52326344866E+03  0.52391012069E+03  0.00000000000E+00 0. -1.
<mgrwt>
<rscale>  2 0.26022641E+02</rscale>
<asrwt>0</asrwt>
<pdfrwt beam="1">  1       21 0.83815876E-01 0.26022641E+02</pdfrwt>
<pdfrwt beam="2">  1       21 0.12773354E-02 0.26022641E+02</pdfrwt>
<totfact> 0.28258431E+06</totfact>
</mgrwt>
</event>
<event>
 4    1  0.2754379E+004  0.2159953E+02  0.7546771E-02  0.1715271E+00
         21   -1    0    0  503  502  0.00000000000E+00  0.00000000000E+00  0.19919923717E+01  0.19919923717E+01  0.00000000000E+00 0. -1.
         21   -1    0    0  501  503 -0.00000000000E+00 -0.00000000000E+00 -0.38403215629E+03  0.38403215629E+03  0.00000000000E+00 0.  1.
          2    1    1    2  501    0  0.20524977640E+02  0.67279291168E+01 -0.31157701583E+03  0.31232479333E+03  0.00000000000E+00 0.  1.
         -2    1    1    2    0  502 -0.20524977640E+02 -0.67279291168E+01 -0.70463148093E+02  0.73699355333E+02  0.00000000000E+00 0. -1.
<mgrwt>
<rscale>  2 0.21599531E+02</rscale>
<asrwt>0</asrwt>
<pdfrwt beam="1">  1       21 0.30646041E-03 0.21599531E+02</pdfrwt>
<pdfrwt beam="2">  1       21 0.59081862E-01 0.21599531E+02</pdfrwt>
<totfact> 0.46783676E+07</totfact>
</mgrwt>
</event>
<event>
 4    1  0.2754379E+004  0.2259400E+02  0.7546771E-02  0.1698177E+00
         21   -1    0    0  501  502  0.00000000000E+00  0.00000000000E+00  0.74047313072E+02  0.74047313072E+02  0.00000000000E+00 0.  1.
         21   -1    0    0  502  503 -0.00000000000E+00 -0.00000000000E+00 -0.11820723147E+02  0.11820723147E+02  0.00000000000E+00 0. -1.
          2    1    1    2  501    0 -0.21374330671E+02  0.73230239466E+01  0.58830836900E+02  0.63020282938E+02  0.00000000000E+00 0.  1.
         -2    1    1    2    0  503  0.21374330671E+02 -0.73230239466E+01  0.33957530261E+01  0.22847753280E+02  0.00000000000E+00 0. -1.
<mgrwt>
<rscale>  2 0.22593997E+02</rscale>
<asrwt>0</asrwt>
<pdfrwt beam="1">  1       21 0.11391894E-01 0.22593997E+02</pdfrwt>
<pdfrwt beam="2">  1       21 0.18185728E-02 0.22593997E+02</pdfrwt>
<totfact> 0.64644345E+07</totfact>
</mgrwt>
</event>
<event>
 4    1  0.2754379E+004  0.2916846E+02  0.7546771E-02  0.1607466E+00
         21   -1    0    0  501  502  0.00000000000E+00  0.00000000000E+00  0.31650893132E+03  0.31650893132E+03  0.00000000000E+00 0.  1.
         21   -1    0    0  502  503 -0.00000000000E+00 -0.00000000000E+00 -0.31798541254E+01  0.31798541254E+01  0.00000000000E+00 0. -1.
          2    1    1    2  501    0 -0.24737242128E+02 -0.15455357801E+02  0.21952528995E+03  0.22145462777E+03  0.00000000000E+00 0.  1.
         -2    1    1    2    0  503  0.24737242128E+02  0.15455357801E+02  0.93803787247E+02  0.98234157679E+02  0.00000000000E+00 0. -1.
<mgrwt>
<rscale>  2 0.29168463E+02</rscale>
<asrwt>0</asrwt>
<pdfrwt beam="1">  1       21 0.48693657E-01 0.29168463E+02</pdfrwt>
<pdfrwt beam="2">  1       21 0.48920858E-03 0.29168463E+02</pdfrwt>
<totfact> 0.36754086E+07</totfact>
</mgrwt>
</event>
<event>
 4    1  0.2754379E+004  0.2114166E+02  0.7546771E-02  0.1723534E+00
         21   -1    0    0  501  502  0.00000000000E+00  0.00000000000E+00  0.75520415076E+01  0.75520415076E+01  0.00000000000E+00 0. -1.
         21   -1    0    0  502  503 -0.00000000000E+00 -0.00000000000E+00 -0.75537546026E+02  0.75537546026E+02  0.00000000000E+00 0.  1.
          2    1    1    2  501    0 -0.18073991678E+02 -0.10968171486E+02 -0.14663116558E+02  0.25728912688E+02  0.00000000000E+00 0. -1.
         -2    1    1    2    0  503  0.18073991678E+02  0.10968171486E+02 -0.53322387961E+02  0.57360674846E+02  0.00000000000E+00 0.  1.
<mgrwt>
<rscale>  2 0.21141664E+02</rscale>
<asrwt>0</asrwt>
<pdfrwt beam="1">  1       21 0.11618525E-02 0.21141664E+02</pdfrwt>
<pdfrwt beam="2">  1       21 0.11621161E-01 0.21141664E+02</pdfrwt>
<totfact> 0.12103916E+08</totfact>
</mgrwt>
</event>
<event>
 4    1  0.2754379E+004  0.3728624E+02  0.7546771E-02  0.1529188E+00
         21   -1    0    0  501  502  0.00000000000E+00  0.00000000000E+00  0.82648173120E+02  0.82648173120E+02  0.00000000000E+00 0. -1.
         21   -1    0    0  502  503 -0.00000000000E+00 -0.00000000000E+00 -0.22003177022E+03  0.22003177022E+03  0.00000000000E+00 0.  1.
          2    1    1    2  501    0 -0.26259460586E+02  0.26470815191E+02  0.76748184855E+02  0.85326122645E+02  0.00000000000E+00 0. -1.
         -2    1    1    2    0  503  0.26259460586E+02 -0.26470815191E+02 -0.21413178195E+03  0.21735382069E+03  0.00000000000E+00 0.  1.
<mgrwt>
<rscale>  2 0.37286235E+02</rscale>
<asrwt>0</asrwt>
<pdfrwt beam="1">  1       21 0.12715104E-01 0.37286235E+02</pdfrwt>
<pdfrwt beam="2">  1       21 0.33851041E-01 0.37286235E+02</pdfrwt>
<totfact> 0.44574791E+05</totfact>
</mgrwt>
</event>
<event>
 4    1  0.2754379E+004  0.2607827E+02  0.7546771E-02  0.1645981E+00
         21   -1    0    0  501  502  0.00000000000E+00  0.00000000000E+00  0.67887057722E+02  0.67887057722E+02  0.00000000000E+00 0. -1.
         21   -1    0    0  502  503 -0.00000000000E+00 -0.00000000000E+00 -0.73831351388E+02  0.73831351388E+02  0.00000000000E+00 0.  1.
          2    1    1    2  501    0  0.21259114237E+02  0.15103841426E+02  0.62904649671E+02  0.68096041839E+02  0.00000000000E+00 0. -1.
         -2    1    1    2    0  503 -0.21259114237E+02 -0.15103841426E+02 -0.68848943337E+02  0.73622367271E+02  0.00000000000E+00 0.  1.
<mgrwt>
<rscale>  2 0.26078266E+02</rscale>
<asrwt>0</asrwt>
<pdfrwt beam="1">  1       21 0.10444163E-01 0.26078266E+02</pdfrwt>
<pdfrwt beam="2">  1       21 0.11358669E-01 0.26078266E+02</pdfrwt>
<totfact> 0.41586562E+06</totfact>
</mgrwt>
</event>
<event>
 4    1  0.2754379E+004  0.2923749E+02  0.7546771E-02  0.1606673E+00
         21   -1    0    0  503  502  0.00000000000E+00  0.00000000000E+00  0.75851212115E+01  0.75851212115E+01  0.00000000000E+00 0. -1.
         21   -1    0    0  501  503 -0.00000000000E+00 -0.00000000000E+00 -0.13956424170E+03  0.13956424170E+03  0.00000000000E+00 0.  1.
          2    1    1    2  501    0  0.25577589138E+02  0.14163969545E+02 -0.98270149668E+02  0.10252733009E+03  0.00000000000E+00 0.  1.
         -2    1    1    2    0  502 -0.25577589138E+02 -0.14163969545E+02 -0.33708970820E+02  0.44622032822E+02  0.00000000000E+00 0. -1.
<mgrwt>
<rscale>  2 0.29237495E+02</rscale>
<asrwt>0</asrwt>
<pdfrwt beam="1">  1       21 0.11669417E-02 0.29237495E+02</pdfrwt>
<pdfrwt beam="2">  1       21 0.21471422E-01 0.29237495E+02</pdfrwt>
<totfact> 0.45556361E+07</totfact>
</mgrwt>
</event>
<event>
 4    1  0.2754379E+004  0.2140978E+02  0.7546771E-02  0.1718664E+00
         21   -1    0    0  503  502  0.00000000000E+00  0.00000000000E+00  0.69273707429E+01  0.69273707429E+01  0.00000000000E+00 0.  1.
         21   -1    0    0  501  503 -0.00000000000E+00 -0.00000000000E+00 -0.69303247417E+02  0.69303247417E+02  0.00000000000E+00 0. -1.
          2    1    1    2  501    0 -0.18277178396E+02 -0.11150045536E+02 -0.39293322063E+02  0.44747557747E+02  0.00000000000E+00 0.  1.
         -2    1    1    2    0  502  0.18277178396E+02  0.11150045536E+02 -0.23082554612E+02  0.31483060413E+02  0.00000000000E+00 0. -1.
<mgrwt>
<rscale>  2 0.21409782E+02</rscale>
<asrwt>0</asrwt>
<pdfrwt beam="1">  1       21 0.10657493E-02 0.21409782E+02</pdfrwt>
<pdfrwt beam="2">  1       21 0.10662038E-01 0.21409782E+02</pdfrwt>
<totfact> 0.15959266E+08</totfact>
</mgrwt>
</event>
<event>
 4    1  0.2754379E+004  0.2829252E+02  0.7546771E-02  0.1617767E+00
         21   -1    0    0  501  502  0.00000000000E+00  0.00000000000E+00  0.49293846490E+02  0.49293846490E+02  0.00000000000E+00 0. -1.
         21   -1    0    0  502  503 -0.00000000000E+00 -0.00000000000E+00 -0.97440724172E+02  0.97440724172E+02  0.00000000000E+00 0.  1.
          2    1    1    2  501    0  0.16870190818E+02  0.22712631085E+02  0.42902017654E+02  0.51391147758E+02  0.00000000000E+00 0. -1.
         -2    1    1    2    0  503 -0.16870190818E+02 -0.22712631085E+02 -0.91048895336E+02  0.95343422904E+02  0.00000000000E+00 0.  1.
<mgrwt>
<rscale>  2 0.28292525E+02</rscale>
<asrwt>0</asrwt>
<pdfrwt beam="1">  1       21 0.75836687E-02 0.28292525E+02</pdfrwt>
<pdfrwt beam="2">  1       21 0.14990881E-01 0.28292525E+02</pdfrwt>
<totfact> 0.44600232E+06</totfact>
</mgrwt>
</event>
<event>
 4    1  0.2754379E+004  0.2497557E+02  0.7546771E-02  0.1661353E+00
         21   -1    0    0  503  502  0.00000000000E+00  0.00000000000E+00  0.37472267708E+03  0.37472267708E+03  0.00000000000E+00 0. -1.
         21   -1    0    0  501  503 -0.00000000000E+00 -0.00000000000E+00 -0.15142893965E+02  0.15142893965E+02  0.00000000000E+00 0.  1.
          2    1    1    2  501    0 -0.16469422973E+02  0.18775971968E+02 -0.41166754317E+01  0.25312566701E+02  0.00000000000E+00 0.  1.
         -2    1    1    2    0  502  0.16469422973E+02 -0.18775971968E+02  0.36369645855E+03  0.36455300434E+03  0.00000000000E+00 0. -1.
<mgrwt>
<rscale>  2 0.24975568E+02</rscale>
<asrwt>0</asrwt>
<pdfrwt beam="1">  1       21 0.57649636E-01 0.24975568E+02</pdfrwt>
<pdfrwt beam="2">  1       21 0.23296763E-02 0.24975568E+02</pdfrwt>
<totfact> 0.24187840E+06</totfact>
</mgrwt>
</event>
<event>
 4    1  0.2754379E+004  0.2486591E+02  0.7546771E-02  0.1662935E+00
         21   -1    0    0  501  502  0.00000000000E+00  0.00000000000E+00  0.22937109338E+02  0.22937109338E+02  0.00000000000E+00 0.  1.
         21   -1    0    0  502  503 -0.00000000000E+00 -0.00000000000E+00 -0.51604449032E+02  0.51604449032E+02  0.00000000000E+00 0. -1.
          2    1    1    2  501    0 -0.66239985621E+01  0.23967398898E+02  0.11424303570E+02  0.27364726911E+02  0.00000000000E+00 0.  1.
         -2    1    1    2    0  503  0.66239985621E+01 -0.23967398898E+02 -0.40091643264E+02  0.47176831459E+02  0.00000000000E+00 0. -1.
<mgrwt>
<rscale>  2 0.24865912E+02</rscale>
<asrwt>0</asrwt>
<pdfrwt beam="1">  1       21 0.35287860E-02 0.24865912E+02</pdfrwt>
<pdfrwt beam="2">  1       21 0.79391460E-02 0.24865912E+02</pdfrwt>
<totfact> 0.43060306E+07</totfact>
</mgrwt>
</event>
<event>
 4    1  0.2754379E+004  0.2222941E+02  0.7546771E-02  0.1704314E+00
         21   -1    0    0  503  502  0.00000000000E+00  0.00000000000E+00  0.25467526622E+02  0.25467526622E+02  0.00000000000E+00 0. -1.
         21   -1    0    0  501  503 -0.00000000000E+00 -0.00000000000E+00 -0.19684316350E+02  0.19684316350E+02  0.00000000000E+00 0.  1.
          2    1    1    2  501    0  0.18836070905E+02 -0.11804624657E+02  0.19278856905E+00  0.22230247364E+02  0.00000000000E+00 0. -1.
         -2    1    1    2    0  502 -0.18836070905E+02  0.11804624657E+02  0.55904217032E+01  0.22921595609E+02  0.00000000000E+00 0.  1.
<mgrwt>
<rscale>  2 0.22229411E+02</rscale>
<asrwt>0</asrwt>
<pdfrwt beam="1">  1       21 0.39180810E-02 0.22229411E+02</pdfrwt>
<pdfrwt beam="2">  1       21 0.30283563E-02 0.22229411E+02</pdfrwt>
<totfact> 0.16441815E+08</totfact>
</mgrwt>
</event>
<event>
 4    1  0.2754379E+004  0.2056055E+02  0.7546771E-02  0.1734405E+00
         21   -1    0    0  501  502  0.00000000000E+00  0.00000000000E+00  0.15271823306E+03  0.15271823306E+03  0.00000000000E+00 0. -1.
         21   -1    0    0  502  503 -0.00000000000E+00 -0.00000000000E+00 -0.28658762389E+01  0.28658762389E+01  0.00000000000E+00 0.  1.
          2    1    1    2  501    0  0.52152453365E+01 -0.19888127759E+02  0.89296477685E+02  0.91632948968E+02  0.00000000000E+00 0.  1.
         -2    1    1    2    0  503 -0.52152453365E+01  0.19888127759E+02  0.60555879131E+02  0.63951160326E+02  0.00000000000E+00 0. -1.
<mgrwt>
<rscale>  2 0.20560555E+02</rscale>
<asrwt>0</asrwt>
<pdfrwt beam="1">  1       21 0.23495106E-01 0.20560555E+02</pdfrwt>
<pdfrwt beam="2">  1       21 0.44090416E-03 0.20560555E+02</pdfrwt>
<totfact> 0.15159967E+08</totfact>
</mgrwt>
</event>
<event>
 4    1  0.2754379E+004  0.2298222E+02  0.7546771E-02  0.1691799E+00
         21   -1    0    0  501  502  0.00000000000E+00  0.00000000000E+00  0.18432928525E+02  0.18432928525E+02  0.00000000000E+00 0. -1.
         21   -1    0    0  502  503 -0.00000000000E+00 -0.00000000000E+00 -0.37557649202E+02  0.37557649202E+02  0.00000000000E+00 0.  1.
          2    1    1    2  501    0  0.18167684135E+02 -0.14075425477E+02  0.40681737261E+01  0.23339502708E+02  0.00000000000E+00 0. -1.
         -2    1    1    2    0  503 -0.18167684135E+02  0.14075425477E+02 -0.23192894403E+02  0.32651075020E+02  0.00000000000E+00 0.  1.
<mgrwt>
<rscale>  2 0.22982218E+02</rscale>
<asrwt>0</asrwt>
<pdfrwt beam="1">  1       21 0.28358352E-02 0.22982218E+02</pdfrwt>
<pdfrwt beam="2">  1       21 0.57780998E-02 0.22982218E+02</pdfrwt>
<totfact> 0.99273014E+07</totfact>
</mgrwt>
</event>
<event>
 4    1  0.2754379E+004  0.2068098E+02  0.7546771E-02  0.1732116E+00
         21   -1    0    0  503  502  0.00000000000E+00  0.00000000000E+00  0.93516061142E+01  0.93516061142E+01  0.00000000000E+00 0.  1.
         21   -1    0    0  501  503 -0.00000000000E+00 -0.00000000000E+00 -0.77879564559E+02  0.77879564559E+02  0.00000000000E+00 0. -1.
          2    1    1    2  501    0 -0.70317916119E+01  0.19448822515E+02 -0.62284654902E+02  0.65628355356E+02  0.00000000000E+00 0. -1.
         -2    1    1    2    0  502  0.70317916119E+01 -0.19448822515E+02 -0.62433035429E+01  0.21602815317E+02  0.00000000000E+00 0.  1.
<mgrwt>
<rscale>  2 0.20680977E+02</rscale>
<asrwt>0</asrwt>
<pdfrwt beam="1">  1       21 0.14387087E-02 0.20680977E+02</pdfrwt>
<pdfrwt beam="2">  1       21 0.11981471E-01 0.20680977E+02</pdfrwt>
<totfact> 0.82814929E+07</totfact>
</mgrwt>
</event>
<event>
 4    1  0.2754379E+004  0.2917085E+02  0.7546771E-02  0.1607439E+00
         21   -1    0    0  503  502  0.00000000000E+00  0.00000000000E+00  0.96035108985E+02  0.96035108985E+02  0.00000000000E+00 0. -1.
         21   -1    0    0  501  503 -0.00000000000E+00 -0.00000000000E+00 -0.12238231868E+02  0.12238231868E+02  0.00000000000E+00 0.  1.
          2    1    1    2  501    0  0.13864609307E+02 -0.25665369038E+02  0.13458297186E+02  0.32125757924E+02  0.00000000000E+00 0.  1.
         -2    1    1    2    0  502 -0.13864609307E+02  0.25665369038E+02  0.70338579931E+02  0.76147582928E+02  0.00000000000E+00 0. -1.
<mgrwt>
<rscale>  2 0.29170851E+02</rscale>
<asrwt>0</asrwt>
<pdfrwt beam="1">  1       21 0.14774632E-01 0.29170851E+02</pdfrwt>
<pdfrwt beam="2">  1       21 0.18828050E-02 0.29170851E+02</pdfrwt>
<totfact> 0.41992958E+07</totfact>
</mgrwt>
</event>
<event>
 4    1  0.2754379E+004  0.2013046E+02  0.7546771E-02  0.1742746E+00
         21   -1    0    0  501  502  0.00000000000E+00  0.00000000000E+00  0.12428186084E+02  0.12428186084E+02  0.00000000000E+00 0. -1.
         21   -1    0    0  502  503 -0.00000000000E+00 -0.00000000000E+00 -0.56360225955E+02  0.56360225955E+02  0.00000000000E+00 0.  1.
          2    1    1    2  501    0  0.17036487681E+02 -0.10723506765E+02  0.36290642058E+00  0.20133733159E+02  0.00000000000E+00 0. -1.
         -2    1    1    2    0  503 -0.17036487681E+02  0.10723506765E+02 -0.44294946292E+02  0.48654678880E+02  0.00000000000E+00 0.  1.
<mgrwt>
<rscale>  2 0.20130462E+02</rscale>
<asrwt>0</asrwt>
<pdfrwt beam="1">  1       21 0.19120286E-02 0.20130462E+02</pdfrwt>
<pdfrwt beam="2">  1       21 0.86708042E-02 0.20130462E+02</pdfrwt>
<totfact> 0.90919448E+07</totfact>
</mgrwt>
</event>
<event>
 4    1  0.2754379E+004  0.2040518E+02  0.7546771E-02  0.1737388E+00
         21   -1    0    0  503  502  0.00000000000E+00  0.00000000000E+00  0.12337289010E+04  0.12337289010E+04  0.00000000000E+00 0. -1.
         21   -1    0    0  501  503 -0.00000000000E+00 -0.00000000000E+00 -0.35625969479E+00  0.35625969479E+00  0.00000000000E+00 0.  1.
          2    1    1    2  501    0  0.19945887102E+02 -0.43050087577E+01  0.47505570253E+03  0.47549373499E+03  0.00000000000E+00 0. -1.
         -2    1    1    2    0  502 -0.19945887102E+02  0.43050087577E+01  0.75831693882E+03  0.75859142574E+03  0.00000000000E+00 0.  1.
<mgrwt>
<rscale>  2 0.20405183E+02</rscale>
<asrwt>0</asrwt>
<pdfrwt beam="1">  1       21 0.18980103E+00 0.20405183E+02</pdfrwt>
<pdfrwt beam="2">  1       21 0.54810171E-04 0.20405183E+02</pdfrwt>
<totfact> 0.40762987E+07</totfact>
</mgrwt>
</event>
<event>
 4    1  0.2754379E+004  0.2713581E+02  0.7546771E-02  0.1632093E+00
         21   -1    0    0  501  502  0.00000000000E+00  0.00000000000E+00  0.15347610389E+02  0.15347610389E+02  0.00000000000E+00 0.  1.
         21   -1    0    0  502  503 -0.00000000000E+00 -0.00000000000E+00 -0.51232235542E+02  0.51232235542E+02  0.00000000000E+00 0. -1.
          2    1    1    2  501    0 -0.18614828237E+02  0.19744377001E+02 -0.26331996873E+02  0.37811721896E+02  0.00000000000E+00 0. -1.
         -2    1    1    2    0  503  0.18614828237E+02 -0.19744377001E+02 -0.95526282798E+01  0.28768124035E+02  0.00000000000E+00 0.  1.
<mgrwt>
<rscale>  2 0.27135811E+02</rscale>
<asrwt>0</asrwt>
<pdfrwt beam="1">  1       21 0.23611709E-02 0.27135811E+02</pdfrwt>
<pdfrwt beam="2">  1       21 0.78818822E-02 0.27135811E+02</pdfrwt>
<totfact> 0.83383057E+07</totfact>
</mgrwt>
</event>
<event>
 4    1  0.2754379E+004  0.2795900E+02  0.7546771E-02  0.1621811E+00
         21   -1    0    0  501  502  0.00000000000E+00  0.00000000000E+00  0.15829698180E+03  0.15829698180E+03  0.00000000000E+00 0. -1.
         21   -1    0    0  502  503 -0.00000000000E+00 -0.00000000000E+00 -0.56443253282E+01  0.56443253282E+01  0.00000000000E+00 0.  1.
          2    1    1    2  501    0 -0.19079149562E+02  0.20437514613E+02  0.10531884381E+03  0.10896680602E+03  0.00000000000E+00 0. -1.
         -2    1    1    2    0  503  0.19079149562E+02 -0.20437514613E+02  0.47333812661E+02  0.54974501113E+02  0.00000000000E+00 0.  1.
<mgrwt>
<rscale>  2 0.27959005E+02</rscale>
<asrwt>0</asrwt>
<pdfrwt beam="1">  1       21 0.24353378E-01 0.27959005E+02</pdfrwt>
<pdfrwt beam="2">  1       21 0.86835787E-03 0.27959005E+02</pdfrwt>
<totfact> 0.56351446E+07</totfact>
</mgrwt>
</event>
<event>
 4    1  0.2754379E+004  0.2046015E+02  0.7546771E-02  0.1736329E+00
         21   -1    0    0  501  502  0.00000000000E+00  0.00000000000E+00  0.64445167734E+01  0.64445167734E+01  0.00000000000E+00 0.  1.
         21   -1    0    0  502  503 -0.00000000000E+00 -0.00000000000E+00 -0.15277281828E+03  0.15277281828E+03  0.00000000000E+00 0. -1.
          2    1    1    2  501    0  0.14566085063E+02  0.14368256399E+02 -0.12807762343E+02  0.24138276704E+02  0.00000000000E+00 0.  1.
         -2    1    1    2    0  503 -0.14566085063E+02 -0.14368256399E+02 -0.13352053917E+03  0.13507905835E+03  0.00000000000E+00 0. -1.
<mgrwt>
<rscale>  2 0.20460147E+02</rscale>
<asrwt>0</asrwt>
<pdfrwt beam="1">  1       21 0.99146418E-03 0.20460147E+02</pdfrwt>
<pdfrwt beam="2">  1       21 0.23503509E-01 0.20460147E+02</pdfrwt>
<totfact> 0.45619475E+07</totfact>
</mgrwt>
</event>
<event>
 4    1  0.2754379E+004  0.2435430E+02  0.7546771E-02  0.1670453E+00
         21   -1    0    0  503  502  0.00000000000E+00  0.00000000000E+00  0.16161528474E+03  0.16161528474E+03  0.00000000000E+00 0. -1.
         21   -1    0    0  501  503 -0.00000000000E+00 -0.00000000000E+00 -0.36935318260E+01  0.36935318260E+01  0.00000000000E+00 0.  1.
          2    1    1    2  501    0  0.22296469823E+02 -0.97979348553E+01  0.72366944510E+02  0.76355135725E+02  0.00000000000E+00 0.  1.
         -2    1    1    2    0  502 -0.22296469823E+02  0.97979348553E+01  0.85554808405E+02  0.88953680842E+02  0.00000000000E+00 0. -1.
<mgrwt>
<rscale>  2 0.24354303E+02</rscale>
<asrwt>0</asrwt>
<pdfrwt beam="1">  1       21 0.24863885E-01 0.24354303E+02</pdfrwt>
<pdfrwt beam="2">  1       21 0.56823579E-03 0.24354303E+02</pdfrwt>
<totfact> 0.98961835E+07</totfact>
</mgrwt>
</event>
<event>
 4    1  0.2754379E+004  0.3309008E+02  0.7546771E-02  0.1566246E+00
         21   -1    0    0  501  502  0.00000000000E+00  0.00000000000E+00  0.60848571048E+02  0.60848571048E+02  0.00000000000E+00 0.  1.
         21   -1    0    0  502  503 -0.00000000000E+00 -0.00000000000E+00 -0.26790679142E+02  0.26790679142E+02  0.00000000000E+00 0. -1.
          2    1    1    2  501    0 -0.32953859100E+02 -0.29994048606E+01  0.42137302777E+02  0.53577099067E+02  0.00000000000E+00 0.  1.
         -2    1    1    2    0  503  0.32953859100E+02  0.29994048606E+01 -0.80794108706E+01  0.34062151123E+02  0.00000000000E+00 0. -1.
<mgrwt>
<rscale>  2 0.33090078E+02</rscale>
<asrwt>0</asrwt>
<pdfrwt beam="1">  1       21 0.93613186E-02 0.33090078E+02</pdfrwt>
<pdfrwt beam="2">  1       21 0.41216430E-02 0.33090078E+02</pdfrwt>
<totfact> 0.27245157E+07</totfact>
</mgrwt>
</event>
<event>
 4    1  0.2754379E+004  0.2124075E+02  0.7546771E-02  0.1721723E+00
         21   -1    0    0  503  502  0.00000000000E+00  0.00000000000E+00  0.85865733959E+02  0.85865733959E+02  0.00000000000E+00 0. -1.
         21   -1    0    0  501  503 -0.00000000000E+00 -0.00000000000E+00 -0.12476693178E+02  0.12476693178E+02  0.00000000000E+00 0.  1.
          2    1    1    2  501    0  0.19857209564E+02  0.75406153392E+01 -0.71652795283E+00  0.21252836603E+02  0.00000000000E+00 0.  1.
         -2    1    1    2    0  502 -0.19857209564E+02 -0.75406153392E+01  0.74105568733E+02  0.77089590534E+02  0.00000000000E+00 0. -1.
<mgrwt>
<rscale>  2 0.21240754E+02</rscale>
<asrwt>0</asrwt>
<pdfrwt beam="1">  1       21 0.13210113E-01 0.21240754E+02</pdfrwt>
<pdfrwt beam="2">  1       21 0.19194913E-02 0.21240754E+02</pdfrwt>
<totfact> 0.45708969E+07</totfact>
</mgrwt>
</event>
<event>
 4    1  0.2754379E+004  0.2271660E+02  0.7546771E-02  0.1696145E+00
         21   -1    0    0  503  502  0.00000000000E+00  0.00000000000E+00  0.45670064368E+01  0.45670064368E+01  0.00000000000E+00 0. -1.
         21   -1    0    0  501  503 -0.00000000000E+00 -0.00000000000E+00 -0.24509671926E+03  0.24509671926E+03  0.00000000000E+00 0.  1.
          2    1    1    2  501    0  0.18278155686E+02 -0.13488999646E+02 -0.21191067760E+03  0.21312479763E+03  0.00000000000E+00 0.  1.
         -2    1    1    2    0  502 -0.18278155686E+02  0.13488999646E+02 -0.28619035228E+02  0.36538928065E+02  0.00000000000E+00 0. -1.
<mgrwt>
<rscale>  2 0.22716604E+02</rscale>
<asrwt>0</asrwt>
<pdfrwt beam="1">  1       21 0.70261631E-03 0.22716604E+02</pdfrwt>
<pdfrwt beam="2">  1       21 0.37707191E-01 0.22716604E+02</pdfrwt>
<totfact> 0.33180542E+07</totfact>
</mgrwt>
</event>
<event>
 4    1  0.2754379E+004  0.2250259E+02  0.7546771E-02  0.1699702E+00
         21   -1    0    0  503  502  0.00000000000E+00  0.00000000000E+00  0.45421628555E+01  0.45421628555E+01  0.00000000000E+00 0. -1.
         21   -1    0    0  501  503 -0.00000000000E+00 -0.00000000000E+00 -0.47798520793E+03  0.47798520793E+03  0.00000000000E+00 0.  1.
          2    1    1    2  501    0 -0.16292767585E+02  0.15521350488E+02 -0.44798478633E+03  0.44854959077E+03  0.00000000000E+00 0.  1.
         -2    1    1    2    0  502  0.16292767585E+02 -0.15521350488E+02 -0.25458258747E+02  0.33977780019E+02  0.00000000000E+00 0. -1.
<mgrwt>
<rscale>  2 0.22502591E+02</rscale>
<asrwt>0</asrwt>
<pdfrwt beam="1">  1       21 0.69879440E-03 0.22502591E+02</pdfrwt>
<pdfrwt beam="2">  1       21 0.73536174E-01 0.22502591E+02</pdfrwt>
<totfact> 0.90124506E+06</totfact>
</mgrwt>
</event>
<event>
 4    1  0.2754379E+004  0.2152884E+02  0.7546771E-02  0.1716530E+00
         21   -1    0    0  503  502  0.00000000000E+00  0.00000000000E+00  0.37548248118E+02  0.37548248118E+02  0.00000000000E+00 0.  1.
         21   -1    0    0  501  503 -0.00000000000E+00 -0.00000000000E+00 -0.15453149997E+02  0.15453149997E+02  0.00000000000E+00 0. -1.
          2    1    1    2  501    0 -0.54313160967E+01 -0.20832471405E+02 -0.83960950976E+00  0.21545208366E+02  0.00000000000E+00 0. -1.
         -2    1    1    2    0  502  0.54313160967E+01  0.20832471405E+02  0.22934707631E+02  0.31456189749E+02  0.00000000000E+00 0.  1.
<mgrwt>
<rscale>  2 0.21528843E+02</rscale>
<asrwt>0</asrwt>
<pdfrwt beam="1">  1       21 0.57766535E-02 0.21528843E+02</pdfrwt>
<pdfrwt beam="2">  1       21 0.23774077E-02 0.21528843E+02</pdfrwt>
<totfact> 0.12796235E+08</totfact>
</mgrwt>
</event>
<event>
 4    1  0.2754379E+004  0.2596822E+02  0.7546771E-02  0.1647472E+00
         21   -1    0    0  501  502  0.00000000000E+00  0.00000000000E+00  0.11149818519E+03  0.11149818519E+03  0.00000000000E+00 0.  1.
         21   -1    0    0  502  503 -0.00000000000E+00 -0.00000000000E+00 -0.60496326277E+01  0.60496326277E+01  0.00000000000E+00 0. -1.
          2    1    1    2  501    0 -0.36825003057E+01 -0.25705791479E+02  0.53669702015E+02  0.59622021422E+02  0.00000000000E+00 0. -1.
         -2    1    1    2    0  503  0.36825003057E+01  0.25705791479E+02  0.51778850546E+02  0.57925796395E+02  0.00000000000E+00 0.  1.
<mgrwt>
<rscale>  2 0.25968221E+02</rscale>
<asrwt>0</asrwt>
<pdfrwt beam="1">  1       21 0.17153565E-01 0.25968221E+02</pdfrwt>
<pdfrwt beam="2">  1       21 0.93071279E-03 0.25968221E+02</pdfrwt>
<totfact> 0.92423636E+07</totfact>
</mgrwt>
</event>
<event>
 4    1  0.2754379E+004  0.2363775E+02  0.7546771E-02  0.1681376E+00
         21   -1    0    0  501  502  0.00000000000E+00  0.00000000000E+00  0.92613668108E+00  0.92613668108E+00  0.00000000000E+00 0.  1.
         21   -1    0    0  502  503 -0.00000000000E+00 -0.00000000000E+00 -0.68565614300E+03  0.68565614300E+03  0.00000000000E+00 0. -1.
          2    1    1    2  501    0  0.15282689983E+02  0.18032816990E+02 -0.22339331529E+03  0.22464041581E+03  0.00000000000E+00 0.  1.
         -2    1    1    2    0  503 -0.15282689983E+02 -0.18032816990E+02 -0.46133669104E+03  0.46194186387E+03  0.00000000000E+00 0. -1.
<mgrwt>
<rscale>  2 0.23637747E+02</rscale>
<asrwt>0</asrwt>
<pdfrwt beam="1">  1       21 0.14248276E-03 0.23637747E+02</pdfrwt>
<pdfrwt beam="2">  1       21 0.10548542E+00 0.23637747E+02</pdfrwt>
<totfact> 0.42862002E+07</totfact>
</mgrwt>
</event>
<event>
 4    1  0.2754379E+004  0.2597956E+02  0.7546771E-02  0.1647318E+00
         21   -1    0    0  501  502  0.00000000000E+00  0.00000000000E+00  0.94350203984E+00  0.94350203984E+00  0.00000000000E+00 0. -1.
         21   -1    0    0  502  503 -0.00000000000E+00 -0.00000000000E+00 -0.75037792194E+03  0.75037792194E+03  0.00000000000E+00 0.  1.
          2    1    1    2  501    0 -0.86555164105E+01  0.24495292666E+02 -0.29355716315E+03  0.29470450517E+03  0.00000000000E+00 0.  1.
         -2    1    1    2    0  503  0.86555164105E+01 -0.24495292666E+02 -0.45587725674E+03  0.45661691881E+03  0.00000000000E+00 0. -1.
<mgrwt>
<rscale>  2 0.25979556E+02</rscale>
<asrwt>0</asrwt>
<pdfrwt beam="1">  1       21 0.14515417E-03 0.25979556E+02</pdfrwt>
<pdfrwt beam="2">  1       21 0.11544275E+00 0.25979556E+02</pdfrwt>
<totfact> 0.34751145E+07</totfact>
</mgrwt>
</event>
<event>
 4    1  0.2754379E+004  0.2019637E+02  0.7546771E-02  0.1741451E+00
         21   -1    0    0  503  502  0.00000000000E+00  0.00000000000E+00  0.12431686581E+01  0.12431686581E+01  0.00000000000E+00 0. -1.
         21   -1    0    0  501  503 -0.00000000000E+00 -0.00000000000E+00 -0.58282752714E+03  0.58282752714E+03  0.00000000000E+00 0.  1.
          2    1    1    2  501    0  0.38306625324E+00 -0.20192741003E+02 -0.48385406777E+03  0.48427538904E+03  0.00000000000E+00 0.  1.
         -2    1    1    2    0  502 -0.38306625324E+00  0.20192741003E+02 -0.97730290713E+02  0.99795306763E+02  0.00000000000E+00 0. -1.
<mgrwt>
<rscale>  2 0.20196374E+02</rscale>
<asrwt>0</asrwt>
<pdfrwt beam="1">  1       21 0.19125639E-03 0.20196374E+02</pdfrwt>
<pdfrwt beam="2">  1       21 0.89665929E-01 0.20196374E+02</pdfrwt>
<totfact> 0.38617460E+07</totfact>
</mgrwt>
</event>
<event>
 4    1  0.2754379E+004  0.3798836E+02  0.7546771E-02  0.1523559E+00
         21   -1    0    0  501  502  0.00000000000E+00  0.00000000000E+00  0.59502339239E+02  0.59502339239E+02  0.00000000000E+00 0. -1.
         21   -1    0    0  502  503 -0.00000000000E+00 -0.00000000000E+00 -0.30007825599E+02  0.30007825599E+02  0.00000000000E+00 0.  1.
          2    1    1    2  501    0  0.20172611123E+02  0.32189766309E+02  0.34346439985E+02  0.51213213473E+02  0.00000000000E+00 0. -1.
         -2    1    1    2    0  503 -0.20172611123E+02 -0.32189766309E+02 -0.48519263457E+01  0.38296951365E+02  0.00000000000E+00 0.  1.
<mgrwt>
<rscale>  2 0.37988357E+02</rscale>
<asrwt>0</asrwt>
<pdfrwt beam="1">  1       21 0.91542060E-02 0.37988357E+02</pdfrwt>
<pdfrwt beam="2">  1       21 0.46165886E-02 0.37988357E+02</pdfrwt>
<totfact> 0.24166297E+07</totfact>
</mgrwt>
</event>
<event>
 4    1  0.2754379E+004  0.2618802E+02  0.7546771E-02  0.1644502E+00
         21   -1    0    0  501  502  0.00000000000E+00  0.00000000000E+00  0.64607030108E+02  0.64607030108E+02  0.00000000000E+00 0. -1.
         21   -1    0    0  502  503 -0.00000000000E+00 -0.00000000000E+00 -0.13664831312E+02  0.13664831312E+02  0.00000000000E+00 0.  1.
          2    1    1    2  501    0 -0.26015474367E+02 -0.30012417672E+01  0.43959605158E+02  0.51168928505E+02  0.00000000000E+00 0.  1.
         -2    1    1    2    0  503  0.26015474367E+02  0.30012417672E+01  0.69825936382E+01  0.27102932915E+02  0.00000000000E+00 0. -1.
<mgrwt>
<rscale>  2 0.26188019E+02</rscale>
<asrwt>0</asrwt>
<pdfrwt beam="1">  1       21 0.99395429E-02 0.26188019E+02</pdfrwt>
<pdfrwt beam="2">  1       21 0.21022818E-02 0.26188019E+02</pdfrwt>
<totfact> 0.67445558E+07</totfact>
</mgrwt>
</event>
<event>
 4    1  0.2754379E+004  0.2916982E+02  0.7546771E-02  0.1607451E+00
         21   -1    0    0  501  502  0.00000000000E+00  0.00000000000E+00  0.22211795132E+02  0.22211795132E+02  0.00000000000E+00 0.  1.
         21   -1    0    0  502  503 -0.00000000000E+00 -0.00000000000E+00 -0.86612251694E+02  0.86612251694E+02  0.00000000000E+00 0. -1.
          2    1    1    2  501    0 -0.17997747559E+02  0.22955593591E+02  0.84347627762E+01  0.30364838505E+02  0.00000000000E+00 0.  1.
         -2    1    1    2    0  503  0.17997747559E+02 -0.22955593591E+02 -0.72835219338E+02  0.78459208321E+02  0.00000000000E+00 0. -1.
<mgrwt>
<rscale>  2 0.29169816E+02</rscale>
<asrwt>0</asrwt>
<pdfrwt beam="1">  1       21 0.34171992E-02 0.29169816E+02</pdfrwt>
<pdfrwt beam="2">  1       21 0.13324962E-01 0.29169816E+02</pdfrwt>
<totfact> 0.19758904E+07</totfact>
</mgrwt>
</event>
<event>
 4    1  0.2754379E+004  0.2382525E+02  0.7546771E-02  0.1678472E+00
         21   -1    0    0  503  502  0.00000000000E+00  0.00000000000E+00  0.10983263806E+03  0.10983263806E+03  0.00000000000E+00 0.  1.
         21   -1    0    0  501  503 -0.00000000000E+00 -0.00000000000E+00 -0.61807286985E+01  0.61807286985E+01  0.00000000000E+00 0. -1.
          2    1    1    2  501    0 -0.23822764743E+02 -0.34423229474E+00  0.28348501815E+02  0.37030800303E+02  0.00000000000E+00 0. -1.
         -2    1    1    2    0  502  0.23822764743E+02  0.34423229474E+00  0.75303407545E+02  0.78982566455E+02  0.00000000000E+00 0.  1.
<mgrwt>
<rscale>  2 0.23825252E+02</rscale>
<asrwt>0</asrwt>
<pdfrwt beam="1">  1       21 0.16897328E-01 0.23825252E+02</pdfrwt>
<pdfrwt beam="2">  1       21 0.95088142E-03 0.23825252E+02</pdfrwt>
<totfact> 0.89815295E+07</totfact>
</mgrwt>
</event>
<event>
 4    1  0.2754379E+004  0.2205058E+02  0.7546771E-02  0.1707379E+00
         21   -1    0    0  501  502  0.00000000000E+00  0.00000000000E+00  0.80993228366E+02  0.80993228366E+02  0.00000000000E+00 0.  1.
         21   -1    0    0  502  503 -0.00000000000E+00 -0.00000000000E+00 -0.61427747113E+01  0.61427747113E+01  0.00000000000E+00 0. -1.
          2    1    1    2  501    0 -0.20692191867E+02 -0.76198082501E+01  0.43989727021E+02  0.49206954442E+02  0.00000000000E+00 0. -1.
         -2    1    1    2    0  503  0.20692191867E+02  0.76198082501E+01  0.30860726634E+02  0.37929048636E+02  0.00000000000E+00 0.  1.
<mgrwt>
<rscale>  2 0.22050585E+02</rscale>
<asrwt>0</asrwt>
<pdfrwt beam="1">  1       21 0.12460496E-01 0.22050585E+02</pdfrwt>
<pdfrwt beam="2">  1       21 0.94504232E-03 0.22050585E+02</pdfrwt>
<totfact> 0.14872535E+08</totfact>
</mgrwt>
</event>
<event>
 4    1  0.2754379E+004  0.3417067E+02  0.7546771E-02  0.1556091E+00
         21   -1    0    0  501  502  0.00000000000E+00  0.00000000000E+00  0.14679062444E+03  0.14679062444E+03  0.00000000000E+00 0. -1.
         21   -1    0    0  502  503 -0.00000000000E+00 -0.00000000000E+00 -0.99143835555E+01  0.99143835555E+01  0.00000000000E+00 0.  1.
          2    1    1    2  501    0 -0.21355138974E+02  0.26675691387E+02  0.10327537120E+03  0.10878160124E+03  0.00000000000E+00 0. -1.
         -2    1    1    2    0  503  0.21355138974E+02 -0.26675691387E+02  0.33600869682E+02  0.47923406755E+02  0.00000000000E+00 0.  1.
<mgrwt>
<rscale>  2 0.34170667E+02</rscale>
<asrwt>0</asrwt>
<pdfrwt beam="1">  1       21 0.22583171E-01 0.34170667E+02</pdfrwt>
<pdfrwt beam="2">  1       21 0.15252899E-02 0.34170667E+02</pdfrwt>
<totfact> 0.28488710E+07</totfact>
</mgrwt>
</event>
<event>
 4    1  0.2754379E+004  0.2690795E+02  0.7546771E-02  0.1635019E+00
         21   -1    0    0  501  502  0.00000000000E+00  0.00000000000E+00  0.15224118885E+03  0.15224118885E+03  0.00000000000E+00 0. -1.
         21   -1    0    0  502  503 -0.00000000000E+00 -0.00000000000E+00 -0.10087489367E+02  0.10087489367E+02  0.00000000000E+00 0.  1.
          2    1    1    2  501    0 -0.54037770962E+01  0.26359764391E+02  0.13008386298E+03  0.13283768063E+03  0.00000000000E+00 0. -1.
         -2    1    1    2    0  503  0.54037770962E+01 -0.26359764391E+02  0.12069836496E+02  0.29490997587E+02  0.00000000000E+00 0.  1.
<mgrwt>
<rscale>  2 0.26907954E+02</rscale>
<asrwt>0</asrwt>
<pdfrwt beam="1">  1       21 0.23421720E-01 0.26907954E+02</pdfrwt>
<pdfrwt beam="2">  1       21 0.15519215E-02 0.26907954E+02</pdfrwt>
<totfact> 0.24823413E+07</totfact>
</mgrwt>
</event>
<event>
 4    1  0.2754379E+004  0.2180635E+02  0.7546771E-02  0.1711623E+00
         21   -1    0    0  503  502  0.00000000000E+00  0.00000000000E+00  0.40692777456E+02  0.40692777456E+02  0.00000000000E+00 0.  1.
         21   -1    0    0  501  503 -0.00000000000E+00 -0.00000000000E+00 -0.11686985938E+02  0.11686985938E+02  0.00000000000E+00 0. -1.
          2    1    1    2  501    0  0.41205675657E+01 -0.21413496111E+02  0.14794666843E+02  0.26351452706E+02  0.00000000000E+00 0.  1.
         -2    1    1    2    0  502 -0.41205675657E+01  0.21413496111E+02  0.14211124675E+02  0.26028310688E+02  0.00000000000E+00 0. -1.
<mgrwt>
<rscale>  2 0.21806350E+02</rscale>
<asrwt>0</asrwt>
<pdfrwt beam="1">  1       21 0.62604272E-02 0.21806350E+02</pdfrwt>
<pdfrwt beam="2">  1       21 0.17979979E-02 0.21806350E+02</pdfrwt>
<totfact> 0.17328348E+08</totfact>
</mgrwt>
</event>
<event>
 4    1  0.2754379E+004  0.2217182E+02  0.7546771E-02  0.1705297E+00
         21   -1    0    0  501  502  0.00000000000E+00  0.00000000000E+00  0.12315103814E+01  0.12315103814E+01  0.00000000000E+00 0. -1.
         21   -1    0    0  502  503 -0.00000000000E+00 -0.00000000000E+00 -0.54792711362E+03  0.54792711362E+03  0.00000000000E+00 0.  1.
          2    1    1    2  501    0  0.79656915131E+00 -0.22157510840E+02 -0.13028193482E+03  0.13215510717E+03  0.00000000000E+00 0. -1.
         -2    1    1    2    0  503 -0.79656915131E+00  0.22157510840E+02 -0.41641366842E+03  0.41700351683E+03  0.00000000000E+00 0.  1.
<mgrwt>
<rscale>  2 0.22171825E+02</rscale>
<asrwt>0</asrwt>
<pdfrwt beam="1">  1       21 0.18946285E-03 0.22171825E+02</pdfrwt>
<pdfrwt beam="2">  1       21 0.84296605E-01 0.22171825E+02</pdfrwt>
<totfact> 0.45571904E+07</totfact>
</mgrwt>
</event>
<event>
 4    1  0.2754379E+004  0.2221677E+02  0.7546771E-02  0.1704530E+00
         21   -1    0    0  501  502  0.00000000000E+00  0.00000000000E+00  0.16928886869E+03  0.16928886869E+03  0.00000000000E+00 0.  1.
         21   -1    0    0  502  503 -0.00000000000E+00 -0.00000000000E+00 -0.48562787057E+01  0.48562787057E+01  0.00000000000E+00 0. -1.
          2    1    1    2  501    0  0.16290562587E+02  0.15106367143E+02  0.13725932680E+03  0.13904570310E+03  0.00000000000E+00 0.  1.
         -2    1    1    2    0  503 -0.16290562587E+02 -0.15106367143E+02  0.27173263187E+02  0.35099444296E+02  0.00000000000E+00 0. -1.
<mgrwt>
<rscale>  2 0.22216767E+02</rscale>
<asrwt>0</asrwt>
<pdfrwt beam="1">  1       21 0.26044437E-01 0.22216767E+02</pdfrwt>
<pdfrwt beam="2">  1       21 0.74711993E-03 0.22216767E+02</pdfrwt>
<totfact> 0.59217366E+07</totfact>
</mgrwt>
</event>
<event>
 4    1  0.2754379E+004  0.2193386E+02  0.7546771E-02  0.1709398E+00
         21   -1    0    0  501  502  0.00000000000E+00  0.00000000000E+00  0.10398182588E+03  0.10398182588E+03  0.00000000000E+00 0.  1.
         21   -1    0    0  502  503 -0.00000000000E+00 -0.00000000000E+00 -0.57924572010E+02  0.57924572010E+02  0.00000000000E+00 0. -1.
          2    1    1    2  501    0  0.12063775190E+02  0.18318290350E+02  0.10068148871E+03  0.10304298425E+03  0.00000000000E+00 0.  1.
         -2    1    1    2    0  503 -0.12063775190E+02 -0.18318290350E+02 -0.54624234844E+02  0.58863413641E+02  0.00000000000E+00 0. -1.
<mgrwt>
<rscale>  2 0.21933865E+02</rscale>
<asrwt>0</asrwt>
<pdfrwt beam="1">  1       21 0.15997204E-01 0.21933865E+02</pdfrwt>
<pdfrwt beam="2">  1       21 0.89114726E-02 0.21933865E+02</pdfrwt>
<totfact> 0.29539038E+06</totfact>
</mgrwt>
</event>
<event>
 4    1  0.2754379E+004  0.2199637E+02  0.7546771E-02  0.1708315E+00
         21   -1    0    0  501  502  0.00000000000E+00  0.00000000000E+00  0.71103107210E+03  0.71103107210E+03  0.00000000000E+00 0. -1.
         21   -1    0    0  502  503 -0.00000000000E+00 -0.00000000000E+00 -0.42499361739E+01  0.42499361739E+01  0.00000000000E+00 0.  1.
          2    1    1    2  501    0 -0.18597038710E+02  0.11746938359E+02  0.68115112863E+03  0.68150619986E+03  0.00000000000E+00 0. -1.
         -2    1    1    2    0  503  0.18597038710E+02 -0.11746938359E+02  0.25630007296E+02  0.33774808417E+02  0.00000000000E+00 0.  1.
<mgrwt>
<rscale>  2 0.21996373E+02</rscale>
<asrwt>0</asrwt>
<pdfrwt beam="1">  1       21 0.10938930E+00 0.21996373E+02</pdfrwt>
<pdfrwt beam="2">  1       21 0.65383690E-03 0.21996373E+02</pdfrwt>
<totfact> 0.42372174E+06</totfact>
</mgrwt>
</event>
<event>
 4    1  0.2754379E+004  0.2245028E+02  0.7546771E-02  0.1700579E+00
         21   -1    0    0  503  502  0.00000000000E+00  0.00000000000E+00  0.16081230306E+02  0.16081230306E+02  0.00000000000E+00 0. -1.
         21   -1    0    0  501  503 -0.00000000000E+00 -0.00000000000E+00 -0.34598891792E+02  0.34598891792E+02  0.00000000000E+00 0.  1.
          2    1    1    2  501    0 -0.66016901337E+00 -0.22440570406E+02 -0.14840126242E+01  0.22499273693E+02  0.00000000000E+00 0. -1.
         -2    1    1    2    0  502  0.66016901337E+00  0.22440570406E+02 -0.17033648862E+02  0.28180848405E+02  0.00000000000E+00 0.  1.
<mgrwt>
<rscale>  2 0.22450279E+02</rscale>
<asrwt>0</asrwt>
<pdfrwt beam="1">  1       21 0.24740354E-02 0.22450279E+02</pdfrwt>
<pdfrwt beam="2">  1       21 0.53229064E-02 0.22450279E+02</pdfrwt>
<totfact> 0.13887757E+08</totfact>
</mgrwt>
</event>
<event>
 4    1  0.2754379E+004  0.3241665E+02  0.7546771E-02  0.1572816E+00
         21   -1    0    0  503  502  0.00000000000E+00  0.00000000000E+00  0.75462278761E+00  0.75462278761E+00  0.00000000000E+00 0.  1.
         21   -1    0    0  501  503 -0.00000000000E+00 -0.00000000000E+00 -0.14093866012E+04  0.14093866012E+04  0.00000000000E+00 0. -1.
          2    1    1    2  501    0 -0.37393020437E+01 -0.32200261288E+02 -0.78141139747E+03  0.78208350661E+03  0.00000000000E+00 0. -1.
         -2    1    1    2    0  502  0.37393020437E+01  0.32200261288E+02 -0.62722058094E+03  0.62805771738E+03  0.00000000000E+00 0.  1.
<mgrwt>
<rscale>  2 0.32416650E+02</rscale>
<asrwt>0</asrwt>
<pdfrwt beam="1">  1       21 0.11609536E-03 0.32416650E+02</pdfrwt>
<pdfrwt beam="2">  1       21 0.21682956E+00 0.32416650E+02</pdfrwt>
<totfact> 0.10492677E+07</totfact>
</mgrwt>
</event>
<event>
 4    1  0.2754379E+004  0.4664138E+02  0.7546771E-02  0.1464347E+00
         21   -1    0    0  501  502  0.00000000000E+00  0.00000000000E+00  0.92403767959E+02  0.92403767959E+02  0.00000000000E+00 0.  1.
         21   -1    0    0  502  503 -0.00000000000E+00 -0.00000000000E+00 -0.56299543281E+02  0.56299543281E+02  0.00000000000E+00 0. -1.
          2    1    1    2  501    0 -0.43993268630E+02  0.15492278518E+02  0.74766123372E+02  0.88121459262E+02  0.00000000000E+00 0.  1.
         -2    1    1    2    0  503  0.43993268630E+02 -0.15492278518E+02 -0.38661898695E+02  0.60581851978E+02  0.00000000000E+00 0. -1.
<mgrwt>
<rscale>  2 0.46641381E+02</rscale>
<asrwt>0</asrwt>
<pdfrwt beam="1">  1       21 0.14215964E-01 0.46641381E+02</pdfrwt>
<pdfrwt beam="2">  1       21 0.86614682E-02 0.46641381E+02</pdfrwt>
<totfact> 0.41527584E+06</totfact>
</mgrwt>
</event>
<event>
 4    1  0.2754379E+004  0.2993879E+02  0.7546771E-02  0.1598766E+00
         21   -1    0    0  503  502  0.00000000000E+00  0.00000000000E+00  0.66637498890E+03  0.66637498890E+03  0.00000000000E+00 0. -1.
         21   -1    0    0  501  503 -0.00000000000E+00 -0.00000000000E+00 -0.22562883332E+01  0.22562883332E+01  0.00000000000E+00 0.  1.
          2    1    1    2  501    0  0.28531715834E+02 -0.90704201278E+01  0.11960436503E+03  0.12329450703E+03  0.00000000000E+00 0.  1.
         -2    1    1    2    0  502 -0.28531715834E+02  0.90704201278E+01  0.54451433554E+03  0.54533677020E+03  0.00000000000E+00 0. -1.
<mgrwt>
<rscale>  2 0.29938793E+02</rscale>
<asrwt>0</asrwt>
<pdfrwt beam="1">  1       21 0.10251907E+00 0.29938793E+02</pdfrwt>
<pdfrwt beam="2">  1       21 0.34712181E-03 0.29938793E+02</pdfrwt>
<totfact> 0.13037843E+07</totfact>
</mgrwt>
</event>
<event>
 4    1  0.2754379E+004  0.2195040E+02  0.7546771E-02  0.1709111E+00
         21   -1    0    0  503  502  0.00000000000E+00  0.00000000000E+00  0.12085012412E+02  0.12085012412E+02  0.00000000000E+00 0. -1.
         21   -1    0    0  501  503 -0.00000000000E+00 -0.00000000000E+00 -0.44512373044E+02  0.44512373044E+02  0.00000000000E+00 0.  1.
          2    1    1    2  501    0 -0.21945255786E+02  0.47500540028E+00 -0.25353403213E+02  0.33535278978E+02  0.00000000000E+00 0.  1.
         -2    1    1    2    0  502  0.21945255786E+02 -0.47500540028E+00 -0.70739574187E+01  0.23062106478E+02  0.00000000000E+00 0. -1.
<mgrwt>
<rscale>  2 0.21950396E+02</rscale>
<asrwt>0</asrwt>
<pdfrwt beam="1">  1       21 0.18592327E-02 0.21950396E+02</pdfrwt>
<pdfrwt beam="2">  1       21 0.68480574E-02 0.21950396E+02</pdfrwt>
<totfact> 0.14278422E+08</totfact>
</mgrwt>
</event>
<event>
 4    1  0.2754379E+004  0.2120419E+02  0.7546771E-02  0.1722390E+00
         21   -1    0    0  501  502  0.00000000000E+00  0.00000000000E+00  0.42518992542E+02  0.42518992542E+02  0.00000000000E+00 0. -1.
         21   -1    0    0  502  503 -0.00000000000E+00 -0.00000000000E+00 -0.12810547718E+02  0.12810547718E+02  0.00000000000E+00 0.  1.
          2    1    1    2  501    0 -0.19273043239E+02 -0.88412403135E+01  0.26412211765E+02  0.33870675463E+02  0.00000000000E+00 0. -1.
         -2    1    1    2    0  503  0.19273043239E+02  0.88412403135E+01  0.32962330587E+01  0.21458864797E+02  0.00000000000E+00 0.  1.
<mgrwt>
<rscale>  2 0.21204191E+02</rscale>
<asrwt>0</asrwt>
<pdfrwt beam="1">  1       21 0.65413834E-02 0.21204191E+02</pdfrwt>
<pdfrwt beam="2">  1       21 0.19708535E-02 0.21204191E+02</pdfrwt>
<totfact> 0.13914675E+08</totfact>
</mgrwt>
</event>
<event>
 4    1  0.2754379E+004  0.2022579E+02  0.7546771E-02  0.1740875E+00
         21   -1    0    0  503  502  0.00000000000E+00  0.00000000000E+00  0.12706074558E+03  0.12706074558E+03  0.00000000000E+00 0.  1.
         21   -1    0    0  501  503 -0.00000000000E+00 -0.00000000000E+00 -0.37631361385E+01  0.37631361385E+01  0.00000000000E+00 0. -1.
          2    1    1    2  501    0 -0.20061533215E+02 -0.25724166658E+01  0.36788661780E+02  0.41981997070E+02  0.00000000000E+00 0. -1.
         -2    1    1    2    0  502  0.20061533215E+02  0.25724166658E+01  0.86508947666E+02  0.88841884653E+02  0.00000000000E+00 0.  1.
<mgrwt>
<rscale>  2 0.20225787E+02</rscale>
<asrwt>0</asrwt>
<pdfrwt beam="1">  1       21 0.19547804E-01 0.20225787E+02</pdfrwt>
<pdfrwt beam="2">  1       21 0.57894412E-03 0.20225787E+02</pdfrwt>
<totfact> 0.13942544E+08</totfact>
</mgrwt>
</event>
<event>
 4    1  0.2754379E+004  0.2379170E+02  0.7546771E-02  0.1678989E+00
         21   -1    0    0  503  502  0.00000000000E+00  0.00000000000E+00  0.54885318404E+01  0.54885318404E+01  0.00000000000E+00 0. -1.
         21   -1    0    0  501  503 -0.00000000000E+00 -0.00000000000E+00 -0.13017344062E+03  0.13017344062E+03  0.00000000000E+00 0.  1.
          2    1    1    2  501    0  0.65550732252E+01 -0.22870858352E+02 -0.93258155505E+02  0.96245149046E+02  0.00000000000E+00 0.  1.
         -2    1    1    2    0  502 -0.65550732252E+01  0.22870858352E+02 -0.31426753279E+02  0.39416823419E+02  0.00000000000E+00 0. -1.
<mgrwt>
<rscale>  2 0.23791703E+02</rscale>
<asrwt>0</asrwt>
<pdfrwt beam="1">  1       21 0.84438956E-03 0.23791703E+02</pdfrwt>
<pdfrwt beam="2">  1       21 0.20026682E-01 0.23791703E+02</pdfrwt>
<totfact> 0.79897974E+07</totfact>
</mgrwt>
</event>
<event>
 4    1  0.2754379E+004  0.2038783E+02  0.7546771E-02  0.1737724E+00
         21   -1    0    0  501  502  0.00000000000E+00  0.00000000000E+00  0.78145513135E+02  0.78145513135E+02  0.00000000000E+00 0.  1.
         21   -1    0    0  502  503 -0.00000000000E+00 -0.00000000000E+00 -0.75820992115E+01  0.75820992115E+01  0.00000000000E+00 0. -1.
          2    1    1    2  501    0  0.20152200122E+02  0.30906801775E+01  0.58699103042E+02  0.62138942473E+02  0.00000000000E+00 0.  1.
         -2    1    1    2    0  503 -0.20152200122E+02 -0.30906801775E+01  0.11864310882E+02  0.23588669874E+02  0.00000000000E+00 0. -1.
<mgrwt>
<rscale>  2 0.20387827E+02</rscale>
<asrwt>0</asrwt>
<pdfrwt beam="1">  1       21 0.12022386E-01 0.20387827E+02</pdfrwt>
<pdfrwt beam="2">  1       21 0.11664769E-02 0.20387827E+02</pdfrwt>
<totfact> 0.11249339E+08</totfact>
</mgrwt>
</event>
<event>
 4    1  0.2754379E+004  0.2294413E+02  0.7546771E-02  0.1692417E+00
         21   -1    0    0  503  502  0.00000000000E+00  0.00000000000E+00  0.63563134380E+02  0.63563134380E+02  0.00000000000E+00 0. -1.
         21   -1    0    0  501  503 -0.00000000000E+00 -0.00000000000E+00 -0.23627877376E+02  0.23627877376E+02  0.00000000000E+00 0.  1.
          2    1    1    2  501    0  0.22089715739E+02  0.62030301294E+01 -0.15166121502E+02  0.27503533694E+02  0.00000000000E+00 0.  1.
         -2    1    1    2    0  502 -0.22089715739E+02 -0.62030301294E+01  0.55101378506E+02  0.59687478062E+02  0.00000000000E+00 0. -1.
<mgrwt>
<rscale>  2 0.22944130E+02</rscale>
<asrwt>0</asrwt>
<pdfrwt beam="1">  1       21 0.97789437E-02 0.22944130E+02</pdfrwt>
<pdfrwt beam="2">  1       21 0.36350581E-02 0.22944130E+02</pdfrwt>
<totfact> 0.28618301E+07</totfact>
</mgrwt>
</event>
<event>
 4    1  0.2754379E+004  0.2385956E+02  0.7546771E-02  0.1677944E+00
         21   -1    0    0  503  502  0.00000000000E+00  0.00000000000E+00  0.68210725459E+02  0.68210725459E+02  0.00000000000E+00 0. -1.
         21   -1    0    0  501  503 -0.00000000000E+00 -0.00000000000E+00 -0.83471330265E+01  0.83471330265E+01  0.00000000000E+00 0.  1.
          2    1    1    2  501    0  0.12240551525E+02 -0.20480416248E+02  0.29462858165E+02  0.37912248187E+02  0.00000000000E+00 0.  1.
         -2    1    1    2    0  502 -0.12240551525E+02  0.20480416248E+02  0.30400734268E+02  0.38645610299E+02  0.00000000000E+00 0. -1.
<mgrwt>
<rscale>  2 0.23859559E+02</rscale>
<asrwt>0</asrwt>
<pdfrwt beam="1">  1       21 0.10493957E-01 0.23859559E+02</pdfrwt>
<pdfrwt beam="2">  1       21 0.12841744E-02 0.23859559E+02</pdfrwt>
<totfact> 0.12776799E+08</totfact>
</mgrwt>
</event>
<event>
 4    1  0.2754379E+004  0.3187478E+02  0.7546771E-02  0.1578244E+00
         21   -1    0    0  501  502  0.00000000000E+00  0.00000000000E+00  0.57826579270E+02  0.57826579270E+02  0.00000000000E+00 0.  1.
         21   -1    0    0  502  503 -0.00000000000E+00 -0.00000000000E+00 -0.19045255200E+02  0.19045255200E+02  0.00000000000E+00 0. -1.
          2    1    1    2  501    0  0.26881055209E+02  0.17129235674E+02  0.30088741454E+02  0.43833026433E+02  0.00000000000E+00 0. -1.
         -2    1    1    2    0  503 -0.26881055209E+02 -0.17129235674E+02  0.86925826154E+01  0.33038808037E+02  0.00000000000E+00 0.  1.
<mgrwt>
<rscale>  2 0.31874784E+02</rscale>
<asrwt>0</asrwt>
<pdfrwt beam="1">  1       21 0.88963967E-02 0.31874784E+02</pdfrwt>
<pdfrwt beam="2">  1       21 0.29300393E-02 0.31874784E+02</pdfrwt>
<totfact> 0.50583372E+07</totfact>
</mgrwt>
</event>
<event>
 4    1  0.2754379E+004  0.2934484E+02  0.7546771E-02  0.1605446E+00
         21   -1    0    0  501  502  0.00000000000E+00  0.00000000000E+00  0.14164723570E+03  0.14164723570E+03  0.00000000000E+00 0. -1.
         21   -1    0    0  502  503 -0.00000000000E+00 -0.00000000000E+00 -0.28049015110E+02  0.28049015110E+02  0.00000000000E+00 0.  1.
          2    1    1    2  501    0  0.25353579592E+02  0.14775513939E+02  0.13189140796E+03  0.13511648050E+03  0.00000000000E+00 0. -1.
         -2    1    1    2    0  503 -0.25353579592E+02 -0.14775513939E+02 -0.18293187369E+02  0.34579770306E+02  0.00000000000E+00 0.  1.
<mgrwt>
<rscale>  2 0.29344843E+02</rscale>
<asrwt>0</asrwt>
<pdfrwt beam="1">  1       21 0.21791882E-01 0.29344843E+02</pdfrwt>
<pdfrwt beam="2">  1       21 0.43152332E-02 0.29344843E+02</pdfrwt>
<totfact> 0.58073662E+06</totfact>
</mgrwt>
</event>
<event>
 4    1  0.2754379E+004  0.2281020E+02  0.7546771E-02  0.1694605E+00
         21   -1    0    0  501  502  0.00000000000E+00  0.00000000000E+00  0.77429113979E+02  0.77429113979E+02  0.00000000000E+00 0. -1.
         21   -1    0    0  502  503 -0.00000000000E+00 -0.00000000000E+00 -0.11546860827E+02  0.11546860827E+02  0.00000000000E+00 0.  1.
          2    1    1    2  501    0  0.17344282653E+02  0.14814895098E+02  0.61705430280E+02  0.65786513691E+02  0.00000000000E+00 0. -1.
         -2    1    1    2    0  503 -0.17344282653E+02 -0.14814895098E+02  0.41768228712E+01  0.23189461116E+02  0.00000000000E+00 0.  1.
<mgrwt>
<rscale>  2 0.22810201E+02</rscale>
<asrwt>0</asrwt>
<pdfrwt beam="1">  1       21 0.11912171E-01 0.22810201E+02</pdfrwt>
<pdfrwt beam="2">  1       21 0.17764402E-02 0.22810201E+02</pdfrwt>
<totfact> 0.62345279E+07</totfact>
</mgrwt>
</event>
<event>
 4    1  0.2754379E+004  0.2491119E+02  0.7546771E-02  0.1662281E+00
         21   -1    0    0  501  502  0.00000000000E+00  0.00000000000E+00  0.28332866951E+03  0.28332866951E+03  0.00000000000E+00 0.  1.
         21   -1    0    0  502  503 -0.00000000000E+00 -0.00000000000E+00 -0.61218097970E+01  0.61218097970E+01  0.00000000000E+00 0. -1.
          2    1    1    2  501    0  0.59671935435E+01  0.24185943641E+02  0.25458407167E+03  0.25579995468E+03  0.00000000000E+00 0.  1.
         -2    1    1    2    0  503 -0.59671935435E+01 -0.24185943641E+02  0.22622788047E+02  0.33650524626E+02  0.00000000000E+00 0. -1.
<mgrwt>
<rscale>  2 0.24911188E+02</rscale>
<asrwt>0</asrwt>
<pdfrwt beam="1">  1       21 0.43589016E-01 0.24911188E+02</pdfrwt>
<pdfrwt beam="2">  1       21 0.94181711E-03 0.24911188E+02</pdfrwt>
<totfact> 0.16596298E+07</totfact>
</mgrwt>
</event>
<event>
 4    1  0.2754379E+004  0.2200732E+02  0.7546771E-02  0.1708125E+00
         21   -1    0    0  503  502  0.00000000000E+00  0.00000000000E+00  0.21386719630E+04  0.21386719630E+04  0.00000000000E+00 0. -1.
         21   -1    0    0  501  503 -0.00000000000E+00 -0.00000000000E+00 -0.30395299778E+00  0.30395299778E+00  0.00000000000E+00 0.  1.
          2    1    1    2  501    0 -0.17153812514E+02 -0.13786540239E+02  0.52916864637E+03  0.52962607401E+03  0.00000000000E+00 0.  1.
         -2    1    1    2    0  502  0.17153812514E+02  0.13786540239E+02  0.16091993636E+04  0.16093498420E+04  0.00000000000E+00 0. -1.
<mgrwt>
<rscale>  2 0.22007316E+02</rscale>
<asrwt>0</asrwt>
<pdfrwt beam="1">  1       21 0.32901441E+00 0.22007316E+02</pdfrwt>
<pdfrwt beam="2">  1       21 0.46763712E-04 0.22007316E+02</pdfrwt>
<totfact> 0.10304013E+07</totfact>
</mgrwt>
</event>
<event>
 4    1  0.2754379E+004  0.5614594E+02  0.7546771E-02  0.1414756E+00
         21   -1    0    0  503  502  0.00000000000E+00  0.00000000000E+00  0.37717868537E+02  0.37717868537E+02  0.00000000000E+00 0. -1.
         21   -1    0    0  501  503 -0.00000000000E+00 -0.00000000000E+00 -0.11154652014E+03  0.11154652014E+03  0.00000000000E+00 0.  1.
          2    1    1    2  501    0  0.54753293017E+02 -0.12427536975E+02 -0.74285478299E+02  0.93116588520E+02  0.00000000000E+00 0.  1.
         -2    1    1    2    0  502 -0.54753293017E+02  0.12427536975E+02  0.45682669820E+00  0.56147800154E+02  0.00000000000E+00 0. -1.
<mgrwt>
<rscale>  2 0.56145942E+02</rscale>
<asrwt>0</asrwt>
<pdfrwt beam="1">  1       21 0.58027491E-02 0.56145942E+02</pdfrwt>
<pdfrwt beam="2">  1       21 0.17161003E-01 0.56145942E+02</pdfrwt>
<totfact> 0.59188239E+06</totfact>
</mgrwt>
</event>
<event>
 4    1  0.2754379E+004  0.2257442E+02  0.7546771E-02  0.1698503E+00
         21   -1    0    0  503  502  0.00000000000E+00  0.00000000000E+00  0.93784930495E+01  0.93784930495E+01  0.00000000000E+00 0. -1.
         21   -1    0    0  501  503 -0.00000000000E+00 -0.00000000000E+00 -0.30580593067E+03  0.30580593067E+03  0.00000000000E+00 0.  1.
          2    1    1    2  501    0  0.22344686127E+02 -0.32123854208E+01 -0.29112071282E+03  0.29199464696E+03  0.00000000000E+00 0.  1.
         -2    1    1    2    0  502 -0.22344686127E+02  0.32123854208E+01 -0.53067248003E+01  0.23189776763E+02  0.00000000000E+00 0. -1.
<mgrwt>
<rscale>  2 0.22574420E+02</rscale>
<asrwt>0</asrwt>
<pdfrwt beam="1">  1       21 0.14428452E-02 0.22574420E+02</pdfrwt>
<pdfrwt beam="2">  1       21 0.47047062E-01 0.22574420E+02</pdfrwt>
<totfact> 0.73929805E+06</totfact>
</mgrwt>
</event>
<event>
 4    1  0.2754379E+004  0.2710162E+02  0.7546771E-02  0.1632530E+00
         21   -1    0    0  503  502  0.00000000000E+00  0.00000000000E+00  0.87469453276E+02  0.87469453276E+02  0.00000000000E+00 0.  1.
         21   -1    0    0  501  503 -0.00000000000E+00 -0.00000000000E+00 -0.15444055791E+02  0.15444055791E+02  0.00000000000E+00 0. -1.
          2    1    1    2  501    0 -0.26977979404E+02  0.25857657657E+01  0.12543023436E+01  0.27130625347E+02  0.00000000000E+00 0. -1.
         -2    1    1    2    0  502  0.26977979404E+02 -0.25857657657E+01  0.70771095142E+02  0.75782883720E+02  0.00000000000E+00 0.  1.
<mgrwt>
<rscale>  2 0.27101615E+02</rscale>
<asrwt>0</asrwt>
<pdfrwt beam="1">  1       21 0.13456839E-01 0.27101615E+02</pdfrwt>
<pdfrwt beam="2">  1       21 0.23760086E-02 0.27101615E+02</pdfrwt>
<totfact> 0.33804792E+07</totfact>
</mgrwt>
</event>
<event>
 4    1  0.2754379E+004  0.2595592E+02  0.7546771E-02  0.1647639E+00
         21   -1    0    0  501  502  0.00000000000E+00  0.00000000000E+00  0.30615365059E+01  0.30615365059E+01  0.00000000000E+00 0. -1.
         21   -1    0    0  502  503 -0.00000000000E+00 -0.00000000000E+00 -0.52608564024E+03  0.52608564024E+03  0.00000000000E+00 0.  1.
          2    1    1    2  501    0 -0.19746994790E+01 -0.25880696149E+02 -0.59721922673E+02  0.65118491375E+02  0.00000000000E+00 0. -1.
         -2    1    1    2    0  503  0.19746994790E+01  0.25880696149E+02 -0.46330218106E+03  0.46402868537E+03  0.00000000000E+00 0.  1.
<mgrwt>
<rscale>  2 0.25955922E+02</rscale>
<asrwt>0</asrwt>
<pdfrwt beam="1">  1       21 0.47100577E-03 0.25955922E+02</pdfrwt>
<pdfrwt beam="2">  1       21 0.80936226E-01 0.25955922E+02</pdfrwt>
<totfact> 0.13561213E+07</totfact>
</mgrwt>
</event>
<event>
 4    1  0.2754379E+004  0.2920206E+02  0.7546771E-02  0.1607080E+00
         21   -1    0    0  501  502  0.00000000000E+00  0.00000000000E+00  0.97003090622E+01  0.97003090622E+01  0.00000000000E+00 0.  1.
         21   -1    0    0  502  503 -0.00000000000E+00 -0.00000000000E+00 -0.16091652762E+03  0.16091652762E+03  0.00000000000E+00 0. -1.
          2    1    1    2  501    0  0.67288793238E+01 -0.28416232292E+02 -0.18147450668E+02  0.34381536329E+02  0.00000000000E+00 0.  1.
         -2    1    1    2    0  503 -0.67288793238E+01  0.28416232292E+02 -0.13306876789E+03  0.13623530036E+03  0.00000000000E+00 0. -1.
<mgrwt>
<rscale>  2 0.29202056E+02</rscale>
<asrwt>0</asrwt>
<pdfrwt beam="1">  1       21 0.14923553E-02 0.29202056E+02</pdfrwt>
<pdfrwt beam="2">  1       21 0.24756388E-01 0.29202056E+02</pdfrwt>
<totfact> 0.24260880E+07</totfact>
</mgrwt>
</event>
<event>
 4    1  0.2754379E+004  0.2021938E+02  0.7546771E-02  0.1741000E+00
         21   -1    0    0  503  502  0.00000000000E+00  0.00000000000E+00  0.71308662434E+02  0.71308662434E+02  0.00000000000E+00 0. -1.
         21   -1    0    0  501  503 -0.00000000000E+00 -0.00000000000E+00 -0.13223624972E+02  0.13223624972E+02  0.00000000000E+00 0.  1.
          2    1    1    2  501    0 -0.18826322399E+02 -0.73751418434E+01 -0.27680982888E+01  0.20407976392E+02  0.00000000000E+00 0.  1.
         -2    1    1    2    0  502  0.18826322399E+02  0.73751418434E+01  0.60853135751E+02  0.64124311014E+02  0.00000000000E+00 0. -1.
<mgrwt>
<rscale>  2 0.20219375E+02</rscale>
<asrwt>0</asrwt>
<pdfrwt beam="1">  1       21 0.10970563E-01 0.20219375E+02</pdfrwt>
<pdfrwt beam="2">  1       21 0.20344039E-02 0.20219375E+02</pdfrwt>
<totfact> 0.56273554E+07</totfact>
</mgrwt>
</event>
<event>
 4    1  0.2754379E+004  0.2680523E+02  0.7546771E-02  0.1636349E+00
         21   -1    0    0  501  502  0.00000000000E+00  0.00000000000E+00  0.79824954332E+01  0.79824954332E+01  0.00000000000E+00 0.  1.
         21   -1    0    0  502  503 -0.00000000000E+00 -0.00000000000E+00 -0.12356028866E+03  0.12356028866E+03  0.00000000000E+00 0. -1.
          2    1    1    2  501    0  0.24721203907E+02 -0.10362558833E+02 -0.23517435132E+02  0.35659364876E+02  0.00000000000E+00 0.  1.
         -2    1    1    2    0  503 -0.24721203907E+02  0.10362558833E+02 -0.92060358099E+02  0.95883419221E+02  0.00000000000E+00 0. -1.
<mgrwt>
<rscale>  2 0.26805234E+02</rscale>
<asrwt>0</asrwt>
<pdfrwt beam="1">  1       21 0.12280763E-02 0.26805234E+02</pdfrwt>
<pdfrwt beam="2">  1       21 0.19009273E-01 0.26805234E+02</pdfrwt>
<totfact> 0.51225312E+07</totfact>
</mgrwt>
</event>
<event>
 4    1  0.2754379E+004  0.2127863E+02  0.7546771E-02  0.1721035E+00
         21   -1    0    0  503  502  0.00000000000E+00  0.00000000000E+00  0.35519779758E+01  0.35519779758E+01  0.00000000000E+00 0. -1.
         21   -1    0    0  501  503 -0.00000000000E+00 -0.00000000000E+00 -0.17909246226E+03  0.17909246226E+03  0.00000000000E+00 0.  1.
          2    1    1    2  501    0 -0.20420857330E+02  0.59806950981E+01 -0.13679843884E+03  0.13844346498E+03  0.00000000000E+00 0.  1.
         -2    1    1    2    0  502  0.20420857330E+02 -0.59806950981E+01 -0.38742045447E+02  0.44200975254E+02  0.00000000000E+00 0. -1.
<mgrwt>
<rscale>  2 0.21278631E+02</rscale>
<asrwt>0</asrwt>
<pdfrwt beam="1">  1       21 0.54645808E-03 0.21278631E+02</pdfrwt>
<pdfrwt beam="2">  1       21 0.27552690E-01 0.21278631E+02</pdfrwt>
<totfact> 0.84119364E+07</totfact>
</mgrwt>
</event>
<event>
 4    1  0.2754379E+004  0.2127153E+02  0.7546771E-02  0.1721164E+00
         21   -1    0    0  503  502  0.00000000000E+00  0.00000000000E+00  0.55075731874E+02  0.55075731874E+02  0.00000000000E+00 0.  1.
         21   -1    0    0  501  503 -0.00000000000E+00 -0.00000000000E+00 -0.11316222140E+02  0.11316222140E+02  0.00000000000E+00 0. -1.
          2    1    1    2  501    0 -0.16139390100E+02  0.13856341179E+02  0.45032755121E+01  0.21742989537E+02  0.00000000000E+00 0. -1.
         -2    1    1    2    0  502  0.16139390100E+02 -0.13856341179E+02  0.39256234222E+02  0.44648964478E+02  0.00000000000E+00 0.  1.
<mgrwt>
<rscale>  2 0.21271533E+02</rscale>
<asrwt>0</asrwt>
<pdfrwt beam="1">  1       21 0.84731894E-02 0.21271533E+02</pdfrwt>
<pdfrwt beam="2">  1       21 0.17409573E-02 0.21271533E+02</pdfrwt>
<totfact> 0.11067464E+08</totfact>
</mgrwt>
</event>
<event>
 4    1  0.2754379E+004  0.2203349E+02  0.7546771E-02  0.1707674E+00
         21   -1    0    0  503  502  0.00000000000E+00  0.00000000000E+00  0.75938824570E+03  0.75938824570E+03  0.00000000000E+00 0. -1.
         21   -1    0    0  501  503 -0.00000000000E+00 -0.00000000000E+00 -0.64774026029E+00  0.64774026029E+00  0.00000000000E+00 0.  1.
          2    1    1    2  501    0  0.16753581523E+02  0.14310556288E+02  0.33598295492E+03  0.33670464878E+03  0.00000000000E+00 0.  1.
         -2    1    1    2    0  502 -0.16753581523E+02 -0.14310556288E+02  0.42275755052E+03  0.42333133718E+03  0.00000000000E+00 0. -1.
<mgrwt>
<rscale>  2 0.22033486E+02</rscale>
<asrwt>0</asrwt>
<pdfrwt beam="1">  1       21 0.11682825E+00 0.22033486E+02</pdfrwt>
<pdfrwt beam="2">  1       21 0.99652955E-04 0.22033486E+02</pdfrwt>
<totfact> 0.56030948E+07</totfact>
</mgrwt>
</event>
<event>
 4    1  0.2754379E+004  0.2049657E+02  0.7546771E-02  0.1735630E+00
         21   -1    0    0  501  502  0.00000000000E+00  0.00000000000E+00  0.15296415041E+02  0.15296415041E+02  0.00000000000E+00 0.  1.
         21   -1    0    0  502  503 -0.00000000000E+00 -0.00000000000E+00 -0.30572411920E+03  0.30572411920E+03  0.00000000000E+00 0. -1.
          2    1    1    2  501    0 -0.15166311265E+02  0.13787405227E+02  0.79171063949E+01  0.21972485384E+02  0.00000000000E+00 0.  1.
         -2    1    1    2    0  503  0.15166311265E+02 -0.13787405227E+02 -0.29834481055E+03  0.29904804886E+03  0.00000000000E+00 0. -1.
<mgrwt>
<rscale>  2 0.20496574E+02</rscale>
<asrwt>0</asrwt>
<pdfrwt beam="1">  1       21 0.23532949E-02 0.20496574E+02</pdfrwt>
<pdfrwt beam="2">  1       21 0.47034474E-01 0.20496574E+02</pdfrwt>
<totfact> 0.34516755E+06</totfact>
</mgrwt>
</event>
<event>
 4    1  0.2754379E+004  0.5127175E+02  0.7546771E-02  0.1438600E+00
         21   -1    0    0  503  502  0.00000000000E+00  0.00000000000E+00  0.81358900736E+02  0.81358900736E+02  0.00000000000E+00 0.  1.
         21   -1    0    0  501  503 -0.00000000000E+00 -0.00000000000E+00 -0.39042603934E+02  0.39042603934E+02  0.00000000000E+00 0. -1.
          2    1    1    2  501    0 -0.68546326291E+01  0.50811478506E+02 -0.38389654477E+01  0.51415270029E+02  0.00000000000E+00 0. -1.
         -2    1    1    2    0  502  0.68546326291E+01 -0.50811478506E+02  0.46155262250E+02  0.68986234641E+02  0.00000000000E+00 0.  1.
<mgrwt>
<rscale>  2 0.51271750E+02</rscale>
<asrwt>0</asrwt>
<pdfrwt beam="1">  1       21 0.12516754E-01 0.51271750E+02</pdfrwt>
<pdfrwt beam="2">  1       21 0.60065545E-02 0.51271750E+02</pdfrwt>
<totfact> 0.96338338E+06</totfact>
</mgrwt>
</event>
<event>
 4    1  0.2754379E+004  0.2127931E+02  0.7546771E-02  0.1721022E+00
         21   -1    0    0  503  502  0.00000000000E+00  0.00000000000E+00  0.90314089722E+03  0.90314089722E+03  0.00000000000E+00 0.  1.
         21   -1    0    0  501  503 -0.00000000000E+00 -0.00000000000E+00 -0.20077238342E+02  0.20077238342E+02  0.00000000000E+00 0. -1.
          2    1    1    2  501    0  0.14154861434E+02  0.15888641172E+02 -0.14277118261E+02  0.25625087830E+02  0.00000000000E+00 0. -1.
         -2    1    1    2    0  502 -0.14154861434E+02 -0.15888641172E+02  0.89734077714E+03  0.89759304773E+03  0.00000000000E+00 0.  1.
<mgrwt>
<rscale>  2 0.21279310E+02</rscale>
<asrwt>0</asrwt>
<pdfrwt beam="1">  1       21 0.13894472E+00 0.21279310E+02</pdfrwt>
<pdfrwt beam="2">  1       21 0.30888066E-02 0.21279310E+02</pdfrwt>
<totfact> 0.23349936E+05</totfact>
</mgrwt>
</event>
<event>
 4    1  0.2754379E+004  0.2962644E+02  0.7546771E-02  0.1602255E+00
         21   -1    0    0  501  502  0.00000000000E+00  0.00000000000E+00  0.86557959988E+03  0.86557959988E+03  0.00000000000E+00 0. -1.
         21   -1    0    0  502  503 -0.00000000000E+00 -0.00000000000E+00 -0.19685793141E+01  0.19685793141E+01  0.00000000000E+00 0.  1.
          2    1    1    2  501    0  0.36635904676E+01 -0.29399052760E+02  0.73386026183E+03  0.73445803835E+03  0.00000000000E+00 0. -1.
         -2    1    1    2    0  503 -0.36635904676E+01  0.29399052760E+02  0.12975075873E+03  0.13309014084E+03  0.00000000000E+00 0.  1.
<mgrwt>
<rscale>  2 0.29626444E+02</rscale>
<asrwt>0</asrwt>
<pdfrwt beam="1">  1       21 0.13316579E+00 0.29626444E+02</pdfrwt>
<pdfrwt beam="2">  1       21 0.30285905E-03 0.29626444E+02</pdfrwt>
<totfact> 0.87598429E+06</totfact>
</mgrwt>
</event>
<event>
 4    1  0.2754379E+004  0.3162226E+02  0.7546771E-02  0.1580819E+00
         21   -1    0    0  501  502  0.00000000000E+00  0.00000000000E+00  0.34108016913E+01  0.34108016913E+01  0.00000000000E+00 0. -1.
         21   -1    0    0  502  503 -0.00000000000E+00 -0.00000000000E+00 -0.31583418521E+03  0.31583418521E+03  0.00000000000E+00 0.  1.
          2    1    1    2  501    0  0.29915409087E+02  0.10248684128E+02 -0.11345822081E+03  0.11778257552E+03  0.00000000000E+00 0.  1.
         -2    1    1    2    0  503 -0.29915409087E+02 -0.10248684128E+02 -0.19896516270E+03  0.20146241138E+03  0.00000000000E+00 0. -1.
<mgrwt>
<rscale>  2 0.31622258E+02</rscale>
<asrwt>0</asrwt>
<pdfrwt beam="1">  1       21 0.52473874E-03 0.31622258E+02</pdfrwt>
<pdfrwt beam="2">  1       21 0.48589873E-01 0.31622258E+02</pdfrwt>
<totfact> 0.33758827E+07</totfact>
</mgrwt>
</event>
<event>
 4    1  0.2754379E+004  0.2149560E+02  0.7546771E-02  0.1717124E+00
         21   -1    0    0  501  502  0.00000000000E+00  0.00000000000E+00  0.52579042532E+01  0.52579042532E+01  0.00000000000E+00 0. -1.
         21   -1    0    0  502  503 -0.00000000000E+00 -0.00000000000E+00 -0.13758121696E+03  0.13758121696E+03  0.00000000000E+00 0.  1.
          2    1    1    2  501    0 -0.20152712802E+02  0.74785692774E+01 -0.23235276460E+02  0.31653418518E+02  0.00000000000E+00 0. -1.
         -2    1    1    2    0  503  0.20152712802E+02 -0.74785692774E+01 -0.10908803625E+03  0.11118570270E+03  0.00000000000E+00 0.  1.
<mgrwt>
<rscale>  2 0.21495600E+02</rscale>
<asrwt>0</asrwt>
<pdfrwt beam="1">  1       21 0.80890827E-03 0.21495600E+02</pdfrwt>
<pdfrwt beam="2">  1       21 0.21166343E-01 0.21495600E+02</pdfrwt>
<totfact> 0.75253292E+07</totfact>
</mgrwt>
</event>
<event>
 4    1  0.2754379E+004  0.2286984E+02  0.7546771E-02  0.1693629E+00
         21   -1    0    0  503  502  0.00000000000E+00  0.00000000000E+00  0.22326749774E+03  0.22326749774E+03  0.00000000000E+00 0. -1.
         21   -1    0    0  501  503 -0.00000000000E+00 -0.00000000000E+00 -0.23434485000E+01  0.23434485000E+01  0.00000000000E+00 0.  1.
          2    1    1    2  501    0 -0.61229922774E+00  0.22861643364E+02  0.10833378568E+03  0.11072144674E+03  0.00000000000E+00 0. -1.
         -2    1    1    2    0  502  0.61229922774E+00 -0.22861643364E+02  0.11259026356E+03  0.11488949950E+03  0.00000000000E+00 0.  1.
<mgrwt>
<rscale>  2 0.22869841E+02</rscale>
<asrwt>0</asrwt>
<pdfrwt beam="1">  1       21 0.34348829E-01 0.22869841E+02</pdfrwt>
<pdfrwt beam="2">  1       21 0.36053071E-03 0.22869841E+02</pdfrwt>
<totfact> 0.10573871E+08</totfact>
</mgrwt>
</event>
<event>
 4    1  0.2754379E+004  0.2180902E+02  0.7546771E-02  0.1711576E+00
         21   -1    0    0  501  502  0.00000000000E+00  0.00000000000E+00  0.42365221400E+01  0.42365221400E+01  0.00000000000E+00 0. -1.
         21   -1    0    0  502  503 -0.00000000000E+00 -0.00000000000E+00 -0.11509010153E+03  0.11509010153E+03  0.00000000000E+00 0.  1.
          2    1    1    2  501    0 -0.60607337127E+01 -0.20949958561E+02 -0.46086928112E+02  0.50986647269E+02  0.00000000000E+00 0. -1.
         -2    1    1    2    0  503  0.60607337127E+01  0.20949958561E+02 -0.64766651282E+02  0.68339976406E+02  0.00000000000E+00 0.  1.
<mgrwt>
<rscale>  2 0.21809018E+02</rscale>
<asrwt>0</asrwt>
<pdfrwt beam="1">  1       21 0.65177262E-03 0.21809018E+02</pdfrwt>
<pdfrwt beam="2">  1       21 0.17706170E-01 0.21809018E+02</pdfrwt>
<totfact> 0.14196764E+08</totfact>
</mgrwt>
</event>
<event>
 4    1  0.2754379E+004  0.2049806E+02  0.7546771E-02  0.1735601E+00
         21   -1    0    0  501  502  0.00000000000E+00  0.00000000000E+00  0.74902147147E+02  0.74902147147E+02  0.00000000000E+00 0.  1.
         21   -1    0    0  502  503 -0.00000000000E+00 -0.00000000000E+00 -0.17844315337E+02  0.17844315337E+02  0.00000000000E+00 0. -1.
          2    1    1    2  501    0 -0.14637661748E+02 -0.14349536173E+02  0.66927439560E+02  0.69996089147E+02  0.00000000000E+00 0.  1.
         -2    1    1    2    0  503  0.14637661748E+02  0.14349536173E+02 -0.98696077502E+01  0.22750373337E+02  0.00000000000E+00 0. -1.
<mgrwt>
<rscale>  2 0.20498057E+02</rscale>
<asrwt>0</asrwt>
<pdfrwt beam="1">  1       21 0.11523407E-01 0.20498057E+02</pdfrwt>
<pdfrwt beam="2">  1       21 0.27452793E-02 0.20498057E+02</pdfrwt>
<totfact> 0.32847805E+07</totfact>
</mgrwt>
</event>
<event>
 4    1  0.2754379E+004  0.2581929E+02  0.7546771E-02  0.1649506E+00
         21   -1    0    0  503  502  0.00000000000E+00  0.00000000000E+00  0.54371908423E+03  0.54371908423E+03  0.00000000000E+00 0.  1.
         21   -1    0    0  501  503 -0.00000000000E+00 -0.00000000000E+00 -0.12635727800E+01  0.12635727800E+01  0.00000000000E+00 0. -1.
          2    1    1    2  501    0 -0.25572451841E+02 -0.35616750322E+01  0.31817432176E+03  0.31922019806E+03  0.00000000000E+00 0. -1.
         -2    1    1    2    0  502  0.25572451841E+02  0.35616750322E+01  0.22428118969E+03  0.22576245895E+03  0.00000000000E+00 0.  1.
<mgrwt>
<rscale>  2 0.25819292E+02</rscale>
<asrwt>0</asrwt>
<pdfrwt beam="1">  1       21 0.83648903E-01 0.25819292E+02</pdfrwt>
<pdfrwt beam="2">  1       21 0.19439625E-03 0.25819292E+02</pdfrwt>
<totfact> 0.46120835E+07</totfact>
</mgrwt>
</event>
<event>
 4    1  0.2754379E+004  0.2029194E+02  0.7546771E-02  0.1739584E+00
         21   -1    0    0  501  502  0.00000000000E+00  0.00000000000E+00  0.62663921336E+03  0.62663921336E+03  0.00000000000E+00 0.  1.
         21   -1    0    0  502  503 -0.00000000000E+00 -0.00000000000E+00 -0.12926504731E+01  0.12926504731E+01  0.00000000000E+00 0. -1.
          2    1    1    2  501    0 -0.18801680474E+02 -0.76328008484E+01  0.53282291659E+03  0.53320917404E+03  0.00000000000E+00 0.  1.
         -2    1    1    2    0  503  0.18801680474E+02  0.76328008484E+01  0.92523646290E+02  0.94722689786E+02  0.00000000000E+00 0. -1.
<mgrwt>
<rscale>  2 0.20291940E+02</rscale>
<asrwt>0</asrwt>
<pdfrwt beam="1">  1       21 0.96405790E-01 0.20291940E+02</pdfrwt>
<pdfrwt beam="2">  1       21 0.19886980E-03 0.20291940E+02</pdfrwt>
<totfact> 0.31294419E+07</totfact>
</mgrwt>
</event>
<event>
 4    1  0.2754379E+004  0.2755947E+02  0.7546771E-02  0.1626746E+00
         21   -1    0    0  503  502  0.00000000000E+00  0.00000000000E+00  0.15677617063E+02  0.15677617063E+02  0.00000000000E+00 0. -1.
         21   -1    0    0  501  503 -0.00000000000E+00 -0.00000000000E+00 -0.14871501416E+03  0.14871501416E+03  0.00000000000E+00 0.  1.
          2    1    1    2  501    0 -0.12672802100E+02  0.24472929715E+02 -0.13401149702E+03  0.13681595498E+03  0.00000000000E+00 0.  1.
         -2    1    1    2    0  502  0.12672802100E+02 -0.24472929715E+02  0.97409992887E+00  0.27576676242E+02  0.00000000000E+00 0. -1.
<mgrwt>
<rscale>  2 0.27559467E+02</rscale>
<asrwt>0</asrwt>
<pdfrwt beam="1">  1       21 0.24119412E-02 0.27559467E+02</pdfrwt>
<pdfrwt beam="2">  1       21 0.22879232E-01 0.27559467E+02</pdfrwt>
<totfact> 0.13172210E+07</totfact>
</mgrwt>
</event>
<event>
 4    1  0.2754379E+004  0.2681527E+02  0.7546771E-02  0.1636219E+00
         21   -1    0    0  503  502  0.00000000000E+00  0.00000000000E+00  0.74254556297E+02  0.74254556297E+02  0.00000000000E+00 0. -1.
         21   -1    0    0  501  503 -0.00000000000E+00 -0.00000000000E+00 -0.12195485210E+02  0.12195485210E+02  0.00000000000E+00 0.  1.
          2    1    1    2  501    0  0.21544273439E+02 -0.15965689769E+02  0.11412798203E+02  0.29142939636E+02  0.00000000000E+00 0. -1.
         -2    1    1    2    0  502 -0.21544273439E+02  0.15965689769E+02  0.50646272884E+02  0.57307101871E+02  0.00000000000E+00 0.  1.
<mgrwt>
<rscale>  2 0.26815275E+02</rscale>
<asrwt>0</asrwt>
<pdfrwt beam="1">  1       21 0.11423778E-01 0.26815275E+02</pdfrwt>
<pdfrwt beam="2">  1       21 0.18762285E-02 0.26815275E+02</pdfrwt>
<totfact> 0.64071941E+07</totfact>
</mgrwt>
</event>
<event>
 4    1  0.2754379E+004  0.2518800E+02  0.7546771E-02  0.1658316E+00
         21   -1    0    0  503  502  0.00000000000E+00  0.00000000000E+00  0.12488463157E+04  0.12488463157E+04  0.00000000000E+00 0. -1.
         21   -1    0    0  501  503 -0.00000000000E+00 -0.00000000000E+00 -0.11218739245E+01  0.11218739245E+01  0.00000000000E+00 0.  1.
          2    1    1    2  501    0  0.84038447427E+01 -0.23744694720E+02  0.16155516179E+03  0.16350689721E+03  0.00000000000E+00 0.  1.
         -2    1    1    2    0  502 -0.84038447427E+01  0.23744694720E+02  0.10861692799E+04  0.10864612924E+04  0.00000000000E+00 0. -1.
<mgrwt>
<rscale>  2 0.25187996E+02</rscale>
<asrwt>0</asrwt>
<pdfrwt beam="1">  1       21 0.19212909E+00 0.25187996E+02</pdfrwt>
<pdfrwt beam="2">  1       21 0.17259699E-03 0.25187996E+02</pdfrwt>
<totfact> 0.79671745E+06</totfact>
</mgrwt>
</event>
<event>
 4    1  0.2754379E+004  0.3110201E+02  0.7546771E-02  0.1586217E+00
         21   -1    0    0  503  502  0.00000000000E+00  0.00000000000E+00  0.20260044166E+03  0.20260044166E+03  0.00000000000E+00 0.  1.
         21   -1    0    0  501  503 -0.00000000000E+00 -0.00000000000E+00 -0.49533019718E+01  0.49533019718E+01  0.00000000000E+00 0. -1.
          2    1    1    2  501    0 -0.25121316352E+02 -0.18337246958E+02  0.79111905833E+02  0.85006051584E+02  0.00000000000E+00 0. -1.
         -2    1    1    2    0  502  0.25121316352E+02  0.18337246958E+02  0.11853523385E+03  0.12254769204E+03  0.00000000000E+00 0.  1.
<mgrwt>
<rscale>  2 0.31102012E+02</rscale>
<asrwt>0</asrwt>
<pdfrwt beam="1">  1       21 0.31169292E-01 0.31102012E+02</pdfrwt>
<pdfrwt beam="2">  1       21 0.76204661E-03 0.31102012E+02</pdfrwt>
<totfact> 0.44779356E+07</totfact>
</mgrwt>
</event>
<event>
 4    1  0.2754379E+004  0.2598563E+02  0.7546771E-02  0.1647236E+00
         21   -1    0    0  501  502  0.00000000000E+00  0.00000000000E+00  0.15465362272E+03  0.15465362272E+03  0.00000000000E+00 0. -1.
         21   -1    0    0  502  503 -0.00000000000E+00 -0.00000000000E+00 -0.13956229185E+02  0.13956229185E+02  0.00000000000E+00 0.  1.
          2    1    1    2  501    0 -0.17091598019E+02 -0.19573714001E+02  0.14023277347E+03  0.14262006787E+03  0.00000000000E+00 0. -1.
         -2    1    1    2    0  503  0.17091598019E+02  0.19573714001E+02  0.46462006448E+00  0.25989784040E+02  0.00000000000E+00 0.  1.
<mgrwt>
<rscale>  2 0.25985631E+02</rscale>
<asrwt>0</asrwt>
<pdfrwt beam="1">  1       21 0.23792864E-01 0.25985631E+02</pdfrwt>
<pdfrwt beam="2">  1       21 0.21471123E-02 0.25985631E+02</pdfrwt>
<totfact> 0.14554211E+07</totfact>
</mgrwt>
</event>
<event>
 4    1  0.2754379E+004  0.2423263E+02  0.7546771E-02  0.1672275E+00
         21   -1    0    0  501  502  0.00000000000E+00  0.00000000000E+00  0.33710759332E+02  0.33710759332E+02  0.00000000000E+00 0. -1.
         21   -1    0    0  502  503 -0.00000000000E+00 -0.00000000000E+00 -0.27984477620E+02  0.27984477620E+02  0.00000000000E+00 0.  1.
          2    1    1    2  501    0 -0.13935373897E+02  0.19824879091E+02  0.21817095037E+02  0.32606841498E+02  0.00000000000E+00 0. -1.
         -2    1    1    2    0  503  0.13935373897E+02 -0.19824879091E+02 -0.16090813325E+02  0.29088395454E+02  0.00000000000E+00 0.  1.
<mgrwt>
<rscale>  2 0.24232632E+02</rscale>
<asrwt>0</asrwt>
<pdfrwt beam="1">  1       21 0.51862707E-02 0.24232632E+02</pdfrwt>
<pdfrwt beam="2">  1       21 0.43053043E-02 0.24232632E+02</pdfrwt>
<totfact> 0.62218328E+07</totfact>
</mgrwt>
</event>
<event>
 4    1  0.2754379E+004  0.4724622E+02  0.7546771E-02  0.1460787E+00
         21   -1    0    0  503  502  0.00000000000E+00  0.00000000000E+00  0.33192359064E+02  0.33192359064E+02  0.00000000000E+00 0. -1.
         21   -1    0    0  501  503 -0.00000000000E+00 -0.00000000000E+00 -0.48361597580E+03  0.48361597580E+03  0.00000000000E+00 0.  1.
          2    1    1    2  501    0  0.23330551779E+02  0.41083944243E+02 -0.46497720902E+03  0.46737138341E+03  0.00000000000E+00 0.  1.
         -2    1    1    2    0  502 -0.23330551779E+02 -0.41083944243E+02  0.14553592284E+02  0.49436951456E+02  0.00000000000E+00 0. -1.
<mgrwt>
<rscale>  2 0.47246218E+02</rscale>
<asrwt>0</asrwt>
<pdfrwt beam="1">  1       21 0.51065172E-02 0.47246218E+02</pdfrwt>
<pdfrwt beam="2">  1       21 0.74402451E-01 0.47246218E+02</pdfrwt>
<totfact> 0.42697212E+05</totfact>
</mgrwt>
</event>
<event>
 4    1  0.2754379E+004  0.2335115E+02  0.7546771E-02  0.1685881E+00
         21   -1    0    0  501  502  0.00000000000E+00  0.00000000000E+00  0.43044877617E+02  0.43044877617E+02  0.00000000000E+00 0.  1.
         21   -1    0    0  502  503 -0.00000000000E+00 -0.00000000000E+00 -0.42397155340E+02  0.42397155340E+02  0.00000000000E+00 0. -1.
          2    1    1    2  501    0  0.15733958350E+02  0.17254524903E+02  0.36097843802E+02  0.42992213274E+02  0.00000000000E+00 0.  1.
         -2    1    1    2    0  503 -0.15733958350E+02 -0.17254524903E+02 -0.35450121525E+02  0.42449819683E+02  0.00000000000E+00 0. -1.
<mgrwt>
<rscale>  2 0.23351147E+02</rscale>
<asrwt>0</asrwt>
<pdfrwt beam="1">  1       21 0.66222889E-02 0.23351147E+02</pdfrwt>
<pdfrwt beam="2">  1       21 0.65226392E-02 0.23351147E+02</pdfrwt>
<totfact> 0.21425760E+07</totfact>
</mgrwt>
</event>
<event>
 4    1  0.2754379E+004  0.2306220E+02  0.7546771E-02  0.1690504E+00
         21   -1    0    0  501  502  0.00000000000E+00  0.00000000000E+00  0.40724272772E+02  0.40724272772E+02  0.00000000000E+00 0. -1.
         21   -1    0    0  502  503 -0.00000000000E+00 -0.00000000000E+00 -0.51809303249E+02  0.51809303249E+02  0.00000000000E+00 0.  1.
          2    1    1    2  501    0 -0.22913556852E+02  0.26142178367E+01  0.34470065875E+02  0.41473493510E+02  0.00000000000E+00 0. -1.
         -2    1    1    2    0  503  0.22913556852E+02 -0.26142178367E+01 -0.45555096351E+02  0.51060082512E+02  0.00000000000E+00 0.  1.
<mgrwt>
<rscale>  2 0.23062203E+02</rscale>
<asrwt>0</asrwt>
<pdfrwt beam="1">  1       21 0.62652727E-02 0.23062203E+02</pdfrwt>
<pdfrwt beam="2">  1       21 0.79706621E-02 0.23062203E+02</pdfrwt>
<totfact> 0.16875507E+07</totfact>
</mgrwt>
</event>
<event>
 4    1  0.2754379E+004  0.2144118E+02  0.7546771E-02  0.1718100E+00
         21   -1    0    0  503  502  0.00000000000E+00  0.00000000000E+00  0.29481296312E+02  0.29481296312E+02  0.00000000000E+00 0.  1.
         21   -1    0    0  501  503 -0.00000000000E+00 -0.00000000000E+00 -0.15809554759E+02  0.15809554759E+02  0.00000000000E+00 0. -1.
          2    1    1    2  501    0 -0.21412117209E+02  0.11159044375E+01  0.94816265418E+01  0.23444087697E+02  0.00000000000E+00 0.  1.
         -2    1    1    2    0  502  0.21412117209E+02 -0.11159044375E+01  0.41901150110E+01  0.21846763373E+02  0.00000000000E+00 0. -1.
<mgrwt>
<rscale>  2 0.21441175E+02</rscale>
<asrwt>0</asrwt>
<pdfrwt beam="1">  1       21 0.45355840E-02 0.21441175E+02</pdfrwt>
<pdfrwt beam="2">  1       21 0.24322392E-02 0.21441175E+02</pdfrwt>
<totfact> 0.18123343E+08</totfact>
</mgrwt>
</event>
<event>
 4    1  0.2754379E+004  0.2157299E+02  0.7546771E-02  0.1715743E+00
         21   -1    0    0  503  502  0.00000000000E+00  0.00000000000E+00  0.28762019352E+03  0.28762019352E+03  0.00000000000E+00 0. -1.
         21   -1    0    0  501  503 -0.00000000000E+00 -0.00000000000E+00 -0.17810804952E+01  0.17810804952E+01  0.00000000000E+00 0.  1.
          2    1    1    2  501    0  0.14478261097E+02  0.15992929776E+02  0.99145498296E+02  0.10146538168E+03  0.00000000000E+00 0.  1.
         -2    1    1    2    0  502 -0.14478261097E+02 -0.15992929776E+02  0.18669361473E+03  0.18793589234E+03  0.00000000000E+00 0. -1.
<mgrwt>
<rscale>  2 0.21572989E+02</rscale>
<asrwt>0</asrwt>
<pdfrwt beam="1">  1       21 0.44249224E-01 0.21572989E+02</pdfrwt>
<pdfrwt beam="2">  1       21 0.27401261E-03 0.21572989E+02</pdfrwt>
<totfact> 0.96560062E+07</totfact>
</mgrwt>
</event>
<event>
 4    1  0.2754379E+004  0.2134056E+02  0.7546771E-02  0.1719913E+00
         21   -1    0    0  503  502  0.00000000000E+00  0.00000000000E+00  0.69408009895E+03  0.69408009895E+03  0.00000000000E+00 0.  1.
         21   -1    0    0  501  503 -0.00000000000E+00 -0.00000000000E+00 -0.65615137761E+00  0.65615137761E+00  0.00000000000E+00 0. -1.
          2    1    1    2  501    0 -0.17562038100E+02 -0.12124114920E+02  0.34593673939E+03  0.34659435513E+03  0.00000000000E+00 0. -1.
         -2    1    1    2    0  502  0.17562038100E+02  0.12124114920E+02  0.34748720819E+03  0.34814189521E+03  0.00000000000E+00 0.  1.
<mgrwt>
<rscale>  2 0.21340556E+02</rscale>
<asrwt>0</asrwt>
<pdfrwt beam="1">  1       21 0.10678097E+00 0.21340556E+02</pdfrwt>
<pdfrwt beam="2">  1       21 0.10094692E-03 0.21340556E+02</pdfrwt>
<totfact> 0.66707021E+07</totfact>
</mgrwt>
</event>
<event>
 4    1  0.2754379E+004  0.2558529E+02  0.7546771E-02  0.1652735E+00
         21   -1    0    0  501  502  0.00000000000E+00  0.00000000000E+00  0.65599295091E+02  0.65599295091E+02  0.00000000000E+00 0. -1.
         21   -1    0    0  502  503 -0.00000000000E+00 -0.00000000000E+00 -0.16917367027E+02  0.16917367027E+02  0.00000000000E+00 0.  1.
          2    1    1    2  501    0 -0.19635476475E+02  0.16402905609E+02  0.50763699555E+02  0.56846815578E+02  0.00000000000E+00 0. -1.
         -2    1    1    2    0  503  0.19635476475E+02 -0.16402905609E+02 -0.20817714907E+01  0.25669846540E+02  0.00000000000E+00 0.  1.
<mgrwt>
<rscale>  2 0.25585294E+02</rscale>
<asrwt>0</asrwt>
<pdfrwt beam="1">  1       21 0.10092199E-01 0.25585294E+02</pdfrwt>
<pdfrwt beam="2">  1       21 0.26026719E-02 0.25585294E+02</pdfrwt>
<totfact> 0.46970217E+07</totfact>
</mgrwt>
</event>
<event>
 4    1  0.2754379E+004  0.3522174E+02  0.7546771E-02  0.1546640E+00
         21   -1    0    0  503  502  0.00000000000E+00  0.00000000000E+00  0.32512198494E+03  0.32512198494E+03  0.00000000000E+00 0.  1.
         21   -1    0    0  501  503 -0.00000000000E+00 -0.00000000000E+00 -0.38272572774E+01  0.38272572774E+01  0.00000000000E+00 0. -1.
          2    1    1    2  501    0  0.52707400952E+01  0.34825137861E+02  0.16968200932E+03  0.17329903409E+03  0.00000000000E+00 0. -1.
         -2    1    1    2    0  502 -0.52707400952E+01 -0.34825137861E+02  0.15161271834E+03  0.15565020813E+03  0.00000000000E+00 0.  1.
<mgrwt>
<rscale>  2 0.35221739E+02</rscale>
<asrwt>0</asrwt>
<pdfrwt beam="1">  1       21 0.50018745E-01 0.35221739E+02</pdfrwt>
<pdfrwt beam="2">  1       21 0.58880907E-03 0.35221739E+02</pdfrwt>
<totfact> 0.27352348E+07</totfact>
</mgrwt>
</event>
<event>
 4    1  0.2754379E+004  0.2013028E+02  0.7546771E-02  0.1742750E+00
         21   -1    0    0  501  502  0.00000000000E+00  0.00000000000E+00  0.78621231451E+03  0.78621231451E+03  0.00000000000E+00 0.  1.
         21   -1    0    0  502  503 -0.00000000000E+00 -0.00000000000E+00 -0.59808916657E+00  0.59808916657E+00  0.00000000000E+00 0. -1.
          2    1    1    2  501    0  0.17679402946E+02  0.96263585910E+01  0.53906990626E+03  0.53944563387E+03  0.00000000000E+00 0.  1.
         -2    1    1    2    0  503 -0.17679402946E+02 -0.96263585910E+01  0.24654431909E+03  0.24736476981E+03  0.00000000000E+00 0. -1.
<mgrwt>
<rscale>  2 0.20130277E+02</rscale>
<asrwt>0</asrwt>
<pdfrwt beam="1">  1       21 0.12095491E+00 0.20130277E+02</pdfrwt>
<pdfrwt beam="2">  1       21 0.92014348E-04 0.20130277E+02</pdfrwt>
<totfact> 0.56844027E+07</totfact>
</mgrwt>
</event>
<event>
 4    1  0.2754379E+004  0.3061331E+02  0.7546771E-02  0.1591407E+00
         21   -1    0    0  503  502  0.00000000000E+00  0.00000000000E+00  0.69670091572E+01  0.69670091572E+01  0.00000000000E+00 0. -1.
         21   -1    0    0  501  503 -0.00000000000E+00 -0.00000000000E+00 -0.15444522996E+03  0.15444522996E+03  0.00000000000E+00 0.  1.
          2    1    1    2  501    0  0.15667286173E+02  0.26300391920E+02 -0.10273016793E+03  0.10719450487E+03  0.00000000000E+00 0.  1.
         -2    1    1    2    0  502 -0.15667286173E+02 -0.26300391920E+02 -0.44748052876E+02  0.54217734251E+02  0.00000000000E+00 0. -1.
<mgrwt>
<rscale>  2 0.30613305E+02</rscale>
<asrwt>0</asrwt>
<pdfrwt beam="1">  1       21 0.10718476E-02 0.30613305E+02</pdfrwt>
<pdfrwt beam="2">  1       21 0.23760804E-01 0.30613305E+02</pdfrwt>
<totfact> 0.43681852E+07</totfact>
</mgrwt>
</event>
<event>
 4    1  0.2754379E+004  0.2662958E+02  0.7546771E-02  0.1638642E+00
         21   -1    0    0  503  502  0.00000000000E+00  0.00000000000E+00  0.11614980670E+03  0.11614980670E+03  0.00000000000E+00 0.  1.
         21   -1    0    0  501  503 -0.00000000000E+00 -0.00000000000E+00 -0.66310304010E+01  0.66310304010E+01  0.00000000000E+00 0. -1.
          2    1    1    2  501    0 -0.18361400534E+02 -0.19287134443E+02  0.37474234448E+02  0.45972305054E+02  0.00000000000E+00 0. -1.
         -2    1    1    2    0  502  0.18361400534E+02  0.19287134443E+02  0.72044541847E+02  0.76808532042E+02  0.00000000000E+00 0.  1.
<mgrwt>
<rscale>  2 0.26629581E+02</rscale>
<asrwt>0</asrwt>
<pdfrwt beam="1">  1       21 0.17869200E-01 0.26629581E+02</pdfrwt>
<pdfrwt beam="2">  1       21 0.10201586E-02 0.26629581E+02</pdfrwt>
<totfact> 0.75445856E+07</totfact>
</mgrwt>
</event>
<event>
 4    1  0.2754379E+004  0.2066785E+02  0.7546771E-02  0.1732364E+00
         21   -1    0    0  501  502  0.00000000000E+00  0.00000000000E+00  0.72660724741E+02  0.72660724741E+02  0.00000000000E+00 0. -1.
         21   -1    0    0  502  503 -0.00000000000E+00 -0.00000000000E+00 -0.86439026238E+01  0.86439026238E+01  0.00000000000E+00 0.  1.
          2    1    1    2  501    0  0.11062361999E+02  0.17458064161E+02  0.55000784943E+02  0.58755818448E+02  0.00000000000E+00 0. -1.
         -2    1    1    2    0  503 -0.11062361999E+02 -0.17458064161E+02  0.90160371748E+01  0.22548808917E+02  0.00000000000E+00 0.  1.
<mgrwt>
<rscale>  2 0.20667846E+02</rscale>
<asrwt>0</asrwt>
<pdfrwt beam="1">  1       21 0.11178573E-01 0.20667846E+02</pdfrwt>
<pdfrwt beam="2">  1       21 0.13298312E-02 0.20667846E+02</pdfrwt>
<totfact> 0.10464767E+08</totfact>
</mgrwt>
</event>
<event>
 4    1  0.2754379E+004  0.2176311E+02  0.7546771E-02  0.1712381E+00
         21   -1    0    0  503  502  0.00000000000E+00  0.00000000000E+00  0.14611369442E+01  0.14611369442E+01  0.00000000000E+00 0.  1.
         21   -1    0    0  501  503 -0.00000000000E+00 -0.00000000000E+00 -0.34032029145E+03  0.34032029145E+03  0.00000000000E+00 0. -1.
          2    1    1    2  501    0  0.21114465337E+02  0.52737262778E+01 -0.20667601971E+03  0.20781869492E+03  0.00000000000E+00 0.  1.
         -2    1    1    2    0  502 -0.21114465337E+02 -0.52737262778E+01 -0.13218313480E+03  0.13396273348E+03  0.00000000000E+00 0. -1.
<mgrwt>
<rscale>  2 0.21763107E+02</rscale>
<asrwt>0</asrwt>
<pdfrwt beam="1">  1       21 0.22479033E-03 0.21763107E+02</pdfrwt>
<pdfrwt beam="2">  1       21 0.52356962E-01 0.21763107E+02</pdfrwt>
<totfact> 0.93203603E+07</totfact>
</mgrwt>
</event>
<event>
 4    1  0.2754379E+004  0.2819829E+02  0.7546771E-02  0.1618903E+00
         21   -1    0    0  501  502  0.00000000000E+00  0.00000000000E+00  0.14082277354E+01  0.14082277354E+01  0.00000000000E+00 0. -1.
         21   -1    0    0  502  503 -0.00000000000E+00 -0.00000000000E+00 -0.60059788545E+03  0.60059788545E+03  0.00000000000E+00 0.  1.
          2    1    1    2  501    0 -0.22966295013E+02 -0.16361320940E+02 -0.22594558890E+03  0.22769838092E+03  0.00000000000E+00 0. -1.
         -2    1    1    2    0  503  0.22966295013E+02  0.16361320940E+02 -0.37324406881E+03  0.37430773227E+03  0.00000000000E+00 0.  1.
<mgrwt>
<rscale>  2 0.28198289E+02</rscale>
<asrwt>0</asrwt>
<pdfrwt beam="1">  1       21 0.21664990E-03 0.28198289E+02</pdfrwt>
<pdfrwt beam="2">  1       21 0.92399899E-01 0.28198289E+02</pdfrwt>
<totfact> 0.32369823E+07</totfact>
</mgrwt>
</event>
<event>
 4    1  0.2754379E+004  0.2248475E+02  0.7546771E-02  0.1700001E+00
         21   -1    0    0  501  502  0.00000000000E+00  0.00000000000E+00  0.63493617344E+02  0.63493617344E+02  0.00000000000E+00 0.  1.
         21   -1    0    0  502  503 -0.00000000000E+00 -0.00000000000E+00 -0.83796155403E+01  0.83796155403E+01  0.00000000000E+00 0. -1.
          2    1    1    2  501    0  0.20338254395E+02 -0.95874607059E+01  0.35575361282E+02  0.42085274444E+02  0.00000000000E+00 0. -1.
         -2    1    1    2    0  503 -0.20338254395E+02  0.95874607059E+01  0.19538640521E+02  0.29787958441E+02  0.00000000000E+00 0.  1.
<mgrwt>
<rscale>  2 0.22484750E+02</rscale>
<asrwt>0</asrwt>
<pdfrwt beam="1">  1       21 0.97682486E-02 0.22484750E+02</pdfrwt>
<pdfrwt beam="2">  1       21 0.12891717E-02 0.22484750E+02</pdfrwt>
<totfact> 0.14054169E+08</totfact>
</mgrwt>
</event>
<event>
 4    1  0.2754379E+004  0.2095888E+02  0.7546771E-02  0.1726906E+00
         21   -1    0    0  501  502  0.00000000000E+00  0.00000000000E+00  0.68758873263E+02  0.68758873263E+02  0.00000000000E+00 0.  1.
         21   -1    0    0  502  503 -0.00000000000E+00 -0.00000000000E+00 -0.69553810676E+01  0.69553810676E+01  0.00000000000E+00 0. -1.
          2    1    1    2  501    0  0.69576748346E+01  0.19770313732E+02  0.41708267195E+02  0.46678197229E+02  0.00000000000E+00 0.  1.
         -2    1    1    2    0  503 -0.69576748346E+01 -0.19770313732E+02  0.20095225000E+02  0.29036057101E+02  0.00000000000E+00 0. -1.
<mgrwt>
<rscale>  2 0.20958877E+02</rscale>
<asrwt>0</asrwt>
<pdfrwt beam="1">  1       21 0.10578288E-01 0.20958877E+02</pdfrwt>
<pdfrwt beam="2">  1       21 0.10700587E-02 0.20958877E+02</pdfrwt>
<totfact> 0.15966729E+08</totfact>
</mgrwt>
</event>
<event>
 4    1  0.2754379E+004  0.5693750E+02  0.7546771E-02  0.1411152E+00
         21   -1    0    0  501  502  0.00000000000E+00  0.00000000000E+00  0.61239085372E+01  0.61239085372E+01  0.00000000000E+00 0. -1.
         21   -1    0    0  502  503 -0.00000000000E+00 -0.00000000000E+00 -0.93969189999E+03  0.93969189999E+03  0.00000000000E+00 0.  1.
          2    1    1    2  501    0  0.39024968463E+02 -0.41459987034E+02 -0.15429081605E+03  0.16446134685E+03  0.00000000000E+00 0. -1.
         -2    1    1    2    0  503 -0.39024968463E+02  0.41459987034E+02 -0.77927717540E+03  0.78135446168E+03  0.00000000000E+00 0.  1.
<mgrwt>
<rscale>  2 0.56937498E+02</rscale>
<asrwt>0</asrwt>
<pdfrwt beam="1">  1       21 0.94213960E-03 0.56937498E+02</pdfrwt>
<pdfrwt beam="2">  1       21 0.14456801E+00 0.56937498E+02</pdfrwt>
<totfact> 0.13631336E+06</totfact>
</mgrwt>
</event>
<event>
 4    1  0.2754379E+004  0.3243960E+02  0.7546771E-02  0.1572589E+00
         21   -1    0    0  503  502  0.00000000000E+00  0.00000000000E+00  0.34038835928E+02  0.34038835928E+02  0.00000000000E+00 0. -1.
         21   -1    0    0  501  503 -0.00000000000E+00 -0.00000000000E+00 -0.98445085121E+02  0.98445085121E+02  0.00000000000E+00 0.  1.
          2    1    1    2  501    0 -0.30180761908E+02 -0.11893254008E+02 -0.87066582356E+02  0.92913495486E+02  0.00000000000E+00 0.  1.
         -2    1    1    2    0  502  0.30180761908E+02  0.11893254008E+02  0.22660333163E+02  0.39570425564E+02  0.00000000000E+00 0. -1.
<mgrwt>
<rscale>  2 0.32439604E+02</rscale>
<asrwt>0</asrwt>
<pdfrwt beam="1">  1       21 0.52367439E-02 0.32439604E+02</pdfrwt>
<pdfrwt beam="2">  1       21 0.15145398E-01 0.32439604E+02</pdfrwt>
<totfact> 0.81633552E+06</totfact>
</mgrwt>
</event>
<event>
 4    1  0.2754379E+004  0.3181773E+02  0.7546771E-02  0.1578824E+00
         21   -1    0    0  503  502  0.00000000000E+00  0.00000000000E+00  0.23754840861E+03  0.23754840861E+03  0.00000000000E+00 0.  1.
         21   -1    0    0  501  503 -0.00000000000E+00 -0.00000000000E+00 -0.92627714187E+01  0.92627714187E+01  0.00000000000E+00 0. -1.
          2    1    1    2  501    0  0.42705020564E+01 -0.31529834860E+02  0.23466371621E+02  0.39535278817E+02  0.00000000000E+00 0. -1.
         -2    1    1    2    0  502 -0.42705020564E+01  0.31529834860E+02  0.20481926557E+03  0.20727590121E+03  0.00000000000E+00 0.  1.
<mgrwt>
<rscale>  2 0.31817726E+02</rscale>
<asrwt>0</asrwt>
<pdfrwt beam="1">  1       21 0.36545904E-01 0.31817726E+02</pdfrwt>
<pdfrwt beam="2">  1       21 0.14250419E-02 0.31817726E+02</pdfrwt>
<totfact> 0.12898896E+07</totfact>
</mgrwt>
</event>
<event>
 4    1  0.2754379E+004  0.2618252E+02  0.7546771E-02  0.1644576E+00
         21   -1    0    0  501  502  0.00000000000E+00  0.00000000000E+00  0.66242909174E+02  0.66242909174E+02  0.00000000000E+00 0. -1.
         21   -1    0    0  502  503 -0.00000000000E+00 -0.00000000000E+00 -0.10670476381E+02  0.10670476381E+02  0.00000000000E+00 0.  1.
          2    1    1    2  501    0  0.15908739481E+02 -0.20795108344E+02  0.34464924609E+02  0.43282277565E+02  0.00000000000E+00 0. -1.
         -2    1    1    2    0  503 -0.15908739481E+02  0.20795108344E+02  0.21107508184E+02  0.33631107990E+02  0.00000000000E+00 0.  1.
<mgrwt>
<rscale>  2 0.26182523E+02</rscale>
<asrwt>0</asrwt>
<pdfrwt beam="1">  1       21 0.10191216E-01 0.26182523E+02</pdfrwt>
<pdfrwt beam="2">  1       21 0.16416118E-02 0.26182523E+02</pdfrwt>
<totfact> 0.94635492E+07</totfact>
</mgrwt>
</event>
<event>
 4    1  0.2754379E+004  0.3354638E+02  0.7546771E-02  0.1561901E+00
         21   -1    0    0  501  502  0.00000000000E+00  0.00000000000E+00  0.28100883845E+03  0.28100883845E+03  0.00000000000E+00 0. -1.
         21   -1    0    0  502  503 -0.00000000000E+00 -0.00000000000E+00 -0.40320289450E+01  0.40320289450E+01  0.00000000000E+00 0.  1.
          2    1    1    2  501    0  0.32938525301E+02 -0.63571553457E+01  0.15021899603E+03  0.15391915619E+03  0.00000000000E+00 0. -1.
         -2    1    1    2    0  503 -0.32938525301E+02  0.63571553457E+01  0.12675781348E+03  0.13112171121E+03  0.00000000000E+00 0.  1.
<mgrwt>
<rscale>  2 0.33546384E+02</rscale>
<asrwt>0</asrwt>
<pdfrwt beam="1">  1       21 0.43232113E-01 0.33546384E+02</pdfrwt>
<pdfrwt beam="2">  1       21 0.62031237E-03 0.33546384E+02</pdfrwt>
<totfact> 0.33353046E+07</totfact>
</mgrwt>
</event>
<event>
 4    1  0.2754379E+004  0.4520117E+02  0.7546771E-02  0.1473090E+00
         21   -1    0    0  501  502  0.00000000000E+00  0.00000000000E+00  0.16105209728E+03  0.16105209728E+03  0.00000000000E+00 0. -1.
         21   -1    0    0  502  503 -0.00000000000E+00 -0.00000000000E+00 -0.22097000142E+02  0.22097000142E+02  0.00000000000E+00 0.  1.
          2    1    1    2  501    0  0.22161344458E+02 -0.39395692279E+02  0.12923890571E+03  0.13691545021E+03  0.00000000000E+00 0. -1.
         -2    1    1    2    0  503 -0.22161344458E+02  0.39395692279E+02  0.97161914289E+01  0.46233647209E+02  0.00000000000E+00 0.  1.
<mgrwt>
<rscale>  2 0.45201170E+02</rscale>
<asrwt>0</asrwt>
<pdfrwt beam="1">  1       21 0.24777245E-01 0.45201170E+02</pdfrwt>
<pdfrwt beam="2">  1       21 0.33995386E-02 0.45201170E+02</pdfrwt>
<totfact> 0.71254712E+06</totfact>
</mgrwt>
</event>
<event>
 4    1  0.2754379E+004  0.2225647E+02  0.7546771E-02  0.1703854E+00
         21   -1    0    0  503  502  0.00000000000E+00  0.00000000000E+00  0.19267087901E+03  0.19267087901E+03  0.00000000000E+00 0.  1.
         21   -1    0    0  501  503 -0.00000000000E+00 -0.00000000000E+00 -0.30199275499E+01  0.30199275499E+01  0.00000000000E+00 0. -1.
          2    1    1    2  501    0 -0.22232360560E+02  0.10357463701E+01  0.57099032086E+02  0.61283359012E+02  0.00000000000E+00 0. -1.
         -2    1    1    2    0  502  0.22232360560E+02 -0.10357463701E+01  0.13255191937E+03  0.13440744755E+03  0.00000000000E+00 0.  1.
<mgrwt>
<rscale>  2 0.22256474E+02</rscale>
<asrwt>0</asrwt>
<pdfrwt beam="1">  1       21 0.29641664E-01 0.22256474E+02</pdfrwt>
<pdfrwt beam="2">  1       21 0.46460439E-03 0.22256474E+02</pdfrwt>
<totfact> 0.94768177E+07</totfact>
</mgrwt>
</event>
<event>
 4    1  0.2754379E+004  0.2311169E+02  0.7546771E-02  0.1689706E+00
         21   -1    0    0  501  502  0.00000000000E+00  0.00000000000E+00  0.72577818557E+01  0.72577818557E+01  0.00000000000E+00 0. -1.
         21   -1    0    0  502  503 -0.00000000000E+00 -0.00000000000E+00 -0.86865614493E+02  0.86865614493E+02  0.00000000000E+00 0.  1.
          2    1    1    2  501    0 -0.21831705397E+02  0.75846394573E+01 -0.21410671047E+02  0.31505030565E+02  0.00000000000E+00 0. -1.
         -2    1    1    2    0  503  0.21831705397E+02 -0.75846394573E+01 -0.58197161591E+02  0.62618365784E+02  0.00000000000E+00 0.  1.
<mgrwt>
<rscale>  2 0.23111688E+02</rscale>
<asrwt>0</asrwt>
<pdfrwt beam="1">  1       21 0.11165819E-02 0.23111688E+02</pdfrwt>
<pdfrwt beam="2">  1       21 0.13363940E-01 0.23111688E+02</pdfrwt>
<totfact> 0.10432562E+08</totfact>
</mgrwt>
</event>
<event>
 4    1  0.2754379E+004  0.2354500E+02  0.7546771E-02  0.1682825E+00
         21   -1    0    0  503  502  0.00000000000E+00  0.00000000000E+00  0.85676480810E+00  0.85676480810E+00  0.00000000000E+00 0.  1.
         21   -1    0    0  501  503 -0.00000000000E+00 -0.00000000000E+00 -0.84112296172E+03  0.84112296172E+03  0.00000000000E+00 0. -1.
          2    1    1    2  501    0 -0.74478058002E+01  0.22336007600E+02 -0.62235483518E+03  0.62280005453E+03  0.00000000000E+00 0. -1.
         -2    1    1    2    0  502  0.74478058002E+01 -0.22336007600E+02 -0.21791136174E+03  0.21917967200E+03  0.00000000000E+00 0.  1.
<mgrwt>
<rscale>  2 0.23545000E+02</rscale>
<asrwt>0</asrwt>
<pdfrwt beam="1">  1       21 0.13181072E-03 0.23545000E+02</pdfrwt>
<pdfrwt beam="2">  1       21 0.12940279E+00 0.23545000E+02</pdfrwt>
<totfact> 0.30196791E+07</totfact>
</mgrwt>
</event>
<event>
 4    1  0.2754379E+004  0.2014588E+02  0.7546771E-02  0.1742443E+00
         21   -1    0    0  501  502  0.00000000000E+00  0.00000000000E+00  0.82683076748E+01  0.82683076748E+01  0.00000000000E+00 0. -1.
         21   -1    0    0  502  503 -0.00000000000E+00 -0.00000000000E+00 -0.73732498158E+02  0.73732498158E+02  0.00000000000E+00 0.  1.
          2    1    1    2  501    0 -0.15818037150E+02  0.12475820550E+02 -0.90271951533E+01  0.22075929199E+02  0.00000000000E+00 0. -1.
         -2    1    1    2    0  503  0.15818037150E+02 -0.12475820550E+02 -0.56436995330E+02  0.59924876633E+02  0.00000000000E+00 0.  1.
<mgrwt>
<rscale>  2 0.20145878E+02</rscale>
<asrwt>0</asrwt>
<pdfrwt beam="1">  1       21 0.12720473E-02 0.20145878E+02</pdfrwt>
<pdfrwt beam="2">  1       21 0.11343461E-01 0.20145878E+02</pdfrwt>
<totfact> 0.10838126E+08</totfact>
</mgrwt>
</event>
<event>
 4    1  0.2754379E+004  0.2278150E+02  0.7546771E-02  0.1695077E+00
         21   -1    0    0  501  502  0.00000000000E+00  0.00000000000E+00  0.53025422092E+02  0.53025422092E+02  0.00000000000E+00 0. -1.
         21   -1    0    0  502  503 -0.00000000000E+00 -0.00000000000E+00 -0.18878244797E+02  0.18878244797E+02  0.00000000000E+00 0.  1.
          2    1    1    2  501    0  0.21918404063E+02  0.62113221769E+01  0.42021556506E+02  0.47799667060E+02  0.00000000000E+00 0. -1.
         -2    1    1    2    0  503 -0.21918404063E+02 -0.62113221769E+01 -0.78743792098E+01  0.24103999829E+02  0.00000000000E+00 0.  1.
<mgrwt>
<rscale>  2 0.22781505E+02</rscale>
<asrwt>0</asrwt>
<pdfrwt beam="1">  1       21 0.81577572E-02 0.22781505E+02</pdfrwt>
<pdfrwt beam="2">  1       21 0.29043454E-02 0.22781505E+02</pdfrwt>
<totfact> 0.54621914E+07</totfact>
</mgrwt>
</event>
<event>
 4    1  0.2754379E+004  0.2343756E+02  0.7546771E-02  0.1684514E+00
         21   -1    0    0  503  502  0.00000000000E+00  0.00000000000E+00  0.55064329392E+02  0.55064329392E+02  0.00000000000E+00 0.  1.
         21   -1    0    0  501  503 -0.00000000000E+00 -0.00000000000E+00 -0.11779256713E+02  0.11779256713E+02  0.00000000000E+00 0. -1.
          2    1    1    2  501    0  0.43574629596E+01  0.23028935650E+02  0.85656362248E+01  0.24953746904E+02  0.00000000000E+00 0.  1.
         -2    1    1    2    0  502 -0.43574629596E+01 -0.23028935650E+02  0.34719436454E+02  0.41889839201E+02  0.00000000000E+00 0. -1.
<mgrwt>
<rscale>  2 0.23437563E+02</rscale>
<asrwt>0</asrwt>
<pdfrwt beam="1">  1       21 0.84714352E-02 0.23437563E+02</pdfrwt>
<pdfrwt beam="2">  1       21 0.18121934E-02 0.23437563E+02</pdfrwt>
<totfact> 0.10711983E+08</totfact>
</mgrwt>
</event>
<event>
 4    1  0.2754379E+004  0.2099368E+02  0.7546771E-02  0.1726260E+00
         21   -1    0    0  501  502  0.00000000000E+00  0.00000000000E+00  0.73981844059E+00  0.73981844059E+00  0.00000000000E+00 0. -1.
         21   -1    0    0  502  503 -0.00000000000E+00 -0.00000000000E+00 -0.68459592210E+03  0.68459592210E+03  0.00000000000E+00 0.  1.
          2    1    1    2  501    0  0.16190414748E+02  0.13364316969E+02 -0.21847104652E+03  0.21947740810E+03  0.00000000000E+00 0. -1.
         -2    1    1    2    0  503 -0.16190414748E+02 -0.13364316969E+02 -0.46538505714E+03  0.46585833244E+03  0.00000000000E+00 0.  1.
<mgrwt>
<rscale>  2 0.20993678E+02</rscale>
<asrwt>0</asrwt>
<pdfrwt beam="1">  1       21 0.11381824E-03 0.20993678E+02</pdfrwt>
<pdfrwt beam="2">  1       21 0.10532243E+00 0.20993678E+02</pdfrwt>
<totfact> 0.57753779E+07</totfact>
</mgrwt>
</event>
<event>
 4    1  0.2754379E+004  0.2557095E+02  0.7546771E-02  0.1652934E+00
         21   -1    0    0  501  502  0.00000000000E+00  0.00000000000E+00  0.36394383150E+02  0.36394383150E+02  0.00000000000E+00 0.  1.
         21   -1    0    0  502  503 -0.00000000000E+00 -0.00000000000E+00 -0.31807977126E+02  0.31807977126E+02  0.00000000000E+00 0. -1.
          2    1    1    2  501    0 -0.11721837539E+02  0.22726017242E+02  0.24788686954E+02  0.35613934575E+02  0.00000000000E+00 0.  1.
         -2    1    1    2    0  503  0.11721837539E+02 -0.22726017242E+02 -0.20202280930E+02  0.32588425702E+02  0.00000000000E+00 0. -1.
<mgrwt>
<rscale>  2 0.25570947E+02</rscale>
<asrwt>0</asrwt>
<pdfrwt beam="1">  1       21 0.55991359E-02 0.25570947E+02</pdfrwt>
<pdfrwt beam="2">  1       21 0.48935349E-02 0.25570947E+02</pdfrwt>
<totfact> 0.45483126E+07</totfact>
</mgrwt>
</event>
<event>
 4    1  0.2754379E+004  0.2056848E+02  0.7546771E-02  0.1734254E+00
         21   -1    0    0  501  502  0.00000000000E+00  0.00000000000E+00  0.10300779058E+02  0.10300779058E+02  0.00000000000E+00 0. -1.
         21   -1    0    0  502  503 -0.00000000000E+00 -0.00000000000E+00 -0.12571701619E+03  0.12571701619E+03  0.00000000000E+00 0.  1.
          2    1    1    2  501    0 -0.20261664419E+02 -0.35394127380E+01 -0.19032401858E+01  0.20656350374E+02  0.00000000000E+00 0. -1.
         -2    1    1    2    0  503  0.20261664419E+02  0.35394127380E+01 -0.11351299695E+03  0.11536144488E+03  0.00000000000E+00 0.  1.
<mgrwt>
<rscale>  2 0.20568483E+02</rscale>
<asrwt>0</asrwt>
<pdfrwt beam="1">  1       21 0.15847351E-02 0.20568483E+02</pdfrwt>
<pdfrwt beam="2">  1       21 0.19341081E-01 0.20568483E+02</pdfrwt>
<totfact> 0.31690647E+07</totfact>
</mgrwt>
</event>
<event>
 4    1  0.2754379E+004  0.2217342E+02  0.7546771E-02  0.1705270E+00
         21   -1    0    0  503  502  0.00000000000E+00  0.00000000000E+00  0.95346784844E+02  0.95346784844E+02  0.00000000000E+00 0. -1.
         21   -1    0    0  501  503 -0.00000000000E+00 -0.00000000000E+00 -0.52509774487E+01  0.52509774487E+01  0.00000000000E+00 0.  1.
          2    1    1    2  501    0  0.20579637159E+02  0.82546526599E+01  0.51792878247E+02  0.56339710625E+02  0.00000000000E+00 0.  1.
         -2    1    1    2    0  502 -0.20579637159E+02 -0.82546526599E+01  0.38302929148E+02  0.44258051668E+02  0.00000000000E+00 0. -1.
<mgrwt>
<rscale>  2 0.22173425E+02</rscale>
<asrwt>0</asrwt>
<pdfrwt beam="1">  1       21 0.14668735E-01 0.22173425E+02</pdfrwt>
<pdfrwt beam="2">  1       21 0.80784276E-03 0.22173425E+02</pdfrwt>
<totfact> 0.14302268E+08</totfact>
</mgrwt>
</event>
<event>
 4    1  0.2754379E+004  0.3221468E+02  0.7546771E-02  0.1574824E+00
         21   -1    0    0  503  502  0.00000000000E+00  0.00000000000E+00  0.11279464407E+04  0.11279464407E+04  0.00000000000E+00 0.  1.
         21   -1    0    0  501  503 -0.00000000000E+00 -0.00000000000E+00 -0.18904861449E+01  0.18904861449E+01  0.00000000000E+00 0. -1.
          2    1    1    2  501    0 -0.11883066067E+02 -0.29942915874E+02  0.15828542881E+03  0.16153037622E+03  0.00000000000E+00 0. -1.
         -2    1    1    2    0  502  0.11883066067E+02  0.29942915874E+02  0.96777052574E+03  0.96830655061E+03  0.00000000000E+00 0.  1.
<mgrwt>
<rscale>  2 0.32214678E+02</rscale>
<asrwt>0</asrwt>
<pdfrwt beam="1">  1       21 0.17352968E+00 0.32214678E+02</pdfrwt>
<pdfrwt beam="2">  1       21 0.29084492E-03 0.32214678E+02</pdfrwt>
<totfact> 0.49343942E+06</totfact>
</mgrwt>
</event>
<event>
 4    1  0.2754379E+004  0.3537343E+02  0.7546771E-02  0.1545309E+00
         21   -1    0    0  501  502  0.00000000000E+00  0.00000000000E+00  0.24318320492E+03  0.24318320492E+03  0.00000000000E+00 0. -1.
         21   -1    0    0  502  503 -0.00000000000E+00 -0.00000000000E+00 -0.16135688359E+02  0.16135688359E+02  0.00000000000E+00 0.  1.
          2    1    1    2  501    0  0.32157127699E+02  0.14737657779E+02  0.22053134964E+03  0.22335029795E+03  0.00000000000E+00 0. -1.
         -2    1    1    2    0  503 -0.32157127699E+02 -0.14737657779E+02  0.65161669174E+01  0.35968595329E+02  0.00000000000E+00 0.  1.
<mgrwt>
<rscale>  2 0.35373428E+02</rscale>
<asrwt>0</asrwt>
<pdfrwt beam="1">  1       21 0.37412798E-01 0.35373428E+02</pdfrwt>
<pdfrwt beam="2">  1       21 0.24824138E-02 0.35373428E+02</pdfrwt>
<totfact> 0.52924816E+06</totfact>
</mgrwt>
</event>
<event>
 4    1  0.2754379E+004  0.3250086E+02  0.7546771E-02  0.1571984E+00
         21   -1    0    0  503  502  0.00000000000E+00  0.00000000000E+00  0.66914089404E+01  0.66914089404E+01  0.00000000000E+00 0. -1.
         21   -1    0    0  501  503 -0.00000000000E+00 -0.00000000000E+00 -0.18363669684E+03  0.18363669684E+03  0.00000000000E+00 0.  1.
          2    1    1    2  501    0  0.31798658656E+02  0.67194738307E+01 -0.12412650492E+03  0.12831093190E+03  0.00000000000E+00 0.  1.
         -2    1    1    2    0  502 -0.31798658656E+02 -0.67194738307E+01 -0.52818782979E+02  0.62017173882E+02  0.00000000000E+00 0. -1.
<mgrwt>
<rscale>  2 0.32500862E+02</rscale>
<asrwt>0</asrwt>
<pdfrwt beam="1">  1       21 0.10294476E-02 0.32500862E+02</pdfrwt>
<pdfrwt beam="2">  1       21 0.28251799E-01 0.32500862E+02</pdfrwt>
<totfact> 0.34334649E+07</totfact>
</mgrwt>
</event>
<event>
 4    1  0.2754379E+004  0.2005577E+02  0.7546771E-02  0.1744221E+00
         21   -1    0    0  501  502  0.00000000000E+00  0.00000000000E+00  0.22364176859E+03  0.22364176859E+03  0.00000000000E+00 0.  1.
         21   -1    0    0  502  503 -0.00000000000E+00 -0.00000000000E+00 -0.47807427663E+01  0.47807427663E+01  0.00000000000E+00 0. -1.
          2    1    1    2  501    0 -0.18062555883E+02  0.87165278352E+01  0.19963499902E+03  0.20063989288E+03  0.00000000000E+00 0.  1.
         -2    1    1    2    0  503  0.18062555883E+02 -0.87165278352E+01  0.19226026803E+02  0.27782618472E+02  0.00000000000E+00 0. -1.
<mgrwt>
<rscale>  2 0.20055767E+02</rscale>
<asrwt>0</asrwt>
<pdfrwt beam="1">  1       21 0.34406418E-01 0.20055767E+02</pdfrwt>
<pdfrwt beam="2">  1       21 0.73549906E-03 0.20055767E+02</pdfrwt>
<totfact> 0.35673124E+07</totfact>
</mgrwt>
</event>
<event>
 4    1  0.2754379E+004  0.3100465E+02  0.7546771E-02  0.1587242E+00
         21   -1    0    0  501  502  0.00000000000E+00  0.00000000000E+00  0.14520015906E+03  0.14520015906E+03  0.00000000000E+00 0. -1.
         21   -1    0    0  502  503 -0.00000000000E+00 -0.00000000000E+00 -0.10891682448E+02  0.10891682448E+02  0.00000000000E+00 0.  1.
          2    1    1    2  501    0  0.87593328995E+01  0.29741594195E+02  0.11602848158E+03  0.12009952904E+03  0.00000000000E+00 0. -1.
         -2    1    1    2    0  503 -0.87593328995E+01 -0.29741594195E+02  0.18279995026E+02  0.35992312461E+02  0.00000000000E+00 0.  1.
<mgrwt>
<rscale>  2 0.31004650E+02</rscale>
<asrwt>0</asrwt>
<pdfrwt beam="1">  1       21 0.22338485E-01 0.31004650E+02</pdfrwt>
<pdfrwt beam="2">  1       21 0.16756436E-02 0.31004650E+02</pdfrwt>
<totfact> 0.24683232E+07</totfact>
</mgrwt>
</event>
<event>
 4    1  0.2754379E+004  0.2170536E+02  0.7546771E-02  0.1713398E+00
         21   -1    0    0  503  502  0.00000000000E+00  0.00000000000E+00  0.21755364544E+02  0.21755364544E+02  0.00000000000E+00 0. -1.
         21   -1    0    0  501  503 -0.00000000000E+00 -0.00000000000E+00 -0.22118668579E+02  0.22118668579E+02  0.00000000000E+00 0.  1.
          2    1    1    2  501    0 -0.89937658514E+01 -0.19754360222E+02 -0.33562098177E+01  0.21963303856E+02  0.00000000000E+00 0. -1.
         -2    1    1    2    0  502  0.89937658514E+01  0.19754360222E+02  0.29929057828E+01  0.21910729266E+02  0.00000000000E+00 0.  1.
<mgrwt>
<rscale>  2 0.21705358E+02</rscale>
<asrwt>0</asrwt>
<pdfrwt beam="1">  1       21 0.33469792E-02 0.21705358E+02</pdfrwt>
<pdfrwt beam="2">  1       21 0.34028721E-02 0.21705358E+02</pdfrwt>
<totfact> 0.17416138E+08</totfact>
</mgrwt>
</event>
<event>
 4    1  0.2754379E+004  0.2822751E+02  0.7546771E-02  0.1618550E+00
         21   -1    0    0  503  502  0.00000000000E+00  0.00000000000E+00  0.15206524807E+03  0.15206524807E+03  0.00000000000E+00 0. -1.
         21   -1    0    0  501  503 -0.00000000000E+00 -0.00000000000E+00 -0.82498808061E+01  0.82498808061E+01  0.00000000000E+00 0.  1.
          2    1    1    2  501    0  0.71593345840E+00 -0.28218431802E+02  0.23489410699E+02  0.36722538979E+02  0.00000000000E+00 0.  1.
         -2    1    1    2    0  502 -0.71593345840E+00  0.28218431802E+02  0.12032595656E+03  0.12359258989E+03  0.00000000000E+00 0. -1.
<mgrwt>
<rscale>  2 0.28227512E+02</rscale>
<asrwt>0</asrwt>
<pdfrwt beam="1">  1       21 0.23394652E-01 0.28227512E+02</pdfrwt>
<pdfrwt beam="2">  1       21 0.12692125E-02 0.28227512E+02</pdfrwt>
<totfact> 0.34150444E+07</totfact>
</mgrwt>
</event>
<event>
 4    1  0.2754379E+004  0.3333109E+02  0.7546771E-02  0.1563941E+00
         21   -1    0    0  501  502  0.00000000000E+00  0.00000000000E+00  0.15864338278E+02  0.15864338278E+02  0.00000000000E+00 0. -1.
         21   -1    0    0  502  503 -0.00000000000E+00 -0.00000000000E+00 -0.11421229217E+03  0.11421229217E+03  0.00000000000E+00 0.  1.
          2    1    1    2  501    0  0.33291378751E+02  0.16265249630E+01 -0.87217349983E+01  0.34453303818E+02  0.00000000000E+00 0. -1.
         -2    1    1    2    0  503 -0.33291378751E+02 -0.16265249630E+01 -0.89626218891E+02  0.95623326628E+02  0.00000000000E+00 0.  1.
<mgrwt>
<rscale>  2 0.33331089E+02</rscale>
<asrwt>0</asrwt>
<pdfrwt beam="1">  1       21 0.24406674E-02 0.33331089E+02</pdfrwt>
<pdfrwt beam="2">  1       21 0.17571122E-01 0.33331089E+02</pdfrwt>
<totfact> 0.21314022E+07</totfact>
</mgrwt>
</event>
<event>
 4    1  0.2754379E+004  0.2456190E+02  0.7546771E-02  0.1667375E+00
         21   -1    0    0  501  502  0.00000000000E+00  0.00000000000E+00  0.12229704288E+03  0.12229704288E+03  0.00000000000E+00 0.  1.
         21   -1    0    0  502  503 -0.00000000000E+00 -0.00000000000E+00 -0.64947249590E+01  0.64947249590E+01  0.00000000000E+00 0. -1.
          2    1    1    2  501    0 -0.19068427142E+02 -0.15481659518E+02  0.89479204882E+02  0.92789087729E+02  0.00000000000E+00 0.  1.
         -2    1    1    2    0  503  0.19068427142E+02  0.15481659518E+02  0.26323113041E+02  0.36002680113E+02  0.00000000000E+00 0. -1.
<mgrwt>
<rscale>  2 0.24561895E+02</rscale>
<asrwt>0</asrwt>
<pdfrwt beam="1">  1       21 0.18814928E-01 0.24561895E+02</pdfrwt>
<pdfrwt beam="2">  1       21 0.99918855E-03 0.24561895E+02</pdfrwt>
<totfact> 0.69773830E+07</totfact>
</mgrwt>
</event>
<event>
 4    1  0.2754379E+004  0.2504413E+02  0.7546771E-02  0.1660369E+00
         21   -1    0    0  501  502  0.00000000000E+00  0.00000000000E+00  0.13440566559E+03  0.13440566559E+03  0.00000000000E+00 0.  1.
         21   -1    0    0  502  503 -0.00000000000E+00 -0.00000000000E+00 -0.46666268840E+01  0.46666268840E+01  0.00000000000E+00 0. -1.
          2    1    1    2  501    0 -0.22898797332E+02  0.10141680500E+02  0.64559222153E+02  0.69246673332E+02  0.00000000000E+00 0.  1.
         -2    1    1    2    0  503  0.22898797332E+02 -0.10141680500E+02  0.65179816550E+02  0.69825619139E+02  0.00000000000E+00 0. -1.
<mgrwt>
<rscale>  2 0.25044133E+02</rscale>
<asrwt>0</asrwt>
<pdfrwt beam="1">  1       21 0.20677792E-01 0.25044133E+02</pdfrwt>
<pdfrwt beam="2">  1       21 0.71794270E-03 0.25044133E+02</pdfrwt>
<totfact> 0.97568133E+07</totfact>
</mgrwt>
</event>
<event>
 4    1  0.2754379E+004  0.2543685E+02  0.7546771E-02  0.1654805E+00
         21   -1    0    0  503  502  0.00000000000E+00  0.00000000000E+00  0.63012551847E+03  0.63012551847E+03  0.00000000000E+00 0. -1.
         21   -1    0    0  501  503 -0.00000000000E+00 -0.00000000000E+00 -0.15981115921E+01  0.15981115921E+01  0.00000000000E+00 0.  1.
          2    1    1    2  501    0 -0.22948083116E+02  0.10973561955E+02  0.12541343415E+03  0.12796703890E+03  0.00000000000E+00 0.  1.
         -2    1    1    2    0  502  0.22948083116E+02 -0.10973561955E+02  0.50311397272E+03  0.50375659115E+03  0.00000000000E+00 0. -1.
<mgrwt>
<rscale>  2 0.25436855E+02</rscale>
<asrwt>0</asrwt>
<pdfrwt beam="1">  1       21 0.96942189E-01 0.25436855E+02</pdfrwt>
<pdfrwt beam="2">  1       21 0.24586382E-03 0.25436855E+02</pdfrwt>
<totfact> 0.23804465E+07</totfact>
</mgrwt>
</event>
<event>
 4    1  0.2754379E+004  0.2905781E+02  0.7546771E-02  0.1608743E+00
         21   -1    0    0  501  502  0.00000000000E+00  0.00000000000E+00  0.17704721059E+02  0.17704721059E+02  0.00000000000E+00 0. -1.
         21   -1    0    0  502  503 -0.00000000000E+00 -0.00000000000E+00 -0.56628356563E+02  0.56628356563E+02  0.00000000000E+00 0.  1.
          2    1    1    2  501    0  0.60938854431E+01 -0.28411631481E+02 -0.46966241687E+01  0.29434920108E+02  0.00000000000E+00 0.  1.
         -2    1    1    2    0  503 -0.60938854431E+01  0.28411631481E+02 -0.34227011335E+02  0.44898157513E+02  0.00000000000E+00 0. -1.
<mgrwt>
<rscale>  2 0.29057809E+02</rscale>
<asrwt>0</asrwt>
<pdfrwt beam="1">  1       21 0.27238032E-02 0.29057809E+02</pdfrwt>
<pdfrwt beam="2">  1       21 0.87120550E-02 0.29057809E+02</pdfrwt>
<totfact> 0.57543835E+07</totfact>
</mgrwt>
</event>
<event>
 4    1  0.2754379E+004  0.2331141E+02  0.7546771E-02  0.1686511E+00
         21   -1    0    0  503  502  0.00000000000E+00  0.00000000000E+00  0.19163676533E+03  0.19163676533E+03  0.00000000000E+00 0.  1.
         21   -1    0    0  501  503 -0.00000000000E+00 -0.00000000000E+00 -0.28918880473E+01  0.28918880473E+01  0.00000000000E+00 0. -1.
          2    1    1    2  501    0  0.16124004038E+02 -0.16835626355E+02  0.80813168137E+02  0.84108203912E+02  0.00000000000E+00 0. -1.
         -2    1    1    2    0  502 -0.16124004038E+02  0.16835626355E+02  0.10793170914E+03  0.11042044946E+03  0.00000000000E+00 0.  1.
<mgrwt>
<rscale>  2 0.23311410E+02</rscale>
<asrwt>0</asrwt>
<pdfrwt beam="1">  1       21 0.29482569E-01 0.23311410E+02</pdfrwt>
<pdfrwt beam="2">  1       21 0.44490600E-03 0.23311410E+02</pdfrwt>
<totfact> 0.10327942E+08</totfact>
</mgrwt>
</event>
<event>
 4    1  0.2754379E+004  0.2051622E+02  0.7546771E-02  0.1735253E+00
         21   -1    0    0  503  502  0.00000000000E+00  0.00000000000E+00  0.36297865733E+01  0.36297865733E+01  0.00000000000E+00 0. -1.
         21   -1    0    0  501  503 -0.00000000000E+00 -0.00000000000E+00 -0.24683426112E+03  0.24683426112E+03  0.00000000000E+00 0.  1.
          2    1    1    2  501    0  0.20372410517E+02 -0.24249210778E+01 -0.21279017143E+03  0.21377692207E+03  0.00000000000E+00 0.  1.
         -2    1    1    2    0  502 -0.20372410517E+02  0.24249210778E+01 -0.30414303124E+02  0.36687125630E+02  0.00000000000E+00 0. -1.
<mgrwt>
<rscale>  2 0.20516222E+02</rscale>
<asrwt>0</asrwt>
<pdfrwt beam="1">  1       21 0.55842863E-03 0.20516222E+02</pdfrwt>
<pdfrwt beam="2">  1       21 0.37974507E-01 0.20516222E+02</pdfrwt>
<totfact> 0.44904099E+07</totfact>
</mgrwt>
</event>
<event>
 4    1  0.2754379E+004  0.2106764E+02  0.7546771E-02  0.1724894E+00
         21   -1    0    0  501  502  0.00000000000E+00  0.00000000000E+00  0.38343806987E+00  0.38343806987E+00  0.00000000000E+00 0. -1.
         21   -1    0    0  502  503 -0.00000000000E+00 -0.00000000000E+00 -0.14722398922E+04  0.14722398922E+04  0.00000000000E+00 0.  1.
          2    1    1    2  501    0 -0.21052998462E+02 -0.78519229825E+00 -0.39550434068E+03  0.39606505623E+03  0.00000000000E+00 0. -1.
         -2    1    1    2    0  503  0.21052998462E+02  0.78519229825E+00 -0.10763521134E+04  0.10765582740E+04  0.00000000000E+00 0.  1.
<mgrwt>
<rscale>  2 0.21067636E+02</rscale>
<asrwt>0</asrwt>
<pdfrwt beam="1">  1       21 0.58990254E-04 0.21067636E+02</pdfrwt>
<pdfrwt beam="2">  1       21 0.22649928E+00 0.21067636E+02</pdfrwt>
<totfact> 0.23387361E+07</totfact>
</mgrwt>
</event>
<event>
 4    1  0.2754379E+004  0.2766572E+02  0.7546771E-02  0.1625424E+00
         21   -1    0    0  503  502  0.00000000000E+00  0.00000000000E+00  0.39850839652E+02  0.39850839652E+02  0.00000000000E+00 0.  1.
         21   -1    0    0  501  503 -0.00000000000E+00 -0.00000000000E+00 -0.38113860196E+02  0.38113860196E+02  0.00000000000E+00 0. -1.
          2    1    1    2  501    0  0.25950473685E+02 -0.95898453034E+01 -0.26587862769E+02  0.38370648471E+02  0.00000000000E+00 0. -1.
         -2    1    1    2    0  502 -0.25950473685E+02  0.95898453034E+01  0.28324842225E+02  0.39594051378E+02  0.00000000000E+00 0.  1.
<mgrwt>
<rscale>  2 0.27665723E+02</rscale>
<asrwt>0</asrwt>
<pdfrwt beam="1">  1       21 0.61308984E-02 0.27665723E+02</pdfrwt>
<pdfrwt beam="2">  1       21 0.58636708E-02 0.27665723E+02</pdfrwt>
<totfact> 0.29910334E+07</totfact>
</mgrwt>
</event>
<event>
 4    1  0.2754379E+004  0.2668987E+02  0.7546771E-02  0.1637852E+00
         21   -1    0    0  501  502  0.00000000000E+00  0.00000000000E+00  0.59582269107E+01  0.59582269107E+01  0.00000000000E+00 0.  1.
         21   -1    0    0  502  503 -0.00000000000E+00 -0.00000000000E+00 -0.14546588577E+03  0.14546588577E+03  0.00000000000E+00 0. -1.
          2    1    1    2  501    0 -0.25630106233E+02 -0.74462737869E+01 -0.37801201991E+02  0.46273969041E+02  0.00000000000E+00 0.  1.
         -2    1    1    2    0  503  0.25630106233E+02  0.74462737869E+01 -0.10170645687E+03  0.10515014364E+03  0.00000000000E+00 0. -1.
<mgrwt>
<rscale>  2 0.26689873E+02</rscale>
<asrwt>0</asrwt>
<pdfrwt beam="1">  1       21 0.91665023E-03 0.26689873E+02</pdfrwt>
<pdfrwt beam="2">  1       21 0.22379369E-01 0.26689873E+02</pdfrwt>
<totfact> 0.59748296E+07</totfact>
</mgrwt>
</event>
<event>
 4    1  0.2754379E+004  0.3023191E+02  0.7546771E-02  0.1595539E+00
         21   -1    0    0  503  502  0.00000000000E+00  0.00000000000E+00  0.10786922108E+02  0.10786922108E+02  0.00000000000E+00 0.  1.
         21   -1    0    0  501  503 -0.00000000000E+00 -0.00000000000E+00 -0.23869391084E+03  0.23869391084E+03  0.00000000000E+00 0. -1.
          2    1    1    2  501    0  0.24890892017E+02  0.17158439708E+02 -0.21413716687E+03  0.21626071024E+03  0.00000000000E+00 0. -1.
         -2    1    1    2    0  502 -0.24890892017E+02 -0.17158439708E+02 -0.13769821863E+02  0.33220122708E+02  0.00000000000E+00 0.  1.
<mgrwt>
<rscale>  2 0.30231913E+02</rscale>
<asrwt>0</asrwt>
<pdfrwt beam="1">  1       21 0.16595266E-02 0.30231913E+02</pdfrwt>
<pdfrwt beam="2">  1       21 0.36722137E-01 0.30231913E+02</pdfrwt>
<totfact> 0.10034962E+07</totfact>
</mgrwt>
</event>
<event>
 4    1  0.2754379E+004  0.2139691E+02  0.7546771E-02  0.1718896E+00
         21   -1    0    0  503  502  0.00000000000E+00  0.00000000000E+00  0.30964883037E+03  0.30964883037E+03  0.00000000000E+00 0. -1.
         21   -1    0    0  501  503 -0.00000000000E+00 -0.00000000000E+00 -0.15041595363E+01  0.15041595363E+01  0.00000000000E+00 0.  1.
          2    1    1    2  501    0 -0.20846850459E+02  0.48204293774E+01  0.13376768669E+03  0.13546815757E+03  0.00000000000E+00 0.  1.
         -2    1    1    2    0  502  0.20846850459E+02 -0.48204293774E+01  0.17437698414E+03  0.17568483233E+03  0.00000000000E+00 0. -1.
<mgrwt>
<rscale>  2 0.21396909E+02</rscale>
<asrwt>0</asrwt>
<pdfrwt beam="1">  1       21 0.47638231E-01 0.21396909E+02</pdfrwt>
<pdfrwt beam="2">  1       21 0.23140941E-03 0.21396909E+02</pdfrwt>
<totfact> 0.10684526E+08</totfact>
</mgrwt>
</event>
<event>
 4    1  0.2754379E+004  0.2208273E+02  0.7546771E-02  0.1706825E+00
         21   -1    0    0  503  502  0.00000000000E+00  0.00000000000E+00  0.31611811219E+02  0.31611811219E+02  0.00000000000E+00 0. -1.
         21   -1    0    0  501  503 -0.00000000000E+00 -0.00000000000E+00 -0.20309600622E+02  0.20309600622E+02  0.00000000000E+00 0.  1.
          2    1    1    2  501    0  0.17127027487E+02 -0.13939578898E+02 -0.70789846632E+01  0.23189630317E+02  0.00000000000E+00 0.  1.
         -2    1    1    2    0  502 -0.17127027487E+02  0.13939578898E+02  0.18381195260E+02  0.28731781524E+02  0.00000000000E+00 0. -1.
<mgrwt>
<rscale>  2 0.22082729E+02</rscale>
<asrwt>0</asrwt>
<pdfrwt beam="1">  1       21 0.48633556E-02 0.22082729E+02</pdfrwt>
<pdfrwt beam="2">  1       21 0.31245539E-02 0.22082729E+02</pdfrwt>
<totfact> 0.11108764E+08</totfact>
</mgrwt>
</event>
<event>
 4    1  0.2754379E+004  0.2114549E+02  0.7546771E-02  0.1723463E+00
         21   -1    0    0  503  502  0.00000000000E+00  0.00000000000E+00  0.23629051591E+01  0.23629051591E+01  0.00000000000E+00 0.  1.
         21   -1    0    0  501  503 -0.00000000000E+00 -0.00000000000E+00 -0.99638012009E+03  0.99638012009E+03  0.00000000000E+00 0. -1.
          2    1    1    2  501    0 -0.21143995672E+02 -0.25178035130E+00 -0.94646593241E+03  0.94670211427E+03  0.00000000000E+00 0. -1.
         -2    1    1    2    0  502  0.21143995672E+02  0.25178035130E+00 -0.47551282515E+02  0.52040910975E+02  0.00000000000E+00 0.  1.
<mgrwt>
<rscale>  2 0.21145495E+02</rscale>
<asrwt>0</asrwt>
<pdfrwt beam="1">  1       21 0.36352415E-03 0.21145495E+02</pdfrwt>
<pdfrwt beam="2">  1       21 0.15328913E+00 0.21145495E+02</pdfrwt>
<totfact> 0.46129313E+06</totfact>
</mgrwt>
</event>
<event>
 4    1  0.2754379E+004  0.2322987E+02  0.7546771E-02  0.1687811E+00
         21   -1    0    0  503  502  0.00000000000E+00  0.00000000000E+00  0.28646538991E+03  0.28646538991E+03  0.00000000000E+00 0.  1.
         21   -1    0    0  501  503 -0.00000000000E+00 -0.00000000000E+00 -0.27242470492E+01  0.27242470492E+01  0.00000000000E+00 0. -1.
          2    1    1    2  501    0 -0.11372739990E+02 -0.20255561709E+02  0.61555037407E+02  0.65792473925E+02  0.00000000000E+00 0.  1.
         -2    1    1    2    0  502  0.11372739990E+02  0.20255561709E+02  0.22218610545E+03  0.22339716304E+03  0.00000000000E+00 0. -1.
<mgrwt>
<rscale>  2 0.23229873E+02</rscale>
<asrwt>0</asrwt>
<pdfrwt beam="1">  1       21 0.44071575E-01 0.23229873E+02</pdfrwt>
<pdfrwt beam="2">  1       21 0.41911516E-03 0.23229873E+02</pdfrwt>
<totfact> 0.53311132E+07</totfact>
</mgrwt>
</event>
<event>
 4    1  0.2754379E+004  0.2908271E+02  0.7546771E-02  0.1608455E+00
         21   -1    0    0  501  502  0.00000000000E+00  0.00000000000E+00  0.73993103242E+03  0.73993103242E+03  0.00000000000E+00 0. -1.
         21   -1    0    0  502  503 -0.00000000000E+00 -0.00000000000E+00 -0.18313920012E+01  0.18313920012E+01  0.00000000000E+00 0.  1.
          2    1    1    2  501    0 -0.26363841291E+02  0.12278100548E+02  0.59642096531E+03  0.59712961051E+03  0.00000000000E+00 0. -1.
         -2    1    1    2    0  503  0.26363841291E+02 -0.12278100548E+02  0.14167867511E+03  0.14463281391E+03  0.00000000000E+00 0.  1.
<mgrwt>
<rscale>  2 0.29082708E+02</rscale>
<asrwt>0</asrwt>
<pdfrwt beam="1">  1       21 0.11383531E+00 0.29082708E+02</pdfrwt>
<pdfrwt beam="2">  1       21 0.28175321E-03 0.29082708E+02</pdfrwt>
<totfact> 0.13945490E+07</totfact>
</mgrwt>
</event>
<event>
 4    1  0.2754379E+004  0.2016086E+02  0.7546771E-02  0.1742148E+00
         21   -1    0    0  503  502  0.00000000000E+00  0.00000000000E+00  0.83240991454E+01  0.83240991454E+01  0.00000000000E+00 0. -1.
         21   -1    0    0  501  503 -0.00000000000E+00 -0.00000000000E+00 -0.53251527643E+02  0.53251527643E+02  0.00000000000E+00 0.  1.
          2    1    1    2  501    0  0.53698935510E+01 -0.19432562109E+02 -0.31335920563E+02  0.37261241853E+02  0.00000000000E+00 0.  1.
         -2    1    1    2    0  502 -0.53698935510E+01  0.19432562109E+02 -0.13591507935E+02  0.24314384936E+02  0.00000000000E+00 0. -1.
<mgrwt>
<rscale>  2 0.20160859E+02</rscale>
<asrwt>0</asrwt>
<pdfrwt beam="1">  1       21 0.12806307E-02 0.20160859E+02</pdfrwt>
<pdfrwt beam="2">  1       21 0.81925426E-02 0.20160859E+02</pdfrwt>
<totfact> 0.18307106E+08</totfact>
</mgrwt>
</event>
<event>
 4    1  0.2754379E+004  0.3509750E+02  0.7546771E-02  0.1547736E+00
         21   -1    0    0  503  502  0.00000000000E+00  0.00000000000E+00  0.19500619651E+03  0.19500619651E+03  0.00000000000E+00 0.  1.
         21   -1    0    0  501  503 -0.00000000000E+00 -0.00000000000E+00 -0.18288558552E+02  0.18288558552E+02  0.00000000000E+00 0. -1.
          2    1    1    2  501    0 -0.21081568623E+02 -0.28060686142E+02  0.20733621226E+01  0.35158689863E+02  0.00000000000E+00 0. -1.
         -2    1    1    2    0  502  0.21081568623E+02  0.28060686142E+02  0.17464427584E+03  0.17813606520E+03  0.00000000000E+00 0.  1.
<mgrwt>
<rscale>  2 0.35097502E+02</rscale>
<asrwt>0</asrwt>
<pdfrwt beam="1">  1       21 0.30000952E-01 0.35097502E+02</pdfrwt>
<pdfrwt beam="2">  1       21 0.28136245E-02 0.35097502E+02</pdfrwt>
<totfact> 0.65679885E+06</totfact>
</mgrwt>
</event>
<event>
 4    1  0.2754379E+004  0.2037047E+02  0.7546771E-02  0.1738060E+00
         21   -1    0    0  503  502  0.00000000000E+00  0.00000000000E+00  0.10766286216E+03  0.10766286216E+03  0.00000000000E+00 0. -1.
         21   -1    0    0  501  503 -0.00000000000E+00 -0.00000000000E+00 -0.47918254842E+01  0.47918254842E+01  0.00000000000E+00 0.  1.
          2    1    1    2  501    0 -0.19934424572E+02  0.41922243417E+01  0.26563682192E+02  0.33475143608E+02  0.00000000000E+00 0.  1.
         -2    1    1    2    0  502  0.19934424572E+02 -0.41922243417E+01  0.76307354482E+02  0.78979544035E+02  0.00000000000E+00 0. -1.
<mgrwt>
<rscale>  2 0.20370470E+02</rscale>
<asrwt>0</asrwt>
<pdfrwt beam="1">  1       21 0.16563515E-01 0.20370470E+02</pdfrwt>
<pdfrwt beam="2">  1       21 0.73720400E-03 0.20370470E+02</pdfrwt>
<totfact> 0.12995399E+08</totfact>
</mgrwt>
</event>
<event>
 4    1  0.2754379E+004  0.2248266E+02  0.7546771E-02  0.1700036E+00
         21   -1    0    0  503  502  0.00000000000E+00  0.00000000000E+00  0.76936175213E+01  0.76936175213E+01  0.00000000000E+00 0. -1.
         21   -1    0    0  501  503 -0.00000000000E+00 -0.00000000000E+00 -0.25409889088E+03  0.25409889088E+03  0.00000000000E+00 0.  1.
          2    1    1    2  501    0 -0.12163897661E+02 -0.18907926405E+02 -0.23591332250E+03  0.23698220570E+03  0.00000000000E+00 0.  1.
         -2    1    1    2    0  502  0.12163897661E+02  0.18907926405E+02 -0.10491950863E+02  0.24810302702E+02  0.00000000000E+00 0. -1.
<mgrwt>
<rscale>  2 0.22482662E+02</rscale>
<asrwt>0</asrwt>
<pdfrwt beam="1">  1       21 0.11836338E-02 0.22482662E+02</pdfrwt>
<pdfrwt beam="2">  1       21 0.39092127E-01 0.22482662E+02</pdfrwt>
<totfact> 0.14173003E+07</totfact>
</mgrwt>
</event>
<event>
 4    1  0.2754379E+004  0.2794840E+02  0.7546771E-02  0.1621940E+00
         21   -1    0    0  501  502  0.00000000000E+00  0.00000000000E+00  0.29956604545E+03  0.29956604545E+03  0.00000000000E+00 0.  1.
         21   -1    0    0  502  503 -0.00000000000E+00 -0.00000000000E+00 -0.30939790471E+01  0.30939790471E+01  0.00000000000E+00 0. -1.
          2    1    1    2  501    0 -0.22893773278E+02  0.16030850753E+02  0.20824367331E+03  0.21011078150E+03  0.00000000000E+00 0.  1.
         -2    1    1    2    0  503  0.22893773278E+02 -0.16030850753E+02  0.88228393091E+02  0.92549242991E+02  0.00000000000E+00 0. -1.
<mgrwt>
<rscale>  2 0.27948399E+02</rscale>
<asrwt>0</asrwt>
<pdfrwt beam="1">  1       21 0.46087061E-01 0.27948399E+02</pdfrwt>
<pdfrwt beam="2">  1       21 0.47599701E-03 0.27948399E+02</pdfrwt>
<totfact> 0.42235114E+07</totfact>
</mgrwt>
</event>
<event>
 4    1  0.2754379E+004  0.3625043E+02  0.7546771E-02  0.1537769E+00
         21   -1    0    0  503  502  0.00000000000E+00  0.00000000000E+00  0.13115962071E+04  0.13115962071E+04  0.00000000000E+00 0. -1.
         21   -1    0    0  501  503 -0.00000000000E+00 -0.00000000000E+00 -0.12669691939E+01  0.12669691939E+01  0.00000000000E+00 0.  1.
          2    1    1    2  501    0  0.31513839055E+02 -0.17915685971E+02  0.35491493085E+03  0.35676140766E+03  0.00000000000E+00 0. -1.
         -2    1    1    2    0  502 -0.31513839055E+02  0.17915685971E+02  0.95541430708E+03  0.95610176866E+03  0.00000000000E+00 0.  1.
<mgrwt>
<rscale>  2 0.36250432E+02</rscale>
<asrwt>0</asrwt>
<pdfrwt beam="1">  1       21 0.20178295E+00 0.36250432E+02</pdfrwt>
<pdfrwt beam="2">  1       21 0.19491939E-03 0.36250432E+02</pdfrwt>
<totfact> 0.60492697E+06</totfact>
</mgrwt>
</event>
<event>
 4    1  0.2754379E+004  0.2101353E+02  0.7546771E-02  0.1725893E+00
         21   -1    0    0  503  502  0.00000000000E+00  0.00000000000E+00  0.17904698579E+03  0.17904698579E+03  0.00000000000E+00 0.  1.
         21   -1    0    0  501  503 -0.00000000000E+00 -0.00000000000E+00 -0.29427439297E+01  0.29427439297E+01  0.00000000000E+00 0. -1.
          2    1    1    2  501    0  0.12018722744E+02 -0.17237133009E+02  0.51434927175E+02  0.55561859078E+02  0.00000000000E+00 0. -1.
         -2    1    1    2    0  502 -0.12018722744E+02  0.17237133009E+02  0.12466931469E+03  0.12642787064E+03  0.00000000000E+00 0.  1.
<mgrwt>
<rscale>  2 0.21013530E+02</rscale>
<asrwt>0</asrwt>
<pdfrwt beam="1">  1       21 0.27545682E-01 0.21013530E+02</pdfrwt>
<pdfrwt beam="2">  1       21 0.45272997E-03 0.21013530E+02</pdfrwt>
<totfact> 0.11059904E+08</totfact>
</mgrwt>
</event>
<event>
 4    1  0.2754379E+004  0.3504522E+02  0.7546771E-02  0.1548199E+00
         21   -1    0    0  501  502  0.00000000000E+00  0.00000000000E+00  0.28110218504E+02  0.28110218504E+02  0.00000000000E+00 0.  1.
         21   -1    0    0  502  503 -0.00000000000E+00 -0.00000000000E+00 -0.45440790182E+02  0.45440790182E+02  0.00000000000E+00 0. -1.
          2    1    1    2  501    0 -0.31133944063E+02 -0.16088652940E+02 -0.15881551058E+02  0.38475848143E+02  0.00000000000E+00 0. -1.
         -2    1    1    2    0  503  0.31133944063E+02  0.16088652940E+02 -0.14490206205E+01  0.35075160543E+02  0.00000000000E+00 0.  1.
<mgrwt>
<rscale>  2 0.35045217E+02</rscale>
<asrwt>0</asrwt>
<pdfrwt beam="1">  1       21 0.43246490E-02 0.35045217E+02</pdfrwt>
<pdfrwt beam="2">  1       21 0.69908907E-02 0.35045217E+02</pdfrwt>
<totfact> 0.41397709E+07</totfact>
</mgrwt>
</event>
<event>
 4    1  0.2754379E+004  0.2255443E+02  0.7546771E-02  0.1698836E+00
         21   -1    0    0  501  502  0.00000000000E+00  0.00000000000E+00  0.90705658264E+01  0.90705658264E+01  0.00000000000E+00 0.  1.
         21   -1    0    0  502  503 -0.00000000000E+00 -0.00000000000E+00 -0.46333472363E+03  0.46333472363E+03  0.00000000000E+00 0. -1.
          2    1    1    2  501    0  0.14459160956E+02 -0.17309972433E+02 -0.56855289995E+01  0.23260002605E+02  0.00000000000E+00 0.  1.
         -2    1    1    2    0  503 -0.14459160956E+02  0.17309972433E+02 -0.44857862880E+03  0.44914528685E+03  0.00000000000E+00 0. -1.
<mgrwt>
<rscale>  2 0.22554434E+02</rscale>
<asrwt>0</asrwt>
<pdfrwt beam="1">  1       21 0.13954717E-02 0.22554434E+02</pdfrwt>
<pdfrwt beam="2">  1       21 0.71282265E-01 0.22554434E+02</pdfrwt>
<totfact> 0.34051617E+06</totfact>
</mgrwt>
</event>
<event>
 4    1  0.2754379E+004  0.2176401E+02  0.7546771E-02  0.1712366E+00
         21   -1    0    0  501  502  0.00000000000E+00  0.00000000000E+00  0.27871656995E+02  0.27871656995E+02  0.00000000000E+00 0. -1.
         21   -1    0    0  502  503 -0.00000000000E+00 -0.00000000000E+00 -0.45563507795E+02  0.45563507795E+02  0.00000000000E+00 0.  1.
          2    1    1    2  501    0 -0.14041481265E+02 -0.16628554916E+02  0.20228499195E+02  0.29713031053E+02  0.00000000000E+00 0. -1.
         -2    1    1    2    0  503  0.14041481265E+02  0.16628554916E+02 -0.37920349995E+02  0.43722133736E+02  0.00000000000E+00 0.  1.
<mgrwt>
<rscale>  2 0.21764008E+02</rscale>
<asrwt>0</asrwt>
<pdfrwt beam="1">  1       21 0.42879473E-02 0.21764008E+02</pdfrwt>
<pdfrwt beam="2">  1       21 0.70097704E-02 0.21764008E+02</pdfrwt>
<totfact> 0.37525216E+07</totfact>
</mgrwt>
</event>
<event>
 4    1  0.2754379E+004  0.3730124E+02  0.7546771E-02  0.1529066E+00
         21   -1    0    0  503  502  0.00000000000E+00  0.00000000000E+00  0.80975895460E+01  0.80975895460E+01  0.00000000000E+00 0.  1.
         21   -1    0    0  501  503 -0.00000000000E+00 -0.00000000000E+00 -0.37831350386E+03  0.37831350386E+03  0.00000000000E+00 0. -1.
          2    1    1    2  501    0  0.23702998983E+02 -0.28801920230E+02 -0.32784599789E+03  0.32996118120E+03  0.00000000000E+00 0. -1.
         -2    1    1    2    0  502 -0.23702998983E+02  0.28801920230E+02 -0.42369916424E+02  0.56449912201E+02  0.00000000000E+00 0.  1.
<mgrwt>
<rscale>  2 0.37301244E+02</rscale>
<asrwt>0</asrwt>
<pdfrwt beam="1">  1       21 0.12457830E-02 0.37301244E+02</pdfrwt>
<pdfrwt beam="2">  1       21 0.58202078E-01 0.37301244E+02</pdfrwt>
<totfact> 0.65248407E+06</totfact>
</mgrwt>
</event>
<event>
 4    1  0.2754379E+004  0.2083154E+02  0.7546771E-02  0.1729280E+00
         21   -1    0    0  503  502  0.00000000000E+00  0.00000000000E+00  0.95496750599E+01  0.95496750599E+01  0.00000000000E+00 0.  1.
         21   -1    0    0  501  503 -0.00000000000E+00 -0.00000000000E+00 -0.69868402303E+02  0.69868402303E+02  0.00000000000E+00 0. -1.
          2    1    1    2  501    0  0.16386470435E+02 -0.12862210194E+02 -0.53638490891E+02  0.57541642047E+02  0.00000000000E+00 0. -1.
         -2    1    1    2    0  502 -0.16386470435E+02  0.12862210194E+02 -0.66802363520E+01  0.21876435316E+02  0.00000000000E+00 0.  1.
<mgrwt>
<rscale>  2 0.20831535E+02</rscale>
<asrwt>0</asrwt>
<pdfrwt beam="1">  1       21 0.14691808E-02 0.20831535E+02</pdfrwt>
<pdfrwt beam="2">  1       21 0.10748985E-01 0.20831535E+02</pdfrwt>
<totfact> 0.96278321E+07</totfact>
</mgrwt>
</event>
<event>
 4    1  0.2754379E+004  0.5418851E+02  0.7546771E-02  0.1423976E+00
         21   -1    0    0  503  502  0.00000000000E+00  0.00000000000E+00  0.17907736042E+03  0.17907736042E+03  0.00000000000E+00 0. -1.
         21   -1    0    0  501  503 -0.00000000000E+00 -0.00000000000E+00 -0.16484738796E+02  0.16484738796E+02  0.00000000000E+00 0.  1.
          2    1    1    2  501    0 -0.43789155957E+02  0.31920274665E+02  0.74176931773E+02  0.91861914423E+02  0.00000000000E+00 0.  1.
         -2    1    1    2    0  502  0.43789155957E+02 -0.31920274665E+02  0.88415689851E+02  0.10370018479E+03  0.00000000000E+00 0. -1.
<mgrwt>
<rscale>  2 0.54188505E+02</rscale>
<asrwt>0</asrwt>
<pdfrwt beam="1">  1       21 0.27550362E-01 0.54188505E+02</pdfrwt>
<pdfrwt beam="2">  1       21 0.25361138E-02 0.54188505E+02</pdfrwt>
<totfact> 0.95447497E+06</totfact>
</mgrwt>
</event>
<event>
 4    1  0.2754379E+004  0.2785712E+02  0.7546771E-02  0.1623060E+00
         21   -1    0    0  501  502  0.00000000000E+00  0.00000000000E+00  0.17720549491E+03  0.17720549491E+03  0.00000000000E+00 0.  1.
         21   -1    0    0  502  503 -0.00000000000E+00 -0.00000000000E+00 -0.56323845607E+01  0.56323845607E+01  0.00000000000E+00 0. -1.
          2    1    1    2  501    0  0.58454677723E+01  0.27236915949E+02  0.12890834564E+03  0.13188396665E+03  0.00000000000E+00 0.  1.
         -2    1    1    2    0  503 -0.58454677723E+01 -0.27236915949E+02  0.42664764704E+02  0.50953912815E+02  0.00000000000E+00 0. -1.
<mgrwt>
<rscale>  2 0.27857119E+02</rscale>
<asrwt>0</asrwt>
<pdfrwt beam="1">  1       21 0.27262380E-01 0.27857119E+02</pdfrwt>
<pdfrwt beam="2">  1       21 0.86652084E-03 0.27857119E+02</pdfrwt>
<totfact> 0.46086847E+07</totfact>
</mgrwt>
</event>
<event>
 4    1  0.2754379E+004  0.2116760E+02  0.7546771E-02  0.1723059E+00
         21   -1    0    0  501  502  0.00000000000E+00  0.00000000000E+00  0.94571945489E+01  0.94571945489E+01  0.00000000000E+00 0. -1.
         21   -1    0    0  502  503 -0.00000000000E+00 -0.00000000000E+00 -0.85967381028E+02  0.85967381028E+02  0.00000000000E+00 0.  1.
          2    1    1    2  501    0  0.20883156322E+02  0.34584870488E+01 -0.62886226202E+01  0.22081986439E+02  0.00000000000E+00 0. -1.
         -2    1    1    2    0  503 -0.20883156322E+02 -0.34584870488E+01 -0.70221563859E+02  0.73342589138E+02  0.00000000000E+00 0.  1.
<mgrwt>
<rscale>  2 0.21167601E+02</rscale>
<asrwt>0</asrwt>
<pdfrwt beam="1">  1       21 0.14549530E-02 0.21167601E+02</pdfrwt>
<pdfrwt beam="2">  1       21 0.13225751E-01 0.21167601E+02</pdfrwt>
<totfact> 0.69460154E+07</totfact>
</mgrwt>
</event>
<event>
 4    1  0.2754379E+004  0.2313019E+02  0.7546771E-02  0.1689408E+00
         21   -1    0    0  503  502  0.00000000000E+00  0.00000000000E+00  0.13791723864E+03  0.13791723864E+03  0.00000000000E+00 0. -1.
         21   -1    0    0  501  503 -0.00000000000E+00 -0.00000000000E+00 -0.91281178775E+01  0.91281178775E+01  0.00000000000E+00 0.  1.
          2    1    1    2  501    0  0.19335344356E+02  0.12694487145E+02  0.86417851845E+01  0.24691820436E+02  0.00000000000E+00 0.  1.
         -2    1    1    2    0  502 -0.19335344356E+02 -0.12694487145E+02  0.12014733557E+03  0.12235353608E+03  0.00000000000E+00 0. -1.
<mgrwt>
<rscale>  2 0.23130187E+02</rscale>
<asrwt>0</asrwt>
<pdfrwt beam="1">  1       21 0.21218035E-01 0.23130187E+02</pdfrwt>
<pdfrwt beam="2">  1       21 0.14043259E-02 0.23130187E+02</pdfrwt>
<totfact> 0.33314321E+07</totfact>
</mgrwt>
</event>
<event>
 4    1  0.2754379E+004  0.2662079E+02  0.7546771E-02  0.1638757E+00
         21   -1    0    0  501  502  0.00000000000E+00  0.00000000000E+00  0.13754647620E+02  0.13754647620E+02  0.00000000000E+00 0. -1.
         21   -1    0    0  502  503 -0.00000000000E+00 -0.00000000000E+00 -0.47236470689E+03  0.47236470689E+03  0.00000000000E+00 0.  1.
          2    1    1    2  501    0  0.13164357040E+02 -0.23137977755E+02  0.11647461298E+00  0.26621042001E+02  0.00000000000E+00 0. -1.
         -2    1    1    2    0  503 -0.13164357040E+02  0.23137977755E+02 -0.45872653388E+03  0.45949831251E+03  0.00000000000E+00 0.  1.
<mgrwt>
<rscale>  2 0.26620787E+02</rscale>
<asrwt>0</asrwt>
<pdfrwt beam="1">  1       21 0.21160995E-02 0.26620787E+02</pdfrwt>
<pdfrwt beam="2">  1       21 0.72671498E-01 0.26620787E+02</pdfrwt>
<totfact> 0.17639934E+06</totfact>
</mgrwt>
</event>
<event>
 4    1  0.2754379E+004  0.2428652E+02  0.7546771E-02  0.1671467E+00
         21   -1    0    0  501  502  0.00000000000E+00  0.00000000000E+00  0.30678318843E+03  0.30678318843E+03  0.00000000000E+00 0.  1.
         21   -1    0    0  502  503 -0.00000000000E+00 -0.00000000000E+00 -0.30566405514E+01  0.30566405514E+01  0.00000000000E+00 0. -1.
          2    1    1    2  501    0 -0.23898873263E+02  0.43218919610E+01  0.24622392034E+03  0.24741878232E+03  0.00000000000E+00 0.  1.
         -2    1    1    2    0  503  0.23898873263E+02 -0.43218919610E+01  0.57502627532E+02  0.62421046662E+02  0.00000000000E+00 0. -1.
<mgrwt>
<rscale>  2 0.24286517E+02</rscale>
<asrwt>0</asrwt>
<pdfrwt beam="1">  1       21 0.47197389E-01 0.24286517E+02</pdfrwt>
<pdfrwt beam="2">  1       21 0.47025263E-03 0.24286517E+02</pdfrwt>
<totfact> 0.39860018E+07</totfact>
</mgrwt>
</event>
<event>
 4    1  0.2754379E+004  0.2114357E+02  0.7546771E-02  0.1723499E+00
         21   -1    0    0  501  502  0.00000000000E+00  0.00000000000E+00  0.86712365773E+01  0.86712365773E+01  0.00000000000E+00 0. -1.
         21   -1    0    0  502  503 -0.00000000000E+00 -0.00000000000E+00 -0.60557480791E+02  0.60557480791E+02  0.00000000000E+00 0.  1.
          2    1    1    2  501    0  0.14952106565E+01  0.21090636625E+02 -0.12597477222E+02  0.24611928825E+02  0.00000000000E+00 0. -1.
         -2    1    1    2    0  503 -0.14952106565E+01 -0.21090636625E+02 -0.39288766991E+02  0.44616788542E+02  0.00000000000E+00 0.  1.
<mgrwt>
<rscale>  2 0.21143571E+02</rscale>
<asrwt>0</asrwt>
<pdfrwt beam="1">  1       21 0.13340364E-02 0.21143571E+02</pdfrwt>
<pdfrwt beam="2">  1       21 0.93165355E-02 0.21143571E+02</pdfrwt>
<totfact> 0.14162841E+08</totfact>
</mgrwt>
</event>
<event>
 4    1  0.2754379E+004  0.2930002E+02  0.7546771E-02  0.1605957E+00
         21   -1    0    0  503  502  0.00000000000E+00  0.00000000000E+00  0.10497759788E+02  0.10497759788E+02  0.00000000000E+00 0.  1.
         21   -1    0    0  501  503 -0.00000000000E+00 -0.00000000000E+00 -0.12695066382E+03  0.12695066382E+03  0.00000000000E+00 0. -1.
          2    1    1    2  501    0  0.26560761547E+02 -0.12369997177E+02 -0.99221160475E+02  0.10345689716E+03  0.00000000000E+00 0. -1.
         -2    1    1    2    0  502 -0.26560761547E+02  0.12369997177E+02 -0.17231743556E+02  0.33991526445E+02  0.00000000000E+00 0.  1.
<mgrwt>
<rscale>  2 0.29300015E+02</rscale>
<asrwt>0</asrwt>
<pdfrwt beam="1">  1       21 0.16150399E-02 0.29300015E+02</pdfrwt>
<pdfrwt beam="2">  1       21 0.19530872E-01 0.29300015E+02</pdfrwt>
<totfact> 0.32783855E+07</totfact>
</mgrwt>
</event>
<event>
 4    1  0.2754379E+004  0.2536848E+02  0.7546771E-02  0.1655765E+00
         21   -1    0    0  503  502  0.00000000000E+00  0.00000000000E+00  0.33912116720E+02  0.33912116720E+02  0.00000000000E+00 0.  1.
         21   -1    0    0  501  503 -0.00000000000E+00 -0.00000000000E+00 -0.19531045706E+02  0.19531045706E+02  0.00000000000E+00 0. -1.
          2    1    1    2  501    0 -0.78517610545E+01 -0.24122800113E+02  0.26910427133E+01  0.25510808451E+02  0.00000000000E+00 0. -1.
         -2    1    1    2    0  502  0.78517610545E+01  0.24122800113E+02  0.11690028301E+02  0.27932353975E+02  0.00000000000E+00 0.  1.
<mgrwt>
<rscale>  2 0.25368477E+02</rscale>
<asrwt>0</asrwt>
<pdfrwt beam="1">  1       21 0.52172487E-02 0.25368477E+02</pdfrwt>
<pdfrwt beam="2">  1       21 0.30047763E-02 0.25368477E+02</pdfrwt>
<totfact> 0.10983626E+08</totfact>
</mgrwt>
</event>
<event>
 4    1  0.2754379E+004  0.2096544E+02  0.7546771E-02  0.1726784E+00
         21   -1    0    0  503  502  0.00000000000E+00  0.00000000000E+00  0.60405472503E+03  0.60405472503E+03  0.00000000000E+00 0. -1.
         21   -1    0    0  501  503 -0.00000000000E+00 -0.00000000000E+00 -0.81357791975E+00  0.81357791975E+00  0.00000000000E+00 0.  1.
          2    1    1    2  501    0  0.72874016212E+01 -0.19658165742E+02  0.39989931084E+03  0.40044850919E+03  0.00000000000E+00 0. -1.
         -2    1    1    2    0  502 -0.72874016212E+01  0.19658165742E+02  0.20334183627E+03  0.20441979376E+03  0.00000000000E+00 0.  1.
<mgrwt>
<rscale>  2 0.20965441E+02</rscale>
<asrwt>0</asrwt>
<pdfrwt beam="1">  1       21 0.92931138E-01 0.20965441E+02</pdfrwt>
<pdfrwt beam="2">  1       21 0.12516632E-03 0.20965441E+02</pdfrwt>
<totfact> 0.66195496E+07</totfact>
</mgrwt>
</event>
<event>
 4    1  0.2754379E+004  0.9582419E+02  0.7546771E-02  0.1289331E+00
         21   -1    0    0  501  502  0.00000000000E+00  0.00000000000E+00  0.31657805136E+02  0.31657805136E+02  0.00000000000E+00 0.  1.
         21   -1    0    0  502  503 -0.00000000000E+00 -0.00000000000E+00 -0.50003803720E+03  0.50003803720E+03  0.00000000000E+00 0. -1.
          2    1    1    2  501    0 -0.37827343745E+02  0.88041849168E+02 -0.61911508901E+02  0.11408466187E+03  0.00000000000E+00 0.  1.
         -2    1    1    2    0  503  0.37827343745E+02 -0.88041849168E+02 -0.40646872316E+03  0.41761118046E+03  0.00000000000E+00 0. -1.
<mgrwt>
<rscale>  2 0.95824189E+02</rscale>
<asrwt>0</asrwt>
<pdfrwt beam="1">  1       21 0.48704315E-02 0.95824189E+02</pdfrwt>
<pdfrwt beam="2">  1       21 0.76928930E-01 0.95824189E+02</pdfrwt>
<totfact> 0.42934096E+05</totfact>
</mgrwt>
</event>
<event>
 4    1  0.2754379E+004  0.2255831E+02  0.7546771E-02  0.1698771E+00
         21   -1    0    0  501  502  0.00000000000E+00  0.00000000000E+00  0.24712723029E+01  0.24712723029E+01  0.00000000000E+00 0. -1.
         21   -1    0    0  502  503 -0.00000000000E+00 -0.00000000000E+00 -0.30659051992E+03  0.30659051992E+03  0.00000000000E+00 0.  1.
          2    1    1    2  501    0  0.29495077317E+01 -0.22364654900E+02 -0.63508671811E+02  0.67396059083E+02  0.00000000000E+00 0. -1.
         -2    1    1    2    0  503 -0.29495077317E+01  0.22364654900E+02 -0.24061057581E+03  0.24166573314E+03  0.00000000000E+00 0.  1.
<mgrwt>
<rscale>  2 0.22558311E+02</rscale>
<asrwt>0</asrwt>
<pdfrwt beam="1">  1       21 0.38019590E-03 0.22558311E+02</pdfrwt>
<pdfrwt beam="2">  1       21 0.47167752E-01 0.22558311E+02</pdfrwt>
<totfact> 0.53613739E+07</totfact>
</mgrwt>
</event>
<event>
 4    1  0.2754379E+004  0.2981815E+02  0.7546771E-02  0.1600108E+00
         21   -1    0    0  501  502  0.00000000000E+00  0.00000000000E+00  0.15114001318E+02  0.15114001318E+02  0.00000000000E+00 0. -1.
         21   -1    0    0  502  503 -0.00000000000E+00 -0.00000000000E+00 -0.89417130622E+02  0.89417130622E+02  0.00000000000E+00 0.  1.
          2    1    1    2  501    0 -0.20000117132E+02 -0.22115996609E+02 -0.65818796746E+01  0.30535931807E+02  0.00000000000E+00 0. -1.
         -2    1    1    2    0  503  0.20000117132E+02  0.22115996609E+02 -0.67721249630E+02  0.73995200133E+02  0.00000000000E+00 0.  1.
<mgrwt>
<rscale>  2 0.29818149E+02</rscale>
<asrwt>0</asrwt>
<pdfrwt beam="1">  1       21 0.23252310E-02 0.29818149E+02</pdfrwt>
<pdfrwt beam="2">  1       21 0.13756482E-01 0.29818149E+02</pdfrwt>
<totfact> 0.34370676E+07</totfact>
</mgrwt>
</event>
<event>
 4    1  0.2754379E+004  0.2134317E+02  0.7546771E-02  0.1719866E+00
         21   -1    0    0  501  502  0.00000000000E+00  0.00000000000E+00  0.73517851198E+02  0.73517851198E+02  0.00000000000E+00 0.  1.
         21   -1    0    0  502  503 -0.00000000000E+00 -0.00000000000E+00 -0.12708778353E+02  0.12708778353E+02  0.00000000000E+00 0. -1.
          2    1    1    2  501    0  0.17124267475E+02  0.12739317564E+02  0.61267402004E+02  0.64878542654E+02  0.00000000000E+00 0.  1.
         -2    1    1    2    0  503 -0.17124267475E+02 -0.12739317564E+02 -0.45832915937E+00  0.21348086897E+02  0.00000000000E+00 0. -1.
<mgrwt>
<rscale>  2 0.21343166E+02</rscale>
<asrwt>0</asrwt>
<pdfrwt beam="1">  1       21 0.11310438E-01 0.21343166E+02</pdfrwt>
<pdfrwt beam="2">  1       21 0.19551967E-02 0.21343166E+02</pdfrwt>
<totfact> 0.57676410E+07</totfact>
</mgrwt>
</event>
<event>
 4    1  0.2754379E+004  0.2675211E+02  0.7546771E-02  0.1637040E+00
         21   -1    0    0  501  502  0.00000000000E+00  0.00000000000E+00  0.12227484522E+04  0.12227484522E+04  0.00000000000E+00 0. -1.
         21   -1    0    0  502  503 -0.00000000000E+00 -0.00000000000E+00 -0.48970096175E+01  0.48970096175E+01  0.00000000000E+00 0.  1.
          2    1    1    2  501    0  0.15489789025E+02 -0.21811504383E+02  0.11848988406E+04  0.11852008006E+04  0.00000000000E+00 0. -1.
         -2    1    1    2    0  503 -0.15489789025E+02  0.21811504383E+02  0.32952601931E+02  0.42444661166E+02  0.00000000000E+00 0.  1.
<mgrwt>
<rscale>  2 0.26752108E+02</rscale>
<asrwt>0</asrwt>
<pdfrwt beam="1">  1       21 0.18811490E+00 0.26752108E+02</pdfrwt>
<pdfrwt beam="2">  1       21 0.75338707E-03 0.26752108E+02</pdfrwt>
<totfact> 0.96830073E+05</totfact>
</mgrwt>
</event>
<event>
 4    1  0.2754379E+004  0.6686199E+02  0.7546771E-02  0.1371101E+00
         21   -1    0    0  501  502  0.00000000000E+00  0.00000000000E+00  0.11795884591E+03  0.11795884591E+03  0.00000000000E+00 0.  1.
         21   -1    0    0  502  503 -0.00000000000E+00 -0.00000000000E+00 -0.44222939393E+02  0.44222939393E+02  0.00000000000E+00 0. -1.
          2    1    1    2  501    0  0.66249087547E+02 -0.90324110716E+01  0.67532816803E+02  0.95032664889E+02  0.00000000000E+00 0.  1.
         -2    1    1    2    0  503 -0.66249087547E+02  0.90324110716E+01  0.62030897157E+01  0.67149120416E+02  0.00000000000E+00 0. -1.
<mgrwt>
<rscale>  2 0.66861993E+02</rscale>
<asrwt>0</asrwt>
<pdfrwt beam="1">  1       21 0.18147515E-01 0.66861993E+02</pdfrwt>
<pdfrwt beam="2">  1       21 0.68035292E-02 0.66861993E+02</pdfrwt>
<totfact> 0.41693849E+06</totfact>
</mgrwt>
</event>
<event>
 4    1  0.2754379E+004  0.2510953E+02  0.7546771E-02  0.1659434E+00
         21   -1    0    0  501  502  0.00000000000E+00  0.00000000000E+00  0.62601981070E+01  0.62601981070E+01  0.00000000000E+00 0. -1.
         21   -1    0    0  502  503 -0.00000000000E+00 -0.00000000000E+00 -0.14800229322E+03  0.14800229322E+03  0.00000000000E+00 0.  1.
          2    1    1    2  501    0  0.23894453272E+02 -0.77164564945E+01 -0.27272334319E+02  0.37071131858E+02  0.00000000000E+00 0. -1.
         -2    1    1    2    0  503 -0.23894453272E+02  0.77164564945E+01 -0.11446976080E+03  0.11719135947E+03  0.00000000000E+00 0.  1.
<mgrwt>
<rscale>  2 0.25109532E+02</rscale>
<asrwt>0</asrwt>
<pdfrwt beam="1">  1       21 0.96310741E-03 0.25109532E+02</pdfrwt>
<pdfrwt beam="2">  1       21 0.22769583E-01 0.25109532E+02</pdfrwt>
<totfact> 0.53027993E+07</totfact>
</mgrwt>
</event>
<event>
 4    1  0.2754379E+004  0.2205681E+02  0.7546771E-02  0.1707271E+00
         21   -1    0    0  503  502  0.00000000000E+00  0.00000000000E+00  0.14831091197E+03  0.14831091197E+03  0.00000000000E+00 0.  1.
         21   -1    0    0  501  503 -0.00000000000E+00 -0.00000000000E+00 -0.59326773013E+02  0.59326773013E+02  0.00000000000E+00 0. -1.
          2    1    1    2  501    0  0.14003343410E+01  0.22012311047E+02 -0.56415792089E+02  0.60574288035E+02  0.00000000000E+00 0. -1.
         -2    1    1    2    0  502 -0.14003343410E+01 -0.22012311047E+02  0.14539993105E+03  0.14706339695E+03  0.00000000000E+00 0.  1.
<mgrwt>
<rscale>  2 0.22056808E+02</rscale>
<asrwt>0</asrwt>
<pdfrwt beam="1">  1       21 0.22817063E-01 0.22056808E+02</pdfrwt>
<pdfrwt beam="2">  1       21 0.91271959E-02 0.22056808E+02</pdfrwt>
<totfact> 0.15351932E+06</totfact>
</mgrwt>
</event>
<event>
 4    1  0.2754379E+004  0.2217118E+02  0.7546771E-02  0.1705308E+00
         21   -1    0    0  503  502  0.00000000000E+00  0.00000000000E+00  0.35065529529E+02  0.35065529529E+02  0.00000000000E+00 0.  1.
         21   -1    0    0  501  503 -0.00000000000E+00 -0.00000000000E+00 -0.19402694770E+02  0.19402694770E+02  0.00000000000E+00 0. -1.
          2    1    1    2  501    0 -0.21189266321E+02 -0.65250489814E+01 -0.65151551952E+01  0.23108624335E+02  0.00000000000E+00 0. -1.
         -2    1    1    2    0  502  0.21189266321E+02  0.65250489814E+01  0.22177989954E+02  0.31359599963E+02  0.00000000000E+00 0.  1.
<mgrwt>
<rscale>  2 0.22171181E+02</rscale>
<asrwt>0</asrwt>
<pdfrwt beam="1">  1       21 0.53946969E-02 0.22171181E+02</pdfrwt>
<pdfrwt beam="2">  1       21 0.29850300E-02 0.22171181E+02</pdfrwt>
<totfact> 0.10124853E+08</totfact>
</mgrwt>
</event>
<event>
 4    1  0.2754379E+004  0.3252617E+02  0.7546771E-02  0.1571734E+00
         21   -1    0    0  501  502  0.00000000000E+00  0.00000000000E+00  0.68099781014E+02  0.68099781014E+02  0.00000000000E+00 0. -1.
         21   -1    0    0  502  503 -0.00000000000E+00 -0.00000000000E+00 -0.15654640459E+02  0.15654640459E+02  0.00000000000E+00 0.  1.
          2    1    1    2  501    0 -0.15399586813E+01 -0.32489696119E+02  0.29878647396E+02  0.44166564241E+02  0.00000000000E+00 0. -1.
         -2    1    1    2    0  503  0.15399586813E+01  0.32489696119E+02  0.22566493159E+02  0.39587857231E+02  0.00000000000E+00 0.  1.
<mgrwt>
<rscale>  2 0.32526171E+02</rscale>
<asrwt>0</asrwt>
<pdfrwt beam="1">  1       21 0.10476889E-01 0.32526171E+02</pdfrwt>
<pdfrwt beam="2">  1       21 0.24084063E-02 0.32526171E+02</pdfrwt>
<totfact> 0.52563132E+07</totfact>
</mgrwt>
</event>
<event>
 4    1  0.2754379E+004  0.3067671E+02  0.7546771E-02  0.1590727E+00
         21   -1    0    0  503  502  0.00000000000E+00  0.00000000000E+00  0.26849872078E+02  0.26849872078E+02  0.00000000000E+00 0. -1.
         21   -1    0    0  501  503 -0.00000000000E+00 -0.00000000000E+00 -0.61427539023E+02  0.61427539023E+02  0.00000000000E+00 0.  1.
          2    1    1    2  501    0  0.30664074176E+02  0.88031032326E+00 -0.46213185674E+02  0.55468179360E+02  0.00000000000E+00 0.  1.
         -2    1    1    2    0  502 -0.30664074176E+02 -0.88031032326E+00  0.11635518730E+02  0.32809231741E+02  0.00000000000E+00 0. -1.
<mgrwt>
<rscale>  2 0.30676708E+02</rscale>
<asrwt>0</asrwt>
<pdfrwt beam="1">  1       21 0.41307496E-02 0.30676708E+02</pdfrwt>
<pdfrwt beam="2">  1       21 0.94503905E-02 0.30676708E+02</pdfrwt>
<totfact> 0.26338924E+07</totfact>
</mgrwt>
</event>
<event>
 4    1  0.2754379E+004  0.2277688E+02  0.7546771E-02  0.1695153E+00
         21   -1    0    0  501  502  0.00000000000E+00  0.00000000000E+00  0.67553744887E+01  0.67553744887E+01  0.00000000000E+00 0.  1.
         21   -1    0    0  502  503 -0.00000000000E+00 -0.00000000000E+00 -0.10056682921E+03  0.10056682921E+03  0.00000000000E+00 0. -1.
          2    1    1    2  501    0  0.85493681320E+01 -0.21111479634E+02 -0.20816954094E+02  0.30856633736E+02  0.00000000000E+00 0.  1.
         -2    1    1    2    0  503 -0.85493681320E+01  0.21111479634E+02 -0.72994500628E+02  0.76465569963E+02  0.00000000000E+00 0. -1.
<mgrwt>
<rscale>  2 0.22776880E+02</rscale>
<asrwt>0</asrwt>
<pdfrwt beam="1">  1       21 0.10392884E-02 0.22776880E+02</pdfrwt>
<pdfrwt beam="2">  1       21 0.15471819E-01 0.22776880E+02</pdfrwt>
<totfact> 0.90274319E+07</totfact>
</mgrwt>
</event>
<event>
 4    1  0.2754379E+004  0.4617698E+02  0.7546771E-02  0.1467125E+00
         21   -1    0    0  501  502  0.00000000000E+00  0.00000000000E+00  0.24457835024E+02  0.24457835024E+02  0.00000000000E+00 0.  1.
         21   -1    0    0  502  503 -0.00000000000E+00 -0.00000000000E+00 -0.57720880880E+03  0.57720880880E+03  0.00000000000E+00 0. -1.
          2    1    1    2  501    0 -0.41721854700E+01  0.45988107019E+02  0.80894747053E+00  0.46184061263E+02  0.00000000000E+00 0.  1.
         -2    1    1    2    0  503  0.41721854700E+01 -0.45988107019E+02 -0.55355992125E+03  0.55548258257E+03  0.00000000000E+00 0. -1.
<mgrwt>
<rscale>  2 0.46176976E+02</rscale>
<asrwt>0</asrwt>
<pdfrwt beam="1">  1       21 0.37627439E-02 0.46176976E+02</pdfrwt>
<pdfrwt beam="2">  1       21 0.88801354E-01 0.46176976E+02</pdfrwt>
<totfact> 0.47755488E+05</totfact>
</mgrwt>
</event>
<event>
 4    1  0.2754379E+004  0.3939682E+02  0.7546771E-02  0.1512698E+00
         21   -1    0    0  503  502  0.00000000000E+00  0.00000000000E+00  0.27564198987E+03  0.27564198987E+03  0.00000000000E+00 0. -1.
         21   -1    0    0  501  503 -0.00000000000E+00 -0.00000000000E+00 -0.59687911926E+01  0.59687911926E+01  0.00000000000E+00 0.  1.
          2    1    1    2  501    0  0.33320209413E+02 -0.21020769922E+02  0.10133447457E+03  0.10872343289E+03  0.00000000000E+00 0. -1.
         -2    1    1    2    0  502 -0.33320209413E+02  0.21020769922E+02  0.16833872411E+03  0.17288734817E+03  0.00000000000E+00 0.  1.
<mgrwt>
<rscale>  2 0.39396816E+02</rscale>
<asrwt>0</asrwt>
<pdfrwt beam="1">  1       21 0.42406450E-01 0.39396816E+02</pdfrwt>
<pdfrwt beam="2">  1       21 0.91827578E-03 0.39396816E+02</pdfrwt>
<totfact> 0.19638290E+07</totfact>
</mgrwt>
</event>
<event>
 4    1  0.2754379E+004  0.3003541E+02  0.7546771E-02  0.1597698E+00
         21   -1    0    0  503  502  0.00000000000E+00  0.00000000000E+00  0.13367028806E+02  0.13367028806E+02  0.00000000000E+00 0. -1.
         21   -1    0    0  501  503 -0.00000000000E+00 -0.00000000000E+00 -0.71555744948E+02  0.71555744948E+02  0.00000000000E+00 0.  1.
          2    1    1    2  501    0 -0.11315661215E+02  0.27822320077E+02 -0.39217195808E+02  0.49397511377E+02  0.00000000000E+00 0.  1.
         -2    1    1    2    0  502  0.11315661215E+02 -0.27822320077E+02 -0.18971520333E+02  0.35525262377E+02  0.00000000000E+00 0. -1.
<mgrwt>
<rscale>  2 0.30035407E+02</rscale>
<asrwt>0</asrwt>
<pdfrwt beam="1">  1       21 0.20564660E-02 0.30035407E+02</pdfrwt>
<pdfrwt beam="2">  1       21 0.11008576E-01 0.30035407E+02</pdfrwt>
<totfact> 0.60789331E+07</totfact>
</mgrwt>
</event>
<event>
 4    1  0.2754379E+004  0.2176051E+02  0.7546771E-02  0.1712427E+00
         21   -1    0    0  503  502  0.00000000000E+00  0.00000000000E+00  0.40093930774E+01  0.40093930774E+01  0.00000000000E+00 0.  1.
         21   -1    0    0  501  503 -0.00000000000E+00 -0.00000000000E+00 -0.15203560966E+03  0.15203560966E+03  0.00000000000E+00 0. -1.
          2    1    1    2  501    0 -0.74467923298E+01  0.20446641811E+02 -0.11087335109E+03  0.11298858287E+03  0.00000000000E+00 0. -1.
         -2    1    1    2    0  502  0.74467923298E+01 -0.20446641811E+02 -0.37152865492E+02  0.43056419866E+02  0.00000000000E+00 0.  1.
<mgrwt>
<rscale>  2 0.21760512E+02</rscale>
<asrwt>0</asrwt>
<pdfrwt beam="1">  1       21 0.61682960E-03 0.21760512E+02</pdfrwt>
<pdfrwt beam="2">  1       21 0.23390098E-01 0.21760512E+02</pdfrwt>
<totfact> 0.94736366E+07</totfact>
</mgrwt>
</event>
<event>
 4    1  0.2754379E+004  0.4290371E+02  0.7546771E-02  0.1487869E+00
         21   -1    0    0  503  502  0.00000000000E+00  0.00000000000E+00  0.35194690584E+03  0.35194690584E+03  0.00000000000E+00 0. -1.
         21   -1    0    0  501  503 -0.00000000000E+00 -0.00000000000E+00 -0.83132774419E+01  0.83132774419E+01  0.00000000000E+00 0.  1.
          2    1    1    2  501    0  0.64406751627E+01  0.42417518988E+02  0.62119182625E+02  0.75495172453E+02  0.00000000000E+00 0.  1.
         -2    1    1    2    0  502 -0.64406751627E+01 -0.42417518988E+02  0.28151444578E+03  0.28476501083E+03  0.00000000000E+00 0. -1.
<mgrwt>
<rscale>  2 0.42903709E+02</rscale>
<asrwt>0</asrwt>
<pdfrwt beam="1">  1       21 0.54145666E-01 0.42903709E+02</pdfrwt>
<pdfrwt beam="2">  1       21 0.12789660E-02 0.42903709E+02</pdfrwt>
<totfact> 0.73680764E+06</totfact>
</mgrwt>
</event>
<event>
 4    1  0.2754379E+004  0.2724289E+02  0.7546771E-02  0.1630730E+00
         21   -1    0    0  503  502  0.00000000000E+00  0.00000000000E+00  0.21191719410E+03  0.21191719410E+03  0.00000000000E+00 0.  1.
         21   -1    0    0  501  503 -0.00000000000E+00 -0.00000000000E+00 -0.57161276962E+01  0.57161276962E+01  0.00000000000E+00 0. -1.
          2    1    1    2  501    0  0.26609750936E+02  0.58391927082E+01  0.35378998760E+02  0.44652531503E+02  0.00000000000E+00 0. -1.
         -2    1    1    2    0  502 -0.26609750936E+02 -0.58391927082E+01  0.17082206765E+03  0.17298079030E+03  0.00000000000E+00 0.  1.
<mgrwt>
<rscale>  2 0.27242889E+02</rscale>
<asrwt>0</asrwt>
<pdfrwt beam="1">  1       21 0.32602639E-01 0.27242889E+02</pdfrwt>
<pdfrwt beam="2">  1       21 0.87940442E-03 0.27242889E+02</pdfrwt>
<totfact> 0.32326040E+07</totfact>
</mgrwt>
</event>
<event>
 4    1  0.2754379E+004  0.2401019E+02  0.7546771E-02  0.1675640E+00
         21   -1    0    0  501  502  0.00000000000E+00  0.00000000000E+00  0.31339837065E+03  0.31339837065E+03  0.00000000000E+00 0.  1.
         21   -1    0    0  502  503 -0.00000000000E+00 -0.00000000000E+00 -0.55479699188E+01  0.55479699188E+01  0.00000000000E+00 0. -1.
          2    1    1    2  501    0  0.21247360167E+02  0.11182085196E+02  0.28430768704E+03  0.28531973338E+03  0.00000000000E+00 0.  1.
         -2    1    1    2    0  503 -0.21247360167E+02 -0.11182085196E+02  0.23542713692E+02  0.33626607194E+02  0.00000000000E+00 0. -1.
<mgrwt>
<rscale>  2 0.24010192E+02</rscale>
<asrwt>0</asrwt>
<pdfrwt beam="1">  1       21 0.48215120E-01 0.24010192E+02</pdfrwt>
<pdfrwt beam="2">  1       21 0.85353408E-03 0.24010192E+02</pdfrwt>
<totfact> 0.15732410E+07</totfact>
</mgrwt>
</event>
<event>
 4    1  0.2754379E+004  0.5624980E+02  0.7546771E-02  0.1414279E+00
         21   -1    0    0  503  502  0.00000000000E+00  0.00000000000E+00  0.13779359977E+03  0.13779359977E+03  0.00000000000E+00 0. -1.
         21   -1    0    0  501  503 -0.00000000000E+00 -0.00000000000E+00 -0.75925997508E+02  0.75925997508E+02  0.00000000000E+00 0.  1.
          2    1    1    2  501    0  0.51888688744E+02 -0.21716432526E+02 -0.58316316557E+02  0.81023652336E+02  0.00000000000E+00 0.  1.
         -2    1    1    2    0  502 -0.51888688744E+02  0.21716432526E+02  0.12018391882E+03  0.13269594494E+03  0.00000000000E+00 0. -1.
<mgrwt>
<rscale>  2 0.56249795E+02</rscale>
<asrwt>0</asrwt>
<pdfrwt beam="1">  1       21 0.21199015E-01 0.56249795E+02</pdfrwt>
<pdfrwt beam="2">  1       21 0.11680923E-01 0.56249795E+02</pdfrwt>
<totfact> 0.12426924E+06</totfact>
</mgrwt>
</event>
<event>
 4    1  0.2754379E+004  0.2087135E+02  0.7546771E-02  0.1728536E+00
         21   -1    0    0  501  502  0.00000000000E+00  0.00000000000E+00  0.38058731300E+01  0.38058731300E+01  0.00000000000E+00 0. -1.
         21   -1    0    0  502  503 -0.00000000000E+00 -0.00000000000E+00 -0.12421014772E+03  0.12421014772E+03  0.00000000000E+00 0.  1.
          2    1    1    2  501    0 -0.20866709497E+02 -0.43987870748E+00 -0.42267053987E+02  0.47139335074E+02  0.00000000000E+00 0. -1.
         -2    1    1    2    0  503  0.20866709497E+02  0.43987870748E+00 -0.78137220599E+02  0.80876685771E+02  0.00000000000E+00 0.  1.
<mgrwt>
<rscale>  2 0.20871345E+02</rscale>
<asrwt>0</asrwt>
<pdfrwt beam="1">  1       21 0.58551894E-03 0.20871345E+02</pdfrwt>
<pdfrwt beam="2">  1       21 0.19109253E-01 0.20871345E+02</pdfrwt>
<totfact> 0.14395670E+08</totfact>
</mgrwt>
</event>
<event>
 4    1  0.2754379E+004  0.2163672E+02  0.7546771E-02  0.1714612E+00
         21   -1    0    0  503  502  0.00000000000E+00  0.00000000000E+00  0.12675531782E+02  0.12675531782E+02  0.00000000000E+00 0.  1.
         21   -1    0    0  501  503 -0.00000000000E+00 -0.00000000000E+00 -0.17707143374E+03  0.17707143374E+03  0.00000000000E+00 0. -1.
          2    1    1    2  501    0 -0.79231741492E+01  0.20133823626E+02 -0.16659921705E+03  0.16799835315E+03  0.00000000000E+00 0. -1.
         -2    1    1    2    0  502  0.79231741492E+01 -0.20133823626E+02  0.22033150898E+01  0.21748612365E+02  0.00000000000E+00 0.  1.
<mgrwt>
<rscale>  2 0.21636717E+02</rscale>
<asrwt>0</asrwt>
<pdfrwt beam="1">  1       21 0.19500818E-02 0.21636717E+02</pdfrwt>
<pdfrwt beam="2">  1       21 0.27241759E-01 0.21636717E+02</pdfrwt>
<totfact> 0.12780771E+07</totfact>
</mgrwt>
</event>
<event>
 4    1  0.2754379E+004  0.2226700E+02  0.7546771E-02  0.1703675E+00
         21   -1    0    0  503  502  0.00000000000E+00  0.00000000000E+00  0.86709038290E+02  0.86709038290E+02  0.00000000000E+00 0. -1.
         21   -1    0    0  501  503 -0.00000000000E+00 -0.00000000000E+00 -0.57392767222E+01  0.57392767222E+01  0.00000000000E+00 0.  1.
          2    1    1    2  501    0  0.10982548606E+02  0.19370158659E+02  0.37683539596E+02  0.43770636011E+02  0.00000000000E+00 0. -1.
         -2    1    1    2    0  502 -0.10982548606E+02 -0.19370158659E+02  0.43286221972E+02  0.48677679001E+02  0.00000000000E+00 0.  1.
<mgrwt>
<rscale>  2 0.22267003E+02</rscale>
<asrwt>0</asrwt>
<pdfrwt beam="1">  1       21 0.13339851E-01 0.22267003E+02</pdfrwt>
<pdfrwt beam="2">  1       21 0.88296571E-03 0.22267003E+02</pdfrwt>
<totfact> 0.14724176E+08</totfact>
</mgrwt>
</event>
<event>
 4    1  0.2754379E+004  0.3932034E+02  0.7546771E-02  0.1513273E+00
         21   -1    0    0  503  502  0.00000000000E+00  0.00000000000E+00  0.37835379074E+01  0.37835379074E+01  0.00000000000E+00 0.  1.
         21   -1    0    0  501  503 -0.00000000000E+00 -0.00000000000E+00 -0.94597044609E+03  0.94597044609E+03  0.00000000000E+00 0. -1.
          2    1    1    2  501    0 -0.10502314384E+02  0.37891822676E+02 -0.82899600028E+03  0.82992798321E+03  0.00000000000E+00 0. -1.
         -2    1    1    2    0  502  0.10502314384E+02 -0.37891822676E+02 -0.11319090790E+03  0.11982600079E+03  0.00000000000E+00 0.  1.
<mgrwt>
<rscale>  2 0.39320336E+02</rscale>
<asrwt>0</asrwt>
<pdfrwt beam="1">  1       21 0.58208166E-03 0.39320336E+02</pdfrwt>
<pdfrwt beam="2">  1       21 0.14553419E+00 0.39320336E+02</pdfrwt>
<totfact> 0.27521037E+06</totfact>
</mgrwt>
</event>
<event>
 4    1  0.2754379E+004  0.2098539E+02  0.7546771E-02  0.1726414E+00
         21   -1    0    0  503  502  0.00000000000E+00  0.00000000000E+00  0.70761296412E+02  0.70761296412E+02  0.00000000000E+00 0. -1.
         21   -1    0    0  501  503 -0.00000000000E+00 -0.00000000000E+00 -0.64678417668E+01  0.64678417668E+01  0.00000000000E+00 0.  1.
          2    1    1    2  501    0 -0.19565702809E+02  0.75874746904E+01  0.24642162577E+02  0.32366999785E+02  0.00000000000E+00 0.  1.
         -2    1    1    2    0  502  0.19565702809E+02 -0.75874746904E+01  0.39651292068E+02  0.44862138394E+02  0.00000000000E+00 0. -1.
<mgrwt>
<rscale>  2 0.20985388E+02</rscale>
<asrwt>0</asrwt>
<pdfrwt beam="1">  1       21 0.10886353E-01 0.20985388E+02</pdfrwt>
<pdfrwt beam="2">  1       21 0.99505263E-03 0.20985388E+02</pdfrwt>
<totfact> 0.16983914E+08</totfact>
</mgrwt>
</event>
<event>
 4    1  0.2754379E+004  0.3061105E+02  0.7546771E-02  0.1591431E+00
         21   -1    0    0  501  502  0.00000000000E+00  0.00000000000E+00  0.24021963845E+02  0.24021963845E+02  0.00000000000E+00 0.  1.
         21   -1    0    0  502  503 -0.00000000000E+00 -0.00000000000E+00 -0.67578508812E+02  0.67578508812E+02  0.00000000000E+00 0. -1.
          2    1    1    2  501    0  0.29429817693E+02  0.84215314255E+01  0.80018396622E+01  0.31639623875E+02  0.00000000000E+00 0.  1.
         -2    1    1    2    0  503 -0.29429817693E+02 -0.84215314255E+01 -0.51558384629E+02  0.59960848781E+02  0.00000000000E+00 0. -1.
<mgrwt>
<rscale>  2 0.30611050E+02</rscale>
<asrwt>0</asrwt>
<pdfrwt beam="1">  1       21 0.36956867E-02 0.30611050E+02</pdfrwt>
<pdfrwt beam="2">  1       21 0.10396694E-01 0.30611050E+02</pdfrwt>
<totfact> 0.26792663E+07</totfact>
</mgrwt>
</event>
<event>
 4    1  0.2754379E+004  0.2559716E+02  0.7546771E-02  0.1652570E+00
         21   -1    0    0  501  502  0.00000000000E+00  0.00000000000E+00  0.41511115889E+02  0.41511115889E+02  0.00000000000E+00 0.  1.
         21   -1    0    0  502  503 -0.00000000000E+00 -0.00000000000E+00 -0.26495297849E+02  0.26495297849E+02  0.00000000000E+00 0. -1.
          2    1    1    2  501    0  0.25157999077E+02 -0.47211681241E+01  0.29127880155E+02  0.38776897095E+02  0.00000000000E+00 0.  1.
         -2    1    1    2    0  503 -0.25157999077E+02  0.47211681241E+01 -0.14112062116E+02  0.29229516643E+02  0.00000000000E+00 0. -1.
<mgrwt>
<rscale>  2 0.25597155E+02</rscale>
<asrwt>0</asrwt>
<pdfrwt beam="1">  1       21 0.63863256E-02 0.25597155E+02</pdfrwt>
<pdfrwt beam="2">  1       21 0.40761996E-02 0.25597155E+02</pdfrwt>
<totfact> 0.49207405E+07</totfact>
</mgrwt>
</event>
<event>
 4    1  0.2754379E+004  0.2430817E+02  0.7546771E-02  0.1671142E+00
         21   -1    0    0  501  502  0.00000000000E+00  0.00000000000E+00  0.90011996616E+01  0.90011996616E+01  0.00000000000E+00 0. -1.
         21   -1    0    0  502  503 -0.00000000000E+00 -0.00000000000E+00 -0.10209313064E+03  0.10209313064E+03  0.00000000000E+00 0.  1.
          2    1    1    2  501    0 -0.23499738348E+02  0.62168539759E+01 -0.13356585878E+02  0.27735993981E+02  0.00000000000E+00 0. -1.
         -2    1    1    2    0  503  0.23499738348E+02 -0.62168539759E+01 -0.79735345101E+02  0.83358336321E+02  0.00000000000E+00 0.  1.
<mgrwt>
<rscale>  2 0.24308167E+02</rscale>
<asrwt>0</asrwt>
<pdfrwt beam="1">  1       21 0.13847999E-02 0.24308167E+02</pdfrwt>
<pdfrwt beam="2">  1       21 0.15706636E-01 0.24308167E+02</pdfrwt>
<totfact> 0.58020316E+07</totfact>
</mgrwt>
</event>
<event>
 4    1  0.2754379E+004  0.2108830E+02  0.7546771E-02  0.1724514E+00
         21   -1    0    0  503  502  0.00000000000E+00  0.00000000000E+00  0.30892764126E+02  0.30892764126E+02  0.00000000000E+00 0.  1.
         21   -1    0    0  501  503 -0.00000000000E+00 -0.00000000000E+00 -0.14410341103E+02  0.14410341103E+02  0.00000000000E+00 0. -1.
          2    1    1    2  501    0 -0.12187891406E+02  0.17209644512E+02  0.75141010506E+01  0.22387011318E+02  0.00000000000E+00 0.  1.
         -2    1    1    2    0  502  0.12187891406E+02 -0.17209644512E+02  0.89683219725E+01  0.22916093911E+02  0.00000000000E+00 0. -1.
<mgrwt>
<rscale>  2 0.21088304E+02</rscale>
<asrwt>0</asrwt>
<pdfrwt beam="1">  1       21 0.47527329E-02 0.21088304E+02</pdfrwt>
<pdfrwt beam="2">  1       21 0.22169756E-02 0.21088304E+02</pdfrwt>
<totfact> 0.19307099E+08</totfact>
</mgrwt>
</event>
<event>
 4    1  0.2754379E+004  0.3338864E+02  0.7546771E-02  0.1563394E+00
         21   -1    0    0  503  502  0.00000000000E+00  0.00000000000E+00  0.36953658408E+02  0.36953658408E+02  0.00000000000E+00 0. -1.
         21   -1    0    0  501  503 -0.00000000000E+00 -0.00000000000E+00 -0.30170568333E+02  0.30170568333E+02  0.00000000000E+00 0.  1.
          2    1    1    2  501    0  0.30400125508E+02  0.13807014018E+02  0.37273435700E+01  0.33596046748E+02  0.00000000000E+00 0.  1.
         -2    1    1    2    0  502 -0.30400125508E+02 -0.13807014018E+02  0.30557465056E+01  0.33528179994E+02  0.00000000000E+00 0. -1.
<mgrwt>
<rscale>  2 0.33388640E+02</rscale>
<asrwt>0</asrwt>
<pdfrwt beam="1">  1       21 0.56851782E-02 0.33388640E+02</pdfrwt>
<pdfrwt beam="2">  1       21 0.46416259E-02 0.33388640E+02</pdfrwt>
<totfact> 0.51285435E+07</totfact>
</mgrwt>
</event>
<event>
 4    1  0.2754379E+004  0.2665973E+02  0.7546771E-02  0.1638247E+00
         21   -1    0    0  501  502  0.00000000000E+00  0.00000000000E+00  0.16041256765E+01  0.16041256765E+01  0.00000000000E+00 0. -1.
         21   -1    0    0  502  503 -0.00000000000E+00 -0.00000000000E+00 -0.46008111058E+03  0.46008111058E+03  0.00000000000E+00 0.  1.
          2    1    1    2  501    0 -0.20361705286E+02 -0.17208788603E+02 -0.18485174567E+03  0.18676431491E+03  0.00000000000E+00 0. -1.
         -2    1    1    2    0  503  0.20361705286E+02  0.17208788603E+02 -0.27362523923E+03  0.27492092134E+03  0.00000000000E+00 0.  1.
<mgrwt>
<rscale>  2 0.26659735E+02</rscale>
<asrwt>0</asrwt>
<pdfrwt beam="1">  1       21 0.24678878E-03 0.26659735E+02</pdfrwt>
<pdfrwt beam="2">  1       21 0.70781647E-01 0.26659735E+02</pdfrwt>
<totfact> 0.46579690E+07</totfact>
</mgrwt>
</event>
<event>
 4    1  0.2754379E+004  0.3295546E+02  0.7546771E-02  0.1567544E+00
         21   -1    0    0  503  502  0.00000000000E+00  0.00000000000E+00  0.10329725979E+02  0.10329725979E+02  0.00000000000E+00 0. -1.
         21   -1    0    0  501  503 -0.00000000000E+00 -0.00000000000E+00 -0.16660876710E+03  0.16660876710E+03  0.00000000000E+00 0.  1.
          2    1    1    2  501    0 -0.22379523827E+02  0.24191307011E+02 -0.13187638893E+03  0.13593176369E+03  0.00000000000E+00 0.  1.
         -2    1    1    2    0  502  0.22379523827E+02 -0.24191307011E+02 -0.24402652196E+02  0.41006729396E+02  0.00000000000E+00 0. -1.
<mgrwt>
<rscale>  2 0.32955461E+02</rscale>
<asrwt>0</asrwt>
<pdfrwt beam="1">  1       21 0.15891887E-02 0.32955461E+02</pdfrwt>
<pdfrwt beam="2">  1       21 0.25632117E-01 0.32955461E+02</pdfrwt>
<totfact> 0.21142954E+07</totfact>
</mgrwt>
</event>
<event>
 4    1  0.2754379E+004  0.3462634E+02  0.7546771E-02  0.1551944E+00
         21   -1    0    0  503  502  0.00000000000E+00  0.00000000000E+00  0.90470947551E+02  0.90470947551E+02  0.00000000000E+00 0. -1.
         21   -1    0    0  501  503 -0.00000000000E+00 -0.00000000000E+00 -0.13378408708E+02  0.13378408708E+02  0.00000000000E+00 0.  1.
          2    1    1    2  501    0 -0.15603892176E+02 -0.30911196452E+02  0.33512773506E+02  0.48188063928E+02  0.00000000000E+00 0.  1.
         -2    1    1    2    0  502  0.15603892176E+02  0.30911196452E+02  0.43579765337E+02  0.55661292331E+02  0.00000000000E+00 0. -1.
<mgrwt>
<rscale>  2 0.34626341E+02</rscale>
<asrwt>0</asrwt>
<pdfrwt beam="1">  1       21 0.13918607E-01 0.34626341E+02</pdfrwt>
<pdfrwt beam="2">  1       21 0.20582168E-02 0.34626341E+02</pdfrwt>
<totfact> 0.41979814E+07</totfact>
</mgrwt>
</event>
<event>
 4    1  0.2754379E+004  0.2118340E+02  0.7546771E-02  0.1722770E+00
         21   -1    0    0  501  502  0.00000000000E+00  0.00000000000E+00  0.29175316898E+02  0.29175316898E+02  0.00000000000E+00 0.  1.
         21   -1    0    0  502  503 -0.00000000000E+00 -0.00000000000E+00 -0.21918192337E+02  0.21918192337E+02  0.00000000000E+00 0. -1.
          2    1    1    2  501    0 -0.85336153958E+01 -0.19388496035E+02  0.17580658142E+02  0.27528456385E+02  0.00000000000E+00 0.  1.
         -2    1    1    2    0  503  0.85336153958E+01  0.19388496035E+02 -0.10323533581E+02  0.23565052850E+02  0.00000000000E+00 0. -1.
<mgrwt>
<rscale>  2 0.21183398E+02</rscale>
<asrwt>0</asrwt>
<pdfrwt beam="1">  1       21 0.44885103E-02 0.21183398E+02</pdfrwt>
<pdfrwt beam="2">  1       21 0.33720296E-02 0.21183398E+02</pdfrwt>
<totfact> 0.11062961E+08</totfact>
</mgrwt>
</event>
<event>
 4    1  0.2754379E+004  0.2559315E+02  0.7546771E-02  0.1652626E+00
         21   -1    0    0  501  502  0.00000000000E+00  0.00000000000E+00  0.59554094854E+02  0.59554094854E+02  0.00000000000E+00 0.  1.
         21   -1    0    0  502  503 -0.00000000000E+00 -0.00000000000E+00 -0.22337227004E+02  0.22337227004E+02  0.00000000000E+00 0. -1.
          2    1    1    2  501    0 -0.25471280348E+02  0.24946147561E+01  0.47780976121E+02  0.54203606010E+02  0.00000000000E+00 0.  1.
         -2    1    1    2    0  503  0.25471280348E+02 -0.24946147561E+01 -0.10564108271E+02  0.27687715849E+02  0.00000000000E+00 0. -1.
<mgrwt>
<rscale>  2 0.25593148E+02</rscale>
<asrwt>0</asrwt>
<pdfrwt beam="1">  1       21 0.91621684E-02 0.25593148E+02</pdfrwt>
<pdfrwt beam="2">  1       21 0.34364965E-02 0.25593148E+02</pdfrwt>
<totfact> 0.35706135E+07</totfact>
</mgrwt>
</event>
<event>
 4    1  0.2754379E+004  0.4578487E+02  0.7546771E-02  0.1469501E+00
         21   -1    0    0  503  502  0.00000000000E+00  0.00000000000E+00  0.15654848898E+02  0.15654848898E+02  0.00000000000E+00 0.  1.
         21   -1    0    0  501  503 -0.00000000000E+00 -0.00000000000E+00 -0.19049816492E+03  0.19049816492E+03  0.00000000000E+00 0. -1.
          2    1    1    2  501    0 -0.80780399263E+00 -0.45777739855E+02 -0.14360381069E+03  0.15072593824E+03  0.00000000000E+00 0. -1.
         -2    1    1    2    0  502  0.80780399263E+00  0.45777739855E+02 -0.31239505325E+02  0.55427075572E+02  0.00000000000E+00 0.  1.
<mgrwt>
<rscale>  2 0.45784867E+02</rscale>
<asrwt>0</asrwt>
<pdfrwt beam="1">  1       21 0.24084383E-02 0.45784867E+02</pdfrwt>
<pdfrwt beam="2">  1       21 0.29307409E-01 0.45784867E+02</pdfrwt>
<totfact> 0.90583886E+06</totfact>
</mgrwt>
</event>
<event>
 4    1  0.2754379E+004  0.4165891E+02  0.7546771E-02  0.1496347E+00
         21   -1    0    0  501  502  0.00000000000E+00  0.00000000000E+00  0.16424807753E+03  0.16424807753E+03  0.00000000000E+00 0. -1.
         21   -1    0    0  502  503 -0.00000000000E+00 -0.00000000000E+00 -0.10744420189E+02  0.10744420189E+02  0.00000000000E+00 0.  1.
          2    1    1    2  501    0 -0.23640024908E+02  0.34301809894E+02  0.88023116143E+02  0.97383437581E+02  0.00000000000E+00 0. -1.
         -2    1    1    2    0  503  0.23640024908E+02 -0.34301809894E+02  0.65480541196E+02  0.77609060135E+02  0.00000000000E+00 0.  1.
<mgrwt>
<rscale>  2 0.41658912E+02</rscale>
<asrwt>0</asrwt>
<pdfrwt beam="1">  1       21 0.25268933E-01 0.41658912E+02</pdfrwt>
<pdfrwt beam="2">  1       21 0.16529878E-02 0.41658912E+02</pdfrwt>
<totfact> 0.21214814E+07</totfact>
</mgrwt>
</event>
<event>
 4    1  0.2754379E+004  0.2004044E+02  0.7546771E-02  0.1744525E+00
         21   -1    0    0  503  502  0.00000000000E+00  0.00000000000E+00  0.68691728156E+02  0.68691728156E+02  0.00000000000E+00 0. -1.
         21   -1    0    0  501  503 -0.00000000000E+00 -0.00000000000E+00 -0.66197500498E+01  0.66197500498E+01  0.00000000000E+00 0.  1.
          2    1    1    2  501    0  0.10693948828E+02 -0.16948707160E+02  0.18167810022E+02  0.27049741902E+02  0.00000000000E+00 0. -1.
         -2    1    1    2    0  502 -0.10693948828E+02  0.16948707160E+02  0.43904168084E+02  0.48261736304E+02  0.00000000000E+00 0.  1.
<mgrwt>
<rscale>  2 0.20040440E+02</rscale>
<asrwt>0</asrwt>
<pdfrwt beam="1">  1       21 0.10567958E-01 0.20040440E+02</pdfrwt>
<pdfrwt beam="2">  1       21 0.10184231E-02 0.20040440E+02</pdfrwt>
<totfact> 0.16981156E+08</totfact>
</mgrwt>
</event>
<event>
 4    1  0.2754379E+004  0.2066838E+02  0.7546771E-02  0.1732354E+00
         21   -1    0    0  503  502  0.00000000000E+00  0.00000000000E+00  0.37639747515E+01  0.37639747515E+01  0.00000000000E+00 0. -1.
         21   -1    0    0  501  503 -0.00000000000E+00 -0.00000000000E+00 -0.13682572361E+03  0.13682572361E+03  0.00000000000E+00 0.  1.
          2    1    1    2  501    0  0.12254086626E+02 -0.16643897276E+02 -0.95559691890E+02  0.97769303310E+02  0.00000000000E+00 0.  1.
         -2    1    1    2    0  502 -0.12254086626E+02  0.16643897276E+02 -0.37502056972E+02  0.42820395055E+02  0.00000000000E+00 0. -1.
<mgrwt>
<rscale>  2 0.20668381E+02</rscale>
<asrwt>0</asrwt>
<pdfrwt beam="1">  1       21 0.57907312E-03 0.20668381E+02</pdfrwt>
<pdfrwt beam="2">  1       21 0.21050108E-01 0.20668381E+02</pdfrwt>
<totfact> 0.12333198E+08</totfact>
</mgrwt>
</event>
<event>
 4    1  0.2754379E+004  0.2446910E+02  0.7546771E-02  0.1668747E+00
         21   -1    0    0  501  502  0.00000000000E+00  0.00000000000E+00  0.51969171594E+02  0.51969171594E+02  0.00000000000E+00 0. -1.
         21   -1    0    0  502  503 -0.00000000000E+00 -0.00000000000E+00 -0.12448659264E+02  0.12448659264E+02  0.00000000000E+00 0.  1.
          2    1    1    2  501    0 -0.20790246472E+02 -0.12903585678E+02  0.28552684717E+02  0.37603093972E+02  0.00000000000E+00 0. -1.
         -2    1    1    2    0  503  0.20790246472E+02  0.12903585678E+02  0.10967827614E+02  0.26814736886E+02  0.00000000000E+00 0.  1.
<mgrwt>
<rscale>  2 0.24469100E+02</rscale>
<asrwt>0</asrwt>
<pdfrwt beam="1">  1       21 0.79952571E-02 0.24469100E+02</pdfrwt>
<pdfrwt beam="2">  1       21 0.19151784E-02 0.24469100E+02</pdfrwt>
<totfact> 0.10953650E+08</totfact>
</mgrwt>
</event>
<event>
 4    1  0.2754379E+004  0.2162495E+02  0.7546771E-02  0.1714820E+00
         21   -1    0    0  501  502  0.00000000000E+00  0.00000000000E+00  0.49087592881E+01  0.49087592881E+01  0.00000000000E+00 0. -1.
         21   -1    0    0  502  503 -0.00000000000E+00 -0.00000000000E+00 -0.97261202528E+02  0.97261202528E+02  0.00000000000E+00 0.  1.
          2    1    1    2  501    0  0.21513452517E+02 -0.21931110142E+01 -0.38859685144E+02  0.44471490920E+02  0.00000000000E+00 0. -1.
         -2    1    1    2    0  503 -0.21513452517E+02  0.21931110142E+01 -0.53492758095E+02  0.57698470896E+02  0.00000000000E+00 0.  1.
<mgrwt>
<rscale>  2 0.21624948E+02</rscale>
<asrwt>0</asrwt>
<pdfrwt beam="1">  1       21 0.75519373E-03 0.21624948E+02</pdfrwt>
<pdfrwt beam="2">  1       21 0.14963262E-01 0.21624948E+02</pdfrwt>
<totfact> 0.15174000E+08</totfact>
</mgrwt>
</event>
<event>
 4    1  0.2754379E+004  0.2379316E+02  0.7546771E-02  0.1678967E+00
         21   -1    0    0  501  502  0.00000000000E+00  0.00000000000E+00  0.18687178953E+03  0.18687178953E+03  0.00000000000E+00 0. -1.
         21   -1    0    0  502  503 -0.00000000000E+00 -0.00000000000E+00 -0.38727238941E+01  0.38727238941E+01  0.00000000000E+00 0.  1.
          2    1    1    2  501    0  0.23434512196E+02  0.41156073475E+01  0.13600402478E+03  0.13806958152E+03  0.00000000000E+00 0. -1.
         -2    1    1    2    0  503 -0.23434512196E+02 -0.41156073475E+01  0.46995040859E+02  0.52674931904E+02  0.00000000000E+00 0.  1.
<mgrwt>
<rscale>  2 0.23793163E+02</rscale>
<asrwt>0</asrwt>
<pdfrwt beam="1">  1       21 0.28749499E-01 0.23793163E+02</pdfrwt>
<pdfrwt beam="2">  1       21 0.59580382E-03 0.23793163E+02</pdfrwt>
<totfact> 0.70605390E+07</totfact>
</mgrwt>
</event>
<event>
 4    1  0.2754379E+004  0.2104783E+02  0.7546771E-02  0.1725259E+00
         21   -1    0    0  501  502  0.00000000000E+00  0.00000000000E+00  0.17449286383E+01  0.17449286383E+01  0.00000000000E+00 0. -1.
         21   -1    0    0  502  503 -0.00000000000E+00 -0.00000000000E+00 -0.36793457690E+03  0.36793457690E+03  0.00000000000E+00 0.  1.
          2    1    1    2  501    0 -0.31008463160E+01 -0.20818166435E+02 -0.80185005237E+02  0.82901425600E+02  0.00000000000E+00 0. -1.
         -2    1    1    2    0  503  0.31008463160E+01  0.20818166435E+02 -0.28600464302E+03  0.28677807994E+03  0.00000000000E+00 0.  1.
<mgrwt>
<rscale>  2 0.21047834E+02</rscale>
<asrwt>0</asrwt>
<pdfrwt beam="1">  1       21 0.26845026E-03 0.21047834E+02</pdfrwt>
<pdfrwt beam="2">  1       21 0.56605383E-01 0.21047834E+02</pdfrwt>
<totfact> 0.61334206E+07</totfact>
</mgrwt>
</event>
<event>
 4    1  0.2754379E+004  0.2626090E+02  0.7546771E-02  0.1643525E+00
         21   -1    0    0  501  502  0.00000000000E+00  0.00000000000E+00  0.10411120049E+02  0.10411120049E+02  0.00000000000E+00 0. -1.
         21   -1    0    0  502  503 -0.00000000000E+00 -0.00000000000E+00 -0.10983026554E+03  0.10983026554E+03  0.00000000000E+00 0.  1.
          2    1    1    2  501    0  0.21158096797E+02  0.15555378965E+02 -0.11834225367E+02  0.28804231718E+02  0.00000000000E+00 0. -1.
         -2    1    1    2    0  503 -0.21158096797E+02 -0.15555378965E+02 -0.87584920121E+02  0.91437153868E+02  0.00000000000E+00 0.  1.
<mgrwt>
<rscale>  2 0.26260900E+02</rscale>
<asrwt>0</asrwt>
<pdfrwt beam="1">  1       21 0.16017107E-02 0.26260900E+02</pdfrwt>
<pdfrwt beam="2">  1       21 0.16896964E-01 0.26260900E+02</pdfrwt>
<totfact> 0.41733349E+07</totfact>
</mgrwt>
</event>
<event>
 4    1  0.2754379E+004  0.2384216E+02  0.7546771E-02  0.1678212E+00
         21   -1    0    0  503  502  0.00000000000E+00  0.00000000000E+00  0.14874722430E+04  0.14874722430E+04  0.00000000000E+00 0. -1.
         21   -1    0    0  501  503 -0.00000000000E+00 -0.00000000000E+00 -0.52257773055E+00  0.52257773055E+00  0.00000000000E+00 0.  1.
          2    1    1    2  501    0  0.76398708630E+01  0.22584975913E+02  0.35780939357E+03  0.35860285957E+03  0.00000000000E+00 0.  1.
         -2    1    1    2    0  502 -0.76398708630E+01 -0.22584975913E+02  0.11291402717E+04  0.11293919611E+04  0.00000000000E+00 0. -1.
<mgrwt>
<rscale>  2 0.23842164E+02</rscale>
<asrwt>0</asrwt>
<pdfrwt beam="1">  1       21 0.22883849E+00 0.23842164E+02</pdfrwt>
<pdfrwt beam="2">  1       21 0.80397765E-04 0.23842164E+02</pdfrwt>
<totfact> 0.14903525E+07</totfact>
</mgrwt>
</event>
<event>
 4    1  0.2754379E+004  0.2774791E+02  0.7546771E-02  0.1624406E+00
         21   -1    0    0  501  502  0.00000000000E+00  0.00000000000E+00  0.20364017563E+03  0.20364017563E+03  0.00000000000E+00 0. -1.
         21   -1    0    0  502  503 -0.00000000000E+00 -0.00000000000E+00 -0.44384523172E+01  0.44384523172E+01  0.00000000000E+00 0.  1.
          2    1    1    2  501    0 -0.12538891375E+02  0.24753236681E+02  0.13964522291E+03  0.14237533074E+03  0.00000000000E+00 0. -1.
         -2    1    1    2    0  503  0.12538891375E+02 -0.24753236681E+02  0.59556500408E+02  0.65703297207E+02  0.00000000000E+00 0.  1.
<mgrwt>
<rscale>  2 0.27747910E+02</rscale>
<asrwt>0</asrwt>
<pdfrwt beam="1">  1       21 0.31329250E-01 0.27747910E+02</pdfrwt>
<pdfrwt beam="2">  1       21 0.68283898E-03 0.27747910E+02</pdfrwt>
<totfact> 0.51058887E+07</totfact>
</mgrwt>
</event>
<event>
 4    1  0.2754379E+004  0.4985521E+02  0.7546771E-02  0.1446124E+00
         21   -1    0    0  501  502  0.00000000000E+00  0.00000000000E+00  0.18325504280E+03  0.18325504280E+03  0.00000000000E+00 0. -1.
         21   -1    0    0  502  503 -0.00000000000E+00 -0.00000000000E+00 -0.20462085884E+02  0.20462085884E+02  0.00000000000E+00 0.  1.
          2    1    1    2  501    0 -0.17466526779E+02 -0.46695423271E+02  0.14054026225E+03  0.14912111663E+03  0.00000000000E+00 0. -1.
         -2    1    1    2    0  503  0.17466526779E+02  0.46695423271E+02  0.22252694667E+02  0.54596012053E+02  0.00000000000E+00 0.  1.
<mgrwt>
<rscale>  2 0.49855211E+02</rscale>
<asrwt>0</asrwt>
<pdfrwt beam="1">  1       21 0.28193082E-01 0.49855211E+02</pdfrwt>
<pdfrwt beam="2">  1       21 0.31480133E-02 0.49855211E+02</pdfrwt>
<totfact> 0.64183799E+06</totfact>
</mgrwt>
</event>
<event>
 4    1  0.2754379E+004  0.2137989E+02  0.7546771E-02  0.1719202E+00
         21   -1    0    0  501  502  0.00000000000E+00  0.00000000000E+00  0.10974100252E+02  0.10974100252E+02  0.00000000000E+00 0.  1.
         21   -1    0    0  502  503 -0.00000000000E+00 -0.00000000000E+00 -0.15420512814E+03  0.15420512814E+03  0.00000000000E+00 0. -1.
          2    1    1    2  501    0 -0.15735081627E+01  0.21321910622E+02 -0.10563123875E+01  0.21405971045E+02  0.00000000000E+00 0.  1.
         -2    1    1    2    0  503  0.15735081627E+01 -0.21321910622E+02 -0.14217471550E+03  0.14377325735E+03  0.00000000000E+00 0. -1.
<mgrwt>
<rscale>  2 0.21379892E+02</rscale>
<asrwt>0</asrwt>
<pdfrwt beam="1">  1       21 0.16883232E-02 0.21379892E+02</pdfrwt>
<pdfrwt beam="2">  1       21 0.23723865E-01 0.21379892E+02</pdfrwt>
<totfact> 0.20318383E+07</totfact>
</mgrwt>
</event>
<event>
 4    1  0.2754379E+004  0.2280057E+02  0.7546771E-02  0.1694763E+00
         21   -1    0    0  501  502  0.00000000000E+00  0.00000000000E+00  0.15068127835E+02  0.15068127835E+02  0.00000000000E+00 0.  1.
         21   -1    0    0  502  503 -0.00000000000E+00 -0.00000000000E+00 -0.34573692042E+02  0.34573692042E+02  0.00000000000E+00 0. -1.
          2    1    1    2  501    0 -0.19346970131E+02  0.12064859358E+02 -0.86149765174E+01  0.24373836484E+02  0.00000000000E+00 0.  1.
         -2    1    1    2    0  503  0.19346970131E+02 -0.12064859358E+02 -0.10890587690E+02  0.25267983394E+02  0.00000000000E+00 0. -1.
<mgrwt>
<rscale>  2 0.22800572E+02</rscale>
<asrwt>0</asrwt>
<pdfrwt beam="1">  1       21 0.23181735E-02 0.22800572E+02</pdfrwt>
<pdfrwt beam="2">  1       21 0.53190296E-02 0.22800572E+02</pdfrwt>
<totfact> 0.15445107E+08</totfact>
</mgrwt>
</event>
<event>
 4    1  0.2754379E+004  0.2488481E+02  0.7546771E-02  0.1662662E+00
         21   -1    0    0  503  502  0.00000000000E+00  0.00000000000E+00  0.89597173210E+01  0.89597173210E+01  0.00000000000E+00 0. -1.
         21   -1    0    0  501  503 -0.00000000000E+00 -0.00000000000E+00 -0.14440969025E+03  0.14440969025E+03  0.00000000000E+00 0.  1.
          2    1    1    2  501    0 -0.12477953041E+02  0.21530318812E+02 -0.12309718418E+03  0.12558730308E+03  0.00000000000E+00 0.  1.
         -2    1    1    2    0  502  0.12477953041E+02 -0.21530318812E+02 -0.12352788743E+02  0.27782104492E+02  0.00000000000E+00 0. -1.
<mgrwt>
<rscale>  2 0.24884813E+02</rscale>
<asrwt>0</asrwt>
<pdfrwt beam="1">  1       21 0.13784183E-02 0.24884813E+02</pdfrwt>
<pdfrwt beam="2">  1       21 0.22216872E-01 0.24884813E+02</pdfrwt>
<totfact> 0.32137978E+07</totfact>
</mgrwt>
</event>
<event>
 4    1  0.2754379E+004  0.3599632E+02  0.7546771E-02  0.1539927E+00
         21   -1    0    0  503  502  0.00000000000E+00  0.00000000000E+00  0.14726683728E+04  0.14726683728E+04  0.00000000000E+00 0.  1.
         21   -1    0    0  501  503 -0.00000000000E+00 -0.00000000000E+00 -0.64147571332E+01  0.64147571332E+01  0.00000000000E+00 0. -1.
          2    1    1    2  501    0 -0.32014103608E+02 -0.16456985868E+02  0.46173156324E+02  0.58546524907E+02  0.00000000000E+00 0. -1.
         -2    1    1    2    0  502  0.32014103608E+02  0.16456985868E+02  0.14200804593E+04  0.14205366050E+04  0.00000000000E+00 0.  1.
<mgrwt>
<rscale>  2 0.35996322E+02</rscale>
<asrwt>0</asrwt>
<pdfrwt beam="1">  1       21 0.22656410E+00 0.35996322E+02</pdfrwt>
<pdfrwt beam="2">  1       21 0.98688689E-03 0.35996322E+02</pdfrwt>
<totfact> 0.39132521E+05</totfact>
</mgrwt>
</event>
<event>
 4    1  0.2754379E+004  0.2126536E+02  0.7546771E-02  0.1721276E+00
         21   -1    0    0  501  502  0.00000000000E+00  0.00000000000E+00  0.28590940397E+00  0.28590940397E+00  0.00000000000E+00 0.  1.
         21   -1    0    0  502  503 -0.00000000000E+00 -0.00000000000E+00 -0.18220995183E+04  0.18220995183E+04  0.00000000000E+00 0. -1.
          2    1    1    2  501    0  0.11344264595E+02  0.17986753245E+02 -0.57991749716E+03  0.58030726270E+03  0.00000000000E+00 0.  1.
         -2    1    1    2    0  503 -0.11344264595E+02 -0.17986753245E+02 -0.12418961117E+04  0.12420781650E+04  0.00000000000E+00 0. -1.
<mgrwt>
<rscale>  2 0.21265362E+02</rscale>
<asrwt>0</asrwt>
<pdfrwt beam="1">  1       21 0.43984913E-04 0.21265362E+02</pdfrwt>
<pdfrwt beam="2">  1       21 0.28033033E+00 0.21265362E+02</pdfrwt>
<totfact> 0.19211427E+07</totfact>
</mgrwt>
</event>
<event>
 4    1  0.2754379E+004  0.2849784E+02  0.7546771E-02  0.1615312E+00
         21   -1    0    0  501  502  0.00000000000E+00  0.00000000000E+00  0.38130177182E+01  0.38130177182E+01  0.00000000000E+00 0. -1.
         21   -1    0    0  502  503 -0.00000000000E+00 -0.00000000000E+00 -0.61755113039E+03  0.61755113039E+03  0.00000000000E+00 0.  1.
          2    1    1    2  501    0  0.14377528987E+02  0.24605147858E+02 -0.55406724293E+02  0.62305952668E+02  0.00000000000E+00 0. -1.
         -2    1    1    2    0  503 -0.14377528987E+02 -0.24605147858E+02 -0.55833138837E+03  0.55905819544E+03  0.00000000000E+00 0.  1.
<mgrwt>
<rscale>  2 0.28497836E+02</rscale>
<asrwt>0</asrwt>
<pdfrwt beam="1">  1       21 0.58661810E-03 0.28497836E+02</pdfrwt>
<pdfrwt beam="2">  1       21 0.95007869E-01 0.28497836E+02</pdfrwt>
<totfact> 0.70349077E+06</totfact>
</mgrwt>
</event>
<event>
 4    1  0.2754379E+004  0.2018242E+02  0.7546771E-02  0.1741725E+00
         21   -1    0    0  503  502  0.00000000000E+00  0.00000000000E+00  0.49859336496E+03  0.49859336496E+03  0.00000000000E+00 0. -1.
         21   -1    0    0  501  503 -0.00000000000E+00 -0.00000000000E+00 -0.14724599220E+01  0.14724599220E+01  0.00000000000E+00 0.  1.
          2    1    1    2  501    0 -0.11299892675E+01 -0.20150757275E+02  0.81734971558E+02  0.84189877480E+02  0.00000000000E+00 0.  1.
         -2    1    1    2    0  502  0.11299892675E+01  0.20150757275E+02  0.41538593348E+03  0.41587594740E+03  0.00000000000E+00 0. -1.
<mgrwt>
<rscale>  2 0.20182415E+02</rscale>
<asrwt>0</asrwt>
<pdfrwt beam="1">  1       21 0.76706537E-01 0.20182415E+02</pdfrwt>
<pdfrwt beam="2">  1       21 0.22653269E-03 0.20182415E+02</pdfrwt>
<totfact> 0.41995633E+07</totfact>
</mgrwt>
</event>
<event>
 4    1  0.2754379E+004  0.3108943E+02  0.7546771E-02  0.1586349E+00
         21   -1    0    0  501  502  0.00000000000E+00  0.00000000000E+00  0.39365339503E+03  0.39365339503E+03  0.00000000000E+00 0. -1.
         21   -1    0    0  502  503 -0.00000000000E+00 -0.00000000000E+00 -0.76903286450E+01  0.76903286450E+01  0.00000000000E+00 0.  1.
          2    1    1    2  501    0  0.29195556269E+02  0.10685134825E+02  0.35854783012E+03  0.35989317734E+03  0.00000000000E+00 0. -1.
         -2    1    1    2    0  503 -0.29195556269E+02 -0.10685134825E+02  0.27415236268E+02  0.41450546338E+02  0.00000000000E+00 0.  1.
<mgrwt>
<rscale>  2 0.31089429E+02</rscale>
<asrwt>0</asrwt>
<pdfrwt beam="1">  1       21 0.60562045E-01 0.31089429E+02</pdfrwt>
<pdfrwt beam="2">  1       21 0.11831278E-02 0.31089429E+02</pdfrwt>
<totfact> 0.63700939E+06</totfact>
</mgrwt>
</event>
<event>
 4    1  0.2754379E+004  0.2269938E+02  0.7546771E-02  0.1696430E+00
         21   -1    0    0  501  502  0.00000000000E+00  0.00000000000E+00  0.22348973717E+03  0.22348973717E+03  0.00000000000E+00 0. -1.
         21   -1    0    0  502  503 -0.00000000000E+00 -0.00000000000E+00 -0.24013290047E+01  0.24013290047E+01  0.00000000000E+00 0.  1.
          2    1    1    2  501    0  0.19898669812E+02 -0.10922677058E+02  0.13310359497E+03  0.13502528996E+03  0.00000000000E+00 0. -1.
         -2    1    1    2    0  503 -0.19898669812E+02  0.10922677058E+02  0.87984813202E+02  0.90865776223E+02  0.00000000000E+00 0.  1.
<mgrwt>
<rscale>  2 0.22699382E+02</rscale>
<asrwt>0</asrwt>
<pdfrwt beam="1">  1       21 0.34383020E-01 0.22699382E+02</pdfrwt>
<pdfrwt beam="2">  1       21 0.36943541E-03 0.22699382E+02</pdfrwt>
<totfact> 0.10163820E+08</totfact>
</mgrwt>
</event>
<event>
 4    1  0.2754379E+004  0.2613025E+02  0.7546771E-02  0.1645279E+00
         21   -1    0    0  501  502  0.00000000000E+00  0.00000000000E+00  0.16388652336E+02  0.16388652336E+02  0.00000000000E+00 0.  1.
         21   -1    0    0  502  503 -0.00000000000E+00 -0.00000000000E+00 -0.10111563432E+03  0.10111563432E+03  0.00000000000E+00 0. -1.
          2    1    1    2  501    0 -0.20104538927E+02  0.16691235501E+02  0.26873053088E+01  0.26268068787E+02  0.00000000000E+00 0.  1.
         -2    1    1    2    0  503  0.20104538927E+02 -0.16691235501E+02 -0.87414287288E+02  0.91236217864E+02  0.00000000000E+00 0. -1.
<mgrwt>
<rscale>  2 0.26130247E+02</rscale>
<asrwt>0</asrwt>
<pdfrwt beam="1">  1       21 0.25213311E-02 0.26130247E+02</pdfrwt>
<pdfrwt beam="2">  1       21 0.15556252E-01 0.26130247E+02</pdfrwt>
<totfact> 0.23878094E+07</totfact>
</mgrwt>
</event>
<event>
 4    1  0.2754379E+004  0.2458527E+02  0.7546771E-02  0.1667031E+00
         21   -1    0    0  503  502  0.00000000000E+00  0.00000000000E+00  0.51302573168E+02  0.51302573168E+02  0.00000000000E+00 0. -1.
         21   -1    0    0  501  503 -0.00000000000E+00 -0.00000000000E+00 -0.23122030226E+02  0.23122030226E+02  0.00000000000E+00 0.  1.
          2    1    1    2  501    0 -0.23911893789E+02  0.57146289981E+01 -0.11970355678E+02  0.27344561877E+02  0.00000000000E+00 0.  1.
         -2    1    1    2    0  502  0.23911893789E+02 -0.57146289981E+01  0.40150898621E+02  0.47080041517E+02  0.00000000000E+00 0. -1.
<mgrwt>
<rscale>  2 0.24585273E+02</rscale>
<asrwt>0</asrwt>
<pdfrwt beam="1">  1       21 0.78927035E-02 0.24585273E+02</pdfrwt>
<pdfrwt beam="2">  1       21 0.35572354E-02 0.24585273E+02</pdfrwt>
<totfact> 0.42816487E+07</totfact>
</mgrwt>
</event>
<event>
 4    1  0.2754379E+004  0.2762785E+02  0.7546771E-02  0.1625894E+00
         21   -1    0    0  501  502  0.00000000000E+00  0.00000000000E+00  0.41933822954E+02  0.41933822954E+02  0.00000000000E+00 0. -1.
         21   -1    0    0  502  503 -0.00000000000E+00 -0.00000000000E+00 -0.20909141128E+02  0.20909141128E+02  0.00000000000E+00 0.  1.
          2    1    1    2  501    0 -0.27444225151E+02 -0.31800642969E+01  0.21817532902E+02  0.35203736236E+02  0.00000000000E+00 0. -1.
         -2    1    1    2    0  503  0.27444225151E+02  0.31800642969E+01 -0.79285107625E+00  0.27639227846E+02  0.00000000000E+00 0.  1.
<mgrwt>
<rscale>  2 0.27627854E+02</rscale>
<asrwt>0</asrwt>
<pdfrwt beam="1">  1       21 0.64513574E-02 0.27627854E+02</pdfrwt>
<pdfrwt beam="2">  1       21 0.32167909E-02 0.27627854E+02</pdfrwt>
<totfact> 0.71650827E+07</totfact>
</mgrwt>
</event>
<event>
 4    1  0.2754379E+004  0.2252096E+02  0.7546771E-02  0.1699395E+00
         21   -1    0    0  503  502  0.00000000000E+00  0.00000000000E+00  0.70403739398E+03  0.70403739398E+03  0.00000000000E+00 0.  1.
         21   -1    0    0  501  503 -0.00000000000E+00 -0.00000000000E+00 -0.84706570168E+00  0.84706570168E+00  0.00000000000E+00 0. -1.
          2    1    1    2  501    0 -0.18298036140E+02 -0.13129180241E+02  0.21531055087E+03  0.21648516535E+03  0.00000000000E+00 0.  1.
         -2    1    1    2    0  502  0.18298036140E+02  0.13129180241E+02  0.48787977740E+03  0.48839929433E+03  0.00000000000E+00 0. -1.
<mgrwt>
<rscale>  2 0.22520957E+02</rscale>
<asrwt>0</asrwt>
<pdfrwt beam="1">  1       21 0.10831298E+00 0.22520957E+02</pdfrwt>
<pdfrwt beam="2">  1       21 0.13031836E-03 0.22520957E+02</pdfrwt>
<totfact> 0.45463682E+07</totfact>
</mgrwt>
</event>
<event>
 4    1  0.2754379E+004  0.2014762E+02  0.7546771E-02  0.1742408E+00
         21   -1    0    0  501  502  0.00000000000E+00  0.00000000000E+00  0.65806894569E+01  0.65806894569E+01  0.00000000000E+00 0. -1.
         21   -1    0    0  502  503 -0.00000000000E+00 -0.00000000000E+00 -0.98450083143E+02  0.98450083143E+02  0.00000000000E+00 0.  1.
          2    1    1    2  501    0  0.10537258210E+02 -0.17172441639E+02 -0.13842516133E+02  0.24444668443E+02  0.00000000000E+00 0. -1.
         -2    1    1    2    0  503 -0.10537258210E+02  0.17172441639E+02 -0.78026877554E+02  0.80586104157E+02  0.00000000000E+00 0.  1.
<mgrwt>
<rscale>  2 0.20147619E+02</rscale>
<asrwt>0</asrwt>
<pdfrwt beam="1">  1       21 0.10124138E-02 0.20147619E+02</pdfrwt>
<pdfrwt beam="2">  1       21 0.15146166E-01 0.20147619E+02</pdfrwt>
<totfact> 0.94032575E+07</totfact>
</mgrwt>
</event>
<event>
 4    1  0.2754379E+004  0.2217109E+02  0.7546771E-02  0.1705310E+00
         21   -1    0    0  503  502  0.00000000000E+00  0.00000000000E+00  0.52572726749E+03  0.52572726749E+03  0.00000000000E+00 0.  1.
         21   -1    0    0  501  503 -0.00000000000E+00 -0.00000000000E+00 -0.16973832643E+01  0.16973832643E+01  0.00000000000E+00 0. -1.
          2    1    1    2  501    0 -0.13603912421E+02 -0.17506880402E+02  0.85278583941E+02  0.88113530026E+02  0.00000000000E+00 0. -1.
         -2    1    1    2    0  502  0.13603912421E+02  0.17506880402E+02  0.43875130028E+03  0.43931112073E+03  0.00000000000E+00 0.  1.
<mgrwt>
<rscale>  2 0.22171091E+02</rscale>
<asrwt>0</asrwt>
<pdfrwt beam="1">  1       21 0.80880988E-01 0.22171091E+02</pdfrwt>
<pdfrwt beam="2">  1       21 0.26113631E-03 0.22171091E+02</pdfrwt>
<totfact> 0.31267554E+07</totfact>
</mgrwt>
</event>
<event>
 4    1  0.2754379E+004  0.2285653E+02  0.7546771E-02  0.1693846E+00
         21   -1    0    0  503  502  0.00000000000E+00  0.00000000000E+00  0.87692051540E+00  0.87692051540E+00  0.00000000000E+00 0.  1.
         21   -1    0    0  501  503 -0.00000000000E+00 -0.00000000000E+00 -0.68307635473E+03  0.68307635473E+03  0.00000000000E+00 0. -1.
          2    1    1    2  501    0 -0.12025062965E+02 -0.19437557150E+02 -0.46337751410E+03  0.46394088130E+03  0.00000000000E+00 0.  1.
         -2    1    1    2    0  502  0.12025062965E+02  0.19437557150E+02 -0.21882192012E+03  0.22001239395E+03  0.00000000000E+00 0. -1.
<mgrwt>
<rscale>  2 0.22856526E+02</rscale>
<asrwt>0</asrwt>
<pdfrwt beam="1">  1       21 0.13491109E-03 0.22856526E+02</pdfrwt>
<pdfrwt beam="2">  1       21 0.10508848E+00 0.22856526E+02</pdfrwt>
<totfact> 0.46408355E+07</totfact>
</mgrwt>
</event>
<event>
 4    1  0.2754379E+004  0.2441796E+02  0.7546771E-02  0.1669505E+00
         21   -1    0    0  501  502  0.00000000000E+00  0.00000000000E+00  0.47209935024E+02  0.47209935024E+02  0.00000000000E+00 0. -1.
         21   -1    0    0  502  503 -0.00000000000E+00 -0.00000000000E+00 -0.14624948349E+02  0.14624948349E+02  0.00000000000E+00 0.  1.
          2    1    1    2  501    0 -0.22054487587E+02  0.10480293232E+02  0.27712824889E+02  0.36935587613E+02  0.00000000000E+00 0. -1.
         -2    1    1    2    0  503  0.22054487587E+02 -0.10480293232E+02  0.48721617857E+01  0.24899295761E+02  0.00000000000E+00 0.  1.
<mgrwt>
<rscale>  2 0.24417964E+02</rscale>
<asrwt>0</asrwt>
<pdfrwt beam="1">  1       21 0.72630669E-02 0.24417964E+02</pdfrwt>
<pdfrwt beam="2">  1       21 0.22499921E-02 0.24417964E+02</pdfrwt>
<totfact> 0.99910626E+07</totfact>
</mgrwt>
</event>
<event>
 4    1  0.2754379E+004  0.2077393E+02  0.7546771E-02  0.1730361E+00
         21   -1    0    0  503  502  0.00000000000E+00  0.00000000000E+00  0.71861523606E+02  0.71861523606E+02  0.00000000000E+00 0. -1.
         21   -1    0    0  501  503 -0.00000000000E+00 -0.00000000000E+00 -0.97926553953E+01  0.97926553953E+01  0.00000000000E+00 0.  1.
          2    1    1    2  501    0 -0.14715381748E+02 -0.14663351974E+02  0.56445245509E+01  0.21527122625E+02  0.00000000000E+00 0.  1.
         -2    1    1    2    0  502  0.14715381748E+02  0.14663351974E+02  0.56424343660E+02  0.60127056377E+02  0.00000000000E+00 0. -1.
<mgrwt>
<rscale>  2 0.20773934E+02</rscale>
<asrwt>0</asrwt>
<pdfrwt beam="1">  1       21 0.11055619E-01 0.20773934E+02</pdfrwt>
<pdfrwt beam="2">  1       21 0.15065624E-02 0.20773934E+02</pdfrwt>
<totfact> 0.88395059E+07</totfact>
</mgrwt>
</event>
<event>
 4    1  0.2754379E+004  0.2001459E+02  0.7546771E-02  0.1745038E+00
         21   -1    0    0  501  502  0.00000000000E+00  0.00000000000E+00  0.54998096388E+01  0.54998096388E+01  0.00000000000E+00 0.  1.
         21   -1    0    0  502  503 -0.00000000000E+00 -0.00000000000E+00 -0.35107406248E+03  0.35107406248E+03  0.00000000000E+00 0. -1.
          2    1    1    2  501    0  0.76909731490E+01 -0.18477894184E+02 -0.14068283285E+02  0.24464264470E+02  0.00000000000E+00 0.  1.
         -2    1    1    2    0  503 -0.76909731490E+01  0.18477894184E+02 -0.33150596956E+03  0.33210960765E+03  0.00000000000E+00 0. -1.
<mgrwt>
<rscale>  2 0.20014586E+02</rscale>
<asrwt>0</asrwt>
<pdfrwt beam="1">  1       21 0.84612471E-03 0.20014586E+02</pdfrwt>
<pdfrwt beam="2">  1       21 0.54011385E-01 0.20014586E+02</pdfrwt>
<totfact> 0.12332279E+07</totfact>
</mgrwt>
</event>
<event>
 4    1  0.2754379E+004  0.2148730E+02  0.7546771E-02  0.1717273E+00
         21   -1    0    0  503  502  0.00000000000E+00  0.00000000000E+00  0.30011370195E+01  0.30011370195E+01  0.00000000000E+00 0. -1.
         21   -1    0    0  501  503 -0.00000000000E+00 -0.00000000000E+00 -0.20809447972E+03  0.20809447972E+03  0.00000000000E+00 0.  1.
          2    1    1    2  501    0  0.19340985539E+02  0.93611106657E+01 -0.15643869332E+03  0.15790746937E+03  0.00000000000E+00 0.  1.
         -2    1    1    2    0  502 -0.19340985539E+02 -0.93611106657E+01 -0.48654649383E+02  0.53188147374E+02  0.00000000000E+00 0. -1.
<mgrwt>
<rscale>  2 0.21487301E+02</rscale>
<asrwt>0</asrwt>
<pdfrwt beam="1">  1       21 0.46171341E-03 0.21487301E+02</pdfrwt>
<pdfrwt beam="2">  1       21 0.32014534E-01 0.21487301E+02</pdfrwt>
<totfact> 0.82348645E+07</totfact>
</mgrwt>
</event>
<event>
 4    1  0.2754379E+004  0.2036215E+02  0.7546771E-02  0.1738221E+00
         21   -1    0    0  503  502  0.00000000000E+00  0.00000000000E+00  0.12561411577E+01  0.12561411577E+01  0.00000000000E+00 0. -1.
         21   -1    0    0  501  503 -0.00000000000E+00 -0.00000000000E+00 -0.35924587722E+03  0.35924587722E+03  0.00000000000E+00 0.  1.
          2    1    1    2  501    0 -0.18077606004E+02  0.93710904114E+01 -0.23036113380E+03  0.23125931147E+03  0.00000000000E+00 0.  1.
         -2    1    1    2    0  502  0.18077606004E+02 -0.93710904114E+01 -0.12762860226E+03  0.12924270691E+03  0.00000000000E+00 0. -1.
<mgrwt>
<rscale>  2 0.20362151E+02</rscale>
<asrwt>0</asrwt>
<pdfrwt beam="1">  1       21 0.19325263E-03 0.20362151E+02</pdfrwt>
<pdfrwt beam="2">  1       21 0.55268555E-01 0.20362151E+02</pdfrwt>
<totfact> 0.10240981E+08</totfact>
</mgrwt>
</event>
<event>
 4    1  0.2754379E+004  0.2326894E+02  0.7546771E-02  0.1687187E+00
         21   -1    0    0  501  502  0.00000000000E+00  0.00000000000E+00  0.20277972909E+02  0.20277972909E+02  0.00000000000E+00 0.  1.
         21   -1    0    0  502  503 -0.00000000000E+00 -0.00000000000E+00 -0.83955131295E+02  0.83955131295E+02  0.00000000000E+00 0. -1.
          2    1    1    2  501    0  0.12383127279E+02  0.19700300315E+02  0.11199728318E+02  0.25823973128E+02  0.00000000000E+00 0.  1.
         -2    1    1    2    0  503 -0.12383127279E+02 -0.19700300315E+02 -0.74876886704E+02  0.78409131076E+02  0.00000000000E+00 0. -1.
<mgrwt>
<rscale>  2 0.23268942E+02</rscale>
<asrwt>0</asrwt>
<pdfrwt beam="1">  1       21 0.31196882E-02 0.23268942E+02</pdfrwt>
<pdfrwt beam="2">  1       21 0.12916174E-01 0.23268942E+02</pdfrwt>
<totfact> 0.22933692E+07</totfact>
</mgrwt>
</event>
<event>
 4    1  0.2754379E+004  0.3788769E+02  0.7546771E-02  0.1524357E+00
         21   -1    0    0  501  502  0.00000000000E+00  0.00000000000E+00  0.13020417720E+04  0.13020417720E+04  0.00000000000E+00 0. -1.
         21   -1    0    0  502  503 -0.00000000000E+00 -0.00000000000E+00 -0.14298420542E+01  0.14298420542E+01  0.00000000000E+00 0.  1.
          2    1    1    2  501    0 -0.35863319398E+02  0.12218818364E+02  0.96215227044E+03  0.96289795343E+03  0.00000000000E+00 0.  1.
         -2    1    1    2    0  503  0.35863319398E+02 -0.12218818364E+02  0.33845965952E+03  0.34057366064E+03  0.00000000000E+00 0. -1.
<mgrwt>
<rscale>  2 0.37887692E+02</rscale>
<asrwt>0</asrwt>
<pdfrwt beam="1">  1       21 0.20031317E+00 0.37887692E+02</pdfrwt>
<pdfrwt beam="2">  1       21 0.21997674E-03 0.37887692E+02</pdfrwt>
<totfact> 0.51799271E+06</totfact>
</mgrwt>
</event>
<event>
 4    1  0.2754379E+004  0.2711076E+02  0.7546771E-02  0.1632413E+00
         21   -1    0    0  503  502  0.00000000000E+00  0.00000000000E+00  0.11488103779E+03  0.11488103779E+03  0.00000000000E+00 0. -1.
         21   -1    0    0  501  503 -0.00000000000E+00 -0.00000000000E+00 -0.64080165678E+01  0.64080165678E+01  0.00000000000E+00 0.  1.
          2    1    1    2  501    0 -0.59444957620E+01 -0.26451013448E+02  0.51822501454E+02  0.58485594801E+02  0.00000000000E+00 0. -1.
         -2    1    1    2    0  502  0.59444957620E+01  0.26451013448E+02  0.56650519773E+02  0.62803459561E+02  0.00000000000E+00 0.  1.
<mgrwt>
<rscale>  2 0.27110757E+02</rscale>
<asrwt>0</asrwt>
<pdfrwt beam="1">  1       21 0.17674004E-01 0.27110757E+02</pdfrwt>
<pdfrwt beam="2">  1       21 0.98584879E-03 0.27110757E+02</pdfrwt>
<totfact> 0.81333522E+07</totfact>
</mgrwt>
</event>
<event>
 4    1  0.2754379E+004  0.2441357E+02  0.7546771E-02  0.1669571E+00
         21   -1    0    0  501  502  0.00000000000E+00  0.00000000000E+00  0.17528218516E+01  0.17528218516E+01  0.00000000000E+00 0.  1.
         21   -1    0    0  502  503 -0.00000000000E+00 -0.00000000000E+00 -0.37144943517E+03  0.37144943517E+03  0.00000000000E+00 0. -1.
          2    1    1    2  501    0  0.20739721204E+02  0.12879682939E+02 -0.13058288689E+03  0.13284544636E+03  0.00000000000E+00 0.  1.
         -2    1    1    2    0  503 -0.20739721204E+02 -0.12879682939E+02 -0.23911372643E+03  0.24035681067E+03  0.00000000000E+00 0. -1.
<mgrwt>
<rscale>  2 0.24413567E+02</rscale>
<asrwt>0</asrwt>
<pdfrwt beam="1">  1       21 0.26966478E-03 0.24413567E+02</pdfrwt>
<pdfrwt beam="2">  1       21 0.57146092E-01 0.24413567E+02</pdfrwt>
<totfact> 0.61979379E+07</totfact>
</mgrwt>
</event>
<event>
 4    1  0.2754379E+004  0.2144230E+02  0.7546771E-02  0.1718080E+00
         21   -1    0    0  503  502  0.00000000000E+00  0.00000000000E+00  0.76759370063E+01  0.76759370063E+01  0.00000000000E+00 0.  1.
         21   -1    0    0  501  503 -0.00000000000E+00 -0.00000000000E+00 -0.60178040293E+02  0.60178040293E+02  0.00000000000E+00 0. -1.
          2    1    1    2  501    0  0.21394927826E+02  0.14245073306E+01 -0.28566042950E+02  0.35718216187E+02  0.00000000000E+00 0.  1.
         -2    1    1    2    0  502 -0.21394927826E+02 -0.14245073306E+01 -0.23936060337E+02  0.32135761112E+02  0.00000000000E+00 0. -1.
<mgrwt>
<rscale>  2 0.21442298E+02</rscale>
<asrwt>0</asrwt>
<pdfrwt beam="1">  1       21 0.11809134E-02 0.21442298E+02</pdfrwt>
<pdfrwt beam="2">  1       21 0.92581599E-02 0.21442298E+02</pdfrwt>
<totfact> 0.17271227E+08</totfact>
</mgrwt>
</event>
<event>
 4    1  0.2754379E+004  0.2847468E+02  0.7546771E-02  0.1615588E+00
         21   -1    0    0  503  502  0.00000000000E+00  0.00000000000E+00  0.40895415228E+02  0.40895415228E+02  0.00000000000E+00 0.  1.
         21   -1    0    0  501  503 -0.00000000000E+00 -0.00000000000E+00 -0.61429780381E+02  0.61429780381E+02  0.00000000000E+00 0. -1.
          2    1    1    2  501    0 -0.19266205616E+02 -0.20967130412E+02 -0.52371596215E+02  0.59612006565E+02  0.00000000000E+00 0. -1.
         -2    1    1    2    0  502  0.19266205616E+02  0.20967130412E+02  0.31837231062E+02  0.42713189043E+02  0.00000000000E+00 0.  1.
<mgrwt>
<rscale>  2 0.28474677E+02</rscale>
<asrwt>0</asrwt>
<pdfrwt beam="1">  1       21 0.62916024E-02 0.28474677E+02</pdfrwt>
<pdfrwt beam="2">  1       21 0.94507354E-02 0.28474677E+02</pdfrwt>
<totfact> 0.13197350E+07</totfact>
</mgrwt>
</event>
<event>
 4    1  0.2754379E+004  0.2920598E+02  0.7546771E-02  0.1607035E+00
         21   -1    0    0  501  502  0.00000000000E+00  0.00000000000E+00  0.29315676725E+01  0.29315676725E+01  0.00000000000E+00 0. -1.
         21   -1    0    0  502  503 -0.00000000000E+00 -0.00000000000E+00 -0.38873529914E+03  0.38873529914E+03  0.00000000000E+00 0.  1.
          2    1    1    2  501    0 -0.29166497307E+02 -0.15180897031E+01 -0.94691099793E+02  0.99092853131E+02  0.00000000000E+00 0. -1.
         -2    1    1    2    0  503  0.29166497307E+02  0.15180897031E+01 -0.29111263168E+03  0.29257401369E+03  0.00000000000E+00 0.  1.
<mgrwt>
<rscale>  2 0.29205978E+02</rscale>
<asrwt>0</asrwt>
<pdfrwt beam="1">  1       21 0.45101023E-03 0.29205978E+02</pdfrwt>
<pdfrwt beam="2">  1       21 0.59805455E-01 0.29205978E+02</pdfrwt>
<totfact> 0.27574773E+07</totfact>
</mgrwt>
</event>
<event>
 4    1  0.2754379E+004  0.2004170E+02  0.7546771E-02  0.1744500E+00
         21   -1    0    0  501  502  0.00000000000E+00  0.00000000000E+00  0.38380317619E+03  0.38380317619E+03  0.00000000000E+00 0. -1.
         21   -1    0    0  502  503 -0.00000000000E+00 -0.00000000000E+00 -0.10663447372E+01  0.10663447372E+01  0.00000000000E+00 0.  1.
          2    1    1    2  501    0 -0.97202813116E+00  0.20018114174E+02  0.21758612383E+03  0.21850718756E+03  0.00000000000E+00 0.  1.
         -2    1    1    2    0  503  0.97202813116E+00 -0.20018114174E+02  0.16515070763E+03  0.16636233337E+03  0.00000000000E+00 0. -1.
<mgrwt>
<rscale>  2 0.20041700E+02</rscale>
<asrwt>0</asrwt>
<pdfrwt beam="1">  1       21 0.59046532E-01 0.20041700E+02</pdfrwt>
<pdfrwt beam="2">  1       21 0.16405334E-03 0.20041700E+02</pdfrwt>
<totfact> 0.11318996E+08</totfact>
</mgrwt>
</event>
<event>
 4    1  0.2754379E+004  0.4267317E+02  0.7546771E-02  0.1489413E+00
         21   -1    0    0  503  502  0.00000000000E+00  0.00000000000E+00  0.18692891677E+01  0.18692891677E+01  0.00000000000E+00 0. -1.
         21   -1    0    0  501  503 -0.00000000000E+00 -0.00000000000E+00 -0.14594682317E+04  0.14594682317E+04  0.00000000000E+00 0.  1.
          2    1    1    2  501    0  0.42445400490E+02  0.44030927946E+01 -0.11501359391E+04  0.11509273121E+04  0.00000000000E+00 0. -1.
         -2    1    1    2    0  502 -0.42445400490E+02 -0.44030927946E+01 -0.30746300341E+03  0.31041020878E+03  0.00000000000E+00 0.  1.
<mgrwt>
<rscale>  2 0.42673168E+02</rscale>
<asrwt>0</asrwt>
<pdfrwt beam="1">  1       21 0.28758449E-03 0.42673168E+02</pdfrwt>
<pdfrwt beam="2">  1       21 0.22453237E+00 0.42673168E+02</pdfrwt>
<totfact> 0.25545682E+06</totfact>
</mgrwt>
</event>
<event>
 4    1  0.2754379E+004  0.3674555E+02  0.7546771E-02  0.1533624E+00
         21   -1    0    0  501  502  0.00000000000E+00  0.00000000000E+00  0.11343583378E+03  0.11343583378E+03  0.00000000000E+00 0. -1.
         21   -1    0    0  502  503 -0.00000000000E+00 -0.00000000000E+00 -0.27103318285E+02  0.27103318285E+02  0.00000000000E+00 0.  1.
          2    1    1    2  501    0  0.34599884608E+02  0.12372688734E+02  0.95789953406E+02  0.10259605555E+03  0.00000000000E+00 0. -1.
         -2    1    1    2    0  503 -0.34599884608E+02 -0.12372688734E+02 -0.94574379080E+01  0.37943096515E+02  0.00000000000E+00 0.  1.
<mgrwt>
<rscale>  2 0.36745550E+02</rscale>
<asrwt>0</asrwt>
<pdfrwt beam="1">  1       21 0.17451666E-01 0.36745550E+02</pdfrwt>
<pdfrwt beam="2">  1       21 0.41697413E-02 0.36745550E+02</pdfrwt>
<totfact> 0.93737419E+06</totfact>
</mgrwt>
</event>
<event>
 4    1  0.2754379E+004  0.3314741E+02  0.7546771E-02  0.1565695E+00
         21   -1    0    0  503  502  0.00000000000E+00  0.00000000000E+00  0.16797110351E+02  0.16797110351E+02  0.00000000000E+00 0. -1.
         21   -1    0    0  501  503 -0.00000000000E+00 -0.00000000000E+00 -0.15772460305E+03  0.15772460305E+03  0.00000000000E+00 0.  1.
          2    1    1    2  501    0 -0.29461501887E+02  0.15191139278E+02 -0.13722088253E+03  0.14116770667E+03  0.00000000000E+00 0.  1.
         -2    1    1    2    0  502  0.29461501887E+02 -0.15191139278E+02 -0.37066101742E+01  0.33354006730E+02  0.00000000000E+00 0. -1.
<mgrwt>
<rscale>  2 0.33147410E+02</rscale>
<asrwt>0</asrwt>
<pdfrwt beam="1">  1       21 0.25841707E-02 0.33147410E+02</pdfrwt>
<pdfrwt beam="2">  1       21 0.24265325E-01 0.33147410E+02</pdfrwt>
<totfact> 0.10972601E+07</totfact>
</mgrwt>
</event>
<event>
 4    1  0.2754379E+004  0.2839160E+02  0.7546771E-02  0.1616579E+00
         21   -1    0    0  503  502  0.00000000000E+00  0.00000000000E+00  0.55597778094E+01  0.55597778094E+01  0.00000000000E+00 0. -1.
         21   -1    0    0  501  503 -0.00000000000E+00 -0.00000000000E+00 -0.41361523214E+03  0.41361523214E+03  0.00000000000E+00 0.  1.
          2    1    1    2  501    0  0.24358290269E+02 -0.14586189504E+02 -0.37293359505E+03  0.37401276655E+03  0.00000000000E+00 0.  1.
         -2    1    1    2    0  502 -0.24358290269E+02  0.14586189504E+02 -0.35121859278E+02  0.45162243392E+02  0.00000000000E+00 0. -1.
<mgrwt>
<rscale>  2 0.28391605E+02</rscale>
<asrwt>0</asrwt>
<pdfrwt beam="1">  1       21 0.85535031E-03 0.28391605E+02</pdfrwt>
<pdfrwt beam="2">  1       21 0.63633122E-01 0.28391605E+02</pdfrwt>
<totfact> 0.93002675E+06</totfact>
</mgrwt>
</event>
<event>
 4    1  0.2754379E+004  0.2380008E+02  0.7546771E-02  0.1678860E+00
         21   -1    0    0  503  502  0.00000000000E+00  0.00000000000E+00  0.40756454139E+02  0.40756454139E+02  0.00000000000E+00 0.  1.
         21   -1    0    0  501  503 -0.00000000000E+00 -0.00000000000E+00 -0.14709167795E+02  0.14709167795E+02  0.00000000000E+00 0. -1.
          2    1    1    2  501    0  0.23778973888E+02 -0.10021593087E+01  0.65120876310E+01  0.24674910491E+02  0.00000000000E+00 0. -1.
         -2    1    1    2    0  502 -0.23778973888E+02  0.10021593087E+01  0.19535198713E+02  0.30790711443E+02  0.00000000000E+00 0.  1.
<mgrwt>
<rscale>  2 0.23800082E+02</rscale>
<asrwt>0</asrwt>
<pdfrwt beam="1">  1       21 0.62702237E-02 0.23800082E+02</pdfrwt>
<pdfrwt beam="2">  1       21 0.22629489E-02 0.23800082E+02</pdfrwt>
<totfact> 0.12471719E+08</totfact>
</mgrwt>
</event>
<event>
 4    1  0.2754379E+004  0.4068098E+02  0.7546771E-02  0.1503259E+00
         21   -1    0    0  503  502  0.00000000000E+00  0.00000000000E+00  0.12778759857E+01  0.12778759857E+01  0.00000000000E+00 0. -1.
         21   -1    0    0  501  503 -0.00000000000E+00 -0.00000000000E+00 -0.18297882706E+04  0.18297882706E+04  0.00000000000E+00 0.  1.
          2    1    1    2  501    0  0.40217212166E+02  0.61251652146E+01 -0.14091754114E+04  0.14097624913E+04  0.00000000000E+00 0. -1.
         -2    1    1    2    0  502 -0.40217212166E+02 -0.61251652146E+01 -0.41933498320E+03  0.42130365526E+03  0.00000000000E+00 0.  1.
<mgrwt>
<rscale>  2 0.40680976E+02</rscale>
<asrwt>0</asrwt>
<pdfrwt beam="1">  1       21 0.19659541E-03 0.40680976E+02</pdfrwt>
<pdfrwt beam="2">  1       21 0.28150717E+00 0.40680976E+02</pdfrwt>
<totfact> 0.22430907E+06</totfact>
</mgrwt>
</event>
<event>
 4    1  0.2754379E+004  0.2566039E+02  0.7546771E-02  0.1651694E+00
         21   -1    0    0  503  502  0.00000000000E+00  0.00000000000E+00  0.69196554640E+01  0.69196554640E+01  0.00000000000E+00 0. -1.
         21   -1    0    0  501  503 -0.00000000000E+00 -0.00000000000E+00 -0.98843216123E+02  0.98843216123E+02  0.00000000000E+00 0.  1.
          2    1    1    2  501    0  0.35765143303E+01 -0.25409924822E+02 -0.35749975637E+02  0.44005868839E+02  0.00000000000E+00 0. -1.
         -2    1    1    2    0  502 -0.35765143303E+01  0.25409924822E+02 -0.56173585022E+02  0.61757002748E+02  0.00000000000E+00 0.  1.
<mgrwt>
<rscale>  2 0.25660392E+02</rscale>
<asrwt>0</asrwt>
<pdfrwt beam="1">  1       21 0.10645625E-02 0.25660392E+02</pdfrwt>
<pdfrwt beam="2">  1       21 0.15206647E-01 0.25660392E+02</pdfrwt>
<totfact> 0.92580650E+07</totfact>
</mgrwt>
</event>
<event>
 4    1  0.2754379E+004  0.2731986E+02  0.7546771E-02  0.1629756E+00
         21   -1    0    0  503  502  0.00000000000E+00  0.00000000000E+00  0.99961710657E+02  0.99961710657E+02  0.00000000000E+00 0.  1.
         21   -1    0    0  501  503 -0.00000000000E+00 -0.00000000000E+00 -0.78694329864E+01  0.78694329864E+01  0.00000000000E+00 0. -1.
          2    1    1    2  501    0 -0.18907292160E+02  0.19720271833E+02  0.33847786214E+02  0.43497671772E+02  0.00000000000E+00 0. -1.
         -2    1    1    2    0  502  0.18907292160E+02 -0.19720271833E+02  0.58244491457E+02  0.64333471872E+02  0.00000000000E+00 0.  1.
<mgrwt>
<rscale>  2 0.27319861E+02</rscale>
<asrwt>0</asrwt>
<pdfrwt beam="1">  1       21 0.15378724E-01 0.27319861E+02</pdfrwt>
<pdfrwt beam="2">  1       21 0.12106821E-02 0.27319861E+02</pdfrwt>
<totfact> 0.75915640E+07</totfact>
</mgrwt>
</event>
<event>
 4    1  0.2754379E+004  0.2876150E+02  0.7546771E-02  0.1612196E+00
         21   -1    0    0  501  502  0.00000000000E+00  0.00000000000E+00  0.16666402081E+02  0.16666402081E+02  0.00000000000E+00 0. -1.
         21   -1    0    0  502  503 -0.00000000000E+00 -0.00000000000E+00 -0.80764225920E+02  0.80764225920E+02  0.00000000000E+00 0.  1.
          2    1    1    2  501    0  0.26160121525E+02 -0.11952897270E+02 -0.18044643911E+01  0.28818046483E+02  0.00000000000E+00 0. -1.
         -2    1    1    2    0  503 -0.26160121525E+02  0.11952897270E+02 -0.62293359447E+02  0.68612581518E+02  0.00000000000E+00 0.  1.
<mgrwt>
<rscale>  2 0.28761497E+02</rscale>
<asrwt>0</asrwt>
<pdfrwt beam="1">  1       21 0.25640618E-02 0.28761497E+02</pdfrwt>
<pdfrwt beam="2">  1       21 0.12425266E-01 0.28761497E+02</pdfrwt>
<totfact> 0.34824969E+07</totfact>
</mgrwt>
</event>
<event>
 4    1  0.2754379E+004  0.2194729E+02  0.7546771E-02  0.1709165E+00
         21   -1    0    0  503  502  0.00000000000E+00  0.00000000000E+00  0.55032417165E+01  0.55032417165E+01  0.00000000000E+00 0.  1.
         21   -1    0    0  501  503 -0.00000000000E+00 -0.00000000000E+00 -0.11480273199E+03  0.11480273199E+03  0.00000000000E+00 0. -1.
          2    1    1    2  501    0  0.21922854701E+02  0.10354437255E+01 -0.83969961732E+02  0.86790772408E+02  0.00000000000E+00 0. -1.
         -2    1    1    2    0  502 -0.21922854701E+02 -0.10354437255E+01 -0.25329528544E+02  0.33515201301E+02  0.00000000000E+00 0.  1.
<mgrwt>
<rscale>  2 0.21947294E+02</rscale>
<asrwt>0</asrwt>
<pdfrwt beam="1">  1       21 0.84665265E-03 0.21947294E+02</pdfrwt>
<pdfrwt beam="2">  1       21 0.17661957E-01 0.21947294E+02</pdfrwt>
<totfact> 0.96801074E+07</totfact>
</mgrwt>
</event>
<event>
 4    1  0.2754379E+004  0.2274900E+02  0.7546771E-02  0.1695611E+00
         21   -1    0    0  501  502  0.00000000000E+00  0.00000000000E+00  0.37199353185E+03  0.37199353185E+03  0.00000000000E+00 0.  1.
         21   -1    0    0  502  503 -0.00000000000E+00 -0.00000000000E+00 -0.17875604362E+01  0.17875604362E+01  0.00000000000E+00 0. -1.
          2    1    1    2  501    0 -0.12144265417E+02  0.19236266831E+02  0.27310700228E+03  0.27405282673E+03  0.00000000000E+00 0.  1.
         -2    1    1    2    0  503  0.12144265417E+02 -0.19236266831E+02  0.97098969140E+02  0.99728265563E+02  0.00000000000E+00 0. -1.
<mgrwt>
<rscale>  2 0.22749003E+02</rscale>
<asrwt>0</asrwt>
<pdfrwt beam="1">  1       21 0.57229712E-01 0.22749003E+02</pdfrwt>
<pdfrwt beam="2">  1       21 0.27500959E-03 0.22749003E+02</pdfrwt>
<totfact> 0.59062189E+07</totfact>
</mgrwt>
</event>
<event>
 4    1  0.2754379E+004  0.2659962E+02  0.7546771E-02  0.1639035E+00
         21   -1    0    0  503  502  0.00000000000E+00  0.00000000000E+00  0.85448554587E+03  0.85448554587E+03  0.00000000000E+00 0.  1.
         21   -1    0    0  501  503 -0.00000000000E+00 -0.00000000000E+00 -0.82867194825E+00  0.82867194825E+00  0.00000000000E+00 0. -1.
          2    1    1    2  501    0  0.25401420401E+02 -0.78935199572E+01  0.41492711122E+03  0.41577884439E+03  0.00000000000E+00 0. -1.
         -2    1    1    2    0  502 -0.25401420401E+02  0.78935199572E+01  0.43872976271E+03  0.43953537344E+03  0.00000000000E+00 0.  1.
<mgrwt>
<rscale>  2 0.26599621E+02</rscale>
<asrwt>0</asrwt>
<pdfrwt beam="1">  1       21 0.13145861E+00 0.26599621E+02</pdfrwt>
<pdfrwt beam="2">  1       21 0.12748868E-03 0.26599621E+02</pdfrwt>
<totfact> 0.31225059E+07</totfact>
</mgrwt>
</event>
<event>
 4    1  0.2754379E+004  0.2373067E+02  0.7546771E-02  0.1679933E+00
         21   -1    0    0  503  502  0.00000000000E+00  0.00000000000E+00  0.31381708939E+02  0.31381708939E+02  0.00000000000E+00 0. -1.
         21   -1    0    0  501  503 -0.00000000000E+00 -0.00000000000E+00 -0.55062628968E+02  0.55062628968E+02  0.00000000000E+00 0.  1.
          2    1    1    2  501    0 -0.92554452763E+01  0.21851352880E+02 -0.47327369217E+02  0.52943599868E+02  0.00000000000E+00 0.  1.
         -2    1    1    2    0  502  0.92554452763E+01 -0.21851352880E+02  0.23646449188E+02  0.33500738039E+02  0.00000000000E+00 0. -1.
<mgrwt>
<rscale>  2 0.23730674E+02</rscale>
<asrwt>0</asrwt>
<pdfrwt beam="1">  1       21 0.48279552E-02 0.23730674E+02</pdfrwt>
<pdfrwt beam="2">  1       21 0.84711737E-02 0.23730674E+02</pdfrwt>
<totfact> 0.23329652E+07</totfact>
</mgrwt>
</event>
<event>
 4    1  0.2754379E+004  0.2473000E+02  0.7546771E-02  0.1664911E+00
         21   -1    0    0  501  502  0.00000000000E+00  0.00000000000E+00  0.36548066792E+02  0.36548066792E+02  0.00000000000E+00 0. -1.
         21   -1    0    0  502  503 -0.00000000000E+00 -0.00000000000E+00 -0.47113136722E+02  0.47113136722E+02  0.00000000000E+00 0.  1.
          2    1    1    2  501    0 -0.19655364774E+00 -0.24729217992E+02  0.28307868141E+02  0.37588671891E+02  0.00000000000E+00 0. -1.
         -2    1    1    2    0  503  0.19655364774E+00  0.24729217992E+02 -0.38872938072E+02  0.46072531623E+02  0.00000000000E+00 0.  1.
<mgrwt>
<rscale>  2 0.24729999E+02</rscale>
<asrwt>0</asrwt>
<pdfrwt beam="1">  1       21 0.56227795E-02 0.24729999E+02</pdfrwt>
<pdfrwt beam="2">  1       21 0.72481749E-02 0.24729999E+02</pdfrwt>
<totfact> 0.23807376E+07</totfact>
</mgrwt>
</event>
<event>
 4    1  0.2754379E+004  0.2036775E+02  0.7546771E-02  0.1738112E+00
         21   -1    0    0  503  502  0.00000000000E+00  0.00000000000E+00  0.11773566899E+03  0.11773566899E+03  0.00000000000E+00 0.  1.
         21   -1    0    0  501  503 -0.00000000000E+00 -0.00000000000E+00 -0.17969597374E+02  0.17969597374E+02  0.00000000000E+00 0. -1.
          2    1    1    2  501    0  0.18088316661E+02  0.93625845592E+01 -0.10954602618E+02  0.23126791991E+02  0.00000000000E+00 0. -1.
         -2    1    1    2    0  502 -0.18088316661E+02 -0.93625845592E+01  0.11072067423E+03  0.11257847437E+03  0.00000000000E+00 0.  1.
<mgrwt>
<rscale>  2 0.20367749E+02</rscale>
<asrwt>0</asrwt>
<pdfrwt beam="1">  1       21 0.18113179E-01 0.20367749E+02</pdfrwt>
<pdfrwt beam="2">  1       21 0.27645535E-02 0.20367749E+02</pdfrwt>
<totfact> 0.15112063E+07</totfact>
</mgrwt>
</event>
<event>
 4    1  0.2754379E+004  0.2143472E+02  0.7546771E-02  0.1718216E+00
         21   -1    0    0  503  502  0.00000000000E+00  0.00000000000E+00  0.91664815280E+03  0.91664815280E+03  0.00000000000E+00 0.  1.
         21   -1    0    0  501  503 -0.00000000000E+00 -0.00000000000E+00 -0.86420787608E+00  0.86420787608E+00  0.00000000000E+00 0. -1.
          2    1    1    2  501    0  0.21419952108E+02  0.79559400053E+00  0.16057776708E+03  0.16200205739E+03  0.00000000000E+00 0. -1.
         -2    1    1    2    0  502 -0.21419952108E+02 -0.79559400053E+00  0.75520617784E+03  0.75551030329E+03  0.00000000000E+00 0.  1.
<mgrwt>
<rscale>  2 0.21434722E+02</rscale>
<asrwt>0</asrwt>
<pdfrwt beam="1">  1       21 0.14102201E+00 0.21434722E+02</pdfrwt>
<pdfrwt beam="2">  1       21 0.13295579E-03 0.21434722E+02</pdfrwt>
<totfact> 0.24014772E+07</totfact>
</mgrwt>
</event>
<event>
 4    1  0.2754379E+004  0.3444583E+02  0.7546771E-02  0.1553577E+00
         21   -1    0    0  501  502  0.00000000000E+00  0.00000000000E+00  0.22409252955E+03  0.22409252955E+03  0.00000000000E+00 0. -1.
         21   -1    0    0  502  503 -0.00000000000E+00 -0.00000000000E+00 -0.30663997182E+02  0.30663997182E+02  0.00000000000E+00 0.  1.
          2    1    1    2  501    0 -0.33666289307E+02 -0.72867137450E+01  0.21257457461E+03  0.21534731250E+03  0.00000000000E+00 0. -1.
         -2    1    1    2    0  503  0.33666289307E+02  0.72867137450E+01 -0.19146042238E+02  0.39409214230E+02  0.00000000000E+00 0.  1.
<mgrwt>
<rscale>  2 0.34445830E+02</rscale>
<asrwt>0</asrwt>
<pdfrwt beam="1">  1       21 0.34475773E-01 0.34445830E+02</pdfrwt>
<pdfrwt beam="2">  1       21 0.47175382E-02 0.34445830E+02</pdfrwt>
<totfact> 0.22192159E+06</totfact>
</mgrwt>
</event>
<event>
 4    1  0.2754379E+004  0.2989810E+02  0.7546771E-02  0.1599218E+00
         21   -1    0    0  501  502  0.00000000000E+00  0.00000000000E+00  0.11967299016E+02  0.11967299016E+02  0.00000000000E+00 0.  1.
         21   -1    0    0  502  503 -0.00000000000E+00 -0.00000000000E+00 -0.12719951020E+03  0.12719951020E+03  0.00000000000E+00 0. -1.
          2    1    1    2  501    0  0.53868520224E+01 -0.29408807736E+02 -0.12910529730E+02  0.32566515396E+02  0.00000000000E+00 0.  1.
         -2    1    1    2    0  503 -0.53868520224E+01  0.29408807736E+02 -0.10232168146E+03  0.10660029382E+03  0.00000000000E+00 0. -1.
<mgrwt>
<rscale>  2 0.29898096E+02</rscale>
<asrwt>0</asrwt>
<pdfrwt beam="1">  1       21 0.18411230E-02 0.29898096E+02</pdfrwt>
<pdfrwt beam="2">  1       21 0.19569154E-01 0.29898096E+02</pdfrwt>
<totfact> 0.26806530E+07</totfact>
</mgrwt>
</event>
<event>
 4    1  0.2754379E+004  0.3349846E+02  0.7546771E-02  0.1562354E+00
         21   -1    0    0  503  502  0.00000000000E+00  0.00000000000E+00  0.11353007428E+02  0.11353007428E+02  0.00000000000E+00 0.  1.
         21   -1    0    0  501  503 -0.00000000000E+00 -0.00000000000E+00 -0.11667678775E+03  0.11667678775E+03  0.00000000000E+00 0. -1.
          2    1    1    2  501    0  0.26588433551E+02  0.20376504899E+02 -0.77690142643E+02  0.84604403044E+02  0.00000000000E+00 0.  1.
         -2    1    1    2    0  502 -0.26588433551E+02 -0.20376504899E+02 -0.27633637680E+02  0.43425392134E+02  0.00000000000E+00 0. -1.
<mgrwt>
<rscale>  2 0.33498459E+02</rscale>
<asrwt>0</asrwt>
<pdfrwt beam="1">  1       21 0.17466166E-02 0.33498459E+02</pdfrwt>
<pdfrwt beam="2">  1       21 0.17950274E-01 0.33498459E+02</pdfrwt>
<totfact> 0.34593445E+07</totfact>
</mgrwt>
</event>
<event>
 4    1  0.2754379E+004  0.2152665E+02  0.7546771E-02  0.1716569E+00
         21   -1    0    0  501  502  0.00000000000E+00  0.00000000000E+00  0.96001491271E+01  0.96001491271E+01  0.00000000000E+00 0.  1.
         21   -1    0    0  502  503 -0.00000000000E+00 -0.00000000000E+00 -0.64088206291E+02  0.64088206291E+02  0.00000000000E+00 0. -1.
          2    1    1    2  501    0  0.20936033538E+02  0.50079270032E+01 -0.89393625495E+01  0.23308990453E+02  0.00000000000E+00 0.  1.
         -2    1    1    2    0  503 -0.20936033538E+02 -0.50079270032E+01 -0.45548694615E+02  0.50379364965E+02  0.00000000000E+00 0. -1.
<mgrwt>
<rscale>  2 0.21526654E+02</rscale>
<asrwt>0</asrwt>
<pdfrwt beam="1">  1       21 0.14769460E-02 0.21526654E+02</pdfrwt>
<pdfrwt beam="2">  1       21 0.98597242E-02 0.21526654E+02</pdfrwt>
<totfact> 0.11120987E+08</totfact>
</mgrwt>
</event>
<event>
 4    1  0.2754379E+004  0.2087065E+02  0.7546771E-02  0.1728549E+00
         21   -1    0    0  501  502  0.00000000000E+00  0.00000000000E+00  0.41801499934E+02  0.41801499934E+02  0.00000000000E+00 0.  1.
         21   -1    0    0  502  503 -0.00000000000E+00 -0.00000000000E+00 -0.11329636042E+02  0.11329636042E+02  0.00000000000E+00 0. -1.
          2    1    1    2  501    0  0.14817989055E+02 -0.14697322000E+02  0.22762099426E+02  0.30881988988E+02  0.00000000000E+00 0. -1.
         -2    1    1    2    0  503 -0.14817989055E+02  0.14697322000E+02  0.77097644660E+01  0.22249146988E+02  0.00000000000E+00 0.  1.
<mgrwt>
<rscale>  2 0.20870651E+02</rscale>
<asrwt>0</asrwt>
<pdfrwt beam="1">  1       21 0.64309999E-02 0.20870651E+02</pdfrwt>
<pdfrwt beam="2">  1       21 0.17430210E-02 0.20870651E+02</pdfrwt>
<totfact> 0.17163000E+08</totfact>
</mgrwt>
</event>
<event>
 4    1  0.2754379E+004  0.2359516E+02  0.7546771E-02  0.1682040E+00
         21   -1    0    0  503  502  0.00000000000E+00  0.00000000000E+00  0.65240787849E+01  0.65240787849E+01  0.00000000000E+00 0. -1.
         21   -1    0    0  501  503 -0.00000000000E+00 -0.00000000000E+00 -0.11503645043E+03  0.11503645043E+03  0.00000000000E+00 0.  1.
          2    1    1    2  501    0  0.89570268893E+01  0.21828956623E+02 -0.85140242075E+02  0.88349264278E+02  0.00000000000E+00 0.  1.
         -2    1    1    2    0  502 -0.89570268893E+01 -0.21828956623E+02 -0.23372129565E+02  0.33211264932E+02  0.00000000000E+00 0. -1.
<mgrwt>
<rscale>  2 0.23595162E+02</rscale>
<asrwt>0</asrwt>
<pdfrwt beam="1">  1       21 0.10037045E-02 0.23595162E+02</pdfrwt>
<pdfrwt beam="2">  1       21 0.17697914E-01 0.23595162E+02</pdfrwt>
<totfact> 0.76253812E+07</totfact>
</mgrwt>
</event>
<event>
 4    1  0.2754379E+004  0.4969653E+02  0.7546771E-02  0.1446985E+00
         21   -1    0    0  503  502  0.00000000000E+00  0.00000000000E+00  0.16101011885E+03  0.16101011885E+03  0.00000000000E+00 0.  1.
         21   -1    0    0  501  503 -0.00000000000E+00 -0.00000000000E+00 -0.18093888822E+02  0.18093888822E+02  0.00000000000E+00 0. -1.
          2    1    1    2  501    0  0.26751960337E+02 -0.41881712490E+02  0.36515452161E+02  0.61669469509E+02  0.00000000000E+00 0. -1.
         -2    1    1    2    0  502 -0.26751960337E+02  0.41881712490E+02  0.10640077787E+03  0.11743453816E+03  0.00000000000E+00 0.  1.
<mgrwt>
<rscale>  2 0.49696531E+02</rscale>
<asrwt>0</asrwt>
<pdfrwt beam="1">  1       21 0.24770787E-01 0.49696531E+02</pdfrwt>
<pdfrwt beam="2">  1       21 0.27836753E-02 0.49696531E+02</pdfrwt>
<totfact> 0.99187548E+06</totfact>
</mgrwt>
</event>
<event>
 4    1  0.2754379E+004  0.2069172E+02  0.7546771E-02  0.1731912E+00
         21   -1    0    0  501  502  0.00000000000E+00  0.00000000000E+00  0.19049815970E+03  0.19049815970E+03  0.00000000000E+00 0.  1.
         21   -1    0    0  502  503 -0.00000000000E+00 -0.00000000000E+00 -0.22479652184E+01  0.22479652184E+01  0.00000000000E+00 0. -1.
          2    1    1    2  501    0 -0.65711009873E+01 -0.19620598670E+02  0.95490642762E+02  0.97706755731E+02  0.00000000000E+00 0. -1.
         -2    1    1    2    0  503  0.65711009873E+01  0.19620598670E+02  0.92759551723E+02  0.95039369191E+02  0.00000000000E+00 0.  1.
<mgrwt>
<rscale>  2 0.20691720E+02</rscale>
<asrwt>0</asrwt>
<pdfrwt beam="1">  1       21 0.29307396E-01 0.20691720E+02</pdfrwt>
<pdfrwt beam="2">  1       21 0.34584095E-03 0.20691720E+02</pdfrwt>
<totfact> 0.14598717E+08</totfact>
</mgrwt>
</event>
<event>
 4    1  0.2754379E+004  0.3221159E+02  0.7546771E-02  0.1574855E+00
         21   -1    0    0  501  502  0.00000000000E+00  0.00000000000E+00  0.63284575513E+01  0.63284575513E+01  0.00000000000E+00 0. -1.
         21   -1    0    0  502  503 -0.00000000000E+00 -0.00000000000E+00 -0.16975131838E+03  0.16975131838E+03  0.00000000000E+00 0.  1.
          2    1    1    2  501    0 -0.31798461821E+02 -0.51424284893E+01 -0.65443868992E+02  0.72941666649E+02  0.00000000000E+00 0. -1.
         -2    1    1    2    0  503  0.31798461821E+02  0.51424284893E+01 -0.97978991836E+02  0.10313810928E+03  0.00000000000E+00 0.  1.
<mgrwt>
<rscale>  2 0.32211593E+02</rscale>
<asrwt>0</asrwt>
<pdfrwt beam="1">  1       21 0.97360883E-03 0.32211593E+02</pdfrwt>
<pdfrwt beam="2">  1       21 0.26115588E-01 0.32211593E+02</pdfrwt>
<totfact> 0.43058979E+07</totfact>
</mgrwt>
</event>
<event>
 4    1  0.2754379E+004  0.2412053E+02  0.7546771E-02  0.1673965E+00
         21   -1    0    0  501  502  0.00000000000E+00  0.00000000000E+00  0.12859378522E+01  0.12859378522E+01  0.00000000000E+00 0.  1.
         21   -1    0    0  502  503 -0.00000000000E+00 -0.00000000000E+00 -0.47702303032E+03  0.47702303032E+03  0.00000000000E+00 0. -1.
          2    1    1    2  501    0  0.24117813791E+02  0.36200030083E+00 -0.18356934671E+03  0.18514725231E+03  0.00000000000E+00 0. -1.
         -2    1    1    2    0  503 -0.24117813791E+02 -0.36200030083E+00 -0.29216774576E+03  0.29316171586E+03  0.00000000000E+00 0.  1.
<mgrwt>
<rscale>  2 0.24120530E+02</rscale>
<asrwt>0</asrwt>
<pdfrwt beam="1">  1       21 0.19783668E-03 0.24120530E+02</pdfrwt>
<pdfrwt beam="2">  1       21 0.73388125E-01 0.24120530E+02</pdfrwt>
<totfact> 0.58312775E+07</totfact>
</mgrwt>
</event>
<event>
 4    1  0.2754379E+004  0.2160810E+02  0.7546771E-02  0.1715119E+00
         21   -1    0    0  503  502  0.00000000000E+00  0.00000000000E+00  0.59588708103E+02  0.59588708103E+02  0.00000000000E+00 0.  1.
         21   -1    0    0  501  503 -0.00000000000E+00 -0.00000000000E+00 -0.84609235274E+01  0.84609235274E+01  0.00000000000E+00 0. -1.
          2    1    1    2  501    0 -0.21123860303E+02 -0.45488998378E+01  0.16313532733E+02  0.27074735716E+02  0.00000000000E+00 0.  1.
         -2    1    1    2    0  502  0.21123860303E+02  0.45488998378E+01  0.34814251843E+02  0.40974895915E+02  0.00000000000E+00 0. -1.
<mgrwt>
<rscale>  2 0.21608099E+02</rscale>
<asrwt>0</asrwt>
<pdfrwt beam="1">  1       21 0.91674933E-02 0.21608099E+02</pdfrwt>
<pdfrwt beam="2">  1       21 0.13016806E-02 0.21608099E+02</pdfrwt>
<totfact> 0.15192022E+08</totfact>
</mgrwt>
</event>
<event>
 4    1  0.2754379E+004  0.2643284E+02  0.7546771E-02  0.1641235E+00
         21   -1    0    0  503  502  0.00000000000E+00  0.00000000000E+00  0.18470182867E+02  0.18470182867E+02  0.00000000000E+00 0. -1.
         21   -1    0    0  501  503 -0.00000000000E+00 -0.00000000000E+00 -0.57977543757E+02  0.57977543757E+02  0.00000000000E+00 0.  1.
          2    1    1    2  501    0 -0.25810509784E+02 -0.57019875885E+01 -0.42287476748E+02  0.49869086291E+02  0.00000000000E+00 0.  1.
         -2    1    1    2    0  502  0.25810509784E+02  0.57019875885E+01  0.27801158582E+01  0.26578640333E+02  0.00000000000E+00 0. -1.
<mgrwt>
<rscale>  2 0.26432841E+02</rscale>
<asrwt>0</asrwt>
<pdfrwt beam="1">  1       21 0.28415666E-02 0.26432841E+02</pdfrwt>
<pdfrwt beam="2">  1       21 0.89196221E-02 0.26432841E+02</pdfrwt>
<totfact> 0.50652852E+07</totfact>
</mgrwt>
</event>
<event>
 4    1  0.2754379E+004  0.2601299E+02  0.7546771E-02  0.1646864E+00
         21   -1    0    0  503  502  0.00000000000E+00  0.00000000000E+00  0.11691725850E+03  0.11691725850E+03  0.00000000000E+00 0.  1.
         21   -1    0    0  501  503 -0.00000000000E+00 -0.00000000000E+00 -0.69764797821E+01  0.69764797821E+01  0.00000000000E+00 0. -1.
          2    1    1    2  501    0  0.24341491569E+02  0.91742747783E+01  0.29398546196E+02  0.39254936606E+02  0.00000000000E+00 0. -1.
         -2    1    1    2    0  502 -0.24341491569E+02 -0.91742747783E+01  0.80542232524E+02  0.84638801678E+02  0.00000000000E+00 0.  1.
<mgrwt>
<rscale>  2 0.26012988E+02</rscale>
<asrwt>0</asrwt>
<pdfrwt beam="1">  1       21 0.17987269E-01 0.26012988E+02</pdfrwt>
<pdfrwt beam="2">  1       21 0.10733047E-02 0.26012988E+02</pdfrwt>
<totfact> 0.68685342E+07</totfact>
</mgrwt>
</event>
<event>
 4    1  0.2754379E+004  0.2011607E+02  0.7546771E-02  0.1743030E+00
         21   -1    0    0  501  502  0.00000000000E+00  0.00000000000E+00  0.90229100215E+01  0.90229100215E+01  0.00000000000E+00 0.  1.
         21   -1    0    0  502  503 -0.00000000000E+00 -0.00000000000E+00 -0.10165964771E+03  0.10165964771E+03  0.00000000000E+00 0. -1.
          2    1    1    2  501    0 -0.14036393796E+02 -0.14409579317E+02 -0.49474740417E+01  0.20715545522E+02  0.00000000000E+00 0.  1.
         -2    1    1    2    0  503  0.14036393796E+02  0.14409579317E+02 -0.87689263647E+02  0.89967012209E+02  0.00000000000E+00 0. -1.
<mgrwt>
<rscale>  2 0.20116071E+02</rscale>
<asrwt>0</asrwt>
<pdfrwt beam="1">  1       21 0.13881401E-02 0.20116071E+02</pdfrwt>
<pdfrwt beam="2">  1       21 0.15639945E-01 0.20116071E+02</pdfrwt>
<totfact> 0.55407414E+07</totfact>
</mgrwt>
</event>
<event>
 4    1  0.2754379E+004  0.3266912E+02  0.7546771E-02  0.1570330E+00
         21   -1    0    0  501  502  0.00000000000E+00  0.00000000000E+00  0.88873365010E+03  0.88873365010E+03  0.00000000000E+00 0. -1.
         21   -1    0    0  502  503 -0.00000000000E+00 -0.00000000000E+00 -0.12816594839E+01  0.12816594839E+01  0.00000000000E+00 0.  1.
          2    1    1    2  501    0 -0.28732517510E+02 -0.15547143416E+02  0.55543937154E+03  0.55639928710E+03  0.00000000000E+00 0. -1.
         -2    1    1    2    0  503  0.28732517510E+02  0.15547143416E+02  0.33201261908E+03  0.33361602248E+03  0.00000000000E+00 0.  1.
<mgrwt>
<rscale>  2 0.32669117E+02</rscale>
<asrwt>0</asrwt>
<pdfrwt beam="1">  1       21 0.13672776E+00 0.32669117E+02</pdfrwt>
<pdfrwt beam="2">  1       21 0.19717909E-03 0.32669117E+02</pdfrwt>
<totfact> 0.15624416E+07</totfact>
</mgrwt>
</event>
<event>
 4    1  0.2754379E+004  0.2019199E+02  0.7546771E-02  0.1741537E+00
         21   -1    0    0  501  502  0.00000000000E+00  0.00000000000E+00  0.18113261731E+04  0.18113261731E+04  0.00000000000E+00 0. -1.
         21   -1    0    0  502  503 -0.00000000000E+00 -0.00000000000E+00 -0.38902256859E+00  0.38902256859E+00  0.00000000000E+00 0.  1.
          2    1    1    2  501    0  0.14478733500E+02  0.14074191661E+02  0.14935011187E+04  0.14936376093E+04  0.00000000000E+00 0. -1.
         -2    1    1    2    0  503 -0.14478733500E+02 -0.14074191661E+02  0.31743603186E+03  0.31807758632E+03  0.00000000000E+00 0.  1.
<mgrwt>
<rscale>  2 0.20191993E+02</rscale>
<asrwt>0</asrwt>
<pdfrwt beam="1">  1       21 0.27865881E+00 0.20191993E+02</pdfrwt>
<pdfrwt beam="2">  1       21 0.59851076E-04 0.20191993E+02</pdfrwt>
<totfact> 0.12641806E+07</totfact>
</mgrwt>
</event>
<event>
 4    1  0.2754379E+004  0.2771062E+02  0.7546771E-02  0.1624867E+00
         21   -1    0    0  501  502  0.00000000000E+00  0.00000000000E+00  0.24325725881E+03  0.24325725881E+03  0.00000000000E+00 0. -1.
         21   -1    0    0  502  503 -0.00000000000E+00 -0.00000000000E+00 -0.32904608559E+01  0.32904608559E+01  0.00000000000E+00 0.  1.
          2    1    1    2  501    0  0.10173129607E+02 -0.25775683262E+02  0.14484251716E+03  0.14746943137E+03  0.00000000000E+00 0.  1.
         -2    1    1    2    0  503 -0.10173129607E+02  0.25775683262E+02  0.95124280802E+02  0.99078288296E+02  0.00000000000E+00 0. -1.
<mgrwt>
<rscale>  2 0.27710619E+02</rscale>
<asrwt>0</asrwt>
<pdfrwt beam="1">  1       21 0.37424179E-01 0.27710619E+02</pdfrwt>
<pdfrwt beam="2">  1       21 0.50622494E-03 0.27710619E+02</pdfrwt>
<totfact> 0.57261451E+07</totfact>
</mgrwt>
</event>
<event>
 4    1  0.2754379E+004  0.2170229E+02  0.7546771E-02  0.1713452E+00
         21   -1    0    0  503  502  0.00000000000E+00  0.00000000000E+00  0.54164366124E+02  0.54164366124E+02  0.00000000000E+00 0.  1.
         21   -1    0    0  501  503 -0.00000000000E+00 -0.00000000000E+00 -0.90596945796E+01  0.90596945796E+01  0.00000000000E+00 0. -1.
          2    1    1    2  501    0  0.15793961628E+01  0.21644747471E+02  0.16214724694E+02  0.27090715794E+02  0.00000000000E+00 0.  1.
         -2    1    1    2    0  502 -0.15793961628E+01 -0.21644747471E+02  0.28889946851E+02  0.36133344910E+02  0.00000000000E+00 0. -1.
<mgrwt>
<rscale>  2 0.21702294E+02</rscale>
<asrwt>0</asrwt>
<pdfrwt beam="1">  1       21 0.83329792E-02 0.21702294E+02</pdfrwt>
<pdfrwt beam="2">  1       21 0.13937992E-02 0.21702294E+02</pdfrwt>
<totfact> 0.16036958E+08</totfact>
</mgrwt>
</event>
<event>
 4    1  0.2754379E+004  0.2486026E+02  0.7546771E-02  0.1663017E+00
         21   -1    0    0  501  502  0.00000000000E+00  0.00000000000E+00  0.79894813496E+02  0.79894813496E+02  0.00000000000E+00 0.  1.
         21   -1    0    0  502  503 -0.00000000000E+00 -0.00000000000E+00 -0.35920683076E+02  0.35920683076E+02  0.00000000000E+00 0. -1.
          2    1    1    2  501    0 -0.13871457920E+02  0.20630441646E+02  0.73281969379E+02  0.77383974461E+02  0.00000000000E+00 0.  1.
         -2    1    1    2    0  503  0.13871457920E+02 -0.20630441646E+02 -0.29307838959E+02  0.38431522111E+02  0.00000000000E+00 0. -1.
<mgrwt>
<rscale>  2 0.24860259E+02</rscale>
<asrwt>0</asrwt>
<pdfrwt beam="1">  1       21 0.12291510E-01 0.24860259E+02</pdfrwt>
<pdfrwt beam="2">  1       21 0.55262589E-02 0.24860259E+02</pdfrwt>
<totfact> 0.10230219E+07</totfact>
</mgrwt>
</event>
<event>
 4    1  0.2754379E+004  0.2250763E+02  0.7546771E-02  0.1699618E+00
         21   -1    0    0  503  502  0.00000000000E+00  0.00000000000E+00  0.16167211153E+02  0.16167211153E+02  0.00000000000E+00 0.  1.
         21   -1    0    0  501  503 -0.00000000000E+00 -0.00000000000E+00 -0.32997579558E+02  0.32997579558E+02  0.00000000000E+00 0. -1.
          2    1    1    2  501    0 -0.21346064104E+02 -0.71371509113E+01 -0.13933726051E+02  0.26471533721E+02  0.00000000000E+00 0.  1.
         -2    1    1    2    0  502  0.21346064104E+02  0.71371509113E+01 -0.28966423550E+01  0.22693256990E+02  0.00000000000E+00 0. -1.
<mgrwt>
<rscale>  2 0.22507629E+02</rscale>
<asrwt>0</asrwt>
<pdfrwt beam="1">  1       21 0.24872633E-02 0.22507629E+02</pdfrwt>
<pdfrwt beam="2">  1       21 0.50765506E-02 0.22507629E+02</pdfrwt>
<totfact> 0.14865657E+08</totfact>
</mgrwt>
</event>
<event>
 4    1  0.2754379E+004  0.2175719E+02  0.7546771E-02  0.1712485E+00
         21   -1    0    0  503  502  0.00000000000E+00  0.00000000000E+00  0.32481867568E+02  0.32481867568E+02  0.00000000000E+00 0.  1.
         21   -1    0    0  501  503 -0.00000000000E+00 -0.00000000000E+00 -0.19276591109E+02  0.19276591109E+02  0.00000000000E+00 0. -1.
          2    1    1    2  501    0 -0.13015574228E+02 -0.17434743404E+02 -0.61801785168E+01  0.22617914505E+02  0.00000000000E+00 0.  1.
         -2    1    1    2    0  502  0.13015574228E+02  0.17434743404E+02  0.19385454976E+02  0.29140544172E+02  0.00000000000E+00 0. -1.
<mgrwt>
<rscale>  2 0.21757193E+02</rscale>
<asrwt>0</asrwt>
<pdfrwt beam="1">  1       21 0.49972104E-02 0.21757193E+02</pdfrwt>
<pdfrwt beam="2">  1       21 0.29656294E-02 0.21757193E+02</pdfrwt>
<totfact> 0.11489310E+08</totfact>
</mgrwt>
</event>
<event>
 4    1  0.2754379E+004  0.2083018E+02  0.7546771E-02  0.1729306E+00
         21   -1    0    0  503  502  0.00000000000E+00  0.00000000000E+00  0.46729564158E+01  0.46729564158E+01  0.00000000000E+00 0. -1.
         21   -1    0    0  501  503 -0.00000000000E+00 -0.00000000000E+00 -0.12221934997E+03  0.12221934997E+03  0.00000000000E+00 0.  1.
          2    1    1    2  501    0  0.16454864392E+02  0.12772380230E+02 -0.89873389894E+02  0.92255744916E+02  0.00000000000E+00 0. -1.
         -2    1    1    2    0  502 -0.16454864392E+02 -0.12772380230E+02 -0.27673003661E+02  0.34636561471E+02  0.00000000000E+00 0.  1.
<mgrwt>
<rscale>  2 0.20830177E+02</rscale>
<asrwt>0</asrwt>
<pdfrwt beam="1">  1       21 0.71891634E-03 0.20830177E+02</pdfrwt>
<pdfrwt beam="2">  1       21 0.18802978E-01 0.20830177E+02</pdfrwt>
<totfact> 0.10920386E+08</totfact>
</mgrwt>
</event>
<event>
 4    1  0.2754379E+004  0.2688334E+02  0.7546771E-02  0.1635337E+00
         21   -1    0    0  503  502  0.00000000000E+00  0.00000000000E+00  0.12773411856E+03  0.12773411856E+03  0.00000000000E+00 0.  1.
         21   -1    0    0  501  503 -0.00000000000E+00 -0.00000000000E+00 -0.83897136873E+01  0.83897136873E+01  0.00000000000E+00 0. -1.
          2    1    1    2  501    0  0.26045870718E+02  0.66578250013E+01  0.20834664282E+02  0.34011722258E+02  0.00000000000E+00 0. -1.
         -2    1    1    2    0  502 -0.26045870718E+02 -0.66578250013E+01  0.98509740593E+02  0.10211210999E+03  0.00000000000E+00 0.  1.
<mgrwt>
<rscale>  2 0.26883341E+02</rscale>
<asrwt>0</asrwt>
<pdfrwt beam="1">  1       21 0.19651401E-01 0.26883341E+02</pdfrwt>
<pdfrwt beam="2">  1       21 0.12907253E-02 0.26883341E+02</pdfrwt>
<totfact> 0.44839716E+07</totfact>
</mgrwt>
</event>
<event>
 4    1  0.2754379E+004  0.2213830E+02  0.7546771E-02  0.1705871E+00
         21   -1    0    0  503  502  0.00000000000E+00  0.00000000000E+00  0.74805558359E+02  0.74805558359E+02  0.00000000000E+00 0.  1.
         21   -1    0    0  501  503 -0.00000000000E+00 -0.00000000000E+00 -0.93980748190E+01  0.93980748190E+01  0.00000000000E+00 0. -1.
          2    1    1    2  501    0 -0.15967078191E+02 -0.15334818084E+02  0.95337029020E+01  0.24103852859E+02  0.00000000000E+00 0. -1.
         -2    1    1    2    0  502  0.15967078191E+02  0.15334818084E+02  0.55873780637E+02  0.60099780319E+02  0.00000000000E+00 0.  1.
<mgrwt>
<rscale>  2 0.22138298E+02</rscale>
<asrwt>0</asrwt>
<pdfrwt beam="1">  1       21 0.11508547E-01 0.22138298E+02</pdfrwt>
<pdfrwt beam="2">  1       21 0.14458577E-02 0.22138298E+02</pdfrwt>
<totfact> 0.89607677E+07</totfact>
</mgrwt>
</event>
<event>
 4    1  0.2754379E+004  0.3825046E+02  0.7546771E-02  0.1521496E+00
         21   -1    0    0  501  502  0.00000000000E+00  0.00000000000E+00  0.43464285515E+03  0.43464285515E+03  0.00000000000E+00 0.  1.
         21   -1    0    0  502  503 -0.00000000000E+00 -0.00000000000E+00 -0.42089678279E+01  0.42089678279E+01  0.00000000000E+00 0. -1.
          2    1    1    2  501    0  0.18654122437E+02  0.33393431198E+02  0.31340359547E+03  0.31572917380E+03  0.00000000000E+00 0.  1.
         -2    1    1    2    0  503 -0.18654122437E+02 -0.33393431198E+02  0.11703029185E+03  0.12312264918E+03  0.00000000000E+00 0. -1.
<mgrwt>
<rscale>  2 0.38250458E+02</rscale>
<asrwt>0</asrwt>
<pdfrwt beam="1">  1       21 0.66868096E-01 0.38250458E+02</pdfrwt>
<pdfrwt beam="2">  1       21 0.64753385E-03 0.38250458E+02</pdfrwt>
<totfact> 0.13325287E+07</totfact>
</mgrwt>
</event>
<event>
 4    1  0.2754379E+004  0.3587859E+02  0.7546771E-02  0.1540934E+00
         21   -1    0    0  501  502  0.00000000000E+00  0.00000000000E+00  0.80473783897E+02  0.80473783897E+02  0.00000000000E+00 0. -1.
         21   -1    0    0  502  503 -0.00000000000E+00 -0.00000000000E+00 -0.16242009963E+02  0.16242009963E+02  0.00000000000E+00 0.  1.
          2    1    1    2  501    0  0.31871610185E+02  0.16476451204E+02  0.26166576947E+02  0.44406786972E+02  0.00000000000E+00 0. -1.
         -2    1    1    2    0  503 -0.31871610185E+02 -0.16476451204E+02  0.38065196987E+02  0.52309006889E+02  0.00000000000E+00 0.  1.
<mgrwt>
<rscale>  2 0.35878587E+02</rscale>
<asrwt>0</asrwt>
<pdfrwt beam="1">  1       21 0.12380582E-01 0.35878587E+02</pdfrwt>
<pdfrwt beam="2">  1       21 0.24987708E-02 0.35878587E+02</pdfrwt>
<totfact> 0.38147497E+07</totfact>
</mgrwt>
</event>
<event>
 4    1  0.2754379E+004  0.2925587E+02  0.7546771E-02  0.1606463E+00
         21   -1    0    0  503  502  0.00000000000E+00  0.00000000000E+00  0.37487679821E+01  0.37487679821E+01  0.00000000000E+00 0. -1.
         21   -1    0    0  501  503 -0.00000000000E+00 -0.00000000000E+00 -0.30161730132E+03  0.30161730132E+03  0.00000000000E+00 0.  1.
          2    1    1    2  501    0 -0.11733294838E+02 -0.26799920495E+02 -0.22420336854E+03  0.22610408313E+03  0.00000000000E+00 0.  1.
         -2    1    1    2    0  502  0.11733294838E+02  0.26799920495E+02 -0.73665164804E+02  0.79261986171E+02  0.00000000000E+00 0. -1.
<mgrwt>
<rscale>  2 0.29255870E+02</rscale>
<asrwt>0</asrwt>
<pdfrwt beam="1">  1       21 0.57673358E-03 0.29255870E+02</pdfrwt>
<pdfrwt beam="2">  1       21 0.46402658E-01 0.29255870E+02</pdfrwt>
<totfact> 0.31618460E+07</totfact>
</mgrwt>
</event>
<event>
 4    1  0.2754379E+004  0.2495348E+02  0.7546771E-02  0.1661671E+00
         21   -1    0    0  501  502  0.00000000000E+00  0.00000000000E+00  0.99681720026E+00  0.99681720026E+00  0.00000000000E+00 0. -1.
         21   -1    0    0  502  503 -0.00000000000E+00 -0.00000000000E+00 -0.11772404823E+04  0.11772404823E+04  0.00000000000E+00 0.  1.
          2    1    1    2  501    0 -0.24849754439E+02  0.22728340683E+01 -0.18450778122E+03  0.18618753288E+03  0.00000000000E+00 0. -1.
         -2    1    1    2    0  503  0.24849754439E+02 -0.22728340683E+01 -0.99173588386E+03  0.99204976660E+03  0.00000000000E+00 0.  1.
<mgrwt>
<rscale>  2 0.24953478E+02</rscale>
<asrwt>0</asrwt>
<pdfrwt beam="1">  1       21 0.15335691E-03 0.24953478E+02</pdfrwt>
<pdfrwt beam="2">  1       21 0.18111343E+00 0.24953478E+02</pdfrwt>
<totfact> 0.10959363E+07</totfact>
</mgrwt>
</event>
<event>
 4    1  0.2754379E+004  0.2062328E+02  0.7546771E-02  0.1733210E+00
         21   -1    0    0  503  502  0.00000000000E+00  0.00000000000E+00  0.28519657550E+02  0.28519657550E+02  0.00000000000E+00 0. -1.
         21   -1    0    0  501  503 -0.00000000000E+00 -0.00000000000E+00 -0.45989004411E+02  0.45989004411E+02  0.00000000000E+00 0.  1.
          2    1    1    2  501    0 -0.17684958156E+02  0.10609522639E+02 -0.39358599422E+02  0.44434435566E+02  0.00000000000E+00 0.  1.
         -2    1    1    2    0  502  0.17684958156E+02 -0.10609522639E+02  0.21889252561E+02  0.30074226395E+02  0.00000000000E+00 0. -1.
<mgrwt>
<rscale>  2 0.20623281E+02</rscale>
<asrwt>0</asrwt>
<pdfrwt beam="1">  1       21 0.43876397E-02 0.20623281E+02</pdfrwt>
<pdfrwt beam="2">  1       21 0.70752314E-02 0.20623281E+02</pdfrwt>
<totfact> 0.35170870E+07</totfact>
</mgrwt>
</event>
<event>
 4    1  0.2754379E+004  0.2697071E+02  0.7546771E-02  0.1634209E+00
         21   -1    0    0  501  502  0.00000000000E+00  0.00000000000E+00  0.30196699145E+03  0.30196699145E+03  0.00000000000E+00 0. -1.
         21   -1    0    0  502  503 -0.00000000000E+00 -0.00000000000E+00 -0.24970542807E+01  0.24970542807E+01  0.00000000000E+00 0.  1.
          2    1    1    2  501    0 -0.90930225014E+01  0.25391657622E+02  0.17833217287E+03  0.18036014863E+03  0.00000000000E+00 0. -1.
         -2    1    1    2    0  503  0.90930225014E+01 -0.25391657622E+02  0.12113776430E+03  0.12410389710E+03  0.00000000000E+00 0.  1.
<mgrwt>
<rscale>  2 0.26970713E+02</rscale>
<asrwt>0</asrwt>
<pdfrwt beam="1">  1       21 0.46456431E-01 0.26970713E+02</pdfrwt>
<pdfrwt beam="2">  1       21 0.38416244E-03 0.26970713E+02</pdfrwt>
<totfact> 0.56653265E+07</totfact>
</mgrwt>
</event>
<event>
 4    1  0.2754379E+004  0.3274429E+02  0.7546771E-02  0.1569595E+00
         21   -1    0    0  501  502  0.00000000000E+00  0.00000000000E+00  0.12890670844E+04  0.12890670844E+04  0.00000000000E+00 0.  1.
         21   -1    0    0  502  503 -0.00000000000E+00 -0.00000000000E+00 -0.10903960275E+01  0.10903960275E+01  0.00000000000E+00 0. -1.
          2    1    1    2  501    0 -0.21422203793E+02 -0.24764448955E+02  0.95816131289E+03  0.95872065289E+03  0.00000000000E+00 0.  1.
         -2    1    1    2    0  503  0.21422203793E+02  0.24764448955E+02  0.32981537549E+03  0.33143682755E+03  0.00000000000E+00 0. -1.
<mgrwt>
<rscale>  2 0.32744293E+02</rscale>
<asrwt>0</asrwt>
<pdfrwt beam="1">  1       21 0.19831679E+00 0.32744293E+02</pdfrwt>
<pdfrwt beam="2">  1       21 0.16775427E-03 0.32744293E+02</pdfrwt>
<totfact> 0.78311072E+06</totfact>
</mgrwt>
</event>
<event>
 4    1  0.2754379E+004  0.2200890E+02  0.7546771E-02  0.1708098E+00
         21   -1    0    0  503  502  0.00000000000E+00  0.00000000000E+00  0.44375698432E+02  0.44375698432E+02  0.00000000000E+00 0.  1.
         21   -1    0    0  501  503 -0.00000000000E+00 -0.00000000000E+00 -0.17782840791E+02  0.17782840791E+02  0.00000000000E+00 0. -1.
          2    1    1    2  501    0 -0.98249010713E+01  0.19694236710E+02 -0.60169532113E+01  0.22816559044E+02  0.00000000000E+00 0. -1.
         -2    1    1    2    0  502  0.98249010713E+01 -0.19694236710E+02  0.32609810852E+02  0.39341980179E+02  0.00000000000E+00 0.  1.
<mgrwt>
<rscale>  2 0.22008899E+02</rscale>
<asrwt>0</asrwt>
<pdfrwt beam="1">  1       21 0.68270305E-02 0.22008899E+02</pdfrwt>
<pdfrwt beam="2">  1       21 0.27358217E-02 0.22008899E+02</pdfrwt>
<totfact> 0.79273149E+07</totfact>
</mgrwt>
</event>
<event>
 4    1  0.2754379E+004  0.2004035E+02  0.7546771E-02  0.1744527E+00
         21   -1    0    0  501  502  0.00000000000E+00  0.00000000000E+00  0.64982744746E+01  0.64982744746E+01  0.00000000000E+00 0.  1.
         21   -1    0    0  502  503 -0.00000000000E+00 -0.00000000000E+00 -0.63846135981E+02  0.63846135981E+02  0.00000000000E+00 0. -1.
          2    1    1    2  501    0 -0.14255500407E+02 -0.14085325823E+02 -0.34965145410E+02  0.40301080493E+02  0.00000000000E+00 0. -1.
         -2    1    1    2    0  503  0.14255500407E+02  0.14085325823E+02 -0.22382716097E+02  0.30043329963E+02  0.00000000000E+00 0.  1.
<mgrwt>
<rscale>  2 0.20040352E+02</rscale>
<asrwt>0</asrwt>
<pdfrwt beam="1">  1       21 0.99973451E-03 0.20040352E+02</pdfrwt>
<pdfrwt beam="2">  1       21 0.98224827E-02 0.20040352E+02</pdfrwt>
<totfact> 0.19692417E+08</totfact>
</mgrwt>
</event>
<event>
 4    1  0.2754379E+004  0.2236231E+02  0.7546771E-02  0.1702060E+00
         21   -1    0    0  501  502  0.00000000000E+00  0.00000000000E+00  0.33218332809E+03  0.33218332809E+03  0.00000000000E+00 0.  1.
         21   -1    0    0  502  503 -0.00000000000E+00 -0.00000000000E+00 -0.16582734229E+01  0.16582734229E+01  0.00000000000E+00 0. -1.
          2    1    1    2  501    0 -0.22096401608E+02  0.34383188827E+01  0.21594179658E+03  0.21709659719E+03  0.00000000000E+00 0.  1.
         -2    1    1    2    0  503  0.22096401608E+02 -0.34383188827E+01  0.11458325808E+03  0.11674500432E+03  0.00000000000E+00 0. -1.
<mgrwt>
<rscale>  2 0.22362312E+02</rscale>
<asrwt>0</asrwt>
<pdfrwt beam="1">  1       21 0.51105074E-01 0.22362312E+02</pdfrwt>
<pdfrwt beam="2">  1       21 0.25511925E-03 0.22362312E+02</pdfrwt>
<totfact> 0.81920947E+07</totfact>
</mgrwt>
</event>
<event>
 4    1  0.2754379E+004  0.2049451E+02  0.7546771E-02  0.1735669E+00
         21   -1    0    0  503  502  0.00000000000E+00  0.00000000000E+00  0.14857220996E+02  0.14857220996E+02  0.00000000000E+00 0.  1.
         21   -1    0    0  501  503 -0.00000000000E+00 -0.00000000000E+00 -0.17439083509E+03  0.17439083509E+03  0.00000000000E+00 0. -1.
          2    1    1    2  501    0  0.11238877093E+02  0.17138049169E+02 -0.16638209038E+03  0.16763956898E+03  0.00000000000E+00 0. -1.
         -2    1    1    2    0  502 -0.11238877093E+02 -0.17138049169E+02  0.68484762871E+01  0.21608487108E+02  0.00000000000E+00 0.  1.
<mgrwt>
<rscale>  2 0.20494514E+02</rscale>
<asrwt>0</asrwt>
<pdfrwt beam="1">  1       21 0.22857263E-02 0.20494514E+02</pdfrwt>
<pdfrwt beam="2">  1       21 0.26829360E-01 0.20494514E+02</pdfrwt>
<totfact> 0.10187839E+07</totfact>
</mgrwt>
</event>
<event>
 4    1  0.2754379E+004  0.3943384E+02  0.7546771E-02  0.1512420E+00
         21   -1    0    0  503  502  0.00000000000E+00  0.00000000000E+00  0.18109142822E+02  0.18109142822E+02  0.00000000000E+00 0.  1.
         21   -1    0    0  501  503 -0.00000000000E+00 -0.00000000000E+00 -0.90025876069E+02  0.90025876069E+02  0.00000000000E+00 0. -1.
          2    1    1    2  501    0  0.39307661658E+02 -0.31520584918E+01 -0.47575435113E+02  0.61793606174E+02  0.00000000000E+00 0. -1.
         -2    1    1    2    0  502 -0.39307661658E+02  0.31520584918E+01 -0.24341298134E+02  0.46341412717E+02  0.00000000000E+00 0.  1.
<mgrwt>
<rscale>  2 0.39433840E+02</rscale>
<asrwt>0</asrwt>
<pdfrwt beam="1">  1       21 0.27860219E-02 0.39433840E+02</pdfrwt>
<pdfrwt beam="2">  1       21 0.13850135E-01 0.39433840E+02</pdfrwt>
<totfact> 0.26950719E+07</totfact>
</mgrwt>
</event>
<event>
 4    1  0.2754379E+004  0.2419997E+02  0.7546771E-02  0.1672766E+00
         21   -1    0    0  501  502  0.00000000000E+00  0.00000000000E+00  0.30196995242E+02  0.30196995242E+02  0.00000000000E+00 0.  1.
         21   -1    0    0  502  503 -0.00000000000E+00 -0.00000000000E+00 -0.23037598053E+02  0.23037598053E+02  0.00000000000E+00 0. -1.
          2    1    1    2  501    0 -0.68097693183E+01  0.23222089149E+02  0.14165282204E+02  0.28040927277E+02  0.00000000000E+00 0.  1.
         -2    1    1    2    0  503  0.68097693183E+01 -0.23222089149E+02 -0.70058850147E+01  0.25193666018E+02  0.00000000000E+00 0. -1.
<mgrwt>
<rscale>  2 0.24199967E+02</rscale>
<asrwt>0</asrwt>
<pdfrwt beam="1">  1       21 0.46456916E-02 0.24199967E+02</pdfrwt>
<pdfrwt beam="2">  1       21 0.35442458E-02 0.24199967E+02</pdfrwt>
<totfact> 0.10074057E+08</totfact>
</mgrwt>
</event>
<event>
 4    1  0.2754379E+004  0.2380643E+02  0.7546771E-02  0.1678762E+00
         21   -1    0    0  501  502  0.00000000000E+00  0.00000000000E+00  0.69470348230E+02  0.69470348230E+02  0.00000000000E+00 0. -1.
         21   -1    0    0  502  503 -0.00000000000E+00 -0.00000000000E+00 -0.85092785076E+01  0.85092785076E+01  0.00000000000E+00 0.  1.
          2    1    1    2  501    0 -0.15569475642E+02  0.18009368104E+02  0.38401351646E+02  0.45181962325E+02  0.00000000000E+00 0. -1.
         -2    1    1    2    0  503  0.15569475642E+02 -0.18009368104E+02  0.22559718076E+02  0.32797664413E+02  0.00000000000E+00 0.  1.
<mgrwt>
<rscale>  2 0.23806426E+02</rscale>
<asrwt>0</asrwt>
<pdfrwt beam="1">  1       21 0.10687746E-01 0.23806426E+02</pdfrwt>
<pdfrwt beam="2">  1       21 0.13091198E-02 0.23806426E+02</pdfrwt>
<totfact> 0.12030056E+08</totfact>
</mgrwt>
</event>
<event>
 4    1  0.2754379E+004  0.3192051E+02  0.7546771E-02  0.1577781E+00
         21   -1    0    0  503  502  0.00000000000E+00  0.00000000000E+00  0.25107650150E+02  0.25107650150E+02  0.00000000000E+00 0. -1.
         21   -1    0    0  501  503 -0.00000000000E+00 -0.00000000000E+00 -0.66066071149E+02  0.66066071149E+02  0.00000000000E+00 0.  1.
          2    1    1    2  501    0 -0.23543035716E+02 -0.21555613254E+02 -0.48792135322E+02  0.58306015665E+02  0.00000000000E+00 0.  1.
         -2    1    1    2    0  502  0.23543035716E+02  0.21555613254E+02  0.78337143237E+01  0.32867705633E+02  0.00000000000E+00 0. -1.
<mgrwt>
<rscale>  2 0.31920511E+02</rscale>
<asrwt>0</asrwt>
<pdfrwt beam="1">  1       21 0.38627155E-02 0.31920511E+02</pdfrwt>
<pdfrwt beam="2">  1       21 0.10164011E-01 0.31920511E+02</pdfrwt>
<totfact> 0.26149348E+07</totfact>
</mgrwt>
</event>
<event>
 4    1  0.2754379E+004  0.2204687E+02  0.7546771E-02  0.1707443E+00
         21   -1    0    0  503  502  0.00000000000E+00  0.00000000000E+00  0.41950078913E+03  0.41950078913E+03  0.00000000000E+00 0. -1.
         21   -1    0    0  501  503 -0.00000000000E+00 -0.00000000000E+00 -0.21156804288E+01  0.21156804288E+01  0.00000000000E+00 0.  1.
          2    1    1    2  501    0  0.13681562962E+02 -0.17288131774E+02  0.66910925747E+02  0.70449532643E+02  0.00000000000E+00 0.  1.
         -2    1    1    2    0  502 -0.13681562962E+02  0.17288131774E+02  0.35047418295E+03  0.35116693691E+03  0.00000000000E+00 0. -1.
<mgrwt>
<rscale>  2 0.22046874E+02</rscale>
<asrwt>0</asrwt>
<pdfrwt beam="1">  1       21 0.64538517E-01 0.22046874E+02</pdfrwt>
<pdfrwt beam="2">  1       21 0.32548963E-03 0.22046874E+02</pdfrwt>
<totfact> 0.36071502E+07</totfact>
</mgrwt>
</event>
<event>
 4    1  0.2754379E+004  0.6502910E+02  0.7546771E-02  0.1377862E+00
         21   -1    0    0  501  502  0.00000000000E+00  0.00000000000E+00  0.67570679561E+01  0.67570679561E+01  0.00000000000E+00 0. -1.
         21   -1    0    0  502  503 -0.00000000000E+00 -0.00000000000E+00 -0.76105215505E+03  0.76105215505E+03  0.00000000000E+00 0.  1.
          2    1    1    2  501    0 -0.17313504300E+02  0.62681948237E+02 -0.21532534762E+03  0.22493063241E+03  0.00000000000E+00 0.  1.
         -2    1    1    2    0  503  0.17313504300E+02 -0.62681948237E+02 -0.53896973948E+03  0.54287859060E+03  0.00000000000E+00 0. -1.
<mgrwt>
<rscale>  2 0.65029102E+02</rscale>
<asrwt>0</asrwt>
<pdfrwt beam="1">  1       21 0.10395483E-02 0.65029102E+02</pdfrwt>
<pdfrwt beam="2">  1       21 0.11708502E+00 0.65029102E+02</pdfrwt>
<totfact> 0.19551652E+06</totfact>
</mgrwt>
</event>
<event>
 4    1  0.2754379E+004  0.2404778E+02  0.7546771E-02  0.1675068E+00
         21   -1    0    0  501  502  0.00000000000E+00  0.00000000000E+00  0.11023938409E+03  0.11023938409E+03  0.00000000000E+00 0.  1.
         21   -1    0    0  502  503 -0.00000000000E+00 -0.00000000000E+00 -0.76103067077E+01  0.76103067077E+01  0.00000000000E+00 0. -1.
          2    1    1    2  501    0  0.23581445431E+02 -0.47128816884E+01  0.84159286355E+02  0.87527603087E+02  0.00000000000E+00 0.  1.
         -2    1    1    2    0  503 -0.23581445431E+02  0.47128816884E+01  0.18469791024E+02  0.30322087707E+02  0.00000000000E+00 0. -1.
<mgrwt>
<rscale>  2 0.24047782E+02</rscale>
<asrwt>0</asrwt>
<pdfrwt beam="1">  1       21 0.16959904E-01 0.24047782E+02</pdfrwt>
<pdfrwt beam="2">  1       21 0.11708165E-02 0.24047782E+02</pdfrwt>
<totfact> 0.65394976E+07</totfact>
</mgrwt>
</event>
<event>
 4    1  0.2754379E+004  0.2240056E+02  0.7546771E-02  0.1701415E+00
         21   -1    0    0  501  502  0.00000000000E+00  0.00000000000E+00  0.10915335138E+03  0.10915335138E+03  0.00000000000E+00 0.  1.
         21   -1    0    0  502  503 -0.00000000000E+00 -0.00000000000E+00 -0.84403985678E+01  0.84403985678E+01  0.00000000000E+00 0. -1.
          2    1    1    2  501    0  0.21689922859E+02 -0.55975181081E+01  0.90032382345E+02  0.92777232300E+02  0.00000000000E+00 0.  1.
         -2    1    1    2    0  503 -0.21689922859E+02  0.55975181081E+01  0.10680570465E+02  0.24816517645E+02  0.00000000000E+00 0. -1.
<mgrwt>
<rscale>  2 0.22400557E+02</rscale>
<asrwt>0</asrwt>
<pdfrwt beam="1">  1       21 0.16792822E-01 0.22400557E+02</pdfrwt>
<pdfrwt beam="2">  1       21 0.12985229E-02 0.22400557E+02</pdfrwt>
<totfact> 0.55840662E+07</totfact>
</mgrwt>
</event>
<event>
 4    1  0.2754379E+004  0.2010465E+02  0.7546771E-02  0.1743255E+00
         21   -1    0    0  501  502  0.00000000000E+00  0.00000000000E+00  0.43683646218E+00  0.43683646218E+00  0.00000000000E+00 0. -1.
         21   -1    0    0  502  503 -0.00000000000E+00 -0.00000000000E+00 -0.93206147711E+03  0.93206147711E+03  0.00000000000E+00 0.  1.
          2    1    1    2  501    0  0.13103539166E+02 -0.15247767088E+02 -0.42604947807E+03  0.42652356899E+03  0.00000000000E+00 0. -1.
         -2    1    1    2    0  503 -0.13103539166E+02  0.15247767088E+02 -0.50557516258E+03  0.50597474458E+03  0.00000000000E+00 0.  1.
<mgrwt>
<rscale>  2 0.20104655E+02</rscale>
<asrwt>0</asrwt>
<pdfrwt beam="1">  1       21 0.67205525E-04 0.20104655E+02</pdfrwt>
<pdfrwt beam="2">  1       21 0.14339425E+00 0.20104655E+02</pdfrwt>
<totfact> 0.59961914E+07</totfact>
</mgrwt>
</event>
<event>
 4    1  0.2754379E+004  0.2730806E+02  0.7546771E-02  0.1629905E+00
         21   -1    0    0  503  502  0.00000000000E+00  0.00000000000E+00  0.40654852324E+02  0.40654852324E+02  0.00000000000E+00 0. -1.
         21   -1    0    0  501  503 -0.00000000000E+00 -0.00000000000E+00 -0.35417305723E+02  0.35417305723E+02  0.00000000000E+00 0.  1.
          2    1    1    2  501    0  0.68668299514E+01  0.26430600709E+02 -0.23790722941E+02  0.36217792664E+02  0.00000000000E+00 0.  1.
         -2    1    1    2    0  502 -0.68668299514E+01 -0.26430600709E+02  0.29028269542E+02  0.39854365383E+02  0.00000000000E+00 0. -1.
<mgrwt>
<rscale>  2 0.27308058E+02</rscale>
<asrwt>0</asrwt>
<pdfrwt beam="1">  1       21 0.62545927E-02 0.27308058E+02</pdfrwt>
<pdfrwt beam="2">  1       21 0.54488163E-02 0.27308058E+02</pdfrwt>
<totfact> 0.32502688E+07</totfact>
</mgrwt>
</event>
<event>
 4    1  0.2754379E+004  0.2004071E+02  0.7546771E-02  0.1744520E+00
         21   -1    0    0  503  502  0.00000000000E+00  0.00000000000E+00  0.14671144835E+03  0.14671144835E+03  0.00000000000E+00 0. -1.
         21   -1    0    0  501  503 -0.00000000000E+00 -0.00000000000E+00 -0.31517876410E+01  0.31517876410E+01  0.00000000000E+00 0.  1.
          2    1    1    2  501    0  0.18899198791E+02 -0.66671073374E+01  0.44614748127E+02  0.48909158504E+02  0.00000000000E+00 0.  1.
         -2    1    1    2    0  502 -0.18899198791E+02  0.66671073374E+01  0.98944912578E+02  0.10095407748E+03  0.00000000000E+00 0. -1.
<mgrwt>
<rscale>  2 0.20040709E+02</rscale>
<asrwt>0</asrwt>
<pdfrwt beam="1">  1       21 0.22570987E-01 0.20040709E+02</pdfrwt>
<pdfrwt beam="2">  1       21 0.48489052E-03 0.20040709E+02</pdfrwt>
<totfact> 0.14042543E+08</totfact>
</mgrwt>
</event>
<event>
 4    1  0.2754379E+004  0.6581251E+02  0.7546771E-02  0.1374941E+00
         21   -1    0    0  503  502  0.00000000000E+00  0.00000000000E+00  0.33407817200E+01  0.33407817200E+01  0.00000000000E+00 0. -1.
         21   -1    0    0  501  503 -0.00000000000E+00 -0.00000000000E+00 -0.17665654961E+04  0.17665654961E+04  0.00000000000E+00 0.  1.
          2    1    1    2  501    0 -0.15841340458E+02  0.63877531177E+02 -0.13381111448E+04  0.13397286005E+04  0.00000000000E+00 0.  1.
         -2    1    1    2    0  502  0.15841340458E+02 -0.63877531177E+02 -0.42511356961E+03  0.43017767739E+03  0.00000000000E+00 0. -1.
<mgrwt>
<rscale>  2 0.65812514E+02</rscale>
<asrwt>0</asrwt>
<pdfrwt beam="1">  1       21 0.51396457E-03 0.65812514E+02</pdfrwt>
<pdfrwt beam="2">  1       21 0.27178029E+00 0.65812514E+02</pdfrwt>
<totfact> 0.58398343E+05</totfact>
</mgrwt>
</event>
<event>
 4    1  0.2754379E+004  0.3249100E+02  0.7546771E-02  0.1572081E+00
         21   -1    0    0  503  502  0.00000000000E+00  0.00000000000E+00  0.27126284182E+01  0.27126284182E+01  0.00000000000E+00 0. -1.
         21   -1    0    0  501  503 -0.00000000000E+00 -0.00000000000E+00 -0.55191398011E+03  0.55191398011E+03  0.00000000000E+00 0.  1.
          2    1    1    2  501    0 -0.25851651279E+02  0.19681388099E+02 -0.42518915565E+03  0.42642875489E+03  0.00000000000E+00 0. -1.
         -2    1    1    2    0  502  0.25851651279E+02 -0.19681388099E+02 -0.12401219604E+03  0.12819785364E+03  0.00000000000E+00 0.  1.
<mgrwt>
<rscale>  2 0.32490997E+02</rscale>
<asrwt>0</asrwt>
<pdfrwt beam="1">  1       21 0.41732752E-03 0.32490997E+02</pdfrwt>
<pdfrwt beam="2">  1       21 0.84909829E-01 0.32490997E+02</pdfrwt>
<totfact> 0.15170556E+07</totfact>
</mgrwt>
</event>
<event>
 4    1  0.2754379E+004  0.4580043E+02  0.7546771E-02  0.1469406E+00
         21   -1    0    0  501  502  0.00000000000E+00  0.00000000000E+00  0.48940338574E+03  0.48940338574E+03  0.00000000000E+00 0.  1.
         21   -1    0    0  502  503 -0.00000000000E+00 -0.00000000000E+00 -0.45320493130E+01  0.45320493130E+01  0.00000000000E+00 0. -1.
          2    1    1    2  501    0  0.12709357411E+02  0.44001720799E+02  0.29995717432E+03  0.30343365935E+03  0.00000000000E+00 0.  1.
         -2    1    1    2    0  503 -0.12709357411E+02 -0.44001720799E+02  0.18491416211E+03  0.19050177570E+03  0.00000000000E+00 0. -1.
<mgrwt>
<rscale>  2 0.45800428E+02</rscale>
<asrwt>0</asrwt>
<pdfrwt beam="1">  1       21 0.75292787E-01 0.45800428E+02</pdfrwt>
<pdfrwt beam="2">  1       21 0.69723874E-03 0.45800428E+02</pdfrwt>
<totfact> 0.94819717E+06</totfact>
</mgrwt>
</event>
<event>
 4    1  0.2754379E+004  0.3568433E+02  0.7546771E-02  0.1542606E+00
         21   -1    0    0  503  502  0.00000000000E+00  0.00000000000E+00  0.11977220799E+03  0.11977220799E+03  0.00000000000E+00 0.  1.
         21   -1    0    0  501  503 -0.00000000000E+00 -0.00000000000E+00 -0.11914570023E+02  0.11914570023E+02  0.00000000000E+00 0. -1.
          2    1    1    2  501    0  0.34117785695E+02  0.10456950455E+02  0.32322540870E+02  0.48146835429E+02  0.00000000000E+00 0.  1.
         -2    1    1    2    0  502 -0.34117785695E+02 -0.10456950455E+02  0.75535097095E+02  0.83539942582E+02  0.00000000000E+00 0. -1.
<mgrwt>
<rscale>  2 0.35684326E+02</rscale>
<asrwt>0</asrwt>
<pdfrwt beam="1">  1       21 0.18426493E-01 0.35684326E+02</pdfrwt>
<pdfrwt beam="2">  1       21 0.18330109E-02 0.35684326E+02</pdfrwt>
<totfact> 0.31026680E+07</totfact>
</mgrwt>
</event>
<event>
 4    1  0.2754379E+004  0.2783734E+02  0.7546771E-02  0.1623303E+00
         21   -1    0    0  501  502  0.00000000000E+00  0.00000000000E+00  0.41555297595E+02  0.41555297595E+02  0.00000000000E+00 0.  1.
         21   -1    0    0  502  503 -0.00000000000E+00 -0.00000000000E+00 -0.25179316672E+02  0.25179316672E+02  0.00000000000E+00 0. -1.
          2    1    1    2  501    0  0.26678949884E+02 -0.79467531158E+01  0.25182330739E+02  0.37537541655E+02  0.00000000000E+00 0.  1.
         -2    1    1    2    0  503 -0.26678949884E+02  0.79467531158E+01 -0.88063498163E+01  0.29197072612E+02  0.00000000000E+00 0. -1.
<mgrwt>
<rscale>  2 0.27837336E+02</rscale>
<asrwt>0</asrwt>
<pdfrwt beam="1">  1       21 0.63931227E-02 0.27837336E+02</pdfrwt>
<pdfrwt beam="2">  1       21 0.38737410E-02 0.27837336E+02</pdfrwt>
<totfact> 0.54326185E+07</totfact>
</mgrwt>
</event>
<event>
 4    1  0.2754379E+004  0.3191620E+02  0.7546771E-02  0.1577825E+00
         21   -1    0    0  501  502  0.00000000000E+00  0.00000000000E+00  0.58494875213E+02  0.58494875213E+02  0.00000000000E+00 0.  1.
         21   -1    0    0  502  503 -0.00000000000E+00 -0.00000000000E+00 -0.24976285200E+02  0.24976285200E+02  0.00000000000E+00 0. -1.
          2    1    1    2  501    0  0.28219978182E+02  0.14908949987E+02  0.39724064344E+02  0.50957288451E+02  0.00000000000E+00 0.  1.
         -2    1    1    2    0  503 -0.28219978182E+02 -0.14908949987E+02 -0.62054743310E+01  0.32513871962E+02  0.00000000000E+00 0. -1.
<mgrwt>
<rscale>  2 0.31916202E+02</rscale>
<asrwt>0</asrwt>
<pdfrwt beam="1">  1       21 0.89992115E-02 0.31916202E+02</pdfrwt>
<pdfrwt beam="2">  1       21 0.38425054E-02 0.31916202E+02</pdfrwt>
<totfact> 0.32315308E+07</totfact>
</mgrwt>
</event>
<event>
 4    1  0.2754379E+004  0.2501088E+02  0.7546771E-02  0.1660846E+00
         21   -1    0    0  501  502  0.00000000000E+00  0.00000000000E+00  0.34598521988E+03  0.34598521988E+03  0.00000000000E+00 0.  1.
         21   -1    0    0  502  503 -0.00000000000E+00 -0.00000000000E+00 -0.19886995253E+01  0.19886995253E+01  0.00000000000E+00 0. -1.
          2    1    1    2  501    0  0.24945341729E+02 -0.18094266160E+01  0.22444286548E+03  0.22583211455E+03  0.00000000000E+00 0.  1.
         -2    1    1    2    0  503 -0.24945341729E+02  0.18094266160E+01  0.11955365488E+03  0.12214180485E+03  0.00000000000E+00 0. -1.
<mgrwt>
<rscale>  2 0.25010880E+02</rscale>
<asrwt>0</asrwt>
<pdfrwt beam="1">  1       21 0.53228447E-01 0.25010880E+02</pdfrwt>
<pdfrwt beam="2">  1       21 0.30595405E-03 0.25010880E+02</pdfrwt>
<totfact> 0.59654074E+07</totfact>
</mgrwt>
</event>
<event>
 4    1  0.2754379E+004  0.2097029E+02  0.7546771E-02  0.1726694E+00
         21   -1    0    0  501  502  0.00000000000E+00  0.00000000000E+00  0.21238605808E+03  0.21238605808E+03  0.00000000000E+00 0. -1.
         21   -1    0    0  502  503 -0.00000000000E+00 -0.00000000000E+00 -0.25411229901E+01  0.25411229901E+01  0.00000000000E+00 0.  1.
          2    1    1    2  501    0 -0.51175652467E+01  0.20336259837E+02  0.15116786875E+03  0.15261545623E+03  0.00000000000E+00 0. -1.
         -2    1    1    2    0  503  0.51175652467E+01 -0.20336259837E+02  0.58677066344E+02  0.62311724844E+02  0.00000000000E+00 0.  1.
<mgrwt>
<rscale>  2 0.20970287E+02</rscale>
<asrwt>0</asrwt>
<pdfrwt beam="1">  1       21 0.32674764E-01 0.20970287E+02</pdfrwt>
<pdfrwt beam="2">  1       21 0.39094217E-03 0.20970287E+02</pdfrwt>
<totfact> 0.10056274E+08</totfact>
</mgrwt>
</event>
<event>
 4    1  0.2754379E+004  0.2389704E+02  0.7546771E-02  0.1677369E+00
         21   -1    0    0  501  502  0.00000000000E+00  0.00000000000E+00  0.68350546027E+03  0.68350546027E+03  0.00000000000E+00 0. -1.
         21   -1    0    0  502  503 -0.00000000000E+00 -0.00000000000E+00 -0.13535662141E+01  0.13535662141E+01  0.00000000000E+00 0.  1.
          2    1    1    2  501    0 -0.23790176149E+02 -0.22573973060E+01  0.55292394805E+03  0.55344011479E+03  0.00000000000E+00 0.  1.
         -2    1    1    2    0  503  0.23790176149E+02  0.22573973060E+01  0.12922794600E+03  0.13141891170E+03  0.00000000000E+00 0. -1.
<mgrwt>
<rscale>  2 0.23897036E+02</rscale>
<asrwt>0</asrwt>
<pdfrwt beam="1">  1       21 0.10515441E+00 0.23897036E+02</pdfrwt>
<pdfrwt beam="2">  1       21 0.20824150E-03 0.23897036E+02</pdfrwt>
<totfact> 0.25037594E+07</totfact>
</mgrwt>
</event>
<event>
 4    1  0.2754379E+004  0.2024746E+02  0.7546771E-02  0.1740451E+00
         21   -1    0    0  501  502  0.00000000000E+00  0.00000000000E+00  0.47236814667E+02  0.47236814667E+02  0.00000000000E+00 0. -1.
         21   -1    0    0  502  503 -0.00000000000E+00 -0.00000000000E+00 -0.22856444042E+02  0.22856444042E+02  0.00000000000E+00 0.  1.
          2    1    1    2  501    0  0.18901313988E+02 -0.72594672636E+01  0.39792388005E+02  0.44647437536E+02  0.00000000000E+00 0. -1.
         -2    1    1    2    0  503 -0.18901313988E+02  0.72594672636E+01 -0.15412017381E+02  0.25445821173E+02  0.00000000000E+00 0.  1.
<mgrwt>
<rscale>  2 0.20247458E+02</rscale>
<asrwt>0</asrwt>
<pdfrwt beam="1">  1       21 0.72672022E-02 0.20247458E+02</pdfrwt>
<pdfrwt beam="2">  1       21 0.35163760E-02 0.20247458E+02</pdfrwt>
<totfact> 0.47426487E+07</totfact>
</mgrwt>
</event>
<event>
 4    1  0.2754379E+004  0.2572750E+02  0.7546771E-02  0.1650767E+00
         21   -1    0    0  501  502  0.00000000000E+00  0.00000000000E+00  0.86780215258E+02  0.86780215258E+02  0.00000000000E+00 0.  1.
         21   -1    0    0  502  503 -0.00000000000E+00 -0.00000000000E+00 -0.76787699753E+01  0.76787699753E+01  0.00000000000E+00 0. -1.
          2    1    1    2  501    0 -0.18672179547E+02 -0.17698977429E+02  0.43415139107E+02  0.50465615965E+02  0.00000000000E+00 0.  1.
         -2    1    1    2    0  503  0.18672179547E+02  0.17698977429E+02  0.35686306176E+02  0.43993369268E+02  0.00000000000E+00 0. -1.
<mgrwt>
<rscale>  2 0.25727497E+02</rscale>
<asrwt>0</asrwt>
<pdfrwt beam="1">  1       21 0.13350802E-01 0.25727497E+02</pdfrwt>
<pdfrwt beam="2">  1       21 0.11813493E-02 0.25727497E+02</pdfrwt>
<totfact> 0.98795290E+07</totfact>
</mgrwt>
</event>
<event>
 4    1  0.2754379E+004  0.2310285E+02  0.7546771E-02  0.1689848E+00
         21   -1    0    0  503  502  0.00000000000E+00  0.00000000000E+00  0.10220878136E+02  0.10220878136E+02  0.00000000000E+00 0. -1.
         21   -1    0    0  501  503 -0.00000000000E+00 -0.00000000000E+00 -0.61080531226E+02  0.61080531226E+02  0.00000000000E+00 0.  1.
          2    1    1    2  501    0  0.13824652200E+02  0.18510016327E+02 -0.39007604939E+02  0.45335802143E+02  0.00000000000E+00 0.  1.
         -2    1    1    2    0  502 -0.13824652200E+02 -0.18510016327E+02 -0.11852048151E+02  0.25965607219E+02  0.00000000000E+00 0. -1.
<mgrwt>
<rscale>  2 0.23102851E+02</rscale>
<asrwt>0</asrwt>
<pdfrwt beam="1">  1       21 0.15724428E-02 0.23102851E+02</pdfrwt>
<pdfrwt beam="2">  1       21 0.93970049E-02 0.23102851E+02</pdfrwt>
<totfact> 0.11172362E+08</totfact>
</mgrwt>
</event>
<event>
 4    1  0.2754379E+004  0.5926368E+02  0.7546771E-02  0.1400948E+00
         21   -1    0    0  501  502  0.00000000000E+00  0.00000000000E+00  0.95606693823E+03  0.95606693823E+03  0.00000000000E+00 0. -1.
         21   -1    0    0  502  503 -0.00000000000E+00 -0.00000000000E+00 -0.52196088837E+01  0.52196088837E+01  0.00000000000E+00 0.  1.
          2    1    1    2  501    0  0.20566117862E+02 -0.55580743188E+02  0.73700894476E+03  0.73938783387E+03  0.00000000000E+00 0. -1.
         -2    1    1    2    0  503 -0.20566117862E+02  0.55580743188E+02  0.21383838459E+03  0.22189871325E+03  0.00000000000E+00 0.  1.
<mgrwt>
<rscale>  2 0.59263684E+02</rscale>
<asrwt>0</asrwt>
<pdfrwt beam="1">  1       21 0.14708708E+00 0.59263684E+02</pdfrwt>
<pdfrwt beam="2">  1       21 0.80301751E-03 0.59263684E+02</pdfrwt>
<totfact> 0.16715272E+06</totfact>
</mgrwt>
</event>
<event>
 4    1  0.2754379E+004  0.2143086E+02  0.7546771E-02  0.1718285E+00
         21   -1    0    0  501  502  0.00000000000E+00  0.00000000000E+00  0.24280935479E+01  0.24280935479E+01  0.00000000000E+00 0. -1.
         21   -1    0    0  502  503 -0.00000000000E+00 -0.00000000000E+00 -0.18920978876E+03  0.18920978876E+03  0.00000000000E+00 0.  1.
          2    1    1    2  501    0  0.19340397085E+02  0.92320610984E+01 -0.91735253577E+02  0.94205300596E+02  0.00000000000E+00 0. -1.
         -2    1    1    2    0  503 -0.19340397085E+02 -0.92320610984E+01 -0.95046441632E+02  0.97432581709E+02  0.00000000000E+00 0.  1.
<mgrwt>
<rscale>  2 0.21430864E+02</rscale>
<asrwt>0</asrwt>
<pdfrwt beam="1">  1       21 0.37355270E-03 0.21430864E+02</pdfrwt>
<pdfrwt beam="2">  1       21 0.29109210E-01 0.21430864E+02</pdfrwt>
<totfact> 0.13341525E+08</totfact>
</mgrwt>
</event>
<event>
 4    1  0.2754379E+004  0.3052957E+02  0.7546771E-02  0.1592308E+00
         21   -1    0    0  501  502  0.00000000000E+00  0.00000000000E+00  0.14148503060E+03  0.14148503060E+03  0.00000000000E+00 0. -1.
         21   -1    0    0  502  503 -0.00000000000E+00 -0.00000000000E+00 -0.82877738653E+01  0.82877738653E+01  0.00000000000E+00 0.  1.
          2    1    1    2  501    0 -0.43294825735E+00  0.30526494970E+02  0.10051613126E+03  0.10505021172E+03  0.00000000000E+00 0.  1.
         -2    1    1    2    0  503  0.43294825735E+00 -0.30526494970E+02  0.32681125472E+02  0.44722592741E+02  0.00000000000E+00 0. -1.
<mgrwt>
<rscale>  2 0.30529565E+02</rscale>
<asrwt>0</asrwt>
<pdfrwt beam="1">  1       21 0.21766926E-01 0.30529565E+02</pdfrwt>
<pdfrwt beam="2">  1       21 0.12750422E-02 0.30529565E+02</pdfrwt>
<totfact> 0.39195010E+07</totfact>
</mgrwt>
</event>
<event>
 4    1  0.2754379E+004  0.2199050E+02  0.7546771E-02  0.1708416E+00
         21   -1    0    0  503  502  0.00000000000E+00  0.00000000000E+00  0.31421880697E+03  0.31421880697E+03  0.00000000000E+00 0.  1.
         21   -1    0    0  501  503 -0.00000000000E+00 -0.00000000000E+00 -0.27094424032E+01  0.27094424032E+01  0.00000000000E+00 0. -1.
          2    1    1    2  501    0 -0.11609901797E+02  0.18675982356E+02  0.51602979053E+02  0.56093222263E+02  0.00000000000E+00 0. -1.
         -2    1    1    2    0  502  0.11609901797E+02 -0.18675982356E+02  0.25990638551E+03  0.26083502711E+03  0.00000000000E+00 0.  1.
<mgrwt>
<rscale>  2 0.21990501E+02</rscale>
<asrwt>0</asrwt>
<pdfrwt beam="1">  1       21 0.48341326E-01 0.21990501E+02</pdfrwt>
<pdfrwt beam="2">  1       21 0.41683754E-03 0.21990501E+02</pdfrwt>
<totfact> 0.44412521E+07</totfact>
</mgrwt>
</event>
<event>
 4    1  0.2754379E+004  0.2100844E+02  0.7546771E-02  0.1725987E+00
         21   -1    0    0  503  502  0.00000000000E+00  0.00000000000E+00  0.65030134364E+01  0.65030134364E+01  0.00000000000E+00 0.  1.
         21   -1    0    0  501  503 -0.00000000000E+00 -0.00000000000E+00 -0.70355245945E+02  0.70355245945E+02  0.00000000000E+00 0. -1.
          2    1    1    2  501    0  0.14257757172E+02 -0.15429548294E+02 -0.39149872990E+02  0.44430475524E+02  0.00000000000E+00 0. -1.
         -2    1    1    2    0  502 -0.14257757172E+02  0.15429548294E+02 -0.24702359519E+02  0.32427783858E+02  0.00000000000E+00 0.  1.
<mgrwt>
<rscale>  2 0.21008441E+02</rscale>
<asrwt>0</asrwt>
<pdfrwt beam="1">  1       21 0.10004636E-02 0.21008441E+02</pdfrwt>
<pdfrwt beam="2">  1       21 0.10823884E-01 0.21008441E+02</pdfrwt>
<totfact> 0.17013744E+08</totfact>
</mgrwt>
</event>
<event>
 4    1  0.2754379E+004  0.2062075E+02  0.7546771E-02  0.1733258E+00
         21   -1    0    0  501  502  0.00000000000E+00  0.00000000000E+00  0.46534502284E+02  0.46534502284E+02  0.00000000000E+00 0. -1.
         21   -1    0    0  502  503 -0.00000000000E+00 -0.00000000000E+00 -0.12756145608E+02  0.12756145608E+02  0.00000000000E+00 0.  1.
          2    1    1    2  501    0 -0.14936149347E+02  0.14217128606E+02  0.32678424052E+02  0.38640583609E+02  0.00000000000E+00 0. -1.
         -2    1    1    2    0  503  0.14936149347E+02 -0.14217128606E+02  0.10999326231E+01  0.20650064283E+02  0.00000000000E+00 0.  1.
<mgrwt>
<rscale>  2 0.20620749E+02</rscale>
<asrwt>0</asrwt>
<pdfrwt beam="1">  1       21 0.71591541E-02 0.20620749E+02</pdfrwt>
<pdfrwt beam="2">  1       21 0.19624840E-02 0.20620749E+02</pdfrwt>
<totfact> 0.12008253E+08</totfact>
</mgrwt>
</event>
<event>
 4    1  0.2754379E+004  0.3326996E+02  0.7546771E-02  0.1564523E+00
         21   -1    0    0  503  502  0.00000000000E+00  0.00000000000E+00  0.92628826715E+02  0.92628826715E+02  0.00000000000E+00 0. -1.
         21   -1    0    0  501  503 -0.00000000000E+00 -0.00000000000E+00 -0.42051941207E+02  0.42051941207E+02  0.00000000000E+00 0.  1.
          2    1    1    2  501    0  0.13513857792E+02  0.30401736444E+02 -0.31686215303E+02  0.45944598936E+02  0.00000000000E+00 0.  1.
         -2    1    1    2    0  502 -0.13513857792E+02 -0.30401736444E+02  0.82263100811E+02  0.88736168985E+02  0.00000000000E+00 0. -1.
<mgrwt>
<rscale>  2 0.33269955E+02</rscale>
<asrwt>0</asrwt>
<pdfrwt beam="1">  1       21 0.14250589E-01 0.33269955E+02</pdfrwt>
<pdfrwt beam="2">  1       21 0.64695294E-02 0.33269955E+02</pdfrwt>
<totfact> 0.64533285E+06</totfact>
</mgrwt>
</event>
<event>
 4    1  0.2754379E+004  0.2036826E+02  0.7546771E-02  0.1738102E+00
         21   -1    0    0  501  502  0.00000000000E+00  0.00000000000E+00  0.31954463395E+00  0.31954463395E+00  0.00000000000E+00 0. -1.
         21   -1    0    0  502  503 -0.00000000000E+00 -0.00000000000E+00 -0.17984195976E+04  0.17984195976E+04  0.00000000000E+00 0.  1.
          2    1    1    2  501    0 -0.20340384646E+02 -0.10652038460E+01 -0.42477734809E+03  0.42526540108E+03  0.00000000000E+00 0. -1.
         -2    1    1    2    0  503  0.20340384646E+02  0.10652038460E+01 -0.13733227049E+04  0.13734737412E+04  0.00000000000E+00 0.  1.
<mgrwt>
<rscale>  2 0.20368257E+02</rscale>
<asrwt>0</asrwt>
<pdfrwt beam="1">  1       21 0.49159734E-04 0.20368257E+02</pdfrwt>
<pdfrwt beam="2">  1       21 0.27668545E+00 0.20368257E+02</pdfrwt>
<totfact> 0.17043464E+07</totfact>
</mgrwt>
</event>
<event>
 4    1  0.2754379E+004  0.2230824E+02  0.7546771E-02  0.1702975E+00
         21   -1    0    0  503  502  0.00000000000E+00  0.00000000000E+00  0.63950903725E+01  0.63950903725E+01  0.00000000000E+00 0. -1.
         21   -1    0    0  501  503 -0.00000000000E+00 -0.00000000000E+00 -0.99835442781E+02  0.99835442781E+02  0.00000000000E+00 0.  1.
          2    1    1    2  501    0 -0.63408559580E+01  0.21388111658E+02 -0.71663440353E+02  0.75055355957E+02  0.00000000000E+00 0.  1.
         -2    1    1    2    0  502  0.63408559580E+01 -0.21388111658E+02 -0.21776912055E+02  0.31175177196E+02  0.00000000000E+00 0. -1.
<mgrwt>
<rscale>  2 0.22308245E+02</rscale>
<asrwt>0</asrwt>
<pdfrwt beam="1">  1       21 0.98385998E-03 0.22308245E+02</pdfrwt>
<pdfrwt beam="2">  1       21 0.15359300E-01 0.22308245E+02</pdfrwt>
<totfact> 0.98669498E+07</totfact>
</mgrwt>
</event>
<event>
 4    1  0.2754379E+004  0.3341588E+02  0.7546771E-02  0.1563135E+00
         21   -1    0    0  503  502  0.00000000000E+00  0.00000000000E+00  0.43357887432E+02  0.43357887432E+02  0.00000000000E+00 0. -1.
         21   -1    0    0  501  503 -0.00000000000E+00 -0.00000000000E+00 -0.17534241747E+03  0.17534241747E+03  0.00000000000E+00 0.  1.
          2    1    1    2  501    0  0.49717184036E+01  0.33043954296E+02 -0.16699322203E+03  0.17030372017E+03  0.00000000000E+00 0.  1.
         -2    1    1    2    0  502 -0.49717184036E+01 -0.33043954296E+02  0.35008691988E+02  0.48396584736E+02  0.00000000000E+00 0. -1.
<mgrwt>
<rscale>  2 0.33415878E+02</rscale>
<asrwt>0</asrwt>
<pdfrwt beam="1">  1       21 0.66704443E-02 0.33415878E+02</pdfrwt>
<pdfrwt beam="2">  1       21 0.26975756E-01 0.33415878E+02</pdfrwt>
<totfact> 0.19853495E+06</totfact>
</mgrwt>
</event>
<event>
 4    1  0.2754379E+004  0.3407681E+02  0.7546771E-02  0.1556955E+00
         21   -1    0    0  503  502  0.00000000000E+00  0.00000000000E+00  0.78683416630E+01  0.78683416630E+01  0.00000000000E+00 0.  1.
         21   -1    0    0  501  503 -0.00000000000E+00 -0.00000000000E+00 -0.16123515083E+03  0.16123515083E+03  0.00000000000E+00 0. -1.
          2    1    1    2  501    0 -0.27619645473E+02 -0.19959559117E+02 -0.52079577909E+02  0.62237538924E+02  0.00000000000E+00 0.  1.
         -2    1    1    2    0  502  0.27619645473E+02  0.19959559117E+02 -0.10128723125E+03  0.10686595357E+03  0.00000000000E+00 0. -1.
<mgrwt>
<rscale>  2 0.34076808E+02</rscale>
<asrwt>0</asrwt>
<pdfrwt beam="1">  1       21 0.12105142E-02 0.34076808E+02</pdfrwt>
<pdfrwt beam="2">  1       21 0.24805406E-01 0.34076808E+02</pdfrwt>
<totfact> 0.34291543E+07</totfact>
</mgrwt>
</event>
<event>
 4    1  0.2754379E+004  0.2046830E+02  0.7546771E-02  0.1736173E+00
         21   -1    0    0  503  502  0.00000000000E+00  0.00000000000E+00  0.19512212931E+02  0.19512212931E+02  0.00000000000E+00 0. -1.
         21   -1    0    0  501  503 -0.00000000000E+00 -0.00000000000E+00 -0.21853242335E+02  0.21853242335E+02  0.00000000000E+00 0.  1.
          2    1    1    2  501    0 -0.13599996270E+02  0.15296777629E+02  0.15640352680E+01  0.20527968986E+02  0.00000000000E+00 0. -1.
         -2    1    1    2    0  502  0.13599996270E+02 -0.15296777629E+02 -0.39050646717E+01  0.20837486280E+02  0.00000000000E+00 0.  1.
<mgrwt>
<rscale>  2 0.20468300E+02</rscale>
<asrwt>0</asrwt>
<pdfrwt beam="1">  1       21 0.30018789E-02 0.20468300E+02</pdfrwt>
<pdfrwt beam="2">  1       21 0.33620373E-02 0.20468300E+02</pdfrwt>
<totfact> 0.20629874E+08</totfact>
</mgrwt>
</event>
<event>
 4    1  0.2754379E+004  0.3029917E+02  0.7546771E-02  0.1594805E+00
         21   -1    0    0  503  502  0.00000000000E+00  0.00000000000E+00  0.15021142132E+03  0.15021142132E+03  0.00000000000E+00 0.  1.
         21   -1    0    0  501  503 -0.00000000000E+00 -0.00000000000E+00 -0.15197190756E+02  0.15197190756E+02  0.00000000000E+00 0. -1.
          2    1    1    2  501    0 -0.95235427525E+01 -0.28763547056E+02  0.35598649198E+01  0.30507575191E+02  0.00000000000E+00 0. -1.
         -2    1    1    2    0  502  0.95235427525E+01  0.28763547056E+02  0.13145436565E+03  0.13490103689E+03  0.00000000000E+00 0.  1.
<mgrwt>
<rscale>  2 0.30299167E+02</rscale>
<asrwt>0</asrwt>
<pdfrwt beam="1">  1       21 0.23109448E-01 0.30299167E+02</pdfrwt>
<pdfrwt beam="2">  1       21 0.23380295E-02 0.30299167E+02</pdfrwt>
<totfact> 0.13808357E+07</totfact>
</mgrwt>
</event>
<event>
 4    1  0.2754379E+004  0.2651789E+02  0.7546771E-02  0.1640111E+00
         21   -1    0    0  501  502  0.00000000000E+00  0.00000000000E+00  0.39748182829E+01  0.39748182829E+01  0.00000000000E+00 0.  1.
         21   -1    0    0  502  503 -0.00000000000E+00 -0.00000000000E+00 -0.44916017364E+03  0.44916017364E+03  0.00000000000E+00 0. -1.
          2    1    1    2  501    0  0.25899359415E+02  0.56940237816E+01 -0.46200901469E+02  0.53270273338E+02  0.00000000000E+00 0.  1.
         -2    1    1    2    0  503 -0.25899359415E+02 -0.56940237816E+01 -0.39898445389E+03  0.39986471859E+03  0.00000000000E+00 0. -1.
<mgrwt>
<rscale>  2 0.26517894E+02</rscale>
<asrwt>0</asrwt>
<pdfrwt beam="1">  1       21 0.61151076E-03 0.26517894E+02</pdfrwt>
<pdfrwt beam="2">  1       21 0.69101536E-01 0.26517894E+02</pdfrwt>
<totfact> 0.12845791E+07</totfact>
</mgrwt>
</event>
<event>
 4    1  0.2754379E+004  0.2284448E+02  0.7546771E-02  0.1694044E+00
         21   -1    0    0  503  502  0.00000000000E+00  0.00000000000E+00  0.93912749187E+02  0.93912749187E+02  0.00000000000E+00 0. -1.
         21   -1    0    0  501  503 -0.00000000000E+00 -0.00000000000E+00 -0.55707364720E+01  0.55707364720E+01  0.00000000000E+00 0.  1.
          2    1    1    2  501    0 -0.14464499465E+02 -0.17681863487E+02  0.41698004137E+02  0.47545700018E+02  0.00000000000E+00 0. -1.
         -2    1    1    2    0  502  0.14464499465E+02  0.17681863487E+02  0.46644008578E+02  0.51937785642E+02  0.00000000000E+00 0.  1.
<mgrwt>
<rscale>  2 0.22844475E+02</rscale>
<asrwt>0</asrwt>
<pdfrwt beam="1">  1       21 0.14448114E-01 0.22844475E+02</pdfrwt>
<pdfrwt beam="2">  1       21 0.85703645E-03 0.22844475E+02</pdfrwt>
<totfact> 0.13553375E+08</totfact>
</mgrwt>
</event>
<event>
 4    1  0.2754379E+004  0.2081014E+02  0.7546771E-02  0.1729681E+00
         21   -1    0    0  503  502  0.00000000000E+00  0.00000000000E+00  0.19926746177E+01  0.19926746177E+01  0.00000000000E+00 0. -1.
         21   -1    0    0  501  503 -0.00000000000E+00 -0.00000000000E+00 -0.36774228500E+03  0.36774228500E+03  0.00000000000E+00 0.  1.
          2    1    1    2  501    0 -0.12083004516E+02  0.16942927917E+02 -0.30110675732E+03  0.30182501737E+03  0.00000000000E+00 0.  1.
         -2    1    1    2    0  502  0.12083004516E+02 -0.16942927917E+02 -0.64642853062E+02  0.67909942251E+02  0.00000000000E+00 0. -1.
<mgrwt>
<rscale>  2 0.20810137E+02</rscale>
<asrwt>0</asrwt>
<pdfrwt beam="1">  1       21 0.30656525E-03 0.20810137E+02</pdfrwt>
<pdfrwt beam="2">  1       21 0.56575750E-01 0.20810137E+02</pdfrwt>
<totfact> 0.50498626E+07</totfact>
</mgrwt>
</event>
<event>
 4    1  0.2754379E+004  0.2283462E+02  0.7546771E-02  0.1694205E+00
         21   -1    0    0  501  502  0.00000000000E+00  0.00000000000E+00  0.48707391705E+02  0.48707391705E+02  0.00000000000E+00 0. -1.
         21   -1    0    0  502  503 -0.00000000000E+00 -0.00000000000E+00 -0.23545315606E+02  0.23545315606E+02  0.00000000000E+00 0.  1.
          2    1    1    2  501    0  0.65978005966E+01  0.21860667606E+02  0.39259282261E+02  0.45417078336E+02  0.00000000000E+00 0. -1.
         -2    1    1    2    0  503 -0.65978005966E+01 -0.21860667606E+02 -0.14097206162E+02  0.26835628975E+02  0.00000000000E+00 0.  1.
<mgrwt>
<rscale>  2 0.22834618E+02</rscale>
<asrwt>0</asrwt>
<pdfrwt beam="1">  1       21 0.74934448E-02 0.22834618E+02</pdfrwt>
<pdfrwt beam="2">  1       21 0.36223563E-02 0.22834618E+02</pdfrwt>
<totfact> 0.44451746E+07</totfact>
</mgrwt>
</event>
<event>
 4    1  0.2754379E+004  0.2019713E+02  0.7546771E-02  0.1741436E+00
         21   -1    0    0  503  502  0.00000000000E+00  0.00000000000E+00  0.27087716581E+03  0.27087716581E+03  0.00000000000E+00 0.  1.
         21   -1    0    0  501  503 -0.00000000000E+00 -0.00000000000E+00 -0.15485646389E+01  0.15485646389E+01  0.00000000000E+00 0. -1.
          2    1    1    2  501    0 -0.19984469551E+02 -0.29231842425E+01  0.11206486777E+03  0.11387035882E+03  0.00000000000E+00 0.  1.
         -2    1    1    2    0  502  0.19984469551E+02  0.29231842425E+01  0.15726373341E+03  0.15855537164E+03  0.00000000000E+00 0. -1.
<mgrwt>
<rscale>  2 0.20197129E+02</rscale>
<asrwt>0</asrwt>
<pdfrwt beam="1">  1       21 0.41673372E-01 0.20197129E+02</pdfrwt>
<pdfrwt beam="2">  1       21 0.23824093E-03 0.20197129E+02</pdfrwt>
<totfact> 0.13006446E+08</totfact>
</mgrwt>
</event>
<event>
 4    1  0.2754379E+004  0.2134234E+02  0.7546771E-02  0.1719881E+00
         21   -1    0    0  501  502  0.00000000000E+00  0.00000000000E+00  0.25420676015E+02  0.25420676015E+02  0.00000000000E+00 0.  1.
         21   -1    0    0  502  503 -0.00000000000E+00 -0.00000000000E+00 -0.24149001368E+02  0.24149001368E+02  0.00000000000E+00 0. -1.
          2    1    1    2  501    0  0.19695511432E+02  0.82208329418E+01  0.13225237070E+02  0.25107810744E+02  0.00000000000E+00 0.  1.
         -2    1    1    2    0  503 -0.19695511432E+02 -0.82208329418E+01 -0.11953562424E+02  0.24461866638E+02  0.00000000000E+00 0. -1.
<mgrwt>
<rscale>  2 0.21342335E+02</rscale>
<asrwt>0</asrwt>
<pdfrwt beam="1">  1       21 0.39108733E-02 0.21342335E+02</pdfrwt>
<pdfrwt beam="2">  1       21 0.37152310E-02 0.21342335E+02</pdfrwt>
<totfact> 0.11836728E+08</totfact>
</mgrwt>
</event>
<event>
 4    1  0.2754379E+004  0.2123148E+02  0.7546771E-02  0.1721892E+00
         21   -1    0    0  501  502  0.00000000000E+00  0.00000000000E+00  0.11120713605E+01  0.11120713605E+01  0.00000000000E+00 0.  1.
         21   -1    0    0  502  503 -0.00000000000E+00 -0.00000000000E+00 -0.50446693825E+03  0.50446693825E+03  0.00000000000E+00 0. -1.
          2    1    1    2  501    0 -0.19948702598E+02 -0.72680716839E+01 -0.13962492134E+03  0.14122993401E+03  0.00000000000E+00 0.  1.
         -2    1    1    2    0  503  0.19948702598E+02  0.72680716839E+01 -0.36372994555E+03  0.36434907560E+03  0.00000000000E+00 0. -1.
<mgrwt>
<rscale>  2 0.21231477E+02</rscale>
<asrwt>0</asrwt>
<pdfrwt beam="1">  1       21 0.17108729E-03 0.21231477E+02</pdfrwt>
<pdfrwt beam="2">  1       21 0.77610575E-01 0.21231477E+02</pdfrwt>
<totfact> 0.62120339E+07</totfact>
</mgrwt>
</event>
<event>
 4    1  0.2754379E+004  0.2329723E+02  0.7546771E-02  0.1686737E+00
         21   -1    0    0  503  502  0.00000000000E+00  0.00000000000E+00  0.29404038808E+02  0.29404038808E+02  0.00000000000E+00 0.  1.
         21   -1    0    0  501  503 -0.00000000000E+00 -0.00000000000E+00 -0.24473555075E+02  0.24473555075E+02  0.00000000000E+00 0. -1.
          2    1    1    2  501    0  0.21868803610E+02 -0.80322181943E+01 -0.10889678594E+02  0.25716652200E+02  0.00000000000E+00 0. -1.
         -2    1    1    2    0  502 -0.21868803610E+02  0.80322181943E+01  0.15820162327E+02  0.28160941684E+02  0.00000000000E+00 0.  1.
<mgrwt>
<rscale>  2 0.23297234E+02</rscale>
<asrwt>0</asrwt>
<pdfrwt beam="1">  1       21 0.45236982E-02 0.23297234E+02</pdfrwt>
<pdfrwt beam="2">  1       21 0.37651623E-02 0.23297234E+02</pdfrwt>
<totfact> 0.94526839E+07</totfact>
</mgrwt>
</event>
<event>
 4    1  0.2754379E+004  0.2009937E+02  0.7546771E-02  0.1743359E+00
         21   -1    0    0  503  502  0.00000000000E+00  0.00000000000E+00  0.12194834542E+01  0.12194834542E+01  0.00000000000E+00 0. -1.
         21   -1    0    0  501  503 -0.00000000000E+00 -0.00000000000E+00 -0.36154590964E+03  0.36154590964E+03  0.00000000000E+00 0.  1.
          2    1    1    2  501    0 -0.45434958127E+01 -0.19579108276E+02 -0.23264688287E+03  0.23351350484E+03  0.00000000000E+00 0.  1.
         -2    1    1    2    0  502  0.45434958127E+01  0.19579108276E+02 -0.12767954331E+03  0.12925188825E+03  0.00000000000E+00 0. -1.
<mgrwt>
<rscale>  2 0.20099374E+02</rscale>
<asrwt>0</asrwt>
<pdfrwt beam="1">  1       21 0.18761284E-03 0.20099374E+02</pdfrwt>
<pdfrwt beam="2">  1       21 0.55622448E-01 0.20099374E+02</pdfrwt>
<totfact> 0.10515146E+08</totfact>
</mgrwt>
</event>
<event>
 4    1  0.2754379E+004  0.2128113E+02  0.7546771E-02  0.1720989E+00
         21   -1    0    0  503  502  0.00000000000E+00  0.00000000000E+00  0.86254468286E+02  0.86254468286E+02  0.00000000000E+00 0.  1.
         21   -1    0    0  501  503 -0.00000000000E+00 -0.00000000000E+00 -0.53647339695E+01  0.53647339695E+01  0.00000000000E+00 0. -1.
          2    1    1    2  501    0 -0.18194713443E+02 -0.11038061641E+02  0.33762678244E+02  0.39909959212E+02  0.00000000000E+00 0.  1.
         -2    1    1    2    0  502  0.18194713443E+02  0.11038061641E+02  0.47127056072E+02  0.51709243043E+02  0.00000000000E+00 0. -1.
<mgrwt>
<rscale>  2 0.21281128E+02</rscale>
<asrwt>0</asrwt>
<pdfrwt beam="1">  1       21 0.13269917E-01 0.21281128E+02</pdfrwt>
<pdfrwt beam="2">  1       21 0.82534375E-03 0.21281128E+02</pdfrwt>
<totfact> 0.16206612E+08</totfact>
</mgrwt>
</event>
<event>
 4    1  0.2754379E+004  0.2354882E+02  0.7546771E-02  0.1682765E+00
         21   -1    0    0  501  502  0.00000000000E+00  0.00000000000E+00  0.35457603352E+03  0.35457603352E+03  0.00000000000E+00 0.  1.
         21   -1    0    0  502  503 -0.00000000000E+00 -0.00000000000E+00 -0.10481162040E+02  0.10481162040E+02  0.00000000000E+00 0. -1.
          2    1    1    2  501    0  0.20576177159E+02  0.11452859477E+02  0.34040793551E+03  0.34122149642E+03  0.00000000000E+00 0.  1.
         -2    1    1    2    0  503 -0.20576177159E+02 -0.11452859477E+02  0.36869359648E+01  0.23835699140E+02  0.00000000000E+00 0. -1.
<mgrwt>
<rscale>  2 0.23548823E+02</rscale>
<asrwt>0</asrwt>
<pdfrwt beam="1">  1       21 0.54550150E-01 0.23548823E+02</pdfrwt>
<pdfrwt beam="2">  1       21 0.16124867E-02 0.23548823E+02</pdfrwt>
<totfact> 0.47118054E+06</totfact>
</mgrwt>
</event>
<event>
 4    1  0.2754379E+004  0.2339141E+02  0.7546771E-02  0.1685243E+00
         21   -1    0    0  501  502  0.00000000000E+00  0.00000000000E+00  0.50960686504E+01  0.50960686504E+01  0.00000000000E+00 0.  1.
         21   -1    0    0  502  503 -0.00000000000E+00 -0.00000000000E+00 -0.27598982444E+03  0.27598982444E+03  0.00000000000E+00 0. -1.
          2    1    1    2  501    0  0.22696950003E+02  0.56574372543E+01 -0.25592203084E+02  0.34671587711E+02  0.00000000000E+00 0.  1.
         -2    1    1    2    0  503 -0.22696950003E+02 -0.56574372543E+01 -0.24530155270E+03  0.24641430538E+03  0.00000000000E+00 0. -1.
<mgrwt>
<rscale>  2 0.23391412E+02</rscale>
<asrwt>0</asrwt>
<pdfrwt beam="1">  1       21 0.78401049E-03 0.23391412E+02</pdfrwt>
<pdfrwt beam="2">  1       21 0.42459977E-01 0.23391412E+02</pdfrwt>
<totfact> 0.22677295E+07</totfact>
</mgrwt>
</event>
<event>
 4    1  0.2754379E+004  0.2637685E+02  0.7546771E-02  0.1641978E+00
         21   -1    0    0  503  502  0.00000000000E+00  0.00000000000E+00  0.17890617620E+02  0.17890617620E+02  0.00000000000E+00 0. -1.
         21   -1    0    0  501  503 -0.00000000000E+00 -0.00000000000E+00 -0.39485356104E+02  0.39485356104E+02  0.00000000000E+00 0.  1.
          2    1    1    2  501    0 -0.18216720734E+02 -0.19075888556E+02 -0.14324601381E+02  0.30015540029E+02  0.00000000000E+00 0. -1.
         -2    1    1    2    0  502  0.18216720734E+02  0.19075888556E+02 -0.72701371026E+01  0.27360433695E+02  0.00000000000E+00 0.  1.
<mgrwt>
<rscale>  2 0.26376854E+02</rscale>
<asrwt>0</asrwt>
<pdfrwt beam="1">  1       21 0.27524027E-02 0.26376854E+02</pdfrwt>
<pdfrwt beam="2">  1       21 0.60746701E-02 0.26376854E+02</pdfrwt>
<totfact> 0.99643425E+07</totfact>
</mgrwt>
</event>
<event>
 4    1  0.2754379E+004  0.3636202E+02  0.7546771E-02  0.1536828E+00
         21   -1    0    0  501  502  0.00000000000E+00  0.00000000000E+00  0.18247943399E+01  0.18247943399E+01  0.00000000000E+00 0. -1.
         21   -1    0    0  502  503 -0.00000000000E+00 -0.00000000000E+00 -0.73496619271E+03  0.73496619271E+03  0.00000000000E+00 0.  1.
          2    1    1    2  501    0 -0.23685383263E+02  0.27589837465E+02 -0.32276230042E+03  0.32480409339E+03  0.00000000000E+00 0.  1.
         -2    1    1    2    0  503  0.23685383263E+02 -0.27589837465E+02 -0.41037909795E+03  0.41198689366E+03  0.00000000000E+00 0. -1.
<mgrwt>
<rscale>  2 0.36362020E+02</rscale>
<asrwt>0</asrwt>
<pdfrwt beam="1">  1       21 0.28073736E-03 0.36362020E+02</pdfrwt>
<pdfrwt beam="2">  1       21 0.11307181E+00 0.36362020E+02</pdfrwt>
<totfact> 0.14674298E+07</totfact>
</mgrwt>
</event>
<event>
 4    1  0.2754379E+004  0.2777482E+02  0.7546771E-02  0.1624073E+00
         21   -1    0    0  503  502  0.00000000000E+00  0.00000000000E+00  0.24773494678E+03  0.24773494678E+03  0.00000000000E+00 0. -1.
         21   -1    0    0  501  503 -0.00000000000E+00 -0.00000000000E+00 -0.67782477472E+01  0.67782477472E+01  0.00000000000E+00 0.  1.
          2    1    1    2  501    0  0.20170630484E+02  0.19094143274E+02  0.26912916227E+02  0.38674871704E+02  0.00000000000E+00 0.  1.
         -2    1    1    2    0  502 -0.20170630484E+02 -0.19094143274E+02  0.21404378281E+03  0.21583832283E+03  0.00000000000E+00 0. -1.
<mgrwt>
<rscale>  2 0.27774820E+02</rscale>
<asrwt>0</asrwt>
<pdfrwt beam="1">  1       21 0.38113062E-01 0.27774820E+02</pdfrwt>
<pdfrwt beam="2">  1       21 0.10428075E-02 0.27774820E+02</pdfrwt>
<totfact> 0.18740984E+07</totfact>
</mgrwt>
</event>
<event>
 4    1  0.2754379E+004  0.2043109E+02  0.7546771E-02  0.1736889E+00
         21   -1    0    0  501  502  0.00000000000E+00  0.00000000000E+00  0.10511147184E+03  0.10511147184E+03  0.00000000000E+00 0.  1.
         21   -1    0    0  502  503 -0.00000000000E+00 -0.00000000000E+00 -0.75971538578E+01  0.75971538578E+01  0.00000000000E+00 0. -1.
          2    1    1    2  501    0  0.24366442176E+01  0.20285275011E+02  0.87689148792E+02  0.90037861109E+02  0.00000000000E+00 0.  1.
         -2    1    1    2    0  503 -0.24366442176E+01 -0.20285275011E+02  0.98251691864E+01  0.22670764585E+02  0.00000000000E+00 0. -1.
<mgrwt>
<rscale>  2 0.20431094E+02</rscale>
<asrwt>0</asrwt>
<pdfrwt beam="1">  1       21 0.16170995E-01 0.20431094E+02</pdfrwt>
<pdfrwt beam="2">  1       21 0.11687930E-02 0.20431094E+02</pdfrwt>
<totfact> 0.68110359E+07</totfact>
</mgrwt>
</event>
<event>
 4    1  0.2754379E+004  0.2505356E+02  0.7546771E-02  0.1660234E+00
         21   -1    0    0  501  502  0.00000000000E+00  0.00000000000E+00  0.25852428312E+03  0.25852428312E+03  0.00000000000E+00 0.  1.
         21   -1    0    0  502  503 -0.00000000000E+00 -0.00000000000E+00 -0.30676890006E+01  0.30676890006E+01  0.00000000000E+00 0. -1.
          2    1    1    2  501    0 -0.52372614139E+01 -0.24500041949E+02  0.18745852844E+03  0.18912530462E+03  0.00000000000E+00 0.  1.
         -2    1    1    2    0  503  0.52372614139E+01  0.24500041949E+02  0.67998065684E+02  0.72466667505E+02  0.00000000000E+00 0. -1.
<mgrwt>
<rscale>  2 0.25053562E+02</rscale>
<asrwt>0</asrwt>
<pdfrwt beam="1">  1       21 0.39772949E-01 0.25053562E+02</pdfrwt>
<pdfrwt beam="2">  1       21 0.47195236E-03 0.25053562E+02</pdfrwt>
<totfact> 0.55369106E+07</totfact>
</mgrwt>
</event>
<event>
 4    1  0.2754379E+004  0.2080844E+02  0.7546771E-02  0.1729713E+00
         21   -1    0    0  503  502  0.00000000000E+00  0.00000000000E+00  0.20566889620E+03  0.20566889620E+03  0.00000000000E+00 0. -1.
         21   -1    0    0  501  503 -0.00000000000E+00 -0.00000000000E+00 -0.48139700966E+02  0.48139700966E+02  0.00000000000E+00 0.  1.
          2    1    1    2  501    0  0.79628981874E+01  0.19224551792E+02 -0.45333741558E+02  0.49881251616E+02  0.00000000000E+00 0.  1.
         -2    1    1    2    0  502 -0.79628981874E+01 -0.19224551792E+02  0.20286293680E+03  0.20392734555E+03  0.00000000000E+00 0. -1.
<mgrwt>
<rscale>  2 0.20808439E+02</rscale>
<asrwt>0</asrwt>
<pdfrwt beam="1">  1       21 0.31641368E-01 0.20808439E+02</pdfrwt>
<pdfrwt beam="2">  1       21 0.74061079E-02 0.20808439E+02</pdfrwt>
<totfact> 0.11934693E+06</totfact>
</mgrwt>
</event>
<event>
 4    1  0.2754379E+004  0.2264621E+02  0.7546771E-02  0.1697310E+00
         21   -1    0    0  503  502  0.00000000000E+00  0.00000000000E+00  0.60469409504E+01  0.60469409504E+01  0.00000000000E+00 0. -1.
         21   -1    0    0  501  503 -0.00000000000E+00 -0.00000000000E+00 -0.11424283696E+03  0.11424283696E+03  0.00000000000E+00 0.  1.
          2    1    1    2  501    0  0.20203214123E+02 -0.10231374016E+02 -0.84625243251E+02  0.87602983228E+02  0.00000000000E+00 0.  1.
         -2    1    1    2    0  502 -0.20203214123E+02  0.10231374016E+02 -0.23570652759E+02  0.32686794683E+02  0.00000000000E+00 0. -1.
<mgrwt>
<rscale>  2 0.22646211E+02</rscale>
<asrwt>0</asrwt>
<pdfrwt beam="1">  1       21 0.93029864E-03 0.22646211E+02</pdfrwt>
<pdfrwt beam="2">  1       21 0.17575820E-01 0.22646211E+02</pdfrwt>
<totfact> 0.85531770E+07</totfact>
</mgrwt>
</event>
<event>
 4    1  0.2754379E+004  0.2337062E+02  0.7546771E-02  0.1685572E+00
         21   -1    0    0  503  502  0.00000000000E+00  0.00000000000E+00  0.25113583676E+02  0.25113583676E+02  0.00000000000E+00 0.  1.
         21   -1    0    0  501  503 -0.00000000000E+00 -0.00000000000E+00 -0.34558729478E+02  0.34558729478E+02  0.00000000000E+00 0. -1.
          2    1    1    2  501    0 -0.14354631211E+02  0.18442621195E+02 -0.22887784649E+02  0.32711410852E+02  0.00000000000E+00 0. -1.
         -2    1    1    2    0  502  0.14354631211E+02 -0.18442621195E+02  0.13442638847E+02  0.26960902302E+02  0.00000000000E+00 0.  1.
<mgrwt>
<rscale>  2 0.23370616E+02</rscale>
<asrwt>0</asrwt>
<pdfrwt beam="1">  1       21 0.38636282E-02 0.23370616E+02</pdfrwt>
<pdfrwt beam="2">  1       21 0.53167276E-02 0.23370616E+02</pdfrwt>
<totfact> 0.70251364E+07</totfact>
</mgrwt>
</event>
<event>
 4    1  0.2754379E+004  0.2072055E+02  0.7546771E-02  0.1731367E+00
         21   -1    0    0  503  502  0.00000000000E+00  0.00000000000E+00  0.94507105416E+01  0.94507105416E+01  0.00000000000E+00 0. -1.
         21   -1    0    0  501  503 -0.00000000000E+00 -0.00000000000E+00 -0.45628214554E+02  0.45628214554E+02  0.00000000000E+00 0.  1.
          2    1    1    2  501    0 -0.23897583522E+01 -0.20582276867E+02 -0.16271344840E+02  0.26345734549E+02  0.00000000000E+00 0.  1.
         -2    1    1    2    0  502  0.23897583522E+01  0.20582276867E+02 -0.19906159172E+02  0.28733190547E+02  0.00000000000E+00 0. -1.
<mgrwt>
<rscale>  2 0.20720547E+02</rscale>
<asrwt>0</asrwt>
<pdfrwt beam="1">  1       21 0.14539555E-02 0.20720547E+02</pdfrwt>
<pdfrwt beam="2">  1       21 0.70197252E-02 0.20720547E+02</pdfrwt>
<totfact> 0.19582343E+08</totfact>
</mgrwt>
</event>
<event>
 4    1  0.2754379E+004  0.2141101E+02  0.7546771E-02  0.1718642E+00
         21   -1    0    0  503  502  0.00000000000E+00  0.00000000000E+00  0.16346202302E+01  0.16346202302E+01  0.00000000000E+00 0.  1.
         21   -1    0    0  501  503 -0.00000000000E+00 -0.00000000000E+00 -0.76829080534E+03  0.76829080534E+03  0.00000000000E+00 0. -1.
          2    1    1    2  501    0  0.20379854692E+01  0.21313793308E+02 -0.69008502461E+03  0.69041710028E+03  0.00000000000E+00 0. -1.
         -2    1    1    2    0  502 -0.20379854692E+01 -0.21313793308E+02 -0.76571160500E+02  0.79508325289E+02  0.00000000000E+00 0.  1.
<mgrwt>
<rscale>  2 0.21411006E+02</rscale>
<asrwt>0</asrwt>
<pdfrwt beam="1">  1       21 0.25147965E-03 0.21411006E+02</pdfrwt>
<pdfrwt beam="2">  1       21 0.11819876E+00 0.21411006E+02</pdfrwt>
<totfact> 0.14388699E+07</totfact>
</mgrwt>
</event>
<event>
 4    1  0.2754379E+004  0.2024311E+02  0.7546771E-02  0.1740536E+00
         21   -1    0    0  501  502  0.00000000000E+00  0.00000000000E+00  0.58816319156E+02  0.58816319156E+02  0.00000000000E+00 0.  1.
         21   -1    0    0  502  503 -0.00000000000E+00 -0.00000000000E+00 -0.69685810015E+01  0.69685810015E+01  0.00000000000E+00 0. -1.
          2    1    1    2  501    0  0.10813385358E+02  0.17112983093E+02  0.26391353077E+02  0.33260893110E+02  0.00000000000E+00 0.  1.
         -2    1    1    2    0  503 -0.10813385358E+02 -0.17112983093E+02  0.25456385077E+02  0.32524007048E+02  0.00000000000E+00 0. -1.
<mgrwt>
<rscale>  2 0.20243110E+02</rscale>
<asrwt>0</asrwt>
<pdfrwt beam="1">  1       21 0.90486642E-02 0.20243110E+02</pdfrwt>
<pdfrwt beam="2">  1       21 0.10720894E-02 0.20243110E+02</pdfrwt>
<totfact> 0.20359898E+08</totfact>
</mgrwt>
</event>
<event>
 4    1  0.2754379E+004  0.3442299E+02  0.7546771E-02  0.1553785E+00
         21   -1    0    0  501  502  0.00000000000E+00  0.00000000000E+00  0.31774260026E+03  0.31774260026E+03  0.00000000000E+00 0. -1.
         21   -1    0    0  502  503 -0.00000000000E+00 -0.00000000000E+00 -0.38062962036E+01  0.38062962036E+01  0.00000000000E+00 0.  1.
          2    1    1    2  501    0  0.22729693712E+02 -0.25851561191E+02  0.17984183168E+03  0.18310659905E+03  0.00000000000E+00 0.  1.
         -2    1    1    2    0  503 -0.22729693712E+02  0.25851561191E+02  0.13409447237E+03  0.13844229741E+03  0.00000000000E+00 0. -1.
<mgrwt>
<rscale>  2 0.34422989E+02</rscale>
<asrwt>0</asrwt>
<pdfrwt beam="1">  1       21 0.48883456E-01 0.34422989E+02</pdfrwt>
<pdfrwt beam="2">  1       21 0.58558428E-03 0.34422989E+02</pdfrwt>
<totfact> 0.28743578E+07</totfact>
</mgrwt>
</event>
<event>
 4    1  0.2754379E+004  0.2548599E+02  0.7546771E-02  0.1654118E+00
         21   -1    0    0  501  502  0.00000000000E+00  0.00000000000E+00  0.23790801806E+01  0.23790801806E+01  0.00000000000E+00 0. -1.
         21   -1    0    0  502  503 -0.00000000000E+00 -0.00000000000E+00 -0.28649007536E+03  0.28649007536E+03  0.00000000000E+00 0.  1.
          2    1    1    2  501    0 -0.92517075927E+01  0.23747459253E+02 -0.11073669356E+03  0.11363164707E+03  0.00000000000E+00 0. -1.
         -2    1    1    2    0  503  0.92517075927E+01 -0.23747459253E+02 -0.17337430162E+03  0.17523750848E+03  0.00000000000E+00 0.  1.
<mgrwt>
<rscale>  2 0.25485994E+02</rscale>
<asrwt>0</asrwt>
<pdfrwt beam="1">  1       21 0.36601241E-03 0.25485994E+02</pdfrwt>
<pdfrwt beam="2">  1       21 0.44075387E-01 0.25485994E+02</pdfrwt>
<totfact> 0.66473330E+07</totfact>
</mgrwt>
</event>
<event>
 4    1  0.2754379E+004  0.3515598E+02  0.7546771E-02  0.1547220E+00
         21   -1    0    0  501  502  0.00000000000E+00  0.00000000000E+00  0.22437334509E+02  0.22437334509E+02  0.00000000000E+00 0. -1.
         21   -1    0    0  502  503 -0.00000000000E+00 -0.00000000000E+00 -0.46368609406E+03  0.46368609406E+03  0.00000000000E+00 0.  1.
          2    1    1    2  501    0  0.84800534008E+01 -0.34117903708E+02  0.75436055236E+01  0.35956204519E+02  0.00000000000E+00 0. -1.
         -2    1    1    2    0  503 -0.84800534008E+01  0.34117903708E+02 -0.44879236507E+03  0.45016722405E+03  0.00000000000E+00 0.  1.
<mgrwt>
<rscale>  2 0.35155976E+02</rscale>
<asrwt>0</asrwt>
<pdfrwt beam="1">  1       21 0.34518973E-02 0.35155976E+02</pdfrwt>
<pdfrwt beam="2">  1       21 0.71336328E-01 0.35155976E+02</pdfrwt>
<totfact> 0.86926953E+05</totfact>
</mgrwt>
</event>
<event>
 4    1  0.2754379E+004  0.3541107E+02  0.7546771E-02  0.1544980E+00
         21   -1    0    0  501  502  0.00000000000E+00  0.00000000000E+00  0.56878668753E+02  0.56878668753E+02  0.00000000000E+00 0.  1.
         21   -1    0    0  502  503 -0.00000000000E+00 -0.00000000000E+00 -0.84176856814E+02  0.84176856814E+02  0.00000000000E+00 0. -1.
          2    1    1    2  501    0 -0.31114570794E+02 -0.16906432919E+02  0.46943231314E+02  0.58801453689E+02  0.00000000000E+00 0.  1.
         -2    1    1    2    0  503  0.31114570794E+02  0.16906432919E+02 -0.74241419375E+02  0.82254071878E+02  0.00000000000E+00 0. -1.
<mgrwt>
<rscale>  2 0.35411072E+02</rscale>
<asrwt>0</asrwt>
<pdfrwt beam="1">  1       21 0.87505644E-02 0.35411072E+02</pdfrwt>
<pdfrwt beam="2">  1       21 0.12950286E-01 0.35411072E+02</pdfrwt>
<totfact> 0.46571789E+06</totfact>
</mgrwt>
</event>
<event>
 4    1  0.2754379E+004  0.4107702E+02  0.7546771E-02  0.1500432E+00
         21   -1    0    0  503  502  0.00000000000E+00  0.00000000000E+00  0.17628972868E+02  0.17628972868E+02  0.00000000000E+00 0. -1.
         21   -1    0    0  501  503 -0.00000000000E+00 -0.00000000000E+00 -0.16634382658E+03  0.16634382658E+03  0.00000000000E+00 0.  1.
          2    1    1    2  501    0 -0.36896209989E+01 -0.40910974986E+02 -0.13429753805E+03  0.14043913238E+03  0.00000000000E+00 0.  1.
         -2    1    1    2    0  502  0.36896209989E+01  0.40910974986E+02 -0.14417315660E+02  0.43533667066E+02  0.00000000000E+00 0. -1.
<mgrwt>
<rscale>  2 0.41077015E+02</rscale>
<asrwt>0</asrwt>
<pdfrwt beam="1">  1       21 0.27121497E-02 0.41077015E+02</pdfrwt>
<pdfrwt beam="2">  1       21 0.25591358E-01 0.41077015E+02</pdfrwt>
<totfact> 0.95139898E+06</totfact>
</mgrwt>
</event>
<event>
 4    1  0.2754379E+004  0.2947283E+02  0.7546771E-02  0.1603990E+00
         21   -1    0    0  501  502  0.00000000000E+00  0.00000000000E+00  0.16358348807E+02  0.16358348807E+02  0.00000000000E+00 0.  1.
         21   -1    0    0  502  503 -0.00000000000E+00 -0.00000000000E+00 -0.56950714051E+02  0.56950714051E+02  0.00000000000E+00 0. -1.
          2    1    1    2  501    0  0.24015111283E+02  0.17085733972E+02 -0.10766437109E+02  0.31377763517E+02  0.00000000000E+00 0.  1.
         -2    1    1    2    0  503 -0.24015111283E+02 -0.17085733972E+02 -0.29825928135E+02  0.41931299341E+02  0.00000000000E+00 0. -1.
<mgrwt>
<rscale>  2 0.29472833E+02</rscale>
<asrwt>0</asrwt>
<pdfrwt beam="1">  1       21 0.25166690E-02 0.29472833E+02</pdfrwt>
<pdfrwt beam="2">  1       21 0.87616484E-02 0.29472833E+02</pdfrwt>
<totfact> 0.64725019E+07</totfact>
</mgrwt>
</event>
<event>
 4    1  0.2754379E+004  0.3123177E+02  0.7546771E-02  0.1584859E+00
         21   -1    0    0  503  502  0.00000000000E+00  0.00000000000E+00  0.49932124861E+02  0.49932124861E+02  0.00000000000E+00 0.  1.
         21   -1    0    0  501  503 -0.00000000000E+00 -0.00000000000E+00 -0.20561101687E+02  0.20561101687E+02  0.00000000000E+00 0. -1.
          2    1    1    2  501    0 -0.24708192319E+02  0.19103109424E+02  0.68115819327E+01  0.31965938212E+02  0.00000000000E+00 0.  1.
         -2    1    1    2    0  502  0.24708192319E+02 -0.19103109424E+02  0.22559441241E+02  0.38527288335E+02  0.00000000000E+00 0. -1.
<mgrwt>
<rscale>  2 0.31231772E+02</rscale>
<asrwt>0</asrwt>
<pdfrwt beam="1">  1       21 0.76818653E-02 0.31231772E+02</pdfrwt>
<pdfrwt beam="2">  1       21 0.31632464E-02 0.31231772E+02</pdfrwt>
<totfact> 0.56907315E+07</totfact>
</mgrwt>
</event>
<event>
 4    1  0.2754379E+004  0.2344466E+02  0.7546771E-02  0.1684402E+00
         21   -1    0    0  501  502  0.00000000000E+00  0.00000000000E+00  0.63706357616E+01  0.63706357616E+01  0.00000000000E+00 0.  1.
         21   -1    0    0  502  503 -0.00000000000E+00 -0.00000000000E+00 -0.86830927025E+02  0.86830927025E+02  0.00000000000E+00 0. -1.
          2    1    1    2  501    0 -0.11879579262E+02  0.20212062132E+02 -0.36514702389E+02  0.43393263874E+02  0.00000000000E+00 0.  1.
         -2    1    1    2    0  503  0.11879579262E+02 -0.20212062132E+02 -0.43945588875E+02  0.49808298913E+02  0.00000000000E+00 0. -1.
<mgrwt>
<rscale>  2 0.23444655E+02</rscale>
<asrwt>0</asrwt>
<pdfrwt beam="1">  1       21 0.98009787E-03 0.23444655E+02</pdfrwt>
<pdfrwt beam="2">  1       21 0.13358603E-01 0.23444655E+02</pdfrwt>
<totfact> 0.12754118E+08</totfact>
</mgrwt>
</event>
<event>
 4    1  0.2754379E+004  0.2306513E+02  0.7546771E-02  0.1690457E+00
         21   -1    0    0  501  502  0.00000000000E+00  0.00000000000E+00  0.11708440522E+03  0.11708440522E+03  0.00000000000E+00 0. -1.
         21   -1    0    0  502  503 -0.00000000000E+00 -0.00000000000E+00 -0.63025987076E+01  0.63025987076E+01  0.00000000000E+00 0.  1.
          2    1    1    2  501    0 -0.37484876604E+01  0.22758489825E+02  0.87981792238E+02  0.90954910721E+02  0.00000000000E+00 0. -1.
         -2    1    1    2    0  503  0.37484876604E+01 -0.22758489825E+02  0.22800014274E+02  0.32432093206E+02  0.00000000000E+00 0.  1.
<mgrwt>
<rscale>  2 0.23065126E+02</rscale>
<asrwt>0</asrwt>
<pdfrwt beam="1">  1       21 0.18012984E-01 0.23065126E+02</pdfrwt>
<pdfrwt beam="2">  1       21 0.96963065E-03 0.23065126E+02</pdfrwt>
<totfact> 0.77429451E+07</totfact>
</mgrwt>
</event>
<event>
 4    1  0.2754379E+004  0.2539857E+02  0.7546771E-02  0.1655342E+00
         21   -1    0    0  501  502  0.00000000000E+00  0.00000000000E+00  0.60350157367E+01  0.60350157367E+01  0.00000000000E+00 0. -1.
         21   -1    0    0  502  503 -0.00000000000E+00 -0.00000000000E+00 -0.61377944227E+03  0.61377944227E+03  0.00000000000E+00 0.  1.
          2    1    1    2  501    0 -0.17507415190E+02 -0.18400476822E+02 -0.22240306719E+02  0.33759715296E+02  0.00000000000E+00 0. -1.
         -2    1    1    2    0  503  0.17507415190E+02  0.18400476822E+02 -0.58550411982E+03  0.58605474271E+03  0.00000000000E+00 0.  1.
<mgrwt>
<rscale>  2 0.25398566E+02</rscale>
<asrwt>0</asrwt>
<pdfrwt beam="1">  1       21 0.92846398E-03 0.25398566E+02</pdfrwt>
<pdfrwt beam="2">  1       21 0.94427604E-01 0.25398566E+02</pdfrwt>
<totfact> 0.35328275E+06</totfact>
</mgrwt>
</event>
<event>
 4    1  0.2754379E+004  0.2585241E+02  0.7546771E-02  0.1649052E+00
         21   -1    0    0  501  502  0.00000000000E+00  0.00000000000E+00  0.66923679244E+03  0.66923679244E+03  0.00000000000E+00 0.  1.
         21   -1    0    0  502  503 -0.00000000000E+00 -0.00000000000E+00 -0.37539021594E+01  0.37539021594E+01  0.00000000000E+00 0. -1.
          2    1    1    2  501    0  0.25042010565E+02  0.64222235297E+01  0.62102284673E+03  0.62156071578E+03  0.00000000000E+00 0.  1.
         -2    1    1    2    0  503 -0.25042010565E+02 -0.64222235297E+01  0.44460043550E+02  0.51429978813E+02  0.00000000000E+00 0. -1.
<mgrwt>
<rscale>  2 0.25852413E+02</rscale>
<asrwt>0</asrwt>
<pdfrwt beam="1">  1       21 0.10295941E+00 0.25852413E+02</pdfrwt>
<pdfrwt beam="2">  1       21 0.57752394E-03 0.25852413E+02</pdfrwt>
<totfact> 0.59558150E+06</totfact>
</mgrwt>
</event>
<event>
 4    1  0.2754379E+004  0.2063250E+02  0.7546771E-02  0.1733035E+00
         21   -1    0    0  503  502  0.00000000000E+00  0.00000000000E+00  0.17426860081E+03  0.17426860081E+03  0.00000000000E+00 0.  1.
         21   -1    0    0  501  503 -0.00000000000E+00 -0.00000000000E+00 -0.38991865019E+01  0.38991865019E+01  0.00000000000E+00 0. -1.
          2    1    1    2  501    0  0.17150025594E+02 -0.11470693233E+02  0.30740307896E+02  0.37022516266E+02  0.00000000000E+00 0. -1.
         -2    1    1    2    0  502 -0.17150025594E+02  0.11470693233E+02  0.13962910641E+03  0.14114527105E+03  0.00000000000E+00 0.  1.
<mgrwt>
<rscale>  2 0.20632503E+02</rscale>
<asrwt>0</asrwt>
<pdfrwt beam="1">  1       21 0.26810548E-01 0.20632503E+02</pdfrwt>
<pdfrwt beam="2">  1       21 0.59987498E-03 0.20632503E+02</pdfrwt>
<totfact> 0.76343215E+07</totfact>
</mgrwt>
</event>
<event>
 4    1  0.2754379E+004  0.4133706E+02  0.7546771E-02  0.1498596E+00
         21   -1    0    0  503  502  0.00000000000E+00  0.00000000000E+00  0.36152066808E+03  0.36152066808E+03  0.00000000000E+00 0. -1.
         21   -1    0    0  501  503 -0.00000000000E+00 -0.00000000000E+00 -0.53197793636E+01  0.53197793636E+01  0.00000000000E+00 0.  1.
          2    1    1    2  501    0 -0.40686015598E+02  0.73075615540E+01  0.11685062168E+03  0.12394684388E+03  0.00000000000E+00 0.  1.
         -2    1    1    2    0  502  0.40686015598E+02 -0.73075615540E+01  0.23935026704E+03  0.24289360357E+03  0.00000000000E+00 0. -1.
<mgrwt>
<rscale>  2 0.41337057E+02</rscale>
<asrwt>0</asrwt>
<pdfrwt beam="1">  1       21 0.55618545E-01 0.41337057E+02</pdfrwt>
<pdfrwt beam="2">  1       21 0.81842788E-03 0.41337057E+02</pdfrwt>
<totfact> 0.13771220E+07</totfact>
</mgrwt>
</event>
<event>
 4    1  0.2754379E+004  0.2680073E+02  0.7546771E-02  0.1636408E+00
         21   -1    0    0  503  502  0.00000000000E+00  0.00000000000E+00  0.45597569311E+01  0.45597569311E+01  0.00000000000E+00 0.  1.
         21   -1    0    0  501  503 -0.00000000000E+00 -0.00000000000E+00 -0.53834200940E+03  0.53834200940E+03  0.00000000000E+00 0. -1.
          2    1    1    2  501    0 -0.32144558441E+01 -0.26607259488E+02 -0.49519847096E+03  0.49592318419E+03  0.00000000000E+00 0. -1.
         -2    1    1    2    0  502  0.32144558441E+01  0.26607259488E+02 -0.38583781515E+02  0.46978582139E+02  0.00000000000E+00 0.  1.
<mgrwt>
<rscale>  2 0.26800727E+02</rscale>
<asrwt>0</asrwt>
<pdfrwt beam="1">  1       21 0.70150102E-03 0.26800727E+02</pdfrwt>
<pdfrwt beam="2">  1       21 0.82821853E-01 0.26800727E+02</pdfrwt>
<totfact> 0.71780624E+06</totfact>
</mgrwt>
</event>
<event>
 4    1  0.2754379E+004  0.2340819E+02  0.7546771E-02  0.1684978E+00
         21   -1    0    0  501  502  0.00000000000E+00  0.00000000000E+00  0.65994835891E+03  0.65994835891E+03  0.00000000000E+00 0.  1.
         21   -1    0    0  502  503 -0.00000000000E+00 -0.00000000000E+00 -0.19662255940E+01  0.19662255940E+01  0.00000000000E+00 0. -1.
          2    1    1    2  501    0  0.19938423212E+02 -0.12263866208E+02  0.58054649712E+03  0.58101822558E+03  0.00000000000E+00 0.  1.
         -2    1    1    2    0  503 -0.19938423212E+02  0.12263866208E+02  0.77435636198E+02  0.80896358929E+02  0.00000000000E+00 0. -1.
<mgrwt>
<rscale>  2 0.23408185E+02</rscale>
<asrwt>0</asrwt>
<pdfrwt beam="1">  1       21 0.10153034E+00 0.23408185E+02</pdfrwt>
<pdfrwt beam="2">  1       21 0.30249677E-03 0.23408185E+02</pdfrwt>
<totfact> 0.15669133E+07</totfact>
</mgrwt>
</event>
<event>
 4    1  0.2754379E+004  0.2529156E+02  0.7546771E-02  0.1656849E+00
         21   -1    0    0  501  502  0.00000000000E+00  0.00000000000E+00  0.11948112178E+02  0.11948112178E+02  0.00000000000E+00 0. -1.
         21   -1    0    0  502  503 -0.00000000000E+00 -0.00000000000E+00 -0.10180108370E+03  0.10180108370E+03  0.00000000000E+00 0.  1.
          2    1    1    2  501    0  0.25267812777E+02 -0.10957499036E+01 -0.57653462305E+01  0.25940359434E+02  0.00000000000E+00 0. -1.
         -2    1    1    2    0  503 -0.25267812777E+02  0.10957499036E+01 -0.84087625287E+02  0.87808836440E+02  0.00000000000E+00 0.  1.
<mgrwt>
<rscale>  2 0.25291560E+02</rscale>
<asrwt>0</asrwt>
<pdfrwt beam="1">  1       21 0.18381712E-02 0.25291560E+02</pdfrwt>
<pdfrwt beam="2">  1       21 0.15661705E-01 0.25291560E+02</pdfrwt>
<totfact> 0.38186514E+07</totfact>
</mgrwt>
</event>
<event>
 4    1  0.2754379E+004  0.2250732E+02  0.7546771E-02  0.1699623E+00
         21   -1    0    0  503  502  0.00000000000E+00  0.00000000000E+00  0.24568931910E+03  0.24568931910E+03  0.00000000000E+00 0.  1.
         21   -1    0    0  501  503 -0.00000000000E+00 -0.00000000000E+00 -0.20715931751E+01  0.20715931751E+01  0.00000000000E+00 0. -1.
          2    1    1    2  501    0 -0.13622730230E+02 -0.17916491791E+02  0.11332189153E+03  0.11553540824E+03  0.00000000000E+00 0.  1.
         -2    1    1    2    0  502  0.13622730230E+02  0.17916491791E+02  0.13029583439E+03  0.13222550404E+03  0.00000000000E+00 0. -1.
<mgrwt>
<rscale>  2 0.22507320E+02</rscale>
<asrwt>0</asrwt>
<pdfrwt beam="1">  1       21 0.37798334E-01 0.22507320E+02</pdfrwt>
<pdfrwt beam="2">  1       21 0.31870684E-03 0.22507320E+02</pdfrwt>
<totfact> 0.10552977E+08</totfact>
</mgrwt>
</event>
<event>
 4    1  0.2754379E+004  0.4862852E+02  0.7546771E-02  0.1452882E+00
         21   -1    0    0  503  502  0.00000000000E+00  0.00000000000E+00  0.35245587457E+02  0.35245587457E+02  0.00000000000E+00 0.  1.
         21   -1    0    0  501  503 -0.00000000000E+00 -0.00000000000E+00 -0.71738692799E+02  0.71738692799E+02  0.00000000000E+00 0. -1.
          2    1    1    2  501    0 -0.48588884929E+02  0.19630511160E+01 -0.31859025238E+02  0.58135452156E+02  0.00000000000E+00 0. -1.
         -2    1    1    2    0  502  0.48588884929E+02 -0.19630511160E+01 -0.46340801041E+01  0.48848828099E+02  0.00000000000E+00 0.  1.
<mgrwt>
<rscale>  2 0.48628524E+02</rscale>
<asrwt>0</asrwt>
<pdfrwt beam="1">  1       21 0.54223982E-02 0.48628524E+02</pdfrwt>
<pdfrwt beam="2">  1       21 0.11036722E-01 0.48628524E+02</pdfrwt>
<totfact> 0.14063253E+07</totfact>
</mgrwt>
</event>
<event>
 4    1  0.2754379E+004  0.2302703E+02  0.7546771E-02  0.1691072E+00
         21   -1    0    0  501  502  0.00000000000E+00  0.00000000000E+00  0.92593473984E+02  0.92593473984E+02  0.00000000000E+00 0.  1.
         21   -1    0    0  502  503 -0.00000000000E+00 -0.00000000000E+00 -0.60550588545E+01  0.60550588545E+01  0.00000000000E+00 0. -1.
          2    1    1    2  501    0 -0.25155598092E+01  0.22889210885E+02  0.31780938743E+02  0.39246300252E+02  0.00000000000E+00 0. -1.
         -2    1    1    2    0  503  0.25155598092E+01 -0.22889210885E+02  0.54757476386E+02  0.59402232586E+02  0.00000000000E+00 0.  1.
<mgrwt>
<rscale>  2 0.23027028E+02</rscale>
<asrwt>0</asrwt>
<pdfrwt beam="1">  1       21 0.14245149E-01 0.23027028E+02</pdfrwt>
<pdfrwt beam="2">  1       21 0.93154758E-03 0.23027028E+02</pdfrwt>
<totfact> 0.12282117E+08</totfact>
</mgrwt>
</event>
<event>
 4    1  0.2754379E+004  0.3080995E+02  0.7546771E-02  0.1589305E+00
         21   -1    0    0  501  502  0.00000000000E+00  0.00000000000E+00  0.27187093283E+02  0.27187093283E+02  0.00000000000E+00 0.  1.
         21   -1    0    0  502  503 -0.00000000000E+00 -0.00000000000E+00 -0.47052794673E+02  0.47052794673E+02  0.00000000000E+00 0. -1.
          2    1    1    2  501    0  0.33178342208E+01  0.30630785449E+02  0.89198761878E+01  0.32075180941E+02  0.00000000000E+00 0.  1.
         -2    1    1    2    0  503 -0.33178342208E+01 -0.30630785449E+02 -0.28785577578E+02  0.42164707015E+02  0.00000000000E+00 0. -1.
<mgrwt>
<rscale>  2 0.30809950E+02</rscale>
<asrwt>0</asrwt>
<pdfrwt beam="1">  1       21 0.41826298E-02 0.30809950E+02</pdfrwt>
<pdfrwt beam="2">  1       21 0.72388914E-02 0.30809950E+02</pdfrwt>
<totfact> 0.40159585E+07</totfact>
</mgrwt>
</event>
<event>
 4    1  0.2754379E+004  0.2030205E+02  0.7546771E-02  0.1739387E+00
         21   -1    0    0  503  502  0.00000000000E+00  0.00000000000E+00  0.70137159940E+00  0.70137159940E+00  0.00000000000E+00 0.  1.
         21   -1    0    0  501  503 -0.00000000000E+00 -0.00000000000E+00 -0.59257709746E+03  0.59257709746E+03  0.00000000000E+00 0. -1.
          2    1    1    2  501    0  0.20213686290E+02  0.18921446418E+01 -0.32293869749E+03  0.32357622852E+03  0.00000000000E+00 0. -1.
         -2    1    1    2    0  502 -0.20213686290E+02 -0.18921446418E+01 -0.26893702838E+03  0.26970224055E+03  0.00000000000E+00 0.  1.
<mgrwt>
<rscale>  2 0.20302052E+02</rscale>
<asrwt>0</asrwt>
<pdfrwt beam="1">  1       21 0.10790340E-03 0.20302052E+02</pdfrwt>
<pdfrwt beam="2">  1       21 0.91165638E-01 0.20302052E+02</pdfrwt>
<totfact> 0.84504123E+07</totfact>
</mgrwt>
</event>
<event>
 4    1  0.2754379E+004  0.2547459E+02  0.7546771E-02  0.1654277E+00
         21   -1    0    0  503  502  0.00000000000E+00  0.00000000000E+00  0.89336496411E+01  0.89336496411E+01  0.00000000000E+00 0. -1.
         21   -1    0    0  501  503 -0.00000000000E+00 -0.00000000000E+00 -0.14228078338E+03  0.14228078338E+03  0.00000000000E+00 0.  1.
          2    1    1    2  501    0 -0.12953647312E+02 -0.21935306303E+02 -0.11956885019E+03  0.12225246246E+03  0.00000000000E+00 0.  1.
         -2    1    1    2    0  502  0.12953647312E+02  0.21935306303E+02 -0.13778283547E+02  0.28961970561E+02  0.00000000000E+00 0. -1.
<mgrwt>
<rscale>  2 0.25474588E+02</rscale>
<asrwt>0</asrwt>
<pdfrwt beam="1">  1       21 0.13744077E-02 0.25474588E+02</pdfrwt>
<pdfrwt beam="2">  1       21 0.21889351E-01 0.25474588E+02</pdfrwt>
<totfact> 0.33307528E+07</totfact>
</mgrwt>
</event>
<event>
 4    1  0.2754379E+004  0.2115691E+02  0.7546771E-02  0.1723254E+00
         21   -1    0    0  503  502  0.00000000000E+00  0.00000000000E+00  0.14312995008E+03  0.14312995008E+03  0.00000000000E+00 0.  1.
         21   -1    0    0  501  503 -0.00000000000E+00 -0.00000000000E+00 -0.67948154147E+01  0.67948154147E+01  0.00000000000E+00 0. -1.
          2    1    1    2  501    0  0.17664027671E+01  0.21083046690E+02  0.13094589142E+02  0.24881384633E+02  0.00000000000E+00 0. -1.
         -2    1    1    2    0  502 -0.17664027671E+01 -0.21083046690E+02  0.12324054552E+03  0.12504338086E+03  0.00000000000E+00 0.  1.
<mgrwt>
<rscale>  2 0.21156915E+02</rscale>
<asrwt>0</asrwt>
<pdfrwt beam="1">  1       21 0.22019990E-01 0.21156915E+02</pdfrwt>
<pdfrwt beam="2">  1       21 0.10453563E-02 0.21156915E+02</pdfrwt>
<totfact> 0.47666796E+07</totfact>
</mgrwt>
</event>
<event>
 4    1  0.2754379E+004  0.2000041E+02  0.7546771E-02  0.1745320E+00
         21   -1    0    0  501  502  0.00000000000E+00  0.00000000000E+00  0.27973812683E+02  0.27973812683E+02  0.00000000000E+00 0. -1.
         21   -1    0    0  502  503 -0.00000000000E+00 -0.00000000000E+00 -0.54919918570E+02  0.54919918570E+02  0.00000000000E+00 0.  1.
          2    1    1    2  501    0 -0.19996936190E+02  0.37266316305E+00  0.22171898754E+02  0.29859829691E+02  0.00000000000E+00 0. -1.
         -2    1    1    2    0  503  0.19996936190E+02 -0.37266316305E+00 -0.49118004642E+02  0.53033901561E+02  0.00000000000E+00 0.  1.
<mgrwt>
<rscale>  2 0.20000408E+02</rscale>
<asrwt>0</asrwt>
<pdfrwt beam="1">  1       21 0.43036635E-02 0.20000408E+02</pdfrwt>
<pdfrwt beam="2">  1       21 0.84492181E-02 0.20000408E+02</pdfrwt>
<totfact> 0.26985935E+07</totfact>
</mgrwt>
</event>
<event>
 4    1  0.2754379E+004  0.2180360E+02  0.7546771E-02  0.1711671E+00
         21   -1    0    0  503  502  0.00000000000E+00  0.00000000000E+00  0.18593095986E+04  0.18593095986E+04  0.00000000000E+00 0.  1.
         21   -1    0    0  501  503 -0.00000000000E+00 -0.00000000000E+00 -0.39467292660E+00  0.39467292660E+00  0.00000000000E+00 0. -1.
          2    1    1    2  501    0 -0.35996137672E+01  0.21504411124E+02  0.37765413460E+03  0.37828301878E+03  0.00000000000E+00 0. -1.
         -2    1    1    2    0  502  0.35996137672E+01 -0.21504411124E+02  0.14812607911E+04  0.14814212527E+04  0.00000000000E+00 0.  1.
<mgrwt>
<rscale>  2 0.21803599E+02</rscale>
<asrwt>0</asrwt>
<pdfrwt beam="1">  1       21 0.28604062E+00 0.21803599E+02</pdfrwt>
<pdfrwt beam="2">  1       21 0.60720401E-04 0.21803599E+02</pdfrwt>
<totfact> 0.11482837E+07</totfact>
</mgrwt>
</event>
<event>
 4    1  0.2754379E+004  0.2111103E+02  0.7546771E-02  0.1724096E+00
         21   -1    0    0  501  502  0.00000000000E+00  0.00000000000E+00  0.19033913274E+02  0.19033913274E+02  0.00000000000E+00 0. -1.
         21   -1    0    0  502  503 -0.00000000000E+00 -0.00000000000E+00 -0.28025669332E+02  0.28025669332E+02  0.00000000000E+00 0.  1.
          2    1    1    2  501    0  0.20811835271E+02  0.35416494075E+01  0.50481182284E+01  0.21706203388E+02  0.00000000000E+00 0. -1.
         -2    1    1    2    0  503 -0.20811835271E+02 -0.35416494075E+01 -0.14039874287E+02  0.25353379219E+02  0.00000000000E+00 0.  1.
<mgrwt>
<rscale>  2 0.21111034E+02</rscale>
<asrwt>0</asrwt>
<pdfrwt beam="1">  1       21 0.29282944E-02 0.21111034E+02</pdfrwt>
<pdfrwt beam="2">  1       21 0.43116414E-02 0.21111034E+02</pdfrwt>
<totfact> 0.14663910E+08</totfact>
</mgrwt>
</event>
<event>
 4    1  0.2754379E+004  0.2674207E+02  0.7546771E-02  0.1637171E+00
         21   -1    0    0  503  502  0.00000000000E+00  0.00000000000E+00  0.84039356119E+02  0.84039356119E+02  0.00000000000E+00 0.  1.
         21   -1    0    0  501  503 -0.00000000000E+00 -0.00000000000E+00 -0.86137341528E+01  0.86137341528E+01  0.00000000000E+00 0. -1.
          2    1    1    2  501    0 -0.24030953169E+01  0.26633875621E+02  0.32618237169E+02  0.42179231782E+02  0.00000000000E+00 0. -1.
         -2    1    1    2    0  502  0.24030953169E+01 -0.26633875621E+02  0.42807384798E+02  0.50473858490E+02  0.00000000000E+00 0.  1.
<mgrwt>
<rscale>  2 0.26742068E+02</rscale>
<asrwt>0</asrwt>
<pdfrwt beam="1">  1       21 0.12929131E-01 0.26742068E+02</pdfrwt>
<pdfrwt beam="2">  1       21 0.13251899E-02 0.26742068E+02</pdfrwt>
<totfact> 0.88486979E+07</totfact>
</mgrwt>
</event>
<event>
 4    1  0.2754379E+004  0.2017250E+02  0.7546771E-02  0.1741919E+00
         21   -1    0    0  503  502  0.00000000000E+00  0.00000000000E+00  0.17983993727E+01  0.17983993727E+01  0.00000000000E+00 0. -1.
         21   -1    0    0  501  503 -0.00000000000E+00 -0.00000000000E+00 -0.22627600900E+03  0.22627600900E+03  0.00000000000E+00 0.  1.
          2    1    1    2  501    0 -0.48759491647E+01 -0.19574345342E+02 -0.11184891404E+03  0.11365346210E+03  0.00000000000E+00 0. -1.
         -2    1    1    2    0  502  0.48759491647E+01  0.19574345342E+02 -0.11262869558E+03  0.11442094627E+03  0.00000000000E+00 0.  1.
<mgrwt>
<rscale>  2 0.20172503E+02</rscale>
<asrwt>0</asrwt>
<pdfrwt beam="1">  1       21 0.27667689E-03 0.20172503E+02</pdfrwt>
<pdfrwt beam="2">  1       21 0.34811685E-01 0.20172503E+02</pdfrwt>
<totfact> 0.14640517E+08</totfact>
</mgrwt>
</event>
<event>
 4    1  0.2754379E+004  0.2577956E+02  0.7546771E-02  0.1650051E+00
         21   -1    0    0  501  502  0.00000000000E+00  0.00000000000E+00  0.64218128369E+03  0.64218128369E+03  0.00000000000E+00 0. -1.
         21   -1    0    0  502  503 -0.00000000000E+00 -0.00000000000E+00 -0.37159197630E+01  0.37159197630E+01  0.00000000000E+00 0.  1.
          2    1    1    2  501    0  0.16612137500E+02 -0.19713518926E+02  0.59354871672E+03  0.59410829405E+03  0.00000000000E+00 0. -1.
         -2    1    1    2    0  503 -0.16612137500E+02  0.19713518926E+02  0.44916647213E+02  0.51788909407E+02  0.00000000000E+00 0.  1.
<mgrwt>
<rscale>  2 0.25779564E+02</rscale>
<asrwt>0</asrwt>
<pdfrwt beam="1">  1       21 0.98797033E-01 0.25779564E+02</pdfrwt>
<pdfrwt beam="2">  1       21 0.57168047E-03 0.25779564E+02</pdfrwt>
<totfact> 0.66202109E+06</totfact>
</mgrwt>
</event>
<event>
 4    1  0.2754379E+004  0.2548281E+02  0.7546771E-02  0.1654162E+00
         21   -1    0    0  501  502  0.00000000000E+00  0.00000000000E+00  0.11137599404E+02  0.11137599404E+02  0.00000000000E+00 0. -1.
         21   -1    0    0  502  503 -0.00000000000E+00 -0.00000000000E+00 -0.58487327102E+02  0.58487327102E+02  0.00000000000E+00 0.  1.
          2    1    1    2  501    0 -0.19399290399E+02 -0.16523954618E+02 -0.21729158988E+02  0.33489250433E+02  0.00000000000E+00 0. -1.
         -2    1    1    2    0  503  0.19399290399E+02  0.16523954618E+02 -0.25620568710E+02  0.36135676073E+02  0.00000000000E+00 0.  1.
<mgrwt>
<rscale>  2 0.25482809E+02</rscale>
<asrwt>0</asrwt>
<pdfrwt beam="1">  1       21 0.17134768E-02 0.25482809E+02</pdfrwt>
<pdfrwt beam="2">  1       21 0.89980506E-02 0.25482809E+02</pdfrwt>
<totfact> 0.10816888E+08</totfact>
</mgrwt>
</event>
<event>
 4    1  0.2754379E+004  0.2100651E+02  0.7546771E-02  0.1726023E+00
         21   -1    0    0  501  502  0.00000000000E+00  0.00000000000E+00  0.15367093054E+03  0.15367093054E+03  0.00000000000E+00 0. -1.
         21   -1    0    0  502  503 -0.00000000000E+00 -0.00000000000E+00 -0.10598072113E+02  0.10598072113E+02  0.00000000000E+00 0.  1.
          2    1    1    2  501    0 -0.10212437928E+01  0.20981668626E+02  0.14166650194E+03  0.14321547099E+03  0.00000000000E+00 0. -1.
         -2    1    1    2    0  503  0.10212437928E+01 -0.20981668626E+02  0.14063564882E+01  0.21053531670E+02  0.00000000000E+00 0.  1.
<mgrwt>
<rscale>  2 0.21006507E+02</rscale>
<asrwt>0</asrwt>
<pdfrwt beam="1">  1       21 0.23641680E-01 0.21006507E+02</pdfrwt>
<pdfrwt beam="2">  1       21 0.16304727E-02 0.21006507E+02</pdfrwt>
<totfact> 0.21471924E+07</totfact>
</mgrwt>
</event>
<event>
 4    1  0.2754379E+004  0.2672490E+02  0.7546771E-02  0.1637395E+00
         21   -1    0    0  503  502  0.00000000000E+00  0.00000000000E+00  0.72444796821E+00  0.72444796821E+00  0.00000000000E+00 0. -1.
         21   -1    0    0  501  503 -0.00000000000E+00 -0.00000000000E+00 -0.12791736206E+04  0.12791736206E+04  0.00000000000E+00 0.  1.
          2    1    1    2  501    0 -0.14554954958E+02  0.22413693918E+02 -0.94565388505E+03  0.94603144276E+03  0.00000000000E+00 0.  1.
         -2    1    1    2    0  502  0.14554954958E+02 -0.22413693918E+02 -0.33279528758E+03  0.33386662580E+03  0.00000000000E+00 0. -1.
<mgrwt>
<rscale>  2 0.26724902E+02</rscale>
<asrwt>0</asrwt>
<pdfrwt beam="1">  1       21 0.11145382E-03 0.26724902E+02</pdfrwt>
<pdfrwt beam="2">  1       21 0.19679544E+00 0.26724902E+02</pdfrwt>
<totfact> 0.14141804E+07</totfact>
</mgrwt>
</event>
<event>
 4    1  0.2754379E+004  0.2306983E+02  0.7546771E-02  0.1690381E+00
         21   -1    0    0  503  502  0.00000000000E+00  0.00000000000E+00  0.17268153478E+02  0.17268153478E+02  0.00000000000E+00 0. -1.
         21   -1    0    0  501  503 -0.00000000000E+00 -0.00000000000E+00 -0.43590472389E+02  0.43590472389E+02  0.00000000000E+00 0.  1.
          2    1    1    2  501    0  0.45005646876E+01 -0.22626572821E+02 -0.29630933438E+02  0.37552750852E+02  0.00000000000E+00 0.  1.
         -2    1    1    2    0  502 -0.45005646876E+01  0.22626572821E+02  0.33086145266E+01  0.23305875015E+02  0.00000000000E+00 0. -1.
<mgrwt>
<rscale>  2 0.23069826E+02</rscale>
<asrwt>0</asrwt>
<pdfrwt beam="1">  1       21 0.26566390E-02 0.23069826E+02</pdfrwt>
<pdfrwt beam="2">  1       21 0.67062265E-02 0.23069826E+02</pdfrwt>
<totfact> 0.86531045E+07</totfact>
</mgrwt>
</event>
<event>
 4    1  0.2754379E+004  0.5336678E+02  0.7546771E-02  0.1427984E+00
         21   -1    0    0  503  502  0.00000000000E+00  0.00000000000E+00  0.22756171418E+02  0.22756171418E+02  0.00000000000E+00 0.  1.
         21   -1    0    0  501  503 -0.00000000000E+00 -0.00000000000E+00 -0.16092513977E+03  0.16092513977E+03  0.00000000000E+00 0. -1.
          2    1    1    2  501    0 -0.28061106485E+02 -0.45393694102E+02 -0.11238497398E+03  0.12441220012E+03  0.00000000000E+00 0. -1.
         -2    1    1    2    0  502  0.28061106485E+02  0.45393694102E+02 -0.25783994370E+02  0.59269111070E+02  0.00000000000E+00 0.  1.
<mgrwt>
<rscale>  2 0.53366780E+02</rscale>
<asrwt>0</asrwt>
<pdfrwt beam="1">  1       21 0.35009495E-02 0.53366780E+02</pdfrwt>
<pdfrwt beam="2">  1       21 0.24757714E-01 0.53366780E+02</pdfrwt>
<totfact> 0.69283506E+06</totfact>
</mgrwt>
</event>
<event>
 4    1  0.2754379E+004  0.2256138E+02  0.7546771E-02  0.1698720E+00
         21   -1    0    0  501  502  0.00000000000E+00  0.00000000000E+00  0.27012533919E+02  0.27012533919E+02  0.00000000000E+00 0. -1.
         21   -1    0    0  502  503 -0.00000000000E+00 -0.00000000000E+00 -0.22403506554E+02  0.22403506554E+02  0.00000000000E+00 0.  1.
          2    1    1    2  501    0 -0.19479268910E+02 -0.11383054977E+02  0.12153548258E+02  0.25626638350E+02  0.00000000000E+00 0. -1.
         -2    1    1    2    0  503  0.19479268910E+02  0.11383054977E+02 -0.75445208928E+01  0.23789402123E+02  0.00000000000E+00 0.  1.
<mgrwt>
<rscale>  2 0.22561380E+02</rscale>
<asrwt>0</asrwt>
<pdfrwt beam="1">  1       21 0.41557745E-02 0.22561380E+02</pdfrwt>
<pdfrwt beam="2">  1       21 0.34466933E-02 0.22561380E+02</pdfrwt>
<totfact> 0.12301242E+08</totfact>
</mgrwt>
</event>
<event>
 4    1  0.2754379E+004  0.4793681E+02  0.7546771E-02  0.1456798E+00
         21   -1    0    0  503  502  0.00000000000E+00  0.00000000000E+00  0.32391120661E+02  0.32391120661E+02  0.00000000000E+00 0.  1.
         21   -1    0    0  501  503 -0.00000000000E+00 -0.00000000000E+00 -0.11512405710E+03  0.11512405710E+03  0.00000000000E+00 0. -1.
          2    1    1    2  501    0 -0.57306556831E+01 -0.47593043709E+02 -0.87058392763E+02  0.99383610191E+02  0.00000000000E+00 0.  1.
         -2    1    1    2    0  502  0.57306556831E+01  0.47593043709E+02  0.43254563284E+01  0.48131567567E+02  0.00000000000E+00 0. -1.
<mgrwt>
<rscale>  2 0.47936815E+02</rscale>
<asrwt>0</asrwt>
<pdfrwt beam="1">  1       21 0.49832493E-02 0.47936815E+02</pdfrwt>
<pdfrwt beam="2">  1       21 0.17711394E-01 0.47936815E+02</pdfrwt>
<totfact> 0.70722403E+06</totfact>
</mgrwt>
</event>
<event>
 4    1  0.2754379E+004  0.4815491E+02  0.7546771E-02  0.1455555E+00
         21   -1    0    0  501  502  0.00000000000E+00  0.00000000000E+00  0.14029053766E+04  0.14029053766E+04  0.00000000000E+00 0. -1.
         21   -1    0    0  502  503 -0.00000000000E+00 -0.00000000000E+00 -0.17035770347E+01  0.17035770347E+01  0.00000000000E+00 0.  1.
          2    1    1    2  501    0 -0.26757189836E+02  0.40036839004E+02  0.57949978437E+03  0.58149711587E+03  0.00000000000E+00 0.  1.
         -2    1    1    2    0  503  0.26757189836E+02 -0.40036839004E+02  0.82170201523E+03  0.82311183780E+03  0.00000000000E+00 0. -1.
<mgrwt>
<rscale>  2 0.48154913E+02</rscale>
<asrwt>0</asrwt>
<pdfrwt beam="1">  1       21 0.21583067E+00 0.48154913E+02</pdfrwt>
<pdfrwt beam="2">  1       21 0.26208990E-03 0.48154913E+02</pdfrwt>
<totfact> 0.32850762E+06</totfact>
</mgrwt>
</event>
<event>
 4    1  0.2754379E+004  0.2695352E+02  0.7546771E-02  0.1634431E+00
         21   -1    0    0  503  502  0.00000000000E+00  0.00000000000E+00  0.30541365454E+02  0.30541365454E+02  0.00000000000E+00 0. -1.
         21   -1    0    0  501  503 -0.00000000000E+00 -0.00000000000E+00 -0.27657682093E+02  0.27657682093E+02  0.00000000000E+00 0.  1.
          2    1    1    2  501    0  0.24258494735E+02  0.11748084108E+02 -0.94440326713E+01  0.28560143559E+02  0.00000000000E+00 0. -1.
         -2    1    1    2    0  502 -0.24258494735E+02 -0.11748084108E+02  0.12327716032E+02  0.29638903988E+02  0.00000000000E+00 0.  1.
<mgrwt>
<rscale>  2 0.26953516E+02</rscale>
<asrwt>0</asrwt>
<pdfrwt beam="1">  1       21 0.46986716E-02 0.26953516E+02</pdfrwt>
<pdfrwt beam="2">  1       21 0.42550280E-02 0.26953516E+02</pdfrwt>
<totfact> 0.76239230E+07</totfact>
</mgrwt>
</event>
<event>
 4    1  0.2754379E+004  0.2296299E+02  0.7546771E-02  0.1692111E+00
         21   -1    0    0  501  502  0.00000000000E+00  0.00000000000E+00  0.44682208608E+02  0.44682208608E+02  0.00000000000E+00 0. -1.
         21   -1    0    0  502  503 -0.00000000000E+00 -0.00000000000E+00 -0.12539831093E+02  0.12539831093E+02  0.00000000000E+00 0.  1.
          2    1    1    2  501    0  0.17166268084E+02  0.15251818531E+02  0.23015574965E+02  0.32511773550E+02  0.00000000000E+00 0. -1.
         -2    1    1    2    0  503 -0.17166268084E+02 -0.15251818531E+02  0.91268025498E+01  0.24710266150E+02  0.00000000000E+00 0.  1.
<mgrwt>
<rscale>  2 0.22962986E+02</rscale>
<asrwt>0</asrwt>
<pdfrwt beam="1">  1       21 0.68741859E-02 0.22962986E+02</pdfrwt>
<pdfrwt beam="2">  1       21 0.19292048E-02 0.22962986E+02</pdfrwt>
<totfact> 0.13594449E+08</totfact>
</mgrwt>
</event>
<event>
 4    1  0.2754379E+004  0.2082289E+02  0.7546771E-02  0.1729442E+00
         21   -1    0    0  503  502  0.00000000000E+00  0.00000000000E+00  0.49698626834E+02  0.49698626834E+02  0.00000000000E+00 0. -1.
         21   -1    0    0  501  503 -0.00000000000E+00 -0.00000000000E+00 -0.19825215151E+02  0.19825215151E+02  0.00000000000E+00 0.  1.
          2    1    1    2  501    0  0.13620707791E+02 -0.15750209350E+02 -0.11075155612E+02  0.23584991990E+02  0.00000000000E+00 0.  1.
         -2    1    1    2    0  502 -0.13620707791E+02  0.15750209350E+02  0.40948567295E+02  0.45938849995E+02  0.00000000000E+00 0. -1.
<mgrwt>
<rscale>  2 0.20822891E+02</rscale>
<asrwt>0</asrwt>
<pdfrwt beam="1">  1       21 0.76459425E-02 0.20822891E+02</pdfrwt>
<pdfrwt beam="2">  1       21 0.30500331E-02 0.20822891E+02</pdfrwt>
<totfact> 0.54917718E+07</totfact>
</mgrwt>
</event>
<event>
 4    1  0.2754379E+004  0.2628133E+02  0.7546771E-02  0.1643252E+00
         21   -1    0    0  501  502  0.00000000000E+00  0.00000000000E+00  0.78362754020E+02  0.78362754020E+02  0.00000000000E+00 0. -1.
         21   -1    0    0  502  503 -0.00000000000E+00 -0.00000000000E+00 -0.50813346269E+02  0.50813346269E+02  0.00000000000E+00 0.  1.
          2    1    1    2  501    0  0.69143233975E+01  0.25355477626E+02  0.72494332568E+02  0.77111194830E+02  0.00000000000E+00 0. -1.
         -2    1    1    2    0  503 -0.69143233975E+01 -0.25355477626E+02 -0.44944924816E+02  0.52064905459E+02  0.00000000000E+00 0.  1.
<mgrwt>
<rscale>  2 0.26281326E+02</rscale>
<asrwt>0</asrwt>
<pdfrwt beam="1">  1       21 0.12055808E-01 0.26281326E+02</pdfrwt>
<pdfrwt beam="2">  1       21 0.78174379E-02 0.26281326E+02</pdfrwt>
<totfact> 0.60795974E+06</totfact>
</mgrwt>
</event>
<event>
 4    1  0.2754379E+004  0.2740095E+02  0.7546771E-02  0.1628733E+00
         21   -1    0    0  501  502  0.00000000000E+00  0.00000000000E+00  0.16114912722E+02  0.16114912722E+02  0.00000000000E+00 0. -1.
         21   -1    0    0  502  503 -0.00000000000E+00 -0.00000000000E+00 -0.58940665837E+02  0.58940665837E+02  0.00000000000E+00 0.  1.
          2    1    1    2  501    0 -0.22169121200E+02  0.16104098041E+02 -0.42349448130E+01  0.27726281143E+02  0.00000000000E+00 0. -1.
         -2    1    1    2    0  503  0.22169121200E+02 -0.16104098041E+02 -0.38590808302E+02  0.47329297415E+02  0.00000000000E+00 0.  1.
<mgrwt>
<rscale>  2 0.27400947E+02</rscale>
<asrwt>0</asrwt>
<pdfrwt beam="1">  1       21 0.24792173E-02 0.27400947E+02</pdfrwt>
<pdfrwt beam="2">  1       21 0.90677947E-02 0.27400947E+02</pdfrwt>
<totfact> 0.61498941E+07</totfact>
</mgrwt>
</event>
<event>
 4    1  0.2754379E+004  0.2537815E+02  0.7546771E-02  0.1655629E+00
         21   -1    0    0  501  502  0.00000000000E+00  0.00000000000E+00  0.34120991134E+02  0.34120991134E+02  0.00000000000E+00 0. -1.
         21   -1    0    0  502  503 -0.00000000000E+00 -0.00000000000E+00 -0.21192009119E+02  0.21192009119E+02  0.00000000000E+00 0.  1.
          2    1    1    2  501    0  0.53322224422E+01  0.24811649201E+02  0.15608335032E+02  0.29793802287E+02  0.00000000000E+00 0. -1.
         -2    1    1    2    0  503 -0.53322224422E+01 -0.24811649201E+02 -0.26793530165E+01  0.25519197966E+02  0.00000000000E+00 0.  1.
<mgrwt>
<rscale>  2 0.25378151E+02</rscale>
<asrwt>0</asrwt>
<pdfrwt beam="1">  1       21 0.52493833E-02 0.25378151E+02</pdfrwt>
<pdfrwt beam="2">  1       21 0.32603091E-02 0.25378151E+02</pdfrwt>
<totfact> 0.95723279E+07</totfact>
</mgrwt>
</event>
<event>
 4    1  0.2754379E+004  0.2210235E+02  0.7546771E-02  0.1706488E+00
         21   -1    0    0  501  502  0.00000000000E+00  0.00000000000E+00  0.13794466104E+02  0.13794466104E+02  0.00000000000E+00 0.  1.
         21   -1    0    0  502  503 -0.00000000000E+00 -0.00000000000E+00 -0.66708874680E+02  0.66708874680E+02  0.00000000000E+00 0. -1.
          2    1    1    2  501    0  0.21734250410E+02  0.40169921529E+01  0.11123913772E+01  0.22130324928E+02  0.00000000000E+00 0.  1.
         -2    1    1    2    0  503 -0.21734250410E+02 -0.40169921529E+01 -0.54026799954E+02  0.58373015856E+02  0.00000000000E+00 0. -1.
<mgrwt>
<rscale>  2 0.22102350E+02</rscale>
<asrwt>0</asrwt>
<pdfrwt beam="1">  1       21 0.21222255E-02 0.22102350E+02</pdfrwt>
<pdfrwt beam="2">  1       21 0.10262904E-01 0.22102350E+02</pdfrwt>
<totfact> 0.60326978E+07</totfact>
</mgrwt>
</event>
<event>
 4    1  0.2754379E+004  0.2327513E+02  0.7546771E-02  0.1687089E+00
         21   -1    0    0  501  502  0.00000000000E+00  0.00000000000E+00  0.28989938001E+03  0.28989938001E+03  0.00000000000E+00 0.  1.
         21   -1    0    0  502  503 -0.00000000000E+00 -0.00000000000E+00 -0.10144806888E+02  0.10144806888E+02  0.00000000000E+00 0. -1.
          2    1    1    2  501    0  0.16000903985E+01 -0.23220067327E+02  0.27537958450E+03  0.27636144336E+03  0.00000000000E+00 0.  1.
         -2    1    1    2    0  503 -0.16000903985E+01  0.23220067327E+02  0.43749886175E+01  0.23682743535E+02  0.00000000000E+00 0. -1.
<mgrwt>
<rscale>  2 0.23275133E+02</rscale>
<asrwt>0</asrwt>
<pdfrwt beam="1">  1       21 0.44599898E-01 0.23275133E+02</pdfrwt>
<pdfrwt beam="2">  1       21 0.15607397E-02 0.23275133E+02</pdfrwt>
<totfact> 0.73075521E+06</totfact>
</mgrwt>
</event>
<event>
 4    1  0.2754379E+004  0.2754596E+02  0.7546771E-02  0.1626915E+00
         21   -1    0    0  501  502  0.00000000000E+00  0.00000000000E+00  0.49581573279E+03  0.49581573279E+03  0.00000000000E+00 0. -1.
         21   -1    0    0  502  503 -0.00000000000E+00 -0.00000000000E+00 -0.17244631088E+01  0.17244631088E+01  0.00000000000E+00 0.  1.
          2    1    1    2  501    0  0.25490937830E+02  0.10439932969E+02  0.33050584335E+03  0.33165176406E+03  0.00000000000E+00 0. -1.
         -2    1    1    2    0  503 -0.25490937830E+02 -0.10439932969E+02  0.16358542633E+03  0.16588843184E+03  0.00000000000E+00 0.  1.
<mgrwt>
<rscale>  2 0.27545964E+02</rscale>
<asrwt>0</asrwt>
<pdfrwt beam="1">  1       21 0.76279230E-01 0.27545964E+02</pdfrwt>
<pdfrwt beam="2">  1       21 0.26530241E-03 0.27545964E+02</pdfrwt>
<totfact> 0.36103217E+07</totfact>
</mgrwt>
</event>
<event>
 4    1  0.2754379E+004  0.2466601E+02  0.7546771E-02  0.1665846E+00
         21   -1    0    0  503  502  0.00000000000E+00  0.00000000000E+00  0.19470070237E+03  0.19470070237E+03  0.00000000000E+00 0. -1.
         21   -1    0    0  501  503 -0.00000000000E+00 -0.00000000000E+00 -0.37365744803E+01  0.37365744803E+01  0.00000000000E+00 0.  1.
          2    1    1    2  501    0 -0.88090531505E+01 -0.23039366490E+02  0.55337020153E+02  0.60585457208E+02  0.00000000000E+00 0.  1.
         -2    1    1    2    0  502  0.88090531505E+01  0.23039366490E+02  0.13562710774E+03  0.13785181964E+03  0.00000000000E+00 0. -1.
<mgrwt>
<rscale>  2 0.24666005E+02</rscale>
<asrwt>0</asrwt>
<pdfrwt beam="1">  1       21 0.29953946E-01 0.24666005E+02</pdfrwt>
<pdfrwt beam="2">  1       21 0.57485777E-03 0.24666005E+02</pdfrwt>
<totfact> 0.69726526E+07</totfact>
</mgrwt>
</event>
<event>
 4    1  0.2754379E+004  0.2349089E+02  0.7546771E-02  0.1683674E+00
         21   -1    0    0  501  502  0.00000000000E+00  0.00000000000E+00  0.60583182685E+02  0.60583182685E+02  0.00000000000E+00 0. -1.
         21   -1    0    0  502  503 -0.00000000000E+00 -0.00000000000E+00 -0.12842617726E+02  0.12842617726E+02  0.00000000000E+00 0.  1.
          2    1    1    2  501    0  0.31878821366E+00  0.23488726994E+02  0.43666668640E+02  0.49584270407E+02  0.00000000000E+00 0. -1.
         -2    1    1    2    0  503 -0.31878821366E+00 -0.23488726994E+02  0.40738963195E+01  0.23841530004E+02  0.00000000000E+00 0.  1.
<mgrwt>
<rscale>  2 0.23490890E+02</rscale>
<asrwt>0</asrwt>
<pdfrwt beam="1">  1       21 0.93204894E-02 0.23490890E+02</pdfrwt>
<pdfrwt beam="2">  1       21 0.19757874E-02 0.23490890E+02</pdfrwt>
<totfact> 0.80252121E+07</totfact>
</mgrwt>
</event>
<event>
 4    1  0.2754379E+004  0.2119095E+02  0.7546771E-02  0.1722632E+00
         21   -1    0    0  501  502  0.00000000000E+00  0.00000000000E+00  0.93474815222E+02  0.93474815222E+02  0.00000000000E+00 0.  1.
         21   -1    0    0  502  503 -0.00000000000E+00 -0.00000000000E+00 -0.10423451521E+02  0.10423451521E+02  0.00000000000E+00 0. -1.
          2    1    1    2  501    0  0.20959054815E+02 -0.31264112337E+01  0.79668966138E+02  0.82439071995E+02  0.00000000000E+00 0.  1.
         -2    1    1    2    0  503 -0.20959054815E+02  0.31264112337E+01  0.33823975631E+01  0.21459194747E+02  0.00000000000E+00 0. -1.
<mgrwt>
<rscale>  2 0.21190952E+02</rscale>
<asrwt>0</asrwt>
<pdfrwt beam="1">  1       21 0.14380740E-01 0.21190952E+02</pdfrwt>
<pdfrwt beam="2">  1       21 0.16036080E-02 0.21190952E+02</pdfrwt>
<totfact> 0.52060014E+07</totfact>
</mgrwt>
</event>
<event>
 4    1  0.2754379E+004  0.2868413E+02  0.7546771E-02  0.1613107E+00
         21   -1    0    0  503  502  0.00000000000E+00  0.00000000000E+00  0.97106330328E+01  0.97106330328E+01  0.00000000000E+00 0. -1.
         21   -1    0    0  501  503 -0.00000000000E+00 -0.00000000000E+00 -0.12094581784E+03  0.12094581784E+03  0.00000000000E+00 0.  1.
          2    1    1    2  501    0 -0.26508725514E+02 -0.10957490491E+02 -0.91365968427E+02  0.95762828451E+02  0.00000000000E+00 0.  1.
         -2    1    1    2    0  502  0.26508725514E+02  0.10957490491E+02 -0.19869216382E+02  0.34893622424E+02  0.00000000000E+00 0. -1.
<mgrwt>
<rscale>  2 0.28684127E+02</rscale>
<asrwt>0</asrwt>
<pdfrwt beam="1">  1       21 0.14939436E-02 0.28684127E+02</pdfrwt>
<pdfrwt beam="2">  1       21 0.18607049E-01 0.28684127E+02</pdfrwt>
<totfact> 0.40042618E+07</totfact>
</mgrwt>
</event>
<event>
 4    1  0.2754379E+004  0.2351696E+02  0.7546771E-02  0.1683265E+00
         21   -1    0    0  501  502  0.00000000000E+00  0.00000000000E+00  0.88961008753E+02  0.88961008753E+02  0.00000000000E+00 0.  1.
         21   -1    0    0  502  503 -0.00000000000E+00 -0.00000000000E+00 -0.78112934824E+01  0.78112934824E+01  0.00000000000E+00 0. -1.
          2    1    1    2  501    0 -0.10854417789E+02 -0.20862139330E+02  0.62436333595E+02  0.66718385740E+02  0.00000000000E+00 0.  1.
         -2    1    1    2    0  503  0.10854417789E+02  0.20862139330E+02  0.18713381675E+02  0.30053916495E+02  0.00000000000E+00 0. -1.
<mgrwt>
<rscale>  2 0.23516956E+02</rscale>
<asrwt>0</asrwt>
<pdfrwt beam="1">  1       21 0.13686308E-01 0.23516956E+02</pdfrwt>
<pdfrwt beam="2">  1       21 0.12017375E-02 0.23516956E+02</pdfrwt>
<totfact> 0.90124224E+07</totfact>
</mgrwt>
</event>
<event>
 4    1  0.2754379E+004  0.2547633E+02  0.7546771E-02  0.1654253E+00
         21   -1    0    0  501  502  0.00000000000E+00  0.00000000000E+00  0.12947855044E+03  0.12947855044E+03  0.00000000000E+00 0.  1.
         21   -1    0    0  502  503 -0.00000000000E+00 -0.00000000000E+00 -0.64346323073E+01  0.64346323073E+01  0.00000000000E+00 0. -1.
          2    1    1    2  501    0  0.24152507718E+02  0.81055238011E+01  0.93466899700E+02  0.96876748938E+02  0.00000000000E+00 0. -1.
         -2    1    1    2    0  503 -0.24152507718E+02 -0.81055238011E+01  0.29577018430E+02  0.39036433808E+02  0.00000000000E+00 0.  1.
<mgrwt>
<rscale>  2 0.25476325E+02</rscale>
<asrwt>0</asrwt>
<pdfrwt beam="1">  1       21 0.19919775E-01 0.25476325E+02</pdfrwt>
<pdfrwt beam="2">  1       21 0.98994353E-03 0.25476325E+02</pdfrwt>
<totfact> 0.64618741E+07</totfact>
</mgrwt>
</event>
<event>
 4    1  0.2754379E+004  0.2848503E+02  0.7546771E-02  0.1615465E+00
         21   -1    0    0  503  502  0.00000000000E+00  0.00000000000E+00  0.39505596480E+02  0.39505596480E+02  0.00000000000E+00 0.  1.
         21   -1    0    0  501  503 -0.00000000000E+00 -0.00000000000E+00 -0.21758288700E+02  0.21758288700E+02  0.00000000000E+00 0. -1.
          2    1    1    2  501    0 -0.27352914603E+02 -0.79507740360E+01  0.16217061220E+01  0.28531152725E+02  0.00000000000E+00 0. -1.
         -2    1    1    2    0  502  0.27352914603E+02  0.79507740360E+01  0.16125601658E+02  0.32732732454E+02  0.00000000000E+00 0.  1.
<mgrwt>
<rscale>  2 0.28485027E+02</rscale>
<asrwt>0</asrwt>
<pdfrwt beam="1">  1       21 0.60777841E-02 0.28485027E+02</pdfrwt>
<pdfrwt beam="2">  1       21 0.33474290E-02 0.28485027E+02</pdfrwt>
<totfact> 0.74702838E+07</totfact>
</mgrwt>
</event>
<event>
 4    1  0.2754379E+004  0.2992829E+02  0.7546771E-02  0.1598883E+00
         21   -1    0    0  501  502  0.00000000000E+00  0.00000000000E+00  0.11749958942E+03  0.11749958942E+03  0.00000000000E+00 0.  1.
         21   -1    0    0  502  503 -0.00000000000E+00 -0.00000000000E+00 -0.95653181972E+01  0.95653181972E+01  0.00000000000E+00 0. -1.
          2    1    1    2  501    0 -0.29108486458E+02  0.69569017752E+01  0.82595936769E+02  0.87850960364E+02  0.00000000000E+00 0.  1.
         -2    1    1    2    0  503  0.29108486458E+02 -0.69569017752E+01  0.25338334452E+02  0.39213947251E+02  0.00000000000E+00 0. -1.
<mgrwt>
<rscale>  2 0.29928289E+02</rscale>
<asrwt>0</asrwt>
<pdfrwt beam="1">  1       21 0.18076859E-01 0.29928289E+02</pdfrwt>
<pdfrwt beam="2">  1       21 0.14715875E-02 0.29928289E+02</pdfrwt>
<totfact> 0.43497456E+07</totfact>
</mgrwt>
</event>
<event>
 4    1  0.2754379E+004  0.2102664E+02  0.7546771E-02  0.1725650E+00
         21   -1    0    0  501  502  0.00000000000E+00  0.00000000000E+00  0.29016917143E+01  0.29016917143E+01  0.00000000000E+00 0. -1.
         21   -1    0    0  502  503 -0.00000000000E+00 -0.00000000000E+00 -0.16525385240E+03  0.16525385240E+03  0.00000000000E+00 0.  1.
          2    1    1    2  501    0 -0.17724950469E+02  0.11311311740E+02 -0.57696362537E+02  0.61408386174E+02  0.00000000000E+00 0.  1.
         -2    1    1    2    0  503  0.17724950469E+02 -0.11311311740E+02 -0.10465579815E+03  0.10674715794E+03  0.00000000000E+00 0. -1.
<mgrwt>
<rscale>  2 0.21026641E+02</rscale>
<asrwt>0</asrwt>
<pdfrwt beam="1">  1       21 0.44641402E-03 0.21026641E+02</pdfrwt>
<pdfrwt beam="2">  1       21 0.25423675E-01 0.21026641E+02</pdfrwt>
<totfact> 0.13030858E+08</totfact>
</mgrwt>
</event>
<event>
 4    1  0.2754379E+004  0.3214396E+02  0.7546771E-02  0.1575531E+00
         21   -1    0    0  501  502  0.00000000000E+00  0.00000000000E+00  0.71618331260E+02  0.71618331260E+02  0.00000000000E+00 0. -1.
         21   -1    0    0  502  503 -0.00000000000E+00 -0.00000000000E+00 -0.14632705486E+02  0.14632705486E+02  0.00000000000E+00 0.  1.
          2    1    1    2  501    0  0.31211761822E+02  0.76850704600E+01  0.33606607796E+02  0.46504176926E+02  0.00000000000E+00 0.  1.
         -2    1    1    2    0  503 -0.31211761822E+02 -0.76850704600E+01  0.23379017978E+02  0.39746859821E+02  0.00000000000E+00 0. -1.
<mgrwt>
<rscale>  2 0.32143963E+02</rscale>
<asrwt>0</asrwt>
<pdfrwt beam="1">  1       21 0.11018205E-01 0.32143963E+02</pdfrwt>
<pdfrwt beam="2">  1       21 0.22511855E-02 0.32143963E+02</pdfrwt>
<totfact> 0.53519114E+07</totfact>
</mgrwt>
</event>
<event>
 4    1  0.2754379E+004  0.2627387E+02  0.7546771E-02  0.1643351E+00
         21   -1    0    0  501  502  0.00000000000E+00  0.00000000000E+00  0.80905419111E+02  0.80905419111E+02  0.00000000000E+00 0. -1.
         21   -1    0    0  502  503 -0.00000000000E+00 -0.00000000000E+00 -0.86124607045E+01  0.86124607045E+01  0.00000000000E+00 0.  1.
          2    1    1    2  501    0  0.11526358088E+02 -0.23610576020E+02  0.40462315836E+02  0.48244328512E+02  0.00000000000E+00 0. -1.
         -2    1    1    2    0  503 -0.11526358088E+02  0.23610576020E+02  0.31830642571E+02  0.41273551304E+02  0.00000000000E+00 0.  1.
<mgrwt>
<rscale>  2 0.26273870E+02</rscale>
<asrwt>0</asrwt>
<pdfrwt beam="1">  1       21 0.12446987E-01 0.26273870E+02</pdfrwt>
<pdfrwt beam="2">  1       21 0.13249940E-02 0.26273870E+02</pdfrwt>
<totfact> 0.93956821E+07</totfact>
</mgrwt>
</event>
<event>
 4    1  0.2754379E+004  0.4727527E+02  0.7546771E-02  0.1460618E+00
         21   -1    0    0  503  502  0.00000000000E+00  0.00000000000E+00  0.34576038804E+02  0.34576038804E+02  0.00000000000E+00 0. -1.
         21   -1    0    0  501  503 -0.00000000000E+00 -0.00000000000E+00 -0.40217855633E+03  0.40217855633E+03  0.00000000000E+00 0.  1.
          2    1    1    2  501    0  0.15936142703E+02  0.44508318132E+02 -0.38386138894E+03  0.38676157635E+03  0.00000000000E+00 0.  1.
         -2    1    1    2    0  502 -0.15936142703E+02 -0.44508318132E+02  0.16258871410E+02  0.49993018780E+02  0.00000000000E+00 0. -1.
<mgrwt>
<rscale>  2 0.47275269E+02</rscale>
<asrwt>0</asrwt>
<pdfrwt beam="1">  1       21 0.53193910E-02 0.47275269E+02</pdfrwt>
<pdfrwt beam="2">  1       21 0.61873619E-01 0.47275269E+02</pdfrwt>
<totfact> 0.58817208E+05</totfact>
</mgrwt>
</event>
<event>
 4    1  0.2754379E+004  0.2827844E+02  0.7546771E-02  0.1617937E+00
         21   -1    0    0  501  502  0.00000000000E+00  0.00000000000E+00  0.62587728876E+01  0.62587728876E+01  0.00000000000E+00 0.  1.
         21   -1    0    0  502  503 -0.00000000000E+00 -0.00000000000E+00 -0.33728261964E+03  0.33728261964E+03  0.00000000000E+00 0. -1.
          2    1    1    2  501    0 -0.22945357068E+02 -0.16528175659E+02 -0.30130396119E+02  0.41322037364E+02  0.00000000000E+00 0.  1.
         -2    1    1    2    0  503  0.22945357068E+02  0.16528175659E+02 -0.30089345064E+03  0.30221935517E+03  0.00000000000E+00 0. -1.
<mgrwt>
<rscale>  2 0.28278437E+02</rscale>
<asrwt>0</asrwt>
<pdfrwt beam="1">  1       21 0.96288812E-03 0.28278437E+02</pdfrwt>
<pdfrwt beam="2">  1       21 0.51889635E-01 0.28278437E+02</pdfrwt>
<totfact> 0.11698512E+07</totfact>
</mgrwt>
</event>
<event>
 4    1  0.2754379E+004  0.2120658E+02  0.7546771E-02  0.1722346E+00
         21   -1    0    0  503  502  0.00000000000E+00  0.00000000000E+00  0.27047457735E+03  0.27047457735E+03  0.00000000000E+00 0.  1.
         21   -1    0    0  501  503 -0.00000000000E+00 -0.00000000000E+00 -0.17070735611E+01  0.17070735611E+01  0.00000000000E+00 0. -1.
          2    1    1    2  501    0  0.13834998388E+02 -0.16072078278E+02  0.15632444704E+03  0.15775630454E+03  0.00000000000E+00 0.  1.
         -2    1    1    2    0  502 -0.13834998388E+02  0.16072078278E+02  0.11244305675E+03  0.11442534637E+03  0.00000000000E+00 0. -1.
<mgrwt>
<rscale>  2 0.21206576E+02</rscale>
<asrwt>0</asrwt>
<pdfrwt beam="1">  1       21 0.41611440E-01 0.21206576E+02</pdfrwt>
<pdfrwt beam="2">  1       21 0.26262692E-03 0.21206576E+02</pdfrwt>
<totfact> 0.11484726E+08</totfact>
</mgrwt>
</event>
<event>
 4    1  0.2754379E+004  0.2723951E+02  0.7546771E-02  0.1630773E+00
         21   -1    0    0  501  502  0.00000000000E+00  0.00000000000E+00  0.23277891118E+02  0.23277891118E+02  0.00000000000E+00 0. -1.
         21   -1    0    0  502  503 -0.00000000000E+00 -0.00000000000E+00 -0.37763554806E+02  0.37763554806E+02  0.00000000000E+00 0.  1.
          2    1    1    2  501    0 -0.23052872594E+02 -0.14510554447E+02  0.48089017084E+01  0.27660742232E+02  0.00000000000E+00 0. -1.
         -2    1    1    2    0  503  0.23052872594E+02  0.14510554447E+02 -0.19294565396E+02  0.33380703693E+02  0.00000000000E+00 0.  1.
<mgrwt>
<rscale>  2 0.27239514E+02</rscale>
<asrwt>0</asrwt>
<pdfrwt beam="1">  1       21 0.35812141E-02 0.27239514E+02</pdfrwt>
<pdfrwt beam="2">  1       21 0.58097776E-02 0.27239514E+02</pdfrwt>
<totfact> 0.71436554E+07</totfact>
</mgrwt>
</event>
<event>
 4    1  0.2754379E+004  0.2521563E+02  0.7546771E-02  0.1657924E+00
         21   -1    0    0  503  502  0.00000000000E+00  0.00000000000E+00  0.81905868444E+02  0.81905868444E+02  0.00000000000E+00 0. -1.
         21   -1    0    0  501  503 -0.00000000000E+00 -0.00000000000E+00 -0.12324373502E+02  0.12324373502E+02  0.00000000000E+00 0.  1.
          2    1    1    2  501    0 -0.15202353877E+02  0.20117564144E+02  0.61271993262E+01  0.25949383847E+02  0.00000000000E+00 0.  1.
         -2    1    1    2    0  502  0.15202353877E+02 -0.20117564144E+02  0.63454295617E+02  0.68280858099E+02  0.00000000000E+00 0. -1.
<mgrwt>
<rscale>  2 0.25215629E+02</rscale>
<asrwt>0</asrwt>
<pdfrwt beam="1">  1       21 0.12600903E-01 0.25215629E+02</pdfrwt>
<pdfrwt beam="2">  1       21 0.18960575E-02 0.25215629E+02</pdfrwt>
<totfact> 0.52667997E+07</totfact>
</mgrwt>
</event>
<event>
 4    1  0.2754379E+004  0.2168321E+02  0.7546771E-02  0.1713789E+00
         21   -1    0    0  503  502  0.00000000000E+00  0.00000000000E+00  0.35370679079E+02  0.35370679079E+02  0.00000000000E+00 0.  1.
         21   -1    0    0  501  503 -0.00000000000E+00 -0.00000000000E+00 -0.13866977532E+02  0.13866977532E+02  0.00000000000E+00 0. -1.
          2    1    1    2  501    0 -0.13075296804E+02 -0.17297352760E+02  0.57406183170E+01  0.22430258529E+02  0.00000000000E+00 0. -1.
         -2    1    1    2    0  502  0.13075296804E+02  0.17297352760E+02  0.15763083231E+02  0.26807398082E+02  0.00000000000E+00 0.  1.
<mgrwt>
<rscale>  2 0.21683215E+02</rscale>
<asrwt>0</asrwt>
<pdfrwt beam="1">  1       21 0.54416429E-02 0.21683215E+02</pdfrwt>
<pdfrwt beam="2">  1       21 0.21333812E-02 0.21683215E+02</pdfrwt>
<totfact> 0.16663223E+08</totfact>
</mgrwt>
</event>
<event>
 4    1  0.2754379E+004  0.2166961E+02  0.7546771E-02  0.1714029E+00
         21   -1    0    0  503  502  0.00000000000E+00  0.00000000000E+00  0.52749839922E+03  0.52749839922E+03  0.00000000000E+00 0.  1.
         21   -1    0    0  501  503 -0.00000000000E+00 -0.00000000000E+00 -0.15252403586E+01  0.15252403586E+01  0.00000000000E+00 0. -1.
          2    1    1    2  501    0  0.57472422121E+01 -0.20893571427E+02  0.92307178061E+02  0.94816597923E+02  0.00000000000E+00 0. -1.
         -2    1    1    2    0  502 -0.57472422121E+01  0.20893571427E+02  0.43366598080E+03  0.43420704165E+03  0.00000000000E+00 0.  1.
<mgrwt>
<rscale>  2 0.21669613E+02</rscale>
<asrwt>0</asrwt>
<pdfrwt beam="1">  1       21 0.81153454E-01 0.21669613E+02</pdfrwt>
<pdfrwt beam="2">  1       21 0.23465278E-03 0.21669613E+02</pdfrwt>
<totfact> 0.36070040E+07</totfact>
</mgrwt>
</event>
<event>
 4    1  0.2754379E+004  0.2566158E+02  0.7546771E-02  0.1651677E+00
         21   -1    0    0  503  502  0.00000000000E+00  0.00000000000E+00  0.28407353739E+03  0.28407353739E+03  0.00000000000E+00 0. -1.
         21   -1    0    0  501  503 -0.00000000000E+00 -0.00000000000E+00 -0.24498115896E+01  0.24498115896E+01  0.00000000000E+00 0.  1.
          2    1    1    2  501    0  0.23175674868E+02 -0.11018384643E+02  0.10759628693E+03  0.11061409344E+03  0.00000000000E+00 0.  1.
         -2    1    1    2    0  502 -0.23175674868E+02  0.11018384643E+02  0.17402743886E+03  0.17590925554E+03  0.00000000000E+00 0. -1.
<mgrwt>
<rscale>  2 0.25661580E+02</rscale>
<asrwt>0</asrwt>
<pdfrwt beam="1">  1       21 0.43703595E-01 0.25661580E+02</pdfrwt>
<pdfrwt beam="2">  1       21 0.37689432E-03 0.25661580E+02</pdfrwt>
<totfact> 0.64816585E+07</totfact>
</mgrwt>
</event>
<event>
 4    1  0.2754379E+004  0.2449562E+02  0.7546771E-02  0.1668354E+00
         21   -1    0    0  503  502  0.00000000000E+00  0.00000000000E+00  0.13068837535E+03  0.13068837535E+03  0.00000000000E+00 0.  1.
         21   -1    0    0  501  503 -0.00000000000E+00 -0.00000000000E+00 -0.71053300446E+01  0.71053300446E+01  0.00000000000E+00 0. -1.
          2    1    1    2  501    0  0.42290565134E+00  0.24491967109E+02  0.20809944621E+02  0.32141703396E+02  0.00000000000E+00 0. -1.
         -2    1    1    2    0  502 -0.42290565134E+00 -0.24491967109E+02  0.10277310068E+03  0.10565200200E+03  0.00000000000E+00 0.  1.
<mgrwt>
<rscale>  2 0.24495618E+02</rscale>
<asrwt>0</asrwt>
<pdfrwt beam="1">  1       21 0.20105902E-01 0.24495618E+02</pdfrwt>
<pdfrwt beam="2">  1       21 0.10931278E-02 0.24495618E+02</pdfrwt>
<totfact> 0.54236008E+07</totfact>
</mgrwt>
</event>
<event>
 4    1  0.2754379E+004  0.3205288E+02  0.7546771E-02  0.1576446E+00
         21   -1    0    0  501  502  0.00000000000E+00  0.00000000000E+00  0.59514798872E+02  0.59514798872E+02  0.00000000000E+00 0. -1.
         21   -1    0    0  502  503 -0.00000000000E+00 -0.00000000000E+00 -0.22943957213E+02  0.22943957213E+02  0.00000000000E+00 0.  1.
          2    1    1    2  501    0  0.15975289981E+02 -0.27788071587E+02  0.38801501667E+02  0.50328355269E+02  0.00000000000E+00 0.  1.
         -2    1    1    2    0  503 -0.15975289981E+02  0.27788071587E+02 -0.22306600075E+01  0.32130400815E+02  0.00000000000E+00 0. -1.
<mgrwt>
<rscale>  2 0.32052875E+02</rscale>
<asrwt>0</asrwt>
<pdfrwt beam="1">  1       21 0.91561228E-02 0.32052875E+02</pdfrwt>
<pdfrwt beam="2">  1       21 0.35298396E-02 0.32052875E+02</pdfrwt>
<totfact> 0.35963525E+07</totfact>
</mgrwt>
</event>
<event>
 4    1  0.2754379E+004  0.2402477E+02  0.7546771E-02  0.1675418E+00
         21   -1    0    0  501  502  0.00000000000E+00  0.00000000000E+00  0.88451515402E+03  0.88451515402E+03  0.00000000000E+00 0.  1.
         21   -1    0    0  502  503 -0.00000000000E+00 -0.00000000000E+00 -0.68989810059E+00  0.68989810059E+00  0.00000000000E+00 0. -1.
          2    1    1    2  501    0 -0.67492303313E+01 -0.23057263931E+02  0.54489458803E+03  0.54542396500E+03  0.00000000000E+00 0.  1.
         -2    1    1    2    0  503  0.67492303313E+01  0.23057263931E+02  0.33893066789E+03  0.33978108712E+03  0.00000000000E+00 0. -1.
<mgrwt>
<rscale>  2 0.24024769E+02</rscale>
<asrwt>0</asrwt>
<pdfrwt beam="1">  1       21 0.13607835E+00 0.24024769E+02</pdfrwt>
<pdfrwt beam="2">  1       21 0.10613888E-03 0.24024769E+02</pdfrwt>
<totfact> 0.36781838E+07</totfact>
</mgrwt>
</event>
<event>
 4    1  0.2754379E+004  0.2112988E+02  0.7546771E-02  0.1723750E+00
         21   -1    0    0  503  502  0.00000000000E+00  0.00000000000E+00  0.23030563789E+03  0.23030563789E+03  0.00000000000E+00 0.  1.
         21   -1    0    0  501  503 -0.00000000000E+00 -0.00000000000E+00 -0.41289936139E+01  0.41289936139E+01  0.00000000000E+00 0. -1.
          2    1    1    2  501    0 -0.20986670387E+02  0.24558840921E+01  0.27713416640E+02  0.34849751254E+02  0.00000000000E+00 0. -1.
         -2    1    1    2    0  502  0.20986670387E+02 -0.24558840921E+01  0.19846322763E+03  0.19958488025E+03  0.00000000000E+00 0.  1.
<mgrwt>
<rscale>  2 0.21129877E+02</rscale>
<asrwt>0</asrwt>
<pdfrwt beam="1">  1       21 0.35431627E-01 0.21129877E+02</pdfrwt>
<pdfrwt beam="2">  1       21 0.63522997E-03 0.21129877E+02</pdfrwt>
<totfact> 0.42524790E+07</totfact>
</mgrwt>
</event>
<event>
 4    1  0.2754379E+004  0.2511905E+02  0.7546771E-02  0.1659298E+00
         21   -1    0    0  503  502  0.00000000000E+00  0.00000000000E+00  0.15050244565E+03  0.15050244565E+03  0.00000000000E+00 0.  1.
         21   -1    0    0  501  503 -0.00000000000E+00 -0.00000000000E+00 -0.48366810112E+01  0.48366810112E+01  0.00000000000E+00 0. -1.
          2    1    1    2  501    0  0.24363436218E+02  0.61146891165E+01  0.44485378695E+02  0.51087330768E+02  0.00000000000E+00 0. -1.
         -2    1    1    2    0  502 -0.24363436218E+02 -0.61146891165E+01  0.10118038594E+03  0.10425179589E+03  0.00000000000E+00 0.  1.
<mgrwt>
<rscale>  2 0.25119046E+02</rscale>
<asrwt>0</asrwt>
<pdfrwt beam="1">  1       21 0.23154219E-01 0.25119046E+02</pdfrwt>
<pdfrwt beam="2">  1       21 0.74410489E-03 0.25119046E+02</pdfrwt>
<totfact> 0.75796396E+07</totfact>
</mgrwt>
</event>
<event>
 4    1  0.2754379E+004  0.2102456E+02  0.7546771E-02  0.1725689E+00
         21   -1    0    0  503  502  0.00000000000E+00  0.00000000000E+00  0.35129331942E+02  0.35129331942E+02  0.00000000000E+00 0.  1.
         21   -1    0    0  501  503 -0.00000000000E+00 -0.00000000000E+00 -0.28528159083E+02  0.28528159083E+02  0.00000000000E+00 0. -1.
          2    1    1    2  501    0  0.12549807737E+02 -0.16868153808E+02 -0.20495038438E+02  0.29361179944E+02  0.00000000000E+00 0. -1.
         -2    1    1    2    0  502 -0.12549807737E+02  0.16868153808E+02  0.27096211297E+02  0.34296311081E+02  0.00000000000E+00 0.  1.
<mgrwt>
<rscale>  2 0.21024564E+02</rscale>
<asrwt>0</asrwt>
<pdfrwt beam="1">  1       21 0.54045126E-02 0.21024564E+02</pdfrwt>
<pdfrwt beam="2">  1       21 0.43889476E-02 0.21024564E+02</pdfrwt>
<totfact> 0.54401291E+07</totfact>
</mgrwt>
</event>
<event>
 4    1  0.2754379E+004  0.2122277E+02  0.7546771E-02  0.1722051E+00
         21   -1    0    0  501  502  0.00000000000E+00  0.00000000000E+00  0.81832730366E+02  0.81832730366E+02  0.00000000000E+00 0. -1.
         21   -1    0    0  502  503 -0.00000000000E+00 -0.00000000000E+00 -0.90154727262E+01  0.90154727262E+01  0.00000000000E+00 0.  1.
          2    1    1    2  501    0 -0.75200749833E+01 -0.19845761048E+02  0.64757641904E+02  0.68146591583E+02  0.00000000000E+00 0. -1.
         -2    1    1    2    0  503  0.75200749833E+01  0.19845761048E+02  0.80596157356E+01  0.22701611510E+02  0.00000000000E+00 0.  1.
<mgrwt>
<rscale>  2 0.21222765E+02</rscale>
<asrwt>0</asrwt>
<pdfrwt beam="1">  1       21 0.12589650E-01 0.21222765E+02</pdfrwt>
<pdfrwt beam="2">  1       21 0.13869959E-02 0.21222765E+02</pdfrwt>
<totfact> 0.81168194E+07</totfact>
</mgrwt>
</event>
<event>
 4    1  0.2754379E+004  0.2253245E+02  0.7546771E-02  0.1699203E+00
         21   -1    0    0  501  502  0.00000000000E+00  0.00000000000E+00  0.15153803375E+02  0.15153803375E+02  0.00000000000E+00 0. -1.
         21   -1    0    0  502  503 -0.00000000000E+00 -0.00000000000E+00 -0.49293897868E+02  0.49293897868E+02  0.00000000000E+00 0.  1.
          2    1    1    2  501    0 -0.17197724490E+02  0.14558492147E+02  0.11677328155E+01  0.22562690911E+02  0.00000000000E+00 0. -1.
         -2    1    1    2    0  503  0.17197724490E+02 -0.14558492147E+02 -0.35307827308E+02  0.41885010331E+02  0.00000000000E+00 0.  1.
<mgrwt>
<rscale>  2 0.22532453E+02</rscale>
<asrwt>0</asrwt>
<pdfrwt beam="1">  1       21 0.23313544E-02 0.22532453E+02</pdfrwt>
<pdfrwt beam="2">  1       21 0.75836765E-02 0.22532453E+02</pdfrwt>
<totfact> 0.86182524E+07</totfact>
</mgrwt>
</event>
<event>
 4    1  0.2754379E+004  0.2298808E+02  0.7546771E-02  0.1691703E+00
         21   -1    0    0  501  502  0.00000000000E+00  0.00000000000E+00  0.94990946284E+02  0.94990946284E+02  0.00000000000E+00 0. -1.
         21   -1    0    0  502  503 -0.00000000000E+00 -0.00000000000E+00 -0.55667268942E+01  0.55667268942E+01  0.00000000000E+00 0.  1.
          2    1    1    2  501    0  0.10006671511E+02 -0.20695850369E+02  0.45981315764E+02  0.51407519845E+02  0.00000000000E+00 0. -1.
         -2    1    1    2    0  503 -0.10006671511E+02  0.20695850369E+02  0.43442903626E+02  0.49150153333E+02  0.00000000000E+00 0.  1.
<mgrwt>
<rscale>  2 0.22988077E+02</rscale>
<asrwt>0</asrwt>
<pdfrwt beam="1">  1       21 0.14613991E-01 0.22988077E+02</pdfrwt>
<pdfrwt beam="2">  1       21 0.85641959E-03 0.22988077E+02</pdfrwt>
<totfact> 0.13331821E+08</totfact>
</mgrwt>
</event>
<event>
 4    1  0.2754379E+004  0.3397338E+02  0.7546771E-02  0.1557911E+00
         21   -1    0    0  501  502  0.00000000000E+00  0.00000000000E+00  0.27788222298E+04  0.27788222298E+04  0.00000000000E+00 0. -1.
         21   -1    0    0  502  503 -0.00000000000E+00 -0.00000000000E+00 -0.82547449660E+00  0.82547449660E+00  0.00000000000E+00 0.  1.
          2    1    1    2  501    0 -0.33971984891E+02 -0.30787263627E+00  0.23686338527E+04  0.23688774807E+04  0.00000000000E+00 0. -1.
         -2    1    1    2    0  503  0.33971984891E+02  0.30787263627E+00  0.40936290264E+03  0.41077022361E+03  0.00000000000E+00 0.  1.
<mgrwt>
<rscale>  2 0.33973380E+02</rscale>
<asrwt>0</asrwt>
<pdfrwt beam="1">  1       21 0.42750362E+00 0.33973380E+02</pdfrwt>
<pdfrwt beam="2">  1       21 0.12699830E-03 0.33973380E+02</pdfrwt>
<totfact> 0.71195382E+05</totfact>
</mgrwt>
</event>
<event>
 4    1  0.2754379E+004  0.5099932E+02  0.7546771E-02  0.1440025E+00
         21   -1    0    0  501  502  0.00000000000E+00  0.00000000000E+00  0.36663313898E+03  0.36663313898E+03  0.00000000000E+00 0.  1.
         21   -1    0    0  502  503 -0.00000000000E+00 -0.00000000000E+00 -0.74815753025E+01  0.74815753025E+01  0.00000000000E+00 0. -1.
          2    1    1    2  501    0 -0.49083976988E+02  0.13845339419E+02  0.22214574089E+03  0.22792468146E+03  0.00000000000E+00 0.  1.
         -2    1    1    2    0  503  0.49083976988E+02 -0.13845339419E+02  0.13700582279E+03  0.14619003283E+03  0.00000000000E+00 0. -1.
<mgrwt>
<rscale>  2 0.50999316E+02</rscale>
<asrwt>0</asrwt>
<pdfrwt beam="1">  1       21 0.56405084E-01 0.50999316E+02</pdfrwt>
<pdfrwt beam="2">  1       21 0.11510119E-02 0.50999316E+02</pdfrwt>
<totfact> 0.81267977E+06</totfact>
</mgrwt>
</event>
<event>
 4    1  0.2754379E+004  0.2628287E+02  0.7546771E-02  0.1643231E+00
         21   -1    0    0  503  502  0.00000000000E+00  0.00000000000E+00  0.45772269345E+01  0.45772269345E+01  0.00000000000E+00 0.  1.
         21   -1    0    0  501  503 -0.00000000000E+00 -0.00000000000E+00 -0.15585821329E+03  0.15585821329E+03  0.00000000000E+00 0. -1.
          2    1    1    2  501    0  0.19531207133E+02  0.17587529504E+02 -0.89921095129E+02  0.93683470235E+02  0.00000000000E+00 0.  1.
         -2    1    1    2    0  502 -0.19531207133E+02 -0.17587529504E+02 -0.61359891230E+02  0.66751969993E+02  0.00000000000E+00 0. -1.
<mgrwt>
<rscale>  2 0.26282870E+02</rscale>
<asrwt>0</asrwt>
<pdfrwt beam="1">  1       21 0.70418885E-03 0.26282870E+02</pdfrwt>
<pdfrwt beam="2">  1       21 0.23978184E-01 0.26282870E+02</pdfrwt>
<totfact> 0.78196305E+07</totfact>
</mgrwt>
</event>
<event>
 4    1  0.2754379E+004  0.2344582E+02  0.7546771E-02  0.1684384E+00
         21   -1    0    0  503  502  0.00000000000E+00  0.00000000000E+00  0.19396878496E+02  0.19396878496E+02  0.00000000000E+00 0.  1.
         21   -1    0    0  501  503 -0.00000000000E+00 -0.00000000000E+00 -0.62904432127E+02  0.62904432127E+02  0.00000000000E+00 0. -1.
          2    1    1    2  501    0  0.16848013414E+01 -0.23385205820E+02 -0.52257384837E+02  0.57276004372E+02  0.00000000000E+00 0. -1.
         -2    1    1    2    0  502 -0.16848013414E+01  0.23385205820E+02  0.87498312058E+01  0.25025306251E+02  0.00000000000E+00 0.  1.
<mgrwt>
<rscale>  2 0.23445819E+02</rscale>
<asrwt>0</asrwt>
<pdfrwt beam="1">  1       21 0.29841351E-02 0.23445819E+02</pdfrwt>
<pdfrwt beam="2">  1       21 0.96776051E-02 0.23445819E+02</pdfrwt>
<totfact> 0.39847510E+07</totfact>
</mgrwt>
</event>
<event>
 4    1  0.2754379E+004  0.2048315E+02  0.7546771E-02  0.1735887E+00
         21   -1    0    0  501  502  0.00000000000E+00  0.00000000000E+00  0.34767036444E+01  0.34767036444E+01  0.00000000000E+00 0.  1.
         21   -1    0    0  502  503 -0.00000000000E+00 -0.00000000000E+00 -0.14957866432E+03  0.14957866432E+03  0.00000000000E+00 0. -1.
          2    1    1    2  501    0 -0.10307486130E+02 -0.17700707176E+02 -0.39412008815E+02  0.44416953336E+02  0.00000000000E+00 0.  1.
         -2    1    1    2    0  503  0.10307486130E+02  0.17700707176E+02 -0.10668995186E+03  0.10863841463E+03  0.00000000000E+00 0. -1.
<mgrwt>
<rscale>  2 0.20483147E+02</rscale>
<asrwt>0</asrwt>
<pdfrwt beam="1">  1       21 0.53487750E-03 0.20483147E+02</pdfrwt>
<pdfrwt beam="2">  1       21 0.23012102E-01 0.20483147E+02</pdfrwt>
<totfact> 0.11828354E+08</totfact>
</mgrwt>
</event>
<event>
 4    1  0.2754379E+004  0.2425478E+02  0.7546771E-02  0.1671942E+00
         21   -1    0    0  503  502  0.00000000000E+00  0.00000000000E+00  0.14701511717E+02  0.14701511717E+02  0.00000000000E+00 0.  1.
         21   -1    0    0  501  503 -0.00000000000E+00 -0.00000000000E+00 -0.46782089553E+02  0.46782089553E+02  0.00000000000E+00 0. -1.
          2    1    1    2  501    0 -0.33363018971E+01  0.24024226411E+02 -0.27731547422E+02  0.36842001675E+02  0.00000000000E+00 0. -1.
         -2    1    1    2    0  502  0.33363018971E+01 -0.24024226411E+02 -0.43490304139E+01  0.24641599594E+02  0.00000000000E+00 0.  1.
<mgrwt>
<rscale>  2 0.24254780E+02</rscale>
<asrwt>0</asrwt>
<pdfrwt beam="1">  1       21 0.22617710E-02 0.24254780E+02</pdfrwt>
<pdfrwt beam="2">  1       21 0.71972446E-02 0.24254780E+02</pdfrwt>
<totfact> 0.10039490E+08</totfact>
</mgrwt>
</event>
<event>
 4    1  0.2754379E+004  0.2773522E+02  0.7546771E-02  0.1624562E+00
         21   -1    0    0  503  502  0.00000000000E+00  0.00000000000E+00  0.20371807079E+01  0.20371807079E+01  0.00000000000E+00 0. -1.
         21   -1    0    0  501  503 -0.00000000000E+00 -0.00000000000E+00 -0.38727972840E+03  0.38727972840E+03  0.00000000000E+00 0.  1.
          2    1    1    2  501    0  0.11258970314E+02  0.25347148687E+02 -0.16184895131E+03  0.16420817702E+03  0.00000000000E+00 0. -1.
         -2    1    1    2    0  502 -0.11258970314E+02 -0.25347148687E+02 -0.22339359638E+03  0.22510873209E+03  0.00000000000E+00 0.  1.
<mgrwt>
<rscale>  2 0.27735219E+02</rscale>
<asrwt>0</asrwt>
<pdfrwt beam="1">  1       21 0.31341294E-03 0.27735219E+02</pdfrwt>
<pdfrwt beam="2">  1       21 0.59581396E-01 0.27735219E+02</pdfrwt>
<totfact> 0.47047639E+07</totfact>
</mgrwt>
</event>
<event>
 4    1  0.2754379E+004  0.2094491E+02  0.7546771E-02  0.1727165E+00
         21   -1    0    0  501  502  0.00000000000E+00  0.00000000000E+00  0.28884892452E+01  0.28884892452E+01  0.00000000000E+00 0. -1.
         21   -1    0    0  502  503 -0.00000000000E+00 -0.00000000000E+00 -0.29554065481E+03  0.29554065481E+03  0.00000000000E+00 0.  1.
          2    1    1    2  501    0 -0.19093381481E+02 -0.86099998377E+01 -0.42291172881E+02  0.47193565422E+02  0.00000000000E+00 0. -1.
         -2    1    1    2    0  503  0.19093381481E+02  0.86099998377E+01 -0.25036099268E+03  0.25123557863E+03  0.00000000000E+00 0.  1.
<mgrwt>
<rscale>  2 0.20944911E+02</rscale>
<asrwt>0</asrwt>
<pdfrwt beam="1">  1       21 0.44438298E-03 0.20944911E+02</pdfrwt>
<pdfrwt beam="2">  1       21 0.45467791E-01 0.20944911E+02</pdfrwt>
<totfact> 0.44957304E+07</totfact>
</mgrwt>
</event>
<event>
 4    1  0.2754379E+004  0.2266582E+02  0.7546771E-02  0.1696985E+00
         21   -1    0    0  503  502  0.00000000000E+00  0.00000000000E+00  0.11324524104E+02  0.11324524104E+02  0.00000000000E+00 0.  1.
         21   -1    0    0  501  503 -0.00000000000E+00 -0.00000000000E+00 -0.12863166818E+03  0.12863166818E+03  0.00000000000E+00 0. -1.
          2    1    1    2  501    0  0.75583148640E+01  0.21368459253E+02 -0.11495550079E+03  0.11716870887E+03  0.00000000000E+00 0. -1.
         -2    1    1    2    0  502 -0.75583148640E+01 -0.21368459253E+02 -0.23516432837E+01  0.22787483419E+02  0.00000000000E+00 0.  1.
<mgrwt>
<rscale>  2 0.22665815E+02</rscale>
<asrwt>0</asrwt>
<pdfrwt beam="1">  1       21 0.17422344E-02 0.22665815E+02</pdfrwt>
<pdfrwt beam="2">  1       21 0.19789488E-01 0.22665815E+02</pdfrwt>
<totfact> 0.26977193E+07</totfact>
</mgrwt>
</event>
<event>
 4    1  0.2754379E+004  0.3074960E+02  0.7546771E-02  0.1589948E+00
         21   -1    0    0  501  502  0.00000000000E+00  0.00000000000E+00  0.11902505005E+02  0.11902505005E+02  0.00000000000E+00 0.  1.
         21   -1    0    0  502  503 -0.00000000000E+00 -0.00000000000E+00 -0.12873955798E+03  0.12873955798E+03  0.00000000000E+00 0. -1.
          2    1    1    2  501    0  0.13444109645E+02 -0.27654903589E+02 -0.14902452154E+02  0.34170467613E+02  0.00000000000E+00 0.  1.
         -2    1    1    2    0  503 -0.13444109645E+02  0.27654903589E+02 -0.10193460082E+03  0.10647159537E+03  0.00000000000E+00 0. -1.
<mgrwt>
<rscale>  2 0.30749598E+02</rscale>
<asrwt>0</asrwt>
<pdfrwt beam="1">  1       21 0.18311547E-02 0.30749598E+02</pdfrwt>
<pdfrwt beam="2">  1       21 0.19806085E-01 0.30749598E+02</pdfrwt>
<totfact> 0.26605476E+07</totfact>
</mgrwt>
</event>
<event>
 4    1  0.2754379E+004  0.2039684E+02  0.7546771E-02  0.1737550E+00
         21   -1    0    0  501  502  0.00000000000E+00  0.00000000000E+00  0.57746714071E+03  0.57746714071E+03  0.00000000000E+00 0. -1.
         21   -1    0    0  502  503 -0.00000000000E+00 -0.00000000000E+00 -0.84242863125E+00  0.84242863125E+00  0.00000000000E+00 0.  1.
          2    1    1    2  501    0 -0.20359317939E+02 -0.12366951997E+01  0.39834485851E+03  0.39886671652E+03  0.00000000000E+00 0.  1.
         -2    1    1    2    0  503  0.20359317939E+02  0.12366951997E+01  0.17827985356E+03  0.17944285282E+03  0.00000000000E+00 0. -1.
<mgrwt>
<rscale>  2 0.20396844E+02</rscale>
<asrwt>0</asrwt>
<pdfrwt beam="1">  1       21 0.88840782E-01 0.20396844E+02</pdfrwt>
<pdfrwt beam="2">  1       21 0.12960487E-03 0.20396844E+02</pdfrwt>
<totfact> 0.68877374E+07</totfact>
</mgrwt>
</event>
<event>
 4    1  0.2754379E+004  0.3112781E+02  0.7546771E-02  0.1585947E+00
         21   -1    0    0  503  502  0.00000000000E+00  0.00000000000E+00  0.65968594504E+02  0.65968594504E+02  0.00000000000E+00 0. -1.
         21   -1    0    0  501  503 -0.00000000000E+00 -0.00000000000E+00 -0.24823531799E+02  0.24823531799E+02  0.00000000000E+00 0.  1.
          2    1    1    2  501    0 -0.10547792060E+02 -0.29286249656E+02 -0.84350653038E+01  0.32250436631E+02  0.00000000000E+00 0.  1.
         -2    1    1    2    0  502  0.10547792060E+02  0.29286249656E+02  0.49580128009E+02  0.58541689672E+02  0.00000000000E+00 0. -1.
<mgrwt>
<rscale>  2 0.31127806E+02</rscale>
<asrwt>0</asrwt>
<pdfrwt beam="1">  1       21 0.10149014E-01 0.31127806E+02</pdfrwt>
<pdfrwt beam="2">  1       21 0.38190049E-02 0.31127806E+02</pdfrwt>
<totfact> 0.26565466E+07</totfact>
</mgrwt>
</event>
<event>
 4    1  0.2754379E+004  0.4818401E+02  0.7546771E-02  0.1455390E+00
         21   -1    0    0  503  502  0.00000000000E+00  0.00000000000E+00  0.58803715631E+02  0.58803715631E+02  0.00000000000E+00 0.  1.
         21   -1    0    0  501  503 -0.00000000000E+00 -0.00000000000E+00 -0.54526934760E+02  0.54526934760E+02  0.00000000000E+00 0. -1.
          2    1    1    2  501    0  0.38152185673E+02 -0.29429735613E+02 -0.27626512267E+02  0.55542081253E+02  0.00000000000E+00 0. -1.
         -2    1    1    2    0  502 -0.38152185673E+02  0.29429735613E+02  0.31903293138E+02  0.57788569137E+02  0.00000000000E+00 0.  1.
<mgrwt>
<rscale>  2 0.48184008E+02</rscale>
<asrwt>0</asrwt>
<pdfrwt beam="1">  1       21 0.90467255E-02 0.48184008E+02</pdfrwt>
<pdfrwt beam="2">  1       21 0.83887592E-02 0.48184008E+02</pdfrwt>
<totfact> 0.95437047E+06</totfact>
</mgrwt>
</event>
<event>
 4    1  0.2754379E+004  0.3121706E+02  0.7546771E-02  0.1585013E+00
         21   -1    0    0  503  502  0.00000000000E+00  0.00000000000E+00  0.20836734843E+02  0.20836734843E+02  0.00000000000E+00 0. -1.
         21   -1    0    0  501  503 -0.00000000000E+00 -0.00000000000E+00 -0.65170965821E+02  0.65170965821E+02  0.00000000000E+00 0.  1.
          2    1    1    2  501    0 -0.30433075430E+02  0.69521842255E+01 -0.45018739874E+02  0.54783135046E+02  0.00000000000E+00 0.  1.
         -2    1    1    2    0  502  0.30433075430E+02 -0.69521842255E+01  0.68450889556E+00  0.31224565618E+02  0.00000000000E+00 0. -1.
<mgrwt>
<rscale>  2 0.31217062E+02</rscale>
<asrwt>0</asrwt>
<pdfrwt beam="1">  1       21 0.32056516E-02 0.31217062E+02</pdfrwt>
<pdfrwt beam="2">  1       21 0.10026302E-01 0.31217062E+02</pdfrwt>
<totfact> 0.35801423E+07</totfact>
</mgrwt>
</event>
<event>
 4    1  0.2754379E+004  0.2693033E+02  0.7546771E-02  0.1634730E+00
         21   -1    0    0  503  502  0.00000000000E+00  0.00000000000E+00  0.78522407717E+02  0.78522407717E+02  0.00000000000E+00 0. -1.
         21   -1    0    0  501  503 -0.00000000000E+00 -0.00000000000E+00 -0.21046529404E+02  0.21046529404E+02  0.00000000000E+00 0.  1.
          2    1    1    2  501    0 -0.14999513248E+02 -0.22366431193E+02 -0.85558099936E+01  0.28256760724E+02  0.00000000000E+00 0.  1.
         -2    1    1    2    0  502  0.14999513248E+02  0.22366431193E+02  0.66031688307E+02  0.71312176398E+02  0.00000000000E+00 0. -1.
<mgrwt>
<rscale>  2 0.26930329E+02</rscale>
<asrwt>0</asrwt>
<pdfrwt beam="1">  1       21 0.12080370E-01 0.26930329E+02</pdfrwt>
<pdfrwt beam="2">  1       21 0.32379276E-02 0.26930329E+02</pdfrwt>
<totfact> 0.24990263E+07</totfact>
</mgrwt>
</event>
<event>
 4    1  0.2754379E+004  0.2415320E+02  0.7546771E-02  0.1673471E+00
         21   -1    0    0  503  502  0.00000000000E+00  0.00000000000E+00  0.14250088915E+02  0.14250088915E+02  0.00000000000E+00 0.  1.
         21   -1    0    0  501  503 -0.00000000000E+00 -0.00000000000E+00 -0.41615778795E+02  0.41615778795E+02  0.00000000000E+00 0. -1.
          2    1    1    2  501    0  0.21075831358E+02  0.11797720941E+02 -0.17246369761E+02  0.29678513386E+02  0.00000000000E+00 0. -1.
         -2    1    1    2    0  502 -0.21075831358E+02 -0.11797720941E+02 -0.10119320119E+02  0.26187354325E+02  0.00000000000E+00 0.  1.
<mgrwt>
<rscale>  2 0.24153196E+02</rscale>
<asrwt>0</asrwt>
<pdfrwt beam="1">  1       21 0.21923214E-02 0.24153196E+02</pdfrwt>
<pdfrwt beam="2">  1       21 0.64024275E-02 0.24153196E+02</pdfrwt>
<totfact> 0.12718260E+08</totfact>
</mgrwt>
</event>
<event>
 4    1  0.2754379E+004  0.2444232E+02  0.7546771E-02  0.1669144E+00
         21   -1    0    0  503  502  0.00000000000E+00  0.00000000000E+00  0.52868898311E+03  0.52868898311E+03  0.00000000000E+00 0. -1.
         21   -1    0    0  501  503 -0.00000000000E+00 -0.00000000000E+00 -0.19043517208E+01  0.19043517208E+01  0.00000000000E+00 0.  1.
          2    1    1    2  501    0 -0.21790075965E+02 -0.11073379947E+02  0.94222535964E+02  0.97341221677E+02  0.00000000000E+00 0.  1.
         -2    1    1    2    0  502  0.21790075965E+02  0.11073379947E+02  0.43256209542E+03  0.43325211315E+03  0.00000000000E+00 0. -1.
<mgrwt>
<rscale>  2 0.24442323E+02</rscale>
<asrwt>0</asrwt>
<pdfrwt beam="1">  1       21 0.81336650E-01 0.24442323E+02</pdfrwt>
<pdfrwt beam="2">  1       21 0.29297761E-03 0.24442323E+02</pdfrwt>
<totfact> 0.26666247E+07</totfact>
</mgrwt>
</event>
<event>
 4    1  0.2754379E+004  0.2251128E+02  0.7546771E-02  0.1699557E+00
         21   -1    0    0  501  502  0.00000000000E+00  0.00000000000E+00  0.18594849691E+03  0.18594849691E+03  0.00000000000E+00 0.  1.
         21   -1    0    0  502  503 -0.00000000000E+00 -0.00000000000E+00 -0.34983857620E+01  0.34983857620E+01  0.00000000000E+00 0. -1.
          2    1    1    2  501    0  0.10309239650E+02  0.20011933157E+02  0.13575466211E+03  0.13760845242E+03  0.00000000000E+00 0.  1.
         -2    1    1    2    0  503 -0.10309239650E+02 -0.20011933157E+02  0.46695449031E+02  0.51838430252E+02  0.00000000000E+00 0. -1.
<mgrwt>
<rscale>  2 0.22511284E+02</rscale>
<asrwt>0</asrwt>
<pdfrwt beam="1">  1       21 0.28607453E-01 0.22511284E+02</pdfrwt>
<pdfrwt beam="2">  1       21 0.53821334E-03 0.22511284E+02</pdfrwt>
<totfact> 0.81619982E+07</totfact>
</mgrwt>
</event>
<event>
 4    1  0.2754379E+004  0.2611197E+02  0.7546771E-02  0.1645525E+00
         21   -1    0    0  503  502  0.00000000000E+00  0.00000000000E+00  0.19613586702E+03  0.19613586702E+03  0.00000000000E+00 0. -1.
         21   -1    0    0  501  503 -0.00000000000E+00 -0.00000000000E+00 -0.60010186051E+01  0.60010186051E+01  0.00000000000E+00 0.  1.
          2    1    1    2  501    0 -0.26080035125E+02 -0.12910136157E+01  0.29512375739E+02  0.39405777115E+02  0.00000000000E+00 0.  1.
         -2    1    1    2    0  502  0.26080035125E+02  0.12910136157E+01  0.16062247268E+03  0.16273110851E+03  0.00000000000E+00 0. -1.
<mgrwt>
<rscale>  2 0.26111969E+02</rscale>
<asrwt>0</asrwt>
<pdfrwt beam="1">  1       21 0.30174744E-01 0.26111969E+02</pdfrwt>
<pdfrwt beam="2">  1       21 0.92323378E-03 0.26111969E+02</pdfrwt>
<totfact> 0.34334967E+07</totfact>
</mgrwt>
</event>
<event>
 4    1  0.2754379E+004  0.2079119E+02  0.7546771E-02  0.1730037E+00
         21   -1    0    0  501  502  0.00000000000E+00  0.00000000000E+00  0.46719491431E+02  0.46719491431E+02  0.00000000000E+00 0.  1.
         21   -1    0    0  502  503 -0.00000000000E+00 -0.00000000000E+00 -0.33915527164E+02  0.33915527164E+02  0.00000000000E+00 0. -1.
          2    1    1    2  501    0 -0.64436003388E+01 -0.19767491198E+02  0.40782886640E+02  0.45776823134E+02  0.00000000000E+00 0.  1.
         -2    1    1    2    0  503  0.64436003388E+01  0.19767491198E+02 -0.27978922373E+02  0.34858195460E+02  0.00000000000E+00 0. -1.
<mgrwt>
<rscale>  2 0.20791193E+02</rscale>
<asrwt>0</asrwt>
<pdfrwt beam="1">  1       21 0.71876140E-02 0.20791193E+02</pdfrwt>
<pdfrwt beam="2">  1       21 0.52177734E-02 0.20791193E+02</pdfrwt>
<totfact> 0.26118489E+07</totfact>
</mgrwt>
</event>
<event>
 4    1  0.2754379E+004  0.2062290E+02  0.7546771E-02  0.1733217E+00
         21   -1    0    0  501  502  0.00000000000E+00  0.00000000000E+00  0.52045119375E+03  0.52045119375E+03  0.00000000000E+00 0. -1.
         21   -1    0    0  502  503 -0.00000000000E+00 -0.00000000000E+00 -0.25216390319E+01  0.25216390319E+01  0.00000000000E+00 0.  1.
          2    1    1    2  501    0 -0.13636007217E+02  0.15471376533E+02  0.47394598486E+03  0.47439445692E+03  0.00000000000E+00 0. -1.
         -2    1    1    2    0  503  0.13636007217E+02 -0.15471376533E+02  0.43983569858E+02  0.48578375869E+02  0.00000000000E+00 0.  1.
<mgrwt>
<rscale>  2 0.20622904E+02</rscale>
<asrwt>0</asrwt>
<pdfrwt beam="1">  1       21 0.80069329E-01 0.20622904E+02</pdfrwt>
<pdfrwt beam="2">  1       21 0.38794488E-03 0.20622904E+02</pdfrwt>
<totfact> 0.17682895E+07</totfact>
</mgrwt>
</event>
<event>
 4    1  0.2754379E+004  0.2145678E+02  0.7546771E-02  0.1717820E+00
         21   -1    0    0  503  502  0.00000000000E+00  0.00000000000E+00  0.12644340546E+03  0.12644340546E+03  0.00000000000E+00 0. -1.
         21   -1    0    0  501  503 -0.00000000000E+00 -0.00000000000E+00 -0.93761545811E+01  0.93761545811E+01  0.00000000000E+00 0.  1.
          2    1    1    2  501    0 -0.19114937720E+02 -0.97474496710E+01  0.54221261096E+01  0.22131269070E+02  0.00000000000E+00 0.  1.
         -2    1    1    2    0  502  0.19114937720E+02  0.97474496710E+01  0.11164512477E+03  0.11368829098E+03  0.00000000000E+00 0. -1.
<mgrwt>
<rscale>  2 0.21456785E+02</rscale>
<asrwt>0</asrwt>
<pdfrwt beam="1">  1       21 0.19452831E-01 0.21456785E+02</pdfrwt>
<pdfrwt beam="2">  1       21 0.14424854E-02 0.21456785E+02</pdfrwt>
<totfact> 0.36556023E+07</totfact>
</mgrwt>
</event>
<event>
 4    1  0.2754379E+004  0.2003164E+02  0.7546771E-02  0.1744700E+00
         21   -1    0    0  503  502  0.00000000000E+00  0.00000000000E+00  0.20920281908E+02  0.20920281908E+02  0.00000000000E+00 0. -1.
         21   -1    0    0  501  503 -0.00000000000E+00 -0.00000000000E+00 -0.69814679509E+02  0.69814679509E+02  0.00000000000E+00 0.  1.
          2    1    1    2  501    0 -0.62427615299E+01 -0.19034033706E+02 -0.63083197560E+02  0.66187282200E+02  0.00000000000E+00 0.  1.
         -2    1    1    2    0  502  0.62427615299E+01  0.19034033706E+02  0.14188799960E+02  0.24547679217E+02  0.00000000000E+00 0. -1.
<mgrwt>
<rscale>  2 0.20031638E+02</rscale>
<asrwt>0</asrwt>
<pdfrwt beam="1">  1       21 0.32185048E-02 0.20031638E+02</pdfrwt>
<pdfrwt beam="2">  1       21 0.10740720E-01 0.20031638E+02</pdfrwt>
<totfact> 0.28680968E+07</totfact>
</mgrwt>
</event>
<event>
 4    1  0.2754379E+004  0.2512195E+02  0.7546771E-02  0.1659256E+00
         21   -1    0    0  503  502  0.00000000000E+00  0.00000000000E+00  0.75904937044E+02  0.75904937044E+02  0.00000000000E+00 0. -1.
         21   -1    0    0  501  503 -0.00000000000E+00 -0.00000000000E+00 -0.10634898723E+02  0.10634898723E+02  0.00000000000E+00 0.  1.
          2    1    1    2  501    0  0.20495196095E+02  0.14527888798E+02  0.12423477224E+02  0.28025977275E+02  0.00000000000E+00 0.  1.
         -2    1    1    2    0  502 -0.20495196095E+02 -0.14527888798E+02  0.52846561097E+02  0.58513858492E+02  0.00000000000E+00 0. -1.
<mgrwt>
<rscale>  2 0.25121955E+02</rscale>
<asrwt>0</asrwt>
<pdfrwt beam="1">  1       21 0.11677682E-01 0.25121955E+02</pdfrwt>
<pdfrwt beam="2">  1       21 0.16361383E-02 0.25121955E+02</pdfrwt>
<totfact> 0.74968949E+07</totfact>
</mgrwt>
</event>
<event>
 4    1  0.2754379E+004  0.2197927E+02  0.7546771E-02  0.1708611E+00
         21   -1    0    0  501  502  0.00000000000E+00  0.00000000000E+00  0.42464402974E+02  0.42464402974E+02  0.00000000000E+00 0. -1.
         21   -1    0    0  502  503 -0.00000000000E+00 -0.00000000000E+00 -0.12840943354E+02  0.12840943354E+02  0.00000000000E+00 0.  1.
          2    1    1    2  501    0  0.14781559526E+02 -0.16266337156E+02  0.24150787659E+02  0.32654996112E+02  0.00000000000E+00 0. -1.
         -2    1    1    2    0  503 -0.14781559526E+02  0.16266337156E+02  0.54726719615E+01  0.22650350216E+02  0.00000000000E+00 0.  1.
<mgrwt>
<rscale>  2 0.21979268E+02</rscale>
<asrwt>0</asrwt>
<pdfrwt beam="1">  1       21 0.65329850E-02 0.21979268E+02</pdfrwt>
<pdfrwt beam="2">  1       21 0.19755298E-02 0.21979268E+02</pdfrwt>
<totfact> 0.14045568E+08</totfact>
</mgrwt>
</event>
<event>
 4    1  0.2754379E+004  0.2480176E+02  0.7546771E-02  0.1663866E+00
         21   -1    0    0  503  502  0.00000000000E+00  0.00000000000E+00  0.19991743554E+02  0.19991743554E+02  0.00000000000E+00 0.  1.
         21   -1    0    0  501  503 -0.00000000000E+00 -0.00000000000E+00 -0.65845684279E+02  0.65845684279E+02  0.00000000000E+00 0. -1.
          2    1    1    2  501    0 -0.57203615897E+01  0.24133063477E+02 -0.54252029269E+02  0.59652409585E+02  0.00000000000E+00 0. -1.
         -2    1    1    2    0  502  0.57203615897E+01 -0.24133063477E+02  0.83980885437E+01  0.26185018249E+02  0.00000000000E+00 0.  1.
<mgrwt>
<rscale>  2 0.24801760E+02</rscale>
<asrwt>0</asrwt>
<pdfrwt beam="1">  1       21 0.30756528E-02 0.24801760E+02</pdfrwt>
<pdfrwt beam="2">  1       21 0.10130105E-01 0.24801760E+02</pdfrwt>
<totfact> 0.35723350E+07</totfact>
</mgrwt>
</event>
<event>
 4    1  0.2754379E+004  0.2927273E+02  0.7546771E-02  0.1606270E+00
         21   -1    0    0  501  502  0.00000000000E+00  0.00000000000E+00  0.18852770770E+02  0.18852770770E+02  0.00000000000E+00 0.  1.
         21   -1    0    0  502  503 -0.00000000000E+00 -0.00000000000E+00 -0.97528944836E+02  0.97528944836E+02  0.00000000000E+00 0. -1.
          2    1    1    2  501    0 -0.28235239130E+02 -0.77242639449E+01  0.31836936466E+01  0.29445354259E+02  0.00000000000E+00 0.  1.
         -2    1    1    2    0  503  0.28235239130E+02  0.77242639449E+01 -0.81859867713E+02  0.86936361347E+02  0.00000000000E+00 0. -1.
<mgrwt>
<rscale>  2 0.29272734E+02</rscale>
<asrwt>0</asrwt>
<pdfrwt beam="1">  1       21 0.29004263E-02 0.29272734E+02</pdfrwt>
<pdfrwt beam="2">  1       21 0.15004453E-01 0.29272734E+02</pdfrwt>
<totfact> 0.20889158E+07</totfact>
</mgrwt>
</event>
<event>
 4    1  0.2754379E+004  0.3241870E+02  0.7546771E-02  0.1572795E+00
         21   -1    0    0  503  502  0.00000000000E+00  0.00000000000E+00  0.10913823331E+01  0.10913823331E+01  0.00000000000E+00 0. -1.
         21   -1    0    0  501  503 -0.00000000000E+00 -0.00000000000E+00 -0.18983592716E+04  0.18983592716E+04  0.00000000000E+00 0.  1.
          2    1    1    2  501    0  0.25973238929E+02  0.19400081050E+02 -0.16152936275E+04  0.16156189140E+04  0.00000000000E+00 0. -1.
         -2    1    1    2    0  502 -0.25973238929E+02 -0.19400081050E+02 -0.28197426176E+03  0.28383173991E+03  0.00000000000E+00 0.  1.
<mgrwt>
<rscale>  2 0.32418703E+02</rscale>
<asrwt>0</asrwt>
<pdfrwt beam="1">  1       21 0.16790691E-03 0.32418703E+02</pdfrwt>
<pdfrwt beam="2">  1       21 0.29205191E+00 0.32418703E+02</pdfrwt>
<totfact> 0.25147745E+06</totfact>
</mgrwt>
</event>
<event>
 4    1  0.2754379E+004  0.2093413E+02  0.7546771E-02  0.1727365E+00
         21   -1    0    0  503  502  0.00000000000E+00  0.00000000000E+00  0.44817579530E+01  0.44817579530E+01  0.00000000000E+00 0.  1.
         21   -1    0    0  501  503 -0.00000000000E+00 -0.00000000000E+00 -0.12432194229E+03  0.12432194229E+03  0.00000000000E+00 0. -1.
          2    1    1    2  501    0  0.20898074604E+02  0.12280920165E+01 -0.89675774762E+02  0.92086819422E+02  0.00000000000E+00 0. -1.
         -2    1    1    2    0  502 -0.20898074604E+02 -0.12280920165E+01 -0.30164409573E+02  0.36716880819E+02  0.00000000000E+00 0.  1.
<mgrwt>
<rscale>  2 0.20934128E+02</rscale>
<asrwt>0</asrwt>
<pdfrwt beam="1">  1       21 0.68950130E-03 0.20934128E+02</pdfrwt>
<pdfrwt beam="2">  1       21 0.19126451E-01 0.20934128E+02</pdfrwt>
<totfact> 0.11296682E+08</totfact>
</mgrwt>
</event>
<event>
 4    1  0.2754379E+004  0.2829142E+02  0.7546771E-02  0.1617781E+00
         21   -1    0    0  503  502  0.00000000000E+00  0.00000000000E+00  0.27451199485E+03  0.27451199485E+03  0.00000000000E+00 0.  1.
         21   -1    0    0  501  503 -0.00000000000E+00 -0.00000000000E+00 -0.40121684049E+01  0.40121684049E+01  0.00000000000E+00 0. -1.
          2    1    1    2  501    0  0.25408654990E+02  0.12442063874E+02  0.62449457899E+02  0.68559021972E+02  0.00000000000E+00 0. -1.
         -2    1    1    2    0  502 -0.25408654990E+02 -0.12442063874E+02  0.20805036855E+03  0.20996514129E+03  0.00000000000E+00 0.  1.
<mgrwt>
<rscale>  2 0.28291425E+02</rscale>
<asrwt>0</asrwt>
<pdfrwt beam="1">  1       21 0.42232600E-01 0.28291425E+02</pdfrwt>
<pdfrwt beam="2">  1       21 0.61725689E-03 0.28291425E+02</pdfrwt>
<totfact> 0.34033371E+07</totfact>
</mgrwt>
</event>
<event>
 4    1  0.2754379E+004  0.2492504E+02  0.7546771E-02  0.1662081E+00
         21   -1    0    0  501  502  0.00000000000E+00  0.00000000000E+00  0.22224587203E+01  0.22224587203E+01  0.00000000000E+00 0.  1.
         21   -1    0    0  502  503 -0.00000000000E+00 -0.00000000000E+00 -0.41012896267E+03  0.41012896267E+03  0.00000000000E+00 0. -1.
          2    1    1    2  501    0  0.21468923547E+02  0.12662654161E+02 -0.87611133571E+02  0.91087695186E+02  0.00000000000E+00 0.  1.
         -2    1    1    2    0  503 -0.21468923547E+02 -0.12662654161E+02 -0.32029537038E+03  0.32126372620E+03  0.00000000000E+00 0. -1.
<mgrwt>
<rscale>  2 0.24925037E+02</rscale>
<asrwt>0</asrwt>
<pdfrwt beam="1">  1       21 0.34191650E-03 0.24925037E+02</pdfrwt>
<pdfrwt beam="2">  1       21 0.63096805E-01 0.24925037E+02</pdfrwt>
<totfact> 0.36082799E+07</totfact>
</mgrwt>
</event>
<event>
 4    1  0.2754379E+004  0.2177135E+02  0.7546771E-02  0.1712237E+00
         21   -1    0    0  503  502  0.00000000000E+00  0.00000000000E+00  0.19343364599E+02  0.19343364599E+02  0.00000000000E+00 0.  1.
         21   -1    0    0  501  503 -0.00000000000E+00 -0.00000000000E+00 -0.69755705107E+02  0.69755705107E+02  0.00000000000E+00 0. -1.
          2    1    1    2  501    0 -0.19761486243E+02 -0.91364856370E+01 -0.61087647079E+02  0.64851309424E+02  0.00000000000E+00 0. -1.
         -2    1    1    2    0  502  0.19761486243E+02  0.91364856370E+01  0.10675306571E+02  0.24247760282E+02  0.00000000000E+00 0.  1.
<mgrwt>
<rscale>  2 0.21771351E+02</rscale>
<asrwt>0</asrwt>
<pdfrwt beam="1">  1       21 0.29759023E-02 0.21771351E+02</pdfrwt>
<pdfrwt beam="2">  1       21 0.10731647E-01 0.21771351E+02</pdfrwt>
<totfact> 0.33112563E+07</totfact>
</mgrwt>
</event>
<event>
 4    1  0.2754379E+004  0.2483727E+02  0.7546771E-02  0.1663350E+00
         21   -1    0    0  503  502  0.00000000000E+00  0.00000000000E+00  0.27328448958E+01  0.27328448958E+01  0.00000000000E+00 0.  1.
         21   -1    0    0  501  503 -0.00000000000E+00 -0.00000000000E+00 -0.33644675629E+03  0.33644675629E+03  0.00000000000E+00 0. -1.
          2    1    1    2  501    0 -0.16480611204E+02  0.18581692854E+02 -0.26414171426E+03  0.26530686962E+03  0.00000000000E+00 0. -1.
         -2    1    1    2    0  502  0.16480611204E+02 -0.18581692854E+02 -0.69572197133E+02  0.73872731565E+02  0.00000000000E+00 0.  1.
<mgrwt>
<rscale>  2 0.24837267E+02</rscale>
<asrwt>0</asrwt>
<pdfrwt beam="1">  1       21 0.42043784E-03 0.24837267E+02</pdfrwt>
<pdfrwt beam="2">  1       21 0.51761019E-01 0.24837267E+02</pdfrwt>
<totfact> 0.39473795E+07</totfact>
</mgrwt>
</event>
<event>
 4    1  0.2754379E+004  0.2583257E+02  0.7546771E-02  0.1649324E+00
         21   -1    0    0  501  502  0.00000000000E+00  0.00000000000E+00  0.29886587172E+02  0.29886587172E+02  0.00000000000E+00 0.  1.
         21   -1    0    0  502  503 -0.00000000000E+00 -0.00000000000E+00 -0.23593931412E+02  0.23593931412E+02  0.00000000000E+00 0. -1.
          2    1    1    2  501    0  0.25453186743E+02 -0.44110096360E+01 -0.30465164336E+01  0.26011593257E+02  0.00000000000E+00 0.  1.
         -2    1    1    2    0  503 -0.25453186743E+02  0.44110096360E+01  0.93391721940E+01  0.27468925328E+02  0.00000000000E+00 0. -1.
<mgrwt>
<rscale>  2 0.25832571E+02</rscale>
<asrwt>0</asrwt>
<pdfrwt beam="1">  1       21 0.45979365E-02 0.25832571E+02</pdfrwt>
<pdfrwt beam="2">  1       21 0.36298356E-02 0.25832571E+02</pdfrwt>
<totfact> 0.10038349E+08</totfact>
</mgrwt>
</event>
<event>
 4    1  0.2754379E+004  0.3685002E+02  0.7546771E-02  0.1532760E+00
         21   -1    0    0  501  502  0.00000000000E+00  0.00000000000E+00  0.34149044673E+01  0.34149044673E+01  0.00000000000E+00 0. -1.
         21   -1    0    0  502  503 -0.00000000000E+00 -0.00000000000E+00 -0.93093977014E+03  0.93093977014E+03  0.00000000000E+00 0.  1.
          2    1    1    2  501    0  0.19552615520E+01  0.36798108321E+02 -0.11016903764E+03  0.11616858732E+03  0.00000000000E+00 0. -1.
         -2    1    1    2    0  503 -0.19552615520E+01 -0.36798108321E+02 -0.81735582803E+03  0.81818608729E+03  0.00000000000E+00 0.  1.
<mgrwt>
<rscale>  2 0.36850018E+02</rscale>
<asrwt>0</asrwt>
<pdfrwt beam="1">  1       21 0.52536995E-03 0.36850018E+02</pdfrwt>
<pdfrwt beam="2">  1       21 0.14322149E+00 0.36850018E+02</pdfrwt>
<totfact> 0.33229619E+06</totfact>
</mgrwt>
</event>
<event>
 4    1  0.2754379E+004  0.2267076E+02  0.7546771E-02  0.1696903E+00
         21   -1    0    0  501  502  0.00000000000E+00  0.00000000000E+00  0.27475807239E+01  0.27475807239E+01  0.00000000000E+00 0. -1.
         21   -1    0    0  502  503 -0.00000000000E+00 -0.00000000000E+00 -0.18989494489E+03  0.18989494489E+03  0.00000000000E+00 0.  1.
          2    1    1    2  501    0 -0.21951341662E+02  0.56658724776E+01 -0.81805532447E+02  0.84888801680E+02  0.00000000000E+00 0. -1.
         -2    1    1    2    0  503  0.21951341662E+02 -0.56658724776E+01 -0.10534183172E+03  0.10775372394E+03  0.00000000000E+00 0.  1.
<mgrwt>
<rscale>  2 0.22670763E+02</rscale>
<asrwt>0</asrwt>
<pdfrwt beam="1">  1       21 0.42270468E-03 0.22670763E+02</pdfrwt>
<pdfrwt beam="2">  1       21 0.29214610E-01 0.22670763E+02</pdfrwt>
<totfact> 0.11235328E+08</totfact>
</mgrwt>
</event>
<event>
 4    1  0.2754379E+004  0.2374967E+02  0.7546771E-02  0.1679639E+00
         21   -1    0    0  503  502  0.00000000000E+00  0.00000000000E+00  0.40277446689E+02  0.40277446689E+02  0.00000000000E+00 0. -1.
         21   -1    0    0  501  503 -0.00000000000E+00 -0.00000000000E+00 -0.25358987587E+02  0.25358987587E+02  0.00000000000E+00 0.  1.
          2    1    1    2  501    0 -0.22849156560E+02  0.64778736887E+01 -0.14501242790E+02  0.27826836785E+02  0.00000000000E+00 0.  1.
         -2    1    1    2    0  502  0.22849156560E+02 -0.64778736887E+01  0.29419701892E+02  0.37809597491E+02  0.00000000000E+00 0. -1.
<mgrwt>
<rscale>  2 0.23749670E+02</rscale>
<asrwt>0</asrwt>
<pdfrwt beam="1">  1       21 0.61965303E-02 0.23749670E+02</pdfrwt>
<pdfrwt beam="2">  1       21 0.39013827E-02 0.23749670E+02</pdfrwt>
<totfact> 0.54349254E+07</totfact>
</mgrwt>
</event>
<event>
 4    1  0.2754379E+004  0.2128101E+02  0.7546771E-02  0.1720992E+00
         21   -1    0    0  503  502  0.00000000000E+00  0.00000000000E+00  0.15726862979E+03  0.15726862979E+03  0.00000000000E+00 0. -1.
         21   -1    0    0  501  503 -0.00000000000E+00 -0.00000000000E+00 -0.79556889772E+01  0.79556889772E+01  0.00000000000E+00 0.  1.
          2    1    1    2  501    0 -0.14162386346E+02 -0.15884207964E+02  0.86681868194E+01  0.22978657759E+02  0.00000000000E+00 0.  1.
         -2    1    1    2    0  502  0.14162386346E+02  0.15884207964E+02  0.14064475399E+03  0.14224566100E+03  0.00000000000E+00 0. -1.
<mgrwt>
<rscale>  2 0.21281007E+02</rscale>
<asrwt>0</asrwt>
<pdfrwt beam="1">  1       21 0.24195172E-01 0.21281007E+02</pdfrwt>
<pdfrwt beam="2">  1       21 0.12239523E-02 0.21281007E+02</pdfrwt>
<totfact> 0.31899929E+07</totfact>
</mgrwt>
</event>
<event>
 4    1  0.2754379E+004  0.5073912E+02  0.7546771E-02  0.1441395E+00
         21   -1    0    0  503  502  0.00000000000E+00  0.00000000000E+00  0.36795817870E+03  0.36795817870E+03  0.00000000000E+00 0.  1.
         21   -1    0    0  501  503 -0.00000000000E+00 -0.00000000000E+00 -0.12443920411E+02  0.12443920411E+02  0.00000000000E+00 0. -1.
          2    1    1    2  501    0 -0.49723200990E+02 -0.10102562437E+02  0.51915158936E+02  0.72592301327E+02  0.00000000000E+00 0. -1.
         -2    1    1    2    0  502  0.49723200990E+02  0.10102562437E+02  0.30359909936E+03  0.30780979779E+03  0.00000000000E+00 0.  1.
<mgrwt>
<rscale>  2 0.50739122E+02</rscale>
<asrwt>0</asrwt>
<pdfrwt beam="1">  1       21 0.56608942E-01 0.50739122E+02</pdfrwt>
<pdfrwt beam="2">  1       21 0.19144496E-02 0.50739122E+02</pdfrwt>
<totfact> 0.36476081E+06</totfact>
</mgrwt>
</event>
<event>
 4    1  0.2754379E+004  0.2440412E+02  0.7546771E-02  0.1669711E+00
         21   -1    0    0  503  502  0.00000000000E+00  0.00000000000E+00  0.54718374043E+01  0.54718374043E+01  0.00000000000E+00 0.  1.
         21   -1    0    0  501  503 -0.00000000000E+00 -0.00000000000E+00 -0.26345958610E+03  0.26345958610E+03  0.00000000000E+00 0. -1.
          2    1    1    2  501    0  0.65297450236E+01  0.23514325380E+02 -0.23200525131E+03  0.23328522822E+03  0.00000000000E+00 0. -1.
         -2    1    1    2    0  502 -0.65297450236E+01 -0.23514325380E+02 -0.25982497384E+02  0.35646195288E+02  0.00000000000E+00 0.  1.
<mgrwt>
<rscale>  2 0.24404120E+02</rscale>
<asrwt>0</asrwt>
<pdfrwt beam="1">  1       21 0.84182133E-03 0.24404120E+02</pdfrwt>
<pdfrwt beam="2">  1       21 0.40532235E-01 0.24404120E+02</pdfrwt>
<totfact> 0.22466570E+07</totfact>
</mgrwt>
</event>
<event>
 4    1  0.2754379E+004  0.2295385E+02  0.7546771E-02  0.1692259E+00
         21   -1    0    0  501  502  0.00000000000E+00  0.00000000000E+00  0.16076725031E+01  0.16076725031E+01  0.00000000000E+00 0.  1.
         21   -1    0    0  502  503 -0.00000000000E+00 -0.00000000000E+00 -0.34426224386E+03  0.34426224386E+03  0.00000000000E+00 0. -1.
          2    1    1    2  501    0  0.20412621994E+02 -0.10497805368E+02 -0.13342789525E+03  0.13538789564E+03  0.00000000000E+00 0.  1.
         -2    1    1    2    0  503 -0.20412621994E+02  0.10497805368E+02 -0.20922667610E+03  0.21048202072E+03  0.00000000000E+00 0. -1.
<mgrwt>
<rscale>  2 0.22953846E+02</rscale>
<asrwt>0</asrwt>
<pdfrwt beam="1">  1       21 0.24733399E-03 0.22953846E+02</pdfrwt>
<pdfrwt beam="2">  1       21 0.52963474E-01 0.22953846E+02</pdfrwt>
<totfact> 0.80440879E+07</totfact>
</mgrwt>
</event>
<event>
 4    1  0.2754379E+004  0.2834850E+02  0.7546771E-02  0.1617096E+00
         21   -1    0    0  503  502  0.00000000000E+00  0.00000000000E+00  0.13097975495E+03  0.13097975495E+03  0.00000000000E+00 0.  1.
         21   -1    0    0  501  503 -0.00000000000E+00 -0.00000000000E+00 -0.54630471726E+02  0.54630471726E+02  0.00000000000E+00 0. -1.
          2    1    1    2  501    0  0.52881142071E+00 -0.28343567585E+02 -0.49263798897E+02  0.56838009701E+02  0.00000000000E+00 0. -1.
         -2    1    1    2    0  502 -0.52881142071E+00  0.28343567585E+02  0.12561308212E+03  0.12877221697E+03  0.00000000000E+00 0.  1.
<mgrwt>
<rscale>  2 0.28348500E+02</rscale>
<asrwt>0</asrwt>
<pdfrwt beam="1">  1       21 0.20150731E-01 0.28348500E+02</pdfrwt>
<pdfrwt beam="2">  1       21 0.84046880E-02 0.28348500E+02</pdfrwt>
<totfact> 0.22526235E+06</totfact>
</mgrwt>
</event>
<event>
 4    1  0.2754379E+004  0.5605071E+02  0.7546771E-02  0.1415194E+00
         21   -1    0    0  503  502  0.00000000000E+00  0.00000000000E+00  0.63537727396E+03  0.63537727396E+03  0.00000000000E+00 0.  1.
         21   -1    0    0  501  503 -0.00000000000E+00 -0.00000000000E+00 -0.14489553219E+02  0.14489553219E+02  0.00000000000E+00 0. -1.
          2    1    1    2  501    0 -0.18650121906E+02 -0.52856932982E+02  0.46717267996E+02  0.72967016799E+02  0.00000000000E+00 0. -1.
         -2    1    1    2    0  502  0.18650121906E+02  0.52856932982E+02  0.57417045274E+03  0.57689981038E+03  0.00000000000E+00 0.  1.
<mgrwt>
<rscale>  2 0.56050713E+02</rscale>
<asrwt>0</asrwt>
<pdfrwt beam="1">  1       21 0.97750328E-01 0.56050713E+02</pdfrwt>
<pdfrwt beam="2">  1       21 0.22291625E-02 0.56050713E+02</pdfrwt>
<totfact> 0.89319251E+05</totfact>
</mgrwt>
</event>
<event>
 4    1  0.2754379E+004  0.3833971E+02  0.7546771E-02  0.1520797E+00
         21   -1    0    0  503  502  0.00000000000E+00  0.00000000000E+00  0.31443712229E+01  0.31443712229E+01  0.00000000000E+00 0.  1.
         21   -1    0    0  501  503 -0.00000000000E+00 -0.00000000000E+00 -0.68832435811E+03  0.68832435811E+03  0.00000000000E+00 0. -1.
          2    1    1    2  501    0 -0.25226748705E+02  0.28871173034E+02 -0.53842406405E+03  0.53978737131E+03  0.00000000000E+00 0. -1.
         -2    1    1    2    0  502  0.25226748705E+02 -0.28871173034E+02 -0.14675592284E+03  0.15168135802E+03  0.00000000000E+00 0.  1.
<mgrwt>
<rscale>  2 0.38339712E+02</rscale>
<asrwt>0</asrwt>
<pdfrwt beam="1">  1       21 0.48374975E-03 0.38339712E+02</pdfrwt>
<pdfrwt beam="2">  1       21 0.10589598E+00 0.38339712E+02</pdfrwt>
<totfact> 0.76335506E+06</totfact>
</mgrwt>
</event>
<event>
 4    1  0.2754379E+004  0.2123266E+02  0.7546771E-02  0.1721871E+00
         21   -1    0    0  503  502  0.00000000000E+00  0.00000000000E+00  0.76620965871E+01  0.76620965871E+01  0.00000000000E+00 0. -1.
         21   -1    0    0  501  503 -0.00000000000E+00 -0.00000000000E+00 -0.63005399906E+02  0.63005399906E+02  0.00000000000E+00 0.  1.
          2    1    1    2  501    0  0.20646545456E+02 -0.49543777385E+01 -0.36758457503E+02  0.42450087114E+02  0.00000000000E+00 0.  1.
         -2    1    1    2    0  502 -0.20646545456E+02  0.49543777385E+01 -0.18584845816E+02  0.28217409379E+02  0.00000000000E+00 0. -1.
<mgrwt>
<rscale>  2 0.21232656E+02</rscale>
<asrwt>0</asrwt>
<pdfrwt beam="1">  1       21 0.11787841E-02 0.21232656E+02</pdfrwt>
<pdfrwt beam="2">  1       21 0.96931386E-02 0.21232656E+02</pdfrwt>
<totfact> 0.16010931E+08</totfact>
</mgrwt>
</event>
<event>
 4    1  0.2754379E+004  0.2410851E+02  0.7546771E-02  0.1674147E+00
         21   -1    0    0  503  502  0.00000000000E+00  0.00000000000E+00  0.20813169633E+03  0.20813169633E+03  0.00000000000E+00 0.  1.
         21   -1    0    0  501  503 -0.00000000000E+00 -0.00000000000E+00 -0.33011611870E+01  0.33011611870E+01  0.00000000000E+00 0. -1.
          2    1    1    2  501    0  0.13794336483E+01  0.24069013079E+02  0.60920068867E+02  0.65516982673E+02  0.00000000000E+00 0. -1.
         -2    1    1    2    0  502 -0.13794336483E+01 -0.24069013079E+02  0.14391046627E+03  0.14591587484E+03  0.00000000000E+00 0.  1.
<mgrwt>
<rscale>  2 0.24108509E+02</rscale>
<asrwt>0</asrwt>
<pdfrwt beam="1">  1       21 0.32020251E-01 0.24108509E+02</pdfrwt>
<pdfrwt beam="2">  1       21 0.50787112E-03 0.24108509E+02</pdfrwt>
<totfact> 0.73719065E+07</totfact>
</mgrwt>
</event>
<event>
 4    1  0.2754379E+004  0.2939569E+02  0.7546771E-02  0.1604866E+00
         21   -1    0    0  501  502  0.00000000000E+00  0.00000000000E+00  0.13155658679E+03  0.13155658679E+03  0.00000000000E+00 0. -1.
         21   -1    0    0  502  503 -0.00000000000E+00 -0.00000000000E+00 -0.19075713809E+02  0.19075713809E+02  0.00000000000E+00 0.  1.
          2    1    1    2  501    0 -0.23533132916E+02  0.17615278220E+02  0.11722656237E+03  0.12085600232E+03  0.00000000000E+00 0. -1.
         -2    1    1    2    0  503  0.23533132916E+02 -0.17615278220E+02 -0.47456893865E+01  0.29776298282E+02  0.00000000000E+00 0.  1.
<mgrwt>
<rscale>  2 0.29395686E+02</rscale>
<asrwt>0</asrwt>
<pdfrwt beam="1">  1       21 0.20239474E-01 0.29395686E+02</pdfrwt>
<pdfrwt beam="2">  1       21 0.29347253E-02 0.29395686E+02</pdfrwt>
<totfact> 0.12187562E+07</totfact>
</mgrwt>
</event>
<event>
 4    1  0.2754379E+004  0.2171396E+02  0.7546771E-02  0.1713246E+00
         21   -1    0    0  503  502  0.00000000000E+00  0.00000000000E+00  0.99389933974E+01  0.99389933974E+01  0.00000000000E+00 0.  1.
         21   -1    0    0  501  503 -0.00000000000E+00 -0.00000000000E+00 -0.75391606267E+02  0.75391606267E+02  0.00000000000E+00 0. -1.
          2    1    1    2  501    0  0.13110615963E+02 -0.17309180658E+02 -0.58705424062E+02  0.62592513932E+02  0.00000000000E+00 0. -1.
         -2    1    1    2    0  502 -0.13110615963E+02  0.17309180658E+02 -0.67471888072E+01  0.22738085732E+02  0.00000000000E+00 0.  1.
<mgrwt>
<rscale>  2 0.21713958E+02</rscale>
<asrwt>0</asrwt>
<pdfrwt beam="1">  1       21 0.15290759E-02 0.21713958E+02</pdfrwt>
<pdfrwt beam="2">  1       21 0.11598709E-01 0.21713958E+02</pdfrwt>
<totfact> 0.80810968E+07</totfact>
</mgrwt>
</event>
<event>
 4    1  0.2754379E+004  0.2121603E+02  0.7546771E-02  0.1722174E+00
         21   -1    0    0  501  502  0.00000000000E+00  0.00000000000E+00  0.26569297443E+02  0.26569297443E+02  0.00000000000E+00 0. -1.
         21   -1    0    0  502  503 -0.00000000000E+00 -0.00000000000E+00 -0.34050218634E+02  0.34050218634E+02  0.00000000000E+00 0.  1.
          2    1    1    2  501    0 -0.20973098688E+02  0.32014353330E+01  0.17744423965E+02  0.27658355675E+02  0.00000000000E+00 0. -1.
         -2    1    1    2    0  503  0.20973098688E+02 -0.32014353330E+01 -0.25225345156E+02  0.32961160402E+02  0.00000000000E+00 0.  1.
<mgrwt>
<rscale>  2 0.21216033E+02</rscale>
<asrwt>0</asrwt>
<pdfrwt beam="1">  1       21 0.40875842E-02 0.21216033E+02</pdfrwt>
<pdfrwt beam="2">  1       21 0.52384952E-02 0.21216033E+02</pdfrwt>
<totfact> 0.64103317E+07</totfact>
</mgrwt>
</event>
<event>
 4    1  0.2754379E+004  0.2274047E+02  0.7546771E-02  0.1695752E+00
         21   -1    0    0  503  502  0.00000000000E+00  0.00000000000E+00  0.49228034253E+02  0.49228034253E+02  0.00000000000E+00 0.  1.
         21   -1    0    0  501  503 -0.00000000000E+00 -0.00000000000E+00 -0.10995934276E+02  0.10995934276E+02  0.00000000000E+00 0. -1.
          2    1    1    2  501    0  0.21817342230E+02 -0.64134518322E+01  0.12751902965E+02  0.26071820336E+02  0.00000000000E+00 0. -1.
         -2    1    1    2    0  502 -0.21817342230E+02  0.64134518322E+01  0.25480197012E+02  0.34152148193E+02  0.00000000000E+00 0.  1.
<mgrwt>
<rscale>  2 0.22740466E+02</rscale>
<asrwt>0</asrwt>
<pdfrwt beam="1">  1       21 0.75735436E-02 0.22740466E+02</pdfrwt>
<pdfrwt beam="2">  1       21 0.16916822E-02 0.22740466E+02</pdfrwt>
<totfact> 0.14160558E+08</totfact>
</mgrwt>
</event>
<event>
 4    1  0.2754379E+004  0.3971146E+02  0.7546771E-02  0.1510346E+00
         21   -1    0    0  501  502  0.00000000000E+00  0.00000000000E+00  0.16684041183E+03  0.16684041183E+03  0.00000000000E+00 0. -1.
         21   -1    0    0  502  503 -0.00000000000E+00 -0.00000000000E+00 -0.16527874561E+02  0.16527874561E+02  0.00000000000E+00 0.  1.
          2    1    1    2  501    0 -0.24123971495E+02  0.31544156432E+02  0.13514522850E+03  0.14085891023E+03  0.00000000000E+00 0. -1.
         -2    1    1    2    0  503  0.24123971495E+02 -0.31544156432E+02  0.15167308764E+02  0.42509376152E+02  0.00000000000E+00 0.  1.
<mgrwt>
<rscale>  2 0.39711457E+02</rscale>
<asrwt>0</asrwt>
<pdfrwt beam="1">  1       21 0.25667754E-01 0.39711457E+02</pdfrwt>
<pdfrwt beam="2">  1       21 0.25427501E-02 0.39711457E+02</pdfrwt>
<totfact> 0.10430090E+07</totfact>
</mgrwt>
</event>
<event>
 4    1  0.2754379E+004  0.4049192E+02  0.7546771E-02  0.1504622E+00
         21   -1    0    0  501  502  0.00000000000E+00  0.00000000000E+00  0.10466555481E+04  0.10466555481E+04  0.00000000000E+00 0.  1.
         21   -1    0    0  502  503 -0.00000000000E+00 -0.00000000000E+00 -0.19260114222E+01  0.19260114222E+01  0.00000000000E+00 0. -1.
          2    1    1    2  501    0 -0.29932184617E+02  0.27270129491E+02  0.74887797428E+03  0.74997187680E+03  0.00000000000E+00 0.  1.
         -2    1    1    2    0  503  0.29932184617E+02 -0.27270129491E+02  0.29585156238E+03  0.29860968269E+03  0.00000000000E+00 0. -1.
<mgrwt>
<rscale>  2 0.40491921E+02</rscale>
<asrwt>0</asrwt>
<pdfrwt beam="1">  1       21 0.16102348E+00 0.40491921E+02</pdfrwt>
<pdfrwt beam="2">  1       21 0.29631029E-03 0.40491921E+02</pdfrwt>
<totfact> 0.58934143E+06</totfact>
</mgrwt>
</event>
<event>
 4    1  0.2754379E+004  0.2228636E+02  0.7546771E-02  0.1703346E+00
         21   -1    0    0  503  502  0.00000000000E+00  0.00000000000E+00  0.48982756402E+03  0.48982756402E+03  0.00000000000E+00 0. -1.
         21   -1    0    0  501  503 -0.00000000000E+00 -0.00000000000E+00 -0.14145196776E+01  0.14145196776E+01  0.00000000000E+00 0.  1.
          2    1    1    2  501    0 -0.19428570887E+02 -0.10918439892E+02  0.11350615009E+03  0.11567336688E+03  0.00000000000E+00 0. -1.
         -2    1    1    2    0  502  0.19428570887E+02  0.10918439892E+02  0.37490689425E+03  0.37556871681E+03  0.00000000000E+00 0.  1.
<mgrwt>
<rscale>  2 0.22286357E+02</rscale>
<asrwt>0</asrwt>
<pdfrwt beam="1">  1       21 0.75357951E-01 0.22286357E+02</pdfrwt>
<pdfrwt beam="2">  1       21 0.21761880E-03 0.22286357E+02</pdfrwt>
<totfact> 0.47237357E+07</totfact>
</mgrwt>
</event>
<event>
 4    1  0.2754379E+004  0.2230739E+02  0.7546771E-02  0.1702989E+00
         21   -1    0    0  501  502  0.00000000000E+00  0.00000000000E+00  0.20827975333E+03  0.20827975333E+03  0.00000000000E+00 0. -1.
         21   -1    0    0  502  503 -0.00000000000E+00 -0.00000000000E+00 -0.28735909228E+01  0.28735909228E+01  0.00000000000E+00 0.  1.
          2    1    1    2  501    0  0.21747791699E+02  0.49652098523E+01  0.14605000710E+03  0.14774377931E+03  0.00000000000E+00 0. -1.
         -2    1    1    2    0  503 -0.21747791699E+02 -0.49652098523E+01  0.59356155314E+02  0.63409564944E+02  0.00000000000E+00 0.  1.
<mgrwt>
<rscale>  2 0.22307392E+02</rscale>
<asrwt>0</asrwt>
<pdfrwt beam="1">  1       21 0.32043027E-01 0.22307392E+02</pdfrwt>
<pdfrwt beam="2">  1       21 0.44209108E-03 0.22307392E+02</pdfrwt>
<totfact> 0.88509882E+07</totfact>
</mgrwt>
</event>
<event>
 4    1  0.2754379E+004  0.2364978E+02  0.7546771E-02  0.1681189E+00
         21   -1    0    0  503  502  0.00000000000E+00  0.00000000000E+00  0.55090391255E+03  0.55090391255E+03  0.00000000000E+00 0.  1.
         21   -1    0    0  501  503 -0.00000000000E+00 -0.00000000000E+00 -0.30909120178E+01  0.30909120178E+01  0.00000000000E+00 0. -1.
          2    1    1    2  501    0 -0.11047254973E+02 -0.20911005003E+02  0.46915090126E+02  0.52538915617E+02  0.00000000000E+00 0. -1.
         -2    1    1    2    0  502  0.11047254973E+02  0.20911005003E+02  0.50089791041E+03  0.50145590895E+03  0.00000000000E+00 0.  1.
<mgrwt>
<rscale>  2 0.23649777E+02</rscale>
<asrwt>0</asrwt>
<pdfrwt beam="1">  1       21 0.84754370E-01 0.23649777E+02</pdfrwt>
<pdfrwt beam="2">  1       21 0.47552536E-03 0.23649777E+02</pdfrwt>
<totfact> 0.11939308E+07</totfact>
</mgrwt>
</event>
<event>
 4    1  0.2754379E+004  0.3191207E+02  0.7546771E-02  0.1577867E+00
         21   -1    0    0  501  502  0.00000000000E+00  0.00000000000E+00  0.32822251740E+02  0.32822251740E+02  0.00000000000E+00 0.  1.
         21   -1    0    0  502  503 -0.00000000000E+00 -0.00000000000E+00 -0.31242318950E+02  0.31242318950E+02  0.00000000000E+00 0. -1.
          2    1    1    2  501    0 -0.22408092288E+02  0.22721302436E+02  0.34484192208E+01  0.32097846961E+02  0.00000000000E+00 0. -1.
         -2    1    1    2    0  503  0.22408092288E+02 -0.22721302436E+02 -0.18684864308E+01  0.31966723728E+02  0.00000000000E+00 0.  1.
<mgrwt>
<rscale>  2 0.31912070E+02</rscale>
<asrwt>0</asrwt>
<pdfrwt beam="1">  1       21 0.50495772E-02 0.31912070E+02</pdfrwt>
<pdfrwt beam="2">  1       21 0.48065106E-02 0.31912070E+02</pdfrwt>
<totfact> 0.58167264E+07</totfact>
</mgrwt>
</event>
<event>
 4    1  0.2754379E+004  0.5689795E+02  0.7546771E-02  0.1411331E+00
         21   -1    0    0  501  502  0.00000000000E+00  0.00000000000E+00  0.22590861913E+03  0.22590861913E+03  0.00000000000E+00 0. -1.
         21   -1    0    0  502  503 -0.00000000000E+00 -0.00000000000E+00 -0.14520374322E+02  0.14520374322E+02  0.00000000000E+00 0.  1.
          2    1    1    2  501    0  0.54134739657E+02  0.17515910398E+02  0.91946328757E+02  0.10812726079E+03  0.00000000000E+00 0.  1.
         -2    1    1    2    0  503 -0.54134739657E+02 -0.17515910398E+02  0.11944191605E+03  0.13230173266E+03  0.00000000000E+00 0. -1.
<mgrwt>
<rscale>  2 0.56897954E+02</rscale>
<asrwt>0</asrwt>
<pdfrwt beam="1">  1       21 0.34755170E-01 0.56897954E+02</pdfrwt>
<pdfrwt beam="2">  1       21 0.22339039E-02 0.56897954E+02</pdfrwt>
<totfact> 0.75686590E+06</totfact>
</mgrwt>
</event>
<event>
 4    1  0.2754379E+004  0.2178781E+02  0.7546771E-02  0.1711948E+00
         21   -1    0    0  501  502  0.00000000000E+00  0.00000000000E+00  0.28823878403E+01  0.28823878403E+01  0.00000000000E+00 0.  1.
         21   -1    0    0  502  503 -0.00000000000E+00 -0.00000000000E+00 -0.23554626037E+03  0.23554626037E+03  0.00000000000E+00 0. -1.
          2    1    1    2  501    0 -0.85796505777E+01  0.20027440127E+02 -0.50948067579E+02  0.55411319711E+02  0.00000000000E+00 0.  1.
         -2    1    1    2    0  503  0.85796505777E+01 -0.20027440127E+02 -0.18171580496E+03  0.18301732850E+03  0.00000000000E+00 0. -1.
<mgrwt>
<rscale>  2 0.21787812E+02</rscale>
<asrwt>0</asrwt>
<pdfrwt beam="1">  1       21 0.44344411E-03 0.21787812E+02</pdfrwt>
<pdfrwt beam="2">  1       21 0.36237900E-01 0.21787812E+02</pdfrwt>
<totfact> 0.69806567E+07</totfact>
</mgrwt>
</event>
<event>
 4    1  0.2754379E+004  0.2226646E+02  0.7546771E-02  0.1703684E+00
         21   -1    0    0  501  502  0.00000000000E+00  0.00000000000E+00  0.26527368121E+03  0.26527368121E+03  0.00000000000E+00 0. -1.
         21   -1    0    0  502  503 -0.00000000000E+00 -0.00000000000E+00 -0.34580857619E+01  0.34580857619E+01  0.00000000000E+00 0.  1.
          2    1    1    2  501    0  0.21798585500E+02  0.45405665271E+01  0.22199252035E+03  0.22310641892E+03  0.00000000000E+00 0. -1.
         -2    1    1    2    0  503 -0.21798585500E+02 -0.45405665271E+01  0.39823075102E+02  0.45625348051E+02  0.00000000000E+00 0.  1.
<mgrwt>
<rscale>  2 0.22266456E+02</rscale>
<asrwt>0</asrwt>
<pdfrwt beam="1">  1       21 0.40811319E-01 0.22266456E+02</pdfrwt>
<pdfrwt beam="2">  1       21 0.53201340E-03 0.22266456E+02</pdfrwt>
<totfact> 0.42981095E+07</totfact>
</mgrwt>
</event>
<event>
 4    1  0.2754379E+004  0.3243849E+02  0.7546771E-02  0.1572600E+00
         21   -1    0    0  503  502  0.00000000000E+00  0.00000000000E+00  0.20934056837E+03  0.20934056837E+03  0.00000000000E+00 0.  1.
         21   -1    0    0  501  503 -0.00000000000E+00 -0.00000000000E+00 -0.26462654965E+02  0.26462654965E+02  0.00000000000E+00 0. -1.
          2    1    1    2  501    0  0.28833964006E+02  0.14861301972E+02 -0.14675906086E+02  0.35603904225E+02  0.00000000000E+00 0. -1.
         -2    1    1    2    0  502 -0.28833964006E+02 -0.14861301972E+02  0.19755381949E+03  0.20019931911E+03  0.00000000000E+00 0.  1.
<mgrwt>
<rscale>  2 0.32438492E+02</rscale>
<asrwt>0</asrwt>
<pdfrwt beam="1">  1       21 0.32206240E-01 0.32438492E+02</pdfrwt>
<pdfrwt beam="2">  1       21 0.40711778E-02 0.32438492E+02</pdfrwt>
<totfact> 0.31732257E+06</totfact>
</mgrwt>
</event>
<event>
 4    1  0.2754379E+004  0.2145081E+02  0.7546771E-02  0.1717927E+00
         21   -1    0    0  501  502  0.00000000000E+00  0.00000000000E+00  0.58367817220E+02  0.58367817220E+02  0.00000000000E+00 0. -1.
         21   -1    0    0  502  503 -0.00000000000E+00 -0.00000000000E+00 -0.11706276218E+02  0.11706276218E+02  0.00000000000E+00 0.  1.
          2    1    1    2  501    0 -0.17080237512E+02  0.12977004383E+02  0.43353022765E+02  0.48369636541E+02  0.00000000000E+00 0. -1.
         -2    1    1    2    0  503  0.17080237512E+02 -0.12977004383E+02  0.33085182368E+01  0.21704456896E+02  0.00000000000E+00 0.  1.
<mgrwt>
<rscale>  2 0.21450808E+02</rscale>
<asrwt>0</asrwt>
<pdfrwt beam="1">  1       21 0.89796640E-02 0.21450808E+02</pdfrwt>
<pdfrwt beam="2">  1       21 0.18009656E-02 0.21450808E+02</pdfrwt>
<totfact> 0.95821329E+07</totfact>
</mgrwt>
</event>
<event>
 4    1  0.2754379E+004  0.2919075E+02  0.7546771E-02  0.1607210E+00
         21   -1    0    0  501  502  0.00000000000E+00  0.00000000000E+00  0.61045379255E+01  0.61045379255E+01  0.00000000000E+00 0.  1.
         21   -1    0    0  502  503 -0.00000000000E+00 -0.00000000000E+00 -0.20894386717E+03  0.20894386717E+03  0.00000000000E+00 0. -1.
          2    1    1    2  501    0  0.55685376889E+01 -0.28654692649E+02 -0.39469368313E+02  0.49091048653E+02  0.00000000000E+00 0.  1.
         -2    1    1    2    0  503 -0.55685376889E+01  0.28654692649E+02 -0.16336996093E+03  0.16595735645E+03  0.00000000000E+00 0. -1.
<mgrwt>
<rscale>  2 0.29190752E+02</rscale>
<asrwt>0</asrwt>
<pdfrwt beam="1">  1       21 0.93915974E-03 0.29190752E+02</pdfrwt>
<pdfrwt beam="2">  1       21 0.32145208E-01 0.29190752E+02</pdfrwt>
<totfact> 0.30476765E+07</totfact>
</mgrwt>
</event>
<event>
 4    1  0.2754379E+004  0.2400522E+02  0.7546771E-02  0.1675715E+00
         21   -1    0    0  503  502  0.00000000000E+00  0.00000000000E+00  0.17409183345E+01  0.17409183345E+01  0.00000000000E+00 0.  1.
         21   -1    0    0  501  503 -0.00000000000E+00 -0.00000000000E+00 -0.33224533394E+03  0.33224533394E+03  0.00000000000E+00 0. -1.
          2    1    1    2  501    0 -0.19509999035E+02  0.13986090457E+02 -0.15504450748E+03  0.15689184201E+03  0.00000000000E+00 0. -1.
         -2    1    1    2    0  502  0.19509999035E+02 -0.13986090457E+02 -0.17545990813E+03  0.17709441027E+03  0.00000000000E+00 0.  1.
<mgrwt>
<rscale>  2 0.24005224E+02</rscale>
<asrwt>0</asrwt>
<pdfrwt beam="1">  1       21 0.26783373E-03 0.24005224E+02</pdfrwt>
<pdfrwt beam="2">  1       21 0.51114639E-01 0.24005224E+02</pdfrwt>
<totfact> 0.77670892E+07</totfact>
</mgrwt>
</event>
<event>
 4    1  0.2754379E+004  0.3669349E+02  0.7546771E-02  0.1534056E+00
         21   -1    0    0  503  502  0.00000000000E+00  0.00000000000E+00  0.10420820442E+03  0.10420820442E+03  0.00000000000E+00 0. -1.
         21   -1    0    0  501  503 -0.00000000000E+00 -0.00000000000E+00 -0.51498991608E+02  0.51498991608E+02  0.00000000000E+00 0.  1.
          2    1    1    2  501    0 -0.14731922273E+02 -0.33606283853E+02 -0.41028728523E+02  0.55043332135E+02  0.00000000000E+00 0.  1.
         -2    1    1    2    0  502  0.14731922273E+02  0.33606283853E+02  0.93737941336E+02  0.10066386389E+03  0.00000000000E+00 0. -1.
<mgrwt>
<rscale>  2 0.36693485E+02</rscale>
<asrwt>0</asrwt>
<pdfrwt beam="1">  1       21 0.16032031E-01 0.36693485E+02</pdfrwt>
<pdfrwt beam="2">  1       21 0.79229218E-02 0.36693485E+02</pdfrwt>
<totfact> 0.38144649E+06</totfact>
</mgrwt>
</event>
<event>
 4    1  0.2754379E+004  0.2690020E+02  0.7546771E-02  0.1635119E+00
         21   -1    0    0  501  502  0.00000000000E+00  0.00000000000E+00  0.31001950548E+03  0.31001950548E+03  0.00000000000E+00 0. -1.
         21   -1    0    0  502  503 -0.00000000000E+00 -0.00000000000E+00 -0.39509514086E+01  0.39509514086E+01  0.00000000000E+00 0.  1.
          2    1    1    2  501    0  0.18565130985E+01 -0.26836057428E+02  0.25345913526E+03  0.25488262763E+03  0.00000000000E+00 0. -1.
         -2    1    1    2    0  503 -0.18565130985E+01  0.26836057428E+02  0.52609418808E+02  0.59087829258E+02  0.00000000000E+00 0.  1.
<mgrwt>
<rscale>  2 0.26900197E+02</rscale>
<asrwt>0</asrwt>
<pdfrwt beam="1">  1       21 0.47695289E-01 0.26900197E+02</pdfrwt>
<pdfrwt beam="2">  1       21 0.60783892E-03 0.26900197E+02</pdfrwt>
<totfact> 0.27265046E+07</totfact>
</mgrwt>
</event>
<event>
 4    1  0.2754379E+004  0.2966276E+02  0.7546771E-02  0.1601847E+00
         21   -1    0    0  503  502  0.00000000000E+00  0.00000000000E+00  0.41063034852E+02  0.41063034852E+02  0.00000000000E+00 0. -1.
         21   -1    0    0  501  503 -0.00000000000E+00 -0.00000000000E+00 -0.26947391668E+02  0.26947391668E+02  0.00000000000E+00 0.  1.
          2    1    1    2  501    0 -0.29956663737E+01  0.29511106308E+02 -0.83326253211E+01  0.30810908089E+02  0.00000000000E+00 0.  1.
         -2    1    1    2    0  502  0.29956663737E+01 -0.29511106308E+02  0.22448268506E+02  0.37199518431E+02  0.00000000000E+00 0. -1.
<mgrwt>
<rscale>  2 0.29662761E+02</rscale>
<asrwt>0</asrwt>
<pdfrwt beam="1">  1       21 0.63173900E-02 0.29662761E+02</pdfrwt>
<pdfrwt beam="2">  1       21 0.41457526E-02 0.29662761E+02</pdfrwt>
<totfact> 0.50471197E+07</totfact>
</mgrwt>
</event>
<event>
 4    1  0.2754379E+004  0.2146387E+02  0.7546771E-02  0.1717692E+00
         21   -1    0    0  503  502  0.00000000000E+00  0.00000000000E+00  0.34724519723E+01  0.34724519723E+01  0.00000000000E+00 0.  1.
         21   -1    0    0  501  503 -0.00000000000E+00 -0.00000000000E+00 -0.33919935291E+03  0.33919935291E+03  0.00000000000E+00 0. -1.
          2    1    1    2  501    0 -0.12645163251E+02  0.17343515107E+02 -0.30155670641E+03  0.30231960713E+03  0.00000000000E+00 0. -1.
         -2    1    1    2    0  502  0.12645163251E+02 -0.17343515107E+02 -0.34170194521E+02  0.40352197753E+02  0.00000000000E+00 0.  1.
<mgrwt>
<rscale>  2 0.21463869E+02</rscale>
<asrwt>0</asrwt>
<pdfrwt beam="1">  1       21 0.53422327E-03 0.21463869E+02</pdfrwt>
<pdfrwt beam="2">  1       21 0.52184526E-01 0.21463869E+02</pdfrwt>
<totfact> 0.26439721E+07</totfact>
</mgrwt>
</event>
<event>
 4    1  0.2754379E+004  0.2554824E+02  0.7546771E-02  0.1653250E+00
         21   -1    0    0  501  502  0.00000000000E+00  0.00000000000E+00  0.17660499435E+03  0.17660499435E+03  0.00000000000E+00 0. -1.
         21   -1    0    0  502  503 -0.00000000000E+00 -0.00000000000E+00 -0.37145021846E+01  0.37145021846E+01  0.00000000000E+00 0.  1.
          2    1    1    2  501    0  0.11956920677E+02 -0.22577529618E+02  0.92827150226E+02  0.96278723584E+02  0.00000000000E+00 0. -1.
         -2    1    1    2    0  503 -0.11956920677E+02  0.22577529618E+02  0.80063341935E+02  0.84040772947E+02  0.00000000000E+00 0.  1.
<mgrwt>
<rscale>  2 0.25548244E+02</rscale>
<asrwt>0</asrwt>
<pdfrwt beam="1">  1       21 0.27169993E-01 0.25548244E+02</pdfrwt>
<pdfrwt beam="2">  1       21 0.57146201E-03 0.25548244E+02</pdfrwt>
<totfact> 0.84691325E+07</totfact>
</mgrwt>
</event>
<event>
 4    1  0.2754379E+004  0.3095225E+02  0.7546771E-02  0.1587795E+00
         21   -1    0    0  503  502  0.00000000000E+00  0.00000000000E+00  0.19251250456E+03  0.19251250456E+03  0.00000000000E+00 0.  1.
         21   -1    0    0  501  503 -0.00000000000E+00 -0.00000000000E+00 -0.60196520898E+01  0.60196520898E+01  0.00000000000E+00 0. -1.
          2    1    1    2  501    0 -0.43401778110E+01 -0.30646448971E+02  0.51924058184E+02  0.60449564070E+02  0.00000000000E+00 0. -1.
         -2    1    1    2    0  502  0.43401778110E+01  0.30646448971E+02  0.13456879428E+03  0.13808259258E+03  0.00000000000E+00 0.  1.
<mgrwt>
<rscale>  2 0.30952253E+02</rscale>
<asrwt>0</asrwt>
<pdfrwt beam="1">  1       21 0.29617304E-01 0.30952253E+02</pdfrwt>
<pdfrwt beam="2">  1       21 0.92610047E-03 0.30952253E+02</pdfrwt>
<totfact> 0.36621675E+07</totfact>
</mgrwt>
</event>
<event>
 4    1  0.2754379E+004  0.2238301E+02  0.7546771E-02  0.1701711E+00
         21   -1    0    0  501  502  0.00000000000E+00  0.00000000000E+00  0.30531386552E+01  0.30531386552E+01  0.00000000000E+00 0. -1.
         21   -1    0    0  502  503 -0.00000000000E+00 -0.00000000000E+00 -0.29430620089E+03  0.29430620089E+03  0.00000000000E+00 0.  1.
          2    1    1    2  501    0  0.10542513621E+01 -0.22358169303E+02 -0.46730442292E+02  0.51814413220E+02  0.00000000000E+00 0. -1.
         -2    1    1    2    0  503 -0.10542513621E+01  0.22358169303E+02 -0.24452261994E+03  0.24554492632E+03  0.00000000000E+00 0.  1.
<mgrwt>
<rscale>  2 0.22383011E+02</rscale>
<asrwt>0</asrwt>
<pdfrwt beam="1">  1       21 0.46971368E-03 0.22383011E+02</pdfrwt>
<pdfrwt beam="2">  1       21 0.45277873E-01 0.22383011E+02</pdfrwt>
<totfact> 0.42441735E+07</totfact>
</mgrwt>
</event>
<event>
 4    1  0.2754379E+004  0.2700058E+02  0.7546771E-02  0.1633825E+00
         21   -1    0    0  501  502  0.00000000000E+00  0.00000000000E+00  0.23270199213E+02  0.23270199213E+02  0.00000000000E+00 0. -1.
         21   -1    0    0  502  503 -0.00000000000E+00 -0.00000000000E+00 -0.48861853711E+02  0.48861853711E+02  0.00000000000E+00 0.  1.
          2    1    1    2  501    0  0.15649121043E+02 -0.22003094739E+02  0.88084684551E+01  0.28401061319E+02  0.00000000000E+00 0. -1.
         -2    1    1    2    0  503 -0.15649121043E+02  0.22003094739E+02 -0.34400122953E+02  0.43730991605E+02  0.00000000000E+00 0.  1.
<mgrwt>
<rscale>  2 0.27000577E+02</rscale>
<asrwt>0</asrwt>
<pdfrwt beam="1">  1       21 0.35800306E-02 0.27000577E+02</pdfrwt>
<pdfrwt beam="2">  1       21 0.75172083E-02 0.27000577E+02</pdfrwt>
<totfact> 0.46921712E+07</totfact>
</mgrwt>
</event>
<event>
 4    1  0.2754379E+004  0.2247594E+02  0.7546771E-02  0.1700149E+00
         21   -1    0    0  503  502  0.00000000000E+00  0.00000000000E+00  0.91857282528E+01  0.91857282528E+01  0.00000000000E+00 0. -1.
         21   -1    0    0  501  503 -0.00000000000E+00 -0.00000000000E+00 -0.65423006190E+02  0.65423006190E+02  0.00000000000E+00 0.  1.
          2    1    1    2  501    0 -0.20193969789E+02 -0.98676899019E+01 -0.43012189929E+02  0.48530569771E+02  0.00000000000E+00 0.  1.
         -2    1    1    2    0  502  0.20193969789E+02  0.98676899019E+01 -0.13225088008E+02  0.26078164672E+02  0.00000000000E+00 0. -1.
<mgrwt>
<rscale>  2 0.22475936E+02</rscale>
<asrwt>0</asrwt>
<pdfrwt beam="1">  1       21 0.14131890E-02 0.22475936E+02</pdfrwt>
<pdfrwt beam="2">  1       21 0.10065078E-01 0.22475936E+02</pdfrwt>
<totfact> 0.11638469E+08</totfact>
</mgrwt>
</event>
<event>
 4    1  0.2754379E+004  0.2103416E+02  0.7546771E-02  0.1725512E+00
         21   -1    0    0  503  502  0.00000000000E+00  0.00000000000E+00  0.14203282993E+02  0.14203282993E+02  0.00000000000E+00 0. -1.
         21   -1    0    0  501  503 -0.00000000000E+00 -0.00000000000E+00 -0.71229134404E+02  0.71229134404E+02  0.00000000000E+00 0.  1.
          2    1    1    2  501    0 -0.12075110994E+02  0.17222882082E+02 -0.60555073464E+02  0.64104234610E+02  0.00000000000E+00 0.  1.
         -2    1    1    2    0  502  0.12075110994E+02 -0.17222882082E+02  0.35292220527E+01  0.21328182787E+02  0.00000000000E+00 0. -1.
<mgrwt>
<rscale>  2 0.21034162E+02</rscale>
<asrwt>0</asrwt>
<pdfrwt beam="1">  1       21 0.21851205E-02 0.21034162E+02</pdfrwt>
<pdfrwt beam="2">  1       21 0.10958328E-01 0.21034162E+02</pdfrwt>
<totfact> 0.51070994E+07</totfact>
</mgrwt>
</event>
<event>
 4    1  0.2754379E+004  0.2001158E+02  0.7546771E-02  0.1745098E+00
         21   -1    0    0  503  502  0.00000000000E+00  0.00000000000E+00  0.14407937588E+02  0.14407937588E+02  0.00000000000E+00 0. -1.
         21   -1    0    0  501  503 -0.00000000000E+00 -0.00000000000E+00 -0.35118592181E+02  0.35118592181E+02  0.00000000000E+00 0.  1.
          2    1    1    2  501    0 -0.19154579888E+02  0.57935801653E+01 -0.21664008825E+02  0.29492249494E+02  0.00000000000E+00 0.  1.
         -2    1    1    2    0  502  0.19154579888E+02 -0.57935801653E+01  0.95335423236E+00  0.20034280275E+02  0.00000000000E+00 0. -1.
<mgrwt>
<rscale>  2 0.20011584E+02</rscale>
<asrwt>0</asrwt>
<pdfrwt beam="1">  1       21 0.22166058E-02 0.20011584E+02</pdfrwt>
<pdfrwt beam="2">  1       21 0.54028602E-02 0.20011584E+02</pdfrwt>
<totfact> 0.15496481E+08</totfact>
</mgrwt>
</event>
<event>
 4    1  0.2754379E+004  0.2214057E+02  0.7546771E-02  0.1705832E+00
         21   -1    0    0  501  502  0.00000000000E+00  0.00000000000E+00  0.78586396196E+01  0.78586396196E+01  0.00000000000E+00 0. -1.
         21   -1    0    0  502  503 -0.00000000000E+00 -0.00000000000E+00 -0.36242325372E+03  0.36242325372E+03  0.00000000000E+00 0.  1.
          2    1    1    2  501    0  0.15910605199E+02 -0.15396665461E+02 -0.88257281545E+01  0.23834809472E+02  0.00000000000E+00 0. -1.
         -2    1    1    2    0  503 -0.15910605199E+02  0.15396665461E+02 -0.34573888595E+03  0.34644708387E+03  0.00000000000E+00 0.  1.
<mgrwt>
<rscale>  2 0.22140566E+02</rscale>
<asrwt>0</asrwt>
<pdfrwt beam="1">  1       21 0.12090215E-02 0.22140566E+02</pdfrwt>
<pdfrwt beam="2">  1       21 0.55757421E-01 0.22140566E+02</pdfrwt>
<totfact> 0.69152359E+06</totfact>
</mgrwt>
</event>
<event>
 4    1  0.2754379E+004  0.3806370E+02  0.7546771E-02  0.1522964E+00
         21   -1    0    0  501  502  0.00000000000E+00  0.00000000000E+00  0.30630722474E+02  0.30630722474E+02  0.00000000000E+00 0.  1.
         21   -1    0    0  502  503 -0.00000000000E+00 -0.00000000000E+00 -0.56041401265E+02  0.56041401265E+02  0.00000000000E+00 0. -1.
          2    1    1    2  501    0  0.28516463382E+02 -0.25212225773E+02  0.44096201205E+01  0.38318269296E+02  0.00000000000E+00 0. -1.
         -2    1    1    2    0  503 -0.28516463382E+02  0.25212225773E+02 -0.29820298911E+02  0.48353854442E+02  0.00000000000E+00 0.  1.
<mgrwt>
<rscale>  2 0.38063697E+02</rscale>
<asrwt>0</asrwt>
<pdfrwt beam="1">  1       21 0.47124189E-02 0.38063697E+02</pdfrwt>
<pdfrwt beam="2">  1       21 0.86217539E-02 0.38063697E+02</pdfrwt>
<totfact> 0.25851858E+07</totfact>
</mgrwt>
</event>
<event>
 4    1  0.2754379E+004  0.2591083E+02  0.7546771E-02  0.1648254E+00
         21   -1    0    0  503  502  0.00000000000E+00  0.00000000000E+00  0.97363051733E+01  0.97363051733E+01  0.00000000000E+00 0.  1.
         21   -1    0    0  501  503 -0.00000000000E+00 -0.00000000000E+00 -0.77595737201E+02  0.77595737201E+02  0.00000000000E+00 0. -1.
          2    1    1    2  501    0  0.16250941975E+02 -0.20181134815E+02 -0.48500695449E+02  0.54988078495E+02  0.00000000000E+00 0. -1.
         -2    1    1    2    0  502 -0.16250941975E+02  0.20181134815E+02 -0.19358736579E+02  0.32343963879E+02  0.00000000000E+00 0.  1.
<mgrwt>
<rscale>  2 0.25910834E+02</rscale>
<asrwt>0</asrwt>
<pdfrwt beam="1">  1       21 0.14978931E-02 0.25910834E+02</pdfrwt>
<pdfrwt beam="2">  1       21 0.11937806E-01 0.25910834E+02</pdfrwt>
<totfact> 0.83325018E+07</totfact>
</mgrwt>
</event>
<event>
 4    1  0.2754379E+004  0.2410983E+02  0.7546771E-02  0.1674127E+00
         21   -1    0    0  501  502  0.00000000000E+00  0.00000000000E+00  0.78663855831E+02  0.78663855831E+02  0.00000000000E+00 0.  1.
         21   -1    0    0  502  503 -0.00000000000E+00 -0.00000000000E+00 -0.93858729707E+01  0.93858729707E+01  0.00000000000E+00 0. -1.
          2    1    1    2  501    0  0.11602945676E+01  0.24081897726E+02  0.54943148398E+02  0.60000280311E+02  0.00000000000E+00 0.  1.
         -2    1    1    2    0  503 -0.11602945676E+01 -0.24081897726E+02  0.14334834463E+02  0.28049448491E+02  0.00000000000E+00 0. -1.
<mgrwt>
<rscale>  2 0.24109834E+02</rscale>
<asrwt>0</asrwt>
<pdfrwt beam="1">  1       21 0.12102131E-01 0.24109834E+02</pdfrwt>
<pdfrwt beam="2">  1       21 0.14439805E-02 0.24109834E+02</pdfrwt>
<totfact> 0.84522023E+07</totfact>
</mgrwt>
</event>
<event>
 4    1  0.2754379E+004  0.2489039E+02  0.7546771E-02  0.1662581E+00
         21   -1    0    0  501  502  0.00000000000E+00  0.00000000000E+00  0.10132050073E+03  0.10132050073E+03  0.00000000000E+00 0. -1.
         21   -1    0    0  502  503 -0.00000000000E+00 -0.00000000000E+00 -0.13726249536E+02  0.13726249536E+02  0.00000000000E+00 0.  1.
          2    1    1    2  501    0  0.22402611124E+02  0.10846859112E+02  0.86633100007E+02  0.90137813123E+02  0.00000000000E+00 0. -1.
         -2    1    1    2    0  503 -0.22402611124E+02 -0.10846859112E+02  0.96115118283E+00  0.24908937138E+02  0.00000000000E+00 0.  1.
<mgrwt>
<rscale>  2 0.24890386E+02</rscale>
<asrwt>0</asrwt>
<pdfrwt beam="1">  1       21 0.15587769E-01 0.24890386E+02</pdfrwt>
<pdfrwt beam="2">  1       21 0.21117308E-02 0.24890386E+02</pdfrwt>
<totfact> 0.30988562E+07</totfact>
</mgrwt>
</event>
<event>
 4    1  0.2754379E+004  0.2306438E+02  0.7546771E-02  0.1690469E+00
         21   -1    0    0  503  502  0.00000000000E+00  0.00000000000E+00  0.43831350137E+02  0.43831350137E+02  0.00000000000E+00 0.  1.
         21   -1    0    0  501  503 -0.00000000000E+00 -0.00000000000E+00 -0.21181399656E+02  0.21181399656E+02  0.00000000000E+00 0. -1.
          2    1    1    2  501    0  0.21754330062E+02 -0.76625589830E+01 -0.99167372175E+01  0.25105922880E+02  0.00000000000E+00 0. -1.
         -2    1    1    2    0  502 -0.21754330062E+02  0.76625589830E+01  0.32566687698E+02  0.39906826913E+02  0.00000000000E+00 0.  1.
<mgrwt>
<rscale>  2 0.23064381E+02</rscale>
<asrwt>0</asrwt>
<pdfrwt beam="1">  1       21 0.67432846E-02 0.23064381E+02</pdfrwt>
<pdfrwt beam="2">  1       21 0.32586769E-02 0.23064381E+02</pdfrwt>
<totfact> 0.62405115E+07</totfact>
</mgrwt>
</event>
<event>
 4    1  0.2754379E+004  0.2545391E+02  0.7546771E-02  0.1654567E+00
         21   -1    0    0  501  502  0.00000000000E+00  0.00000000000E+00  0.56646460883E+02  0.56646460883E+02  0.00000000000E+00 0. -1.
         21   -1    0    0  502  503 -0.00000000000E+00 -0.00000000000E+00 -0.47851064938E+02  0.47851064938E+02  0.00000000000E+00 0.  1.
          2    1    1    2  501    0 -0.20282152055E+02 -0.15379714284E+02  0.49976302899E+02  0.56085043950E+02  0.00000000000E+00 0. -1.
         -2    1    1    2    0  503  0.20282152055E+02  0.15379714284E+02 -0.41180906953E+02  0.48412481871E+02  0.00000000000E+00 0.  1.
<mgrwt>
<rscale>  2 0.25453905E+02</rscale>
<asrwt>0</asrwt>
<pdfrwt beam="1">  1       21 0.87148401E-02 0.25453905E+02</pdfrwt>
<pdfrwt beam="2">  1       21 0.73617023E-02 0.25453905E+02</pdfrwt>
<totfact> 0.11450696E+07</totfact>
</mgrwt>
</event>
<event>
 4    1  0.2754379E+004  0.2067349E+02  0.7546771E-02  0.1732257E+00
         21   -1    0    0  503  502  0.00000000000E+00  0.00000000000E+00  0.16339536368E+03  0.16339536368E+03  0.00000000000E+00 0.  1.
         21   -1    0    0  501  503 -0.00000000000E+00 -0.00000000000E+00 -0.64061785931E+01  0.64061785931E+01  0.00000000000E+00 0. -1.
          2    1    1    2  501    0 -0.10067067735E+02  0.18056778257E+02  0.13187673787E+02  0.24521578940E+02  0.00000000000E+00 0. -1.
         -2    1    1    2    0  502  0.10067067735E+02 -0.18056778257E+02  0.14380151130E+03  0.14527996333E+03  0.00000000000E+00 0.  1.
<mgrwt>
<rscale>  2 0.20673488E+02</rscale>
<asrwt>0</asrwt>
<pdfrwt beam="1">  1       21 0.25137745E-01 0.20673488E+02</pdfrwt>
<pdfrwt beam="2">  1       21 0.98556606E-03 0.20673488E+02</pdfrwt>
<totfact> 0.40974165E+07</totfact>
</mgrwt>
</event>
<event>
 4    1  0.2754379E+004  0.2630752E+02  0.7546771E-02  0.1642902E+00
         21   -1    0    0  503  502  0.00000000000E+00  0.00000000000E+00  0.31348332092E+02  0.31348332092E+02  0.00000000000E+00 0.  1.
         21   -1    0    0  501  503 -0.00000000000E+00 -0.00000000000E+00 -0.34077444759E+02  0.34077444759E+02  0.00000000000E+00 0. -1.
          2    1    1    2  501    0  0.16863836949E+02  0.20191493853E+02 -0.20776957840E+02  0.33522640077E+02  0.00000000000E+00 0. -1.
         -2    1    1    2    0  502 -0.16863836949E+02 -0.20191493853E+02  0.18047845173E+02  0.31903136774E+02  0.00000000000E+00 0.  1.
<mgrwt>
<rscale>  2 0.26307516E+02</rscale>
<asrwt>0</asrwt>
<pdfrwt beam="1">  1       21 0.48228203E-02 0.26307516E+02</pdfrwt>
<pdfrwt beam="2">  1       21 0.52426838E-02 0.26307516E+02</pdfrwt>
<totfact> 0.52088290E+07</totfact>
</mgrwt>
</event>
<event>
 4    1  0.2754379E+004  0.6396620E+02  0.7546771E-02  0.1381903E+00
         21   -1    0    0  501  502  0.00000000000E+00  0.00000000000E+00  0.40321304124E+03  0.40321304124E+03  0.00000000000E+00 0.  1.
         21   -1    0    0  502  503 -0.00000000000E+00 -0.00000000000E+00 -0.11019425771E+02  0.11019425771E+02  0.00000000000E+00 0. -1.
          2    1    1    2  501    0 -0.51599967788E+02  0.37803683025E+02  0.25435146978E+03  0.26227151066E+03  0.00000000000E+00 0.  1.
         -2    1    1    2    0  503  0.51599967788E+02 -0.37803683025E+02  0.13784214569E+03  0.15196095635E+03  0.00000000000E+00 0. -1.
<mgrwt>
<rscale>  2 0.63966203E+02</rscale>
<asrwt>0</asrwt>
<pdfrwt beam="1">  1       21 0.62032764E-01 0.63966203E+02</pdfrwt>
<pdfrwt beam="2">  1       21 0.16952966E-02 0.63966203E+02</pdfrwt>
<totfact> 0.37163393E+06</totfact>
</mgrwt>
</event>
<event>
 4    1  0.2754379E+004  0.2183964E+02  0.7546771E-02  0.1711040E+00
         21   -1    0    0  501  502  0.00000000000E+00  0.00000000000E+00  0.15572252466E+03  0.15572252466E+03  0.00000000000E+00 0. -1.
         21   -1    0    0  502  503 -0.00000000000E+00 -0.00000000000E+00 -0.26661216695E+02  0.26661216695E+02  0.00000000000E+00 0.  1.
          2    1    1    2  501    0 -0.19696754029E+02  0.94343813222E+01  0.15032451885E+03  0.15190270122E+03  0.00000000000E+00 0. -1.
         -2    1    1    2    0  503  0.19696754029E+02 -0.94343813222E+01 -0.21263210889E+02  0.30481040132E+02  0.00000000000E+00 0.  1.
<mgrwt>
<rscale>  2 0.21839635E+02</rscale>
<asrwt>0</asrwt>
<pdfrwt beam="1">  1       21 0.23957311E-01 0.21839635E+02</pdfrwt>
<pdfrwt beam="2">  1       21 0.41017257E-02 0.21839635E+02</pdfrwt>
<totfact> 0.50812825E+06</totfact>
</mgrwt>
</event>
<event>
 4    1  0.2754379E+004  0.2428235E+02  0.7546771E-02  0.1671529E+00
         21   -1    0    0  501  502  0.00000000000E+00  0.00000000000E+00  0.31802894427E+03  0.31802894427E+03  0.00000000000E+00 0.  1.
         21   -1    0    0  502  503 -0.00000000000E+00 -0.00000000000E+00 -0.22285642149E+01  0.22285642149E+01  0.00000000000E+00 0. -1.
          2    1    1    2  501    0  0.84111054030E+01 -0.22779061956E+02  0.22354610195E+03  0.22486105055E+03  0.00000000000E+00 0. -1.
         -2    1    1    2    0  503 -0.84111054030E+01  0.22779061956E+02  0.92254278110E+02  0.95396457939E+02  0.00000000000E+00 0.  1.
<mgrwt>
<rscale>  2 0.24282347E+02</rscale>
<asrwt>0</asrwt>
<pdfrwt beam="1">  1       21 0.48927494E-01 0.24282347E+02</pdfrwt>
<pdfrwt beam="2">  1       21 0.34285629E-03 0.24282347E+02</pdfrwt>
<totfact> 0.59143169E+07</totfact>
</mgrwt>
</event>
<event>
 4    1  0.2754379E+004  0.2308984E+02  0.7546771E-02  0.1690058E+00
         21   -1    0    0  501  502  0.00000000000E+00  0.00000000000E+00  0.15182148795E+02  0.15182148795E+02  0.00000000000E+00 0.  1.
         21   -1    0    0  502  503 -0.00000000000E+00 -0.00000000000E+00 -0.38693089032E+02  0.38693089032E+02  0.00000000000E+00 0. -1.
          2    1    1    2  501    0  0.18279349930E+02 -0.14106943980E+02 -0.35653414812E+01  0.23363479240E+02  0.00000000000E+00 0.  1.
         -2    1    1    2    0  503 -0.18279349930E+02  0.14106943980E+02 -0.19945598755E+02  0.30511758586E+02  0.00000000000E+00 0. -1.
<mgrwt>
<rscale>  2 0.23089835E+02</rscale>
<asrwt>0</asrwt>
<pdfrwt beam="1">  1       21 0.23357152E-02 0.23089835E+02</pdfrwt>
<pdfrwt beam="2">  1       21 0.59527829E-02 0.23089835E+02</pdfrwt>
<totfact> 0.12797613E+08</totfact>
</mgrwt>
</event>
<event>
 4    1  0.2754379E+004  0.2346466E+02  0.7546771E-02  0.1684087E+00
         21   -1    0    0  501  502  0.00000000000E+00  0.00000000000E+00  0.24254229074E+01  0.24254229074E+01  0.00000000000E+00 0.  1.
         21   -1    0    0  502  503 -0.00000000000E+00 -0.00000000000E+00 -0.12566582019E+04  0.12566582019E+04  0.00000000000E+00 0. -1.
          2    1    1    2  501    0 -0.10283410002E+02 -0.21091266997E+02 -0.57265961366E+02  0.61886835401E+02  0.00000000000E+00 0.  1.
         -2    1    1    2    0  503  0.10283410002E+02  0.21091266997E+02 -0.11969668176E+04  0.11971967894E+04  0.00000000000E+00 0. -1.
<mgrwt>
<rscale>  2 0.23464656E+02</rscale>
<asrwt>0</asrwt>
<pdfrwt beam="1">  1       21 0.37314263E-03 0.23464656E+02</pdfrwt>
<pdfrwt beam="2">  1       21 0.19333170E+00 0.23464656E+02</pdfrwt>
<totfact> 0.25388560E+06</totfact>
</mgrwt>
</event>
<event>
 4    1  0.2754379E+004  0.3226340E+02  0.7546771E-02  0.1574338E+00
         21   -1    0    0  503  502  0.00000000000E+00  0.00000000000E+00  0.24905125302E+01  0.24905125302E+01  0.00000000000E+00 0.  1.
         21   -1    0    0  501  503 -0.00000000000E+00 -0.00000000000E+00 -0.44493965612E+03  0.44493965612E+03  0.00000000000E+00 0. -1.
          2    1    1    2  501    0  0.16928188223E+02  0.27465682128E+02 -0.27631634088E+03  0.27819354321E+03  0.00000000000E+00 0. -1.
         -2    1    1    2    0  502 -0.16928188223E+02 -0.27465682128E+02 -0.16613280271E+03  0.16923662543E+03  0.00000000000E+00 0.  1.
<mgrwt>
<rscale>  2 0.32263404E+02</rscale>
<asrwt>0</asrwt>
<pdfrwt beam="1">  1       21 0.38315583E-03 0.32263404E+02</pdfrwt>
<pdfrwt beam="2">  1       21 0.68452245E-01 0.32263404E+02</pdfrwt>
<totfact> 0.27106392E+07</totfact>
</mgrwt>
</event>
<event>
 4    1  0.2754379E+004  0.2905949E+02  0.7546771E-02  0.1608724E+00
         21   -1    0    0  503  502  0.00000000000E+00  0.00000000000E+00  0.67254244358E+01  0.67254244358E+01  0.00000000000E+00 0. -1.
         21   -1    0    0  501  503 -0.00000000000E+00 -0.00000000000E+00 -0.13227319753E+03  0.13227319753E+03  0.00000000000E+00 0.  1.
          2    1    1    2  501    0 -0.13830821908E+02 -0.25557041445E+02 -0.78429229305E+02  0.83639691603E+02  0.00000000000E+00 0.  1.
         -2    1    1    2    0  502  0.13830821908E+02  0.25557041445E+02 -0.47118543786E+02  0.55358930359E+02  0.00000000000E+00 0. -1.
<mgrwt>
<rscale>  2 0.29059491E+02</rscale>
<asrwt>0</asrwt>
<pdfrwt beam="1">  1       21 0.10346808E-02 0.29059491E+02</pdfrwt>
<pdfrwt beam="2">  1       21 0.20349721E-01 0.29059491E+02</pdfrwt>
<totfact> 0.60048272E+07</totfact>
</mgrwt>
</event>
<event>
 4    1  0.2754379E+004  0.3854160E+02  0.7546771E-02  0.1519226E+00
         21   -1    0    0  503  502  0.00000000000E+00  0.00000000000E+00  0.51145446137E+03  0.51145446137E+03  0.00000000000E+00 0. -1.
         21   -1    0    0  501  503 -0.00000000000E+00 -0.00000000000E+00 -0.41417733210E+01  0.41417733210E+01  0.00000000000E+00 0.  1.
          2    1    1    2  501    0  0.26541932825E+01  0.38450099725E+02  0.11274642698E+03  0.11915205289E+03  0.00000000000E+00 0.  1.
         -2    1    1    2    0  502 -0.26541932825E+01 -0.38450099725E+02  0.39456626107E+03  0.39644418181E+03  0.00000000000E+00 0. -1.
<mgrwt>
<rscale>  2 0.38541600E+02</rscale>
<asrwt>0</asrwt>
<pdfrwt beam="1">  1       21 0.78685252E-01 0.38541600E+02</pdfrwt>
<pdfrwt beam="2">  1       21 0.63719630E-03 0.38541600E+02</pdfrwt>
<totfact> 0.96989265E+06</totfact>
</mgrwt>
</event>
<event>
 4    1  0.2754379E+004  0.2149588E+02  0.7546771E-02  0.1717119E+00
         21   -1    0    0  503  502  0.00000000000E+00  0.00000000000E+00  0.30159211670E+02  0.30159211670E+02  0.00000000000E+00 0. -1.
         21   -1    0    0  501  503 -0.00000000000E+00 -0.00000000000E+00 -0.15563872756E+02  0.15563872756E+02  0.00000000000E+00 0.  1.
          2    1    1    2  501    0 -0.20981694853E+02  0.46734786668E+01  0.44425245095E+01  0.21950146828E+02  0.00000000000E+00 0.  1.
         -2    1    1    2    0  502  0.20981694853E+02 -0.46734786668E+01  0.10152814405E+02  0.23772937599E+02  0.00000000000E+00 0. -1.
<mgrwt>
<rscale>  2 0.21495882E+02</rscale>
<asrwt>0</asrwt>
<pdfrwt beam="1">  1       21 0.46398787E-02 0.21495882E+02</pdfrwt>
<pdfrwt beam="2">  1       21 0.23944420E-02 0.21495882E+02</pdfrwt>
<totfact> 0.17924765E+08</totfact>
</mgrwt>
</event>
<event>
 4    1  0.2754379E+004  0.3314660E+02  0.7546771E-02  0.1565703E+00
         21   -1    0    0  501  502  0.00000000000E+00  0.00000000000E+00  0.58739385467E+03  0.58739385467E+03  0.00000000000E+00 0. -1.
         21   -1    0    0  502  503 -0.00000000000E+00 -0.00000000000E+00 -0.21676761994E+01  0.21676761994E+01  0.00000000000E+00 0.  1.
          2    1    1    2  501    0 -0.13305766803E+01  0.33119881354E+02  0.40176663431E+03  0.40313164775E+03  0.00000000000E+00 0. -1.
         -2    1    1    2    0  503  0.13305766803E+01 -0.33119881354E+02  0.18345954417E+03  0.18642988312E+03  0.00000000000E+00 0.  1.
<mgrwt>
<rscale>  2 0.33146598E+02</rscale>
<asrwt>0</asrwt>
<pdfrwt beam="1">  1       21 0.90368158E-01 0.33146598E+02</pdfrwt>
<pdfrwt beam="2">  1       21 0.33348911E-03 0.33146598E+02</pdfrwt>
<totfact> 0.18534140E+07</totfact>
</mgrwt>
</event>
<event>
 4    1  0.2754379E+004  0.2713095E+02  0.7546771E-02  0.1632155E+00
         21   -1    0    0  503  502  0.00000000000E+00  0.00000000000E+00  0.21554841724E+02  0.21554841724E+02  0.00000000000E+00 0. -1.
         21   -1    0    0  501  503 -0.00000000000E+00 -0.00000000000E+00 -0.78916668944E+02  0.78916668944E+02  0.00000000000E+00 0.  1.
          2    1    1    2  501    0  0.18999824982E+02  0.19367374696E+02 -0.66517160016E+02  0.71837463266E+02  0.00000000000E+00 0.  1.
         -2    1    1    2    0  502 -0.18999824982E+02 -0.19367374696E+02  0.91553327958E+01  0.28634047401E+02  0.00000000000E+00 0. -1.
<mgrwt>
<rscale>  2 0.27130952E+02</rscale>
<asrwt>0</asrwt>
<pdfrwt beam="1">  1       21 0.33161295E-02 0.27130952E+02</pdfrwt>
<pdfrwt beam="2">  1       21 0.12141026E-01 0.27130952E+02</pdfrwt>
<totfact> 0.23904273E+07</totfact>
</mgrwt>
</event>
<event>
 4    1  0.2754379E+004  0.2389544E+02  0.7546771E-02  0.1677393E+00
         21   -1    0    0  503  502  0.00000000000E+00  0.00000000000E+00  0.46457232073E+02  0.46457232073E+02  0.00000000000E+00 0. -1.
         21   -1    0    0  501  503 -0.00000000000E+00 -0.00000000000E+00 -0.12404508904E+02  0.12404508904E+02  0.00000000000E+00 0.  1.
          2    1    1    2  501    0 -0.57138013028E+01  0.23202253740E+02  0.14207374039E+02  0.27800028436E+02  0.00000000000E+00 0.  1.
         -2    1    1    2    0  502  0.57138013028E+01 -0.23202253740E+02  0.19845349129E+02  0.31061712541E+02  0.00000000000E+00 0. -1.
<mgrwt>
<rscale>  2 0.23895441E+02</rscale>
<asrwt>0</asrwt>
<pdfrwt beam="1">  1       21 0.71472664E-02 0.23895441E+02</pdfrwt>
<pdfrwt beam="2">  1       21 0.19083860E-02 0.23895441E+02</pdfrwt>
<totfact> 0.13131102E+08</totfact>
</mgrwt>
</event>
<event>
 4    1  0.2754379E+004  0.3763346E+02  0.7546771E-02  0.1526386E+00
         21   -1    0    0  503  502  0.00000000000E+00  0.00000000000E+00  0.28478854336E+03  0.28478854336E+03  0.00000000000E+00 0. -1.
         21   -1    0    0  501  503 -0.00000000000E+00 -0.00000000000E+00 -0.38504129937E+02  0.38504129937E+02  0.00000000000E+00 0.  1.
          2    1    1    2  501    0 -0.10689758932E+02 -0.36083330171E+02 -0.27704472113E+02  0.46731311102E+02  0.00000000000E+00 0.  1.
         -2    1    1    2    0  502  0.10689758932E+02  0.36083330171E+02  0.27398888554E+03  0.27656136220E+03  0.00000000000E+00 0. -1.
<mgrwt>
<rscale>  2 0.37633465E+02</rscale>
<asrwt>0</asrwt>
<pdfrwt beam="1">  1       21 0.43813621E-01 0.37633465E+02</pdfrwt>
<pdfrwt beam="2">  1       21 0.59237125E-02 0.37633465E+02</pdfrwt>
<totfact> 0.97612379E+05</totfact>
</mgrwt>
</event>
<event>
 4    1  0.2754379E+004  0.2670927E+02  0.7546771E-02  0.1637599E+00
         21   -1    0    0  501  502  0.00000000000E+00  0.00000000000E+00  0.18700648264E+02  0.18700648264E+02  0.00000000000E+00 0.  1.
         21   -1    0    0  502  503 -0.00000000000E+00 -0.00000000000E+00 -0.38204989359E+02  0.38204989359E+02  0.00000000000E+00 0. -1.
          2    1    1    2  501    0  0.22468819050E+02 -0.14440812842E+02 -0.10854901971E+02  0.28830778724E+02  0.00000000000E+00 0. -1.
         -2    1    1    2    0  503 -0.22468819050E+02  0.14440812842E+02 -0.86494391242E+01  0.28074858899E+02  0.00000000000E+00 0.  1.
<mgrwt>
<rscale>  2 0.26709266E+02</rscale>
<asrwt>0</asrwt>
<pdfrwt beam="1">  1       21 0.28770228E-02 0.26709266E+02</pdfrwt>
<pdfrwt beam="2">  1       21 0.58776907E-02 0.26709266E+02</pdfrwt>
<totfact> 0.98392895E+07</totfact>
</mgrwt>
</event>
<event>
 4    1  0.2754379E+004  0.3543098E+02  0.7546771E-02  0.1544806E+00
         21   -1    0    0  503  502  0.00000000000E+00  0.00000000000E+00  0.34005436061E+02  0.34005436061E+02  0.00000000000E+00 0. -1.
         21   -1    0    0  501  503 -0.00000000000E+00 -0.00000000000E+00 -0.37339018742E+02  0.37339018742E+02  0.00000000000E+00 0.  1.
          2    1    1    2  501    0  0.33414174232E+02 -0.11783352456E+02 -0.54623983959E+01  0.35849577835E+02  0.00000000000E+00 0. -1.
         -2    1    1    2    0  502 -0.33414174232E+02  0.11783352456E+02  0.21288157143E+01  0.35494876969E+02  0.00000000000E+00 0.  1.
<mgrwt>
<rscale>  2 0.35430981E+02</rscale>
<asrwt>0</asrwt>
<pdfrwt beam="1">  1       21 0.52316055E-02 0.35430981E+02</pdfrwt>
<pdfrwt beam="2">  1       21 0.57444644E-02 0.35430981E+02</pdfrwt>
<totfact> 0.42087187E+07</totfact>
</mgrwt>
</event>
<event>
 4    1  0.2754379E+004  0.2236064E+02  0.7546771E-02  0.1702089E+00
         21   -1    0    0  503  502  0.00000000000E+00  0.00000000000E+00  0.20490037858E+02  0.20490037858E+02  0.00000000000E+00 0. -1.
         21   -1    0    0  501  503 -0.00000000000E+00 -0.00000000000E+00 -0.28328779883E+02  0.28328779883E+02  0.00000000000E+00 0.  1.
          2    1    1    2  501    0 -0.20622138748E+02  0.86443951209E+01 -0.13007215315E+02  0.25868626245E+02  0.00000000000E+00 0.  1.
         -2    1    1    2    0  502  0.20622138748E+02 -0.86443951209E+01  0.51684732896E+01  0.22950191496E+02  0.00000000000E+00 0. -1.
<mgrwt>
<rscale>  2 0.22360639E+02</rscale>
<asrwt>0</asrwt>
<pdfrwt beam="1">  1       21 0.31523135E-02 0.22360639E+02</pdfrwt>
<pdfrwt beam="2">  1       21 0.43582738E-02 0.22360639E+02</pdfrwt>
<totfact> 0.13083351E+08</totfact>
</mgrwt>
</event>
<event>
 4    1  0.2754379E+004  0.2267606E+02  0.7546771E-02  0.1696815E+00
         21   -1    0    0  503  502  0.00000000000E+00  0.00000000000E+00  0.24627202197E+02  0.24627202197E+02  0.00000000000E+00 0.  1.
         21   -1    0    0  501  503 -0.00000000000E+00 -0.00000000000E+00 -0.25327364845E+02  0.25327364845E+02  0.00000000000E+00 0. -1.
          2    1    1    2  501    0 -0.39328490457E+01  0.22332409508E+02 -0.10817165059E+02  0.25123990049E+02  0.00000000000E+00 0. -1.
         -2    1    1    2    0  502  0.39328490457E+01 -0.22332409508E+02  0.10117002410E+02  0.24830576994E+02  0.00000000000E+00 0.  1.
<mgrwt>
<rscale>  2 0.22676063E+02</rscale>
<asrwt>0</asrwt>
<pdfrwt beam="1">  1       21 0.37888003E-02 0.22676063E+02</pdfrwt>
<pdfrwt beam="2">  1       21 0.38965177E-02 0.22676063E+02</pdfrwt>
<totfact> 0.11755048E+08</totfact>
</mgrwt>
</event>
<event>
 4    1  0.2754379E+004  0.2271584E+02  0.7546771E-02  0.1696158E+00
         21   -1    0    0  501  502  0.00000000000E+00  0.00000000000E+00  0.87849932768E+01  0.87849932768E+01  0.00000000000E+00 0. -1.
         21   -1    0    0  502  503 -0.00000000000E+00 -0.00000000000E+00 -0.13092459844E+03  0.13092459844E+03  0.00000000000E+00 0.  1.
          2    1    1    2  501    0 -0.85289541036E+01 -0.21053893993E+02 -0.91999439896E+01  0.24508130891E+02  0.00000000000E+00 0. -1.
         -2    1    1    2    0  503  0.85289541036E+01  0.21053893993E+02 -0.11293966117E+03  0.11520146083E+03  0.00000000000E+00 0.  1.
<mgrwt>
<rscale>  2 0.22715843E+02</rscale>
<asrwt>0</asrwt>
<pdfrwt beam="1">  1       21 0.13515375E-02 0.22715843E+02</pdfrwt>
<pdfrwt beam="2">  1       21 0.20142244E-01 0.22715843E+02</pdfrwt>
<totfact> 0.38504972E+07</totfact>
</mgrwt>
</event>
<event>
 4    1  0.2754379E+004  0.2456147E+02  0.7546771E-02  0.1667382E+00
         21   -1    0    0  501  502  0.00000000000E+00  0.00000000000E+00  0.10458439359E+03  0.10458439359E+03  0.00000000000E+00 0.  1.
         21   -1    0    0  502  503 -0.00000000000E+00 -0.00000000000E+00 -0.59360998683E+01  0.59360998683E+01  0.00000000000E+00 0. -1.
          2    1    1    2  501    0  0.17000361071E+02  0.17727195573E+02  0.58617280141E+02  0.63555104206E+02  0.00000000000E+00 0. -1.
         -2    1    1    2    0  503 -0.17000361071E+02 -0.17727195573E+02  0.40031013583E+02  0.46965389256E+02  0.00000000000E+00 0.  1.
<mgrwt>
<rscale>  2 0.24561469E+02</rscale>
<asrwt>0</asrwt>
<pdfrwt beam="1">  1       21 0.16089905E-01 0.24561469E+02</pdfrwt>
<pdfrwt beam="2">  1       21 0.91324621E-03 0.24561469E+02</pdfrwt>
<totfact> 0.10467394E+08</totfact>
</mgrwt>
</event>
<event>
 4    1  0.2754379E+004  0.3717446E+02  0.7546771E-02  0.1530097E+00
         21   -1    0    0  501  502  0.00000000000E+00  0.00000000000E+00  0.53554019301E+03  0.53554019301E+03  0.00000000000E+00 0. -1.
         21   -1    0    0  502  503 -0.00000000000E+00 -0.00000000000E+00 -0.27215435411E+01  0.27215435411E+01  0.00000000000E+00 0.  1.
          2    1    1    2  501    0  0.28030816827E+02  0.24417494517E+02  0.32768556060E+03  0.32978745785E+03  0.00000000000E+00 0. -1.
         -2    1    1    2    0  503 -0.28030816827E+02 -0.24417494517E+02  0.20513308888E+03  0.20847427871E+03  0.00000000000E+00 0.  1.
<mgrwt>
<rscale>  2 0.37174463E+02</rscale>
<asrwt>0</asrwt>
<pdfrwt beam="1">  1       21 0.82390715E-01 0.37174463E+02</pdfrwt>
<pdfrwt beam="2">  1       21 0.41869943E-03 0.37174463E+02</pdfrwt>
<totfact> 0.16418076E+07</totfact>
</mgrwt>
</event>
<event>
 4    1  0.2754379E+004  0.2290401E+02  0.7546771E-02  0.1693071E+00
         21   -1    0    0  501  502  0.00000000000E+00  0.00000000000E+00  0.93935303463E+02  0.93935303463E+02  0.00000000000E+00 0.  1.
         21   -1    0    0  502  503 -0.00000000000E+00 -0.00000000000E+00 -0.56715783731E+01  0.56715783731E+01  0.00000000000E+00 0. -1.
          2    1    1    2  501    0  0.22183201267E+02 -0.57007999612E+01  0.50298495273E+02  0.55267822152E+02  0.00000000000E+00 0.  1.
         -2    1    1    2    0  503 -0.22183201267E+02  0.57007999612E+01  0.37965229816E+02  0.44339059684E+02  0.00000000000E+00 0. -1.
<mgrwt>
<rscale>  2 0.22904007E+02</rscale>
<asrwt>0</asrwt>
<pdfrwt beam="1">  1       21 0.14451584E-01 0.22904007E+02</pdfrwt>
<pdfrwt beam="2">  1       21 0.87255059E-03 0.22904007E+02</pdfrwt>
<totfact> 0.13199195E+08</totfact>
</mgrwt>
</event>
<event>
 4    1  0.2754379E+004  0.2372656E+02  0.7546771E-02  0.1679996E+00
         21   -1    0    0  501  502  0.00000000000E+00  0.00000000000E+00  0.10676163519E+02  0.10676163519E+02  0.00000000000E+00 0. -1.
         21   -1    0    0  502  503 -0.00000000000E+00 -0.00000000000E+00 -0.57034033495E+02  0.57034033495E+02  0.00000000000E+00 0.  1.
          2    1    1    2  501    0  0.76926335417E+01  0.22444889283E+02 -0.13878230943E+02  0.27487360001E+02  0.00000000000E+00 0. -1.
         -2    1    1    2    0  503 -0.76926335417E+01 -0.22444889283E+02 -0.32479639033E+02  0.40222837014E+02  0.00000000000E+00 0.  1.
<mgrwt>
<rscale>  2 0.23726560E+02</rscale>
<asrwt>0</asrwt>
<pdfrwt beam="1">  1       21 0.16424867E-02 0.23726560E+02</pdfrwt>
<pdfrwt beam="2">  1       21 0.87744668E-02 0.23726560E+02</pdfrwt>
<totfact> 0.11793097E+08</totfact>
</mgrwt>
</event>
<event>
 4    1  0.2754379E+004  0.2148084E+02  0.7546771E-02  0.1717388E+00
         21   -1    0    0  501  502  0.00000000000E+00  0.00000000000E+00  0.18017590902E+03  0.18017590902E+03  0.00000000000E+00 0.  1.
         21   -1    0    0  502  503 -0.00000000000E+00 -0.00000000000E+00 -0.25613658244E+01  0.25613658244E+01  0.00000000000E+00 0. -1.
          2    1    1    2  501    0 -0.16046710040E+02 -0.14280394110E+02  0.89931402947E+02  0.92461255643E+02  0.00000000000E+00 0. -1.
         -2    1    1    2    0  503  0.16046710040E+02  0.14280394110E+02  0.87683140251E+02  0.90276019204E+02  0.00000000000E+00 0.  1.
<mgrwt>
<rscale>  2 0.21480842E+02</rscale>
<asrwt>0</asrwt>
<pdfrwt beam="1">  1       21 0.27719361E-01 0.21480842E+02</pdfrwt>
<pdfrwt beam="2">  1       21 0.39405642E-03 0.21480842E+02</pdfrwt>
<totfact> 0.13485406E+08</totfact>
</mgrwt>
</event>
<event>
 4    1  0.2754379E+004  0.2554966E+02  0.7546771E-02  0.1653230E+00
         21   -1    0    0  501  502  0.00000000000E+00  0.00000000000E+00  0.23532572526E+01  0.23532572526E+01  0.00000000000E+00 0. -1.
         21   -1    0    0  502  503 -0.00000000000E+00 -0.00000000000E+00 -0.30038408141E+03  0.30038408141E+03  0.00000000000E+00 0.  1.
          2    1    1    2  501    0 -0.10138854137E+02 -0.23451841508E+02 -0.10714140267E+03  0.11014565538E+03  0.00000000000E+00 0.  1.
         -2    1    1    2    0  503  0.10138854137E+02  0.23451841508E+02 -0.19088942149E+03  0.19259168328E+03  0.00000000000E+00 0. -1.
<mgrwt>
<rscale>  2 0.25549662E+02</rscale>
<asrwt>0</asrwt>
<pdfrwt beam="1">  1       21 0.36203939E-03 0.25549662E+02</pdfrwt>
<pdfrwt beam="2">  1       21 0.46212959E-01 0.25549662E+02</pdfrwt>
<totfact> 0.61699491E+07</totfact>
</mgrwt>
</event>
<event>
 4    1  0.2754379E+004  0.3139041E+02  0.7546771E-02  0.1583209E+00
         21   -1    0    0  503  502  0.00000000000E+00  0.00000000000E+00  0.26213834656E+01  0.26213834656E+01  0.00000000000E+00 0. -1.
         21   -1    0    0  501  503 -0.00000000000E+00 -0.00000000000E+00 -0.39525110554E+03  0.39525110554E+03  0.00000000000E+00 0.  1.
          2    1    1    2  501    0  0.11652084165E+02 -0.29147668971E+02 -0.24034169467E+03  0.24238293642E+03  0.00000000000E+00 0. -1.
         -2    1    1    2    0  502 -0.11652084165E+02  0.29147668971E+02 -0.15228802741E+03  0.15548955259E+03  0.00000000000E+00 0.  1.
<mgrwt>
<rscale>  2 0.31390407E+02</rscale>
<asrwt>0</asrwt>
<pdfrwt beam="1">  1       21 0.40328941E-03 0.31390407E+02</pdfrwt>
<pdfrwt beam="2">  1       21 0.60807915E-01 0.31390407E+02</pdfrwt>
<totfact> 0.31879250E+07</totfact>
</mgrwt>
</event>
<event>
 4    1  0.2754379E+004  0.2280972E+02  0.7546771E-02  0.1694613E+00
         21   -1    0    0  503  502  0.00000000000E+00  0.00000000000E+00  0.18516654353E+01  0.18516654353E+01  0.00000000000E+00 0.  1.
         21   -1    0    0  501  503 -0.00000000000E+00 -0.00000000000E+00 -0.28111176327E+03  0.28111176327E+03  0.00000000000E+00 0. -1.
          2    1    1    2  501    0  0.13382657609E+02  0.18471275094E+02 -0.13658317358E+03  0.13847471550E+03  0.00000000000E+00 0.  1.
         -2    1    1    2    0  502 -0.13382657609E+02 -0.18471275094E+02 -0.14267692426E+03  0.14448871321E+03  0.00000000000E+00 0. -1.
<mgrwt>
<rscale>  2 0.22809724E+02</rscale>
<asrwt>0</asrwt>
<pdfrwt beam="1">  1       21 0.28487160E-03 0.22809724E+02</pdfrwt>
<pdfrwt beam="2">  1       21 0.43247964E-01 0.22809724E+02</pdfrwt>
<totfact> 0.96738049E+07</totfact>
</mgrwt>
</event>
<event>
 4    1  0.2754379E+004  0.2672622E+02  0.7546771E-02  0.1637378E+00
         21   -1    0    0  501  502  0.00000000000E+00  0.00000000000E+00  0.58510484471E+02  0.58510484471E+02  0.00000000000E+00 0. -1.
         21   -1    0    0  502  503 -0.00000000000E+00 -0.00000000000E+00 -0.12462603574E+02  0.12462603574E+02  0.00000000000E+00 0.  1.
          2    1    1    2  501    0 -0.26666649333E+02  0.17834126000E+01  0.17950903362E+02  0.32195118864E+02  0.00000000000E+00 0.  1.
         -2    1    1    2    0  503  0.26666649333E+02 -0.17834126000E+01  0.28096977536E+02  0.38777969181E+02  0.00000000000E+00 0. -1.
<mgrwt>
<rscale>  2 0.26726218E+02</rscale>
<asrwt>0</asrwt>
<pdfrwt beam="1">  1       21 0.90016129E-02 0.26726218E+02</pdfrwt>
<pdfrwt beam="2">  1       21 0.19173237E-02 0.26726218E+02</pdfrwt>
<totfact> 0.92094704E+07</totfact>
</mgrwt>
</event>
<event>
 4    1  0.2754379E+004  0.2223153E+02  0.7546771E-02  0.1704278E+00
         21   -1    0    0  503  502  0.00000000000E+00  0.00000000000E+00  0.60280341550E+01  0.60280341550E+01  0.00000000000E+00 0.  1.
         21   -1    0    0  501  503 -0.00000000000E+00 -0.00000000000E+00 -0.94166775305E+02  0.94166775305E+02  0.00000000000E+00 0. -1.
          2    1    1    2  501    0 -0.21078096718E+02 -0.70678558956E+01 -0.62084024941E+02  0.65944422820E+02  0.00000000000E+00 0. -1.
         -2    1    1    2    0  502  0.21078096718E+02  0.70678558956E+01 -0.26054716209E+02  0.34250386639E+02  0.00000000000E+00 0.  1.
<mgrwt>
<rscale>  2 0.22231526E+02</rscale>
<asrwt>0</asrwt>
<pdfrwt beam="1">  1       21 0.92738991E-03 0.22231526E+02</pdfrwt>
<pdfrwt beam="2">  1       21 0.14487196E-01 0.22231526E+02</pdfrwt>
<totfact> 0.11895006E+08</totfact>
</mgrwt>
</event>
<event>
 4    1  0.2754379E+004  0.2662771E+02  0.7546771E-02  0.1638666E+00
         21   -1    0    0  501  502  0.00000000000E+00  0.00000000000E+00  0.36988513867E+02  0.36988513867E+02  0.00000000000E+00 0.  1.
         21   -1    0    0  502  503 -0.00000000000E+00 -0.00000000000E+00 -0.21547955284E+02  0.21547955284E+02  0.00000000000E+00 0. -1.
          2    1    1    2  501    0 -0.25279085544E+02  0.83667569429E+01 -0.20045454604E+01  0.26703052076E+02  0.00000000000E+00 0. -1.
         -2    1    1    2    0  503  0.25279085544E+02 -0.83667569429E+01  0.17445104043E+02  0.31833417076E+02  0.00000000000E+00 0.  1.
<mgrwt>
<rscale>  2 0.26627707E+02</rscale>
<asrwt>0</asrwt>
<pdfrwt beam="1">  1       21 0.56905406E-02 0.26627707E+02</pdfrwt>
<pdfrwt beam="2">  1       21 0.33150700E-02 0.26627707E+02</pdfrwt>
<totfact> 0.82943602E+07</totfact>
</mgrwt>
</event>
<event>
 4    1  0.2754379E+004  0.2073154E+02  0.7546771E-02  0.1731160E+00
         21   -1    0    0  501  502  0.00000000000E+00  0.00000000000E+00  0.12121116954E+03  0.12121116954E+03  0.00000000000E+00 0. -1.
         21   -1    0    0  502  503 -0.00000000000E+00 -0.00000000000E+00 -0.38720218057E+01  0.38720218057E+01  0.00000000000E+00 0.  1.
          2    1    1    2  501    0 -0.16352138613E+02  0.12743792247E+02  0.76821511076E+02  0.79569725662E+02  0.00000000000E+00 0.  1.
         -2    1    1    2    0  503  0.16352138613E+02 -0.12743792247E+02  0.40517636655E+02  0.45513465679E+02  0.00000000000E+00 0. -1.
<mgrwt>
<rscale>  2 0.20731538E+02</rscale>
<asrwt>0</asrwt>
<pdfrwt beam="1">  1       21 0.18647869E-01 0.20731538E+02</pdfrwt>
<pdfrwt beam="2">  1       21 0.59569575E-03 0.20731538E+02</pdfrwt>
<totfact> 0.14610419E+08</totfact>
</mgrwt>
</event>
<event>
 4    1  0.2754379E+004  0.2120059E+02  0.7546771E-02  0.1722456E+00
         21   -1    0    0  503  502  0.00000000000E+00  0.00000000000E+00  0.85164583872E+02  0.85164583872E+02  0.00000000000E+00 0. -1.
         21   -1    0    0  501  503 -0.00000000000E+00 -0.00000000000E+00 -0.58413566166E+01  0.58413566166E+01  0.00000000000E+00 0.  1.
          2    1    1    2  501    0 -0.16810056575E+02  0.12918478866E+02  0.25525615011E+02  0.33181653364E+02  0.00000000000E+00 0. -1.
         -2    1    1    2    0  502  0.16810056575E+02 -0.12918478866E+02  0.53797612245E+02  0.57824287125E+02  0.00000000000E+00 0.  1.
<mgrwt>
<rscale>  2 0.21200592E+02</rscale>
<asrwt>0</asrwt>
<pdfrwt beam="1">  1       21 0.13102243E-01 0.21200592E+02</pdfrwt>
<pdfrwt beam="2">  1       21 0.89867031E-03 0.21200592E+02</pdfrwt>
<totfact> 0.14566003E+08</totfact>
</mgrwt>
</event>
<event>
 4    1  0.2754379E+004  0.2212717E+02  0.7546771E-02  0.1706062E+00
         21   -1    0    0  501  502  0.00000000000E+00  0.00000000000E+00  0.53313091124E+02  0.53313091124E+02  0.00000000000E+00 0.  1.
         21   -1    0    0  502  503 -0.00000000000E+00 -0.00000000000E+00 -0.93359340983E+01  0.93359340983E+01  0.00000000000E+00 0. -1.
          2    1    1    2  501    0 -0.21662963432E+02  0.45086133873E+01  0.25988555940E+02  0.34132339785E+02  0.00000000000E+00 0. -1.
         -2    1    1    2    0  503  0.21662963432E+02 -0.45086133873E+01  0.17988601085E+02  0.28516685437E+02  0.00000000000E+00 0.  1.
<mgrwt>
<rscale>  2 0.22127168E+02</rscale>
<asrwt>0</asrwt>
<pdfrwt beam="1">  1       21 0.82020138E-02 0.22127168E+02</pdfrwt>
<pdfrwt beam="2">  1       21 0.14362976E-02 0.22127168E+02</pdfrwt>
<totfact> 0.15818653E+08</totfact>
</mgrwt>
</event>
<event>
 4    1  0.2754379E+004  0.2525717E+02  0.7546771E-02  0.1657335E+00
         21   -1    0    0  501  502  0.00000000000E+00  0.00000000000E+00  0.21547539230E+02  0.21547539230E+02  0.00000000000E+00 0. -1.
         21   -1    0    0  502  503 -0.00000000000E+00 -0.00000000000E+00 -0.30415076130E+02  0.30415076130E+02  0.00000000000E+00 0.  1.
          2    1    1    2  501    0  0.85683684866E+01  0.23759366683E+02 -0.19479499383E+00  0.25257917349E+02  0.00000000000E+00 0. -1.
         -2    1    1    2    0  503 -0.85683684866E+01 -0.23759366683E+02 -0.86727419060E+01  0.26704698011E+02  0.00000000000E+00 0.  1.
<mgrwt>
<rscale>  2 0.25257166E+02</rscale>
<asrwt>0</asrwt>
<pdfrwt beam="1">  1       21 0.33150060E-02 0.25257166E+02</pdfrwt>
<pdfrwt beam="2">  1       21 0.46792425E-02 0.25257166E+02</pdfrwt>
<totfact> 0.11191487E+08</totfact>
</mgrwt>
</event>
<event>
 4    1  0.2754379E+004  0.2109019E+02  0.7546771E-02  0.1724479E+00
         21   -1    0    0  501  502  0.00000000000E+00  0.00000000000E+00  0.76390538456E+02  0.76390538456E+02  0.00000000000E+00 0.  1.
         21   -1    0    0  502  503 -0.00000000000E+00 -0.00000000000E+00 -0.26654992153E+02  0.26654992153E+02  0.00000000000E+00 0. -1.
          2    1    1    2  501    0  0.13605402035E+02 -0.16114876711E+02  0.70416770245E+02  0.73507263231E+02  0.00000000000E+00 0.  1.
         -2    1    1    2    0  503 -0.13605402035E+02  0.16114876711E+02 -0.20681223942E+02  0.29538267378E+02  0.00000000000E+00 0. -1.
<mgrwt>
<rscale>  2 0.21090192E+02</rscale>
<asrwt>0</asrwt>
<pdfrwt beam="1">  1       21 0.11752390E-01 0.21090192E+02</pdfrwt>
<pdfrwt beam="2">  1       21 0.41007680E-02 0.21090192E+02</pdfrwt>
<totfact> 0.17124792E+07</totfact>
</mgrwt>
</event>
<event>
 4    1  0.2754379E+004  0.3073054E+02  0.7546771E-02  0.1590151E+00
         21   -1    0    0  501  502  0.00000000000E+00  0.00000000000E+00  0.14402231245E+03  0.14402231245E+03  0.00000000000E+00 0.  1.
         21   -1    0    0  502  503 -0.00000000000E+00 -0.00000000000E+00 -0.11009905861E+02  0.11009905861E+02  0.00000000000E+00 0. -1.
          2    1    1    2  501    0  0.22636919001E+01  0.30647048963E+02  0.11580291933E+03  0.11981102635E+03  0.00000000000E+00 0.  1.
         -2    1    1    2    0  503 -0.22636919001E+01 -0.30647048963E+02  0.17209487262E+02  0.35221191959E+02  0.00000000000E+00 0. -1.
<mgrwt>
<rscale>  2 0.30730537E+02</rscale>
<asrwt>0</asrwt>
<pdfrwt beam="1">  1       21 0.22157277E-01 0.30730537E+02</pdfrwt>
<pdfrwt beam="2">  1       21 0.16938318E-02 0.30730537E+02</pdfrwt>
<totfact> 0.24590913E+07</totfact>
</mgrwt>
</event>
<event>
 4    1  0.2754379E+004  0.2424917E+02  0.7546771E-02  0.1672027E+00
         21   -1    0    0  501  502  0.00000000000E+00  0.00000000000E+00  0.45634450208E+02  0.45634450208E+02  0.00000000000E+00 0. -1.
         21   -1    0    0  502  503 -0.00000000000E+00 -0.00000000000E+00 -0.12931645518E+02  0.12931645518E+02  0.00000000000E+00 0.  1.
          2    1    1    2  501    0  0.17351436768E+02  0.16939591791E+02  0.18100902425E+02  0.30259953677E+02  0.00000000000E+00 0. -1.
         -2    1    1    2    0  503 -0.17351436768E+02 -0.16939591791E+02  0.14601902265E+02  0.28306142049E+02  0.00000000000E+00 0.  1.
<mgrwt>
<rscale>  2 0.24249168E+02</rscale>
<asrwt>0</asrwt>
<pdfrwt beam="1">  1       21 0.70206845E-02 0.24249168E+02</pdfrwt>
<pdfrwt beam="2">  1       21 0.19894840E-02 0.24249168E+02</pdfrwt>
<totfact> 0.12735835E+08</totfact>
</mgrwt>
</event>
<event>
 4    1  0.2754379E+004  0.2141188E+02  0.7546771E-02  0.1718626E+00
         21   -1    0    0  501  502  0.00000000000E+00  0.00000000000E+00  0.40788582079E+03  0.40788582079E+03  0.00000000000E+00 0. -1.
         21   -1    0    0  502  503 -0.00000000000E+00 -0.00000000000E+00 -0.12192429713E+01  0.12192429713E+01  0.00000000000E+00 0.  1.
          2    1    1    2  501    0  0.21003983528E+02 -0.41594626149E+01  0.26050081741E+03  0.26137931120E+03  0.00000000000E+00 0. -1.
         -2    1    1    2    0  503 -0.21003983528E+02  0.41594626149E+01  0.14616576041E+03  0.14772575256E+03  0.00000000000E+00 0.  1.
<mgrwt>
<rscale>  2 0.21411876E+02</rscale>
<asrwt>0</asrwt>
<pdfrwt beam="1">  1       21 0.62751556E-01 0.21411876E+02</pdfrwt>
<pdfrwt beam="2">  1       21 0.18757617E-03 0.21411876E+02</pdfrwt>
<totfact> 0.84188859E+07</totfact>
</mgrwt>
</event>
<event>
 4    1  0.2754379E+004  0.2026052E+02  0.7546771E-02  0.1740196E+00
         21   -1    0    0  501  502  0.00000000000E+00  0.00000000000E+00  0.16275234894E+01  0.16275234894E+01  0.00000000000E+00 0. -1.
         21   -1    0    0  502  503 -0.00000000000E+00 -0.00000000000E+00 -0.35859155467E+03  0.35859155467E+03  0.00000000000E+00 0.  1.
          2    1    1    2  501    0 -0.13670584176E+02  0.14953382735E+02 -0.80384892171E+02  0.82898850513E+02  0.00000000000E+00 0. -1.
         -2    1    1    2    0  503  0.13670584176E+02 -0.14953382735E+02 -0.27657913901E+03  0.27732022765E+03  0.00000000000E+00 0.  1.
<mgrwt>
<rscale>  2 0.20260516E+02</rscale>
<asrwt>0</asrwt>
<pdfrwt beam="1">  1       21 0.25038829E-03 0.20260516E+02</pdfrwt>
<pdfrwt beam="2">  1       21 0.55167917E-01 0.20260516E+02</pdfrwt>
<totfact> 0.70672156E+07</totfact>
</mgrwt>
</event>
<event>
 4    1  0.2754379E+004  0.2024281E+02  0.7546771E-02  0.1740542E+00
         21   -1    0    0  501  502  0.00000000000E+00  0.00000000000E+00  0.87879115443E+01  0.87879115443E+01  0.00000000000E+00 0. -1.
         21   -1    0    0  502  503 -0.00000000000E+00 -0.00000000000E+00 -0.51190046152E+02  0.51190046152E+02  0.00000000000E+00 0.  1.
          2    1    1    2  501    0  0.20172062794E+02  0.16909783661E+01 -0.12249457098E+02  0.23660530940E+02  0.00000000000E+00 0. -1.
         -2    1    1    2    0  503 -0.20172062794E+02 -0.16909783661E+01 -0.30152677510E+02  0.36317426756E+02  0.00000000000E+00 0.  1.
<mgrwt>
<rscale>  2 0.20242814E+02</rscale>
<asrwt>0</asrwt>
<pdfrwt beam="1">  1       21 0.13519864E-02 0.20242814E+02</pdfrwt>
<pdfrwt beam="2">  1       21 0.78753916E-02 0.20242814E+02</pdfrwt>
<totfact> 0.18012013E+08</totfact>
</mgrwt>
</event>
<event>
 4    1  0.2754379E+004  0.2174023E+02  0.7546771E-02  0.1712784E+00
         21   -1    0    0  501  502  0.00000000000E+00  0.00000000000E+00  0.43955139006E+02  0.43955139006E+02  0.00000000000E+00 0.  1.
         21   -1    0    0  502  503 -0.00000000000E+00 -0.00000000000E+00 -0.23138967761E+02  0.23138967761E+02  0.00000000000E+00 0. -1.
          2    1    1    2  501    0 -0.16227999558E+02 -0.14466844543E+02  0.34952471361E+02  0.41162031230E+02  0.00000000000E+00 0.  1.
         -2    1    1    2    0  503  0.16227999558E+02  0.14466844543E+02 -0.14136300116E+02  0.25932075537E+02  0.00000000000E+00 0. -1.
<mgrwt>
<rscale>  2 0.21740229E+02</rscale>
<asrwt>0</asrwt>
<pdfrwt beam="1">  1       21 0.67623290E-02 0.21740229E+02</pdfrwt>
<pdfrwt beam="2">  1       21 0.35598412E-02 0.21740229E+02</pdfrwt>
<totfact> 0.53252626E+07</totfact>
</mgrwt>
</event>
<event>
 4    1  0.2754379E+004  0.2697629E+02  0.7546771E-02  0.1634138E+00
         21   -1    0    0  503  502  0.00000000000E+00  0.00000000000E+00  0.27118452976E+01  0.27118452976E+01  0.00000000000E+00 0. -1.
         21   -1    0    0  501  503 -0.00000000000E+00 -0.00000000000E+00 -0.27378979473E+03  0.27378979473E+03  0.00000000000E+00 0.  1.
          2    1    1    2  501    0 -0.48112267360E+01 -0.26543777142E+02 -0.15502864430E+03  0.15735819191E+03  0.00000000000E+00 0.  1.
         -2    1    1    2    0  502  0.48112267360E+01  0.26543777142E+02 -0.11604930513E+03  0.11914344811E+03  0.00000000000E+00 0. -1.
<mgrwt>
<rscale>  2 0.26976286E+02</rscale>
<asrwt>0</asrwt>
<pdfrwt beam="1">  1       21 0.41720680E-03 0.26976286E+02</pdfrwt>
<pdfrwt beam="2">  1       21 0.42121524E-01 0.26976286E+02</pdfrwt>
<totfact> 0.60564529E+07</totfact>
</mgrwt>
</event>
<event>
 4    1  0.2754379E+004  0.2909649E+02  0.7546771E-02  0.1608296E+00
         21   -1    0    0  503  502  0.00000000000E+00  0.00000000000E+00  0.28232252035E+03  0.28232252035E+03  0.00000000000E+00 0.  1.
         21   -1    0    0  501  503 -0.00000000000E+00 -0.00000000000E+00 -0.34418429587E+01  0.34418429587E+01  0.00000000000E+00 0. -1.
          2    1    1    2  501    0 -0.66856449244E+01  0.28317977341E+02  0.88172437309E+02  0.92849256270E+02  0.00000000000E+00 0. -1.
         -2    1    1    2    0  502  0.66856449244E+01 -0.28317977341E+02  0.19070824009E+03  0.19291510704E+03  0.00000000000E+00 0.  1.
<mgrwt>
<rscale>  2 0.29096489E+02</rscale>
<asrwt>0</asrwt>
<pdfrwt beam="1">  1       21 0.43434216E-01 0.29096489E+02</pdfrwt>
<pdfrwt beam="2">  1       21 0.52951452E-03 0.29096489E+02</pdfrwt>
<totfact> 0.40762098E+07</totfact>
</mgrwt>
</event>
<event>
 4    1  0.2754379E+004  0.2266903E+02  0.7546771E-02  0.1696932E+00
         21   -1    0    0  503  502  0.00000000000E+00  0.00000000000E+00  0.57533815877E+02  0.57533815877E+02  0.00000000000E+00 0.  1.
         21   -1    0    0  501  503 -0.00000000000E+00 -0.00000000000E+00 -0.12305396107E+02  0.12305396107E+02  0.00000000000E+00 0. -1.
          2    1    1    2  501    0 -0.18022194504E+02  0.13750840312E+02  0.43305569282E+01  0.23078969374E+02  0.00000000000E+00 0. -1.
         -2    1    1    2    0  502  0.18022194504E+02 -0.13750840312E+02  0.40897862841E+02  0.46760242611E+02  0.00000000000E+00 0.  1.
<mgrwt>
<rscale>  2 0.22669034E+02</rscale>
<asrwt>0</asrwt>
<pdfrwt beam="1">  1       21 0.88513562E-02 0.22669034E+02</pdfrwt>
<pdfrwt beam="2">  1       21 0.18931379E-02 0.22669034E+02</pdfrwt>
<totfact> 0.92353440E+07</totfact>
</mgrwt>
</event>
<event>
 4    1  0.2754379E+004  0.6516014E+02  0.7546771E-02  0.1377370E+00
         21   -1    0    0  501  502  0.00000000000E+00  0.00000000000E+00  0.84546529258E+02  0.84546529258E+02  0.00000000000E+00 0.  1.
         21   -1    0    0  502  503 -0.00000000000E+00 -0.00000000000E+00 -0.54263674181E+02  0.54263674181E+02  0.00000000000E+00 0. -1.
          2    1    1    2  501    0  0.13734764685E+02  0.63696155548E+02  0.34090039403E+02  0.73538933763E+02  0.00000000000E+00 0.  1.
         -2    1    1    2    0  503 -0.13734764685E+02 -0.63696155548E+02 -0.38071843267E+01  0.65271269675E+02  0.00000000000E+00 0. -1.
<mgrwt>
<rscale>  2 0.65160141E+02</rscale>
<asrwt>0</asrwt>
<pdfrwt beam="1">  1       21 0.13007158E-01 0.65160141E+02</pdfrwt>
<pdfrwt beam="2">  1       21 0.83482576E-02 0.65160141E+02</pdfrwt>
<totfact> 0.53172032E+06</totfact>
</mgrwt>
</event>
<event>
 4    1  0.2754379E+004  0.2641751E+02  0.7546771E-02  0.1641438E+00
         21   -1    0    0  503  502  0.00000000000E+00  0.00000000000E+00  0.56661624956E+01  0.56661624956E+01  0.00000000000E+00 0.  1.
         21   -1    0    0  501  503 -0.00000000000E+00 -0.00000000000E+00 -0.12409236553E+03  0.12409236553E+03  0.00000000000E+00 0. -1.
          2    1    1    2  501    0 -0.99670714427E+01  0.24465129692E+02 -0.53610949053E+02  0.59766369660E+02  0.00000000000E+00 0. -1.
         -2    1    1    2    0  502  0.99670714427E+01 -0.24465129692E+02 -0.64815253977E+02  0.69992158362E+02  0.00000000000E+00 0.  1.
<mgrwt>
<rscale>  2 0.26417515E+02</rscale>
<asrwt>0</asrwt>
<pdfrwt beam="1">  1       21 0.87171731E-03 0.26417515E+02</pdfrwt>
<pdfrwt beam="2">  1       21 0.19091133E-01 0.26417515E+02</pdfrwt>
<totfact> 0.85041073E+07</totfact>
</mgrwt>
</event>
<event>
 4    1  0.2754379E+004  0.2128175E+02  0.7546771E-02  0.1720978E+00
         21   -1    0    0  501  502  0.00000000000E+00  0.00000000000E+00  0.12629471073E+02  0.12629471073E+02  0.00000000000E+00 0. -1.
         21   -1    0    0  502  503 -0.00000000000E+00 -0.00000000000E+00 -0.36599129622E+02  0.36599129622E+02  0.00000000000E+00 0.  1.
          2    1    1    2  501    0  0.92021981419E+01 -0.19189378369E+02 -0.84906117346E+01  0.22912947878E+02  0.00000000000E+00 0. -1.
         -2    1    1    2    0  503 -0.92021981419E+01  0.19189378369E+02 -0.15479046815E+02  0.26315652816E+02  0.00000000000E+00 0.  1.
<mgrwt>
<rscale>  2 0.21281746E+02</rscale>
<asrwt>0</asrwt>
<pdfrwt beam="1">  1       21 0.19429956E-02 0.21281746E+02</pdfrwt>
<pdfrwt beam="2">  1       21 0.56306352E-02 0.21281746E+02</pdfrwt>
<totfact> 0.18102078E+08</totfact>
</mgrwt>
</event>
<event>
 4    1  0.2754379E+004  0.3390548E+02  0.7546771E-02  0.1558541E+00
         21   -1    0    0  503  502  0.00000000000E+00  0.00000000000E+00  0.88786788843E+01  0.88786788843E+01  0.00000000000E+00 0. -1.
         21   -1    0    0  501  503 -0.00000000000E+00 -0.00000000000E+00 -0.24668154648E+03  0.24668154648E+03  0.00000000000E+00 0.  1.
          2    1    1    2  501    0 -0.31575930264E+02 -0.12350800042E+02 -0.20697950711E+03  0.20973816534E+03  0.00000000000E+00 0.  1.
         -2    1    1    2    0  502  0.31575930264E+02  0.12350800042E+02 -0.30823360480E+02  0.45822060025E+02  0.00000000000E+00 0. -1.
<mgrwt>
<rscale>  2 0.33905481E+02</rscale>
<asrwt>0</asrwt>
<pdfrwt beam="1">  1       21 0.13659507E-02 0.33905481E+02</pdfrwt>
<pdfrwt beam="2">  1       21 0.37951004E-01 0.33905481E+02</pdfrwt>
<totfact> 0.12943084E+07</totfact>
</mgrwt>
</event>
<event>
 4    1  0.2754379E+004  0.2326697E+02  0.7546771E-02  0.1687219E+00
         21   -1    0    0  503  502  0.00000000000E+00  0.00000000000E+00  0.51884060200E+02  0.51884060200E+02  0.00000000000E+00 0.  1.
         21   -1    0    0  501  503 -0.00000000000E+00 -0.00000000000E+00 -0.24280555983E+02  0.24280555983E+02  0.00000000000E+00 0. -1.
          2    1    1    2  501    0  0.88934300275E+01  0.21500207606E+02 -0.14956780565E+02  0.27659669369E+02  0.00000000000E+00 0. -1.
         -2    1    1    2    0  502 -0.88934300275E+01 -0.21500207606E+02  0.42560284782E+02  0.48504946814E+02  0.00000000000E+00 0.  1.
<mgrwt>
<rscale>  2 0.23266973E+02</rscale>
<asrwt>0</asrwt>
<pdfrwt beam="1">  1       21 0.79821631E-02 0.23266973E+02</pdfrwt>
<pdfrwt beam="2">  1       21 0.37354702E-02 0.23266973E+02</pdfrwt>
<totfact> 0.38396560E+07</totfact>
</mgrwt>
</event>
<event>
 4    1  0.2754379E+004  0.3566405E+02  0.7546771E-02  0.1542781E+00
         21   -1    0    0  501  502  0.00000000000E+00  0.00000000000E+00  0.16602665932E+01  0.16602665932E+01  0.00000000000E+00 0.  1.
         21   -1    0    0  502  503 -0.00000000000E+00 -0.00000000000E+00 -0.84327945611E+03  0.84327945611E+03  0.00000000000E+00 0. -1.
          2    1    1    2  501    0 -0.24941575904E+02 -0.25492006835E+02 -0.29299797293E+03  0.29516052710E+03  0.00000000000E+00 0.  1.
         -2    1    1    2    0  503  0.24941575904E+02  0.25492006835E+02 -0.54862121659E+03  0.54977919560E+03  0.00000000000E+00 0. -1.
<mgrwt>
<rscale>  2 0.35664052E+02</rscale>
<asrwt>0</asrwt>
<pdfrwt beam="1">  1       21 0.25542526E-03 0.35664052E+02</pdfrwt>
<pdfrwt beam="2">  1       21 0.12973549E+00 0.35664052E+02</pdfrwt>
<totfact> 0.12232583E+07</totfact>
</mgrwt>
</event>
<event>
 4    1  0.2754379E+004  0.4691517E+02  0.7546771E-02  0.1462728E+00
         21   -1    0    0  503  502  0.00000000000E+00  0.00000000000E+00  0.17830069323E+02  0.17830069323E+02  0.00000000000E+00 0. -1.
         21   -1    0    0  501  503 -0.00000000000E+00 -0.00000000000E+00 -0.17759914195E+03  0.17759914195E+03  0.00000000000E+00 0.  1.
          2    1    1    2  501    0 -0.39339174426E+02 -0.25562915159E+02 -0.13384240771E+03  0.14182673718E+03  0.00000000000E+00 0.  1.
         -2    1    1    2    0  502  0.39339174426E+02  0.25562915159E+02 -0.25926664917E+02  0.53602474099E+02  0.00000000000E+00 0. -1.
<mgrwt>
<rscale>  2 0.46915171E+02</rscale>
<asrwt>0</asrwt>
<pdfrwt beam="1">  1       21 0.27430877E-02 0.46915171E+02</pdfrwt>
<pdfrwt beam="2">  1       21 0.27322944E-01 0.46915171E+02</pdfrwt>
<totfact> 0.84186396E+06</totfact>
</mgrwt>
</event>
<event>
 4    1  0.2754379E+004  0.2092615E+02  0.7546771E-02  0.1727514E+00
         21   -1    0    0  501  502  0.00000000000E+00  0.00000000000E+00  0.38440437884E+03  0.38440437884E+03  0.00000000000E+00 0.  1.
         21   -1    0    0  502  503 -0.00000000000E+00 -0.00000000000E+00 -0.13946156199E+01  0.13946156199E+01  0.00000000000E+00 0. -1.
          2    1    1    2  501    0 -0.20214335272E+02  0.54115058144E+01  0.27406096136E+03  0.27485871695E+03  0.00000000000E+00 0.  1.
         -2    1    1    2    0  503  0.20214335272E+02 -0.54115058144E+01  0.10894880187E+03  0.11094027751E+03  0.00000000000E+00 0. -1.
<mgrwt>
<rscale>  2 0.20926150E+02</rscale>
<asrwt>0</asrwt>
<pdfrwt beam="1">  1       21 0.59139051E-01 0.20926150E+02</pdfrwt>
<pdfrwt beam="2">  1       21 0.21455656E-03 0.20926150E+02</pdfrwt>
<totfact> 0.77638940E+07</totfact>
</mgrwt>
</event>
<event>
 4    1  0.2754379E+004  0.2630084E+02  0.7546771E-02  0.1642991E+00
         21   -1    0    0  501  502  0.00000000000E+00  0.00000000000E+00  0.90075549957E+03  0.90075549957E+03  0.00000000000E+00 0. -1.
         21   -1    0    0  502  503 -0.00000000000E+00 -0.00000000000E+00 -0.77919054874E+00  0.77919054874E+00  0.00000000000E+00 0.  1.
          2    1    1    2  501    0 -0.24233425051E+02  0.10221307818E+02  0.50413202523E+03  0.50481762339E+03  0.00000000000E+00 0. -1.
         -2    1    1    2    0  503  0.24233425051E+02 -0.10221307818E+02  0.39584428379E+03  0.39671706673E+03  0.00000000000E+00 0.  1.
<mgrwt>
<rscale>  2 0.26300837E+02</rscale>
<asrwt>0</asrwt>
<pdfrwt beam="1">  1       21 0.13857694E+00 0.26300837E+02</pdfrwt>
<pdfrwt beam="2">  1       21 0.11987619E-03 0.26300837E+02</pdfrwt>
<totfact> 0.30102269E+07</totfact>
</mgrwt>
</event>
<event>
 4    1  0.2754379E+004  0.2171200E+02  0.7546771E-02  0.1713281E+00
         21   -1    0    0  503  502  0.00000000000E+00  0.00000000000E+00  0.26012742774E+01  0.26012742774E+01  0.00000000000E+00 0. -1.
         21   -1    0    0  501  503 -0.00000000000E+00 -0.00000000000E+00 -0.18952780081E+03  0.18952780081E+03  0.00000000000E+00 0.  1.
          2    1    1    2  501    0 -0.75288322276E+01  0.20364863880E+02 -0.73354351930E+02  0.76500143415E+02  0.00000000000E+00 0.  1.
         -2    1    1    2    0  502  0.75288322276E+01 -0.20364863880E+02 -0.11357217461E+03  0.11562893167E+03  0.00000000000E+00 0. -1.
<mgrwt>
<rscale>  2 0.21712001E+02</rscale>
<asrwt>0</asrwt>
<pdfrwt beam="1">  1       21 0.40019608E-03 0.21712001E+02</pdfrwt>
<pdfrwt beam="2">  1       21 0.29158120E-01 0.21712001E+02</pdfrwt>
<totfact> 0.12070650E+08</totfact>
</mgrwt>
</event>
<event>
 4    1  0.2754379E+004  0.2496798E+02  0.7546771E-02  0.1661462E+00
         21   -1    0    0  503  502  0.00000000000E+00  0.00000000000E+00  0.19371075604E+03  0.19371075604E+03  0.00000000000E+00 0.  1.
         21   -1    0    0  501  503 -0.00000000000E+00 -0.00000000000E+00 -0.34639199360E+01  0.34639199360E+01  0.00000000000E+00 0. -1.
          2    1    1    2  501    0 -0.23823961129E+02  0.74712109577E+01  0.68865718461E+02  0.73252217006E+02  0.00000000000E+00 0.  1.
         -2    1    1    2    0  502  0.23823961129E+02 -0.74712109577E+01  0.12138111764E+03  0.12392245897E+03  0.00000000000E+00 0. -1.
<mgrwt>
<rscale>  2 0.24967982E+02</rscale>
<asrwt>0</asrwt>
<pdfrwt beam="1">  1       21 0.29801646E-01 0.24967982E+02</pdfrwt>
<pdfrwt beam="2">  1       21 0.53291091E-03 0.24967982E+02</pdfrwt>
<totfact> 0.78975280E+07</totfact>
</mgrwt>
</event>
<event>
 4    1  0.2754379E+004  0.3607721E+02  0.7546771E-02  0.1539238E+00
         21   -1    0    0  503  502  0.00000000000E+00  0.00000000000E+00  0.14861268454E+03  0.14861268454E+03  0.00000000000E+00 0.  1.
         21   -1    0    0  501  503 -0.00000000000E+00 -0.00000000000E+00 -0.12503386074E+02  0.12503386074E+02  0.00000000000E+00 0. -1.
          2    1    1    2  501    0 -0.59026611395E+01 -0.35591061092E+02  0.23964920008E+02  0.43311458405E+02  0.00000000000E+00 0. -1.
         -2    1    1    2    0  502  0.59026611395E+01  0.35591061092E+02  0.11214437845E+03  0.11780461220E+03  0.00000000000E+00 0.  1.
<mgrwt>
<rscale>  2 0.36077209E+02</rscale>
<asrwt>0</asrwt>
<pdfrwt beam="1">  1       21 0.22863489E-01 0.36077209E+02</pdfrwt>
<pdfrwt beam="2">  1       21 0.19235980E-02 0.36077209E+02</pdfrwt>
<totfact> 0.19638366E+07</totfact>
</mgrwt>
</event>
<event>
 4    1  0.2754379E+004  0.2457082E+02  0.7546771E-02  0.1667244E+00
         21   -1    0    0  501  502  0.00000000000E+00  0.00000000000E+00  0.55760295687E+00  0.55760295687E+00  0.00000000000E+00 0. -1.
         21   -1    0    0  502  503 -0.00000000000E+00 -0.00000000000E+00 -0.16885898492E+04  0.16885898492E+04  0.00000000000E+00 0.  1.
          2    1    1    2  501    0  0.12478513810E+02 -0.21166293945E+02 -0.33811365281E+03  0.33900526179E+03  0.00000000000E+00 0. -1.
         -2    1    1    2    0  503 -0.12478513810E+02  0.21166293945E+02 -0.13499185934E+04  0.13501421903E+04  0.00000000000E+00 0.  1.
<mgrwt>
<rscale>  2 0.24570822E+02</rscale>
<asrwt>0</asrwt>
<pdfrwt beam="1">  1       21 0.85785560E-04 0.24570822E+02</pdfrwt>
<pdfrwt beam="2">  1       21 0.25978157E+00 0.24570822E+02</pdfrwt>
<totfact> 0.95082142E+06</totfact>
</mgrwt>
</event>
<event>
 4    1  0.2754379E+004  0.2132074E+02  0.7546771E-02  0.1720271E+00
         21   -1    0    0  501  502  0.00000000000E+00  0.00000000000E+00  0.28318798890E+01  0.28318798890E+01  0.00000000000E+00 0.  1.
         21   -1    0    0  502  503 -0.00000000000E+00 -0.00000000000E+00 -0.26209936952E+03  0.26209936952E+03  0.00000000000E+00 0. -1.
          2    1    1    2  501    0 -0.21280613016E+02 -0.13075229255E+01 -0.47168225815E+02  0.51763072099E+02  0.00000000000E+00 0.  1.
         -2    1    1    2    0  503  0.21280613016E+02  0.13075229255E+01 -0.21209926381E+03  0.21316817731E+03  0.00000000000E+00 0. -1.
<mgrwt>
<rscale>  2 0.21320744E+02</rscale>
<asrwt>0</asrwt>
<pdfrwt beam="1">  1       21 0.43567374E-03 0.21320744E+02</pdfrwt>
<pdfrwt beam="2">  1       21 0.40322988E-01 0.21320744E+02</pdfrwt>
<totfact> 0.58361082E+07</totfact>
</mgrwt>
</event>
<event>
 4    1  0.2754379E+004  0.2056035E+02  0.7546771E-02  0.1734409E+00
         21   -1    0    0  503  502  0.00000000000E+00  0.00000000000E+00  0.64883562535E+00  0.64883562535E+00  0.00000000000E+00 0. -1.
         21   -1    0    0  501  503 -0.00000000000E+00 -0.00000000000E+00 -0.15585525310E+04  0.15585525310E+04  0.00000000000E+00 0.  1.
          2    1    1    2  501    0  0.11763787994E+02  0.16862423441E+02 -0.13736867420E+04  0.13738405996E+04  0.00000000000E+00 0.  1.
         -2    1    1    2    0  502 -0.11763787994E+02 -0.16862423441E+02 -0.18421695341E+03  0.18536076703E+03  0.00000000000E+00 0. -1.
<mgrwt>
<rscale>  2 0.20560351E+02</rscale>
<asrwt>0</asrwt>
<pdfrwt beam="1">  1       21 0.99820935E-04 0.20560351E+02</pdfrwt>
<pdfrwt beam="2">  1       21 0.23977715E+00 0.20560351E+02</pdfrwt>
<totfact> 0.95001206E+06</totfact>
</mgrwt>
</event>
<event>
 4    1  0.2754379E+004  0.2365787E+02  0.7546771E-02  0.1681063E+00
         21   -1    0    0  501  502  0.00000000000E+00  0.00000000000E+00  0.36786679471E+01  0.36786679471E+01  0.00000000000E+00 0.  1.
         21   -1    0    0  502  503 -0.00000000000E+00 -0.00000000000E+00 -0.16691720059E+03  0.16691720059E+03  0.00000000000E+00 0. -1.
          2    1    1    2  501    0  0.71836651567E+01 -0.22540842624E+02 -0.56244865596E+02  0.61017862443E+02  0.00000000000E+00 0. -1.
         -2    1    1    2    0  503 -0.71836651567E+01  0.22540842624E+02 -0.10699366705E+03  0.10957800610E+03  0.00000000000E+00 0.  1.
<mgrwt>
<rscale>  2 0.23657866E+02</rscale>
<asrwt>0</asrwt>
<pdfrwt beam="1">  1       21 0.56594899E-03 0.23657866E+02</pdfrwt>
<pdfrwt beam="2">  1       21 0.25679566E-01 0.23657866E+02</pdfrwt>
<totfact> 0.93243399E+07</totfact>
</mgrwt>
</event>
<event>
 4    1  0.2754379E+004  0.2710813E+02  0.7546771E-02  0.1632447E+00
         21   -1    0    0  503  502  0.00000000000E+00  0.00000000000E+00  0.98155362703E+01  0.98155362703E+01  0.00000000000E+00 0.  1.
         21   -1    0    0  501  503 -0.00000000000E+00 -0.00000000000E+00 -0.79242135445E+02  0.79242135445E+02  0.00000000000E+00 0. -1.
          2    1    1    2  501    0  0.87088581561E+01 -0.25671119518E+02 -0.45177483194E+02  0.52686388901E+02  0.00000000000E+00 0. -1.
         -2    1    1    2    0  502 -0.87088581561E+01  0.25671119518E+02 -0.24249115981E+02  0.36371282814E+02  0.00000000000E+00 0.  1.
<mgrwt>
<rscale>  2 0.27108128E+02</rscale>
<asrwt>0</asrwt>
<pdfrwt beam="1">  1       21 0.15100826E-02 0.27108128E+02</pdfrwt>
<pdfrwt beam="2">  1       21 0.12191097E-01 0.27108128E+02</pdfrwt>
<totfact> 0.80347367E+07</totfact>
</mgrwt>
</event>
<event>
 4    1  0.2754379E+004  0.2105156E+02  0.7546771E-02  0.1725190E+00
         21   -1    0    0  501  502  0.00000000000E+00  0.00000000000E+00  0.30819914288E+02  0.30819914288E+02  0.00000000000E+00 0. -1.
         21   -1    0    0  502  503 -0.00000000000E+00 -0.00000000000E+00 -0.21934167372E+02  0.21934167372E+02  0.00000000000E+00 0.  1.
          2    1    1    2  501    0  0.17353020841E+02  0.11918093206E+02  0.19923174360E+02  0.28984498522E+02  0.00000000000E+00 0.  1.
         -2    1    1    2    0  503 -0.17353020841E+02 -0.11918093206E+02 -0.11037427444E+02  0.23769583138E+02  0.00000000000E+00 0. -1.
<mgrwt>
<rscale>  2 0.21051562E+02</rscale>
<asrwt>0</asrwt>
<pdfrwt beam="1">  1       21 0.47415253E-02 0.21051562E+02</pdfrwt>
<pdfrwt beam="2">  1       21 0.33744873E-02 0.21051562E+02</pdfrwt>
<totfact> 0.10114232E+08</totfact>
</mgrwt>
</event>
<event>
 4    1  0.2754379E+004  0.2566970E+02  0.7546771E-02  0.1651565E+00
         21   -1    0    0  501  502  0.00000000000E+00  0.00000000000E+00  0.24367309088E+02  0.24367309088E+02  0.00000000000E+00 0. -1.
         21   -1    0    0  502  503 -0.00000000000E+00 -0.00000000000E+00 -0.50674378936E+02  0.50674378936E+02  0.00000000000E+00 0.  1.
          2    1    1    2  501    0  0.10857827740E+02 -0.23260294437E+02  0.12469747396E+02  0.28538190563E+02  0.00000000000E+00 0. -1.
         -2    1    1    2    0  503 -0.10857827740E+02  0.23260294437E+02 -0.38776817243E+02  0.46503497460E+02  0.00000000000E+00 0.  1.
<mgrwt>
<rscale>  2 0.25669704E+02</rscale>
<asrwt>0</asrwt>
<pdfrwt beam="1">  1       21 0.37488168E-02 0.25669704E+02</pdfrwt>
<pdfrwt beam="2">  1       21 0.77960582E-02 0.25669704E+02</pdfrwt>
<totfact> 0.40628164E+07</totfact>
</mgrwt>
</event>
<event>
 4    1  0.2754379E+004  0.2705021E+02  0.7546771E-02  0.1633188E+00
         21   -1    0    0  503  502  0.00000000000E+00  0.00000000000E+00  0.25545888881E+03  0.25545888881E+03  0.00000000000E+00 0.  1.
         21   -1    0    0  501  503 -0.00000000000E+00 -0.00000000000E+00 -0.13563138263E+02  0.13563138263E+02  0.00000000000E+00 0. -1.
          2    1    1    2  501    0 -0.19143968554E+02  0.19110796595E+02  0.14814664861E+01  0.27090751585E+02  0.00000000000E+00 0. -1.
         -2    1    1    2    0  502  0.19143968554E+02 -0.19110796595E+02  0.24041428406E+03  0.24193127549E+03  0.00000000000E+00 0.  1.
<mgrwt>
<rscale>  2 0.27050214E+02</rscale>
<asrwt>0</asrwt>
<pdfrwt beam="1">  1       21 0.39301364E-01 0.27050214E+02</pdfrwt>
<pdfrwt beam="2">  1       21 0.20866368E-02 0.27050214E+02</pdfrwt>
<totfact> 0.60965125E+06</totfact>
</mgrwt>
</event>
<event>
 4    1  0.2754379E+004  0.2226537E+02  0.7546771E-02  0.1703703E+00
         21   -1    0    0  503  502  0.00000000000E+00  0.00000000000E+00  0.19510488870E+02  0.19510488870E+02  0.00000000000E+00 0. -1.
         21   -1    0    0  501  503 -0.00000000000E+00 -0.00000000000E+00 -0.27106863010E+02  0.27106863010E+02  0.00000000000E+00 0.  1.
          2    1    1    2  501    0 -0.21554647785E+01 -0.22160792461E+02 -0.96312710406E+01  0.24259186564E+02  0.00000000000E+00 0.  1.
         -2    1    1    2    0  502  0.21554647785E+01  0.22160792461E+02  0.20348969007E+01  0.22358165316E+02  0.00000000000E+00 0. -1.
<mgrwt>
<rscale>  2 0.22265371E+02</rscale>
<asrwt>0</asrwt>
<pdfrwt beam="1">  1       21 0.30016137E-02 0.22265371E+02</pdfrwt>
<pdfrwt beam="2">  1       21 0.41702866E-02 0.22265371E+02</pdfrwt>
<totfact> 0.15118393E+08</totfact>
</mgrwt>
</event>
<event>
 4    1  0.2754379E+004  0.2269777E+02  0.7546771E-02  0.1696457E+00
         21   -1    0    0  501  502  0.00000000000E+00  0.00000000000E+00  0.21786429579E+01  0.21786429579E+01  0.00000000000E+00 0. -1.
         21   -1    0    0  502  503 -0.00000000000E+00 -0.00000000000E+00 -0.24175494958E+03  0.24175494958E+03  0.00000000000E+00 0.  1.
          2    1    1    2  501    0 -0.53372142421E+01  0.22061344743E+02 -0.10175887323E+03  0.10425956584E+03  0.00000000000E+00 0. -1.
         -2    1    1    2    0  503  0.53372142421E+01 -0.22061344743E+02 -0.13781743339E+03  0.13967402670E+03  0.00000000000E+00 0.  1.
<mgrwt>
<rscale>  2 0.22697771E+02</rscale>
<asrwt>0</asrwt>
<pdfrwt beam="1">  1       21 0.33517592E-03 0.22697771E+02</pdfrwt>
<pdfrwt beam="2">  1       21 0.37193060E-01 0.22697771E+02</pdfrwt>
<totfact> 0.10127736E+08</totfact>
</mgrwt>
</event>
<event>
 4    1  0.2754379E+004  0.2120227E+02  0.7546771E-02  0.1722425E+00
         21   -1    0    0  501  502  0.00000000000E+00  0.00000000000E+00  0.68004298636E+01  0.68004298636E+01  0.00000000000E+00 0.  1.
         21   -1    0    0  502  503 -0.00000000000E+00 -0.00000000000E+00 -0.89395836090E+02  0.89395836090E+02  0.00000000000E+00 0. -1.
          2    1    1    2  501    0  0.20933132581E+02 -0.33675140838E+01 -0.16746620501E+02  0.27018243632E+02  0.00000000000E+00 0.  1.
         -2    1    1    2    0  503 -0.20933132581E+02  0.33675140838E+01 -0.65848785725E+02  0.69178022321E+02  0.00000000000E+00 0. -1.
<mgrwt>
<rscale>  2 0.21202269E+02</rscale>
<asrwt>0</asrwt>
<pdfrwt beam="1">  1       21 0.10462201E-02 0.21202269E+02</pdfrwt>
<pdfrwt beam="2">  1       21 0.13753204E-01 0.21202269E+02</pdfrwt>
<totfact> 0.10693824E+08</totfact>
</mgrwt>
</event>
<event>
 4    1  0.2754379E+004  0.4793834E+02  0.7546771E-02  0.1456790E+00
         21   -1    0    0  503  502  0.00000000000E+00  0.00000000000E+00  0.12774991473E+03  0.12774991473E+03  0.00000000000E+00 0.  1.
         21   -1    0    0  501  503 -0.00000000000E+00 -0.00000000000E+00 -0.31874083520E+02  0.31874083520E+02  0.00000000000E+00 0. -1.
          2    1    1    2  501    0 -0.36318063191E+02  0.31290294006E+02 -0.47395274539E+01  0.48172059675E+02  0.00000000000E+00 0. -1.
         -2    1    1    2    0  502  0.36318063191E+02 -0.31290294006E+02  0.10061535866E+03  0.11145193857E+03  0.00000000000E+00 0.  1.
<mgrwt>
<rscale>  2 0.47938338E+02</rscale>
<asrwt>0</asrwt>
<pdfrwt beam="1">  1       21 0.19653833E-01 0.47938338E+02</pdfrwt>
<pdfrwt beam="2">  1       21 0.49037052E-02 0.47938338E+02</pdfrwt>
<totfact> 0.60308827E+06</totfact>
</mgrwt>
</event>
<event>
 4    1  0.2754379E+004  0.2654046E+02  0.7546771E-02  0.1639813E+00
         21   -1    0    0  503  502  0.00000000000E+00  0.00000000000E+00  0.27392312338E+03  0.27392312338E+03  0.00000000000E+00 0. -1.
         21   -1    0    0  501  503 -0.00000000000E+00 -0.00000000000E+00 -0.34192007354E+01  0.34192007354E+01  0.00000000000E+00 0.  1.
          2    1    1    2  501    0  0.25424647557E+02 -0.76146852071E+01  0.66205329765E+02  0.71327006270E+02  0.00000000000E+00 0.  1.
         -2    1    1    2    0  502 -0.25424647557E+02  0.76146852071E+01  0.20429859288E+03  0.20601531784E+03  0.00000000000E+00 0. -1.
<mgrwt>
<rscale>  2 0.26540462E+02</rscale>
<asrwt>0</asrwt>
<pdfrwt beam="1">  1       21 0.42142002E-01 0.26540462E+02</pdfrwt>
<pdfrwt beam="2">  1       21 0.52603110E-03 0.26540462E+02</pdfrwt>
<totfact> 0.42785578E+07</totfact>
</mgrwt>
</event>
<event>
 4    1  0.2754379E+004  0.2065870E+02  0.7546771E-02  0.1732538E+00
         21   -1    0    0  501  502  0.00000000000E+00  0.00000000000E+00  0.14313344078E+01  0.14313344078E+01  0.00000000000E+00 0.  1.
         21   -1    0    0  502  503 -0.00000000000E+00 -0.00000000000E+00 -0.31646139663E+03  0.31646139663E+03  0.00000000000E+00 0. -1.
          2    1    1    2  501    0  0.11384953224E+02 -0.17238469426E+02 -0.11930254384E+03  0.12107798707E+03  0.00000000000E+00 0.  1.
         -2    1    1    2    0  503 -0.11384953224E+02  0.17238469426E+02 -0.19572751838E+03  0.19681474396E+03  0.00000000000E+00 0. -1.
<mgrwt>
<rscale>  2 0.20658702E+02</rscale>
<asrwt>0</asrwt>
<pdfrwt beam="1">  1       21 0.22020542E-03 0.20658702E+02</pdfrwt>
<pdfrwt beam="2">  1       21 0.48686342E-01 0.20658702E+02</pdfrwt>
<totfact> 0.10902517E+08</totfact>
</mgrwt>
</event>
<event>
 4    1  0.2754379E+004  0.2757413E+02  0.7546771E-02  0.1626563E+00
         21   -1    0    0  503  502  0.00000000000E+00  0.00000000000E+00  0.11036253031E+02  0.11036253031E+02  0.00000000000E+00 0.  1.
         21   -1    0    0  501  503 -0.00000000000E+00 -0.00000000000E+00 -0.77111403273E+02  0.77111403273E+02  0.00000000000E+00 0. -1.
          2    1    1    2  501    0 -0.12941060267E+02 -0.24348745501E+02 -0.47425122905E+02  0.54858679631E+02  0.00000000000E+00 0. -1.
         -2    1    1    2    0  502  0.12941060267E+02  0.24348745501E+02 -0.18650027336E+02  0.33288976673E+02  0.00000000000E+00 0.  1.
<mgrwt>
<rscale>  2 0.27574126E+02</rscale>
<asrwt>0</asrwt>
<pdfrwt beam="1">  1       21 0.16978851E-02 0.27574126E+02</pdfrwt>
<pdfrwt beam="2">  1       21 0.11863293E-01 0.27574126E+02</pdfrwt>
<totfact> 0.70590032E+07</totfact>
</mgrwt>
</event>
<event>
 4    1  0.2754379E+004  0.2881876E+02  0.7546771E-02  0.1611525E+00
         21   -1    0    0  501  502  0.00000000000E+00  0.00000000000E+00  0.23187476467E+03  0.23187476467E+03  0.00000000000E+00 0. -1.
         21   -1    0    0  502  503 -0.00000000000E+00 -0.00000000000E+00 -0.48741397978E+01  0.48741397978E+01  0.00000000000E+00 0.  1.
          2    1    1    2  501    0 -0.14545988649E+02 -0.24878412304E+02  0.17445442851E+03  0.17681874564E+03  0.00000000000E+00 0.  1.
         -2    1    1    2    0  503  0.14545988649E+02  0.24878412304E+02  0.52546196368E+02  0.59930158829E+02  0.00000000000E+00 0. -1.
<mgrwt>
<rscale>  2 0.28818764E+02</rscale>
<asrwt>0</asrwt>
<pdfrwt beam="1">  1       21 0.35673032E-01 0.28818764E+02</pdfrwt>
<pdfrwt beam="2">  1       21 0.74986784E-03 0.28818764E+02</pdfrwt>
<totfact> 0.35143557E+07</totfact>
</mgrwt>
</event>
<event>
 4    1  0.2754379E+004  0.3636564E+02  0.7546771E-02  0.1536797E+00
         21   -1    0    0  503  502  0.00000000000E+00  0.00000000000E+00  0.64262469745E+03  0.64262469745E+03  0.00000000000E+00 0.  1.
         21   -1    0    0  501  503 -0.00000000000E+00 -0.00000000000E+00 -0.21223577741E+01  0.21223577741E+01  0.00000000000E+00 0. -1.
          2    1    1    2  501    0 -0.16019258998E+02  0.32647254913E+02  0.26407212235E+03  0.26656433691E+03  0.00000000000E+00 0. -1.
         -2    1    1    2    0  502  0.16019258998E+02 -0.32647254913E+02  0.37643021733E+03  0.37818271831E+03  0.00000000000E+00 0.  1.
<mgrwt>
<rscale>  2 0.36365642E+02</rscale>
<asrwt>0</asrwt>
<pdfrwt beam="1">  1       21 0.98865183E-01 0.36365642E+02</pdfrwt>
<pdfrwt beam="2">  1       21 0.32651709E-03 0.36365642E+02</pdfrwt>
<totfact> 0.15897319E+07</totfact>
</mgrwt>
</event>
<event>
 4    1  0.2754379E+004  0.8896020E+02  0.7546771E-02  0.1305389E+00
         21   -1    0    0  501  502  0.00000000000E+00  0.00000000000E+00  0.10220225723E+03  0.10220225723E+03  0.00000000000E+00 0.  1.
         21   -1    0    0  502  503 -0.00000000000E+00 -0.00000000000E+00 -0.17994680480E+03  0.17994680480E+03  0.00000000000E+00 0. -1.
          2    1    1    2  501    0  0.22800012581E+02  0.85988818601E+02  0.67607189659E+02  0.11173472867E+03  0.00000000000E+00 0.  1.
         -2    1    1    2    0  503 -0.22800012581E+02 -0.85988818601E+02 -0.14535173723E+03  0.17041433336E+03  0.00000000000E+00 0. -1.
<mgrwt>
<rscale>  2 0.88960202E+02</rscale>
<asrwt>0</asrwt>
<pdfrwt beam="1">  1       21 0.15723424E-01 0.88960202E+02</pdfrwt>
<pdfrwt beam="2">  1       21 0.27684124E-01 0.88960202E+02</pdfrwt>
<totfact> 0.45370048E+05</totfact>
</mgrwt>
</event>
<event>
 4    1  0.2754379E+004  0.2324721E+02  0.7546771E-02  0.1687534E+00
         21   -1    0    0  503  502  0.00000000000E+00  0.00000000000E+00  0.41210111691E+03  0.41210111691E+03  0.00000000000E+00 0.  1.
         21   -1    0    0  501  503 -0.00000000000E+00 -0.00000000000E+00 -0.55539179778E+01  0.55539179778E+01  0.00000000000E+00 0. -1.
          2    1    1    2  501    0 -0.35491025282E+01 -0.22974699600E+02  0.20758247595E+02  0.31166292589E+02  0.00000000000E+00 0. -1.
         -2    1    1    2    0  502  0.35491025282E+01  0.22974699600E+02  0.38578895134E+03  0.38648874230E+03  0.00000000000E+00 0.  1.
<mgrwt>
<rscale>  2 0.23247214E+02</rscale>
<asrwt>0</asrwt>
<pdfrwt beam="1">  1       21 0.63400148E-01 0.23247214E+02</pdfrwt>
<pdfrwt beam="2">  1       21 0.85444924E-03 0.23247214E+02</pdfrwt>
<totfact> 0.90892694E+06</totfact>
</mgrwt>
</event>
<event>
 4    1  0.2754379E+004  0.3962058E+02  0.7546771E-02  0.1511022E+00
         21   -1    0    0  501  502  0.00000000000E+00  0.00000000000E+00  0.33431825633E+01  0.33431825633E+01  0.00000000000E+00 0. -1.
         21   -1    0    0  502  503 -0.00000000000E+00 -0.00000000000E+00 -0.13948812183E+04  0.13948812183E+04  0.00000000000E+00 0.  1.
          2    1    1    2  501    0  0.36128364147E+02  0.16264435914E+02 -0.12635660366E+03  0.13242273921E+03  0.00000000000E+00 0. -1.
         -2    1    1    2    0  503 -0.36128364147E+02 -0.16264435914E+02 -0.12651814320E+04  0.12658016616E+04  0.00000000000E+00 0.  1.
<mgrwt>
<rscale>  2 0.39620583E+02</rscale>
<asrwt>0</asrwt>
<pdfrwt beam="1">  1       21 0.51433505E-03 0.39620583E+02</pdfrwt>
<pdfrwt beam="2">  1       21 0.21459741E+00 0.39620583E+02</pdfrwt>
<totfact> 0.12180565E+06</totfact>
</mgrwt>
</event>
<event>
 4    1  0.2754379E+004  0.2097890E+02  0.7546771E-02  0.1726534E+00
         21   -1    0    0  501  502  0.00000000000E+00  0.00000000000E+00  0.56524433717E+03  0.56524433717E+03  0.00000000000E+00 0.  1.
         21   -1    0    0  502  503 -0.00000000000E+00 -0.00000000000E+00 -0.79959504609E+00  0.79959504609E+00  0.00000000000E+00 0. -1.
          2    1    1    2  501    0  0.13014226685E+02  0.16454310681E+02  0.32805399994E+03  0.32872411124E+03  0.00000000000E+00 0. -1.
         -2    1    1    2    0  503 -0.13014226685E+02 -0.16454310681E+02  0.23639074219E+03  0.23731982098E+03  0.00000000000E+00 0.  1.
<mgrwt>
<rscale>  2 0.20978905E+02</rscale>
<asrwt>0</asrwt>
<pdfrwt beam="1">  1       21 0.86960348E-01 0.20978905E+02</pdfrwt>
<pdfrwt beam="2">  1       21 0.12301507E-03 0.20978905E+02</pdfrwt>
<totfact> 0.78184140E+07</totfact>
</mgrwt>
</event>
<event>
 4    1  0.2754379E+004  0.2010110E+02  0.7546771E-02  0.1743325E+00
         21   -1    0    0  503  502  0.00000000000E+00  0.00000000000E+00  0.33018272245E+02  0.33018272245E+02  0.00000000000E+00 0.  1.
         21   -1    0    0  501  503 -0.00000000000E+00 -0.00000000000E+00 -0.12289248535E+02  0.12289248535E+02  0.00000000000E+00 0. -1.
          2    1    1    2  501    0 -0.27467199584E+01 -0.19912555380E+02  0.88915690038E+01  0.21979861956E+02  0.00000000000E+00 0. -1.
         -2    1    1    2    0  502  0.27467199584E+01  0.19912555380E+02  0.11837454706E+02  0.23327658824E+02  0.00000000000E+00 0.  1.
<mgrwt>
<rscale>  2 0.20101103E+02</rscale>
<asrwt>0</asrwt>
<pdfrwt beam="1">  1       21 0.50797341E-02 0.20101103E+02</pdfrwt>
<pdfrwt beam="2">  1       21 0.18906536E-02 0.20101103E+02</pdfrwt>
<totfact> 0.21822595E+08</totfact>
</mgrwt>
</event>
<event>
 4    1  0.2754379E+004  0.2139564E+02  0.7546771E-02  0.1718919E+00
         21   -1    0    0  501  502  0.00000000000E+00  0.00000000000E+00  0.54865244936E+02  0.54865244936E+02  0.00000000000E+00 0. -1.
         21   -1    0    0  502  503 -0.00000000000E+00 -0.00000000000E+00 -0.99397458890E+01  0.99397458890E+01  0.00000000000E+00 0.  1.
          2    1    1    2  501    0 -0.19370819484E+02 -0.90854204047E+01  0.35447316516E+02  0.41403934108E+02  0.00000000000E+00 0. -1.
         -2    1    1    2    0  503  0.19370819484E+02  0.90854204047E+01  0.94781825308E+01  0.23401056717E+02  0.00000000000E+00 0.  1.
<mgrwt>
<rscale>  2 0.21395642E+02</rscale>
<asrwt>0</asrwt>
<pdfrwt beam="1">  1       21 0.84408068E-02 0.21395642E+02</pdfrwt>
<pdfrwt beam="2">  1       21 0.15291917E-02 0.21395642E+02</pdfrwt>
<totfact> 0.13586991E+08</totfact>
</mgrwt>
</event>
<event>
 4    1  0.2754379E+004  0.2310803E+02  0.7546771E-02  0.1689765E+00
         21   -1    0    0  501  502  0.00000000000E+00  0.00000000000E+00  0.43188320812E+01  0.43188320812E+01  0.00000000000E+00 0.  1.
         21   -1    0    0  502  503 -0.00000000000E+00 -0.00000000000E+00 -0.17357656623E+03  0.17357656623E+03  0.00000000000E+00 0. -1.
          2    1    1    2  501    0  0.22182878362E+02  0.64731031047E+01 -0.36920149014E+02  0.43555465322E+02  0.00000000000E+00 0.  1.
         -2    1    1    2    0  503 -0.22182878362E+02 -0.64731031047E+01 -0.13233758514E+03  0.13433993299E+03  0.00000000000E+00 0. -1.
<mgrwt>
<rscale>  2 0.23108032E+02</rscale>
<asrwt>0</asrwt>
<pdfrwt beam="1">  1       21 0.66443571E-03 0.23108032E+02</pdfrwt>
<pdfrwt beam="2">  1       21 0.26704087E-01 0.23108032E+02</pdfrwt>
<totfact> 0.68097058E+07</totfact>
</mgrwt>
</event>
<event>
 4    1  0.2754379E+004  0.2040495E+02  0.7546771E-02  0.1737393E+00
         21   -1    0    0  503  502  0.00000000000E+00  0.00000000000E+00  0.24384596421E+03  0.24384596421E+03  0.00000000000E+00 0.  1.
         21   -1    0    0  501  503 -0.00000000000E+00 -0.00000000000E+00 -0.12171713951E+02  0.12171713951E+02  0.00000000000E+00 0. -1.
          2    1    1    2  501    0 -0.17481618216E+02  0.10524024226E+02 -0.28538818661E+01  0.20603560446E+02  0.00000000000E+00 0. -1.
         -2    1    1    2    0  502  0.17481618216E+02 -0.10524024226E+02  0.23452813213E+03  0.23541411772E+03  0.00000000000E+00 0.  1.
<mgrwt>
<rscale>  2 0.20404952E+02</rscale>
<asrwt>0</asrwt>
<pdfrwt beam="1">  1       21 0.37514760E-01 0.20404952E+02</pdfrwt>
<pdfrwt beam="2">  1       21 0.18725716E-02 0.20404952E+02</pdfrwt>
<totfact> 0.74972755E+06</totfact>
</mgrwt>
</event>
<event>
 4    1  0.2754379E+004  0.2064391E+02  0.7546771E-02  0.1732818E+00
         21   -1    0    0  503  502  0.00000000000E+00  0.00000000000E+00  0.85992570883E+02  0.85992570883E+02  0.00000000000E+00 0. -1.
         21   -1    0    0  501  503 -0.00000000000E+00 -0.00000000000E+00 -0.56111142905E+01  0.56111142905E+01  0.00000000000E+00 0.  1.
          2    1    1    2  501    0 -0.14881396979E+02  0.14307867047E+02  0.24539503637E+02  0.32068025730E+02  0.00000000000E+00 0. -1.
         -2    1    1    2    0  502  0.14881396979E+02 -0.14307867047E+02  0.55841952956E+02  0.59535659444E+02  0.00000000000E+00 0.  1.
<mgrwt>
<rscale>  2 0.20643910E+02</rscale>
<asrwt>0</asrwt>
<pdfrwt beam="1">  1       21 0.13229625E-01 0.20643910E+02</pdfrwt>
<pdfrwt beam="2">  1       21 0.86324842E-03 0.20643910E+02</pdfrwt>
<totfact> 0.15095138E+08</totfact>
</mgrwt>
</event>
<event>
 4    1  0.2754379E+004  0.2313686E+02  0.7546771E-02  0.1689301E+00
         21   -1    0    0  503  502  0.00000000000E+00  0.00000000000E+00  0.13228736566E+02  0.13228736566E+02  0.00000000000E+00 0. -1.
         21   -1    0    0  501  503 -0.00000000000E+00 -0.00000000000E+00 -0.42626111969E+02  0.42626111969E+02  0.00000000000E+00 0.  1.
          2    1    1    2  501    0  0.28724968421E+01 -0.22957855095E+02 -0.20985477120E+02  0.31236270563E+02  0.00000000000E+00 0. -1.
         -2    1    1    2    0  502 -0.28724968421E+01  0.22957855095E+02 -0.84118982820E+01  0.24618577973E+02  0.00000000000E+00 0.  1.
<mgrwt>
<rscale>  2 0.23136861E+02</rscale>
<asrwt>0</asrwt>
<pdfrwt beam="1">  1       21 0.20351902E-02 0.23136861E+02</pdfrwt>
<pdfrwt beam="2">  1       21 0.65578634E-02 0.23136861E+02</pdfrwt>
<totfact> 0.13544899E+08</totfact>
</mgrwt>
</event>
<event>
 4    1  0.2754379E+004  0.2238069E+02  0.7546771E-02  0.1701750E+00
         21   -1    0    0  503  502  0.00000000000E+00  0.00000000000E+00  0.67248786083E+02  0.67248786083E+02  0.00000000000E+00 0. -1.
         21   -1    0    0  501  503 -0.00000000000E+00 -0.00000000000E+00 -0.74823998400E+01  0.74823998400E+01  0.00000000000E+00 0.  1.
          2    1    1    2  501    0 -0.21849545433E+02 -0.48469356501E+01  0.27364174369E+02  0.35351003659E+02  0.00000000000E+00 0.  1.
         -2    1    1    2    0  502  0.21849545433E+02  0.48469356501E+01  0.32402211875E+02  0.39380182264E+02  0.00000000000E+00 0. -1.
<mgrwt>
<rscale>  2 0.22380693E+02</rscale>
<asrwt>0</asrwt>
<pdfrwt beam="1">  1       21 0.10345967E-01 0.22380693E+02</pdfrwt>
<pdfrwt beam="2">  1       21 0.11511385E-02 0.22380693E+02</pdfrwt>
<totfact> 0.15141627E+08</totfact>
</mgrwt>
</event>
<event>
 4    1  0.2754379E+004  0.3591061E+02  0.7546771E-02  0.1540660E+00
         21   -1    0    0  503  502  0.00000000000E+00  0.00000000000E+00  0.80534004005E+01  0.80534004005E+01  0.00000000000E+00 0. -1.
         21   -1    0    0  501  503 -0.00000000000E+00 -0.00000000000E+00 -0.17435409471E+03  0.17435409471E+03  0.00000000000E+00 0.  1.
          2    1    1    2  501    0 -0.10943013059E+02 -0.34202665596E+02 -0.57098099374E+02  0.67451944529E+02  0.00000000000E+00 0. -1.
         -2    1    1    2    0  502  0.10943013059E+02  0.34202665596E+02 -0.10920259494E+03  0.11495555058E+03  0.00000000000E+00 0.  1.
<mgrwt>
<rscale>  2 0.35910609E+02</rscale>
<asrwt>0</asrwt>
<pdfrwt beam="1">  1       21 0.12389846E-02 0.35910609E+02</pdfrwt>
<pdfrwt beam="2">  1       21 0.26823708E-01 0.35910609E+02</pdfrwt>
<totfact> 0.28979855E+07</totfact>
</mgrwt>
</event>
<event>
 4    1  0.2754379E+004  0.2269820E+02  0.7546771E-02  0.1696449E+00
         21   -1    0    0  503  502  0.00000000000E+00  0.00000000000E+00  0.37426420738E+02  0.37426420738E+02  0.00000000000E+00 0.  1.
         21   -1    0    0  501  503 -0.00000000000E+00 -0.00000000000E+00 -0.16044017060E+02  0.16044017060E+02  0.00000000000E+00 0. -1.
          2    1    1    2  501    0 -0.22667420396E+02 -0.11816816176E+01  0.61689154947E+00  0.22706582174E+02  0.00000000000E+00 0. -1.
         -2    1    1    2    0  502  0.22667420396E+02  0.11816816176E+01  0.20765512129E+02  0.30763855623E+02  0.00000000000E+00 0.  1.
<mgrwt>
<rscale>  2 0.22698201E+02</rscale>
<asrwt>0</asrwt>
<pdfrwt beam="1">  1       21 0.57579109E-02 0.22698201E+02</pdfrwt>
<pdfrwt beam="2">  1       21 0.24683103E-02 0.22698201E+02</pdfrwt>
<totfact> 0.12333334E+08</totfact>
</mgrwt>
</event>
<event>
 4    1  0.2754379E+004  0.2658457E+02  0.7546771E-02  0.1639233E+00
         21   -1    0    0  503  502  0.00000000000E+00  0.00000000000E+00  0.31136162957E+01  0.31136162957E+01  0.00000000000E+00 0.  1.
         21   -1    0    0  501  503 -0.00000000000E+00 -0.00000000000E+00 -0.27891582844E+03  0.27891582844E+03  0.00000000000E+00 0. -1.
          2    1    1    2  501    0  0.35149832764E+01 -0.26351176165E+02 -0.19874915846E+03  0.20051924492E+03  0.00000000000E+00 0. -1.
         -2    1    1    2    0  502 -0.35149832764E+01  0.26351176165E+02 -0.77053053686E+02  0.81510199823E+02  0.00000000000E+00 0.  1.
<mgrwt>
<rscale>  2 0.26584574E+02</rscale>
<asrwt>0</asrwt>
<pdfrwt beam="1">  1       21 0.47901785E-03 0.26584574E+02</pdfrwt>
<pdfrwt beam="2">  1       21 0.42910131E-01 0.26584574E+02</pdfrwt>
<totfact> 0.47502849E+07</totfact>
</mgrwt>
</event>
<event>
 4    1  0.2754379E+004  0.2211386E+02  0.7546771E-02  0.1706290E+00
         21   -1    0    0  501  502  0.00000000000E+00  0.00000000000E+00  0.67531602495E+02  0.67531602495E+02  0.00000000000E+00 0.  1.
         21   -1    0    0  502  503 -0.00000000000E+00 -0.00000000000E+00 -0.72542731876E+01  0.72542731876E+01  0.00000000000E+00 0. -1.
          2    1    1    2  501    0  0.12159982777E+02  0.18470448163E+02  0.31714507529E+02  0.38663065376E+02  0.00000000000E+00 0. -1.
         -2    1    1    2    0  503 -0.12159982777E+02 -0.18470448163E+02  0.28562821778E+02  0.36122810306E+02  0.00000000000E+00 0.  1.
<mgrwt>
<rscale>  2 0.22113856E+02</rscale>
<asrwt>0</asrwt>
<pdfrwt beam="1">  1       21 0.10389477E-01 0.22113856E+02</pdfrwt>
<pdfrwt beam="2">  1       21 0.11160421E-02 0.22113856E+02</pdfrwt>
<totfact> 0.15697279E+08</totfact>
</mgrwt>
</event>
<event>
 4    1  0.2754379E+004  0.2110946E+02  0.7546771E-02  0.1724125E+00
         21   -1    0    0  503  502  0.00000000000E+00  0.00000000000E+00  0.21069780470E+02  0.21069780470E+02  0.00000000000E+00 0.  1.
         21   -1    0    0  501  503 -0.00000000000E+00 -0.00000000000E+00 -0.16490010525E+03  0.16490010525E+03  0.00000000000E+00 0. -1.
          2    1    1    2  501    0 -0.44658841696E+01  0.20631652289E+02 -0.15873269567E+03  0.16013019038E+03  0.00000000000E+00 0. -1.
         -2    1    1    2    0  502  0.44658841696E+01 -0.20631652289E+02  0.14902370882E+02  0.25839695344E+02  0.00000000000E+00 0.  1.
<mgrwt>
<rscale>  2 0.21109458E+02</rscale>
<asrwt>0</asrwt>
<pdfrwt beam="1">  1       21 0.32415047E-02 0.21109458E+02</pdfrwt>
<pdfrwt beam="2">  1       21 0.25369247E-01 0.21109458E+02</pdfrwt>
<totfact> 0.65964856E+06</totfact>
</mgrwt>
</event>
<event>
 4    1  0.2754379E+004  0.2397738E+02  0.7546771E-02  0.1676140E+00
         21   -1    0    0  501  502  0.00000000000E+00  0.00000000000E+00  0.56517692960E+02  0.56517692960E+02  0.00000000000E+00 0. -1.
         21   -1    0    0  502  503 -0.00000000000E+00 -0.00000000000E+00 -0.12442003019E+02  0.12442003019E+02  0.00000000000E+00 0.  1.
          2    1    1    2  501    0  0.87594186069E+00  0.23961378496E+02  0.36764519872E+02  0.43892423663E+02  0.00000000000E+00 0. -1.
         -2    1    1    2    0  503 -0.87594186069E+00 -0.23961378496E+02  0.73111700687E+01  0.25067272316E+02  0.00000000000E+00 0.  1.
<mgrwt>
<rscale>  2 0.23977384E+02</rscale>
<asrwt>0</asrwt>
<pdfrwt beam="1">  1       21 0.86950296E-02 0.23977384E+02</pdfrwt>
<pdfrwt beam="2">  1       21 0.19141543E-02 0.23977384E+02</pdfrwt>
<totfact> 0.94995023E+07</totfact>
</mgrwt>
</event>
<event>
 4    1  0.2754379E+004  0.2225748E+02  0.7546771E-02  0.1703837E+00
         21   -1    0    0  503  502  0.00000000000E+00  0.00000000000E+00  0.94604027794E+02  0.94604027794E+02  0.00000000000E+00 0.  1.
         21   -1    0    0  501  503 -0.00000000000E+00 -0.00000000000E+00 -0.15688064802E+02  0.15688064802E+02  0.00000000000E+00 0. -1.
          2    1    1    2  501    0  0.20116342352E+02 -0.95251416599E+01 -0.55531582093E+01  0.22939771563E+02  0.00000000000E+00 0. -1.
         -2    1    1    2    0  502 -0.20116342352E+02  0.95251416599E+01  0.84469121202E+02  0.87352321033E+02  0.00000000000E+00 0.  1.
<mgrwt>
<rscale>  2 0.22257483E+02</rscale>
<asrwt>0</asrwt>
<pdfrwt beam="1">  1       21 0.14554465E-01 0.22257483E+02</pdfrwt>
<pdfrwt beam="2">  1       21 0.24135485E-02 0.22257483E+02</pdfrwt>
<totfact> 0.27621658E+07</totfact>
</mgrwt>
</event>
<event>
 4    1  0.2754379E+004  0.3087633E+02  0.7546771E-02  0.1588599E+00
         21   -1    0    0  501  502  0.00000000000E+00  0.00000000000E+00  0.30977729620E+03  0.30977729620E+03  0.00000000000E+00 0.  1.
         21   -1    0    0  502  503 -0.00000000000E+00 -0.00000000000E+00 -0.59100811106E+01  0.59100811106E+01  0.00000000000E+00 0. -1.
          2    1    1    2  501    0  0.29997490703E+02 -0.73142718046E+01  0.26120830217E+03  0.26302685251E+03  0.00000000000E+00 0.  1.
         -2    1    1    2    0  503 -0.29997490703E+02  0.73142718046E+01  0.42658912921E+02  0.52660524799E+02  0.00000000000E+00 0. -1.
<mgrwt>
<rscale>  2 0.30876334E+02</rscale>
<asrwt>0</asrwt>
<pdfrwt beam="1">  1       21 0.47658033E-01 0.30876334E+02</pdfrwt>
<pdfrwt beam="2">  1       21 0.90924349E-03 0.30876334E+02</pdfrwt>
<totfact> 0.15291344E+07</totfact>
</mgrwt>
</event>
<event>
 4    1  0.2754379E+004  0.2696941E+02  0.7546771E-02  0.1634226E+00
         21   -1    0    0  501  502  0.00000000000E+00  0.00000000000E+00  0.92545044304E+02  0.92545044304E+02  0.00000000000E+00 0.  1.
         21   -1    0    0  502  503 -0.00000000000E+00 -0.00000000000E+00 -0.49118144354E+02  0.49118144354E+02  0.00000000000E+00 0. -1.
          2    1    1    2  501    0 -0.99536568114E+01 -0.25065391150E+02  0.86631282508E+02  0.90732178561E+02  0.00000000000E+00 0.  1.
         -2    1    1    2    0  503  0.99536568114E+01  0.25065391150E+02 -0.43204382558E+02  0.50931010098E+02  0.00000000000E+00 0. -1.
<mgrwt>
<rscale>  2 0.26969411E+02</rscale>
<asrwt>0</asrwt>
<pdfrwt beam="1">  1       21 0.14237699E-01 0.26969411E+02</pdfrwt>
<pdfrwt beam="2">  1       21 0.75566376E-02 0.26969411E+02</pdfrwt>
<totfact> 0.48664622E+06</totfact>
</mgrwt>
</event>
<event>
 4    1  0.2754379E+004  0.2061254E+02  0.7546771E-02  0.1733414E+00
         21   -1    0    0  501  502  0.00000000000E+00  0.00000000000E+00  0.96725635465E+03  0.96725635465E+03  0.00000000000E+00 0. -1.
         21   -1    0    0  502  503 -0.00000000000E+00 -0.00000000000E+00 -0.44796317086E+00  0.44796317086E+00  0.00000000000E+00 0.  1.
          2    1    1    2  501    0  0.16271494182E+02  0.12653658679E+02  0.41596051596E+03  0.41647092028E+03  0.00000000000E+00 0.  1.
         -2    1    1    2    0  503 -0.16271494182E+02 -0.12653658679E+02  0.55084787551E+03  0.55123339754E+03  0.00000000000E+00 0. -1.
<mgrwt>
<rscale>  2 0.20612535E+02</rscale>
<asrwt>0</asrwt>
<pdfrwt beam="1">  1       21 0.14880700E+00 0.20612535E+02</pdfrwt>
<pdfrwt beam="2">  1       21 0.68918185E-04 0.20612535E+02</pdfrwt>
<totfact> 0.53363036E+07</totfact>
</mgrwt>
</event>
<event>
 4    1  0.2754379E+004  0.3448789E+02  0.7546771E-02  0.1553196E+00
         21   -1    0    0  503  502  0.00000000000E+00  0.00000000000E+00  0.26995853864E+02  0.26995853864E+02  0.00000000000E+00 0.  1.
         21   -1    0    0  501  503 -0.00000000000E+00 -0.00000000000E+00 -0.44485216614E+02  0.44485216614E+02  0.00000000000E+00 0. -1.
          2    1    1    2  501    0  0.25822727232E+02 -0.22860470699E+02 -0.12242458922E+02  0.36596340838E+02  0.00000000000E+00 0.  1.
         -2    1    1    2    0  502 -0.25822727232E+02  0.22860470699E+02 -0.52469038284E+01  0.34884729640E+02  0.00000000000E+00 0. -1.
<mgrwt>
<rscale>  2 0.34487887E+02</rscale>
<asrwt>0</asrwt>
<pdfrwt beam="1">  1       21 0.41532083E-02 0.34487887E+02</pdfrwt>
<pdfrwt beam="2">  1       21 0.68438795E-02 0.34487887E+02</pdfrwt>
<totfact> 0.45592407E+07</totfact>
</mgrwt>
</event>
<event>
 4    1  0.2754379E+004  0.2287448E+02  0.7546771E-02  0.1693553E+00
         21   -1    0    0  501  502  0.00000000000E+00  0.00000000000E+00  0.93336032630E+00  0.93336032630E+00  0.00000000000E+00 0.  1.
         21   -1    0    0  502  503 -0.00000000000E+00 -0.00000000000E+00 -0.63126805485E+03  0.63126805485E+03  0.00000000000E+00 0. -1.
          2    1    1    2  501    0  0.10938424910E+02  0.20089616919E+02 -0.20940527037E+03  0.21065091764E+03  0.00000000000E+00 0.  1.
         -2    1    1    2    0  503 -0.10938424910E+02 -0.20089616919E+02 -0.42092942415E+03  0.42155049753E+03  0.00000000000E+00 0. -1.
<mgrwt>
<rscale>  2 0.22874480E+02</rscale>
<asrwt>0</asrwt>
<pdfrwt beam="1">  1       21 0.14359421E-03 0.22874480E+02</pdfrwt>
<pdfrwt beam="2">  1       21 0.97117950E-01 0.22874480E+02</pdfrwt>
<totfact> 0.50464994E+07</totfact>
</mgrwt>
</event>
<event>
 4    1  0.2754379E+004  0.2950318E+02  0.7546771E-02  0.1603646E+00
         21   -1    0    0  501  502  0.00000000000E+00  0.00000000000E+00  0.63150289613E+01  0.63150289613E+01  0.00000000000E+00 0.  1.
         21   -1    0    0  502  503 -0.00000000000E+00 -0.00000000000E+00 -0.27867858877E+03  0.27867858877E+03  0.00000000000E+00 0. -1.
          2    1    1    2  501    0  0.19647120039E+02  0.22009727973E+02 -0.34879189248E+02  0.45683643614E+02  0.00000000000E+00 0.  1.
         -2    1    1    2    0  503 -0.19647120039E+02 -0.22009727973E+02 -0.23748437056E+03  0.23930997411E+03  0.00000000000E+00 0. -1.
<mgrwt>
<rscale>  2 0.29503177E+02</rscale>
<asrwt>0</asrwt>
<pdfrwt beam="1">  1       21 0.97154291E-03 0.29503177E+02</pdfrwt>
<pdfrwt beam="2">  1       21 0.42873629E-01 0.29503177E+02</pdfrwt>
<totfact> 0.16854450E+07</totfact>
</mgrwt>
</event>
<event>
 4    1  0.2754379E+004  0.3488048E+02  0.7546771E-02  0.1549664E+00
         21   -1    0    0  501  502  0.00000000000E+00  0.00000000000E+00  0.61759199785E+02  0.61759199785E+02  0.00000000000E+00 0.  1.
         21   -1    0    0  502  503 -0.00000000000E+00 -0.00000000000E+00 -0.12788667297E+03  0.12788667297E+03  0.00000000000E+00 0. -1.
          2    1    1    2  501    0  0.27145980523E+02  0.21903049583E+02  0.54150605882E+02  0.64412234529E+02  0.00000000000E+00 0.  1.
         -2    1    1    2    0  503 -0.27145980523E+02 -0.21903049583E+02 -0.12027807907E+03  0.12523363823E+03  0.00000000000E+00 0. -1.
<mgrwt>
<rscale>  2 0.34880479E+02</rscale>
<asrwt>0</asrwt>
<pdfrwt beam="1">  1       21 0.95014155E-02 0.34880479E+02</pdfrwt>
<pdfrwt beam="2">  1       21 0.19674873E-01 0.34880479E+02</pdfrwt>
<totfact> 0.19562999E+06</totfact>
</mgrwt>
</event>
<event>
 4    1  0.2754379E+004  0.2023669E+02  0.7546771E-02  0.1740662E+00
         21   -1    0    0  503  502  0.00000000000E+00  0.00000000000E+00  0.12539707701E+04  0.12539707701E+04  0.00000000000E+00 0.  1.
         21   -1    0    0  501  503 -0.00000000000E+00 -0.00000000000E+00 -0.34474084075E+00  0.34474084075E+00  0.00000000000E+00 0. -1.
          2    1    1    2  501    0  0.24021232842E+01 -0.20093615121E+02  0.48287307129E+03  0.48329693413E+03  0.00000000000E+00 0.  1.
         -2    1    1    2    0  502 -0.24021232842E+01  0.20093615121E+02  0.77075295795E+03  0.77101857679E+03  0.00000000000E+00 0. -1.
<mgrwt>
<rscale>  2 0.20236689E+02</rscale>
<asrwt>0</asrwt>
<pdfrwt beam="1">  1       21 0.19291493E+00 0.20236689E+02</pdfrwt>
<pdfrwt beam="2">  1       21 0.53038056E-04 0.20236689E+02</pdfrwt>
<totfact> 0.40914275E+07</totfact>
</mgrwt>
</event>
<event>
 4    1  0.2754379E+004  0.2441434E+02  0.7546771E-02  0.1669559E+00
         21   -1    0    0  501  502  0.00000000000E+00  0.00000000000E+00  0.45642140341E+02  0.45642140341E+02  0.00000000000E+00 0.  1.
         21   -1    0    0  502  503 -0.00000000000E+00 -0.00000000000E+00 -0.12580474002E+03  0.12580474002E+03  0.00000000000E+00 0. -1.
          2    1    1    2  501    0 -0.26001430006E+01  0.24275484759E+02  0.41070909906E+02  0.47779488741E+02  0.00000000000E+00 0.  1.
         -2    1    1    2    0  503  0.26001430006E+01 -0.24275484759E+02 -0.12123350958E+03  0.12366739162E+03  0.00000000000E+00 0. -1.
<mgrwt>
<rscale>  2 0.24414338E+02</rscale>
<asrwt>0</asrwt>
<pdfrwt beam="1">  1       21 0.70218678E-02 0.24414338E+02</pdfrwt>
<pdfrwt beam="2">  1       21 0.19354575E-01 0.24414338E+02</pdfrwt>
<totfact> 0.31857887E+06</totfact>
</mgrwt>
</event>
<event>
 4    1  0.2754379E+004  0.2073221E+02  0.7546771E-02  0.1731147E+00
         21   -1    0    0  501  502  0.00000000000E+00  0.00000000000E+00  0.34852810151E+02  0.34852810151E+02  0.00000000000E+00 0. -1.
         21   -1    0    0  502  503 -0.00000000000E+00 -0.00000000000E+00 -0.14611455844E+02  0.14611455844E+02  0.00000000000E+00 0.  1.
          2    1    1    2  501    0  0.81321855952E+01 -0.19070713992E+02  0.35333248698E+00  0.20735221691E+02  0.00000000000E+00 0.  1.
         -2    1    1    2    0  503 -0.81321855952E+01  0.19070713992E+02  0.19888021819E+02  0.28729044304E+02  0.00000000000E+00 0. -1.
<mgrwt>
<rscale>  2 0.20732211E+02</rscale>
<asrwt>0</asrwt>
<pdfrwt beam="1">  1       21 0.53619708E-02 0.20732211E+02</pdfrwt>
<pdfrwt beam="2">  1       21 0.22479163E-02 0.20732211E+02</pdfrwt>
<totfact> 0.15525334E+08</totfact>
</mgrwt>
</event>
<event>
 4    1  0.2754379E+004  0.2123982E+02  0.7546771E-02  0.1721740E+00
         21   -1    0    0  501  502  0.00000000000E+00  0.00000000000E+00  0.12601055049E+04  0.12601055049E+04  0.00000000000E+00 0.  1.
         21   -1    0    0  502  503 -0.00000000000E+00 -0.00000000000E+00 -0.57232671742E+00  0.57232671742E+00  0.00000000000E+00 0. -1.
          2    1    1    2  501    0  0.10006579345E+02  0.18734949049E+02  0.10154939777E+04  0.10157160768E+04  0.00000000000E+00 0.  1.
         -2    1    1    2    0  503 -0.10006579345E+02 -0.18734949049E+02  0.24403920052E+03  0.24496175485E+03  0.00000000000E+00 0. -1.
<mgrwt>
<rscale>  2 0.21239820E+02</rscale>
<asrwt>0</asrwt>
<pdfrwt beam="1">  1       21 0.19386017E+00 0.21239820E+02</pdfrwt>
<pdfrwt beam="2">  1       21 0.88051272E-04 0.21239820E+02</pdfrwt>
<totfact> 0.19939640E+07</totfact>
</mgrwt>
</event>
<event>
 4    1  0.2754379E+004  0.3115227E+02  0.7546771E-02  0.1585690E+00
         21   -1    0    0  503  502  0.00000000000E+00  0.00000000000E+00  0.33835246196E+02  0.33835246196E+02  0.00000000000E+00 0.  1.
         21   -1    0    0  501  503 -0.00000000000E+00 -0.00000000000E+00 -0.37677206952E+02  0.37677206952E+02  0.00000000000E+00 0. -1.
          2    1    1    2  501    0 -0.24466025764E+02 -0.19284128958E+02 -0.19391942783E+02  0.36694842842E+02  0.00000000000E+00 0. -1.
         -2    1    1    2    0  502  0.24466025764E+02  0.19284128958E+02  0.15549982027E+02  0.34817610306E+02  0.00000000000E+00 0.  1.
<mgrwt>
<rscale>  2 0.31152272E+02</rscale>
<asrwt>0</asrwt>
<pdfrwt beam="1">  1       21 0.52054225E-02 0.31152272E+02</pdfrwt>
<pdfrwt beam="2">  1       21 0.57964933E-02 0.31152272E+02</pdfrwt>
<totfact> 0.40715940E+07</totfact>
</mgrwt>
</event>
<event>
 4    1  0.2754379E+004  0.3869219E+02  0.7546771E-02  0.1518062E+00
         21   -1    0    0  503  502  0.00000000000E+00  0.00000000000E+00  0.21213728478E+01  0.21213728478E+01  0.00000000000E+00 0. -1.
         21   -1    0    0  501  503 -0.00000000000E+00 -0.00000000000E+00 -0.12163100403E+04  0.12163100403E+04  0.00000000000E+00 0.  1.
          2    1    1    2  501    0 -0.11526741647E+02  0.36935351064E+02 -0.10018123802E+04  0.10025592906E+04  0.00000000000E+00 0.  1.
         -2    1    1    2    0  502  0.11526741647E+02 -0.36935351064E+02 -0.21237628727E+03  0.21587212262E+03  0.00000000000E+00 0. -1.
<mgrwt>
<rscale>  2 0.38692195E+02</rscale>
<asrwt>0</asrwt>
<pdfrwt beam="1">  1       21 0.32636399E-03 0.38692195E+02</pdfrwt>
<pdfrwt beam="2">  1       21 0.18712523E+00 0.38692195E+02</pdfrwt>
<totfact> 0.34689214E+06</totfact>
</mgrwt>
</event>
<event>
 4    1  0.2754379E+004  0.2173357E+02  0.7546771E-02  0.1712901E+00
         21   -1    0    0  501  502  0.00000000000E+00  0.00000000000E+00  0.11393032576E+02  0.11393032576E+02  0.00000000000E+00 0.  1.
         21   -1    0    0  502  503 -0.00000000000E+00 -0.00000000000E+00 -0.44679510096E+02  0.44679510096E+02  0.00000000000E+00 0. -1.
          2    1    1    2  501    0  0.44649693286E+01 -0.21269979427E+02 -0.91165613850E+01  0.23568191857E+02  0.00000000000E+00 0. -1.
         -2    1    1    2    0  503 -0.44649693286E+01  0.21269979427E+02 -0.24169916135E+02  0.32504350815E+02  0.00000000000E+00 0.  1.
<mgrwt>
<rscale>  2 0.21733568E+02</rscale>
<asrwt>0</asrwt>
<pdfrwt beam="1">  1       21 0.17527742E-02 0.21733568E+02</pdfrwt>
<pdfrwt beam="2">  1       21 0.68737708E-02 0.21733568E+02</pdfrwt>
<totfact> 0.15481591E+08</totfact>
</mgrwt>
</event>
<event>
 4    1  0.2754379E+004  0.2855677E+02  0.7546771E-02  0.1614612E+00
         21   -1    0    0  501  502  0.00000000000E+00  0.00000000000E+00  0.33223819958E+03  0.33223819958E+03  0.00000000000E+00 0. -1.
         21   -1    0    0  502  503 -0.00000000000E+00 -0.00000000000E+00 -0.25175848369E+01  0.25175848369E+01  0.00000000000E+00 0.  1.
          2    1    1    2  501    0  0.28525270467E+02  0.13409328112E+01  0.19134895389E+03  0.19346811445E+03  0.00000000000E+00 0.  1.
         -2    1    1    2    0  503 -0.28525270467E+02 -0.13409328112E+01  0.13837166086E+03  0.14128766997E+03  0.00000000000E+00 0. -1.
<mgrwt>
<rscale>  2 0.28556771E+02</rscale>
<asrwt>0</asrwt>
<pdfrwt beam="1">  1       21 0.51113534E-01 0.28556771E+02</pdfrwt>
<pdfrwt beam="2">  1       21 0.38732101E-03 0.28556771E+02</pdfrwt>
<totfact> 0.47021660E+07</totfact>
</mgrwt>
</event>
<event>
 4    1  0.2754379E+004  0.2459058E+02  0.7546771E-02  0.1666953E+00
         21   -1    0    0  503  502  0.00000000000E+00  0.00000000000E+00  0.16055534652E+02  0.16055534652E+02  0.00000000000E+00 0.  1.
         21   -1    0    0  501  503 -0.00000000000E+00 -0.00000000000E+00 -0.39615835060E+02  0.39615835060E+02  0.00000000000E+00 0. -1.
          2    1    1    2  501    0  0.24561512139E+02 -0.11952484787E+01 -0.17960624186E+02  0.30451281067E+02  0.00000000000E+00 0. -1.
         -2    1    1    2    0  502 -0.24561512139E+02  0.11952484787E+01 -0.55996762224E+01  0.25220088645E+02  0.00000000000E+00 0.  1.
<mgrwt>
<rscale>  2 0.24590577E+02</rscale>
<asrwt>0</asrwt>
<pdfrwt beam="1">  1       21 0.24700823E-02 0.24590577E+02</pdfrwt>
<pdfrwt beam="2">  1       21 0.60947438E-02 0.24590577E+02</pdfrwt>
<totfact> 0.11509945E+08</totfact>
</mgrwt>
</event>
<event>
 4    1  0.2754379E+004  0.6717019E+02  0.7546771E-02  0.1369989E+00
         21   -1    0    0  503  502  0.00000000000E+00  0.00000000000E+00  0.18474947406E+04  0.18474947406E+04  0.00000000000E+00 0.  1.
         21   -1    0    0  501  503 -0.00000000000E+00 -0.00000000000E+00 -0.53403557870E+01  0.53403557870E+01  0.00000000000E+00 0. -1.
          2    1    1    2  501    0 -0.53685668522E+02  0.40369342814E+02  0.23860135877E+03  0.24787586258E+03  0.00000000000E+00 0. -1.
         -2    1    1    2    0  502  0.53685668522E+02 -0.40369342814E+02  0.16035530261E+04  0.16049592338E+04  0.00000000000E+00 0.  1.
<mgrwt>
<rscale>  2 0.67170193E+02</rscale>
<asrwt>0</asrwt>
<pdfrwt beam="1">  1       21 0.28422945E+00 0.67170193E+02</pdfrwt>
<pdfrwt beam="2">  1       21 0.82159467E-03 0.67170193E+02</pdfrwt>
<totfact> 0.24361059E+05</totfact>
</mgrwt>
</event>
<event>
 4    1  0.2754379E+004  0.2015849E+02  0.7546771E-02  0.1742195E+00
         21   -1    0    0  501  502  0.00000000000E+00  0.00000000000E+00  0.25922806093E+01  0.25922806093E+01  0.00000000000E+00 0. -1.
         21   -1    0    0  502  503 -0.00000000000E+00 -0.00000000000E+00 -0.18438480445E+03  0.18438480445E+03  0.00000000000E+00 0.  1.
          2    1    1    2  501    0  0.16258324400E+02  0.11917701382E+02 -0.54709556946E+02  0.58305234239E+02  0.00000000000E+00 0.  1.
         -2    1    1    2    0  503 -0.16258324400E+02 -0.11917701382E+02 -0.12708296689E+03  0.12867185082E+03  0.00000000000E+00 0. -1.
<mgrwt>
<rscale>  2 0.20158490E+02</rscale>
<asrwt>0</asrwt>
<pdfrwt beam="1">  1       21 0.39881237E-03 0.20158490E+02</pdfrwt>
<pdfrwt beam="2">  1       21 0.28366895E-01 0.20158490E+02</pdfrwt>
<totfact> 0.12481164E+08</totfact>
</mgrwt>
</event>
<event>
 4    1  0.2754379E+004  0.2203171E+02  0.7546771E-02  0.1707704E+00
         21   -1    0    0  501  502  0.00000000000E+00  0.00000000000E+00  0.20606205516E+01  0.20606205516E+01  0.00000000000E+00 0.  1.
         21   -1    0    0  502  503 -0.00000000000E+00 -0.00000000000E+00 -0.23857212966E+03  0.23857212966E+03  0.00000000000E+00 0. -1.
          2    1    1    2  501    0  0.19718093761E+02 -0.98281643860E+01 -0.10473245917E+03  0.10702468893E+03  0.00000000000E+00 0.  1.
         -2    1    1    2    0  503 -0.19718093761E+02  0.98281643860E+01 -0.13177904994E+03  0.13360806128E+03  0.00000000000E+00 0. -1.
<mgrwt>
<rscale>  2 0.22031705E+02</rscale>
<asrwt>0</asrwt>
<pdfrwt beam="1">  1       21 0.31701846E-03 0.22031705E+02</pdfrwt>
<pdfrwt beam="2">  1       21 0.36703415E-01 0.22031705E+02</pdfrwt>
<totfact> 0.11169136E+08</totfact>
</mgrwt>
</event>
<event>
 4    1  0.2754379E+004  0.2005594E+02  0.7546771E-02  0.1744218E+00
         21   -1    0    0  501  502  0.00000000000E+00  0.00000000000E+00  0.15894716108E+02  0.15894716108E+02  0.00000000000E+00 0.  1.
         21   -1    0    0  502  503 -0.00000000000E+00 -0.00000000000E+00 -0.25873463991E+02  0.25873463991E+02  0.00000000000E+00 0. -1.
          2    1    1    2  501    0  0.14900350219E+02  0.13424607818E+02 -0.18980511563E+01  0.20145548638E+02  0.00000000000E+00 0.  1.
         -2    1    1    2    0  503 -0.14900350219E+02 -0.13424607818E+02 -0.80806967266E+01  0.21622631461E+02  0.00000000000E+00 0. -1.
<mgrwt>
<rscale>  2 0.20055935E+02</rscale>
<asrwt>0</asrwt>
<pdfrwt beam="1">  1       21 0.24453410E-02 0.20055935E+02</pdfrwt>
<pdfrwt beam="2">  1       21 0.39805329E-02 0.20055935E+02</pdfrwt>
<totfact> 0.21599267E+08</totfact>
</mgrwt>
</event>
<event>
 4    1  0.2754379E+004  0.5622847E+02  0.7546771E-02  0.1414377E+00
         21   -1    0    0  501  502  0.00000000000E+00  0.00000000000E+00  0.56001069008E+03  0.56001069008E+03  0.00000000000E+00 0.  1.
         21   -1    0    0  502  503 -0.00000000000E+00 -0.00000000000E+00 -0.16949370727E+03  0.16949370727E+03  0.00000000000E+00 0. -1.
          2    1    1    2  501    0  0.29894674903E+02  0.47622988525E+02  0.55388446365E+03  0.55673120956E+03  0.00000000000E+00 0.  1.
         -2    1    1    2    0  503 -0.29894674903E+02 -0.47622988525E+02 -0.16336748084E+03  0.17277318779E+03  0.00000000000E+00 0. -1.
<mgrwt>
<rscale>  2 0.56228468E+02</rscale>
<asrwt>0</asrwt>
<pdfrwt beam="1">  1       21 0.86155490E-01 0.56228468E+02</pdfrwt>
<pdfrwt beam="2">  1       21 0.26075955E-01 0.56228468E+02</pdfrwt>
<totfact> 0.18431748E+04</totfact>
</mgrwt>
</event>
<event>
 4    1  0.2754379E+004  0.2279081E+02  0.7546771E-02  0.1694924E+00
         21   -1    0    0  501  502  0.00000000000E+00  0.00000000000E+00  0.26281454928E+02  0.26281454928E+02  0.00000000000E+00 0. -1.
         21   -1    0    0  502  503 -0.00000000000E+00 -0.00000000000E+00 -0.24939778745E+02  0.24939778745E+02  0.00000000000E+00 0.  1.
          2    1    1    2  501    0  0.14084020652E+02 -0.17918187687E+02  0.12338142023E+02  0.25916227277E+02  0.00000000000E+00 0. -1.
         -2    1    1    2    0  503 -0.14084020652E+02  0.17918187687E+02 -0.10996465840E+02  0.25305006395E+02  0.00000000000E+00 0.  1.
<mgrwt>
<rscale>  2 0.22790811E+02</rscale>
<asrwt>0</asrwt>
<pdfrwt beam="1">  1       21 0.40433008E-02 0.22790811E+02</pdfrwt>
<pdfrwt beam="2">  1       21 0.38368890E-02 0.22790811E+02</pdfrwt>
<totfact> 0.10888680E+08</totfact>
</mgrwt>
</event>
<event>
 4    1  0.2754379E+004  0.2192908E+02  0.7546771E-02  0.1709481E+00
         21   -1    0    0  503  502  0.00000000000E+00  0.00000000000E+00  0.91553485906E+02  0.91553485906E+02  0.00000000000E+00 0.  1.
         21   -1    0    0  501  503 -0.00000000000E+00 -0.00000000000E+00 -0.68711055621E+01  0.68711055621E+01  0.00000000000E+00 0. -1.
          2    1    1    2  501    0  0.18155648508E+02  0.12298658660E+02  0.18455874463E+02  0.28661888978E+02  0.00000000000E+00 0. -1.
         -2    1    1    2    0  502 -0.18155648508E+02 -0.12298658660E+02  0.66226505881E+02  0.69762702491E+02  0.00000000000E+00 0.  1.
<mgrwt>
<rscale>  2 0.21929081E+02</rscale>
<asrwt>0</asrwt>
<pdfrwt beam="1">  1       21 0.14085151E-01 0.21929081E+02</pdfrwt>
<pdfrwt beam="2">  1       21 0.10570932E-02 0.21929081E+02</pdfrwt>
<totfact> 0.10212033E+08</totfact>
</mgrwt>
</event>
<event>
 4    1  0.2754379E+004  0.3374836E+02  0.7546771E-02  0.1560005E+00
         21   -1    0    0  501  502  0.00000000000E+00  0.00000000000E+00  0.26882022406E+03  0.26882022406E+03  0.00000000000E+00 0. -1.
         21   -1    0    0  502  503 -0.00000000000E+00 -0.00000000000E+00 -0.55350613414E+01  0.55350613414E+01  0.00000000000E+00 0.  1.
          2    1    1    2  501    0  0.33433538544E+02 -0.45989357129E+01  0.19807718581E+03  0.20093163825E+03  0.00000000000E+00 0. -1.
         -2    1    1    2    0  503 -0.33433538544E+02  0.45989357129E+01  0.65207976905E+02  0.73423647153E+02  0.00000000000E+00 0.  1.
<mgrwt>
<rscale>  2 0.33748359E+02</rscale>
<asrwt>0</asrwt>
<pdfrwt beam="1">  1       21 0.41356948E-01 0.33748359E+02</pdfrwt>
<pdfrwt beam="2">  1       21 0.85154811E-03 0.33748359E+02</pdfrwt>
<totfact> 0.22557047E+07</totfact>
</mgrwt>
</event>
<event>
 4    1  0.2754379E+004  0.2929254E+02  0.7546771E-02  0.1606043E+00
         21   -1    0    0  501  502  0.00000000000E+00  0.00000000000E+00  0.40029831763E+01  0.40029831763E+01  0.00000000000E+00 0. -1.
         21   -1    0    0  502  503 -0.00000000000E+00 -0.00000000000E+00 -0.31767703264E+03  0.31767703264E+03  0.00000000000E+00 0.  1.
          2    1    1    2  501    0 -0.15836564570E+02  0.24642567792E+02 -0.65109203457E+02  0.71395106972E+02  0.00000000000E+00 0. -1.
         -2    1    1    2    0  503  0.15836564570E+02 -0.24642567792E+02 -0.24856484601E+03  0.25028490884E+03  0.00000000000E+00 0.  1.
<mgrwt>
<rscale>  2 0.29292540E+02</rscale>
<asrwt>0</asrwt>
<pdfrwt beam="1">  1       21 0.61584348E-03 0.29292540E+02</pdfrwt>
<pdfrwt beam="2">  1       21 0.48873396E-01 0.29292540E+02</pdfrwt>
<totfact> 0.25916086E+07</totfact>
</mgrwt>
</event>
<event>
 4    1  0.2754379E+004  0.8850872E+02  0.7546771E-02  0.1306504E+00
         21   -1    0    0  501  502  0.00000000000E+00  0.00000000000E+00  0.95679779911E+02  0.95679779911E+02  0.00000000000E+00 0. -1.
         21   -1    0    0  502  503 -0.00000000000E+00 -0.00000000000E+00 -0.92128705806E+02  0.92128705806E+02  0.00000000000E+00 0.  1.
          2    1    1    2  501    0 -0.88118608873E+02 -0.83008893446E+01  0.33103019658E+02  0.94496581441E+02  0.00000000000E+00 0.  1.
         -2    1    1    2    0  503  0.88118608873E+02  0.83008893446E+01 -0.29551945553E+02  0.93311904276E+02  0.00000000000E+00 0. -1.
<mgrwt>
<rscale>  2 0.88508723E+02</rscale>
<asrwt>0</asrwt>
<pdfrwt beam="1">  1       21 0.14719966E-01 0.88508723E+02</pdfrwt>
<pdfrwt beam="2">  1       21 0.14173647E-01 0.88508723E+02</pdfrwt>
<totfact> 0.17374285E+06</totfact>
</mgrwt>
</event>
<event>
 4    1  0.2754379E+004  0.2586150E+02  0.7546771E-02  0.1648928E+00
         21   -1    0    0  503  502  0.00000000000E+00  0.00000000000E+00  0.11193208538E+02  0.11193208538E+02  0.00000000000E+00 0. -1.
         21   -1    0    0  501  503 -0.00000000000E+00 -0.00000000000E+00 -0.67917934702E+02  0.67917934702E+02  0.00000000000E+00 0.  1.
          2    1    1    2  501    0  0.23076427888E+02 -0.11674562476E+02 -0.42078050573E+02  0.49390072617E+02  0.00000000000E+00 0.  1.
         -2    1    1    2    0  502 -0.23076427888E+02  0.11674562476E+02 -0.14646675591E+02  0.29721070623E+02  0.00000000000E+00 0. -1.
<mgrwt>
<rscale>  2 0.25861495E+02</rscale>
<asrwt>0</asrwt>
<pdfrwt beam="1">  1       21 0.17220321E-02 0.25861495E+02</pdfrwt>
<pdfrwt beam="2">  1       21 0.10448913E-01 0.25861495E+02</pdfrwt>
<totfact> 0.84097422E+07</totfact>
</mgrwt>
</event>
<event>
 4    1  0.2754379E+004  0.4327496E+02  0.7546771E-02  0.1485407E+00
         21   -1    0    0  501  502  0.00000000000E+00  0.00000000000E+00  0.25603573227E+03  0.25603573227E+03  0.00000000000E+00 0. -1.
         21   -1    0    0  502  503 -0.00000000000E+00 -0.00000000000E+00 -0.86691067174E+01  0.86691067174E+01  0.00000000000E+00 0.  1.
          2    1    1    2  501    0 -0.25928909975E+02 -0.34646987440E+02  0.17600520108E+03  0.18124721493E+03  0.00000000000E+00 0. -1.
         -2    1    1    2    0  503  0.25928909975E+02  0.34646987440E+02  0.71361424470E+02  0.83457624059E+02  0.00000000000E+00 0.  1.
<mgrwt>
<rscale>  2 0.43274959E+02</rscale>
<asrwt>0</asrwt>
<pdfrwt beam="1">  1       21 0.39390107E-01 0.43274959E+02</pdfrwt>
<pdfrwt beam="2">  1       21 0.13337089E-02 0.43274959E+02</pdfrwt>
<totfact> 0.12942100E+07</totfact>
</mgrwt>
</event>
<event>
 4    1  0.2754379E+004  0.3772494E+02  0.7546771E-02  0.1525653E+00
         21   -1    0    0  501  502  0.00000000000E+00  0.00000000000E+00  0.18062001213E+02  0.18062001213E+02  0.00000000000E+00 0.  1.
         21   -1    0    0  502  503 -0.00000000000E+00 -0.00000000000E+00 -0.42078825045E+03  0.42078825045E+03  0.00000000000E+00 0. -1.
          2    1    1    2  501    0 -0.34226075069E+02  0.15866542455E+02 -0.35458724113E+01  0.37891220556E+02  0.00000000000E+00 0.  1.
         -2    1    1    2    0  503  0.34226075069E+02 -0.15866542455E+02 -0.39918037682E+03  0.40095903111E+03  0.00000000000E+00 0. -1.
<mgrwt>
<rscale>  2 0.37724944E+02</rscale>
<asrwt>0</asrwt>
<pdfrwt beam="1">  1       21 0.27787692E-02 0.37724944E+02</pdfrwt>
<pdfrwt beam="2">  1       21 0.64736660E-01 0.37724944E+02</pdfrwt>
<totfact> 0.15063568E+06</totfact>
</mgrwt>
</event>
<event>
 4    1  0.2754379E+004  0.2383027E+02  0.7546771E-02  0.1678395E+00
         21   -1    0    0  503  502  0.00000000000E+00  0.00000000000E+00  0.27513203537E+03  0.27513203537E+03  0.00000000000E+00 0.  1.
         21   -1    0    0  501  503 -0.00000000000E+00 -0.00000000000E+00 -0.22249089775E+01  0.22249089775E+01  0.00000000000E+00 0. -1.
          2    1    1    2  501    0  0.21719143412E+02  0.98061388893E+01  0.99163014960E+02  0.10198620047E+03  0.00000000000E+00 0. -1.
         -2    1    1    2    0  502 -0.21719143412E+02 -0.98061388893E+01  0.17374411143E+03  0.17537074388E+03  0.00000000000E+00 0.  1.
<mgrwt>
<rscale>  2 0.23830265E+02</rscale>
<asrwt>0</asrwt>
<pdfrwt beam="1">  1       21 0.42327978E-01 0.23830265E+02</pdfrwt>
<pdfrwt beam="2">  1       21 0.34229391E-03 0.23830265E+02</pdfrwt>
<totfact> 0.77960983E+07</totfact>
</mgrwt>
</event>
<event>
 4    1  0.2754379E+004  0.2592987E+02  0.7546771E-02  0.1647994E+00
         21   -1    0    0  503  502  0.00000000000E+00  0.00000000000E+00  0.13922606651E+02  0.13922606651E+02  0.00000000000E+00 0. -1.
         21   -1    0    0  501  503 -0.00000000000E+00 -0.00000000000E+00 -0.84735444399E+02  0.84735444399E+02  0.00000000000E+00 0.  1.
          2    1    1    2  501    0 -0.17576620393E+02  0.19063595393E+02 -0.67756574874E+02  0.72548684980E+02  0.00000000000E+00 0.  1.
         -2    1    1    2    0  502  0.17576620393E+02 -0.19063595393E+02 -0.30562628745E+01  0.26109366069E+02  0.00000000000E+00 0. -1.
<mgrwt>
<rscale>  2 0.25929872E+02</rscale>
<asrwt>0</asrwt>
<pdfrwt beam="1">  1       21 0.21419395E-02 0.25929872E+02</pdfrwt>
<pdfrwt beam="2">  1       21 0.13036222E-01 0.25929872E+02</pdfrwt>
<totfact> 0.41481759E+07</totfact>
</mgrwt>
</event>
<event>
 4    1  0.2754379E+004  0.2261705E+02  0.7546771E-02  0.1697794E+00
         21   -1    0    0  501  502  0.00000000000E+00  0.00000000000E+00  0.47391626090E+01  0.47391626090E+01  0.00000000000E+00 0.  1.
         21   -1    0    0  502  503 -0.00000000000E+00 -0.00000000000E+00 -0.10886448821E+03  0.10886448821E+03  0.00000000000E+00 0. -1.
          2    1    1    2  501    0 -0.71511056317E+01  0.21456765947E+02 -0.46819813913E+02  0.51996404602E+02  0.00000000000E+00 0.  1.
         -2    1    1    2    0  503  0.71511056317E+01 -0.21456765947E+02 -0.57305511691E+02  0.61607246220E+02  0.00000000000E+00 0. -1.
<mgrwt>
<rscale>  2 0.22617054E+02</rscale>
<asrwt>0</asrwt>
<pdfrwt beam="1">  1       21 0.72910200E-03 0.22617054E+02</pdfrwt>
<pdfrwt beam="2">  1       21 0.16748382E-01 0.22617054E+02</pdfrwt>
<totfact> 0.13366279E+08</totfact>
</mgrwt>
</event>
<event>
 4    1  0.2754379E+004  0.3834795E+02  0.7546771E-02  0.1520733E+00
         21   -1    0    0  503  502  0.00000000000E+00  0.00000000000E+00  0.13266732478E+01  0.13266732478E+01  0.00000000000E+00 0. -1.
         21   -1    0    0  501  503 -0.00000000000E+00 -0.00000000000E+00 -0.11890299620E+04  0.11890299620E+04  0.00000000000E+00 0.  1.
          2    1    1    2  501    0 -0.10169437179E+02 -0.36974963742E+02 -0.74878142610E+03  0.74976275545E+03  0.00000000000E+00 0.  1.
         -2    1    1    2    0  502  0.10169437179E+02  0.36974963742E+02 -0.43892186267E+03  0.44059387981E+03  0.00000000000E+00 0. -1.
<mgrwt>
<rscale>  2 0.38347952E+02</rscale>
<asrwt>0</asrwt>
<pdfrwt beam="1">  1       21 0.20410396E-03 0.38347952E+02</pdfrwt>
<pdfrwt beam="2">  1       21 0.18292734E+00 0.38347952E+02</pdfrwt>
<totfact> 0.73513732E+06</totfact>
</mgrwt>
</event>
<event>
 4    1  0.2754379E+004  0.2000256E+02  0.7546771E-02  0.1745277E+00
         21   -1    0    0  501  502  0.00000000000E+00  0.00000000000E+00  0.45838891152E+01  0.45838891152E+01  0.00000000000E+00 0. -1.
         21   -1    0    0  502  503 -0.00000000000E+00 -0.00000000000E+00 -0.27929900843E+03  0.27929900843E+03  0.00000000000E+00 0.  1.
          2    1    1    2  501    0 -0.19643248580E+02  0.37742715957E+01 -0.19667010074E+02  0.28051624304E+02  0.00000000000E+00 0. -1.
         -2    1    1    2    0  503  0.19643248580E+02 -0.37742715957E+01 -0.25504810924E+03  0.25583127324E+03  0.00000000000E+00 0.  1.
<mgrwt>
<rscale>  2 0.20002558E+02</rscale>
<asrwt>0</asrwt>
<pdfrwt beam="1">  1       21 0.70521349E-03 0.20002558E+02</pdfrwt>
<pdfrwt beam="2">  1       21 0.42969091E-01 0.20002558E+02</pdfrwt>
<totfact> 0.25076602E+07</totfact>
</mgrwt>
</event>
<event>
 4    1  0.2754379E+004  0.2530468E+02  0.7546771E-02  0.1656664E+00
         21   -1    0    0  501  502  0.00000000000E+00  0.00000000000E+00  0.16234105860E+02  0.16234105860E+02  0.00000000000E+00 0.  1.
         21   -1    0    0  502  503 -0.00000000000E+00 -0.00000000000E+00 -0.57595294214E+02  0.57595294214E+02  0.00000000000E+00 0. -1.
          2    1    1    2  501    0  0.12737108038E+02 -0.21865339151E+02  0.43130635665E-01  0.25304719670E+02  0.00000000000E+00 0.  1.
         -2    1    1    2    0  503 -0.12737108038E+02  0.21865339151E+02 -0.41404318990E+02  0.48524680404E+02  0.00000000000E+00 0. -1.
<mgrwt>
<rscale>  2 0.25304683E+02</rscale>
<asrwt>0</asrwt>
<pdfrwt beam="1">  1       21 0.24975548E-02 0.25304683E+02</pdfrwt>
<pdfrwt beam="2">  1       21 0.88608144E-02 0.25304683E+02</pdfrwt>
<totfact> 0.61947956E+07</totfact>
</mgrwt>
</event>
<event>
 4    1  0.2754379E+004  0.3200688E+02  0.7546771E-02  0.1576909E+00
         21   -1    0    0  503  502  0.00000000000E+00  0.00000000000E+00  0.31144111436E+02  0.31144111436E+02  0.00000000000E+00 0. -1.
         21   -1    0    0  501  503 -0.00000000000E+00 -0.00000000000E+00 -0.11510817113E+03  0.11510817113E+03  0.00000000000E+00 0.  1.
          2    1    1    2  501    0 -0.31525723304E+02  0.55289302948E+01 -0.10378283277E+03  0.10860624603E+03  0.00000000000E+00 0.  1.
         -2    1    1    2    0  502  0.31525723304E+02 -0.55289302948E+01  0.19818773078E+02  0.37646036529E+02  0.00000000000E+00 0. -1.
<mgrwt>
<rscale>  2 0.32006879E+02</rscale>
<asrwt>0</asrwt>
<pdfrwt beam="1">  1       21 0.47914018E-02 0.32006879E+02</pdfrwt>
<pdfrwt beam="2">  1       21 0.17708949E-01 0.32006879E+02</pdfrwt>
<totfact> 0.71651220E+06</totfact>
</mgrwt>
</event>
<event>
 4    1  0.2754379E+004  0.3012341E+02  0.7546771E-02  0.1596729E+00
         21   -1    0    0  503  502  0.00000000000E+00  0.00000000000E+00  0.11976210853E+01  0.11976210853E+01  0.00000000000E+00 0. -1.
         21   -1    0    0  501  503 -0.00000000000E+00 -0.00000000000E+00 -0.77035676266E+03  0.77035676266E+03  0.00000000000E+00 0.  1.
          2    1    1    2  501    0  0.29943453040E+02  0.32877916881E+01 -0.43405653816E+03  0.43510056110E+03  0.00000000000E+00 0. -1.
         -2    1    1    2    0  502 -0.29943453040E+02 -0.32877916881E+01 -0.33510260341E+03  0.33645382264E+03  0.00000000000E+00 0.  1.
<mgrwt>
<rscale>  2 0.30123412E+02</rscale>
<asrwt>0</asrwt>
<pdfrwt beam="1">  1       21 0.18424874E-03 0.30123412E+02</pdfrwt>
<pdfrwt beam="2">  1       21 0.11851685E+00 0.30123412E+02</pdfrwt>
<totfact> 0.23781744E+07</totfact>
</mgrwt>
</event>
<event>
 4    1  0.2754379E+004  0.2669911E+02  0.7546771E-02  0.1637732E+00
         21   -1    0    0  501  502  0.00000000000E+00  0.00000000000E+00  0.60741302718E+03  0.60741302718E+03  0.00000000000E+00 0. -1.
         21   -1    0    0  502  503 -0.00000000000E+00 -0.00000000000E+00 -0.44179288391E+01  0.44179288391E+01  0.00000000000E+00 0.  1.
          2    1    1    2  501    0  0.16978154542E+02 -0.20605455717E+02  0.56365152146E+03  0.56428351047E+03  0.00000000000E+00 0. -1.
         -2    1    1    2    0  503 -0.16978154542E+02  0.20605455717E+02  0.39343576875E+02  0.47547445550E+02  0.00000000000E+00 0.  1.
<mgrwt>
<rscale>  2 0.26699111E+02</rscale>
<asrwt>0</asrwt>
<pdfrwt beam="1">  1       21 0.93448092E-01 0.26699111E+02</pdfrwt>
<pdfrwt beam="2">  1       21 0.67968184E-03 0.26699111E+02</pdfrwt>
<totfact> 0.58037254E+06</totfact>
</mgrwt>
</event>
<event>
 4    1  0.2754379E+004  0.3484747E+02  0.7546771E-02  0.1549959E+00
         21   -1    0    0  501  502  0.00000000000E+00  0.00000000000E+00  0.64314834183E+02  0.64314834183E+02  0.00000000000E+00 0. -1.
         21   -1    0    0  502  503 -0.00000000000E+00 -0.00000000000E+00 -0.23341949374E+02  0.23341949374E+02  0.00000000000E+00 0.  1.
          2    1    1    2  501    0  0.32300070572E+02 -0.13078678101E+02  0.39646067218E+02  0.52784060337E+02  0.00000000000E+00 0. -1.
         -2    1    1    2    0  503 -0.32300070572E+02  0.13078678101E+02  0.13268175910E+01  0.34872723219E+02  0.00000000000E+00 0.  1.
<mgrwt>
<rscale>  2 0.34847473E+02</rscale>
<asrwt>0</asrwt>
<pdfrwt beam="1">  1       21 0.98945898E-02 0.34847473E+02</pdfrwt>
<pdfrwt beam="2">  1       21 0.35910692E-02 0.34847473E+02</pdfrwt>
<totfact> 0.31246860E+07</totfact>
</mgrwt>
</event>
<event>
 4    1  0.2754379E+004  0.2123999E+02  0.7546771E-02  0.1721737E+00
         21   -1    0    0  501  502  0.00000000000E+00  0.00000000000E+00  0.11438418312E+02  0.11438418312E+02  0.00000000000E+00 0.  1.
         21   -1    0    0  502  503 -0.00000000000E+00 -0.00000000000E+00 -0.44951476261E+02  0.44951476261E+02  0.00000000000E+00 0. -1.
          2    1    1    2  501    0 -0.11339031891E+02  0.17960059246E+02 -0.68843713844E+01  0.22327828862E+02  0.00000000000E+00 0. -1.
         -2    1    1    2    0  503  0.11339031891E+02 -0.17960059246E+02 -0.26628686565E+02  0.34062065711E+02  0.00000000000E+00 0.  1.
<mgrwt>
<rscale>  2 0.21239995E+02</rscale>
<asrwt>0</asrwt>
<pdfrwt beam="1">  1       21 0.17597567E-02 0.21239995E+02</pdfrwt>
<pdfrwt beam="2">  1       21 0.69156117E-02 0.21239995E+02</pdfrwt>
<totfact> 0.15130821E+08</totfact>
</mgrwt>
</event>
<event>
 4    1  0.2754379E+004  0.2982712E+02  0.7546771E-02  0.1600007E+00
         21   -1    0    0  501  502  0.00000000000E+00  0.00000000000E+00  0.36975245493E+02  0.36975245493E+02  0.00000000000E+00 0.  1.
         21   -1    0    0  502  503 -0.00000000000E+00 -0.00000000000E+00 -0.39623385918E+02  0.39623385918E+02  0.00000000000E+00 0. -1.
          2    1    1    2  501    0  0.10462359768E+02  0.27931994632E+02  0.22678340043E+02  0.37469512983E+02  0.00000000000E+00 0.  1.
         -2    1    1    2    0  503 -0.10462359768E+02 -0.27931994632E+02 -0.25326480468E+02  0.39129118428E+02  0.00000000000E+00 0. -1.
<mgrwt>
<rscale>  2 0.29827123E+02</rscale>
<asrwt>0</asrwt>
<pdfrwt beam="1">  1       21 0.56884993E-02 0.29827123E+02</pdfrwt>
<pdfrwt beam="2">  1       21 0.60959055E-02 0.29827123E+02</pdfrwt>
<totfact> 0.32221114E+07</totfact>
</mgrwt>
</event>
<event>
 4    1  0.2754379E+004  0.3009761E+02  0.7546771E-02  0.1597012E+00
         21   -1    0    0  503  502  0.00000000000E+00  0.00000000000E+00  0.69191489514E+02  0.69191489514E+02  0.00000000000E+00 0.  1.
         21   -1    0    0  501  503 -0.00000000000E+00 -0.00000000000E+00 -0.13676147227E+02  0.13676147227E+02  0.00000000000E+00 0. -1.
          2    1    1    2  501    0  0.62808834099E+01  0.29434952385E+02  0.19195666416E+02  0.35697892479E+02  0.00000000000E+00 0. -1.
         -2    1    1    2    0  502 -0.62808834099E+01 -0.29434952385E+02  0.36319675871E+02  0.47169744261E+02  0.00000000000E+00 0.  1.
<mgrwt>
<rscale>  2 0.30097607E+02</rscale>
<asrwt>0</asrwt>
<pdfrwt beam="1">  1       21 0.10644844E-01 0.30097607E+02</pdfrwt>
<pdfrwt beam="2">  1       21 0.21040227E-02 0.30097607E+02</pdfrwt>
<totfact> 0.62107974E+07</totfact>
</mgrwt>
</event>
<event>
 4    1  0.2754379E+004  0.2393839E+02  0.7546771E-02  0.1676736E+00
         21   -1    0    0  501  502  0.00000000000E+00  0.00000000000E+00  0.21764638889E+01  0.21764638889E+01  0.00000000000E+00 0.  1.
         21   -1    0    0  502  503 -0.00000000000E+00 -0.00000000000E+00 -0.27057651990E+03  0.27057651990E+03  0.00000000000E+00 0. -1.
          2    1    1    2  501    0  0.16279514463E+02  0.17550613323E+02 -0.11182415371E+03  0.11435771933E+03  0.00000000000E+00 0. -1.
         -2    1    1    2    0  503 -0.16279514463E+02 -0.17550613323E+02 -0.15657590230E+03  0.15839526445E+03  0.00000000000E+00 0.  1.
<mgrwt>
<rscale>  2 0.23938392E+02</rscale>
<asrwt>0</asrwt>
<pdfrwt beam="1">  1       21 0.33484092E-03 0.23938392E+02</pdfrwt>
<pdfrwt beam="2">  1       21 0.41627117E-01 0.23938392E+02</pdfrwt>
<totfact> 0.83202600E+07</totfact>
</mgrwt>
</event>
<event>
 4    1  0.2754379E+004  0.2066787E+02  0.7546771E-02  0.1732364E+00
         21   -1    0    0  503  502  0.00000000000E+00  0.00000000000E+00  0.14671143221E+03  0.14671143221E+03  0.00000000000E+00 0. -1.
         21   -1    0    0  501  503 -0.00000000000E+00 -0.00000000000E+00 -0.29243084334E+01  0.29243084334E+01  0.00000000000E+00 0.  1.
          2    1    1    2  501    0 -0.73015092248E+01 -0.19335173562E+02  0.76831082140E+02  0.79562404165E+02  0.00000000000E+00 0. -1.
         -2    1    1    2    0  502  0.73015092248E+01  0.19335173562E+02  0.66956041633E+02  0.70073336475E+02  0.00000000000E+00 0.  1.
<mgrwt>
<rscale>  2 0.20667873E+02</rscale>
<asrwt>0</asrwt>
<pdfrwt beam="1">  1       21 0.22570984E-01 0.20667873E+02</pdfrwt>
<pdfrwt beam="2">  1       21 0.44989372E-03 0.20667873E+02</pdfrwt>
<totfact> 0.15819679E+08</totfact>
</mgrwt>
</event>
<event>
 4    1  0.2754379E+004  0.2861805E+02  0.7546771E-02  0.1613887E+00
         21   -1    0    0  503  502  0.00000000000E+00  0.00000000000E+00  0.53035663004E+02  0.53035663004E+02  0.00000000000E+00 0.  1.
         21   -1    0    0  501  503 -0.00000000000E+00 -0.00000000000E+00 -0.19445593257E+02  0.19445593257E+02  0.00000000000E+00 0. -1.
          2    1    1    2  501    0 -0.20750223928E+02 -0.19708402504E+02  0.35156337998E+00  0.28620211724E+02  0.00000000000E+00 0.  1.
         -2    1    1    2    0  502  0.20750223928E+02  0.19708402504E+02  0.33238506367E+02  0.43861044537E+02  0.00000000000E+00 0. -1.
<mgrwt>
<rscale>  2 0.28618052E+02</rscale>
<asrwt>0</asrwt>
<pdfrwt beam="1">  1       21 0.81593327E-02 0.28618052E+02</pdfrwt>
<pdfrwt beam="2">  1       21 0.29916298E-02 0.28618052E+02</pdfrwt>
<totfact> 0.55156781E+07</totfact>
</mgrwt>
</event>
<event>
 4    1  0.2754379E+004  0.5148872E+02  0.7546771E-02  0.1437473E+00
         21   -1    0    0  501  502  0.00000000000E+00  0.00000000000E+00  0.17796172882E+03  0.17796172882E+03  0.00000000000E+00 0.  1.
         21   -1    0    0  502  503 -0.00000000000E+00 -0.00000000000E+00 -0.64611582714E+02  0.64611582714E+02  0.00000000000E+00 0. -1.
          2    1    1    2  501    0  0.10899745386E+01 -0.51477178754E+02  0.16306485646E+03  0.17100068827E+03  0.00000000000E+00 0.  1.
         -2    1    1    2    0  503 -0.10899745386E+01  0.51477178754E+02 -0.49714710346E+02  0.71572623270E+02  0.00000000000E+00 0. -1.
<mgrwt>
<rscale>  2 0.51488717E+02</rscale>
<asrwt>0</asrwt>
<pdfrwt beam="1">  1       21 0.27378727E-01 0.51488717E+02</pdfrwt>
<pdfrwt beam="2">  1       21 0.99402436E-02 0.51488717E+02</pdfrwt>
<totfact> 0.10211829E+06</totfact>
</mgrwt>
</event>
<event>
 4    1  0.2754379E+004  0.2450803E+02  0.7546771E-02  0.1668170E+00
         21   -1    0    0  503  502  0.00000000000E+00  0.00000000000E+00  0.69456513100E+01  0.69456513100E+01  0.00000000000E+00 0. -1.
         21   -1    0    0  501  503 -0.00000000000E+00 -0.00000000000E+00 -0.21775116189E+03  0.21775116189E+03  0.00000000000E+00 0.  1.
          2    1    1    2  501    0  0.24425520971E+02 -0.20093381346E+01 -0.19263463879E+03  0.19418740324E+03  0.00000000000E+00 0.  1.
         -2    1    1    2    0  502 -0.24425520971E+02  0.20093381346E+01 -0.18170871781E+02  0.30509409954E+02  0.00000000000E+00 0. -1.
<mgrwt>
<rscale>  2 0.24508030E+02</rscale>
<asrwt>0</asrwt>
<pdfrwt beam="1">  1       21 0.10685619E-02 0.24508030E+02</pdfrwt>
<pdfrwt beam="2">  1       21 0.33500173E-01 0.24508030E+02</pdfrwt>
<totfact> 0.22435310E+07</totfact>
</mgrwt>
</event>
<event>
 4    1  0.2754379E+004  0.2788160E+02  0.7546771E-02  0.1622759E+00
         21   -1    0    0  503  502  0.00000000000E+00  0.00000000000E+00  0.10822807553E+03  0.10822807553E+03  0.00000000000E+00 0. -1.
         21   -1    0    0  501  503 -0.00000000000E+00 -0.00000000000E+00 -0.88428589910E+01  0.88428589910E+01  0.00000000000E+00 0.  1.
          2    1    1    2  501    0  0.23958717168E+02  0.14260558339E+02  0.24330763730E+02  0.37004995827E+02  0.00000000000E+00 0.  1.
         -2    1    1    2    0  502 -0.23958717168E+02 -0.14260558339E+02  0.75054452812E+02  0.80065938696E+02  0.00000000000E+00 0. -1.
<mgrwt>
<rscale>  2 0.27881601E+02</rscale>
<asrwt>0</asrwt>
<pdfrwt beam="1">  1       21 0.16650472E-01 0.27881601E+02</pdfrwt>
<pdfrwt beam="2">  1       21 0.13604399E-02 0.27881601E+02</pdfrwt>
<totfact> 0.55697105E+07</totfact>
</mgrwt>
</event>
<event>
 4    1  0.2754379E+004  0.2493771E+02  0.7546771E-02  0.1661898E+00
         21   -1    0    0  503  502  0.00000000000E+00  0.00000000000E+00  0.29312806143E+03  0.29312806143E+03  0.00000000000E+00 0. -1.
         21   -1    0    0  501  503 -0.00000000000E+00 -0.00000000000E+00 -0.32566487062E+01  0.32566487062E+01  0.00000000000E+00 0.  1.
          2    1    1    2  501    0 -0.12078978234E+02 -0.21817143535E+02  0.57446437088E+02  0.62625734338E+02  0.00000000000E+00 0. -1.
         -2    1    1    2    0  502  0.12078978234E+02  0.21817143535E+02  0.23242497564E+03  0.23375897580E+03  0.00000000000E+00 0.  1.
<mgrwt>
<rscale>  2 0.24937712E+02</rscale>
<asrwt>0</asrwt>
<pdfrwt beam="1">  1       21 0.45096604E-01 0.24937712E+02</pdfrwt>
<pdfrwt beam="2">  1       21 0.50102311E-03 0.24937712E+02</pdfrwt>
<totfact> 0.39854400E+07</totfact>
</mgrwt>
</event>
<event>
 4    1  0.2754379E+004  0.2117754E+02  0.7546771E-02  0.1722877E+00
         21   -1    0    0  501  502  0.00000000000E+00  0.00000000000E+00  0.26604931301E+02  0.26604931301E+02  0.00000000000E+00 0.  1.
         21   -1    0    0  502  503 -0.00000000000E+00 -0.00000000000E+00 -0.53158943856E+02  0.53158943856E+02  0.00000000000E+00 0. -1.
          2    1    1    2  501    0  0.20141572097E+02 -0.65425887607E+01  0.19680244695E+02  0.28910213169E+02  0.00000000000E+00 0.  1.
         -2    1    1    2    0  503 -0.20141572097E+02  0.65425887607E+01 -0.46234257250E+02  0.50853661989E+02  0.00000000000E+00 0. -1.
<mgrwt>
<rscale>  2 0.21177545E+02</rscale>
<asrwt>0</asrwt>
<pdfrwt beam="1">  1       21 0.40930663E-02 0.21177545E+02</pdfrwt>
<pdfrwt beam="2">  1       21 0.81782991E-02 0.21177545E+02</pdfrwt>
<totfact> 0.31230456E+07</totfact>
</mgrwt>
</event>
<event>
 4    1  0.2754379E+004  0.2087699E+02  0.7546771E-02  0.1728430E+00
         21   -1    0    0  501  502  0.00000000000E+00  0.00000000000E+00  0.87945152265E+01  0.87945152265E+01  0.00000000000E+00 0. -1.
         21   -1    0    0  502  503 -0.00000000000E+00 -0.00000000000E+00 -0.20634649127E+03  0.20634649127E+03  0.00000000000E+00 0.  1.
          2    1    1    2  501    0 -0.20546342895E+02  0.37008768591E+01 -0.50089592728E+01  0.21469475282E+02  0.00000000000E+00 0. -1.
         -2    1    1    2    0  503  0.20546342895E+02 -0.37008768591E+01 -0.19254301677E+03  0.19367153121E+03  0.00000000000E+00 0.  1.
<mgrwt>
<rscale>  2 0.20876990E+02</rscale>
<asrwt>0</asrwt>
<pdfrwt beam="1">  1       21 0.13530024E-02 0.20876990E+02</pdfrwt>
<pdfrwt beam="2">  1       21 0.31745612E-01 0.20876990E+02</pdfrwt>
<totfact> 0.16764538E+07</totfact>
</mgrwt>
</event>
<event>
 4    1  0.2754379E+004  0.2426445E+02  0.7546771E-02  0.1671797E+00
         21   -1    0    0  501  502  0.00000000000E+00  0.00000000000E+00  0.16059083449E+02  0.16059083449E+02  0.00000000000E+00 0.  1.
         21   -1    0    0  502  503 -0.00000000000E+00 -0.00000000000E+00 -0.36839374197E+02  0.36839374197E+02  0.00000000000E+00 0. -1.
          2    1    1    2  501    0 -0.99358696786E+01 -0.22136893465E+02 -0.85566200147E+01  0.25728958483E+02  0.00000000000E+00 0.  1.
         -2    1    1    2    0  503  0.99358696786E+01  0.22136893465E+02 -0.12223670734E+02  0.27169499163E+02  0.00000000000E+00 0. -1.
<mgrwt>
<rscale>  2 0.24264451E+02</rscale>
<asrwt>0</asrwt>
<pdfrwt beam="1">  1       21 0.24706282E-02 0.24264451E+02</pdfrwt>
<pdfrwt beam="2">  1       21 0.56675960E-02 0.24264451E+02</pdfrwt>
<totfact> 0.12883634E+08</totfact>
</mgrwt>
</event>
<event>
 4    1  0.2754379E+004  0.6144789E+02  0.7546771E-02  0.1391854E+00
         21   -1    0    0  503  502  0.00000000000E+00  0.00000000000E+00  0.73815302797E+01  0.73815302797E+01  0.00000000000E+00 0. -1.
         21   -1    0    0  501  503 -0.00000000000E+00 -0.00000000000E+00 -0.64970053531E+03  0.64970053531E+03  0.00000000000E+00 0.  1.
          2    1    1    2  501    0  0.55102458114E+02 -0.27194895650E+02 -0.47267160125E+03  0.47664901748E+03  0.00000000000E+00 0.  1.
         -2    1    1    2    0  502 -0.55102458114E+02  0.27194895650E+02 -0.16964740378E+03  0.18043304811E+03  0.00000000000E+00 0. -1.
<mgrwt>
<rscale>  2 0.61447890E+02</rscale>
<asrwt>0</asrwt>
<pdfrwt beam="1">  1       21 0.11356193E-02 0.61447890E+02</pdfrwt>
<pdfrwt beam="2">  1       21 0.99953995E-01 0.61447890E+02</pdfrwt>
<totfact> 0.24548690E+06</totfact>
</mgrwt>
</event>
<event>
 4    1  0.2754379E+004  0.3533570E+02  0.7546771E-02  0.1545640E+00
         21   -1    0    0  501  502  0.00000000000E+00  0.00000000000E+00  0.18934381932E+03  0.18934381932E+03  0.00000000000E+00 0.  1.
         21   -1    0    0  502  503 -0.00000000000E+00 -0.00000000000E+00 -0.23741403346E+02  0.23741403346E+02  0.00000000000E+00 0. -1.
          2    1    1    2  501    0  0.18123451970E+02 -0.30334006022E+02  0.17334612803E+03  0.17691097065E+03  0.00000000000E+00 0.  1.
         -2    1    1    2    0  503 -0.18123451970E+02  0.30334006022E+02 -0.77437120558E+01  0.36174252018E+02  0.00000000000E+00 0. -1.
<mgrwt>
<rscale>  2 0.35335696E+02</rscale>
<asrwt>0</asrwt>
<pdfrwt beam="1">  1       21 0.29129817E-01 0.35335696E+02</pdfrwt>
<pdfrwt beam="2">  1       21 0.36525237E-02 0.35335696E+02</pdfrwt>
<totfact> 0.45894483E+06</totfact>
</mgrwt>
</event>
<event>
 4    1  0.2754379E+004  0.2782893E+02  0.7546771E-02  0.1623406E+00
         21   -1    0    0  501  502  0.00000000000E+00  0.00000000000E+00  0.58960036819E+03  0.58960036819E+03  0.00000000000E+00 0.  1.
         21   -1    0    0  502  503 -0.00000000000E+00 -0.00000000000E+00 -0.13138083931E+01  0.13138083931E+01  0.00000000000E+00 0. -1.
          2    1    1    2  501    0  0.22610862528E+02  0.16223383780E+02  0.29855393986E+03  0.29984813538E+03  0.00000000000E+00 0.  1.
         -2    1    1    2    0  503 -0.22610862528E+02 -0.16223383780E+02  0.28973261994E+03  0.29106604121E+03  0.00000000000E+00 0. -1.
<mgrwt>
<rscale>  2 0.27828929E+02</rscale>
<asrwt>0</asrwt>
<pdfrwt beam="1">  1       21 0.90707538E-01 0.27828929E+02</pdfrwt>
<pdfrwt beam="2">  1       21 0.20212484E-03 0.27828929E+02</pdfrwt>
<totfact> 0.37180453E+07</totfact>
</mgrwt>
</event>
<event>
 4    1  0.2754379E+004  0.2179136E+02  0.7546771E-02  0.1711885E+00
         21   -1    0    0  501  502  0.00000000000E+00  0.00000000000E+00  0.44575235631E+02  0.44575235631E+02  0.00000000000E+00 0.  1.
         21   -1    0    0  502  503 -0.00000000000E+00 -0.00000000000E+00 -0.25484729917E+02  0.25484729917E+02  0.00000000000E+00 0. -1.
          2    1    1    2  501    0 -0.21311031441E+02 -0.45501077379E+01  0.36268833144E+02  0.42311839940E+02  0.00000000000E+00 0.  1.
         -2    1    1    2    0  503  0.21311031441E+02  0.45501077379E+01 -0.17178327430E+02  0.27748125609E+02  0.00000000000E+00 0. -1.
<mgrwt>
<rscale>  2 0.21791364E+02</rscale>
<asrwt>0</asrwt>
<pdfrwt beam="1">  1       21 0.68577286E-02 0.21791364E+02</pdfrwt>
<pdfrwt beam="2">  1       21 0.39207277E-02 0.21791364E+02</pdfrwt>
<totfact> 0.44776176E+07</totfact>
</mgrwt>
</event>
<event>
 4    1  0.2754379E+004  0.4480262E+02  0.7546771E-02  0.1475578E+00
         21   -1    0    0  501  502  0.00000000000E+00  0.00000000000E+00  0.24183956810E+03  0.24183956810E+03  0.00000000000E+00 0. -1.
         21   -1    0    0  502  503 -0.00000000000E+00 -0.00000000000E+00 -0.92212118292E+01  0.92212118292E+01  0.00000000000E+00 0.  1.
          2    1    1    2  501    0 -0.32568681508E+02 -0.30766143155E+02  0.15598524587E+03  0.16229193297E+03  0.00000000000E+00 0. -1.
         -2    1    1    2    0  503  0.32568681508E+02  0.30766143155E+02  0.76633110402E+02  0.88768846955E+02  0.00000000000E+00 0.  1.
<mgrwt>
<rscale>  2 0.44802618E+02</rscale>
<asrwt>0</asrwt>
<pdfrwt beam="1">  1       21 0.37206083E-01 0.44802618E+02</pdfrwt>
<pdfrwt beam="2">  1       21 0.14186482E-02 0.44802618E+02</pdfrwt>
<totfact> 0.13182046E+07</totfact>
</mgrwt>
</event>
<event>
 4    1  0.2754379E+004  0.2729093E+02  0.7546771E-02  0.1630121E+00
         21   -1    0    0  503  502  0.00000000000E+00  0.00000000000E+00  0.70493865209E+02  0.70493865209E+02  0.00000000000E+00 0.  1.
         21   -1    0    0  501  503 -0.00000000000E+00 -0.00000000000E+00 -0.12479081015E+03  0.12479081015E+03  0.00000000000E+00 0. -1.
          2    1    1    2  501    0  0.26957176515E+02  0.42550729297E+01 -0.12056597510E+03  0.12361613715E+03  0.00000000000E+00 0. -1.
         -2    1    1    2    0  502 -0.26957176515E+02 -0.42550729297E+01  0.66269030159E+02  0.71668538212E+02  0.00000000000E+00 0.  1.
<mgrwt>
<rscale>  2 0.27290933E+02</rscale>
<asrwt>0</asrwt>
<pdfrwt beam="1">  1       21 0.10845210E-01 0.27290933E+02</pdfrwt>
<pdfrwt beam="2">  1       21 0.19198586E-01 0.27290933E+02</pdfrwt>
<totfact> 0.15988296E+06</totfact>
</mgrwt>
</event>
<event>
 4    1  0.2754379E+004  0.2339455E+02  0.7546771E-02  0.1685193E+00
         21   -1    0    0  501  502  0.00000000000E+00  0.00000000000E+00  0.25429164639E+01  0.25429164639E+01  0.00000000000E+00 0. -1.
         21   -1    0    0  502  503 -0.00000000000E+00 -0.00000000000E+00 -0.56763503275E+03  0.56763503275E+03  0.00000000000E+00 0.  1.
          2    1    1    2  501    0  0.22235875420E+02 -0.72712339160E+01 -0.57915646808E+02  0.62462205721E+02  0.00000000000E+00 0. -1.
         -2    1    1    2    0  503 -0.22235875420E+02  0.72712339160E+01 -0.50717646948E+03  0.50771574350E+03  0.00000000000E+00 0.  1.
<mgrwt>
<rscale>  2 0.23394551E+02</rscale>
<asrwt>0</asrwt>
<pdfrwt beam="1">  1       21 0.39121799E-03 0.23394551E+02</pdfrwt>
<pdfrwt beam="2">  1       21 0.87328450E-01 0.23394551E+02</pdfrwt>
<totfact> 0.14899125E+07</totfact>
</mgrwt>
</event>
<event>
 4    1  0.2754379E+004  0.2853730E+02  0.7546771E-02  0.1614843E+00
         21   -1    0    0  503  502  0.00000000000E+00  0.00000000000E+00  0.11282745137E+03  0.11282745137E+03  0.00000000000E+00 0.  1.
         21   -1    0    0  501  503 -0.00000000000E+00 -0.00000000000E+00 -0.18953781494E+02  0.18953781494E+02  0.00000000000E+00 0. -1.
          2    1    1    2  501    0 -0.26237608277E+02  0.11223443696E+02 -0.49113322647E+01  0.28956846532E+02  0.00000000000E+00 0. -1.
         -2    1    1    2    0  502  0.26237608277E+02 -0.11223443696E+02  0.98785002141E+02  0.10282438633E+03  0.00000000000E+00 0.  1.
<mgrwt>
<rscale>  2 0.28537305E+02</rscale>
<asrwt>0</asrwt>
<pdfrwt beam="1">  1       21 0.17358069E-01 0.28537305E+02</pdfrwt>
<pdfrwt beam="2">  1       21 0.29159665E-02 0.28537305E+02</pdfrwt>
<totfact> 0.16023178E+07</totfact>
</mgrwt>
</event>
<event>
 4    1  0.2754379E+004  0.2227729E+02  0.7546771E-02  0.1703500E+00
         21   -1    0    0  503  502  0.00000000000E+00  0.00000000000E+00  0.18849854117E+02  0.18849854117E+02  0.00000000000E+00 0. -1.
         21   -1    0    0  501  503 -0.00000000000E+00 -0.00000000000E+00 -0.26827935142E+02  0.26827935142E+02  0.00000000000E+00 0.  1.
          2    1    1    2  501    0 -0.11050262394E+02 -0.19343459811E+02 -0.87110977349E+00  0.22294316959E+02  0.00000000000E+00 0. -1.
         -2    1    1    2    0  502  0.11050262394E+02  0.19343459811E+02 -0.71069712516E+01  0.23383472300E+02  0.00000000000E+00 0.  1.
<mgrwt>
<rscale>  2 0.22277292E+02</rscale>
<asrwt>0</asrwt>
<pdfrwt beam="1">  1       21 0.28999776E-02 0.22277292E+02</pdfrwt>
<pdfrwt beam="2">  1       21 0.41273746E-02 0.22277292E+02</pdfrwt>
<totfact> 0.16214788E+08</totfact>
</mgrwt>
</event>
<event>
 4    1  0.2754379E+004  0.2504845E+02  0.7546771E-02  0.1660307E+00
         21   -1    0    0  503  502  0.00000000000E+00  0.00000000000E+00  0.22724480497E+01  0.22724480497E+01  0.00000000000E+00 0. -1.
         21   -1    0    0  501  503 -0.00000000000E+00 -0.00000000000E+00 -0.50638030369E+03  0.50638030369E+03  0.00000000000E+00 0.  1.
          2    1    1    2  501    0  0.10630991571E+02  0.22680535875E+02 -0.42356045663E+03  0.42430046560E+03  0.00000000000E+00 0.  1.
         -2    1    1    2    0  502 -0.10630991571E+02 -0.22680535875E+02 -0.80547399013E+02  0.84352286141E+02  0.00000000000E+00 0. -1.
<mgrwt>
<rscale>  2 0.25048447E+02</rscale>
<asrwt>0</asrwt>
<pdfrwt beam="1">  1       21 0.34960687E-03 0.25048447E+02</pdfrwt>
<pdfrwt beam="2">  1       21 0.77904779E-01 0.25048447E+02</pdfrwt>
<totfact> 0.22650665E+07</totfact>
</mgrwt>
</event>
<event>
 4    1  0.2754379E+004  0.2588983E+02  0.7546771E-02  0.1648540E+00
         21   -1    0    0  501  502  0.00000000000E+00  0.00000000000E+00  0.14547405001E+02  0.14547405001E+02  0.00000000000E+00 0. -1.
         21   -1    0    0  502  503 -0.00000000000E+00 -0.00000000000E+00 -0.22260812286E+03  0.22260812286E+03  0.00000000000E+00 0.  1.
          2    1    1    2  501    0  0.60517978003E+01 -0.25172580993E+02  0.15650144769E+01  0.25937084662E+02  0.00000000000E+00 0. -1.
         -2    1    1    2    0  503 -0.60517978003E+01  0.25172580993E+02 -0.20962573233E+03  0.21121844320E+03  0.00000000000E+00 0.  1.
<mgrwt>
<rscale>  2 0.25889826E+02</rscale>
<asrwt>0</asrwt>
<pdfrwt beam="1">  1       21 0.22380625E-02 0.25889826E+02</pdfrwt>
<pdfrwt beam="2">  1       21 0.34247401E-01 0.25889826E+02</pdfrwt>
<totfact> 0.70337414E+06</totfact>
</mgrwt>
</event>
<event>
 4    1  0.2754379E+004  0.3274866E+02  0.7546771E-02  0.1569553E+00
         21   -1    0    0  503  502  0.00000000000E+00  0.00000000000E+00  0.31320734240E+03  0.31320734240E+03  0.00000000000E+00 0.  1.
         21   -1    0    0  501  503 -0.00000000000E+00 -0.00000000000E+00 -0.38588661604E+01  0.38588661604E+01  0.00000000000E+00 0. -1.
          2    1    1    2  501    0 -0.68702143917E+01 -0.32019916411E+02  0.10146543685E+03  0.10661946242E+03  0.00000000000E+00 0. -1.
         -2    1    1    2    0  502  0.68702143917E+01  0.32019916411E+02  0.20788303939E+03  0.21044674614E+03  0.00000000000E+00 0.  1.
<mgrwt>
<rscale>  2 0.32748662E+02</rscale>
<asrwt>0</asrwt>
<pdfrwt beam="1">  1       21 0.48185725E-01 0.32748662E+02</pdfrwt>
<pdfrwt beam="2">  1       21 0.59367197E-03 0.32748662E+02</pdfrwt>
<totfact> 0.28713970E+07</totfact>
</mgrwt>
</event>
<event>
 4    1  0.2754379E+004  0.2041948E+02  0.7546771E-02  0.1737113E+00
         21   -1    0    0  503  502  0.00000000000E+00  0.00000000000E+00  0.82000525067E+02  0.82000525067E+02  0.00000000000E+00 0. -1.
         21   -1    0    0  501  503 -0.00000000000E+00 -0.00000000000E+00 -0.69589841232E+01  0.69589841232E+01  0.00000000000E+00 0.  1.
          2    1    1    2  501    0  0.38425167421E+01  0.20054675979E+02  0.14437495091E+02  0.25007923305E+02  0.00000000000E+00 0.  1.
         -2    1    1    2    0  502 -0.38425167421E+01 -0.20054675979E+02  0.60604045852E+02  0.63951585885E+02  0.00000000000E+00 0. -1.
<mgrwt>
<rscale>  2 0.20419475E+02</rscale>
<asrwt>0</asrwt>
<pdfrwt beam="1">  1       21 0.12615465E-01 0.20419475E+02</pdfrwt>
<pdfrwt beam="2">  1       21 0.10706130E-02 0.20419475E+02</pdfrwt>
<totfact> 0.11811274E+08</totfact>
</mgrwt>
</event>
<event>
 4    1  0.2754379E+004  0.2307252E+02  0.7546771E-02  0.1690337E+00
         21   -1    0    0  501  502  0.00000000000E+00  0.00000000000E+00  0.63722204981E+02  0.63722204981E+02  0.00000000000E+00 0.  1.
         21   -1    0    0  502  503 -0.00000000000E+00 -0.00000000000E+00 -0.98949477644E+01  0.98949477644E+01  0.00000000000E+00 0. -1.
          2    1    1    2  501    0  0.14418138639E+02  0.18012732897E+02  0.41438858958E+02  0.47429108151E+02  0.00000000000E+00 0. -1.
         -2    1    1    2    0  503 -0.14418138639E+02 -0.18012732897E+02  0.12388398258E+02  0.26188044594E+02  0.00000000000E+00 0.  1.
<mgrwt>
<rscale>  2 0.23072522E+02</rscale>
<asrwt>0</asrwt>
<pdfrwt beam="1">  1       21 0.98034159E-02 0.23072522E+02</pdfrwt>
<pdfrwt beam="2">  1       21 0.15222997E-02 0.23072522E+02</pdfrwt>
<totfact> 0.10940954E+08</totfact>
</mgrwt>
</event>
<event>
 4    1  0.2754379E+004  0.2175504E+02  0.7546771E-02  0.1712523E+00
         21   -1    0    0  501  502  0.00000000000E+00  0.00000000000E+00  0.41770984750E+02  0.41770984750E+02  0.00000000000E+00 0. -1.
         21   -1    0    0  502  503 -0.00000000000E+00 -0.00000000000E+00 -0.12856950595E+02  0.12856950595E+02  0.00000000000E+00 0.  1.
          2    1    1    2  501    0  0.16937147231E+02  0.13653385734E+02  0.23868794196E+02  0.32295529640E+02  0.00000000000E+00 0.  1.
         -2    1    1    2    0  503 -0.16937147231E+02 -0.13653385734E+02  0.50452399586E+01  0.22332405705E+02  0.00000000000E+00 0. -1.
<mgrwt>
<rscale>  2 0.21755043E+02</rscale>
<asrwt>0</asrwt>
<pdfrwt beam="1">  1       21 0.64263053E-02 0.21755043E+02</pdfrwt>
<pdfrwt beam="2">  1       21 0.19779924E-02 0.21755043E+02</pdfrwt>
<totfact> 0.14350462E+08</totfact>
</mgrwt>
</event>
<event>
 4    1  0.2754379E+004  0.2471207E+02  0.7546771E-02  0.1665172E+00
         21   -1    0    0  501  502  0.00000000000E+00  0.00000000000E+00  0.85631923141E+02  0.85631923141E+02  0.00000000000E+00 0. -1.
         21   -1    0    0  502  503 -0.00000000000E+00 -0.00000000000E+00 -0.37540619900E+02  0.37540619900E+02  0.00000000000E+00 0.  1.
          2    1    1    2  501    0  0.77644148097E+01  0.23460608890E+02  0.79474381952E+02  0.83227781981E+02  0.00000000000E+00 0. -1.
         -2    1    1    2    0  503 -0.77644148097E+01 -0.23460608890E+02 -0.31383078710E+02  0.39944761060E+02  0.00000000000E+00 0.  1.
<mgrwt>
<rscale>  2 0.24712068E+02</rscale>
<asrwt>0</asrwt>
<pdfrwt beam="1">  1       21 0.13174142E-01 0.24712068E+02</pdfrwt>
<pdfrwt beam="2">  1       21 0.57754800E-02 0.24712068E+02</pdfrwt>
<totfact> 0.84696928E+06</totfact>
</mgrwt>
</event>
<event>
 4    1  0.2754379E+004  0.2720364E+02  0.7546771E-02  0.1631229E+00
         21   -1    0    0  501  502  0.00000000000E+00  0.00000000000E+00  0.26626949387E+02  0.26626949387E+02  0.00000000000E+00 0.  1.
         21   -1    0    0  502  503 -0.00000000000E+00 -0.00000000000E+00 -0.36280910205E+02  0.36280910205E+02  0.00000000000E+00 0. -1.
          2    1    1    2  501    0 -0.18207103042E+02  0.20212363304E+02  0.10386921361E+02  0.29119175243E+02  0.00000000000E+00 0.  1.
         -2    1    1    2    0  503  0.18207103042E+02 -0.20212363304E+02 -0.20040882180E+02  0.33788684349E+02  0.00000000000E+00 0. -1.
<mgrwt>
<rscale>  2 0.27203644E+02</rscale>
<asrwt>0</asrwt>
<pdfrwt beam="1">  1       21 0.40964538E-02 0.27203644E+02</pdfrwt>
<pdfrwt beam="2">  1       21 0.55816785E-02 0.27203644E+02</pdfrwt>
<totfact> 0.61577260E+07</totfact>
</mgrwt>
</event>
<event>
 4    1  0.2754379E+004  0.2017148E+02  0.7546771E-02  0.1741939E+00
         21   -1    0    0  503  502  0.00000000000E+00  0.00000000000E+00  0.11144257300E+03  0.11144257300E+03  0.00000000000E+00 0. -1.
         21   -1    0    0  501  503 -0.00000000000E+00 -0.00000000000E+00 -0.42341178068E+01  0.42341178068E+01  0.00000000000E+00 0.  1.
          2    1    1    2  501    0 -0.14420865350E+02  0.14104153829E+02  0.75066391905E+02  0.77729349067E+02  0.00000000000E+00 0. -1.
         -2    1    1    2    0  502  0.14420865350E+02 -0.14104153829E+02  0.32142063285E+02  0.37947341737E+02  0.00000000000E+00 0.  1.
<mgrwt>
<rscale>  2 0.20171478E+02</rscale>
<asrwt>0</asrwt>
<pdfrwt beam="1">  1       21 0.17145009E-01 0.20171478E+02</pdfrwt>
<pdfrwt beam="2">  1       21 0.65140282E-03 0.20171478E+02</pdfrwt>
<totfact> 0.14670225E+08</totfact>
</mgrwt>
</event>
<event>
 4    1  0.2754379E+004  0.2049204E+02  0.7546771E-02  0.1735717E+00
         21   -1    0    0  501  502  0.00000000000E+00  0.00000000000E+00  0.26956818715E+02  0.26956818715E+02  0.00000000000E+00 0.  1.
         21   -1    0    0  502  503 -0.00000000000E+00 -0.00000000000E+00 -0.66503373474E+02  0.66503373474E+02  0.00000000000E+00 0. -1.
          2    1    1    2  501    0 -0.12572809344E+02 -0.16181718239E+02  0.21119206837E+02  0.29426933877E+02  0.00000000000E+00 0.  1.
         -2    1    1    2    0  503  0.12572809344E+02  0.16181718239E+02 -0.60665761596E+02  0.64033258312E+02  0.00000000000E+00 0. -1.
<mgrwt>
<rscale>  2 0.20492036E+02</rscale>
<asrwt>0</asrwt>
<pdfrwt beam="1">  1       21 0.41472029E-02 0.20492036E+02</pdfrwt>
<pdfrwt beam="2">  1       21 0.10231288E-01 0.20492036E+02</pdfrwt>
<totfact> 0.21031903E+07</totfact>
</mgrwt>
</event>
<event>
 4    1  0.2754379E+004  0.2492316E+02  0.7546771E-02  0.1662108E+00
         21   -1    0    0  501  502  0.00000000000E+00  0.00000000000E+00  0.41893097787E+01  0.41893097787E+01  0.00000000000E+00 0.  1.
         21   -1    0    0  502  503 -0.00000000000E+00 -0.00000000000E+00 -0.22195136729E+03  0.22195136729E+03  0.00000000000E+00 0. -1.
          2    1    1    2  501    0 -0.18105831024E+02 -0.17127250539E+02 -0.43734968119E+02  0.50337970405E+02  0.00000000000E+00 0.  1.
         -2    1    1    2    0  503  0.18105831024E+02  0.17127250539E+02 -0.17402708939E+03  0.17580270667E+03  0.00000000000E+00 0. -1.
<mgrwt>
<rscale>  2 0.24923158E+02</rscale>
<asrwt>0</asrwt>
<pdfrwt beam="1">  1       21 0.64450912E-03 0.24923158E+02</pdfrwt>
<pdfrwt beam="2">  1       21 0.34146368E-01 0.24923158E+02</pdfrwt>
<totfact> 0.46349815E+07</totfact>
</mgrwt>
</event>
<event>
 4    1  0.2754379E+004  0.4996859E+02  0.7546771E-02  0.1445511E+00
         21   -1    0    0  501  502  0.00000000000E+00  0.00000000000E+00  0.14924913218E+04  0.14924913218E+04  0.00000000000E+00 0. -1.
         21   -1    0    0  502  503 -0.00000000000E+00 -0.00000000000E+00 -0.22275671855E+01  0.22275671855E+01  0.00000000000E+00 0.  1.
          2    1    1    2  501    0  0.40848317262E+02  0.28779762373E+02  0.11180484894E+04  0.11191645475E+04  0.00000000000E+00 0. -1.
         -2    1    1    2    0  503 -0.40848317262E+02 -0.28779762373E+02  0.37221526524E+03  0.37555434151E+03  0.00000000000E+00 0.  1.
<mgrwt>
<rscale>  2 0.49968588E+02</rscale>
<asrwt>0</asrwt>
<pdfrwt beam="1">  1       21 0.22961325E+00 0.49968588E+02</pdfrwt>
<pdfrwt beam="2">  1       21 0.34270384E-03 0.49968588E+02</pdfrwt>
<totfact> 0.18447792E+06</totfact>
</mgrwt>
</event>
<event>
 4    1  0.2754379E+004  0.3754442E+02  0.7546771E-02  0.1527101E+00
         21   -1    0    0  503  502  0.00000000000E+00  0.00000000000E+00  0.17253948591E+03  0.17253948591E+03  0.00000000000E+00 0.  1.
         21   -1    0    0  501  503 -0.00000000000E+00 -0.00000000000E+00 -0.16830588470E+02  0.16830588470E+02  0.00000000000E+00 0. -1.
          2    1    1    2  501    0  0.15200742290E+02  0.34329588704E+02  0.99317772003E+01  0.38835852316E+02  0.00000000000E+00 0. -1.
         -2    1    1    2    0  502 -0.15200742290E+02 -0.34329588704E+02  0.14577712024E+03  0.15053422207E+03  0.00000000000E+00 0.  1.
<mgrwt>
<rscale>  2 0.37544417E+02</rscale>
<asrwt>0</asrwt>
<pdfrwt beam="1">  1       21 0.26544535E-01 0.37544417E+02</pdfrwt>
<pdfrwt beam="2">  1       21 0.25893214E-02 0.37544417E+02</pdfrwt>
<totfact> 0.94606802E+06</totfact>
</mgrwt>
</event>
<event>
 4    1  0.2754379E+004  0.2084979E+02  0.7546771E-02  0.1728939E+00
         21   -1    0    0  503  502  0.00000000000E+00  0.00000000000E+00  0.21742788976E+03  0.21742788976E+03  0.00000000000E+00 0. -1.
         21   -1    0    0  501  503 -0.00000000000E+00 -0.00000000000E+00 -0.27788526507E+01  0.27788526507E+01  0.00000000000E+00 0.  1.
          2    1    1    2  501    0 -0.10357657904E+02 -0.18095101254E+02  0.49009887441E+02  0.53260518525E+02  0.00000000000E+00 0.  1.
         -2    1    1    2    0  502  0.10357657904E+02  0.18095101254E+02  0.16563914967E+03  0.16694622388E+03  0.00000000000E+00 0. -1.
<mgrwt>
<rscale>  2 0.20849791E+02</rscale>
<asrwt>0</asrwt>
<pdfrwt beam="1">  1       21 0.33450431E-01 0.20849791E+02</pdfrwt>
<pdfrwt beam="2">  1       21 0.42751596E-03 0.20849791E+02</pdfrwt>
<totfact> 0.84386258E+07</totfact>
</mgrwt>
</event>
<event>
 4    1  0.2754379E+004  0.2649001E+02  0.7546771E-02  0.1640479E+00
         21   -1    0    0  501  502  0.00000000000E+00  0.00000000000E+00  0.44889488064E+02  0.44889488064E+02  0.00000000000E+00 0.  1.
         21   -1    0    0  502  503 -0.00000000000E+00 -0.00000000000E+00 -0.19940381841E+03  0.19940381841E+03  0.00000000000E+00 0. -1.
          2    1    1    2  501    0  0.13349941231E+02  0.22880119671E+02  0.40003964522E+02  0.47979557986E+02  0.00000000000E+00 0.  1.
         -2    1    1    2    0  503 -0.13349941231E+02 -0.22880119671E+02 -0.19451829486E+03  0.19631374848E+03  0.00000000000E+00 0. -1.
<mgrwt>
<rscale>  2 0.26490013E+02</rscale>
<asrwt>0</asrwt>
<pdfrwt beam="1">  1       21 0.69060752E-02 0.26490013E+02</pdfrwt>
<pdfrwt beam="2">  1       21 0.30677510E-01 0.26490013E+02</pdfrwt>
<totfact> 0.14503992E+06</totfact>
</mgrwt>
</event>
<event>
 4    1  0.2754379E+004  0.2091324E+02  0.7546771E-02  0.1727754E+00
         21   -1    0    0  503  502  0.00000000000E+00  0.00000000000E+00  0.89441062833E+02  0.89441062833E+02  0.00000000000E+00 0.  1.
         21   -1    0    0  501  503 -0.00000000000E+00 -0.00000000000E+00 -0.76486308420E+01  0.76486308420E+01  0.00000000000E+00 0. -1.
          2    1    1    2  501    0 -0.20898597789E+02  0.78252273534E+00  0.11742039615E+02  0.23984145299E+02  0.00000000000E+00 0. -1.
         -2    1    1    2    0  502  0.20898597789E+02 -0.78252273534E+00  0.70050392376E+02  0.73105548376E+02  0.00000000000E+00 0.  1.
<mgrwt>
<rscale>  2 0.20913243E+02</rscale>
<asrwt>0</asrwt>
<pdfrwt beam="1">  1       21 0.13760163E-01 0.20913243E+02</pdfrwt>
<pdfrwt beam="2">  1       21 0.11767125E-02 0.20913243E+02</pdfrwt>
<totfact> 0.89208097E+07</totfact>
</mgrwt>
</event>
<event>
 4    1  0.2754379E+004  0.6005634E+02  0.7546771E-02  0.1397595E+00
         21   -1    0    0  501  502  0.00000000000E+00  0.00000000000E+00  0.24145621777E+03  0.24145621777E+03  0.00000000000E+00 0. -1.
         21   -1    0    0  502  503 -0.00000000000E+00 -0.00000000000E+00 -0.15278554259E+02  0.15278554259E+02  0.00000000000E+00 0.  1.
          2    1    1    2  501    0 -0.11143465759E+02 -0.59013450379E+02  0.13226641690E+03  0.14526241494E+03  0.00000000000E+00 0. -1.
         -2    1    1    2    0  503  0.11143465759E+02  0.59013450379E+02  0.93911246611E+02  0.11147235709E+03  0.00000000000E+00 0.  1.
<mgrwt>
<rscale>  2 0.60056342E+02</rscale>
<asrwt>0</asrwt>
<pdfrwt beam="1">  1       21 0.37147108E-01 0.60056342E+02</pdfrwt>
<pdfrwt beam="2">  1       21 0.23505470E-02 0.60056342E+02</pdfrwt>
<totfact> 0.61720167E+06</totfact>
</mgrwt>
</event>
<event>
 4    1  0.2754379E+004  0.2732987E+02  0.7546771E-02  0.1629629E+00
         21   -1    0    0  503  502  0.00000000000E+00  0.00000000000E+00  0.40812369069E+01  0.40812369069E+01  0.00000000000E+00 0.  1.
         21   -1    0    0  501  503 -0.00000000000E+00 -0.00000000000E+00 -0.26252145500E+03  0.26252145500E+03  0.00000000000E+00 0. -1.
          2    1    1    2  501    0 -0.16670827682E+02 -0.21656526653E+02 -0.20257976682E+03  0.20441497882E+03  0.00000000000E+00 0. -1.
         -2    1    1    2    0  502  0.16670827682E+02  0.21656526653E+02 -0.55860451277E+02  0.62187713088E+02  0.00000000000E+00 0.  1.
<mgrwt>
<rscale>  2 0.27329867E+02</rscale>
<asrwt>0</asrwt>
<pdfrwt beam="1">  1       21 0.62788253E-03 0.27329867E+02</pdfrwt>
<pdfrwt beam="2">  1       21 0.40387921E-01 0.27329867E+02</pdfrwt>
<totfact> 0.35873990E+07</totfact>
</mgrwt>
</event>
<event>
 4    1  0.2754379E+004  0.3043873E+02  0.7546771E-02  0.1593289E+00
         21   -1    0    0  503  502  0.00000000000E+00  0.00000000000E+00  0.25867108220E+02  0.25867108220E+02  0.00000000000E+00 0.  1.
         21   -1    0    0  501  503 -0.00000000000E+00 -0.00000000000E+00 -0.74762740103E+02  0.74762740103E+02  0.00000000000E+00 0. -1.
          2    1    1    2  501    0  0.67378001322E+01  0.29683640006E+02 -0.60762044436E+02  0.67959859319E+02  0.00000000000E+00 0. -1.
         -2    1    1    2    0  502 -0.67378001322E+01 -0.29683640006E+02  0.11866412553E+02  0.32669989003E+02  0.00000000000E+00 0.  1.
<mgrwt>
<rscale>  2 0.30438732E+02</rscale>
<asrwt>0</asrwt>
<pdfrwt beam="1">  1       21 0.39795552E-02 0.30438732E+02</pdfrwt>
<pdfrwt beam="2">  1       21 0.11501960E-01 0.30438732E+02</pdfrwt>
<totfact> 0.20073993E+07</totfact>
</mgrwt>
</event>
<event>
 4    1  0.2754379E+004  0.2613278E+02  0.7546771E-02  0.1645245E+00
         21   -1    0    0  501  502  0.00000000000E+00  0.00000000000E+00  0.13611484571E+02  0.13611484571E+02  0.00000000000E+00 0.  1.
         21   -1    0    0  502  503 -0.00000000000E+00 -0.00000000000E+00 -0.71401685840E+02  0.71401685840E+02  0.00000000000E+00 0. -1.
          2    1    1    2  501    0 -0.37538934057E+01 -0.25861752727E+02 -0.57174808760E+01  0.26750916945E+02  0.00000000000E+00 0.  1.
         -2    1    1    2    0  503  0.37538934057E+01  0.25861752727E+02 -0.52072720393E+02  0.58262253466E+02  0.00000000000E+00 0. -1.
<mgrwt>
<rscale>  2 0.26132776E+02</rscale>
<asrwt>0</asrwt>
<pdfrwt beam="1">  1       21 0.20940745E-02 0.26132776E+02</pdfrwt>
<pdfrwt beam="2">  1       21 0.10984875E-01 0.26132776E+02</pdfrwt>
<totfact> 0.57402268E+07</totfact>
</mgrwt>
</event>
<event>
 4    1  0.2754379E+004  0.2287777E+02  0.7546771E-02  0.1693499E+00
         21   -1    0    0  503  502  0.00000000000E+00  0.00000000000E+00  0.71361019747E+00  0.71361019747E+00  0.00000000000E+00 0.  1.
         21   -1    0    0  501  503 -0.00000000000E+00 -0.00000000000E+00 -0.77979659084E+03  0.77979659084E+03  0.00000000000E+00 0. -1.
          2    1    1    2  501    0 -0.19625077082E+02 -0.11757914088E+02 -0.48468978107E+03  0.48522940560E+03  0.00000000000E+00 0. -1.
         -2    1    1    2    0  502  0.19625077082E+02  0.11757914088E+02 -0.29439319957E+03  0.29528079543E+03  0.00000000000E+00 0.  1.
<mgrwt>
<rscale>  2 0.22877766E+02</rscale>
<asrwt>0</asrwt>
<pdfrwt beam="1">  1       21 0.10978648E-03 0.22877766E+02</pdfrwt>
<pdfrwt beam="2">  1       21 0.11996838E+00 0.22877766E+02</pdfrwt>
<totfact> 0.46354342E+07</totfact>
</mgrwt>
</event>
<event>
 4    1  0.2754379E+004  0.2623456E+02  0.7546771E-02  0.1643877E+00
         21   -1    0    0  503  502  0.00000000000E+00  0.00000000000E+00  0.48489957938E+02  0.48489957938E+02  0.00000000000E+00 0.  1.
         21   -1    0    0  501  503 -0.00000000000E+00 -0.00000000000E+00 -0.15905262005E+02  0.15905262005E+02  0.00000000000E+00 0. -1.
          2    1    1    2  501    0 -0.38065953431E+01 -0.25956927112E+02  0.57302860273E+01  0.26853089415E+02  0.00000000000E+00 0. -1.
         -2    1    1    2    0  502  0.38065953431E+01  0.25956927112E+02  0.26854409906E+02  0.37542130528E+02  0.00000000000E+00 0.  1.
<mgrwt>
<rscale>  2 0.26234562E+02</rscale>
<asrwt>0</asrwt>
<pdfrwt beam="1">  1       21 0.74599935E-02 0.26234562E+02</pdfrwt>
<pdfrwt beam="2">  1       21 0.24469634E-02 0.26234562E+02</pdfrwt>
<totfact> 0.85581698E+07</totfact>
</mgrwt>
</event>
<event>
 4    1  0.2754379E+004  0.2223167E+02  0.7546771E-02  0.1704276E+00
         21   -1    0    0  501  502  0.00000000000E+00  0.00000000000E+00  0.34808989983E+01  0.34808989983E+01  0.00000000000E+00 0.  1.
         21   -1    0    0  502  503 -0.00000000000E+00 -0.00000000000E+00 -0.27847542743E+03  0.27847542743E+03  0.00000000000E+00 0. -1.
          2    1    1    2  501    0  0.19402309800E+02 -0.10853466033E+02 -0.38800238902E+02  0.44718071173E+02  0.00000000000E+00 0.  1.
         -2    1    1    2    0  503 -0.19402309800E+02  0.10853466033E+02 -0.23619428953E+03  0.23723825526E+03  0.00000000000E+00 0. -1.
<mgrwt>
<rscale>  2 0.22231674E+02</rscale>
<asrwt>0</asrwt>
<pdfrwt beam="1">  1       21 0.53552286E-03 0.22231674E+02</pdfrwt>
<pdfrwt beam="2">  1       21 0.42842378E-01 0.22231674E+02</pdfrwt>
<totfact> 0.38812953E+07</totfact>
</mgrwt>
</event>
<event>
 4    1  0.2754379E+004  0.2326870E+02  0.7546771E-02  0.1687191E+00
         21   -1    0    0  503  502  0.00000000000E+00  0.00000000000E+00  0.12400601690E+02  0.12400601690E+02  0.00000000000E+00 0. -1.
         21   -1    0    0  501  503 -0.00000000000E+00 -0.00000000000E+00 -0.20867464272E+03  0.20867464272E+03  0.00000000000E+00 0.  1.
          2    1    1    2  501    0  0.48331129597E+01  0.22761230431E+02 -0.19643263723E+03  0.19780599981E+03  0.00000000000E+00 0.  1.
         -2    1    1    2    0  502 -0.48331129597E+01 -0.22761230431E+02  0.15859619771E+00  0.23269244603E+02  0.00000000000E+00 0. -1.
<mgrwt>
<rscale>  2 0.23268704E+02</rscale>
<asrwt>0</asrwt>
<pdfrwt beam="1">  1       21 0.19077850E-02 0.23268704E+02</pdfrwt>
<pdfrwt beam="2">  1       21 0.32103790E-01 0.23268704E+02</pdfrwt>
<totfact> 0.99510499E+06</totfact>
</mgrwt>
</event>
<event>
 4    1  0.2754379E+004  0.2833143E+02  0.7546771E-02  0.1617300E+00
         21   -1    0    0  503  502  0.00000000000E+00  0.00000000000E+00  0.40736013493E+02  0.40736013493E+02  0.00000000000E+00 0. -1.
         21   -1    0    0  501  503 -0.00000000000E+00 -0.00000000000E+00 -0.56543450749E+02  0.56543450749E+02  0.00000000000E+00 0.  1.
          2    1    1    2  501    0  0.28059171826E+02  0.39182366798E+01 -0.47164192563E+02  0.55019367157E+02  0.00000000000E+00 0.  1.
         -2    1    1    2    0  502 -0.28059171826E+02 -0.39182366798E+01  0.31356755307E+02  0.42260097085E+02  0.00000000000E+00 0. -1.
<mgrwt>
<rscale>  2 0.28331426E+02</rscale>
<asrwt>0</asrwt>
<pdfrwt beam="1">  1       21 0.62670790E-02 0.28331426E+02</pdfrwt>
<pdfrwt beam="2">  1       21 0.86989924E-02 0.28331426E+02</pdfrwt>
<totfact> 0.15223438E+07</totfact>
</mgrwt>
</event>
<event>
 4    1  0.2754379E+004  0.2356584E+02  0.7546771E-02  0.1682499E+00
         21   -1    0    0  503  502  0.00000000000E+00  0.00000000000E+00  0.13533161522E+03  0.13533161522E+03  0.00000000000E+00 0.  1.
         21   -1    0    0  501  503 -0.00000000000E+00 -0.00000000000E+00 -0.64616876627E+01  0.64616876627E+01  0.00000000000E+00 0. -1.
          2    1    1    2  501    0 -0.22130994845E+02  0.80973890927E+01  0.21606601028E+02  0.31971766466E+02  0.00000000000E+00 0. -1.
         -2    1    1    2    0  502  0.22130994845E+02 -0.80973890927E+01  0.10726332653E+03  0.10982153641E+03  0.00000000000E+00 0.  1.
<mgrwt>
<rscale>  2 0.23565836E+02</rscale>
<asrwt>0</asrwt>
<pdfrwt beam="1">  1       21 0.20820246E-01 0.23565836E+02</pdfrwt>
<pdfrwt beam="2">  1       21 0.99410589E-03 0.23565836E+02</pdfrwt>
<totfact> 0.58289874E+07</totfact>
</mgrwt>
</event>
<event>
 4    1  0.2754379E+004  0.2023576E+02  0.7546771E-02  0.1740680E+00
         21   -1    0    0  501  502  0.00000000000E+00  0.00000000000E+00  0.24390051521E+02  0.24390051521E+02  0.00000000000E+00 0.  1.
         21   -1    0    0  502  503 -0.00000000000E+00 -0.00000000000E+00 -0.17859147780E+02  0.17859147780E+02  0.00000000000E+00 0. -1.
          2    1    1    2  501    0  0.47325247835E+01 -0.19674578397E+02  0.84363929792E+01  0.21923926483E+02  0.00000000000E+00 0. -1.
         -2    1    1    2    0  503 -0.47325247835E+01  0.19674578397E+02 -0.19054892382E+01  0.20325272819E+02  0.00000000000E+00 0.  1.
<mgrwt>
<rscale>  2 0.20235756E+02</rscale>
<asrwt>0</asrwt>
<pdfrwt beam="1">  1       21 0.37523156E-02 0.20235756E+02</pdfrwt>
<pdfrwt beam="2">  1       21 0.27475612E-02 0.20235756E+02</pdfrwt>
<totfact> 0.19858574E+08</totfact>
</mgrwt>
</event>
<event>
 4    1  0.2754379E+004  0.2544060E+02  0.7546771E-02  0.1654753E+00
         21   -1    0    0  501  502  0.00000000000E+00  0.00000000000E+00  0.30108356841E+04  0.30108356841E+04  0.00000000000E+00 0. -1.
         21   -1    0    0  502  503 -0.00000000000E+00 -0.00000000000E+00 -0.21768355362E+00  0.21768355362E+00  0.00000000000E+00 0.  1.
          2    1    1    2  501    0 -0.25288664478E+02 -0.27762453860E+01  0.16735570326E+04  0.16737503892E+04  0.00000000000E+00 0. -1.
         -2    1    1    2    0  503  0.25288664478E+02  0.27762453860E+01  0.13370609680E+04  0.13373029785E+04  0.00000000000E+00 0.  1.
<mgrwt>
<rscale>  2 0.25440599E+02</rscale>
<asrwt>0</asrwt>
<pdfrwt beam="1">  1       21 0.46317214E+00 0.25440599E+02</pdfrwt>
<pdfrwt beam="2">  1       21 0.33492189E-04 0.25440599E+02</pdfrwt>
<totfact> 0.30325917E+06</totfact>
</mgrwt>
</event>
<event>
 4    1  0.2754379E+004  0.2413742E+02  0.7546771E-02  0.1673710E+00
         21   -1    0    0  501  502  0.00000000000E+00  0.00000000000E+00  0.65794835617E+03  0.65794835617E+03  0.00000000000E+00 0. -1.
         21   -1    0    0  502  503 -0.00000000000E+00 -0.00000000000E+00 -0.89017459028E+00  0.89017459028E+00  0.00000000000E+00 0.  1.
          2    1    1    2  501    0  0.15833244826E+02  0.18218769771E+02  0.30466494695E+03  0.30561960852E+03  0.00000000000E+00 0. -1.
         -2    1    1    2    0  503 -0.15833244826E+02 -0.18218769771E+02  0.35239323464E+03  0.35321892224E+03  0.00000000000E+00 0.  1.
<mgrwt>
<rscale>  2 0.24137424E+02</rscale>
<asrwt>0</asrwt>
<pdfrwt beam="1">  1       21 0.10122244E+00 0.24137424E+02</pdfrwt>
<pdfrwt beam="2">  1       21 0.13695046E-03 0.24137424E+02</pdfrwt>
<totfact> 0.49915758E+07</totfact>
</mgrwt>
</event>
<event>
 4    1  0.2754379E+004  0.4447304E+02  0.7546771E-02  0.1477658E+00
         21   -1    0    0  501  502  0.00000000000E+00  0.00000000000E+00  0.92675506590E+01  0.92675506590E+01  0.00000000000E+00 0.  1.
         21   -1    0    0  502  503 -0.00000000000E+00 -0.00000000000E+00 -0.26297761397E+03  0.26297761397E+03  0.00000000000E+00 0. -1.
          2    1    1    2  501    0 -0.41221951216E+00 -0.44471128608E+02 -0.67761504871E+02  0.81052284033E+02  0.00000000000E+00 0.  1.
         -2    1    1    2    0  503  0.41221951216E+00  0.44471128608E+02 -0.18594855844E+03  0.19119288060E+03  0.00000000000E+00 0. -1.
<mgrwt>
<rscale>  2 0.44473039E+02</rscale>
<asrwt>0</asrwt>
<pdfrwt beam="1">  1       21 0.14257770E-02 0.44473039E+02</pdfrwt>
<pdfrwt beam="2">  1       21 0.40458095E-01 0.44473039E+02</pdfrwt>
<totfact> 0.11120343E+07</totfact>
</mgrwt>
</event>
<event>
 4    1  0.2754379E+004  0.2679580E+02  0.7546771E-02  0.1636472E+00
         21   -1    0    0  503  502  0.00000000000E+00  0.00000000000E+00  0.69338047837E+02  0.69338047837E+02  0.00000000000E+00 0. -1.
         21   -1    0    0  501  503 -0.00000000000E+00 -0.00000000000E+00 -0.13404416753E+02  0.13404416753E+02  0.00000000000E+00 0.  1.
          2    1    1    2  501    0 -0.67780084770E+01  0.25924382503E+02  0.82351912463E+01  0.28032719845E+02  0.00000000000E+00 0.  1.
         -2    1    1    2    0  502  0.67780084770E+01 -0.25924382503E+02  0.47698439837E+02  0.54709744744E+02  0.00000000000E+00 0. -1.
<mgrwt>
<rscale>  2 0.26795802E+02</rscale>
<asrwt>0</asrwt>
<pdfrwt beam="1">  1       21 0.10667392E-01 0.26795802E+02</pdfrwt>
<pdfrwt beam="2">  1       21 0.20622180E-02 0.26795802E+02</pdfrwt>
<totfact> 0.62106531E+07</totfact>
</mgrwt>
</event>
<event>
 4    1  0.2754379E+004  0.2158929E+02  0.7546771E-02  0.1715453E+00
         21   -1    0    0  503  502  0.00000000000E+00  0.00000000000E+00  0.76688598039E+03  0.76688598039E+03  0.00000000000E+00 0. -1.
         21   -1    0    0  501  503 -0.00000000000E+00 -0.00000000000E+00 -0.14506783625E+01  0.14506783625E+01  0.00000000000E+00 0.  1.
          2    1    1    2  501    0  0.19080237549E+02  0.10101578733E+02  0.89882100033E+02  0.92438570219E+02  0.00000000000E+00 0.  1.
         -2    1    1    2    0  502 -0.19080237549E+02 -0.10101578733E+02  0.67555320200E+03  0.67589808854E+03  0.00000000000E+00 0. -1.
<mgrwt>
<rscale>  2 0.21589288E+02</rscale>
<asrwt>0</asrwt>
<pdfrwt beam="1">  1       21 0.11798213E+00 0.21589288E+02</pdfrwt>
<pdfrwt beam="2">  1       21 0.22318190E-03 0.21589288E+02</pdfrwt>
<totfact> 0.17196164E+07</totfact>
</mgrwt>
</event>
<event>
 4    1  0.2754379E+004  0.2015362E+02  0.7546771E-02  0.1742290E+00
         21   -1    0    0  501  502  0.00000000000E+00  0.00000000000E+00  0.91776720500E+02  0.91776720500E+02  0.00000000000E+00 0.  1.
         21   -1    0    0  502  503 -0.00000000000E+00 -0.00000000000E+00 -0.45357599471E+01  0.45357599471E+01  0.00000000000E+00 0. -1.
          2    1    1    2  501    0 -0.14656710370E+02 -0.13832900470E+02  0.51124824810E+02  0.54953762439E+02  0.00000000000E+00 0.  1.
         -2    1    1    2    0  503  0.14656710370E+02  0.13832900470E+02  0.36116135743E+02  0.41358718008E+02  0.00000000000E+00 0. -1.
<mgrwt>
<rscale>  2 0.20153617E+02</rscale>
<asrwt>0</asrwt>
<pdfrwt beam="1">  1       21 0.14119494E-01 0.20153617E+02</pdfrwt>
<pdfrwt beam="2">  1       21 0.69780929E-03 0.20153617E+02</pdfrwt>
<totfact> 0.18419130E+08</totfact>
</mgrwt>
</event>
<event>
 4    1  0.2754379E+004  0.2071909E+02  0.7546771E-02  0.1731395E+00
         21   -1    0    0  503  502  0.00000000000E+00  0.00000000000E+00  0.38297022356E+03  0.38297022356E+03  0.00000000000E+00 0.  1.
         21   -1    0    0  501  503 -0.00000000000E+00 -0.00000000000E+00 -0.15651618218E+01  0.15651618218E+01  0.00000000000E+00 0. -1.
          2    1    1    2  501    0  0.36765817989E+01 -0.20390280661E+02  0.88270898367E+02  0.90669908447E+02  0.00000000000E+00 0. -1.
         -2    1    1    2    0  502 -0.36765817989E+01  0.20390280661E+02  0.29313416337E+03  0.29386547693E+03  0.00000000000E+00 0.  1.
<mgrwt>
<rscale>  2 0.20719093E+02</rscale>
<asrwt>0</asrwt>
<pdfrwt beam="1">  1       21 0.58918422E-01 0.20719093E+02</pdfrwt>
<pdfrwt beam="2">  1       21 0.24079443E-03 0.20719093E+02</pdfrwt>
<totfact> 0.66053373E+07</totfact>
</mgrwt>
</event>
<event>
 4    1  0.2754379E+004  0.4664636E+02  0.7546771E-02  0.1464318E+00
         21   -1    0    0  501  502  0.00000000000E+00  0.00000000000E+00  0.96465808662E+01  0.96465808662E+01  0.00000000000E+00 0. -1.
         21   -1    0    0  502  503 -0.00000000000E+00 -0.00000000000E+00 -0.27327568460E+03  0.27327568460E+03  0.00000000000E+00 0.  1.
          2    1    1    2  501    0  0.20131234733E+02  0.42078695984E+02 -0.72703731662E+02  0.86381224031E+02  0.00000000000E+00 0. -1.
         -2    1    1    2    0  503 -0.20131234733E+02 -0.42078695984E+02 -0.19092537207E+03  0.19654104143E+03  0.00000000000E+00 0.  1.
<mgrwt>
<rscale>  2 0.46646364E+02</rscale>
<asrwt>0</asrwt>
<pdfrwt beam="1">  1       21 0.14840893E-02 0.46646364E+02</pdfrwt>
<pdfrwt beam="2">  1       21 0.42042415E-01 0.46646364E+02</pdfrwt>
<totfact> 0.97519715E+06</totfact>
</mgrwt>
</event>
<event>
 4    1  0.2754379E+004  0.3284043E+02  0.7546771E-02  0.1568659E+00
         21   -1    0    0  501  502  0.00000000000E+00  0.00000000000E+00  0.19845235750E+03  0.19845235750E+03  0.00000000000E+00 0. -1.
         21   -1    0    0  502  503 -0.00000000000E+00 -0.00000000000E+00 -0.29302705856E+02  0.29302705856E+02  0.00000000000E+00 0.  1.
          2    1    1    2  501    0  0.24713527665E+02 -0.21627189712E+02  0.18735133574E+03  0.19020782526E+03  0.00000000000E+00 0. -1.
         -2    1    1    2    0  503 -0.24713527665E+02  0.21627189712E+02 -0.18201684102E+02  0.37547238096E+02  0.00000000000E+00 0.  1.
<mgrwt>
<rscale>  2 0.32840429E+02</rscale>
<asrwt>0</asrwt>
<pdfrwt beam="1">  1       21 0.30531131E-01 0.32840429E+02</pdfrwt>
<pdfrwt beam="2">  1       21 0.45081087E-02 0.32840429E+02</pdfrwt>
<totfact> 0.29799154E+06</totfact>
</mgrwt>
</event>
<event>
 4    1  0.2754379E+004  0.2953431E+02  0.7546771E-02  0.1603294E+00
         21   -1    0    0  501  502  0.00000000000E+00  0.00000000000E+00  0.90711125093E+02  0.90711125093E+02  0.00000000000E+00 0. -1.
         21   -1    0    0  502  503 -0.00000000000E+00 -0.00000000000E+00 -0.20865946949E+02  0.20865946949E+02  0.00000000000E+00 0.  1.
          2    1    1    2  501    0  0.14765929031E+02 -0.25578174595E+02  0.75886525682E+02  0.81431200752E+02  0.00000000000E+00 0. -1.
         -2    1    1    2    0  503 -0.14765929031E+02  0.25578174595E+02 -0.60413475382E+01  0.30145871290E+02  0.00000000000E+00 0.  1.
<mgrwt>
<rscale>  2 0.29534314E+02</rscale>
<asrwt>0</asrwt>
<pdfrwt beam="1">  1       21 0.13955557E-01 0.29534314E+02</pdfrwt>
<pdfrwt beam="2">  1       21 0.32101457E-02 0.29534314E+02</pdfrwt>
<totfact> 0.20200169E+07</totfact>
</mgrwt>
</event>
<event>
 4    1  0.2754379E+004  0.2384716E+02  0.7546771E-02  0.1678135E+00
         21   -1    0    0  501  502  0.00000000000E+00  0.00000000000E+00  0.50831893253E+01  0.50831893253E+01  0.00000000000E+00 0. -1.
         21   -1    0    0  502  503 -0.00000000000E+00 -0.00000000000E+00 -0.13212766713E+03  0.13212766713E+03  0.00000000000E+00 0.  1.
          2    1    1    2  501    0  0.15688009974E+02  0.17960330767E+02 -0.36663138640E+02  0.43736402151E+02  0.00000000000E+00 0. -1.
         -2    1    1    2    0  503 -0.15688009974E+02 -0.17960330767E+02 -0.90381339166E+02  0.93474454305E+02  0.00000000000E+00 0.  1.
<mgrwt>
<rscale>  2 0.23847162E+02</rscale>
<asrwt>0</asrwt>
<pdfrwt beam="1">  1       21 0.78202906E-03 0.23847162E+02</pdfrwt>
<pdfrwt beam="2">  1       21 0.20327335E-01 0.23847162E+02</pdfrwt>
<totfact> 0.87358948E+07</totfact>
</mgrwt>
</event>
<event>
 4    1  0.2754379E+004  0.3072626E+02  0.7546771E-02  0.1590197E+00
         21   -1    0    0  501  502  0.00000000000E+00  0.00000000000E+00  0.68607896374E+01  0.68607896374E+01  0.00000000000E+00 0. -1.
         21   -1    0    0  502  503 -0.00000000000E+00 -0.00000000000E+00 -0.21771370891E+03  0.21771370891E+03  0.00000000000E+00 0.  1.
          2    1    1    2  501    0  0.88166899326E+01  0.29434143414E+02 -0.37315344134E+02  0.48337746407E+02  0.00000000000E+00 0. -1.
         -2    1    1    2    0  503 -0.88166899326E+01 -0.29434143414E+02 -0.17353757514E+03  0.17623675214E+03  0.00000000000E+00 0.  1.
<mgrwt>
<rscale>  2 0.30726256E+02</rscale>
<asrwt>0</asrwt>
<pdfrwt beam="1">  1       21 0.10555063E-02 0.30726256E+02</pdfrwt>
<pdfrwt beam="2">  1       21 0.33494411E-01 0.30726256E+02</pdfrwt>
<totfact> 0.23882584E+07</totfact>
</mgrwt>
</event>
<event>
 4    1  0.2754379E+004  0.3403219E+02  0.7546771E-02  0.1557367E+00
         21   -1    0    0  501  502  0.00000000000E+00  0.00000000000E+00  0.71875723791E+01  0.71875723791E+01  0.00000000000E+00 0. -1.
         21   -1    0    0  502  503 -0.00000000000E+00 -0.00000000000E+00 -0.22678662421E+03  0.22678662421E+03  0.00000000000E+00 0.  1.
          2    1    1    2  501    0 -0.29561240043E+02  0.16861872253E+02 -0.46857211993E+02  0.57911898299E+02  0.00000000000E+00 0. -1.
         -2    1    1    2    0  503  0.29561240043E+02 -0.16861872253E+02 -0.17274183984E+03  0.17606229829E+03  0.00000000000E+00 0.  1.
<mgrwt>
<rscale>  2 0.34032185E+02</rscale>
<asrwt>0</asrwt>
<pdfrwt beam="1">  1       21 0.11057803E-02 0.34032185E+02</pdfrwt>
<pdfrwt beam="2">  1       21 0.34890252E-01 0.34032185E+02</pdfrwt>
<totfact> 0.20981742E+07</totfact>
</mgrwt>
</event>
<event>
 4    1  0.2754379E+004  0.2288980E+02  0.7546771E-02  0.1693303E+00
         21   -1    0    0  503  502  0.00000000000E+00  0.00000000000E+00  0.49551973653E+03  0.49551973653E+03  0.00000000000E+00 0.  1.
         21   -1    0    0  501  503 -0.00000000000E+00 -0.00000000000E+00 -0.75417739459E+01  0.75417739459E+01  0.00000000000E+00 0. -1.
          2    1    1    2  501    0 -0.19736816353E+02  0.11593143847E+02  0.10756144589E+02  0.25291056728E+02  0.00000000000E+00 0. -1.
         -2    1    1    2    0  502  0.19736816353E+02 -0.11593143847E+02  0.47722181799E+03  0.47777045374E+03  0.00000000000E+00 0.  1.
<mgrwt>
<rscale>  2 0.22889799E+02</rscale>
<asrwt>0</asrwt>
<pdfrwt beam="1">  1       21 0.76233780E-01 0.22889799E+02</pdfrwt>
<pdfrwt beam="2">  1       21 0.11602733E-02 0.22889799E+02</pdfrwt>
<totfact> 0.39257287E+06</totfact>
</mgrwt>
</event>
<event>
 4    1  0.2754379E+004  0.2109925E+02  0.7546771E-02  0.1724312E+00
         21   -1    0    0  503  502  0.00000000000E+00  0.00000000000E+00  0.40152035574E+03  0.40152035574E+03  0.00000000000E+00 0. -1.
         21   -1    0    0  501  503 -0.00000000000E+00 -0.00000000000E+00 -0.18306512241E+01  0.18306512241E+01  0.00000000000E+00 0.  1.
          2    1    1    2  501    0  0.10691264268E+01 -0.21072140837E+02  0.73197858582E+02  0.76178111369E+02  0.00000000000E+00 0.  1.
         -2    1    1    2    0  502 -0.10691264268E+01  0.21072140837E+02  0.32649184593E+03  0.32717289560E+03  0.00000000000E+00 0. -1.
<mgrwt>
<rscale>  2 0.21099245E+02</rscale>
<asrwt>0</asrwt>
<pdfrwt beam="1">  1       21 0.61772292E-01 0.21099245E+02</pdfrwt>
<pdfrwt beam="2">  1       21 0.28163897E-03 0.21099245E+02</pdfrwt>
<totfact> 0.48126902E+07</totfact>
</mgrwt>
</event>
<event>
 4    1  0.2754379E+004  0.4069664E+02  0.7546771E-02  0.1503147E+00
         21   -1    0    0  501  502  0.00000000000E+00  0.00000000000E+00  0.70245828621E+01  0.70245828621E+01  0.00000000000E+00 0. -1.
         21   -1    0    0  502  503 -0.00000000000E+00 -0.00000000000E+00 -0.24547275957E+03  0.24547275957E+03  0.00000000000E+00 0.  1.
          2    1    1    2  501    0 -0.22788580170E+02 -0.33717906292E+02 -0.94129793223E+02  0.10255064389E+03  0.00000000000E+00 0.  1.
         -2    1    1    2    0  503  0.22788580170E+02  0.33717906292E+02 -0.14431838349E+03  0.14994669854E+03  0.00000000000E+00 0. -1.
<mgrwt>
<rscale>  2 0.40696641E+02</rscale>
<asrwt>0</asrwt>
<pdfrwt beam="1">  1       21 0.10807051E-02 0.40696641E+02</pdfrwt>
<pdfrwt beam="2">  1       21 0.37765040E-01 0.40696641E+02</pdfrwt>
<totfact> 0.19232779E+07</totfact>
</mgrwt>
</event>
<event>
 4    1  0.2754379E+004  0.2579645E+02  0.7546771E-02  0.1649819E+00
         21   -1    0    0  501  502  0.00000000000E+00  0.00000000000E+00  0.87056473910E+01  0.87056473910E+01  0.00000000000E+00 0. -1.
         21   -1    0    0  502  503 -0.00000000000E+00 -0.00000000000E+00 -0.14273080815E+03  0.14273080815E+03  0.00000000000E+00 0.  1.
          2    1    1    2  501    0  0.24352750337E+02  0.85088480998E+01 -0.15410255766E+02  0.30048842369E+02  0.00000000000E+00 0. -1.
         -2    1    1    2    0  503 -0.24352750337E+02 -0.85088480998E+01 -0.11861490500E+03  0.12138761318E+03  0.00000000000E+00 0.  1.
<mgrwt>
<rscale>  2 0.25796452E+02</rscale>
<asrwt>0</asrwt>
<pdfrwt beam="1">  1       21 0.13393304E-02 0.25796452E+02</pdfrwt>
<pdfrwt beam="2">  1       21 0.21958585E-01 0.25796452E+02</pdfrwt>
<totfact> 0.34544347E+07</totfact>
</mgrwt>
</event>
<event>
 4    1  0.2754379E+004  0.2281426E+02  0.7546771E-02  0.1694539E+00
         21   -1    0    0  501  502  0.00000000000E+00  0.00000000000E+00  0.14908432701E+01  0.14908432701E+01  0.00000000000E+00 0. -1.
         21   -1    0    0  502  503 -0.00000000000E+00 -0.00000000000E+00 -0.36148668818E+03  0.36148668818E+03  0.00000000000E+00 0.  1.
          2    1    1    2  501    0  0.13152375438E+02  0.18641494937E+02 -0.14643602299E+03  0.14820256118E+03  0.00000000000E+00 0. -1.
         -2    1    1    2    0  503 -0.13152375438E+02 -0.18641494937E+02 -0.21355982192E+03  0.21477497026E+03  0.00000000000E+00 0.  1.
<mgrwt>
<rscale>  2 0.22814257E+02</rscale>
<asrwt>0</asrwt>
<pdfrwt beam="1">  1       21 0.22936045E-03 0.22814257E+02</pdfrwt>
<pdfrwt beam="2">  1       21 0.55613348E-01 0.22814257E+02</pdfrwt>
<totfact> 0.81394198E+07</totfact>
</mgrwt>
</event>
<event>
 4    1  0.2754379E+004  0.2060781E+02  0.7546771E-02  0.1733504E+00
         21   -1    0    0  503  502  0.00000000000E+00  0.00000000000E+00  0.36043902096E+01  0.36043902096E+01  0.00000000000E+00 0. -1.
         21   -1    0    0  501  503 -0.00000000000E+00 -0.00000000000E+00 -0.15534535202E+03  0.15534535202E+03  0.00000000000E+00 0.  1.
          2    1    1    2  501    0  0.20261675987E+02 -0.37611701402E+01 -0.11492962855E+03  0.11676258576E+03  0.00000000000E+00 0.  1.
         -2    1    1    2    0  502 -0.20261675987E+02  0.37611701402E+01 -0.36811333265E+02  0.42187156474E+02  0.00000000000E+00 0. -1.
<mgrwt>
<rscale>  2 0.20607812E+02</rscale>
<asrwt>0</asrwt>
<pdfrwt beam="1">  1       21 0.55452162E-03 0.20607812E+02</pdfrwt>
<pdfrwt beam="2">  1       21 0.23899283E-01 0.20607812E+02</pdfrwt>
<totfact> 0.10511373E+08</totfact>
</mgrwt>
</event>
<event>
 4    1  0.2754379E+004  0.3721453E+02  0.7546771E-02  0.1529771E+00
         21   -1    0    0  503  502  0.00000000000E+00  0.00000000000E+00  0.10610323318E+03  0.10610323318E+03  0.00000000000E+00 0. -1.
         21   -1    0    0  501  503 -0.00000000000E+00 -0.00000000000E+00 -0.35616625401E+02  0.35616625401E+02  0.00000000000E+00 0.  1.
          2    1    1    2  501    0 -0.31416598298E+02 -0.19947906096E+02 -0.21157169902E+02  0.42808263741E+02  0.00000000000E+00 0.  1.
         -2    1    1    2    0  502  0.31416598298E+02  0.19947906096E+02  0.91643777682E+02  0.98911594841E+02  0.00000000000E+00 0. -1.
<mgrwt>
<rscale>  2 0.37214535E+02</rscale>
<asrwt>0</asrwt>
<pdfrwt beam="1">  1       21 0.16323574E-01 0.37214535E+02</pdfrwt>
<pdfrwt beam="2">  1       21 0.54794809E-02 0.37214535E+02</pdfrwt>
<totfact> 0.67868908E+06</totfact>
</mgrwt>
</event>
<event>
 4    1  0.2754379E+004  0.2454476E+02  0.7546771E-02  0.1667628E+00
         21   -1    0    0  503  502  0.00000000000E+00  0.00000000000E+00  0.75663479129E+01  0.75663479129E+01  0.00000000000E+00 0.  1.
         21   -1    0    0  501  503 -0.00000000000E+00 -0.00000000000E+00 -0.89465518516E+02  0.89465518516E+02  0.00000000000E+00 0. -1.
          2    1    1    2  501    0  0.24537216236E+02  0.60852556253E+00 -0.57042656364E+02  0.62099194271E+02  0.00000000000E+00 0. -1.
         -2    1    1    2    0  502 -0.24537216236E+02 -0.60852556253E+00 -0.24856514239E+02  0.34932672158E+02  0.00000000000E+00 0.  1.
<mgrwt>
<rscale>  2 0.24544761E+02</rscale>
<asrwt>0</asrwt>
<pdfrwt beam="1">  1       21 0.11640536E-02 0.24544761E+02</pdfrwt>
<pdfrwt beam="2">  1       21 0.13763925E-01 0.24544761E+02</pdfrwt>
<totfact> 0.94774123E+07</totfact>
</mgrwt>
</event>
<event>
 4    1  0.2754379E+004  0.3051375E+02  0.7546771E-02  0.1592478E+00
         21   -1    0    0  501  502  0.00000000000E+00  0.00000000000E+00  0.16715308949E+03  0.16715308949E+03  0.00000000000E+00 0. -1.
         21   -1    0    0  502  503 -0.00000000000E+00 -0.00000000000E+00 -0.75894138804E+01  0.75894138804E+01  0.00000000000E+00 0.  1.
          2    1    1    2  501    0 -0.27427072873E+02 -0.13373279815E+02  0.12484766686E+03  0.12852248386E+03  0.00000000000E+00 0. -1.
         -2    1    1    2    0  503  0.27427072873E+02  0.13373279815E+02  0.34716008757E+02  0.46220019509E+02  0.00000000000E+00 0.  1.
<mgrwt>
<rscale>  2 0.30513750E+02</rscale>
<asrwt>0</asrwt>
<pdfrwt beam="1">  1       21 0.25715857E-01 0.30513750E+02</pdfrwt>
<pdfrwt beam="2">  1       21 0.11676023E-02 0.30513750E+02</pdfrwt>
<totfact> 0.33235776E+07</totfact>
</mgrwt>
</event>
<event>
 4    1  0.2754379E+004  0.2902925E+02  0.7546771E-02  0.1609074E+00
         21   -1    0    0  501  502  0.00000000000E+00  0.00000000000E+00  0.32829315466E+02  0.32829315466E+02  0.00000000000E+00 0. -1.
         21   -1    0    0  502  503 -0.00000000000E+00 -0.00000000000E+00 -0.45430750297E+02  0.45430750297E+02  0.00000000000E+00 0.  1.
          2    1    1    2  501    0  0.26614376092E+02  0.11591909814E+02  0.19506869371E+02  0.34974495573E+02  0.00000000000E+00 0. -1.
         -2    1    1    2    0  503 -0.26614376092E+02 -0.11591909814E+02 -0.32108304203E+02  0.43285570190E+02  0.00000000000E+00 0.  1.
<mgrwt>
<rscale>  2 0.29029251E+02</rscale>
<asrwt>0</asrwt>
<pdfrwt beam="1">  1       21 0.50506640E-02 0.29029251E+02</pdfrwt>
<pdfrwt beam="2">  1       21 0.69893461E-02 0.29029251E+02</pdfrwt>
<totfact> 0.31059328E+07</totfact>
</mgrwt>
</event>
<event>
 4    1  0.2754379E+004  0.2437523E+02  0.7546771E-02  0.1670141E+00
         21   -1    0    0  503  502  0.00000000000E+00  0.00000000000E+00  0.65275102988E+01  0.65275102988E+01  0.00000000000E+00 0.  1.
         21   -1    0    0  501  503 -0.00000000000E+00 -0.00000000000E+00 -0.92351743080E+02  0.92351743080E+02  0.00000000000E+00 0. -1.
          2    1    1    2  501    0 -0.22961138933E+02  0.81815497852E+01 -0.48843021892E+02  0.54587475171E+02  0.00000000000E+00 0. -1.
         -2    1    1    2    0  502  0.22961138933E+02 -0.81815497852E+01 -0.36981210889E+02  0.44291778208E+02  0.00000000000E+00 0.  1.
<mgrwt>
<rscale>  2 0.24375226E+02</rscale>
<asrwt>0</asrwt>
<pdfrwt beam="1">  1       21 0.10042324E-02 0.24375226E+02</pdfrwt>
<pdfrwt beam="2">  1       21 0.14207960E-01 0.24375226E+02</pdfrwt>
<totfact> 0.11200281E+08</totfact>
</mgrwt>
</event>
<event>
 4    1  0.2754379E+004  0.4432323E+02  0.7546771E-02  0.1478611E+00
         21   -1    0    0  503  502  0.00000000000E+00  0.00000000000E+00  0.20005265482E+02  0.20005265482E+02  0.00000000000E+00 0.  1.
         21   -1    0    0  501  503 -0.00000000000E+00 -0.00000000000E+00 -0.17300217347E+03  0.17300217347E+03  0.00000000000E+00 0. -1.
          2    1    1    2  501    0  0.16208869236E+02  0.41253133758E+02 -0.13995418074E+03  0.14680504485E+03  0.00000000000E+00 0. -1.
         -2    1    1    2    0  502 -0.16208869236E+02 -0.41253133758E+02 -0.13042727249E+02  0.46202394104E+02  0.00000000000E+00 0.  1.
<mgrwt>
<rscale>  2 0.44323227E+02</rscale>
<asrwt>0</asrwt>
<pdfrwt beam="1">  1       21 0.30777331E-02 0.44323227E+02</pdfrwt>
<pdfrwt beam="2">  1       21 0.26615720E-01 0.44323227E+02</pdfrwt>
<totfact> 0.73093354E+06</totfact>
</mgrwt>
</event>
<event>
 4    1  0.2754379E+004  0.2776969E+02  0.7546771E-02  0.1624137E+00
         21   -1    0    0  501  502  0.00000000000E+00  0.00000000000E+00  0.48169452709E+02  0.48169452709E+02  0.00000000000E+00 0.  1.
         21   -1    0    0  502  503 -0.00000000000E+00 -0.00000000000E+00 -0.16140948457E+02  0.16140948457E+02  0.00000000000E+00 0. -1.
          2    1    1    2  501    0 -0.11452902804E+02  0.25297955502E+02  0.18919081982E+02  0.33601892778E+02  0.00000000000E+00 0.  1.
         -2    1    1    2    0  503  0.11452902804E+02 -0.25297955502E+02  0.13109422270E+02  0.30708508389E+02  0.00000000000E+00 0. -1.
<mgrwt>
<rscale>  2 0.27769687E+02</rscale>
<asrwt>0</asrwt>
<pdfrwt beam="1">  1       21 0.74106850E-02 0.27769687E+02</pdfrwt>
<pdfrwt beam="2">  1       21 0.24832229E-02 0.27769687E+02</pdfrwt>
<totfact> 0.85797052E+07</totfact>
</mgrwt>
</event>
<event>
 4    1  0.2754379E+004  0.3133902E+02  0.7546771E-02  0.1583742E+00
         21   -1    0    0  503  502  0.00000000000E+00  0.00000000000E+00  0.91707793439E+00  0.91707793439E+00  0.00000000000E+00 0.  1.
         21   -1    0    0  501  503 -0.00000000000E+00 -0.00000000000E+00 -0.14820475027E+04  0.14820475027E+04  0.00000000000E+00 0. -1.
          2    1    1    2  501    0 -0.15679260151E+02 -0.27134752261E+02 -0.11310896946E+04  0.11315237652E+04  0.00000000000E+00 0. -1.
         -2    1    1    2    0  502  0.15679260151E+02  0.27134752261E+02 -0.35004073014E+03  0.35144081541E+03  0.00000000000E+00 0.  1.
<mgrwt>
<rscale>  2 0.31339017E+02</rscale>
<asrwt>0</asrwt>
<pdfrwt beam="1">  1       21 0.14108881E-03 0.31339017E+02</pdfrwt>
<pdfrwt beam="2">  1       21 0.22800747E+00 0.31339017E+02</pdfrwt>
<totfact> 0.68738531E+06</totfact>
</mgrwt>
</event>
<event>
 4    1  0.2754379E+004  0.2335340E+02  0.7546771E-02  0.1685845E+00
         21   -1    0    0  501  502  0.00000000000E+00  0.00000000000E+00  0.43407449345E+01  0.43407449345E+01  0.00000000000E+00 0. -1.
         21   -1    0    0  502  503 -0.00000000000E+00 -0.00000000000E+00 -0.17660474281E+03  0.17660474281E+03  0.00000000000E+00 0.  1.
          2    1    1    2  501    0 -0.79467838131E+01  0.21959732962E+02 -0.37531398714E+02  0.44203926683E+02  0.00000000000E+00 0. -1.
         -2    1    1    2    0  503  0.79467838131E+01 -0.21959732962E+02 -0.13473259916E+03  0.13674156106E+03  0.00000000000E+00 0.  1.
<mgrwt>
<rscale>  2 0.23353399E+02</rscale>
<asrwt>0</asrwt>
<pdfrwt beam="1">  1       21 0.66780693E-03 0.23353399E+02</pdfrwt>
<pdfrwt beam="2">  1       21 0.27169960E-01 0.23353399E+02</pdfrwt>
<totfact> 0.65695992E+07</totfact>
</mgrwt>
</event>
<event>
 4    1  0.2754379E+004  0.2646668E+02  0.7546771E-02  0.1640787E+00
         21   -1    0    0  503  502  0.00000000000E+00  0.00000000000E+00  0.12812237605E+03  0.12812237605E+03  0.00000000000E+00 0.  1.
         21   -1    0    0  501  503 -0.00000000000E+00 -0.00000000000E+00 -0.11970773730E+02  0.11970773730E+02  0.00000000000E+00 0. -1.
          2    1    1    2  501    0 -0.13867362667E+02 -0.22542884847E+02  0.64462935357E+01  0.27240413083E+02  0.00000000000E+00 0. -1.
         -2    1    1    2    0  502  0.13867362667E+02  0.22542884847E+02  0.10970530879E+03  0.11285273670E+03  0.00000000000E+00 0.  1.
<mgrwt>
<rscale>  2 0.26466685E+02</rscale>
<asrwt>0</asrwt>
<pdfrwt beam="1">  1       21 0.19711134E-01 0.26466685E+02</pdfrwt>
<pdfrwt beam="2">  1       21 0.18416576E-02 0.26466685E+02</pdfrwt>
<totfact> 0.25808895E+07</totfact>
</mgrwt>
</event>
<event>
 4    1  0.2754379E+004  0.2100936E+02  0.7546771E-02  0.1725970E+00
         21   -1    0    0  501  502  0.00000000000E+00  0.00000000000E+00  0.20835898300E+03  0.20835898300E+03  0.00000000000E+00 0. -1.
         21   -1    0    0  502  503 -0.00000000000E+00 -0.00000000000E+00 -0.14083063791E+02  0.14083063791E+02  0.00000000000E+00 0.  1.
          2    1    1    2  501    0 -0.81117560291E+01 -0.19380216832E+02  0.19965311280E+03  0.20075547027E+03  0.00000000000E+00 0. -1.
         -2    1    1    2    0  503  0.81117560291E+01  0.19380216832E+02 -0.53771935941E+01  0.21686576523E+02  0.00000000000E+00 0.  1.
<mgrwt>
<rscale>  2 0.21009364E+02</rscale>
<asrwt>0</asrwt>
<pdfrwt beam="1">  1       21 0.32055226E-01 0.21009364E+02</pdfrwt>
<pdfrwt beam="2">  1       21 0.21666253E-02 0.21009364E+02</pdfrwt>
<totfact> 0.80568771E+06</totfact>
</mgrwt>
</event>
<event>
 4    1  0.2754379E+004  0.2746755E+02  0.7546771E-02  0.1627896E+00
         21   -1    0    0  501  502  0.00000000000E+00  0.00000000000E+00  0.28246058278E+03  0.28246058278E+03  0.00000000000E+00 0.  1.
         21   -1    0    0  502  503 -0.00000000000E+00 -0.00000000000E+00 -0.71066374795E+01  0.71066374795E+01  0.00000000000E+00 0. -1.
          2    1    1    2  501    0 -0.26567508838E+02  0.69737922967E+01  0.25206034612E+03  0.25355252788E+03  0.00000000000E+00 0.  1.
         -2    1    1    2    0  503  0.26567508838E+02 -0.69737922967E+01  0.23293599178E+02  0.36014692384E+02  0.00000000000E+00 0. -1.
<mgrwt>
<rscale>  2 0.27467550E+02</rscale>
<asrwt>0</asrwt>
<pdfrwt beam="1">  1       21 0.43455466E-01 0.27467550E+02</pdfrwt>
<pdfrwt beam="2">  1       21 0.10933291E-02 0.27467550E+02</pdfrwt>
<totfact> 0.13563553E+07</totfact>
</mgrwt>
</event>
<event>
 4    1  0.2754379E+004  0.2819059E+02  0.7546771E-02  0.1618996E+00
         21   -1    0    0  503  502  0.00000000000E+00  0.00000000000E+00  0.50190074452E+02  0.50190074452E+02  0.00000000000E+00 0. -1.
         21   -1    0    0  501  503 -0.00000000000E+00 -0.00000000000E+00 -0.24936983897E+02  0.24936983897E+02  0.00000000000E+00 0.  1.
          2    1    1    2  501    0 -0.12914364736E+02 -0.25058506799E+02 -0.10068776335E+02  0.29934759668E+02  0.00000000000E+00 0.  1.
         -2    1    1    2    0  502  0.12914364736E+02  0.25058506799E+02  0.35321866890E+02  0.45192298681E+02  0.00000000000E+00 0. -1.
<mgrwt>
<rscale>  2 0.28190594E+02</rscale>
<asrwt>0</asrwt>
<pdfrwt beam="1">  1       21 0.77215499E-02 0.28190594E+02</pdfrwt>
<pdfrwt beam="2">  1       21 0.38364591E-02 0.28190594E+02</pdfrwt>
<totfact> 0.40652015E+07</totfact>
</mgrwt>
</event>
<event>
 4    1  0.2754379E+004  0.2150824E+02  0.7546771E-02  0.1716898E+00
         21   -1    0    0  501  502  0.00000000000E+00  0.00000000000E+00  0.48262673191E+01  0.48262673191E+01  0.00000000000E+00 0. -1.
         21   -1    0    0  502  503 -0.00000000000E+00 -0.00000000000E+00 -0.38141120835E+03  0.38141120835E+03  0.00000000000E+00 0.  1.
          2    1    1    2  501    0 -0.16153381308E+02  0.14201149052E+02 -0.21192548168E+02  0.30194841612E+02  0.00000000000E+00 0. -1.
         -2    1    1    2    0  503  0.16153381308E+02 -0.14201149052E+02 -0.35539239286E+03  0.35604263405E+03  0.00000000000E+00 0.  1.
<mgrwt>
<rscale>  2 0.21508239E+02</rscale>
<asrwt>0</asrwt>
<pdfrwt beam="1">  1       21 0.74250240E-03 0.21508239E+02</pdfrwt>
<pdfrwt beam="2">  1       21 0.58678669E-01 0.21508239E+02</pdfrwt>
<totfact> 0.12900737E+07</totfact>
</mgrwt>
</event>
<event>
 4    1  0.2754379E+004  0.2015776E+02  0.7546771E-02  0.1742209E+00
         21   -1    0    0  501  502  0.00000000000E+00  0.00000000000E+00  0.14359459409E+03  0.14359459409E+03  0.00000000000E+00 0. -1.
         21   -1    0    0  502  503 -0.00000000000E+00 -0.00000000000E+00 -0.37077086032E+01  0.37077086032E+01  0.00000000000E+00 0.  1.
          2    1    1    2  501    0 -0.98324975088E+01  0.17597086415E+02  0.10578328415E+03  0.10768676178E+03  0.00000000000E+00 0.  1.
         -2    1    1    2    0  503  0.98324975088E+01 -0.17597086415E+02  0.34103601336E+02  0.39615540911E+02  0.00000000000E+00 0. -1.
<mgrwt>
<rscale>  2 0.20157764E+02</rscale>
<asrwt>0</asrwt>
<pdfrwt beam="1">  1       21 0.22091472E-01 0.20157764E+02</pdfrwt>
<pdfrwt beam="2">  1       21 0.57041682E-03 0.20157764E+02</pdfrwt>
<totfact> 0.11504818E+08</totfact>
</mgrwt>
</event>
<event>
 4    1  0.2754379E+004  0.3723733E+02  0.7546771E-02  0.1529585E+00
         21   -1    0    0  503  502  0.00000000000E+00  0.00000000000E+00  0.27343772943E+03  0.27343772943E+03  0.00000000000E+00 0.  1.
         21   -1    0    0  501  503 -0.00000000000E+00 -0.00000000000E+00 -0.10544816640E+02  0.10544816640E+02  0.00000000000E+00 0. -1.
          2    1    1    2  501    0  0.26290758026E+02  0.26370711786E+02  0.29144253446E+02  0.47286424126E+02  0.00000000000E+00 0. -1.
         -2    1    1    2    0  502 -0.26290758026E+02 -0.26370711786E+02  0.23374865935E+03  0.23669612195E+03  0.00000000000E+00 0.  1.
<mgrwt>
<rscale>  2 0.37237325E+02</rscale>
<asrwt>0</asrwt>
<pdfrwt beam="1">  1       21 0.42067338E-01 0.37237325E+02</pdfrwt>
<pdfrwt beam="2">  1       21 0.16222797E-02 0.37237325E+02</pdfrwt>
<totfact> 0.82554886E+06</totfact>
</mgrwt>
</event>
<event>
 4    1  0.2754379E+004  0.2352550E+02  0.7546771E-02  0.1683131E+00
         21   -1    0    0  503  502  0.00000000000E+00  0.00000000000E+00  0.14835530757E+01  0.14835530757E+01  0.00000000000E+00 0.  1.
         21   -1    0    0  501  503 -0.00000000000E+00 -0.00000000000E+00 -0.62180583691E+03  0.62180583691E+03  0.00000000000E+00 0. -1.
          2    1    1    2  501    0 -0.74758323301E+01  0.22306075270E+02 -0.50727326671E+03  0.50781848743E+03  0.00000000000E+00 0. -1.
         -2    1    1    2    0  502  0.74758323301E+01 -0.22306075270E+02 -0.11304901713E+03  0.11547090255E+03  0.00000000000E+00 0.  1.
<mgrwt>
<rscale>  2 0.23525498E+02</rscale>
<asrwt>0</asrwt>
<pdfrwt beam="1">  1       21 0.22823894E-03 0.23525498E+02</pdfrwt>
<pdfrwt beam="2">  1       21 0.95662435E-01 0.23525498E+02</pdfrwt>
<totfact> 0.26897987E+07</totfact>
</mgrwt>
</event>
<event>
 4    1  0.2754379E+004  0.2237920E+02  0.7546771E-02  0.1701775E+00
         21   -1    0    0  503  502  0.00000000000E+00  0.00000000000E+00  0.96822010662E+00  0.96822010662E+00  0.00000000000E+00 0. -1.
         21   -1    0    0  501  503 -0.00000000000E+00 -0.00000000000E+00 -0.51772419260E+03  0.51772419260E+03  0.00000000000E+00 0.  1.
          2    1    1    2  501    0 -0.21644644786E+02  0.56866489622E+01 -0.26608215813E+03  0.26702161617E+03  0.00000000000E+00 0. -1.
         -2    1    1    2    0  502  0.21644644786E+02 -0.56866489622E+01 -0.25067381436E+03  0.25167079654E+03  0.00000000000E+00 0.  1.
<mgrwt>
<rscale>  2 0.22379201E+02</rscale>
<asrwt>0</asrwt>
<pdfrwt beam="1">  1       21 0.14895663E-03 0.22379201E+02</pdfrwt>
<pdfrwt beam="2">  1       21 0.79650042E-01 0.22379201E+02</pdfrwt>
<totfact> 0.72700997E+07</totfact>
</mgrwt>
</event>
<event>
 4    1  0.2754379E+004  0.2881882E+02  0.7546771E-02  0.1611524E+00
         21   -1    0    0  501  502  0.00000000000E+00  0.00000000000E+00  0.59067287307E+01  0.59067287307E+01  0.00000000000E+00 0. -1.
         21   -1    0    0  502  503 -0.00000000000E+00 -0.00000000000E+00 -0.26081355949E+03  0.26081355949E+03  0.00000000000E+00 0.  1.
          2    1    1    2  501    0 -0.13799382712E+02  0.25300226884E+02 -0.36916443952E+02  0.46833196322E+02  0.00000000000E+00 0. -1.
         -2    1    1    2    0  503  0.13799382712E+02 -0.25300226884E+02 -0.21799038681E+03  0.21988709190E+03  0.00000000000E+00 0.  1.
<mgrwt>
<rscale>  2 0.28818821E+02</rscale>
<asrwt>0</asrwt>
<pdfrwt beam="1">  1       21 0.90872751E-03 0.28818821E+02</pdfrwt>
<pdfrwt beam="2">  1       21 0.40125163E-01 0.28818821E+02</pdfrwt>
<totfact> 0.21075368E+07</totfact>
</mgrwt>
</event>
<event>
 4    1  0.2754379E+004  0.2890105E+02  0.7546771E-02  0.1610564E+00
         21   -1    0    0  503  502  0.00000000000E+00  0.00000000000E+00  0.12162529181E+04  0.12162529181E+04  0.00000000000E+00 0. -1.
         21   -1    0    0  501  503 -0.00000000000E+00 -0.00000000000E+00 -0.76628485619E+00  0.76628485619E+00  0.00000000000E+00 0.  1.
          2    1    1    2  501    0  0.11125398663E+02 -0.26673890911E+02  0.41170982483E+03  0.41272297103E+03  0.00000000000E+00 0.  1.
         -2    1    1    2    0  502 -0.11125398663E+02  0.26673890911E+02  0.80377680842E+03  0.80429623194E+03  0.00000000000E+00 0. -1.
<mgrwt>
<rscale>  2 0.28901055E+02</rscale>
<asrwt>0</asrwt>
<pdfrwt beam="1">  1       21 0.18711429E+00 0.28901055E+02</pdfrwt>
<pdfrwt beam="2">  1       21 0.11789095E-03 0.28901055E+02</pdfrwt>
<totfact> 0.14991246E+07</totfact>
</mgrwt>
</event>
<event>
 4    1  0.2754379E+004  0.2621178E+02  0.7546771E-02  0.1644183E+00
         21   -1    0    0  501  502  0.00000000000E+00  0.00000000000E+00  0.11245477924E+03  0.11245477924E+03  0.00000000000E+00 0.  1.
         21   -1    0    0  502  503 -0.00000000000E+00 -0.00000000000E+00 -0.10738236292E+02  0.10738236292E+02  0.00000000000E+00 0. -1.
          2    1    1    2  501    0  0.23777752992E+02 -0.11030677870E+02  0.91298593790E+02  0.94986791817E+02  0.00000000000E+00 0.  1.
         -2    1    1    2    0  503 -0.23777752992E+02  0.11030677870E+02  0.10417949159E+02  0.28206223716E+02  0.00000000000E+00 0. -1.
<mgrwt>
<rscale>  2 0.26211780E+02</rscale>
<asrwt>0</asrwt>
<pdfrwt beam="1">  1       21 0.17300735E-01 0.26211780E+02</pdfrwt>
<pdfrwt beam="2">  1       21 0.16520364E-02 0.26211780E+02</pdfrwt>
<totfact> 0.38193098E+07</totfact>
</mgrwt>
</event>
<event>
 4    1  0.2754379E+004  0.4365993E+02  0.7546771E-02  0.1482885E+00
         21   -1    0    0  501  502  0.00000000000E+00  0.00000000000E+00  0.71684835673E+02  0.71684835673E+02  0.00000000000E+00 0.  1.
         21   -1    0    0  502  503 -0.00000000000E+00 -0.00000000000E+00 -0.41244557291E+02  0.41244557291E+02  0.00000000000E+00 0. -1.
          2    1    1    2  501    0  0.17964868775E+02 -0.39792622297E+02  0.48876063434E+02  0.65536698697E+02  0.00000000000E+00 0.  1.
         -2    1    1    2    0  503 -0.17964868775E+02  0.39792622297E+02 -0.18435785052E+02  0.47392694267E+02  0.00000000000E+00 0. -1.
<mgrwt>
<rscale>  2 0.43659928E+02</rscale>
<asrwt>0</asrwt>
<pdfrwt beam="1">  1       21 0.11028436E-01 0.43659928E+02</pdfrwt>
<pdfrwt beam="2">  1       21 0.63453165E-02 0.43659928E+02</pdfrwt>
<totfact> 0.10720849E+07</totfact>
</mgrwt>
</event>
<event>
 4    1  0.2754379E+004  0.2278568E+02  0.7546771E-02  0.1695008E+00
         21   -1    0    0  501  502  0.00000000000E+00  0.00000000000E+00  0.23844720510E+02  0.23844720510E+02  0.00000000000E+00 0. -1.
         21   -1    0    0  502  503 -0.00000000000E+00 -0.00000000000E+00 -0.52806188109E+02  0.52806188109E+02  0.00000000000E+00 0.  1.
          2    1    1    2  501    0 -0.21598335538E+02  0.72594144919E+01  0.14899373371E+02  0.27224594095E+02  0.00000000000E+00 0. -1.
         -2    1    1    2    0  503  0.21598335538E+02 -0.72594144919E+01 -0.43860840970E+02  0.49426314524E+02  0.00000000000E+00 0.  1.
<mgrwt>
<rscale>  2 0.22785680E+02</rscale>
<asrwt>0</asrwt>
<pdfrwt beam="1">  1       21 0.36684185E-02 0.22785680E+02</pdfrwt>
<pdfrwt beam="2">  1       21 0.81240290E-02 0.22785680E+02</pdfrwt>
<totfact> 0.38184719E+07</totfact>
</mgrwt>
</event>
<event>
 4    1  0.2754379E+004  0.2243975E+02  0.7546771E-02  0.1700756E+00
         21   -1    0    0  503  502  0.00000000000E+00  0.00000000000E+00  0.10020917428E+01  0.10020917428E+01  0.00000000000E+00 0. -1.
         21   -1    0    0  501  503 -0.00000000000E+00 -0.00000000000E+00 -0.55076058097E+03  0.55076058097E+03  0.00000000000E+00 0.  1.
          2    1    1    2  501    0 -0.11201317287E+02  0.19444099743E+02 -0.35655171220E+03  0.35725714268E+03  0.00000000000E+00 0.  1.
         -2    1    1    2    0  502  0.11201317287E+02 -0.19444099743E+02 -0.19320677703E+03  0.19450553003E+03  0.00000000000E+00 0. -1.
<mgrwt>
<rscale>  2 0.22439753E+02</rscale>
<asrwt>0</asrwt>
<pdfrwt beam="1">  1       21 0.15416749E-03 0.22439753E+02</pdfrwt>
<pdfrwt beam="2">  1       21 0.84732653E-01 0.22439753E+02</pdfrwt>
<totfact> 0.60793630E+07</totfact>
</mgrwt>
</event>
<event>
 4    1  0.2754379E+004  0.2763817E+02  0.7546771E-02  0.1625766E+00
         21   -1    0    0  501  502  0.00000000000E+00  0.00000000000E+00  0.12789871908E+02  0.12789871908E+02  0.00000000000E+00 0. -1.
         21   -1    0    0  502  503 -0.00000000000E+00 -0.00000000000E+00 -0.20052111583E+03  0.20052111583E+03  0.00000000000E+00 0.  1.
          2    1    1    2  501    0  0.27602939964E+02  0.13951259190E+01 -0.44940726122E+01  0.28001167112E+02  0.00000000000E+00 0. -1.
         -2    1    1    2    0  503 -0.27602939964E+02 -0.13951259190E+01 -0.18323717131E+03  0.18530982063E+03  0.00000000000E+00 0.  1.
<mgrwt>
<rscale>  2 0.27638174E+02</rscale>
<asrwt>0</asrwt>
<pdfrwt beam="1">  1       21 0.19676728E-02 0.27638174E+02</pdfrwt>
<pdfrwt beam="2">  1       21 0.30849400E-01 0.27638174E+02</pdfrwt>
<totfact> 0.10521040E+07</totfact>
</mgrwt>
</event>
<event>
 4    1  0.2754379E+004  0.2103918E+02  0.7546771E-02  0.1725419E+00
         21   -1    0    0  503  502  0.00000000000E+00  0.00000000000E+00  0.71984187415E+02  0.71984187415E+02  0.00000000000E+00 0. -1.
         21   -1    0    0  501  503 -0.00000000000E+00 -0.00000000000E+00 -0.96458010301E+01  0.96458010301E+01  0.00000000000E+00 0.  1.
          2    1    1    2  501    0 -0.15151128588E+02 -0.14597616045E+02  0.65954130523E+01  0.22048731597E+02  0.00000000000E+00 0.  1.
         -2    1    1    2    0  502  0.15151128588E+02  0.14597616045E+02  0.55742973333E+02  0.59581256849E+02  0.00000000000E+00 0. -1.
<mgrwt>
<rscale>  2 0.21039180E+02</rscale>
<asrwt>0</asrwt>
<pdfrwt beam="1">  1       21 0.11074490E-01 0.21039180E+02</pdfrwt>
<pdfrwt beam="2">  1       21 0.14839694E-02 0.21039180E+02</pdfrwt>
<totfact> 0.90513187E+07</totfact>
</mgrwt>
</event>
<event>
 4    1  0.2754379E+004  0.2905121E+02  0.7546771E-02  0.1608819E+00
         21   -1    0    0  503  502  0.00000000000E+00  0.00000000000E+00  0.10513837780E+02  0.10513837780E+02  0.00000000000E+00 0. -1.
         21   -1    0    0  501  503 -0.00000000000E+00 -0.00000000000E+00 -0.86100420035E+02  0.86100420035E+02  0.00000000000E+00 0.  1.
          2    1    1    2  501    0 -0.26694519407E+02 -0.11461910147E+02 -0.25225386498E+02  0.38474574391E+02  0.00000000000E+00 0. -1.
         -2    1    1    2    0  502  0.26694519407E+02  0.11461910147E+02 -0.50361195757E+02  0.58139683424E+02  0.00000000000E+00 0.  1.
<mgrwt>
<rscale>  2 0.29051209E+02</rscale>
<asrwt>0</asrwt>
<pdfrwt beam="1">  1       21 0.16175135E-02 0.29051209E+02</pdfrwt>
<pdfrwt beam="2">  1       21 0.13246219E-01 0.29051209E+02</pdfrwt>
<totfact> 0.63892503E+07</totfact>
</mgrwt>
</event>
<event>
 4    1  0.2754379E+004  0.5001348E+02  0.7546771E-02  0.1445269E+00
         21   -1    0    0  501  502  0.00000000000E+00  0.00000000000E+00  0.15000711439E+02  0.15000711439E+02  0.00000000000E+00 0. -1.
         21   -1    0    0  502  503 -0.00000000000E+00 -0.00000000000E+00 -0.25565965349E+03  0.25565965349E+03  0.00000000000E+00 0.  1.
          2    1    1    2  501    0  0.41971781178E+02  0.27197762143E+02 -0.40522417562E+02  0.64369363877E+02  0.00000000000E+00 0. -1.
         -2    1    1    2    0  503 -0.41971781178E+02 -0.27197762143E+02 -0.20013652449E+03  0.20629100105E+03  0.00000000000E+00 0.  1.
<mgrwt>
<rscale>  2 0.50013485E+02</rscale>
<asrwt>0</asrwt>
<pdfrwt beam="1">  1       21 0.23078019E-02 0.50013485E+02</pdfrwt>
<pdfrwt beam="2">  1       21 0.39332253E-01 0.50013485E+02</pdfrwt>
<totfact> 0.55952553E+06</totfact>
</mgrwt>
</event>
<event>
 4    1  0.2754379E+004  0.2060965E+02  0.7546771E-02  0.1733469E+00
         21   -1    0    0  503  502  0.00000000000E+00  0.00000000000E+00  0.50537921746E+02  0.50537921746E+02  0.00000000000E+00 0. -1.
         21   -1    0    0  501  503 -0.00000000000E+00 -0.00000000000E+00 -0.11995096286E+02  0.11995096286E+02  0.00000000000E+00 0.  1.
          2    1    1    2  501    0  0.19553227867E+02  0.65137453372E+01  0.21654748832E+01  0.20723100150E+02  0.00000000000E+00 0.  1.
         -2    1    1    2    0  502 -0.19553227867E+02 -0.65137453372E+01  0.36377350577E+02  0.41809917883E+02  0.00000000000E+00 0. -1.
<mgrwt>
<rscale>  2 0.20609648E+02</rscale>
<asrwt>0</asrwt>
<pdfrwt beam="1">  1       21 0.77750647E-02 0.20609648E+02</pdfrwt>
<pdfrwt beam="2">  1       21 0.18453995E-02 0.20609648E+02</pdfrwt>
<totfact> 0.11539165E+08</totfact>
</mgrwt>
</event>
<event>
 4    1  0.2754379E+004  0.2310519E+02  0.7546771E-02  0.1689811E+00
         21   -1    0    0  503  502  0.00000000000E+00  0.00000000000E+00  0.12765586165E+03  0.12765586165E+03  0.00000000000E+00 0.  1.
         21   -1    0    0  501  503 -0.00000000000E+00 -0.00000000000E+00 -0.54773599214E+01  0.54773599214E+01  0.00000000000E+00 0. -1.
          2    1    1    2  501    0  0.11983795374E+02 -0.19754454329E+02  0.28716826828E+02  0.36857915845E+02  0.00000000000E+00 0. -1.
         -2    1    1    2    0  502 -0.11983795374E+02  0.19754454329E+02  0.93461674901E+02  0.96275305726E+02  0.00000000000E+00 0.  1.
<mgrwt>
<rscale>  2 0.23105190E+02</rscale>
<asrwt>0</asrwt>
<pdfrwt beam="1">  1       21 0.19639361E-01 0.23105190E+02</pdfrwt>
<pdfrwt beam="2">  1       21 0.84267085E-03 0.23105190E+02</pdfrwt>
<totfact> 0.82272081E+07</totfact>
</mgrwt>
</event>
<event>
 4    1  0.2754379E+004  0.2425090E+02  0.7546771E-02  0.1672001E+00
         21   -1    0    0  501  502  0.00000000000E+00  0.00000000000E+00  0.12462402414E+03  0.12462402414E+03  0.00000000000E+00 0. -1.
         21   -1    0    0  502  503 -0.00000000000E+00 -0.00000000000E+00 -0.47939666502E+01  0.47939666502E+01  0.00000000000E+00 0.  1.
          2    1    1    2  501    0  0.24239996419E+02 -0.72713154089E+00  0.68004612944E+02  0.72199262658E+02  0.00000000000E+00 0.  1.
         -2    1    1    2    0  503 -0.24239996419E+02  0.72713154089E+00  0.51825444542E+02  0.57218728128E+02  0.00000000000E+00 0. -1.
<mgrwt>
<rscale>  2 0.24250900E+02</rscale>
<asrwt>0</asrwt>
<pdfrwt beam="1">  1       21 0.19172924E-01 0.24250900E+02</pdfrwt>
<pdfrwt beam="2">  1       21 0.73753343E-03 0.24250900E+02</pdfrwt>
<totfact> 0.10607621E+08</totfact>
</mgrwt>
</event>
<event>
 4    1  0.2754379E+004  0.2158792E+02  0.7546771E-02  0.1715478E+00
         21   -1    0    0  503  502  0.00000000000E+00  0.00000000000E+00  0.10844538329E+02  0.10844538329E+02  0.00000000000E+00 0. -1.
         21   -1    0    0  501  503 -0.00000000000E+00 -0.00000000000E+00 -0.59706401635E+02  0.59706401635E+02  0.00000000000E+00 0.  1.
          2    1    1    2  501    0 -0.99622624827E+01 -0.19151809341E+02 -0.43104837969E+02  0.48208562841E+02  0.00000000000E+00 0.  1.
         -2    1    1    2    0  502  0.99622624827E+01  0.19151809341E+02 -0.57570253366E+01  0.22342377124E+02  0.00000000000E+00 0. -1.
<mgrwt>
<rscale>  2 0.21587924E+02</rscale>
<asrwt>0</asrwt>
<pdfrwt beam="1">  1       21 0.16683905E-02 0.21587924E+02</pdfrwt>
<pdfrwt beam="2">  1       21 0.91856004E-02 0.21587924E+02</pdfrwt>
<totfact> 0.10392034E+08</totfact>
</mgrwt>
</event>
<event>
 4    1  0.2754379E+004  0.2063804E+02  0.7546771E-02  0.1732930E+00
         21   -1    0    0  501  502  0.00000000000E+00  0.00000000000E+00  0.62524909194E+02  0.62524909194E+02  0.00000000000E+00 0. -1.
         21   -1    0    0  502  503 -0.00000000000E+00 -0.00000000000E+00 -0.13590368653E+02  0.13590368653E+02  0.00000000000E+00 0.  1.
          2    1    1    2  501    0  0.41191540468E+01 -0.20222792095E+02  0.51344479277E+02  0.55337006627E+02  0.00000000000E+00 0. -1.
         -2    1    1    2    0  503 -0.41191540468E+01  0.20222792095E+02 -0.24099387365E+01  0.20778271220E+02  0.00000000000E+00 0.  1.
<mgrwt>
<rscale>  2 0.20638041E+02</rscale>
<asrwt>0</asrwt>
<pdfrwt beam="1">  1       21 0.96192166E-02 0.20638041E+02</pdfrwt>
<pdfrwt beam="2">  1       21 0.20908260E-02 0.20638041E+02</pdfrwt>
<totfact> 0.67406274E+07</totfact>
</mgrwt>
</event>
<event>
 4    1  0.2754379E+004  0.2071097E+02  0.7546771E-02  0.1731548E+00
         21   -1    0    0  501  502  0.00000000000E+00  0.00000000000E+00  0.32921500915E+02  0.32921500915E+02  0.00000000000E+00 0. -1.
         21   -1    0    0  502  503 -0.00000000000E+00 -0.00000000000E+00 -0.30946194389E+02  0.30946194389E+02  0.00000000000E+00 0.  1.
          2    1    1    2  501    0  0.15936847335E+02  0.13227291618E+02  0.25286121958E+02  0.32685353144E+02  0.00000000000E+00 0. -1.
         -2    1    1    2    0  503 -0.15936847335E+02 -0.13227291618E+02 -0.23310815431E+02  0.31182342160E+02  0.00000000000E+00 0.  1.
<mgrwt>
<rscale>  2 0.20710972E+02</rscale>
<asrwt>0</asrwt>
<pdfrwt beam="1">  1       21 0.50648463E-02 0.20710972E+02</pdfrwt>
<pdfrwt beam="2">  1       21 0.47609530E-02 0.20710972E+02</pdfrwt>
<totfact> 0.52826782E+07</totfact>
</mgrwt>
</event>
<event>
 4    1  0.2754379E+004  0.2426293E+02  0.7546771E-02  0.1671820E+00
         21   -1    0    0  503  502  0.00000000000E+00  0.00000000000E+00  0.56911871835E+02  0.56911871835E+02  0.00000000000E+00 0.  1.
         21   -1    0    0  501  503 -0.00000000000E+00 -0.00000000000E+00 -0.14370205442E+02  0.14370205442E+02  0.00000000000E+00 0. -1.
          2    1    1    2  501    0  0.15221634978E+02  0.18894219346E+02  0.24051219062E+01  0.24381843808E+02  0.00000000000E+00 0. -1.
         -2    1    1    2    0  502 -0.15221634978E+02 -0.18894219346E+02  0.40136544487E+02  0.46900233469E+02  0.00000000000E+00 0.  1.
<mgrwt>
<rscale>  2 0.24262928E+02</rscale>
<asrwt>0</asrwt>
<pdfrwt beam="1">  1       21 0.87556725E-02 0.24262928E+02</pdfrwt>
<pdfrwt beam="2">  1       21 0.22108009E-02 0.24262928E+02</pdfrwt>
<totfact> 0.75490763E+07</totfact>
</mgrwt>
</event>
<event>
 4    1  0.2754379E+004  0.2184336E+02  0.7546771E-02  0.1710975E+00
         21   -1    0    0  501  502  0.00000000000E+00  0.00000000000E+00  0.19878697994E+02  0.19878697994E+02  0.00000000000E+00 0. -1.
         21   -1    0    0  502  503 -0.00000000000E+00 -0.00000000000E+00 -0.32940735460E+02  0.32940735460E+02  0.00000000000E+00 0.  1.
          2    1    1    2  501    0 -0.21839606415E+02 -0.40504031989E+00  0.72261892863E+01  0.23007613471E+02  0.00000000000E+00 0. -1.
         -2    1    1    2    0  503  0.21839606415E+02  0.40504031989E+00 -0.20288226752E+02  0.29811819984E+02  0.00000000000E+00 0.  1.
<mgrwt>
<rscale>  2 0.21843362E+02</rscale>
<asrwt>0</asrwt>
<pdfrwt beam="1">  1       21 0.30582613E-02 0.21843362E+02</pdfrwt>
<pdfrwt beam="2">  1       21 0.50678054E-02 0.21843362E+02</pdfrwt>
<totfact> 0.10724037E+08</totfact>
</mgrwt>
</event>
<event>
 4    1  0.2754379E+004  0.2699385E+02  0.7546771E-02  0.1633912E+00
         21   -1    0    0  503  502  0.00000000000E+00  0.00000000000E+00  0.14275274046E+04  0.14275274046E+04  0.00000000000E+00 0. -1.
         21   -1    0    0  501  503 -0.00000000000E+00 -0.00000000000E+00 -0.17299502142E+01  0.17299502142E+01  0.00000000000E+00 0.  1.
          2    1    1    2  501    0 -0.11082161963E+02 -0.24614092272E+02  0.11289180134E+03  0.11607422911E+03  0.00000000000E+00 0.  1.
         -2    1    1    2    0  502  0.11082161963E+02  0.24614092272E+02  0.13129056530E+04  0.13131831257E+04  0.00000000000E+00 0. -1.
<mgrwt>
<rscale>  2 0.26993848E+02</rscale>
<asrwt>0</asrwt>
<pdfrwt beam="1">  1       21 0.21961866E+00 0.26993848E+02</pdfrwt>
<pdfrwt beam="2">  1       21 0.26614733E-03 0.26993848E+02</pdfrwt>
<totfact> 0.30047063E+06</totfact>
</mgrwt>
</event>
<event>
 4    1  0.2754379E+004  0.2352035E+02  0.7546771E-02  0.1683212E+00
         21   -1    0    0  501  502  0.00000000000E+00  0.00000000000E+00  0.16913536666E+02  0.16913536666E+02  0.00000000000E+00 0.  1.
         21   -1    0    0  502  503 -0.00000000000E+00 -0.00000000000E+00 -0.50922589387E+02  0.50922589387E+02  0.00000000000E+00 0. -1.
          2    1    1    2  501    0  0.22742443537E+02 -0.59990119634E+01  0.32809987080E+01  0.23748091188E+02  0.00000000000E+00 0.  1.
         -2    1    1    2    0  503 -0.22742443537E+02  0.59990119634E+01 -0.37290051429E+02  0.44088034864E+02  0.00000000000E+00 0. -1.
<mgrwt>
<rscale>  2 0.23520350E+02</rscale>
<asrwt>0</asrwt>
<pdfrwt beam="1">  1       21 0.26020826E-02 0.23520350E+02</pdfrwt>
<pdfrwt beam="2">  1       21 0.78342445E-02 0.23520350E+02</pdfrwt>
<totfact> 0.69799225E+07</totfact>
</mgrwt>
</event>
<event>
 4    1  0.2754379E+004  0.2484853E+02  0.7546771E-02  0.1663187E+00
         21   -1    0    0  501  502  0.00000000000E+00  0.00000000000E+00  0.68040421856E+02  0.68040421856E+02  0.00000000000E+00 0.  1.
         21   -1    0    0  502  503 -0.00000000000E+00 -0.00000000000E+00 -0.91278268989E+01  0.91278268989E+01  0.00000000000E+00 0. -1.
          2    1    1    2  501    0 -0.16413133048E+02  0.18656329830E+02  0.26513962628E+02  0.36337856203E+02  0.00000000000E+00 0. -1.
         -2    1    1    2    0  503  0.16413133048E+02 -0.18656329830E+02  0.32398632330E+02  0.40830392553E+02  0.00000000000E+00 0.  1.
<mgrwt>
<rscale>  2 0.24848533E+02</rscale>
<asrwt>0</asrwt>
<pdfrwt beam="1">  1       21 0.10467757E-01 0.24848533E+02</pdfrwt>
<pdfrwt beam="2">  1       21 0.14042811E-02 0.24848533E+02</pdfrwt>
<totfact> 0.11330128E+08</totfact>
</mgrwt>
</event>
<event>
 4    1  0.2754379E+004  0.2073514E+02  0.7546771E-02  0.1731092E+00
         21   -1    0    0  501  502  0.00000000000E+00  0.00000000000E+00  0.66633856542E+03  0.66633856542E+03  0.00000000000E+00 0. -1.
         21   -1    0    0  502  503 -0.00000000000E+00 -0.00000000000E+00 -0.22922653386E+01  0.22922653386E+01  0.00000000000E+00 0.  1.
          2    1    1    2  501    0 -0.16787820896E+02 -0.12170253256E+02  0.61540664647E+03  0.61575586600E+03  0.00000000000E+00 0. -1.
         -2    1    1    2    0  503  0.16787820896E+02  0.12170253256E+02  0.48639653615E+02  0.52874964761E+02  0.00000000000E+00 0.  1.
<mgrwt>
<rscale>  2 0.20735139E+02</rscale>
<asrwt>0</asrwt>
<pdfrwt beam="1">  1       21 0.10251347E+00 0.20735139E+02</pdfrwt>
<pdfrwt beam="2">  1       21 0.35265674E-03 0.20735139E+02</pdfrwt>
<totfact> 0.12002620E+07</totfact>
</mgrwt>
</event>
<event>
 4    1  0.2754379E+004  0.2896413E+02  0.7546771E-02  0.1609829E+00
         21   -1    0    0  501  502  0.00000000000E+00  0.00000000000E+00  0.11148548135E+02  0.11148548135E+02  0.00000000000E+00 0.  1.
         21   -1    0    0  502  503 -0.00000000000E+00 -0.00000000000E+00 -0.76182373083E+02  0.76182373083E+02  0.00000000000E+00 0. -1.
          2    1    1    2  501    0  0.14930769655E+02  0.24819201721E+02 -0.27684498036E+02  0.40066845247E+02  0.00000000000E+00 0. -1.
         -2    1    1    2    0  503 -0.14930769655E+02 -0.24819201721E+02 -0.37349326912E+02  0.47264075970E+02  0.00000000000E+00 0.  1.
<mgrwt>
<rscale>  2 0.28964127E+02</rscale>
<asrwt>0</asrwt>
<pdfrwt beam="1">  1       21 0.17151613E-02 0.28964127E+02</pdfrwt>
<pdfrwt beam="2">  1       21 0.11720365E-01 0.28964127E+02</pdfrwt>
<totfact> 0.71791458E+07</totfact>
</mgrwt>
</event>
<event>
 4    1  0.2754379E+004  0.2182995E+02  0.7546771E-02  0.1711210E+00
         21   -1    0    0  501  502  0.00000000000E+00  0.00000000000E+00  0.30382650507E+02  0.30382650507E+02  0.00000000000E+00 0. -1.
         21   -1    0    0  502  503 -0.00000000000E+00 -0.00000000000E+00 -0.22797584717E+02  0.22797584717E+02  0.00000000000E+00 0.  1.
          2    1    1    2  501    0 -0.17036046022E+02  0.13649908434E+02  0.18644863178E+02  0.28708496778E+02  0.00000000000E+00 0. -1.
         -2    1    1    2    0  503  0.17036046022E+02 -0.13649908434E+02 -0.11059797388E+02  0.24471738446E+02  0.00000000000E+00 0.  1.
<mgrwt>
<rscale>  2 0.21829953E+02</rscale>
<asrwt>0</asrwt>
<pdfrwt beam="1">  1       21 0.46742539E-02 0.21829953E+02</pdfrwt>
<pdfrwt beam="2">  1       21 0.35073207E-02 0.21829953E+02</pdfrwt>
<totfact> 0.98443365E+07</totfact>
</mgrwt>
</event>
<event>
 4    1  0.2754379E+004  0.2008370E+02  0.7546771E-02  0.1743669E+00
         21   -1    0    0  503  502  0.00000000000E+00  0.00000000000E+00  0.11003290990E+02  0.11003290990E+02  0.00000000000E+00 0. -1.
         21   -1    0    0  501  503 -0.00000000000E+00 -0.00000000000E+00 -0.36736855888E+02  0.36736855888E+02  0.00000000000E+00 0.  1.
          2    1    1    2  501    0 -0.35341689537E+01  0.19770300942E+02 -0.13974915453E+02  0.24467394864E+02  0.00000000000E+00 0.  1.
         -2    1    1    2    0  502  0.35341689537E+01 -0.19770300942E+02 -0.11758649445E+02  0.23272752014E+02  0.00000000000E+00 0. -1.
<mgrwt>
<rscale>  2 0.20083704E+02</rscale>
<asrwt>0</asrwt>
<pdfrwt beam="1">  1       21 0.16928140E-02 0.20083704E+02</pdfrwt>
<pdfrwt beam="2">  1       21 0.56518241E-02 0.20083704E+02</pdfrwt>
<totfact> 0.21785133E+08</totfact>
</mgrwt>
</event>
<event>
 4    1  0.2754379E+004  0.2789817E+02  0.7546771E-02  0.1622556E+00
         21   -1    0    0  503  502  0.00000000000E+00  0.00000000000E+00  0.13322769375E+02  0.13322769375E+02  0.00000000000E+00 0.  1.
         21   -1    0    0  501  503 -0.00000000000E+00 -0.00000000000E+00 -0.26855391596E+03  0.26855391596E+03  0.00000000000E+00 0. -1.
          2    1    1    2  501    0  0.16303281358E+02 -0.22638697852E+02 -0.25228562989E+03  0.25382345571E+03  0.00000000000E+00 0. -1.
         -2    1    1    2    0  502 -0.16303281358E+02  0.22638697852E+02 -0.29455166978E+01  0.28053229620E+02  0.00000000000E+00 0.  1.
<mgrwt>
<rscale>  2 0.27898165E+02</rscale>
<asrwt>0</asrwt>
<pdfrwt beam="1">  1       21 0.20496567E-02 0.27898165E+02</pdfrwt>
<pdfrwt beam="2">  1       21 0.41315989E-01 0.27898165E+02</pdfrwt>
<totfact> 0.57250120E+06</totfact>
</mgrwt>
</event>
<event>
 4    1  0.2754379E+004  0.2161942E+02  0.7546771E-02  0.1714918E+00
         21   -1    0    0  501  502  0.00000000000E+00  0.00000000000E+00  0.32374715057E+02  0.32374715057E+02  0.00000000000E+00 0. -1.
         21   -1    0    0  502  503 -0.00000000000E+00 -0.00000000000E+00 -0.14651300406E+02  0.14651300406E+02  0.00000000000E+00 0.  1.
          2    1    1    2  501    0  0.30033247859E+01  0.21409796705E+02  0.11704246505E+02  0.24584319006E+02  0.00000000000E+00 0.  1.
         -2    1    1    2    0  503 -0.30033247859E+01 -0.21409796705E+02  0.60191681453E+01  0.22441696457E+02  0.00000000000E+00 0. -1.
<mgrwt>
<rscale>  2 0.21619421E+02</rscale>
<asrwt>0</asrwt>
<pdfrwt beam="1">  1       21 0.49807254E-02 0.21619421E+02</pdfrwt>
<pdfrwt beam="2">  1       21 0.22540462E-02 0.21619421E+02</pdfrwt>
<totfact> 0.17612459E+08</totfact>
</mgrwt>
</event>
<event>
 4    1  0.2754379E+004  0.2015097E+02  0.7546771E-02  0.1742343E+00
         21   -1    0    0  503  502  0.00000000000E+00  0.00000000000E+00  0.33919705129E+02  0.33919705129E+02  0.00000000000E+00 0.  1.
         21   -1    0    0  501  503 -0.00000000000E+00 -0.00000000000E+00 -0.27420979318E+02  0.27420979318E+02  0.00000000000E+00 0. -1.
          2    1    1    2  501    0 -0.16601677840E+02 -0.11421282134E+02 -0.19772344394E+02  0.28231312324E+02  0.00000000000E+00 0. -1.
         -2    1    1    2    0  502  0.16601677840E+02  0.11421282134E+02  0.26271070204E+02  0.33109372123E+02  0.00000000000E+00 0.  1.
<mgrwt>
<rscale>  2 0.20150965E+02</rscale>
<asrwt>0</asrwt>
<pdfrwt beam="1">  1       21 0.52184162E-02 0.20150965E+02</pdfrwt>
<pdfrwt beam="2">  1       21 0.42186122E-02 0.20150965E+02</pdfrwt>
<totfact> 0.60506221E+07</totfact>
</mgrwt>
</event>
<event>
 4    1  0.2754379E+004  0.2855591E+02  0.7546771E-02  0.1614623E+00
         21   -1    0    0  503  502  0.00000000000E+00  0.00000000000E+00  0.58368719743E+02  0.58368719743E+02  0.00000000000E+00 0. -1.
         21   -1    0    0  501  503 -0.00000000000E+00 -0.00000000000E+00 -0.25987399179E+02  0.25987399179E+02  0.00000000000E+00 0.  1.
          2    1    1    2  501    0 -0.10747974366E+02 -0.26456018722E+02 -0.12490815489E+02  0.31168258713E+02  0.00000000000E+00 0.  1.
         -2    1    1    2    0  502  0.10747974366E+02  0.26456018722E+02  0.44872136053E+02  0.53187860209E+02  0.00000000000E+00 0. -1.
<mgrwt>
<rscale>  2 0.28555908E+02</rscale>
<asrwt>0</asrwt>
<pdfrwt beam="1">  1       21 0.89798030E-02 0.28555908E+02</pdfrwt>
<pdfrwt beam="2">  1       21 0.39980614E-02 0.28555908E+02</pdfrwt>
<totfact> 0.29768496E+07</totfact>
</mgrwt>
</event>
<event>
 4    1  0.2754379E+004  0.2123321E+02  0.7546771E-02  0.1721861E+00
         21   -1    0    0  501  502  0.00000000000E+00  0.00000000000E+00  0.28903846320E+01  0.28903846320E+01  0.00000000000E+00 0. -1.
         21   -1    0    0  502  503 -0.00000000000E+00 -0.00000000000E+00 -0.18977197227E+03  0.18977197227E+03  0.00000000000E+00 0.  1.
          2    1    1    2  501    0  0.77131558123E+01  0.19782734638E+02 -0.52792560742E+02  0.56902581945E+02  0.00000000000E+00 0. -1.
         -2    1    1    2    0  503 -0.77131558123E+01 -0.19782734638E+02 -0.13408902690E+03  0.13575977496E+03  0.00000000000E+00 0.  1.
<mgrwt>
<rscale>  2 0.21233214E+02</rscale>
<asrwt>0</asrwt>
<pdfrwt beam="1">  1       21 0.44467457E-03 0.21233214E+02</pdfrwt>
<pdfrwt beam="2">  1       21 0.29195687E-01 0.21233214E+02</pdfrwt>
<totfact> 0.10255321E+08</totfact>
</mgrwt>
</event>
<event>
 4    1  0.2754379E+004  0.2667240E+02  0.7546771E-02  0.1638081E+00
         21   -1    0    0  503  502  0.00000000000E+00  0.00000000000E+00  0.64652800380E+01  0.64652800380E+01  0.00000000000E+00 0.  1.
         21   -1    0    0  501  503 -0.00000000000E+00 -0.00000000000E+00 -0.18694945540E+03  0.18694945540E+03  0.00000000000E+00 0. -1.
          2    1    1    2  501    0 -0.23630503615E+02  0.12369962978E+02 -0.15227144113E+03  0.15458980713E+03  0.00000000000E+00 0. -1.
         -2    1    1    2    0  502  0.23630503615E+02 -0.12369962978E+02 -0.28212734233E+02  0.38824928307E+02  0.00000000000E+00 0.  1.
<mgrwt>
<rscale>  2 0.26672396E+02</rscale>
<asrwt>0</asrwt>
<pdfrwt beam="1">  1       21 0.99465865E-03 0.26672396E+02</pdfrwt>
<pdfrwt beam="2">  1       21 0.28761449E-01 0.26672396E+02</pdfrwt>
<totfact> 0.33647112E+07</totfact>
</mgrwt>
</event>
<event>
 4    1  0.2754379E+004  0.2392502E+02  0.7546771E-02  0.1676940E+00
         21   -1    0    0  503  502  0.00000000000E+00  0.00000000000E+00  0.17415917429E+02  0.17415917429E+02  0.00000000000E+00 0. -1.
         21   -1    0    0  501  503 -0.00000000000E+00 -0.00000000000E+00 -0.33913339859E+02  0.33913339859E+02  0.00000000000E+00 0.  1.
          2    1    1    2  501    0 -0.12453292929E+02  0.20428458667E+02 -0.12757046762E+02  0.27113625179E+02  0.00000000000E+00 0.  1.
         -2    1    1    2    0  502  0.12453292929E+02 -0.20428458667E+02 -0.37403756686E+01  0.24215632109E+02  0.00000000000E+00 0. -1.
<mgrwt>
<rscale>  2 0.23925017E+02</rscale>
<asrwt>0</asrwt>
<pdfrwt beam="1">  1       21 0.26793720E-02 0.23925017E+02</pdfrwt>
<pdfrwt beam="2">  1       21 0.52174368E-02 0.23925017E+02</pdfrwt>
<totfact> 0.12916809E+08</totfact>
</mgrwt>
</event>
<event>
 4    1  0.2754379E+004  0.3156268E+02  0.7546771E-02  0.1581431E+00
         21   -1    0    0  501  502  0.00000000000E+00  0.00000000000E+00  0.11817885981E+02  0.11817885981E+02  0.00000000000E+00 0.  1.
         21   -1    0    0  502  503 -0.00000000000E+00 -0.00000000000E+00 -0.95390271925E+02  0.95390271925E+02  0.00000000000E+00 0. -1.
          2    1    1    2  501    0  0.22091296049E+02 -0.22542784881E+02 -0.23505532004E+02  0.39353685293E+02  0.00000000000E+00 0.  1.
         -2    1    1    2    0  503 -0.22091296049E+02  0.22542784881E+02 -0.60066853939E+02  0.67854472612E+02  0.00000000000E+00 0. -1.
<mgrwt>
<rscale>  2 0.31562676E+02</rscale>
<asrwt>0</asrwt>
<pdfrwt beam="1">  1       21 0.18181364E-02 0.31562676E+02</pdfrwt>
<pdfrwt beam="2">  1       21 0.14675425E-01 0.31562676E+02</pdfrwt>
<totfact> 0.45586230E+07</totfact>
</mgrwt>
</event>
<event>
 4    1  0.2754379E+004  0.3200422E+02  0.7546771E-02  0.1576936E+00
         21   -1    0    0  501  502  0.00000000000E+00  0.00000000000E+00  0.30260666288E+02  0.30260666288E+02  0.00000000000E+00 0. -1.
         21   -1    0    0  502  503 -0.00000000000E+00 -0.00000000000E+00 -0.10206390600E+03  0.10206390600E+03  0.00000000000E+00 0.  1.
          2    1    1    2  501    0 -0.93154970189E+01 -0.30618487160E+02  0.18188317483E+02  0.36811481002E+02  0.00000000000E+00 0. -1.
         -2    1    1    2    0  503  0.93154970189E+01  0.30618487160E+02 -0.89991557199E+02  0.95513091290E+02  0.00000000000E+00 0.  1.
<mgrwt>
<rscale>  2 0.32004222E+02</rscale>
<asrwt>0</asrwt>
<pdfrwt beam="1">  1       21 0.46554871E-02 0.32004222E+02</pdfrwt>
<pdfrwt beam="2">  1       21 0.15702139E-01 0.32004222E+02</pdfrwt>
<totfact> 0.92514345E+06</totfact>
</mgrwt>
</event>
<event>
 4    1  0.2754379E+004  0.2684593E+02  0.7546771E-02  0.1635821E+00
         21   -1    0    0  503  502  0.00000000000E+00  0.00000000000E+00  0.31839155953E+03  0.31839155953E+03  0.00000000000E+00 0. -1.
         21   -1    0    0  501  503 -0.00000000000E+00 -0.00000000000E+00 -0.31645161926E+01  0.31645161926E+01  0.00000000000E+00 0.  1.
          2    1    1    2  501    0  0.32809499969E+01  0.26644691368E+02  0.71826715303E+02  0.76679731625E+02  0.00000000000E+00 0.  1.
         -2    1    1    2    0  502 -0.32809499969E+01 -0.26644691368E+02  0.24340032803E+03  0.24487634409E+03  0.00000000000E+00 0. -1.
<mgrwt>
<rscale>  2 0.26845935E+02</rscale>
<asrwt>0</asrwt>
<pdfrwt beam="1">  1       21 0.48983292E-01 0.26845935E+02</pdfrwt>
<pdfrwt beam="2">  1       21 0.48684890E-03 0.26845935E+02</pdfrwt>
<totfact> 0.35984024E+07</totfact>
</mgrwt>
</event>
<event>
 4    1  0.2754379E+004  0.2981800E+02  0.7546771E-02  0.1600109E+00
         21   -1    0    0  503  502  0.00000000000E+00  0.00000000000E+00  0.22318839053E+02  0.22318839053E+02  0.00000000000E+00 0.  1.
         21   -1    0    0  501  503 -0.00000000000E+00 -0.00000000000E+00 -0.51937464327E+02  0.51937464327E+02  0.00000000000E+00 0. -1.
          2    1    1    2  501    0  0.12597828349E+02 -0.27026054319E+02 -0.32730473875E+02  0.44276368542E+02  0.00000000000E+00 0. -1.
         -2    1    1    2    0  502 -0.12597828349E+02  0.27026054319E+02  0.31118486009E+01  0.29979934838E+02  0.00000000000E+00 0.  1.
<mgrwt>
<rscale>  2 0.29817996E+02</rscale>
<asrwt>0</asrwt>
<pdfrwt beam="1">  1       21 0.34336675E-02 0.29817996E+02</pdfrwt>
<pdfrwt beam="2">  1       21 0.79903791E-02 0.29817996E+02</pdfrwt>
<totfact> 0.46383928E+07</totfact>
</mgrwt>
</event>
<event>
 4    1  0.2754379E+004  0.2309344E+02  0.7546771E-02  0.1690000E+00
         21   -1    0    0  501  502  0.00000000000E+00  0.00000000000E+00  0.26845366605E+01  0.26845366605E+01  0.00000000000E+00 0. -1.
         21   -1    0    0  502  503 -0.00000000000E+00 -0.00000000000E+00 -0.19913396510E+03  0.19913396510E+03  0.00000000000E+00 0.  1.
          2    1    1    2  501    0  0.18469903564E+01 -0.23019456771E+02 -0.10315409285E+03  0.10570749091E+03  0.00000000000E+00 0. -1.
         -2    1    1    2    0  503 -0.18469903564E+01  0.23019456771E+02 -0.93295335598E+02  0.96111010856E+02  0.00000000000E+00 0.  1.
<mgrwt>
<rscale>  2 0.23093436E+02</rscale>
<asrwt>0</asrwt>
<pdfrwt beam="1">  1       21 0.41300571E-03 0.23093436E+02</pdfrwt>
<pdfrwt beam="2">  1       21 0.30635990E-01 0.23093436E+02</pdfrwt>
<totfact> 0.10716851E+08</totfact>
</mgrwt>
</event>
<event>
 4    1  0.2754379E+004  0.3368205E+02  0.7546771E-02  0.1560626E+00
         21   -1    0    0  503  502  0.00000000000E+00  0.00000000000E+00  0.21347699410E+04  0.21347699410E+04  0.00000000000E+00 0. -1.
         21   -1    0    0  501  503 -0.00000000000E+00 -0.00000000000E+00 -0.16903215766E+02  0.16903215766E+02  0.00000000000E+00 0.  1.
          2    1    1    2  501    0  0.33620434149E+02 -0.20364743673E+01  0.14376715120E+00  0.33682361693E+02  0.00000000000E+00 0.  1.
         -2    1    1    2    0  502 -0.33620434149E+02  0.20364743673E+01  0.21177229581E+04  0.21179907950E+04  0.00000000000E+00 0. -1.
<mgrwt>
<rscale>  2 0.33682055E+02</rscale>
<asrwt>0</asrwt>
<pdfrwt beam="1">  1       21 0.32842593E+00 0.33682055E+02</pdfrwt>
<pdfrwt beam="2">  1       21 0.26004964E-02 0.33682055E+02</pdfrwt>
<totfact> 0.26502641E+04</totfact>
</mgrwt>
</event>
<event>
 4    1  0.2754379E+004  0.2311339E+02  0.7546771E-02  0.1689679E+00
         21   -1    0    0  503  502  0.00000000000E+00  0.00000000000E+00  0.91460743728E+00  0.91460743728E+00  0.00000000000E+00 0.  1.
         21   -1    0    0  501  503 -0.00000000000E+00 -0.00000000000E+00 -0.12645748011E+04  0.12645748011E+04  0.00000000000E+00 0. -1.
          2    1    1    2  501    0 -0.20228617145E+02  0.11181756763E+02 -0.10959818945E+04  0.10962255889E+04  0.00000000000E+00 0. -1.
         -2    1    1    2    0  502  0.20228617145E+02 -0.11181756763E+02 -0.16767829913E+03  0.16926381962E+03  0.00000000000E+00 0.  1.
<mgrwt>
<rscale>  2 0.23113387E+02</rscale>
<asrwt>0</asrwt>
<pdfrwt beam="1">  1       21 0.14070950E-03 0.23113387E+02</pdfrwt>
<pdfrwt beam="2">  1       21 0.19454905E+00 0.23113387E+02</pdfrwt>
<totfact> 0.10251162E+07</totfact>
</mgrwt>
</event>
<event>
 4    1  0.2754379E+004  0.2045541E+02  0.7546771E-02  0.1736420E+00
         21   -1    0    0  501  502  0.00000000000E+00  0.00000000000E+00  0.82647348448E+01  0.82647348448E+01  0.00000000000E+00 0. -1.
         21   -1    0    0  502  503 -0.00000000000E+00 -0.00000000000E+00 -0.14215353361E+03  0.14215353361E+03  0.00000000000E+00 0.  1.
          2    1    1    2  501    0 -0.97997219398E+01 -0.17955205644E+02 -0.65962765340E+01  0.21492669074E+02  0.00000000000E+00 0. -1.
         -2    1    1    2    0  503  0.97997219398E+01  0.17955205644E+02 -0.12729252223E+03  0.12892559938E+03  0.00000000000E+00 0.  1.
<mgrwt>
<rscale>  2 0.20455414E+02</rscale>
<asrwt>0</asrwt>
<pdfrwt beam="1">  1       21 0.12714978E-02 0.20455414E+02</pdfrwt>
<pdfrwt beam="2">  1       21 0.21869773E-01 0.20455414E+02</pdfrwt>
<totfact> 0.35643049E+07</totfact>
</mgrwt>
</event>
<event>
 4    1  0.2754379E+004  0.2566643E+02  0.7546771E-02  0.1651610E+00
         21   -1    0    0  501  502  0.00000000000E+00  0.00000000000E+00  0.27658511642E+03  0.27658511642E+03  0.00000000000E+00 0.  1.
         21   -1    0    0  502  503 -0.00000000000E+00 -0.00000000000E+00 -0.47666258782E+01  0.47666258782E+01  0.00000000000E+00 0. -1.
          2    1    1    2  501    0 -0.10384378192E+02 -0.23471904388E+02  0.23541403952E+03  0.23680906995E+03  0.00000000000E+00 0.  1.
         -2    1    1    2    0  503  0.10384378192E+02  0.23471904388E+02  0.36404451023E+02  0.44542672352E+02  0.00000000000E+00 0. -1.
<mgrwt>
<rscale>  2 0.25666430E+02</rscale>
<asrwt>0</asrwt>
<pdfrwt beam="1">  1       21 0.42551544E-01 0.25666430E+02</pdfrwt>
<pdfrwt beam="2">  1       21 0.73332727E-03 0.25666430E+02</pdfrwt>
<totfact> 0.25433220E+07</totfact>
</mgrwt>
</event>
<event>
 4    1  0.2754379E+004  0.2042260E+02  0.7546771E-02  0.1737052E+00
         21   -1    0    0  503  502  0.00000000000E+00  0.00000000000E+00  0.97618242390E+01  0.97618242390E+01  0.00000000000E+00 0. -1.
         21   -1    0    0  501  503 -0.00000000000E+00 -0.00000000000E+00 -0.52008967698E+02  0.52008967698E+02  0.00000000000E+00 0.  1.
          2    1    1    2  501    0 -0.12724276524E+02 -0.15974211112E+02 -0.34172055126E+02  0.39809697126E+02  0.00000000000E+00 0.  1.
         -2    1    1    2    0  502  0.12724276524E+02  0.15974211112E+02 -0.80750883336E+01  0.21961094812E+02  0.00000000000E+00 0. -1.
<mgrwt>
<rscale>  2 0.20422601E+02</rscale>
<asrwt>0</asrwt>
<pdfrwt beam="1">  1       21 0.15018191E-02 0.20422601E+02</pdfrwt>
<pdfrwt beam="2">  1       21 0.80013797E-02 0.20422601E+02</pdfrwt>
<totfact> 0.15018393E+08</totfact>
</mgrwt>
</event>
<event>
 4    1  0.2754379E+004  0.2038856E+02  0.7546771E-02  0.1737710E+00
         21   -1    0    0  503  502  0.00000000000E+00  0.00000000000E+00  0.52434783538E+00  0.52434783538E+00  0.00000000000E+00 0.  1.
         21   -1    0    0  501  503 -0.00000000000E+00 -0.00000000000E+00 -0.12506647669E+04  0.12506647669E+04  0.00000000000E+00 0. -1.
          2    1    1    2  501    0  0.23001977317E+01 -0.20258388799E+02 -0.10035998777E+04  0.10038069574E+04  0.00000000000E+00 0. -1.
         -2    1    1    2    0  502 -0.23001977317E+01  0.20258388799E+02 -0.24654054137E+03  0.24738215733E+03  0.00000000000E+00 0.  1.
<mgrwt>
<rscale>  2 0.20388556E+02</rscale>
<asrwt>0</asrwt>
<pdfrwt beam="1">  1       21 0.80669162E-04 0.20388556E+02</pdfrwt>
<pdfrwt beam="2">  1       21 0.19240933E+00 0.20388556E+02</pdfrwt>
<totfact> 0.22849775E+07</totfact>
</mgrwt>
</event>
<event>
 4    1  0.2754379E+004  0.3458844E+02  0.7546771E-02  0.1552286E+00
         21   -1    0    0  501  502  0.00000000000E+00  0.00000000000E+00  0.45169438798E+03  0.45169438798E+03  0.00000000000E+00 0. -1.
         21   -1    0    0  502  503 -0.00000000000E+00 -0.00000000000E+00 -0.52182146345E+01  0.52182146345E+01  0.00000000000E+00 0.  1.
          2    1    1    2  501    0  0.34498252325E+02 -0.24962176599E+01  0.38355363848E+03  0.38511005454E+03  0.00000000000E+00 0. -1.
         -2    1    1    2    0  503 -0.34498252325E+02  0.24962176599E+01  0.62922534859E+02  0.71802548069E+02  0.00000000000E+00 0.  1.
<mgrwt>
<rscale>  2 0.34588445E+02</rscale>
<asrwt>0</asrwt>
<pdfrwt beam="1">  1       21 0.69491413E-01 0.34588445E+02</pdfrwt>
<pdfrwt beam="2">  1       21 0.80280261E-03 0.34588445E+02</pdfrwt>
<totfact> 0.87739343E+06</totfact>
</mgrwt>
</event>
<event>
 4    1  0.2754379E+004  0.2422068E+02  0.7546771E-02  0.1672455E+00
         21   -1    0    0  503  502  0.00000000000E+00  0.00000000000E+00  0.31423150581E+01  0.31423150581E+01  0.00000000000E+00 0. -1.
         21   -1    0    0  501  503 -0.00000000000E+00 -0.00000000000E+00 -0.25290634933E+03  0.25290634933E+03  0.00000000000E+00 0.  1.
          2    1    1    2  501    0 -0.15244176120E+02  0.18821703000E+02 -0.19038974623E+03  0.19192419566E+03  0.00000000000E+00 0.  1.
         -2    1    1    2    0  502  0.15244176120E+02 -0.18821703000E+02 -0.59374288035E+02  0.64124468724E+02  0.00000000000E+00 0. -1.
<mgrwt>
<rscale>  2 0.24220681E+02</rscale>
<asrwt>0</asrwt>
<pdfrwt beam="1">  1       21 0.48343324E-03 0.24220681E+02</pdfrwt>
<pdfrwt beam="2">  1       21 0.38908657E-01 0.24220681E+02</pdfrwt>
<totfact> 0.55265686E+07</totfact>
</mgrwt>
</event>
<event>
 4    1  0.2754379E+004  0.2331211E+02  0.7546771E-02  0.1686500E+00
         21   -1    0    0  503  502  0.00000000000E+00  0.00000000000E+00  0.21713412533E+03  0.21713412533E+03  0.00000000000E+00 0.  1.
         21   -1    0    0  501  503 -0.00000000000E+00 -0.00000000000E+00 -0.25261576681E+01  0.25261576681E+01  0.00000000000E+00 0. -1.
          2    1    1    2  501    0  0.18612478014E+02 -0.14036742021E+02  0.11785336659E+03  0.12013688226E+03  0.00000000000E+00 0.  1.
         -2    1    1    2    0  502 -0.18612478014E+02  0.14036742021E+02  0.96754601073E+02  0.99523400731E+02  0.00000000000E+00 0. -1.
<mgrwt>
<rscale>  2 0.23312110E+02</rscale>
<asrwt>0</asrwt>
<pdfrwt beam="1">  1       21 0.33405235E-01 0.23312110E+02</pdfrwt>
<pdfrwt beam="2">  1       21 0.38863981E-03 0.23312110E+02</pdfrwt>
<totfact> 0.10023573E+08</totfact>
</mgrwt>
</event>
<event>
 4    1  0.2754379E+004  0.4374441E+02  0.7546771E-02  0.1482336E+00
         21   -1    0    0  501  502  0.00000000000E+00  0.00000000000E+00  0.28763839026E+02  0.28763839026E+02  0.00000000000E+00 0. -1.
         21   -1    0    0  502  503 -0.00000000000E+00 -0.00000000000E+00 -0.67562781815E+02  0.67562781815E+02  0.00000000000E+00 0.  1.
          2    1    1    2  501    0  0.29996805504E+02  0.31839680214E+02 -0.13436199288E+02  0.45761392329E+02  0.00000000000E+00 0. -1.
         -2    1    1    2    0  503 -0.29996805504E+02 -0.31839680214E+02 -0.25362743501E+02  0.50565228512E+02  0.00000000000E+00 0.  1.
<mgrwt>
<rscale>  2 0.43744412E+02</rscale>
<asrwt>0</asrwt>
<pdfrwt beam="1">  1       21 0.44252061E-02 0.43744412E+02</pdfrwt>
<pdfrwt beam="2">  1       21 0.10394274E-01 0.43744412E+02</pdfrwt>
<totfact> 0.21373736E+07</totfact>
</mgrwt>
</event>
<event>
 4    1  0.2754379E+004  0.2769632E+02  0.7546771E-02  0.1625044E+00
         21   -1    0    0  501  502  0.00000000000E+00  0.00000000000E+00  0.10129359269E+02  0.10129359269E+02  0.00000000000E+00 0.  1.
         21   -1    0    0  502  503 -0.00000000000E+00 -0.00000000000E+00 -0.17759452283E+03  0.17759452283E+03  0.00000000000E+00 0. -1.
          2    1    1    2  501    0  0.22819331068E+02  0.15696003105E+02 -0.12645886001E+02  0.30446753795E+02  0.00000000000E+00 0.  1.
         -2    1    1    2    0  503 -0.22819331068E+02 -0.15696003105E+02 -0.15481927755E+03  0.15727712830E+03  0.00000000000E+00 0. -1.
<mgrwt>
<rscale>  2 0.27696324E+02</rscale>
<asrwt>0</asrwt>
<pdfrwt beam="1">  1       21 0.15583629E-02 0.27696324E+02</pdfrwt>
<pdfrwt beam="2">  1       21 0.27322236E-01 0.27696324E+02</pdfrwt>
<totfact> 0.18805526E+07</totfact>
</mgrwt>
</event>
<event>
 4    1  0.2754379E+004  0.2305718E+02  0.7546771E-02  0.1690585E+00
         21   -1    0    0  501  502  0.00000000000E+00  0.00000000000E+00  0.31395213937E+01  0.31395213937E+01  0.00000000000E+00 0. -1.
         21   -1    0    0  502  503 -0.00000000000E+00 -0.00000000000E+00 -0.53571408245E+03  0.53571408245E+03  0.00000000000E+00 0.  1.
          2    1    1    2  501    0  0.17695457957E+02  0.14781891096E+02 -0.43475015388E+02  0.49210877860E+02  0.00000000000E+00 0. -1.
         -2    1    1    2    0  503 -0.17695457957E+02 -0.14781891096E+02 -0.48909954567E+03  0.48964272599E+03  0.00000000000E+00 0.  1.
<mgrwt>
<rscale>  2 0.23057180E+02</rscale>
<asrwt>0</asrwt>
<pdfrwt beam="1">  1       21 0.48300332E-03 0.23057180E+02</pdfrwt>
<pdfrwt beam="2">  1       21 0.82417547E-01 0.23057180E+02</pdfrwt>
<totfact> 0.12323470E+07</totfact>
</mgrwt>
</event>
<event>
 4    1  0.2754379E+004  0.2633343E+02  0.7546771E-02  0.1642556E+00
         21   -1    0    0  503  502  0.00000000000E+00  0.00000000000E+00  0.12042517115E+03  0.12042517115E+03  0.00000000000E+00 0. -1.
         21   -1    0    0  501  503 -0.00000000000E+00 -0.00000000000E+00 -0.60167048921E+01  0.60167048921E+01  0.00000000000E+00 0.  1.
          2    1    1    2  501    0  0.23479158308E+02 -0.11923872725E+02  0.44103530409E+02  0.51367022594E+02  0.00000000000E+00 0.  1.
         -2    1    1    2    0  502 -0.23479158308E+02  0.11923872725E+02  0.70304935851E+02  0.75074853451E+02  0.00000000000E+00 0. -1.
<mgrwt>
<rscale>  2 0.26333432E+02</rscale>
<asrwt>0</asrwt>
<pdfrwt beam="1">  1       21 0.18526948E-01 0.26333432E+02</pdfrwt>
<pdfrwt beam="2">  1       21 0.92564699E-03 0.26333432E+02</pdfrwt>
<totfact> 0.81808758E+07</totfact>
</mgrwt>
</event>
<event>
 4    1  0.2754379E+004  0.2512092E+02  0.7546771E-02  0.1659271E+00
         21   -1    0    0  501  502  0.00000000000E+00  0.00000000000E+00  0.10624163073E+02  0.10624163073E+02  0.00000000000E+00 0. -1.
         21   -1    0    0  502  503 -0.00000000000E+00 -0.00000000000E+00 -0.64719257377E+02  0.64719257377E+02  0.00000000000E+00 0.  1.
          2    1    1    2  501    0 -0.18904687625E+02 -0.16543083804E+02 -0.16246158446E+02  0.29916525537E+02  0.00000000000E+00 0. -1.
         -2    1    1    2    0  503  0.18904687625E+02  0.16543083804E+02 -0.37848935857E+02  0.45426894913E+02  0.00000000000E+00 0.  1.
<mgrwt>
<rscale>  2 0.25120924E+02</rscale>
<asrwt>0</asrwt>
<pdfrwt beam="1">  1       21 0.16344866E-02 0.25120924E+02</pdfrwt>
<pdfrwt beam="2">  1       21 0.99568087E-02 0.25120924E+02</pdfrwt>
<totfact> 0.97963422E+07</totfact>
</mgrwt>
</event>
<event>
 4    1  0.2754379E+004  0.2575529E+02  0.7546771E-02  0.1650385E+00
         21   -1    0    0  503  502  0.00000000000E+00  0.00000000000E+00  0.21620897440E+01  0.21620897440E+01  0.00000000000E+00 0. -1.
         21   -1    0    0  501  503 -0.00000000000E+00 -0.00000000000E+00 -0.32330400112E+03  0.32330400112E+03  0.00000000000E+00 0.  1.
          2    1    1    2  501    0  0.23423925340E+02  0.10707682105E+02 -0.19733563210E+03  0.19900926217E+03  0.00000000000E+00 0.  1.
         -2    1    1    2    0  502 -0.23423925340E+02 -0.10707682105E+02 -0.12380627928E+03  0.12645682870E+03  0.00000000000E+00 0. -1.
<mgrwt>
<rscale>  2 0.25755286E+02</rscale>
<asrwt>0</asrwt>
<pdfrwt beam="1">  1       21 0.33262917E-03 0.25755286E+02</pdfrwt>
<pdfrwt beam="2">  1       21 0.49739080E-01 0.25755286E+02</pdfrwt>
<totfact> 0.60683728E+07</totfact>
</mgrwt>
</event>
<event>
 4    1  0.2754379E+004  0.2336234E+02  0.7546771E-02  0.1685703E+00
         21   -1    0    0  501  502  0.00000000000E+00  0.00000000000E+00  0.27168208925E+00  0.27168208925E+00  0.00000000000E+00 0. -1.
         21   -1    0    0  502  503 -0.00000000000E+00 -0.00000000000E+00 -0.20634283678E+04  0.20634283678E+04  0.00000000000E+00 0.  1.
          2    1    1    2  501    0  0.31546005893E+01 -0.23148381795E+02 -0.86393560331E+03  0.86425142508E+03  0.00000000000E+00 0. -1.
         -2    1    1    2    0  503 -0.31546005893E+01  0.23148381795E+02 -0.11992210824E+04  0.11994486248E+04  0.00000000000E+00 0.  1.
<mgrwt>
<rscale>  2 0.23362343E+02</rscale>
<asrwt>0</asrwt>
<pdfrwt beam="1">  1       21 0.41796186E-04 0.23362343E+02</pdfrwt>
<pdfrwt beam="2">  1       21 0.31745856E+00 0.23362343E+02</pdfrwt>
<totfact> 0.13741506E+07</totfact>
</mgrwt>
</event>
<event>
 4    1  0.2754379E+004  0.2079487E+02  0.7546771E-02  0.1729968E+00
         21   -1    0    0  501  502  0.00000000000E+00  0.00000000000E+00  0.51510389532E+02  0.51510389532E+02  0.00000000000E+00 0.  1.
         21   -1    0    0  502  503 -0.00000000000E+00 -0.00000000000E+00 -0.84511974874E+01  0.84511974874E+01  0.00000000000E+00 0. -1.
          2    1    1    2  501    0  0.20776623604E+02 -0.87082509935E+00  0.19083409855E+02  0.28224155549E+02  0.00000000000E+00 0. -1.
         -2    1    1    2    0  503 -0.20776623604E+02  0.87082509935E+00  0.23975782189E+02  0.31737431470E+02  0.00000000000E+00 0.  1.
<mgrwt>
<rscale>  2 0.20794865E+02</rscale>
<asrwt>0</asrwt>
<pdfrwt beam="1">  1       21 0.79246751E-02 0.20794865E+02</pdfrwt>
<pdfrwt beam="2">  1       21 0.13001843E-02 0.20794865E+02</pdfrwt>
<totfact> 0.19074560E+08</totfact>
</mgrwt>
</event>
<event>
 4    1  0.2754379E+004  0.2039250E+02  0.7546771E-02  0.1737633E+00
         21   -1    0    0  501  502  0.00000000000E+00  0.00000000000E+00  0.47171789386E+03  0.47171789386E+03  0.00000000000E+00 0. -1.
         21   -1    0    0  502  503 -0.00000000000E+00 -0.00000000000E+00 -0.59042631295E+01  0.59042631295E+01  0.00000000000E+00 0.  1.
          2    1    1    2  501    0 -0.91254587616E+00  0.20372076530E+02  0.45316891075E+03  0.45362750789E+03  0.00000000000E+00 0. -1.
         -2    1    1    2    0  503  0.91254587616E+00 -0.20372076530E+02  0.12644719981E+02  0.23994649102E+02  0.00000000000E+00 0.  1.
<mgrwt>
<rscale>  2 0.20392505E+02</rscale>
<asrwt>0</asrwt>
<pdfrwt beam="1">  1       21 0.72571954E-01 0.20392505E+02</pdfrwt>
<pdfrwt beam="2">  1       21 0.90834855E-03 0.20392505E+02</pdfrwt>
<totfact> 0.61640268E+06</totfact>
</mgrwt>
</event>
<event>
 4    1  0.2754379E+004  0.2453456E+02  0.7546771E-02  0.1667779E+00
         21   -1    0    0  501  502  0.00000000000E+00  0.00000000000E+00  0.36442738359E+01  0.36442738359E+01  0.00000000000E+00 0. -1.
         21   -1    0    0  502  503 -0.00000000000E+00 -0.00000000000E+00 -0.22793350798E+03  0.22793350798E+03  0.00000000000E+00 0.  1.
          2    1    1    2  501    0  0.16507033254E+02  0.18151097916E+02 -0.51387435463E+02  0.56943946350E+02  0.00000000000E+00 0. -1.
         -2    1    1    2    0  503 -0.16507033254E+02 -0.18151097916E+02 -0.17290179868E+03  0.17463383546E+03  0.00000000000E+00 0.  1.
<mgrwt>
<rscale>  2 0.24534557E+02</rscale>
<asrwt>0</asrwt>
<pdfrwt beam="1">  1       21 0.56065742E-03 0.24534557E+02</pdfrwt>
<pdfrwt beam="2">  1       21 0.35066699E-01 0.24534557E+02</pdfrwt>
<totfact> 0.54072732E+07</totfact>
</mgrwt>
</event>
<event>
 4    1  0.2754379E+004  0.2273260E+02  0.7546771E-02  0.1695882E+00
         21   -1    0    0  503  502  0.00000000000E+00  0.00000000000E+00  0.27529937121E+02  0.27529937121E+02  0.00000000000E+00 0. -1.
         21   -1    0    0  501  503 -0.00000000000E+00 -0.00000000000E+00 -0.13630003207E+03  0.13630003207E+03  0.00000000000E+00 0.  1.
          2    1    1    2  501    0  0.11903086897E+02 -0.19367180429E+02 -0.13045050898E+03  0.13241641306E+03  0.00000000000E+00 0.  1.
         -2    1    1    2    0  502 -0.11903086897E+02  0.19367180429E+02  0.21680414037E+02  0.31413556122E+02  0.00000000000E+00 0. -1.
<mgrwt>
<rscale>  2 0.22732601E+02</rscale>
<asrwt>0</asrwt>
<pdfrwt beam="1">  1       21 0.42353750E-02 0.22732601E+02</pdfrwt>
<pdfrwt beam="2">  1       21 0.20969235E-01 0.22732601E+02</pdfrwt>
<totfact> 0.61499419E+06</totfact>
</mgrwt>
</event>
<event>
 4    1  0.2754379E+004  0.2297462E+02  0.7546771E-02  0.1691922E+00
         21   -1    0    0  503  502  0.00000000000E+00  0.00000000000E+00  0.12617656763E+03  0.12617656763E+03  0.00000000000E+00 0.  1.
         21   -1    0    0  501  503 -0.00000000000E+00 -0.00000000000E+00 -0.56068622835E+01  0.56068622835E+01  0.00000000000E+00 0. -1.
          2    1    1    2  501    0  0.15456230416E+02  0.16998173660E+02  0.27083110032E+02  0.35515177255E+02  0.00000000000E+00 0. -1.
         -2    1    1    2    0  502 -0.15456230416E+02 -0.16998173660E+02  0.93486595316E+02  0.96268252660E+02  0.00000000000E+00 0.  1.
<mgrwt>
<rscale>  2 0.22974616E+02</rscale>
<asrwt>0</asrwt>
<pdfrwt beam="1">  1       21 0.19411777E-01 0.22974616E+02</pdfrwt>
<pdfrwt beam="2">  1       21 0.86259429E-03 0.22974616E+02</pdfrwt>
<totfact> 0.80951958E+07</totfact>
</mgrwt>
</event>
<event>
 4    1  0.2754379E+004  0.2429911E+02  0.7546771E-02  0.1671278E+00
         21   -1    0    0  503  502  0.00000000000E+00  0.00000000000E+00  0.16791984977E+02  0.16791984977E+02  0.00000000000E+00 0. -1.
         21   -1    0    0  501  503 -0.00000000000E+00 -0.00000000000E+00 -0.37638783805E+02  0.37638783805E+02  0.00000000000E+00 0.  1.
          2    1    1    2  501    0 -0.92644576015E+01 -0.22463676029E+02 -0.34426274532E+01  0.24541772535E+02  0.00000000000E+00 0. -1.
         -2    1    1    2    0  502  0.92644576015E+01  0.22463676029E+02 -0.17404171375E+02  0.29888996246E+02  0.00000000000E+00 0.  1.
<mgrwt>
<rscale>  2 0.24299113E+02</rscale>
<asrwt>0</asrwt>
<pdfrwt beam="1">  1       21 0.25833823E-02 0.24299113E+02</pdfrwt>
<pdfrwt beam="2">  1       21 0.57905820E-02 0.24299113E+02</pdfrwt>
<totfact> 0.11619895E+08</totfact>
</mgrwt>
</event>
<event>
 4    1  0.2754379E+004  0.2559108E+02  0.7546771E-02  0.1652654E+00
         21   -1    0    0  503  502  0.00000000000E+00  0.00000000000E+00  0.38441000695E+01  0.38441000695E+01  0.00000000000E+00 0.  1.
         21   -1    0    0  501  503 -0.00000000000E+00 -0.00000000000E+00 -0.17277906758E+03  0.17277906758E+03  0.00000000000E+00 0. -1.
          2    1    1    2  501    0 -0.20445743049E+02 -0.15390741959E+02 -0.94904371889E+02  0.98294166411E+02  0.00000000000E+00 0. -1.
         -2    1    1    2    0  502  0.20445743049E+02  0.15390741959E+02 -0.74030595625E+02  0.78329001242E+02  0.00000000000E+00 0.  1.
<mgrwt>
<rscale>  2 0.25591079E+02</rscale>
<asrwt>0</asrwt>
<pdfrwt beam="1">  1       21 0.59139985E-03 0.25591079E+02</pdfrwt>
<pdfrwt beam="2">  1       21 0.26581402E-01 0.25591079E+02</pdfrwt>
<totfact> 0.83763150E+07</totfact>
</mgrwt>
</event>
<event>
 4    1  0.2754379E+004  0.2723646E+02  0.7546771E-02  0.1630812E+00
         21   -1    0    0  503  502  0.00000000000E+00  0.00000000000E+00  0.71499782935E+02  0.71499782935E+02  0.00000000000E+00 0. -1.
         21   -1    0    0  501  503 -0.00000000000E+00 -0.00000000000E+00 -0.12073946751E+02  0.12073946751E+02  0.00000000000E+00 0.  1.
          2    1    1    2  501    0 -0.25043878297E+02 -0.10706480640E+02  0.14038932462E+02  0.30641739385E+02  0.00000000000E+00 0.  1.
         -2    1    1    2    0  502  0.25043878297E+02  0.10706480640E+02  0.45386903721E+02  0.52931990301E+02  0.00000000000E+00 0. -1.
<mgrwt>
<rscale>  2 0.27236457E+02</rscale>
<asrwt>0</asrwt>
<pdfrwt beam="1">  1       21 0.10999966E-01 0.27236457E+02</pdfrwt>
<pdfrwt beam="2">  1       21 0.18575303E-02 0.27236457E+02</pdfrwt>
<totfact> 0.69592327E+07</totfact>
</mgrwt>
</event>
<event>
 4    1  0.2754379E+004  0.2452337E+02  0.7546771E-02  0.1667944E+00
         21   -1    0    0  503  502  0.00000000000E+00  0.00000000000E+00  0.34805311819E+02  0.34805311819E+02  0.00000000000E+00 0. -1.
         21   -1    0    0  501  503 -0.00000000000E+00 -0.00000000000E+00 -0.17303199369E+02  0.17303199369E+02  0.00000000000E+00 0.  1.
          2    1    1    2  501    0 -0.21461921617E+02 -0.11865143390E+02  0.97284586296E+01  0.26382543745E+02  0.00000000000E+00 0. -1.
         -2    1    1    2    0  502  0.21461921617E+02  0.11865143390E+02  0.77736538211E+01  0.25725967443E+02  0.00000000000E+00 0.  1.
<mgrwt>
<rscale>  2 0.24523371E+02</rscale>
<asrwt>0</asrwt>
<pdfrwt beam="1">  1       21 0.53546633E-02 0.24523371E+02</pdfrwt>
<pdfrwt beam="2">  1       21 0.26620307E-02 0.24523371E+02</pdfrwt>
<totfact> 0.12607618E+08</totfact>
</mgrwt>
</event>
<event>
 4    1  0.2754379E+004  0.3037468E+02  0.7546771E-02  0.1593984E+00
         21   -1    0    0  503  502  0.00000000000E+00  0.00000000000E+00  0.89912162495E+02  0.89912162495E+02  0.00000000000E+00 0.  1.
         21   -1    0    0  501  503 -0.00000000000E+00 -0.00000000000E+00 -0.10348739216E+02  0.10348739216E+02  0.00000000000E+00 0. -1.
          2    1    1    2  501    0  0.19286199278E+02 -0.23466218846E+02  0.44388161341E+02  0.53785962637E+02  0.00000000000E+00 0.  1.
         -2    1    1    2    0  502 -0.19286199278E+02  0.23466218846E+02  0.35175261938E+02  0.46474939074E+02  0.00000000000E+00 0. -1.
<mgrwt>
<rscale>  2 0.30374675E+02</rscale>
<asrwt>0</asrwt>
<pdfrwt beam="1">  1       21 0.13832640E-01 0.30374675E+02</pdfrwt>
<pdfrwt beam="2">  1       21 0.15921138E-02 0.30374675E+02</pdfrwt>
<totfact> 0.61414752E+07</totfact>
</mgrwt>
</event>
<event>
 4    1  0.2754379E+004  0.2922730E+02  0.7546771E-02  0.1606790E+00
         21   -1    0    0  501  502  0.00000000000E+00  0.00000000000E+00  0.81070214166E+03  0.81070214166E+03  0.00000000000E+00 0. -1.
         21   -1    0    0  502  503 -0.00000000000E+00 -0.00000000000E+00 -0.18484306193E+01  0.18484306193E+01  0.00000000000E+00 0.  1.
          2    1    1    2  501    0  0.21226750807E+02  0.20091300900E+02  0.67082384628E+03  0.67146025055E+03  0.00000000000E+00 0. -1.
         -2    1    1    2    0  503 -0.21226750807E+02 -0.20091300900E+02  0.13802986475E+03  0.14109032173E+03  0.00000000000E+00 0.  1.
<mgrwt>
<rscale>  2 0.29227304E+02</rscale>
<asrwt>0</asrwt>
<pdfrwt beam="1">  1       21 0.12472312E+00 0.29227304E+02</pdfrwt>
<pdfrwt beam="2">  1       21 0.28437459E-03 0.29227304E+02</pdfrwt>
<totfact> 0.11170158E+07</totfact>
</mgrwt>
</event>
<event>
 4    1  0.2754379E+004  0.5348518E+02  0.7546771E-02  0.1427401E+00
         21   -1    0    0  501  502  0.00000000000E+00  0.00000000000E+00  0.22109475239E+03  0.22109475239E+03  0.00000000000E+00 0.  1.
         21   -1    0    0  502  503 -0.00000000000E+00 -0.00000000000E+00 -0.14911752064E+02  0.14911752064E+02  0.00000000000E+00 0. -1.
          2    1    1    2  501    0 -0.52157106625E+02 -0.11844873528E+02  0.14601605677E+03  0.15550354862E+03  0.00000000000E+00 0. -1.
         -2    1    1    2    0  503  0.52157106625E+02  0.11844873528E+02  0.60166943557E+02  0.80502955831E+02  0.00000000000E+00 0.  1.
<mgrwt>
<rscale>  2 0.53485183E+02</rscale>
<asrwt>0</asrwt>
<pdfrwt beam="1">  1       21 0.34014575E-01 0.53485183E+02</pdfrwt>
<pdfrwt beam="2">  1       21 0.22941159E-02 0.53485183E+02</pdfrwt>
<totfact> 0.75156280E+06</totfact>
</mgrwt>
</event>
<event>
 4    1  0.2754379E+004  0.5752837E+02  0.7546771E-02  0.1408507E+00
         21   -1    0    0  501  502  0.00000000000E+00  0.00000000000E+00  0.15883109679E+04  0.15883109679E+04  0.00000000000E+00 0.  1.
         21   -1    0    0  502  503 -0.00000000000E+00 -0.00000000000E+00 -0.30733272867E+01  0.30733272867E+01  0.00000000000E+00 0. -1.
          2    1    1    2  501    0  0.25604031428E+02 -0.51516467540E+02  0.12441455890E+04  0.12454749132E+04  0.00000000000E+00 0.  1.
         -2    1    1    2    0  503 -0.25604031428E+02  0.51516467540E+02  0.34109205164E+03  0.34590938199E+03  0.00000000000E+00 0. -1.
<mgrwt>
<rscale>  2 0.57528366E+02</rscale>
<asrwt>0</asrwt>
<pdfrwt beam="1">  1       21 0.24435488E+00 0.57528366E+02</pdfrwt>
<pdfrwt beam="2">  1       21 0.47282085E-03 0.57528366E+02</pdfrwt>
<totfact> 0.94019813E+05</totfact>
</mgrwt>
</event>
<event>
 4    1  0.2754379E+004  0.2170164E+02  0.7546771E-02  0.1713464E+00
         21   -1    0    0  503  502  0.00000000000E+00  0.00000000000E+00  0.10594625700E+02  0.10594625700E+02  0.00000000000E+00 0. -1.
         21   -1    0    0  501  503 -0.00000000000E+00 -0.00000000000E+00 -0.52503849839E+02  0.52503849839E+02  0.00000000000E+00 0.  1.
          2    1    1    2  501    0  0.19626240686E+02 -0.92613037716E+01 -0.86002932024E+01  0.23343652546E+02  0.00000000000E+00 0.  1.
         -2    1    1    2    0  502 -0.19626240686E+02  0.92613037716E+01 -0.33308930937E+02  0.39754822993E+02  0.00000000000E+00 0. -1.
<mgrwt>
<rscale>  2 0.21701638E+02</rscale>
<asrwt>0</asrwt>
<pdfrwt beam="1">  1       21 0.16299424E-02 0.21701638E+02</pdfrwt>
<pdfrwt beam="2">  1       21 0.80775153E-02 0.21701638E+02</pdfrwt>
<totfact> 0.13305766E+08</totfact>
</mgrwt>
</event>
<event>
 4    1  0.2754379E+004  0.2011359E+02  0.7546771E-02  0.1743079E+00
         21   -1    0    0  501  502  0.00000000000E+00  0.00000000000E+00  0.19257791215E+02  0.19257791215E+02  0.00000000000E+00 0.  1.
         21   -1    0    0  502  503 -0.00000000000E+00 -0.00000000000E+00 -0.12778082730E+03  0.12778082730E+03  0.00000000000E+00 0. -1.
          2    1    1    2  501    0  0.19837125279E+02 -0.33234203515E+01  0.12943252863E+02  0.23918287080E+02  0.00000000000E+00 0.  1.
         -2    1    1    2    0  503 -0.19837125279E+02  0.33234203515E+01 -0.12146628895E+03  0.12312033144E+03  0.00000000000E+00 0. -1.
<mgrwt>
<rscale>  2 0.20113594E+02</rscale>
<asrwt>0</asrwt>
<pdfrwt beam="1">  1       21 0.29627370E-02 0.20113594E+02</pdfrwt>
<pdfrwt beam="2">  1       21 0.19658590E-01 0.20113594E+02</pdfrwt>
<totfact> 0.11756136E+07</totfact>
</mgrwt>
</event>
<event>
 4    1  0.2754379E+004  0.3570934E+02  0.7546771E-02  0.1542390E+00
         21   -1    0    0  501  502  0.00000000000E+00  0.00000000000E+00  0.47840352500E+01  0.47840352500E+01  0.00000000000E+00 0. -1.
         21   -1    0    0  502  503 -0.00000000000E+00 -0.00000000000E+00 -0.41266761519E+03  0.41266761519E+03  0.00000000000E+00 0.  1.
          2    1    1    2  501    0 -0.54130995667E+01  0.35296679426E+02 -0.79737732770E+02  0.87368548418E+02  0.00000000000E+00 0. -1.
         -2    1    1    2    0  503  0.54130995667E+01 -0.35296679426E+02 -0.32814584717E+03  0.33008310203E+03  0.00000000000E+00 0.  1.
<mgrwt>
<rscale>  2 0.35709344E+02</rscale>
<asrwt>0</asrwt>
<pdfrwt beam="1">  1       21 0.73600545E-03 0.35709344E+02</pdfrwt>
<pdfrwt beam="2">  1       21 0.63487323E-01 0.35709344E+02</pdfrwt>
<totfact> 0.12113911E+07</totfact>
</mgrwt>
</event>
<event>
 4    1  0.2754379E+004  0.2123955E+02  0.7546771E-02  0.1721745E+00
         21   -1    0    0  503  502  0.00000000000E+00  0.00000000000E+00  0.22661871562E+02  0.22661871562E+02  0.00000000000E+00 0.  1.
         21   -1    0    0  501  503 -0.00000000000E+00 -0.00000000000E+00 -0.22385340171E+02  0.22385340171E+02  0.00000000000E+00 0. -1.
          2    1    1    2  501    0 -0.20631847377E+02  0.50443509795E+01 -0.73568805880E+01  0.22477595400E+02  0.00000000000E+00 0. -1.
         -2    1    1    2    0  502  0.20631847377E+02 -0.50443509795E+01  0.76334119785E+01  0.22569616333E+02  0.00000000000E+00 0.  1.
<mgrwt>
<rscale>  2 0.21239553E+02</rscale>
<asrwt>0</asrwt>
<pdfrwt beam="1">  1       21 0.34864418E-02 0.21239553E+02</pdfrwt>
<pdfrwt beam="2">  1       21 0.34438985E-02 0.21239553E+02</pdfrwt>
<totfact> 0.15929349E+08</totfact>
</mgrwt>
</event>
<event>
 4    1  0.2754379E+004  0.2410416E+02  0.7546771E-02  0.1674213E+00
         21   -1    0    0  501  502  0.00000000000E+00  0.00000000000E+00  0.64182150349E+03  0.64182150349E+03  0.00000000000E+00 0. -1.
         21   -1    0    0  502  503 -0.00000000000E+00 -0.00000000000E+00 -0.94703122603E+00  0.94703122603E+00  0.00000000000E+00 0.  1.
          2    1    1    2  501    0 -0.23442900424E+02  0.56072046684E+01  0.25293445781E+03  0.25408040120E+03  0.00000000000E+00 0.  1.
         -2    1    1    2    0  503  0.23442900424E+02 -0.56072046684E+01  0.38794001446E+03  0.38868813352E+03  0.00000000000E+00 0. -1.
<mgrwt>
<rscale>  2 0.24104156E+02</rscale>
<asrwt>0</asrwt>
<pdfrwt beam="1">  1       21 0.98741422E-01 0.24104156E+02</pdfrwt>
<pdfrwt beam="2">  1       21 0.14569762E-03 0.24104156E+02</pdfrwt>
<totfact> 0.48212416E+07</totfact>
</mgrwt>
</event>
<event>
 4    1  0.2754379E+004  0.2054980E+02  0.7546771E-02  0.1734611E+00
         21   -1    0    0  501  502  0.00000000000E+00  0.00000000000E+00  0.19699809320E+02  0.19699809320E+02  0.00000000000E+00 0.  1.
         21   -1    0    0  502  503 -0.00000000000E+00 -0.00000000000E+00 -0.11177105944E+03  0.11177105944E+03  0.00000000000E+00 0. -1.
          2    1    1    2  501    0  0.17011493913E+02 -0.11528373857E+02  0.13060893393E+02  0.24349153274E+02  0.00000000000E+00 0.  1.
         -2    1    1    2    0  503 -0.17011493913E+02  0.11528373857E+02 -0.10513214352E+03  0.10712171549E+03  0.00000000000E+00 0. -1.
<mgrwt>
<rscale>  2 0.20549801E+02</rscale>
<asrwt>0</asrwt>
<pdfrwt beam="1">  1       21 0.30307399E-02 0.20549801E+02</pdfrwt>
<pdfrwt beam="2">  1       21 0.17195548E-01 0.20549801E+02</pdfrwt>
<totfact> 0.14358273E+07</totfact>
</mgrwt>
</event>
<event>
 4    1  0.2754379E+004  0.5582648E+02  0.7546771E-02  0.1416230E+00
         21   -1    0    0  501  502  0.00000000000E+00  0.00000000000E+00  0.32681325299E+03  0.32681325299E+03  0.00000000000E+00 0.  1.
         21   -1    0    0  502  503 -0.00000000000E+00 -0.00000000000E+00 -0.12014069890E+02  0.12014069890E+02  0.00000000000E+00 0. -1.
          2    1    1    2  501    0  0.29476979739E+02 -0.47409949665E+02  0.23433603583E+03  0.24089411232E+03  0.00000000000E+00 0. -1.
         -2    1    1    2    0  503 -0.29476979739E+02  0.47409949665E+02  0.80463147264E+02  0.97933210553E+02  0.00000000000E+00 0.  1.
<mgrwt>
<rscale>  2 0.55826478E+02</rscale>
<asrwt>0</asrwt>
<pdfrwt beam="1">  1       21 0.50278955E-01 0.55826478E+02</pdfrwt>
<pdfrwt beam="2">  1       21 0.18483187E-02 0.55826478E+02</pdfrwt>
<totfact> 0.49396523E+06</totfact>
</mgrwt>
</event>
<event>
 4    1  0.2754379E+004  0.2190253E+02  0.7546771E-02  0.1709943E+00
         21   -1    0    0  501  502  0.00000000000E+00  0.00000000000E+00  0.57344227318E+02  0.57344227318E+02  0.00000000000E+00 0. -1.
         21   -1    0    0  502  503 -0.00000000000E+00 -0.00000000000E+00 -0.15026403027E+02  0.15026403027E+02  0.00000000000E+00 0.  1.
          2    1    1    2  501    0 -0.15137485539E+02  0.15829640140E+02  0.45250584079E+02  0.50272620132E+02  0.00000000000E+00 0. -1.
         -2    1    1    2    0  503  0.15137485539E+02 -0.15829640140E+02 -0.29327597890E+01  0.22098010213E+02  0.00000000000E+00 0.  1.
<mgrwt>
<rscale>  2 0.21902534E+02</rscale>
<asrwt>0</asrwt>
<pdfrwt beam="1">  1       21 0.88221887E-02 0.21902534E+02</pdfrwt>
<pdfrwt beam="2">  1       21 0.23117543E-02 0.21902534E+02</pdfrwt>
<totfact> 0.67680516E+07</totfact>
</mgrwt>
</event>
